FOO
135168
    1MOL0     O    1  11.187   5.666   6.469  0.5621 -0.3269  0.5801
    1MOL0     C    2  11.152   5.739   6.561 -0.6188 -0.3725 -0.2647
    1MOL0     O    3  11.043   5.720   6.639  0.3848  0.0583  1.7122
    1MOL0     C    4  10.946   5.626   6.613 -0.3740 -0.0902 -0.1802
    1MOL0     C    5  10.975   5.500   6.572  0.3349  0.0439 -0.1856
    1MOL0     C    6  10.869   5.415   6.554 -0.8527  0.2520  0.0614
    1MOL0     C    7  10.738   5.447   6.595  0.9218  0.3883  0.2498
    1MOL0     O    8  10.627   5.366   6.595  0.3836  0.1834 -0.1792
    1MOL0     C    9  10.632   5.235   6.534 -0.1688 -0.5634  0.3361
    1MOL0     C   10  10.680   5.127   6.631  0.4965  0.5075 -1.1787
    1MOL0     C   11  10.569   5.066   6.721  0.4765 -0.5591  0.0635
    1MOL0     C   12  10.617   4.950   6.805 -0.1923  0.4292  0.1264
    1MOL0     C   13  10.500   4.844   6.831  0.7296 -0.1982 -0.6062
    1MOL0     C   14  10.538   4.734   6.918 -0.0824 -0.0387  0.5755
    1MOL0     C   15  10.416   4.642   6.917 -0.0404 -0.1174 -0.1857
    1MOL0     C   16  10.443   4.507   6.991  0.1546  0.3492 -0.4374
    1MOL0     N   17  10.483   4.528   7.131 -0.1319  0.0766  0.1147
    1MOL0     C   18  10.399   4.518   7.240  0.8957  0.3432 -1.5421
    1MOL0     C   19  10.485   4.544   7.345 -0.0469  0.5543  0.6616
    1MOL0     C   20  10.444   4.530   7.485 -0.1872  0.0572 -0.2557
    1MOL0     C   21  10.366   4.658   7.522 -0.2298 -0.0092  0.4471
    1MOL0     C   22  10.294   4.650   7.648  0.6047  0.3597  0.0545
    1MOL0     C   23  10.199   4.772   7.666 -0.5694  0.5867  0.8203
    1MOL0     O   24  10.114   4.777   7.551  0.3378 -0.1110  0.9962
    1MOL0     C   25  10.027   4.884   7.554 -0.3083 -0.4499  0.8025
    1MOL0     C   26   9.986   4.921   7.424  0.6616 -0.0565 -0.2314
    1MOL0     C   27   9.896   5.028   7.409 -0.5701  0.4387  0.0153
    1MOL0     C   28   9.853   5.102   7.519 -0.2333  0.0980  1.1827
    1MOL0     C   29   9.744   5.211   7.499 -0.3868 -0.7807 -0.3972
    1MOL0     O   30   9.730   5.288   7.616  0.3713  0.1475  0.0572
    1MOL0     C   31   9.638   5.389   7.620  0.7758  0.4461  0.5084
    1MOL0     C   32   9.530   5.379   7.709  0.1882 -0.0166 -0.6298
    1MOL0     C   33   9.440   5.480   7.724  0.4806 -0.2287  0.7504
    1MOL0     C   34   9.440   5.600   7.647  0.1846 -0.6220  0.0875
    1MOL0     O   35   9.359   5.712   7.655  0.3597 -0.1910  0.6357
    1MOL0     C   36   9.275   5.734   7.771 -0.4089  0.3956 -0.3886
    1MOL0     C   37   9.169   5.842   7.737 -0.4694 -1.7290 -0.7709
    1MOL0     C   38   9.233   5.981   7.733 -0.4531 -0.9171 -0.7912
    1MOL0     C   39   9.127   6.080   7.683 -0.0911  0.2104  0.5869
    1MOL0     C   40   9.184   6.223   7.697 -0.6232 -0.4872 -0.0200
    1MOL0     C   41   9.085   6.337   7.715 -0.1404  0.0940 -0.3159
    1MOL0     C   42   8.961   6.334   7.620  0.1459  0.1075  0.0509
    1MOL0     C   43   8.882   6.464   7.634 -0.3525 -0.8372  0.0943
    1MOL0    Cl   44   8.838   6.493   7.800 -0.2328  0.0361  0.2013
    1MOL0     C   45   9.538   5.600   7.550  0.0266  0.0600 -0.7127
    1MOL0     C   46   9.639   5.506   7.546  0.4320 -0.6581 -0.0545
    1MOL0     O   47   9.686   5.231   7.395 -0.5102 -0.0799  0.3921
    1MOL0     C   48   9.903   5.072   7.644  0.3615  0.2581  0.7343
    1MOL0     C   49   9.994   4.966   7.659 -0.7711 -0.0676 -0.1254
    1MOL0     N   50  10.613   4.561   7.294 -0.7936 -0.3334 -0.6274
    1MOL0     N   51  10.610   4.549   7.167 -0.2985  0.0916 -0.5403
    1MOL0     C   52  10.709   5.577   6.648 -0.9726 -0.6502 -0.0242
    1MOL0     C   53  10.815   5.664   6.654 -0.1591 -0.5841  0.2614
    1MOL0     C   54  11.238   5.862   6.593 -0.1465  0.6675 -0.2617
    1MOL0     C   55  11.228   5.928   6.719 -0.4844 -1.1449 -0.1035
    1MOL0     C   56  11.291   6.050   6.756  0.1597 -0.0536  0.2147
    1MOL0     C   57  11.357   6.118   6.650 -0.4877 -0.2417  0.1331
    1MOL0     O   58  11.408   6.245   6.661  0.6620  0.2517  0.4332
    1MOL0     C   59  11.332   6.340   6.739  0.1438 -0.4440  0.0695
    1MOL0     C   60  11.334   6.472   6.674  0.6273 -0.9801 -0.4329
    1MOL0     C   61  11.259   6.469   6.536 -0.7635  0.5736 -0.7220
    1MOL0     C   62  11.285   6.597   6.447 -0.8889 -0.7828  0.0475
    1MOL0     C   63  11.309   6.720   6.517  0.5038  0.2498  0.1489
    1MOL0     C   64  11.349   6.829   6.554 -0.0763 -0.0862  0.3103
    1MOL0     C   65  11.371   6.057   6.527  0.0159  0.5189  0.4626
    1MOL0     C   66  11.314   5.928   6.498  0.2852 -0.0987  0.1202
    1MOL0     H   67  11.078   5.467   6.560  1.6021  3.3930  0.3306
    1MOL0     H   68  10.896   5.318   6.512 -0.3216 -0.2277  1.4196
    1MOL0     H   69  10.684   5.246   6.438 -2.1002  0.8759 -0.6144
    1MOL0     H   70  10.536   5.202   6.495 -1.1488  0.6421  1.6344
    1MOL0     H   71  10.777   5.158   6.672  0.9714  0.8477 -2.5210
    1MOL0     H   72  10.701   5.047   6.560  1.4125 -0.0612 -0.2895
    1MOL0     H   73  10.483   5.040   6.658 -0.1618  2.3573 -0.4024
    1MOL0     H   74  10.530   5.147   6.783  2.5941  0.0473  0.6798
    1MOL0     H   75  10.696   4.893   6.755 -0.2316  0.3419  0.1639
    1MOL0     H   76  10.663   4.989   6.896  0.4065 -0.0000  0.0079
    1MOL0     H   77  10.471   4.800   6.736 -0.5915  1.5766 -1.0652
    1MOL0     H   78  10.417   4.900   6.876  2.8516  2.5727  0.1924
    1MOL0     H   79  10.554   4.769   7.020  0.5291  1.0109  0.1391
    1MOL0     H   80  10.624   4.683   6.872 -1.1461  1.3066 -3.3504
    1MOL0     H   81  10.331   4.698   6.959  0.1305  0.9816 -1.2299
    1MOL0     H   82  10.384   4.619   6.815  1.1107  0.6299 -0.7358
    1MOL0     H   83  10.514   4.454   6.927 -2.1999  0.6320 -3.5060
    1MOL0     H   84  10.347   4.455   6.997  0.7698 -0.7124  0.7181
    1MOL0     H   85  10.292   4.503   7.252  0.8857  2.1405  1.7206
    1MOL0     H   86  10.536   4.527   7.544  1.4553 -0.0649 -2.6875
    1MOL0     H   87  10.397   4.434   7.509  1.4246 -0.5256  0.7494
    1MOL0     H   88  10.300   4.681   7.438  1.4293 -0.9415 -1.1708
    1MOL0     H   89  10.444   4.733   7.536  2.1164 -2.2044 -0.2692
    1MOL0     H   90  10.230   4.561   7.645  3.2427 -1.8545  2.7088
    1MOL0     H   91  10.366   4.635   7.729  0.8184 -0.6118 -0.2916
    1MOL0     H   92  10.257   4.863   7.684  0.3293 -0.1997  2.0431
    1MOL0     H   93  10.159   4.766   7.768  0.2520  1.9738  1.2626
    1MOL0     H   94  10.032   4.867   7.341  2.1110 -3.1376  2.3676
    1MOL0     H   95   9.874   5.058   7.307 -2.9672 -2.0218 -0.3090
    1MOL0     H   96   9.523   5.291   7.772  0.6807  0.5544  0.2511
    1MOL0     H   97   9.352   5.461   7.783  0.4176 -4.2142 -0.3633
    1MOL0     H   98   9.333   5.761   7.860  2.3391 -1.6812 -1.3999
    1MOL0     H   99   9.232   5.640   7.805  1.2388 -0.3467 -0.2490
    1MOL0     H  100   9.106   5.856   7.826  0.3226 -0.0077 -0.4524
    1MOL0     H  101   9.123   5.814   7.642  0.6491  4.7967 -3.7887
    1MOL0     H  102   9.320   5.985   7.667  0.8196  3.3917  0.8306
    1MOL0     H  103   9.255   6.011   7.836  0.2471 -0.3932 -1.0893
    1MOL0     H  104   9.099   6.065   7.578  1.3018  1.2258  0.0378
    1MOL0     H  105   9.032   6.062   7.736  0.1565 -0.1984  0.9007
    1MOL0     H  106   9.232   6.248   7.602 -1.3298 -0.7846 -0.4558
    1MOL0     H  107   9.258   6.224   7.778 -0.0834 -2.2866 -0.4490
    1MOL0     H  108   9.135   6.433   7.695 -0.6415 -0.3287 -4.4274
    1MOL0     H  109   9.070   6.349   7.823  3.3435  0.1620  0.2704
    1MOL0     H  110   8.982   6.336   7.513 -2.0681  1.2519 -0.4101
    1MOL0     H  111   8.895   6.250   7.641  0.7345 -0.2981  0.3307
    1MOL0     H  112   8.792   6.464   7.573  0.0378  0.8637 -0.5220
    1MOL0     H  113   8.943   6.541   7.586  0.6055 -3.2121 -2.7679
    1MOL0     H  114   9.558   5.684   7.484  2.9378 -0.1845 -0.2992
    1MOL0     H  115   9.731   5.525   7.492  0.3682  2.6152  0.7474
    1MOL0     H  116   9.875   5.139   7.725 -0.2940 -0.0412  0.7648
    1MOL0     H  117  10.033   4.950   7.759 -1.3845 -0.7188  0.0217
    1MOL0     H  118  10.613   5.603   6.692  1.3287  1.5882  4.2729
    1MOL0     H  119  10.803   5.760   6.704  0.9284 -1.2283  1.8442
    1MOL0     H  120  11.153   5.897   6.790  1.0239  2.5344  3.5363
    1MOL0     H  121  11.267   6.094   6.853 -2.1250  0.8091 -0.6751
    1MOL0     H  122  11.384   6.344   6.836  1.4241  0.6236 -0.6323
    1MOL0     H  123  11.226   6.314   6.748  0.1770 -1.3558 -1.8325
    1MOL0     H  124  11.290   6.547   6.740  2.5877  0.5312 -0.7544
    1MOL0     H  125  11.439   6.494   6.654  0.6933 -0.9339 -0.0394
    1MOL0     H  126  11.152   6.472   6.555 -0.8238 -1.8233 -0.2540
    1MOL0     H  127  11.270   6.368   6.495  0.3058 -0.6530  2.2696
    1MOL0     H  128  11.373   6.592   6.383  0.7721  2.0350  1.8850
    1MOL0     H  129  11.199   6.609   6.381 -0.3821 -0.4973 -0.5665
    1MOL0     H  130  11.390   6.925   6.582  0.2566 -0.3800  0.8493
    1MOL0     H  131  11.427   6.106   6.448 -2.5911 -0.9500 -2.5461
    1MOL0     H  132  11.334   5.879   6.403 -0.3469  1.1432 -0.6890
    2MOL0     O  133   7.537   8.995   1.077  0.3258 -0.4466  0.3815
    2MOL0     C  134   7.551   9.070   0.977 -0.6669 -1.0465 -0.3311
    2MOL0     O  135   7.455   9.107   0.890 -0.2623  0.1949  0.0165
    2MOL0     C  136   7.321   9.077   0.903  0.2414  0.6305 -0.8160
    2MOL0     C  137   7.257   9.079   0.784 -0.2265  0.1036 -0.1082
    2MOL0     C  138   7.113   9.066   0.778 -0.3804  0.8323  0.5634
    2MOL0     C  139   7.040   9.063   0.898  0.7148  0.4296  0.2590
    2MOL0     O  140   6.907   9.066   0.887 -0.3467  0.3413 -0.4658
    2MOL0     C  141   6.843   9.096   1.017 -0.2998  0.1509  0.1414
    2MOL0     C  142   6.695   9.114   0.996 -0.2841 -0.9956  1.1560
    2MOL0     C  143   6.615   9.092   1.109 -0.4369  0.9793  0.4574
    2MOL0     C  144   6.459   9.093   1.089 -0.9082 -0.1009 -0.7527
    2MOL0     C  145   6.377   9.075   1.223 -0.2537 -1.2795 -1.0615
    2MOL0     C  146   6.381   8.935   1.285  0.1544 -0.1674  0.3662
    2MOL0     C  147   6.278   8.921   1.401  0.1413  0.0878  0.7549
    2MOL0     C  148   6.141   8.896   1.338 -0.2009 -0.1596  0.7304
    2MOL0     N  149   6.041   8.874   1.445 -0.0106  0.6536  0.2173
    2MOL0     C  150   6.059   8.776   1.537 -0.9927  0.3041 -0.1215
    2MOL0     C  151   5.941   8.763   1.596 -0.2796 -0.2946  0.0933
    2MOL0     C  152   5.903   8.651   1.692 -0.0435 -0.4740 -0.6689
    2MOL0     C  153   5.877   8.701   1.833 -0.2607  0.2024 -0.7008
    2MOL0     C  154   6.011   8.756   1.903  0.2837  0.1688 -0.1350
    2MOL0     C  155   5.987   8.797   2.045  0.5815 -0.3360 -0.7510
    2MOL0     O  156   5.924   8.698   2.121  0.0370 -0.2696 -0.8844
    2MOL0     C  157   5.868   8.739   2.236  0.4194  0.8805 -0.0147
    2MOL0     C  158   5.918   8.839   2.325 -0.1998 -0.0296  0.4446
    2MOL0     C  159   5.849   8.876   2.443  0.7616  0.7687  0.5167
    2MOL0     C  160   5.730   8.804   2.478  1.0947  1.3070 -0.0089
    2MOL0     C  161   5.667   8.828   2.608  0.5014 -0.6678 -0.4819
    2MOL0     O  162   5.538   8.807   2.610 -0.3848  0.5767 -0.4026
    2MOL0     C  163   5.462   8.840   2.711  1.4963  0.7071 -0.9630
    2MOL0     C  164   5.377   8.743   2.769  0.2527  0.0737 -1.2024
    2MOL0     C  165   5.296   8.779   2.875  0.3002  0.0254  0.8650
    2MOL0     C  166   5.293   8.899   2.925 -0.2193 -0.1870  0.1589
    2MOL0     O  167   5.220   8.915   3.031 -0.3466 -0.2276  0.6534
    2MOL0     C  168   5.196   9.046   3.085  0.1641  0.0798  0.8985
    2MOL0     C  169   5.114   9.135   2.981  0.1936  0.2918  0.8196
    2MOL0     C  170   4.961   9.085   2.973 -0.3898  0.2105 -0.2955
    2MOL0     C  171   4.922   9.134   2.836 -0.5790 -0.1110 -0.5394
    2MOL0     C  172   4.769   9.118   2.814  0.1208 -0.3491  0.2659
    2MOL0     C  173   4.723   9.131   2.661 -0.7056 -0.9755  0.0630
    2MOL0     C  174   4.594   9.057   2.635 -0.1947  0.1672  0.0868
    2MOL0     C  175   4.553   9.087   2.499 -0.8487 -0.1500  0.1276
    2MOL0    Cl  176   4.416   9.003   2.443 -0.5136  0.1616 -0.0569
    2MOL0     C  177   5.386   8.996   2.874 -0.0366  0.1346 -0.5410
    2MOL0     C  178   5.460   8.964   2.763 -0.6393 -0.7594  0.0292
    2MOL0     O  179   5.735   8.844   2.707 -0.7138  0.1428 -0.5140
    2MOL0     C  180   5.689   8.702   2.390  0.4015 -0.2450 -0.2826
    2MOL0     C  181   5.758   8.664   2.280  0.5843  0.0527 -0.0688
    2MOL0     N  182   5.851   8.854   1.540 -0.0914 -0.1441 -0.0334
    2MOL0     N  183   5.914   8.926   1.455  0.2169  0.6576  0.3595
    2MOL0     C  184   7.115   9.030   1.010 -0.1346 -1.0694 -1.1304
    2MOL0     C  185   7.249   9.045   1.019 -0.1839  0.4353 -0.6015
    2MOL0     C  186   7.688   9.124   0.956 -0.7469 -0.3673 -0.5262
    2MOL0     C  187   7.726   9.172   0.829 -0.2588  0.1830 -0.4988
    2MOL0     C  188   7.852   9.237   0.814 -0.2692 -0.5796  0.1290
    2MOL0     C  189   7.936   9.252   0.927  0.8722 -0.2613  1.1066
    2MOL0     O  190   8.065   9.308   0.928  1.0846  0.3664  0.2986
    2MOL0     C  191   8.089   9.408   0.826 -0.3047  0.2656  0.0584
    2MOL0     C  192   8.161   9.352   0.710  0.1759  0.4911 -0.1335
    2MOL0     C  193   8.219   9.453   0.607 -0.3455  0.2516 -0.0842
    2MOL0     C  194   8.147   9.586   0.593  0.0015  0.1001  1.3521
    2MOL0     C  195   8.009   9.569   0.528  0.7014 -0.4320  0.3467
    2MOL0     C  196   7.889   9.578   0.496 -0.3708  0.0405 -0.4797
    2MOL0     C  197   7.887   9.211   1.051  0.7844 -0.5987  0.1800
    2MOL0     C  198   7.767   9.150   1.069  0.7495  0.0948 -0.3352
    2MOL0     H  199   7.315   9.120   0.702 -0.0586  1.1240  0.5111
    2MOL0     H  200   7.060   9.072   0.683 -2.4811  2.5874  1.7445
    2MOL0     H  201   6.884   9.184   1.067  3.2366  0.4227 -2.8332
    2MOL0     H  202   6.846   9.015   1.090 -0.0754  0.5602  0.5895
    2MOL0     H  203   6.653   9.054   0.915  0.2097  0.9756 -0.6280
    2MOL0     H  204   6.666   9.213   0.960 -1.0662 -2.9701 -4.5817
    2MOL0     H  205   6.645   9.161   1.188  0.1221 -0.2401  1.3569
    2MOL0     H  206   6.629   8.988   1.142 -0.8204  0.8432  0.2059
    2MOL0     H  207   6.446   9.189   1.038  0.6909 -0.2307 -1.4540
    2MOL0     H  208   6.439   9.018   1.011  1.9553 -1.1929 -0.5542
    2MOL0     H  209   6.273   9.104   1.206 -0.0300  0.3252  0.1683
    2MOL0     H  210   6.415   9.145   1.297 -0.1794 -1.0416 -1.3227
    2MOL0     H  211   6.481   8.931   1.329  0.5978  0.9052 -0.5002
    2MOL0     H  212   6.373   8.859   1.206  3.4910  0.2168 -0.4699
    2MOL0     H  213   6.304   8.836   1.465 -1.7824 -1.7618 -0.7941
    2MOL0     H  214   6.279   9.018   1.453  1.6144  1.0846 -1.0129
    2MOL0     H  215   6.138   8.808   1.273  1.4737  0.3905 -0.1658
    2MOL0     H  216   6.109   8.988   1.288 -0.3384 -0.0480  1.0188
    2MOL0     H  217   6.149   8.716   1.547 -0.6520  0.7755 -0.3319
    2MOL0     H  218   5.992   8.589   1.705 -0.7071 -1.4796 -0.8065
    2MOL0     H  219   5.820   8.595   1.647 -1.3689  1.8159 -1.2612
    2MOL0     H  220   5.834   8.618   1.890 -3.2040  1.0254 -1.5136
    2MOL0     H  221   5.803   8.782   1.834 -1.4986 -0.8704 -1.4163
    2MOL0     H  222   6.090   8.681   1.894  0.0339 -0.5047  2.4390
    2MOL0     H  223   6.048   8.846   1.854  0.5505  0.1085 -0.0441
    2MOL0     H  224   5.931   8.890   2.045 -0.4095 -0.9087 -2.0922
    2MOL0     H  225   6.090   8.810   2.081  0.2096  0.7110 -0.0114
    2MOL0     H  226   6.016   8.883   2.311 -0.1167  0.2308  1.7318
    2MOL0     H  227   5.885   8.959   2.503  0.4694 -1.3238  3.8749
    2MOL0     H  228   5.376   8.653   2.709  0.3225  0.0507 -1.1688
    2MOL0     H  229   5.218   8.712   2.912  0.1598 -3.1492 -4.1529
    2MOL0     H  230   5.294   9.083   3.117 -0.0767 -1.2867  3.4822
    2MOL0     H  231   5.146   9.046   3.182  0.0570  3.5185  0.9602
    2MOL0     H  232   5.157   9.116   2.882 -2.1703  0.8679 -0.4003
    2MOL0     H  233   5.115   9.244   2.993 -0.0548  0.5785 -1.2297
    2MOL0     H  234   4.903   9.120   3.058 -0.8946 -1.7691  0.2217
    2MOL0     H  235   4.945   8.977   2.967  1.0930 -0.1740  1.7668
    2MOL0     H  236   4.948   9.240   2.831  3.0898 -0.9394 -1.3367
    2MOL0     H  237   4.981   9.083   2.760 -2.9793 -0.5688 -2.2302
    2MOL0     H  238   4.721   9.195   2.876 -3.0056 -0.9409 -1.2161
    2MOL0     H  239   4.741   9.017   2.847 -0.8543  0.1961  1.1828
    2MOL0     H  240   4.792   9.090   2.587 -1.5471 -1.4282 -0.4929
    2MOL0     H  241   4.714   9.239   2.644 -1.8498 -0.9272  0.8172
    2MOL0     H  242   4.621   8.951   2.637 -0.7486 -0.0076 -1.1928
    2MOL0     H  243   4.520   9.075   2.714 -3.4877 -2.8182 -2.0608
    2MOL0     H  244   4.635   9.054   2.435  1.0908  2.0418  1.3173
    2MOL0     H  245   4.527   9.193   2.488  2.8168  1.0239  1.0477
    2MOL0     H  246   5.390   9.094   2.919 -1.6450 -0.3928  0.8658
    2MOL0     H  247   5.531   9.044   2.743 -1.4863  0.3778  1.3825
    2MOL0     H  248   5.615   8.632   2.428  0.1873  0.7184  1.1594
    2MOL0     H  249   5.713   8.586   2.219  0.8315  0.2379 -0.4959
    2MOL0     H  250   7.057   9.000   1.097 -1.4236  0.7992 -1.2729
    2MOL0     H  251   7.293   9.028   1.117 -2.0794 -1.6428 -0.0133
    2MOL0     H  252   7.664   9.174   0.740 -3.0787  0.1052  1.3472
    2MOL0     H  253   7.877   9.274   0.714  0.4165  0.5604  0.6932
    2MOL0     H  254   8.155   9.475   0.881 -1.0427  0.6146  0.5354
    2MOL0     H  255   7.998   9.458   0.791  0.1952 -0.6396 -2.8650
    2MOL0     H  256   8.246   9.289   0.738 -0.1078  0.4628  0.6728
    2MOL0     H  257   8.080   9.300   0.657 -1.4802  2.8675 -0.0834
    2MOL0     H  258   8.239   9.404   0.511 -0.1580  2.8727 -1.4694
    2MOL0     H  259   8.322   9.465   0.644  0.3707 -0.8524 -1.5924
    2MOL0     H  260   8.142   9.630   0.693  0.8988 -0.3550  1.6059
    2MOL0     H  261   8.201   9.666   0.542 -2.0313  0.1406 -0.9061
    2MOL0     H  262   7.788   9.585   0.464 -0.0987 -0.2210 -1.4147
    2MOL0     H  263   7.955   9.198   1.135 -0.1464 -2.5921  0.6968
    2MOL0     H  264   7.736   9.114   1.166 -0.8898 -1.0964 -1.2345
    3MOL0     O  265   2.095   3.891   4.657  0.1067 -0.1543  0.2327
    3MOL0     C  266   2.084   3.784   4.593  0.0315 -0.3947  0.4859
    3MOL0     O  267   1.976   3.704   4.577  0.3889 -0.2500 -0.3575
    3MOL0     C  268   1.851   3.742   4.635  0.8905  0.1302 -0.6005
    3MOL0     C  269   1.738   3.725   4.559  0.7424  0.3962 -0.1621
    3MOL0     C  270   1.612   3.753   4.614  0.7340  1.0828  0.3095
    3MOL0     C  271   1.595   3.799   4.748 -1.2407  0.0127 -0.1115
    3MOL0     O  272   1.474   3.815   4.800 -0.0637  0.3692 -0.2378
    3MOL0     C  273   1.456   3.839   4.943  0.1826 -0.1935 -0.2231
    3MOL0     C  274   1.474   3.982   4.993 -0.8311  0.6518 -0.9034
    3MOL0     C  275   1.472   3.997   5.149  0.1462  0.8210 -0.5659
    3MOL0     C  276   1.599   3.940   5.224  1.0685  0.1799 -0.3261
    3MOL0     C  277   1.634   4.001   5.353  0.7284 -0.3381 -0.3877
    3MOL0     C  278   1.552   3.935   5.460 -0.2162 -0.5607  0.0806
    3MOL0     C  279   1.618   3.966   5.597  0.1546 -0.6836  0.1996
    3MOL0     C  280   1.745   3.880   5.636 -1.2680  0.7039  0.0124
    3MOL0     N  281   1.713   3.741   5.620  0.3571 -0.0510  0.6793
    3MOL0     C  282   1.603   3.683   5.666  0.2937  0.0516  0.6996
    3MOL0     C  283   1.618   3.556   5.629  0.4126  0.8591  0.0859
    3MOL0     C  284   1.526   3.443   5.653  0.4415  0.5221 -0.5010
    3MOL0     C  285   1.371   3.497   5.646  0.0990  0.6702 -0.1552
    3MOL0     C  286   1.273   3.376   5.659  0.3379  0.0220  0.1265
    3MOL0     C  287   1.153   3.432   5.747 -0.5246  0.0321  0.4374
    3MOL0     O  288   1.188   3.420   5.882  1.2879  0.2131 -1.0259
    3MOL0     C  289   1.102   3.467   5.976 -0.0737 -0.7737  0.3380
    3MOL0     C  290   0.971   3.492   5.957  0.9466  1.2867  0.0262
    3MOL0     C  291   0.896   3.523   6.069  0.6353 -0.3957 -0.4342
    3MOL0     C  292   0.947   3.524   6.205 -0.3841  0.8043  0.3191
    3MOL0     C  293   0.853   3.535   6.326 -0.3462 -0.5289  0.3801
    3MOL0     O  294   0.729   3.570   6.302 -0.2798  0.1227  0.7418
    3MOL0     C  295   0.624   3.537   6.382 -0.1866 -0.0174 -0.6874
    3MOL0     C  296   0.621   3.552   6.519 -0.1186  0.0009 -0.0208
    3MOL0     C  297   0.496   3.514   6.573  0.0232 -0.7344  0.8963
    3MOL0     C  298   0.372   3.492   6.510 -0.7169 -0.1734  0.3118
    3MOL0     O  299   0.259   3.478   6.581 -0.3220  0.1050  0.0400
    3MOL0     C  300   0.129   3.481   6.530  1.0990  0.1948  0.3931
    3MOL0     C  301   0.027   3.457   6.650 -0.3112  0.1367 -0.0356
    3MOL0     C  302  -0.114   3.503   6.613 -0.2220 -0.2754  0.0220
    3MOL0     C  303  -0.206   3.469   6.730 -0.0905  0.6574  0.3646
    3MOL0     C  304  -0.352   3.494   6.701 -0.1965  0.3675  0.4278
    3MOL0     C  305  -0.405   3.416   6.573 -0.0180 -0.2383 -0.3247
    3MOL0     C  306  -0.557   3.389   6.598 -0.3909 -0.1117  0.2113
    3MOL0     C  307  -0.634   3.349   6.471 -0.3678 -0.6671 -0.2583
    3MOL0    Cl  308  -0.801   3.405   6.489 -0.0556  0.2914  0.1235
    3MOL0     C  309   0.381   3.484   6.379  0.0966  1.0739 -0.0152
    3MOL0     C  310   0.505   3.496   6.311  0.1036 -0.7914 -0.8862
    3MOL0     O  311   0.908   3.537   6.441  0.3880  1.0036  0.1423
    3MOL0     C  312   1.090   3.507   6.221  0.5210 -0.8534  0.1228
    3MOL0     C  313   1.162   3.482   6.106  0.2219  0.0070 -0.4348
    3MOL0     N  314   1.737   3.540   5.544  0.4482 -0.3613  0.2852
    3MOL0     N  315   1.784   3.660   5.540 -0.1480  0.4166  0.0382
    3MOL0     C  316   1.712   3.810   4.818 -1.0026  0.2735  0.4075
    3MOL0     C  317   1.843   3.789   4.769  0.1698 -0.0880  0.2521
    3MOL0     C  318   2.210   3.735   4.536  0.2084  0.9197 -0.6256
    3MOL0     C  319   2.328   3.803   4.553 -0.7387  0.0681 -0.0167
    3MOL0     C  320   2.448   3.757   4.506 -0.5617  0.0818  0.6562
    3MOL0     C  321   2.454   3.642   4.421  0.4227  0.2008 -0.4220
    3MOL0     O  322   2.568   3.590   4.367 -1.2751  0.0627 -0.0950
    3MOL0     C  323   2.677   3.597   4.459 -0.4979  0.5609  0.0824
    3MOL0     C  324   2.784   3.496   4.416  0.6362 -0.6065  0.3695
    3MOL0     C  325   2.735   3.360   4.452 -0.1172  1.0139 -0.7787
    3MOL0     C  326   2.857   3.268   4.469  0.1405 -0.1390 -0.0496
    3MOL0     C  327   2.810   3.127   4.471 -0.2127 -0.8351  0.4865
    3MOL0     C  328   2.796   3.007   4.481  0.0627 -0.2657  0.1637
    3MOL0     C  329   2.337   3.569   4.392 -0.3175 -0.7316  0.9248
    3MOL0     C  330   2.219   3.617   4.449  0.9320 -1.0423  0.5080
    3MOL0     H  331   1.737   3.686   4.457  1.4697  2.2743 -0.9335
    3MOL0     H  332   1.526   3.714   4.560  0.7057 -1.0165  1.7316
    3MOL0     H  333   1.517   3.772   5.005  0.1995 -0.2881 -0.3405
    3MOL0     H  334   1.348   3.823   4.950  0.5453 -2.1291  2.9640
    3MOL0     H  335   1.390   4.042   4.956  0.4990  1.6563 -2.4353
    3MOL0     H  336   1.568   4.019   4.950 -1.1012  2.1548 -0.2784
    3MOL0     H  337   1.387   3.944   5.192  1.6365 -0.8417  0.4870
    3MOL0     H  338   1.452   4.101   5.176 -1.3742  1.0878 -2.4901
    3MOL0     H  339   1.576   3.833   5.234 -2.7401  1.0723  3.4381
    3MOL0     H  340   1.679   3.938   5.149  1.3849  1.0543 -0.0336
    3MOL0     H  341   1.607   4.107   5.354  0.1047 -0.4928  1.4145
    3MOL0     H  342   1.742   3.991   5.366  0.5702 -1.2157  0.2841
    3MOL0     H  343   1.546   3.826   5.449  1.0055 -0.5027 -1.7364
    3MOL0     H  344   1.449   3.969   5.456 -0.2100 -0.3871  1.2367
    3MOL0     H  345   1.636   4.073   5.613  2.1944 -1.0957  1.0279
    3MOL0     H  346   1.554   3.947   5.684 -1.1428  2.0163 -0.0836
    3MOL0     H  347   1.760   3.894   5.743 -1.5701  0.4756  0.0874
    3MOL0     H  348   1.833   3.910   5.579 -0.8931  1.9327  1.1916
    3MOL0     H  349   1.519   3.708   5.729 -1.0762 -0.4436 -0.8519
    3MOL0     H  350   1.540   3.388   5.746 -1.1595 -1.2784 -1.2605
    3MOL0     H  351   1.556   3.374   5.574 -3.3061 -3.1021  0.8699
    3MOL0     H  352   1.346   3.551   5.554  3.1374  0.4459 -1.2241
    3MOL0     H  353   1.346   3.559   5.733 -1.4223  0.7700 -0.6296
    3MOL0     H  354   1.236   3.341   5.562  1.6669 -1.5546  0.1503
    3MOL0     H  355   1.314   3.281   5.695 -1.9969 -1.6523 -1.3128
    3MOL0     H  356   1.067   3.369   5.721  0.2954  0.2494 -3.5284
    3MOL0     H  357   1.127   3.532   5.712  0.8872 -0.0683 -1.0599
    3MOL0     H  358   0.928   3.484   5.858 -0.0611 -0.8907  0.5710
    3MOL0     H  359   0.790   3.546   6.062  0.7470  1.5393  2.4415
    3MOL0     H  360   0.711   3.576   6.575 -0.1373 -2.4425  1.1521
    3MOL0     H  361   0.501   3.498   6.681  0.4721  0.0033  0.9943
    3MOL0     H  362   0.115   3.400   6.458 -3.2681  1.2842 -0.2674
    3MOL0     H  363   0.125   3.580   6.485 -0.6070  0.9267  2.0248
    3MOL0     H  364   0.048   3.520   6.737 -1.1668 -1.1810  1.1721
    3MOL0     H  365   0.026   3.350   6.670 -3.2922 -0.2072 -1.4940
    3MOL0     H  366  -0.152   3.459   6.521  0.2134  1.4279 -1.0012
    3MOL0     H  367  -0.115   3.612   6.602 -1.1863  0.0014  2.1403
    3MOL0     H  368  -0.193   3.362   6.750  3.8001  1.1082  0.9272
    3MOL0     H  369  -0.168   3.512   6.823  1.9712 -1.0069  0.3409
    3MOL0     H  370  -0.380   3.599   6.705 -1.8564 -0.0780  2.8715
    3MOL0     H  371  -0.405   3.454   6.788  0.1809 -0.4127  0.3110
    3MOL0     H  372  -0.350   3.322   6.561  1.0600  0.3987 -0.4228
    3MOL0     H  373  -0.380   3.480   6.488  1.3140 -0.3637 -0.0438
    3MOL0     H  374  -0.565   3.315   6.679  3.5039 -1.5910 -0.5347
    3MOL0     H  375  -0.590   3.489   6.626  4.1032  0.9273  2.8478
    3MOL0     H  376  -0.625   3.242   6.452  0.6351 -0.1577 -3.1536
    3MOL0     H  377  -0.563   3.390   6.399  1.0734 -1.6997  0.5181
    3MOL0     H  378   0.299   3.452   6.316  0.2541  2.1398 -0.7751
    3MOL0     H  379   0.516   3.497   6.203 -0.6276 -1.1976 -0.9657
    3MOL0     H  380   1.142   3.499   6.316 -0.4888 -3.3338  0.5600
    3MOL0     H  381   1.270   3.484   6.103  0.2613 -0.5505  0.4186
    3MOL0     H  382   1.715   3.823   4.925  1.3794 -2.7912  0.8704
    3MOL0     H  383   1.938   3.790   4.823  1.6591  1.5955 -2.1849
    3MOL0     H  384   2.329   3.897   4.606 -2.5185  1.4965 -2.3003
    3MOL0     H  385   2.539   3.813   4.526 -0.4377 -0.5298  1.9116
    3MOL0     H  386   2.647   3.578   4.562 -0.3406 -1.0096 -0.1366
    3MOL0     H  387   2.721   3.697   4.469  1.8658 -0.4934  0.9110
    3MOL0     H  388   2.788   3.502   4.306 -2.8392  1.3221  0.2037
    3MOL0     H  389   2.881   3.517   4.460 -0.5991  1.1489  2.4359
    3MOL0     H  390   2.685   3.325   4.362  1.9677 -1.8801 -0.9536
    3MOL0     H  391   2.673   3.356   4.543  3.2414  1.6406  1.7461
    3MOL0     H  392   2.918   3.294   4.382 -3.2357 -0.9400 -2.8973
    3MOL0     H  393   2.907   3.292   4.563 -0.9158 -0.3138  0.5803
    3MOL0     H  394   2.783   2.903   4.504  0.9836 -0.3705  0.2343
    3MOL0     H  395   2.351   3.480   4.332  1.5550 -0.6151  1.1375
    3MOL0     H  396   2.135   3.549   4.447 -0.5451  0.5834 -3.7201
    4MOL0     O  397   7.898   4.259   4.757 -0.5487 -0.0688  0.4167
    4MOL0     C  398   7.913   4.164   4.833 -0.0181 -0.0483  0.2937
    4MOL0     O  399   7.808   4.073   4.870 -1.2972 -0.2636  1.1992
    4MOL0     C  400   7.687   4.071   4.824  1.0126  0.0417 -0.4125
    4MOL0     C  401   7.652   4.036   4.693  0.0523 -0.3847 -0.1801
    4MOL0     C  402   7.530   4.020   4.646 -0.2140  0.2646  0.3916
    4MOL0     C  403   7.433   4.034   4.741 -0.0641  0.2206  0.2258
    4MOL0     O  404   7.293   4.007   4.717  0.1246 -0.7472  0.6373
    4MOL0     C  405   7.247   3.907   4.621  0.0183 -0.2373  0.5567
    4MOL0     C  406   7.099   3.876   4.652 -0.3444  0.2288  0.6554
    4MOL0     C  407   7.025   3.990   4.714 -0.1765 -0.3526 -0.0249
    4MOL0     C  408   6.880   3.943   4.758 -0.9326 -0.2760  0.1437
    4MOL0     C  409   6.807   4.053   4.824  0.0034 -1.0331  0.8486
    4MOL0     C  410   6.659   4.023   4.872  0.3711 -1.1185  0.6184
    4MOL0     C  411   6.635   3.909   4.965 -0.3813 -0.5895 -0.0483
    4MOL0     C  412   6.505   3.926   5.043  0.4740 -0.2038  0.0427
    4MOL0     N  413   6.380   3.916   4.963  0.8963  0.5311 -0.4961
    4MOL0     C  414   6.251   3.945   5.000  0.6094  0.6481  0.2465
    4MOL0     C  415   6.163   3.898   4.909 -1.0733  0.3126 -0.6421
    4MOL0     C  416   6.022   3.912   4.921  0.7443 -0.3686  0.3079
    4MOL0     C  417   5.967   4.057   4.913 -0.2126  0.7851 -0.1402
    4MOL0     C  418   5.817   4.075   4.932 -1.3389 -0.0887  0.4055
    4MOL0     C  419   5.770   3.975   5.035  1.0832 -0.6143 -0.0443
    4MOL0     O  420   5.664   4.021   5.117 -0.5738  0.2161 -0.5690
    4MOL0     C  421   5.534   3.990   5.092 -0.4572  0.0795  0.6160
    4MOL0     C  422   5.479   3.911   4.992  0.7594 -0.0010  0.1742
    4MOL0     C  423   5.343   3.898   4.964 -0.7650  0.1589 -0.3883
    4MOL0     C  424   5.261   3.973   5.049  0.7362  0.0886 -0.4825
    4MOL0     C  425   5.118   3.954   5.041  0.2040  0.2536  0.8960
    4MOL0     O  426   5.039   4.029   5.125  0.6946 -0.7228 -0.2569
    4MOL0     C  427   4.903   4.032   5.118 -0.2704  0.1308 -0.0034
    4MOL0     C  428   4.827   4.153   5.075 -1.3139  1.0294 -1.2470
    4MOL0     C  429   4.686   4.141   5.053 -0.4222 -0.0543 -0.6553
    4MOL0     C  430   4.621   4.025   5.096 -0.9006  0.8636 -0.5671
    4MOL0     O  431   4.481   4.002   5.079  0.1237  0.4105  0.2492
    4MOL0     C  432   4.395   4.097   5.013 -0.6235 -0.8227 -0.1657
    4MOL0     C  433   4.252   4.046   4.991  0.7192  0.0676  0.7309
    4MOL0     C  434   4.202   4.020   5.136  0.6717  0.6985  0.0737
    4MOL0     C  435   4.057   3.971   5.150 -0.9651 -0.4349 -0.8791
    4MOL0     C  436   4.029   3.988   5.307 -0.3275  0.7703 -0.2403
    4MOL0     C  437   3.894   3.930   5.325  0.1533 -0.7689  0.3434
    4MOL0     C  438   3.823   3.976   5.453  1.0720  0.1697 -0.5646
    4MOL0     C  439   3.681   3.912   5.474 -0.7942  0.1224  0.4988
    4MOL0    Cl  440   3.692   3.728   5.483  0.5048  0.2493  0.4659
    4MOL0     C  441   4.691   3.924   5.164  0.8933 -0.5705 -0.4833
    4MOL0     C  442   4.826   3.923   5.166  1.0315  0.7044 -1.4893
    4MOL0     O  443   5.070   3.887   4.953 -0.2170 -0.1937  0.3475
    4MOL0     C  444   5.316   4.063   5.142  0.3098 -0.7154  0.6896
    4MOL0     C  445   5.451   4.065   5.163  0.4935  0.5033  0.3067
    4MOL0     N  446   6.248   3.831   4.819  0.2031 -0.0126 -0.7691
    4MOL0     N  447   6.366   3.834   4.854  0.1143 -0.0041 -0.5645
    4MOL0     C  448   7.455   4.071   4.876  0.6083  0.5981  0.2508
    4MOL0     C  449   7.583   4.088   4.915  0.2948  0.7322 -0.2166
    4MOL0     C  450   8.052   4.161   4.891  0.1362  0.2506  0.7192
    4MOL0     C  451   8.164   4.233   4.839 -0.2827 -0.3804 -1.3006
    4MOL0     C  452   8.293   4.213   4.889  0.7099  0.6350  0.0025
    4MOL0     C  453   8.323   4.130   4.997  0.7704 -0.1832  0.5338
    4MOL0     O  454   8.451   4.114   5.035 -0.5480  0.2666  0.2924
    4MOL0     C  455   8.487   4.060   5.155  0.3472 -0.5123  0.7252
    4MOL0     C  456   8.636   4.050   5.165 -0.9799  0.4574 -0.1373
    4MOL0     C  457   8.687   3.914   5.132 -0.2056  0.8923  0.2096
    4MOL0     C  458   8.847   3.919   5.118  0.0743 -0.6457 -0.1332
    4MOL0     C  459   8.921   3.795   5.103  0.9131 -0.4416 -0.6189
    4MOL0     C  460   8.984   3.698   5.092  0.0054  1.2258  0.4821
    4MOL0     C  461   8.208   4.071   5.055 -1.0392  0.0736 -0.1796
    4MOL0     C  462   8.080   4.074   4.995 -0.2916  0.4252 -1.0714
    4MOL0     H  463   7.735   4.020   4.624  0.4369 -1.9002  0.5949
    4MOL0     H  464   7.513   3.998   4.541 -2.1515  1.7694  0.3462
    4MOL0     H  465   7.325   3.831   4.632 -0.6588 -1.2964 -1.4875
    4MOL0     H  466   7.251   3.947   4.519  0.5268 -2.2370 -0.2732
    4MOL0     H  467   7.098   3.781   4.707  0.2876 -1.4122 -1.9965
    4MOL0     H  468   7.052   3.843   4.559 -2.1579  0.7780  1.3297
    4MOL0     H  469   7.021   4.075   4.646 -1.2522 -0.4894 -0.1541
    4MOL0     H  470   7.077   4.025   4.804 -1.3911  2.1318 -0.2055
    4MOL0     H  471   6.821   3.899   4.677 -1.2096  1.3829 -0.6081
    4MOL0     H  472   6.902   3.871   4.837  1.3134 -0.9763 -1.0170
    4MOL0     H  473   6.819   4.137   4.754  0.7611 -0.6703  1.4001
    4MOL0     H  474   6.863   4.087   4.911  0.2513 -1.6751  0.9448
    4MOL0     H  475   6.598   4.017   4.782  2.9257  0.7594 -1.3996
    4MOL0     H  476   6.621   4.116   4.916  1.3621 -1.0304  1.3378
    4MOL0     H  477   6.630   3.814   4.911  1.2535 -1.0867  0.6310
    4MOL0     H  478   6.718   3.907   5.036 -0.5059 -0.0324  0.1152
    4MOL0     H  479   6.515   4.023   5.093 -0.3295  0.0110 -0.2027
    4MOL0     H  480   6.502   3.849   5.121  2.1074  2.0080  2.4581
    4MOL0     H  481   6.228   3.998   5.092 -3.1180 -4.4419  2.7338
    4MOL0     H  482   5.998   3.863   5.015 -1.3337  1.4377  0.7780
    4MOL0     H  483   5.970   3.855   4.843 -0.5912  1.3077 -0.0926
    4MOL0     H  484   5.990   4.094   4.813 -0.3740 -0.4507 -0.6605
    4MOL0     H  485   6.022   4.115   4.987 -0.8018  0.0044  0.9483
    4MOL0     H  486   5.791   4.174   4.970  0.9087 -0.2414  2.5867
    4MOL0     H  487   5.766   4.062   4.836 -0.2363  0.0168 -0.2123
    4MOL0     H  488   5.851   3.962   5.108  0.8256 -0.3002  0.3051
    4MOL0     H  489   5.753   3.883   4.979 -0.0923 -0.4978  0.0845
    4MOL0     H  490   5.545   3.855   4.926  1.2628 -2.7395  2.7674
    4MOL0     H  491   5.296   3.838   4.887  1.0349 -0.6001 -0.9441
    4MOL0     H  492   4.891   4.230   5.035  2.0942 -2.4417 -3.1478
    4MOL0     H  493   4.620   4.227   5.043 -1.2819 -0.3228  1.8798
    4MOL0     H  494   4.440   4.129   4.919 -2.9691 -2.0674 -1.8145
    4MOL0     H  495   4.394   4.186   5.078 -0.8247 -1.4831  0.7663
    4MOL0     H  496   4.248   3.957   4.928 -2.3811  1.7677 -1.7937
    4MOL0     H  497   4.191   4.120   4.937  2.0061 -0.1905 -1.1737
    4MOL0     H  498   4.216   4.116   5.186 -0.4185  1.1052 -0.3602
    4MOL0     H  499   4.271   3.941   5.164  1.5257  0.9667 -1.1706
    4MOL0     H  500   3.997   4.040   5.091  0.8649  0.1735 -2.1211
    4MOL0     H  501   4.041   3.873   5.104  2.8838 -0.3433 -2.7783
    4MOL0     H  502   4.029   4.092   5.343  0.7010  0.4140  0.8552
    4MOL0     H  503   4.104   3.925   5.355 -0.4965  0.3461 -0.5280
    4MOL0     H  504   3.909   3.822   5.321 -0.9012 -0.9036 -1.0124
    4MOL0     H  505   3.830   3.948   5.238  0.6382  0.0428  0.1479
    4MOL0     H  506   3.887   3.957   5.540  0.7440  1.1787 -0.0876
    4MOL0     H  507   3.805   4.083   5.458 -4.1111 -0.3943 -1.1884
    4MOL0     H  508   3.601   3.947   5.408  0.7361 -1.0253 -2.1393
    4MOL0     H  509   3.641   3.943   5.571 -0.7893  1.8481 -0.0061
    4MOL0     H  510   4.618   3.849   5.192 -0.3937  1.2509  1.3789
    4MOL0     H  511   4.884   3.838   5.200 -0.9893  0.8496  3.0781
    4MOL0     H  512   5.253   4.124   5.206  2.1106  0.7672  1.1402
    4MOL0     H  513   5.505   4.134   5.227  1.1991  1.4627 -1.2711
    4MOL0     H  514   7.363   4.079   4.933  0.5792  1.3194  0.1093
    4MOL0     H  515   7.603   4.102   5.021  0.3922 -2.2092  0.2533
    4MOL0     H  516   8.153   4.300   4.754 -0.6240  0.1640 -0.8338
    4MOL0     H  517   8.378   4.262   4.841  1.7620 -0.4241  0.7337
    4MOL0     H  518   8.441   3.963   5.177 -0.0891 -0.3226  0.6569
    4MOL0     H  519   8.451   4.130   5.231  0.4047  0.9466 -0.5412
    4MOL0     H  520   8.680   4.120   5.093 -1.0062  0.8068  0.1858
    4MOL0     H  521   8.671   4.072   5.266 -0.0026  2.0451 -0.7714
    4MOL0     H  522   8.651   3.891   5.031 -1.3683  2.0628  0.3331
    4MOL0     H  523   8.638   3.854   5.208 -3.3716  1.8181 -0.9450
    4MOL0     H  524   8.870   3.985   5.034  0.3324  0.7284  0.9669
    4MOL0     H  525   8.890   3.977   5.201 -0.6339  1.1536 -0.9783
    4MOL0     H  526   9.047   3.612   5.090 -0.2829  0.9625 -2.8427
    4MOL0     H  527   8.230   4.024   5.150 -0.5815  3.8273  1.7271
    4MOL0     H  528   7.998   4.019   5.041  1.6846  1.0008  3.5870
    5MOL0     O  529   8.176   1.477   8.691 -0.5133  0.0593  1.4184
    5MOL0     C  530   8.194   1.573   8.766  0.1798 -0.1458  0.4420
    5MOL0     O  531   8.096   1.656   8.808 -0.5954 -0.1405  0.1724
    5MOL0     C  532   7.979   1.652   8.747 -0.2116 -0.6006 -0.2290
    5MOL0     C  533   7.864   1.631   8.824  0.1316 -0.7352 -0.7274
    5MOL0     C  534   7.740   1.619   8.764 -0.7094 -0.1456 -0.1670
    5MOL0     C  535   7.730   1.619   8.626  0.1596  0.9460 -0.4521
    5MOL0     O  536   7.627   1.578   8.554  0.6286 -0.5122 -0.3404
    5MOL0     C  537   7.506   1.529   8.615 -0.0829 -0.1701  0.5427
    5MOL0     C  538   7.417   1.475   8.507  0.5497  0.1700 -0.2205
    5MOL0     C  539   7.357   1.596   8.425 -0.0567 -0.2298  0.6562
    5MOL0     C  540   7.288   1.545   8.293 -0.4018 -0.6555 -0.3904
    5MOL0     C  541   7.173   1.627   8.233 -0.0647  0.4306 -0.2018
    5MOL0     C  542   7.123   1.546   8.103 -0.3764 -0.5347  0.6092
    5MOL0     C  543   6.987   1.596   8.051 -0.3718 -0.2757  0.3005
    5MOL0     C  544   6.969   1.748   8.040  0.7054  0.7245 -0.5509
    5MOL0     N  545   6.859   1.774   7.941  0.7840  0.4781  0.5598
    5MOL0     C  546   6.724   1.758   7.966 -0.2318 -0.6154 -0.4920
    5MOL0     C  547   6.661   1.832   7.880 -0.1597 -0.4047  0.6284
    5MOL0     C  548   6.514   1.835   7.854  0.7774 -0.3276 -0.2939
    5MOL0     C  549   6.449   1.945   7.944  0.8435  0.1087  0.2634
    5MOL0     C  550   6.296   1.935   7.950 -0.1724 -0.6238  0.3868
    5MOL0     C  551   6.223   2.002   7.829 -0.3763  0.7755 -0.2172
    5MOL0     O  552   6.241   2.146   7.817 -2.5509 -0.1945 -0.4276
    5MOL0     C  553   6.191   2.210   7.705 -0.3496  0.6304 -0.3725
    5MOL0     C  554   6.079   2.288   7.707  0.7206  0.0471  0.0887
    5MOL0     C  555   6.021   2.344   7.599  1.1044 -0.4452 -1.0674
    5MOL0     C  556   6.068   2.310   7.471  0.0394 -1.0020  0.0905
    5MOL0     C  557   5.993   2.348   7.350  0.0043  0.0988 -0.4084
    5MOL0     O  558   5.904   2.453   7.371 -0.2247  0.3069 -0.3762
    5MOL0     C  559   5.883   2.537   7.259 -0.6398  0.3426 -0.0762
    5MOL0     C  560   5.755   2.582   7.228  0.0267 -0.1809 -0.0792
    5MOL0     C  561   5.745   2.659   7.109 -0.1801 -0.1850 -0.0743
    5MOL0     C  562   5.856   2.718   7.042  0.0296  0.0152  1.0178
    5MOL0     O  563   5.844   2.791   6.933 -0.7167 -0.1738 -0.4427
    5MOL0     C  564   5.812   2.714   6.817  0.5235 -0.2871 -1.0650
    5MOL0     C  565   5.841   2.796   6.686 -0.6126 -0.0080 -0.2802
    5MOL0     C  566   5.755   2.919   6.680  0.0340  0.6831 -0.7582
    5MOL0     C  567   5.751   2.991   6.545 -0.0740  0.9932  0.4922
    5MOL0     C  568   5.663   3.115   6.554  0.1771  0.0368 -0.2234
    5MOL0     C  569   5.652   3.191   6.419 -0.3897 -0.2968 -0.1999
    5MOL0     C  570   5.575   3.322   6.428 -0.5857  0.4729 -0.3015
    5MOL0     C  571   5.563   3.407   6.302  0.6535 -0.4557  0.2232
    5MOL0    Cl  572   5.719   3.411   6.224 -0.1017  0.0050 -0.2638
    5MOL0     C  573   5.985   2.684   7.087  0.0412 -0.0465  0.4891
    5MOL0     C  574   6.001   2.591   7.193 -0.4802 -0.3928  0.1959
    5MOL0     O  575   6.011   2.294   7.241 -0.3396  0.7965 -0.7861
    5MOL0     C  576   6.177   2.223   7.461 -0.4549 -0.0892  0.8392
    5MOL0     C  577   6.235   2.173   7.576 -0.1391  0.1901 -0.5822
    5MOL0     N  578   6.752   1.915   7.811 -0.3648  0.1153 -0.7757
    5MOL0     N  579   6.873   1.873   7.852 -0.7284 -0.1661  0.3235
    5MOL0     C  580   7.841   1.649   8.551 -0.5490  0.3534 -0.4976
    5MOL0     C  581   7.965   1.669   8.607  0.8015  0.3827  0.4447
    5MOL0     C  582   8.335   1.612   8.802 -0.3587  0.8999 -0.4267
    5MOL0     C  583   8.439   1.552   8.730 -0.5866 -0.1698  0.9429
    5MOL0     C  584   8.571   1.590   8.758  0.8371 -0.0727  0.2265
    5MOL0     C  585   8.605   1.689   8.852  0.0121 -1.0162  0.3833
    5MOL0     O  586   8.744   1.724   8.866  0.0306  0.0818  0.7089
    5MOL0     C  587   8.786   1.766   8.988  0.9418 -0.4469  0.4218
    5MOL0     C  588   8.935   1.723   8.997 -0.5282  0.3936  0.3305
    5MOL0     C  589   9.022   1.791   8.900  0.4139  0.8055  0.3029
    5MOL0     C  590   9.159   1.807   8.955 -0.0354 -0.6532  0.0539
    5MOL0     C  591   9.259   1.836   8.845 -0.7273  1.0029  1.0382
    5MOL0     C  592   9.350   1.873   8.775 -0.4454  0.2063 -0.0928
    5MOL0     C  593   8.500   1.746   8.921 -0.4518 -0.0563  0.0774
    5MOL0     C  594   8.363   1.707   8.904 -0.0808  0.3871  0.6720
    5MOL0     H  595   7.872   1.614   8.931 -0.5294  1.5031 -0.2687
    5MOL0     H  596   7.656   1.590   8.827  0.3303 -0.5192  1.0932
    5MOL0     H  597   7.449   1.612   8.660 -0.5804 -0.5968  0.7105
    5MOL0     H  598   7.511   1.465   8.703 -1.7627  0.2950  1.0153
    5MOL0     H  599   7.340   1.412   8.554  0.2567  0.7327  0.0649
    5MOL0     H  600   7.488   1.415   8.450  0.0788 -1.9928  1.2959
    5MOL0     H  601   7.439   1.665   8.403 -0.6839  1.1999  2.5506
    5MOL0     H  602   7.288   1.659   8.481  0.7947  1.2342  0.1159
    5MOL0     H  603   7.366   1.538   8.216 -0.3072 -1.0684 -0.2590
    5MOL0     H  604   7.252   1.444   8.313  0.2789 -1.0280 -0.9936
    5MOL0     H  605   7.214   1.725   8.208  2.4870  0.4462  3.3054
    5MOL0     H  606   7.101   1.636   8.315  0.9844 -2.6641  1.2393
    5MOL0     H  607   7.107   1.440   8.122 -1.3146 -0.5348 -0.0968
    5MOL0     H  608   7.193   1.558   8.019 -1.1140 -2.1758 -0.3009
    5MOL0     H  609   6.979   1.555   7.950  1.9992 -0.4427  0.1191
    5MOL0     H  610   6.913   1.553   8.120  0.9477 -2.2862  0.5655
    5MOL0     H  611   7.061   1.795   8.004  1.2708 -1.1648 -1.7496
    5MOL0     H  612   6.942   1.784   8.140  1.1457 -2.4241  0.8291
    5MOL0     H  613   6.680   1.685   8.033 -0.7334 -0.4893 -0.6781
    5MOL0     H  614   6.467   1.737   7.865  1.3910 -0.8597 -1.9644
    5MOL0     H  615   6.497   1.853   7.747  1.7900  2.2777 -0.0803
    5MOL0     H  616   6.475   2.046   7.910 -0.1529  0.4223  0.4101
    5MOL0     H  617   6.492   1.935   8.044 -1.1602 -1.0942  1.0633
    5MOL0     H  618   6.251   1.836   7.963 -1.9623 -0.0778 -1.1604
    5MOL0     H  619   6.274   2.002   8.034 -3.3137 -0.0322 -0.7524
    5MOL0     H  620   6.117   1.986   7.853  0.0999 -1.7577  0.5710
    5MOL0     H  621   6.254   1.942   7.743 -1.9881 -2.7862  1.4506
    5MOL0     H  622   6.039   2.313   7.805  0.2206 -0.4088  0.0035
    5MOL0     H  623   5.932   2.406   7.605  2.4134  1.3719  1.1195
    5MOL0     H  624   5.666   2.539   7.272 -2.4592  1.6017 -2.9502
    5MOL0     H  625   5.650   2.678   7.060  0.5250  0.1518 -1.3554
    5MOL0     H  626   5.703   2.712   6.825  0.2700  2.8956 -2.2490
    5MOL0     H  627   5.850   2.611   6.818 -1.0130 -0.8719 -0.3835
    5MOL0     H  628   5.827   2.722   6.606 -1.2645 -1.1292  0.8353
    5MOL0     H  629   5.946   2.825   6.692 -0.9132  1.0970 -0.1874
    5MOL0     H  630   5.773   2.985   6.766 -0.7285  0.0963 -0.1248
    5MOL0     H  631   5.653   2.885   6.705  1.0673 -0.3194  2.7218
    5MOL0     H  632   5.853   3.022   6.520 -0.1138  0.7906  0.0579
    5MOL0     H  633   5.715   2.914   6.477 -0.2450  0.2595  1.3894
    5MOL0     H  634   5.682   3.185   6.637 -2.2530 -0.9028  1.2260
    5MOL0     H  635   5.565   3.078   6.587  0.1436 -2.8537 -3.1220
    5MOL0     H  636   5.602   3.124   6.348  0.7095 -1.2432 -0.1225
    5MOL0     H  637   5.750   3.201   6.373 -0.9955 -3.6714 -2.6301
    5MOL0     H  638   5.473   3.314   6.465 -1.7815  0.0288 -3.3613
    5MOL0     H  639   5.635   3.381   6.497  1.9557  0.7916 -2.5803
    5MOL0     H  640   5.536   3.512   6.321  3.0913  0.1722  0.5944
    5MOL0     H  641   5.489   3.368   6.232 -2.5547  0.9723  2.5645
    5MOL0     H  642   6.070   2.733   7.041 -0.0626 -0.7022 -0.4244
    5MOL0     H  643   6.101   2.578   7.234 -1.1560  1.6935  2.7908
    5MOL0     H  644   6.215   2.197   7.363 -0.4001  1.2332  0.4872
    5MOL0     H  645   6.311   2.098   7.561 -3.0505 -2.8951 -1.0688
    5MOL0     H  646   7.840   1.643   8.443  3.3875 -0.9937 -0.6476
    5MOL0     H  647   8.047   1.678   8.537  1.7227  0.0105  1.4561
    5MOL0     H  648   8.417   1.493   8.642  2.7310  1.3465 -1.0830
    5MOL0     H  649   8.649   1.547   8.697  2.4056  3.1267 -0.2243
    5MOL0     H  650   8.723   1.718   9.063  0.4607 -4.0421 -2.0026
    5MOL0     H  651   8.773   1.873   9.003  0.7690 -0.2067 -1.2703
    5MOL0     H  652   8.967   1.736   9.101 -3.5181 -2.2116  1.7749
    5MOL0     H  653   8.943   1.614   8.984 -3.5929 -0.1478  1.9471
    5MOL0     H  654   8.969   1.885   8.881 -3.9992 -1.9142 -2.7411
    5MOL0     H  655   9.020   1.736   8.806 -1.2571  0.0912  0.7162
    5MOL0     H  656   9.161   1.876   9.041 -0.8564  1.7342 -1.7398
    5MOL0     H  657   9.191   1.718   9.010  1.5682  1.6073  3.1172
    5MOL0     H  658   9.420   1.917   8.707  0.4275 -1.7596 -0.5685
    5MOL0     H  659   8.539   1.815   8.995  1.3395 -0.1675 -0.7119
    5MOL0     H  660   8.286   1.764   8.956  1.1998  3.4311 -0.5281
    6MOL0     O  661   8.873   6.027   4.326 -0.4052 -0.1653  0.1704
    6MOL0     C  662   8.749   5.996   4.319 -0.3261  0.1683 -0.1742
    6MOL0     O  663   8.682   5.965   4.198 -0.8620 -0.5351 -0.1757
    6MOL0     C  664   8.748   5.955   4.076 -0.5019 -0.8452  0.1127
    6MOL0     C  665   8.787   5.829   4.035 -0.3283  0.0967 -0.3833
    6MOL0     C  666   8.822   5.806   3.900  0.6801 -0.6569  0.4846
    6MOL0     C  667   8.831   5.918   3.810  0.2338 -0.1862 -0.5813
    6MOL0     O  668   8.892   5.908   3.691  0.6999 -0.0167 -0.3511
    6MOL0     C  669   8.804   5.839   3.596  0.3992 -0.6246  0.2020
    6MOL0     C  670   8.854   5.708   3.555  0.1827  0.5338 -0.2477
    6MOL0     C  671   9.001   5.728   3.506 -0.2207 -0.5776 -0.4873
    6MOL0     C  672   9.056   5.590   3.465 -0.2654  1.0263 -0.6623
    6MOL0     C  673   8.996   5.523   3.349 -0.0376  0.6299 -0.4731
    6MOL0     C  674   9.017   5.612   3.220  0.0298  0.4866 -0.0790
    6MOL0     C  675   8.933   5.553   3.102 -0.2247 -0.2961 -0.0936
    6MOL0     C  676   8.777   5.568   3.126  0.5915  0.0679 -0.1819
    6MOL0     N  677   8.746   5.704   3.138 -0.5261 -0.2559 -0.2315
    6MOL0     C  678   8.672   5.752   3.239  0.1487  0.3936  0.3925
    6MOL0     C  679   8.648   5.883   3.205  0.2603 -0.6600 -0.2419
    6MOL0     C  680   8.533   5.959   3.261  0.0084  0.0261 -0.7014
    6MOL0     C  681   8.531   5.964   3.419 -0.6223 -0.6387 -0.2082
    6MOL0     C  682   8.400   6.023   3.478  0.3258 -0.3041 -0.4201
    6MOL0     C  683   8.407   6.022   3.627  0.7777  0.0796 -0.9647
    6MOL0     O  684   8.295   6.093   3.677 -0.0980  0.1678  0.4957
    6MOL0     C  685   8.275   6.120   3.807  1.0924 -0.3511  0.0039
    6MOL0     C  686   8.157   6.195   3.847 -0.2515 -0.2572 -0.1961
    6MOL0     C  687   8.137   6.239   3.981 -0.1310  0.5089  0.3949
    6MOL0     C  688   8.231   6.195   4.086  0.5999  0.2353  0.4412
    6MOL0     C  689   8.206   6.236   4.226 -0.4448 -0.1741 -0.4491
    6MOL0     O  690   8.105   6.315   4.267  0.6585 -0.3105 -0.4190
    6MOL0     C  691   8.079   6.332   4.403 -0.6981 -0.3774  0.0131
    6MOL0     C  692   8.149   6.422   4.488  0.2176 -0.1077 -0.5007
    6MOL0     C  693   8.109   6.439   4.620 -0.9957  0.4313 -0.6252
    6MOL0     C  694   7.986   6.386   4.661 -0.0226  0.5818 -0.0107
    6MOL0     O  695   7.943   6.403   4.790 -0.3234 -0.7326  0.5783
    6MOL0     C  696   8.035   6.454   4.900 -0.2091  0.1786 -0.4644
    6MOL0     C  697   7.947   6.469   5.022  0.8564 -0.0783 -0.3547
    6MOL0     C  698   8.031   6.478   5.150  0.7102  0.5387  0.2412
    6MOL0     C  699   8.143   6.585   5.158  0.4560 -0.2535  0.7684
    6MOL0     C  700   8.164   6.618   5.305  0.4387  1.1669 -0.1359
    6MOL0     C  701   8.044   6.695   5.370 -0.2788 -0.1625 -0.1138
    6MOL0     C  702   8.084   6.782   5.496  1.1751 -0.2085 -0.6323
    6MOL0     C  703   7.960   6.840   5.565  0.3932 -0.1368 -1.1046
    6MOL0    Cl  704   7.881   6.974   5.474 -0.0399  0.1119 -0.0320
    6MOL0     C  705   7.919   6.301   4.571  1.1185 -0.3098 -0.2887
    6MOL0     C  706   7.957   6.271   4.443 -0.2744 -0.4821  0.3658
    6MOL0     O  707   8.296   6.198   4.304 -0.3548  0.2925 -0.4003
    6MOL0     C  708   8.341   6.123   4.042  0.7229  0.1307 -0.7696
    6MOL0     C  709   8.367   6.096   3.907 -0.6075  0.6590 -0.6725
    6MOL0     N  710   8.716   5.912   3.090 -0.2728  0.1189 -0.1455
    6MOL0     N  711   8.765   5.795   3.039  0.3516 -0.4196 -0.3577
    6MOL0     C  712   8.803   6.047   3.854  0.2227 -0.1310 -0.9951
    6MOL0     C  713   8.751   6.067   3.990  0.1073  0.5656  0.3723
    6MOL0     C  714   8.676   5.987   4.450 -0.7144  0.7175  1.4403
    6MOL0     C  715   8.736   5.980   4.574 -0.2148  0.5620  0.6763
    6MOL0     C  716   8.656   6.021   4.687  0.8810  0.0962 -0.1405
    6MOL0     C  717   8.517   6.009   4.672  0.0748 -0.0586 -0.0239
    6MOL0     O  718   8.421   6.036   4.763 -0.0543  0.4466  0.3003
    6MOL0     C  719   8.447   6.001   4.908  0.7907  0.1185  0.0003
    6MOL0     C  720   8.315   5.963   4.982 -0.3755 -0.3427 -1.2208
    6MOL0     C  721   8.207   5.890   4.895 -0.2469  0.4426  0.2256
    6MOL0     C  722   8.116   5.991   4.815  0.4589 -0.2643  0.4885
    6MOL0     C  723   8.001   5.930   4.753  0.2401 -0.6788 -0.4446
    6MOL0     C  724   7.904   5.887   4.688 -0.1004  0.2807 -0.0038
    6MOL0     C  725   8.468   6.003   4.543 -0.3190 -0.4168 -0.3366
    6MOL0     C  726   8.541   6.000   4.435 -0.1975  0.1764  0.2941
    6MOL0     H  727   8.794   5.750   4.109  0.6404 -0.4103 -1.0036
    6MOL0     H  728   8.835   5.701   3.874 -1.5683 -0.7931 -0.3189
    6MOL0     H  729   8.803   5.891   3.500  0.5387 -1.9518 -0.5470
    6MOL0     H  730   8.699   5.835   3.627 -0.2758  1.7511 -1.5003
    6MOL0     H  731   8.793   5.681   3.469 -2.1493 -0.0065  1.4550
    6MOL0     H  732   8.838   5.629   3.630 -1.3551  1.4440  0.4414
    6MOL0     H  733   9.074   5.761   3.580  3.2286 -0.9586 -3.4548
    6MOL0     H  734   9.000   5.804   3.427 -2.9548 -0.3390 -0.3375
    6MOL0     H  735   9.158   5.608   3.433 -0.7195  2.7458 -1.2472
    6MOL0     H  736   9.061   5.523   3.552 -2.5207  1.3174 -0.2248
    6MOL0     H  737   8.890   5.508   3.370 -0.2195 -0.6432 -2.0613
    6MOL0     H  738   9.049   5.429   3.332  1.4651  1.4310 -0.3936
    6MOL0     H  739   9.122   5.600   3.194 -0.4776 -2.5270 -1.1203
    6MOL0     H  740   8.986   5.716   3.239 -0.6487  0.4496 -0.9373
    6MOL0     H  741   8.964   5.606   3.012  0.9627  2.1849  1.6386
    6MOL0     H  742   8.951   5.446   3.091  0.1567 -0.0842 -1.6863
    6MOL0     H  743   8.755   5.512   3.217  0.4110 -0.5762 -0.6120
    6MOL0     H  744   8.734   5.517   3.039  2.6301  0.9959 -1.8417
    6MOL0     H  745   8.629   5.692   3.319 -2.9600  1.7966 -0.0996
    6MOL0     H  746   8.447   5.901   3.226  0.2452 -0.4703 -0.4673
    6MOL0     H  747   8.537   6.062   3.224 -2.3011  0.4673  0.1210
    6MOL0     H  748   8.618   6.025   3.445 -0.3075  1.5011 -5.1935
    6MOL0     H  749   8.543   5.864   3.462  0.0780  0.1151  1.4571
    6MOL0     H  750   8.402   6.127   3.444  2.5747 -0.1234  0.0652
    6MOL0     H  751   8.316   5.959   3.451  1.5862 -1.7599 -1.0277
    6MOL0     H  752   8.497   6.072   3.664 -0.6150  1.9441  0.0893
    6MOL0     H  753   8.404   5.921   3.667 -1.7047  0.9040  1.1814
    6MOL0     H  754   8.077   6.215   3.777 -1.1020  3.3338  1.5701
    6MOL0     H  755   8.054   6.304   4.003 -0.1433  1.2642 -1.6846
    6MOL0     H  756   8.228   6.479   4.440 -1.0402 -1.3367 -4.3798
    6MOL0     H  757   8.170   6.490   4.694 -0.2785 -4.4013  2.5894
    6MOL0     H  758   8.084   6.550   4.884  1.0858  0.0230  2.0429
    6MOL0     H  759   8.117   6.384   4.919 -1.4828 -0.9496  1.1546
    6MOL0     H  760   7.878   6.385   5.033 -2.0876  2.3934  1.6208
    6MOL0     H  761   7.879   6.553   5.011 -1.0274 -1.8107 -3.8299
    6MOL0     H  762   8.080   6.385   5.183  3.3110  1.8464  0.3246
    6MOL0     H  763   7.962   6.487   5.234  0.6364 -1.1560  0.4143
    6MOL0     H  764   8.228   6.531   5.114  0.5093  0.7197 -0.3802
    6MOL0     H  765   8.112   6.679   5.112  0.7658  2.0815  4.8216
    6MOL0     H  766   8.258   6.672   5.323  2.4013 -1.4953 -1.5980
    6MOL0     H  767   8.183   6.522   5.354 -0.5058  0.9953 -0.1026
    6MOL0     H  768   7.982   6.618   5.417  0.3419 -1.1157 -0.8272
    6MOL0     H  769   7.985   6.749   5.295  2.8618  0.8133 -2.0904
    6MOL0     H  770   8.136   6.723   5.572  2.3967 -0.1520 -1.4095
    6MOL0     H  771   8.141   6.870   5.464  0.0034  1.2197  0.9916
    6MOL0     H  772   7.987   6.886   5.661 -1.4073 -2.9864  0.9334
    6MOL0     H  773   7.879   6.768   5.581  0.5689  0.2656  2.1919
    6MOL0     H  774   7.836   6.245   4.612 -0.5625 -0.1582 -3.2081
    6MOL0     H  775   7.899   6.200   4.385  0.4513 -0.3720 -0.5207
    6MOL0     H  776   8.413   6.098   4.119 -0.4441 -0.8183  0.0544
    6MOL0     H  777   8.467   6.057   3.889  0.1771  2.9945 -1.8673
    6MOL0     H  778   8.814   6.123   3.778  1.3109 -1.3393 -2.0990
    6MOL0     H  779   8.697   6.157   4.017 -3.4252 -1.1655 -0.2981
    6MOL0     H  780   8.842   5.993   4.594 -0.8916  1.9092  4.0302
    6MOL0     H  781   8.697   6.028   4.787 -0.8072  2.6654  0.4585
    6MOL0     H  782   8.491   6.084   4.964 -1.2632  2.2105 -1.3103
    6MOL0     H  783   8.510   5.912   4.911  0.8039  0.1508  1.3176
    6MOL0     H  784   8.352   5.901   5.064  0.9793  0.0506 -1.5209
    6MOL0     H  785   8.268   6.056   5.014  1.9646  2.3602 -4.8782
    6MOL0     H  786   8.142   5.821   4.950  1.2287 -0.4448  0.8966
    6MOL0     H  787   8.261   5.828   4.824 -0.5350  0.0452  0.3474
    6MOL0     H  788   8.095   6.082   4.873  3.7478 -0.9582  3.0991
    6MOL0     H  789   8.188   6.028   4.741 -0.3958 -1.4404 -0.9909
    6MOL0     H  790   7.816   5.846   4.643 -2.0321  1.0984  2.7595
    6MOL0     H  791   8.360   6.011   4.535 -0.3767 -0.0511  0.6494
    6MOL0     H  792   8.495   6.008   4.338 -0.3448 -2.1862  0.0995
    7MOL0     O  793   2.618   6.444   9.737  1.0692  0.1979  0.4064
    7MOL0     C  794   2.643   6.490   9.853  0.2749 -0.4549  0.3779
    7MOL0     O  795   2.768   6.512   9.903  0.4496  0.4717 -0.0840
    7MOL0     C  796   2.880   6.472   9.828 -0.1312 -0.3933 -0.2240
    7MOL0     C  797   2.975   6.556   9.783 -0.9720  0.5933  0.2079
    7MOL0     C  798   3.075   6.528   9.692 -0.0229  0.1883  0.3275
    7MOL0     C  799   3.081   6.396   9.643 -0.1924 -0.1723 -0.5701
    7MOL0     O  800   3.178   6.348   9.556 -0.1773  0.1872 -0.0312
    7MOL0     C  801   3.238   6.445   9.475 -0.4565  0.4344  0.0126
    7MOL0     C  802   3.347   6.370   9.385  0.1943 -0.3032  0.1266
    7MOL0     C  803   3.418   6.467   9.287  0.0489  0.0678 -0.1935
    7MOL0     C  804   3.542   6.390   9.243  0.5946 -1.1021 -0.4885
    7MOL0     C  805   3.613   6.472   9.130 -0.3839  0.0203 -1.0880
    7MOL0     C  806   3.762   6.431   9.107 -0.0020  0.0155 -0.4640
    7MOL0     C  807   3.807   6.295   9.062 -0.3379 -0.3789 -0.9227
    7MOL0     C  808   3.949   6.307   9.006  0.1504 -0.1502 -0.9927
    7MOL0     N  809   4.052   6.357   9.094  0.6486 -0.0345  0.4596
    7MOL0     C  810   4.122   6.287   9.195  0.3877 -0.3258 -0.1000
    7MOL0     C  811   4.214   6.371   9.243  0.5929  0.3874 -0.8165
    7MOL0     C  812   4.309   6.328   9.355  0.5480  0.0851  0.1190
    7MOL0     C  813   4.296   6.432   9.465 -0.0150  0.0437  1.7510
    7MOL0     C  814   4.178   6.422   9.570  0.1485 -0.0553  0.2101
    7MOL0     C  815   4.049   6.492   9.531 -0.7590 -0.3517  1.0642
    7MOL0     O  816   3.949   6.461   9.621  0.1002 -0.4283 -0.0607
    7MOL0     C  817   3.859   6.363   9.593  0.4415  0.6809  0.2297
    7MOL0     C  818   3.886   6.250   9.511  0.9280 -0.0319  1.6512
    7MOL0     C  819   3.789   6.154   9.492 -1.1267  0.2172 -0.0444
    7MOL0     C  820   3.662   6.162   9.547  0.5519  0.7126  0.3445
    7MOL0     C  821   3.559   6.064   9.508 -0.2682 -0.7192 -0.1493
    7MOL0     O  822   3.436   6.088   9.569 -0.0547  0.0943  0.0009
    7MOL0     C  823   3.344   5.994   9.587  0.9732 -0.4286  0.8093
    7MOL0     C  824   3.239   6.036   9.672 -0.2241 -0.2499  1.0089
    7MOL0     C  825   3.121   5.961   9.686 -0.3799 -0.3908  0.2604
    7MOL0     C  826   3.118   5.824   9.649  1.1632  0.2232  0.6732
    7MOL0     O  827   3.006   5.744   9.684 -1.0554 -0.4220  0.5773
    7MOL0     C  828   3.005   5.608   9.655 -0.0640 -0.1662  0.4087
    7MOL0     C  829   2.877   5.534   9.692  0.0102  0.7571  0.0765
    7MOL0     C  830   2.838   5.555   9.838 -0.5896  0.5844 -0.6246
    7MOL0     C  831   2.744   5.441   9.888 -0.8453  0.4003 -0.3419
    7MOL0     C  832   2.726   5.452  10.035  0.5446  0.7412  0.5595
    7MOL0     C  833   2.650   5.337  10.110  0.0628  0.4040  0.3151
    7MOL0     C  834   2.597   5.392  10.243  0.5186  0.0521  0.6821
    7MOL0     C  835   2.547   5.280  10.341  0.9042  0.4583  0.2184
    7MOL0    Cl  836   2.371   5.263  10.304 -0.4628  0.5239 -0.0806
    7MOL0     C  837   3.222   5.772   9.564  0.3067 -0.4345  0.2166
    7MOL0     C  838   3.331   5.859   9.539  1.2831 -0.2263  0.6745
    7MOL0     O  839   3.584   5.971   9.437  0.1568 -0.0853  0.4522
    7MOL0     C  840   3.634   6.274   9.622 -0.0654  1.0338 -0.4555
    7MOL0     C  841   3.725   6.376   9.648  0.2907 -0.5168 -0.2850
    7MOL0     N  842   4.190   6.494   9.179  0.1755 -0.5713  0.5501
    7MOL0     N  843   4.098   6.487   9.098  0.6385  0.3764 -0.1439
    7MOL0     C  844   2.992   6.304   9.694 -0.0645 -0.4455  0.9741
    7MOL0     C  845   2.892   6.338   9.791 -0.4092  0.9843  0.4657
    7MOL0     C  846   2.526   6.535   9.939 -0.0960  0.2719 -0.5920
    7MOL0     C  847   2.533   6.621  10.053  1.2873 -0.1944  0.1968
    7MOL0     C  848   2.414   6.666  10.116 -0.0707 -0.1984  0.1644
    7MOL0     C  849   2.281   6.627  10.070 -1.2751  0.6195 -0.3924
    7MOL0     O  850   2.162   6.647  10.139  0.0301 -0.3509 -0.1262
    7MOL0     C  851   2.161   6.778  10.192  0.0138 -0.7334  0.4157
    7MOL0     C  852   2.011   6.812  10.228 -0.2676  0.8832 -1.0481
    7MOL0     C  853   1.924   6.848  10.101  0.2461 -0.7744 -0.1158
    7MOL0     C  854   1.886   6.999  10.082  0.3392  0.0717 -0.2434
    7MOL0     C  855   1.810   7.036  10.204 -0.4056 -0.5586  0.4308
    7MOL0     C  856   1.731   7.083  10.292 -0.9426  0.6055  0.4768
    7MOL0     C  857   2.275   6.554   9.953  0.3141  0.1952  0.7539
    7MOL0     C  858   2.398   6.516   9.886  1.1706 -0.1099 -0.4041
    7MOL0     H  859   2.970   6.655   9.827  1.4084  0.6832  0.4178
    7MOL0     H  860   3.133   6.612   9.655 -0.5465 -0.2867 -1.6795
    7MOL0     H  861   3.278   6.534   9.524  1.4259 -0.7422  0.7305
    7MOL0     H  862   3.162   6.482   9.406 -1.7639 -1.1147  0.5523
    7MOL0     H  863   3.298   6.295   9.322 -2.8815  1.3625  0.3438
    7MOL0     H  864   3.422   6.320   9.447 -1.8050 -1.5866  1.6240
    7MOL0     H  865   3.449   6.563   9.330 -3.3089  1.1424  0.0750
    7MOL0     H  866   3.351   6.493   9.205  1.0387  2.6642 -0.2938
    7MOL0     H  867   3.612   6.382   9.326  0.8167  1.8292 -0.2716
    7MOL0     H  868   3.513   6.291   9.208 -0.4424  0.0577 -3.2303
    7MOL0     H  869   3.620   6.576   9.166  2.9268 -0.4358 -0.0317
    7MOL0     H  870   3.557   6.451   9.038  0.8058 -1.9348 -1.4079
    7MOL0     H  871   3.824   6.472   9.187 -1.5967  0.6285  0.5244
    7MOL0     H  872   3.791   6.487   9.019 -1.7500 -1.8967 -2.3838
    7MOL0     H  873   3.807   6.238   9.155 -1.3645 -0.2867 -0.8500
    7MOL0     H  874   3.733   6.248   8.997 -0.2746 -1.4154 -0.2651
    7MOL0     H  875   3.948   6.371   8.918 -0.1055  1.8044  0.3687
    7MOL0     H  876   3.979   6.205   8.980 -0.2902 -0.6453  0.3597
    7MOL0     H  877   4.108   6.183   9.222  0.9383 -0.5267 -0.5620
    7MOL0     H  878   4.403   6.349   9.303 -0.6079  4.4495 -0.6844
    7MOL0     H  879   4.292   6.225   9.388 -3.3959 -0.4860 -2.8626
    7MOL0     H  880   4.316   6.533   9.430  3.3417 -0.6221  1.3190
    7MOL0     H  881   4.387   6.406   9.520 -0.0441 -3.8277  0.3349
    7MOL0     H  882   4.156   6.315   9.581  0.3461 -0.5025 -2.7266
    7MOL0     H  883   4.208   6.464   9.666 -0.8880  0.1975  0.4257
    7MOL0     H  884   4.016   6.475   9.429  0.9733  2.0818 -0.0148
    7MOL0     H  885   4.078   6.597   9.521  0.2857 -0.8262 -2.2064
    7MOL0     H  886   3.983   6.242   9.464  0.2980  2.8911 -0.4422
    7MOL0     H  887   3.812   6.081   9.415 -0.8547 -1.1677  1.2847
    7MOL0     H  888   3.230   6.140   9.704  1.5059  0.7205 -1.3156
    7MOL0     H  889   3.036   6.011   9.733 -0.4255  0.2707 -0.5063
    7MOL0     H  890   3.082   5.572   9.724 -2.4584 -1.3560  2.6289
    7MOL0     H  891   3.033   5.598   9.550  1.8731  2.2781  0.5934
    7MOL0     H  892   2.898   5.430   9.664 -1.6214  0.7429 -1.2666
    7MOL0     H  893   2.795   5.562   9.626 -0.2332  0.4108  0.2280
    7MOL0     H  894   2.801   5.657   9.851  0.6762  0.9397  0.3698
    7MOL0     H  895   2.931   5.550   9.895 -0.4678  2.2367 -0.6274
    7MOL0     H  896   2.647   5.456   9.839 -1.5106  1.1948  1.1371
    7MOL0     H  897   2.774   5.340   9.860 -0.7040  0.4017 -0.1987
    7MOL0     H  898   2.678   5.549  10.043  1.8023  1.5648 -1.0881
    7MOL0     H  899   2.823   5.460  10.085  1.0243 -0.0257 -0.2143
    7MOL0     H  900   2.715   5.250  10.126 -3.9890 -2.9717  0.1009
    7MOL0     H  901   2.564   5.306  10.050  0.4872 -2.7210  1.1443
    7MOL0     H  902   2.688   5.438  10.284  2.2750 -0.5765 -2.2030
    7MOL0     H  903   2.533   5.479  10.224  3.8991  2.5585 -0.2619
    7MOL0     H  904   2.565   5.317  10.442 -2.8001 -0.6962  1.4929
    7MOL0     H  905   2.593   5.182  10.325  0.3000  0.1883  0.1047
    7MOL0     H  906   3.238   5.667   9.544  1.3792 -0.0501 -1.0839
    7MOL0     H  907   3.421   5.821   9.492  1.4286  1.6025 -0.6256
    7MOL0     H  908   3.538   6.286   9.671  1.2264  0.0183  2.5998
    7MOL0     H  909   3.698   6.454   9.719  1.8504 -0.9865  0.8785
    7MOL0     H  910   3.012   6.203   9.658  0.0845 -1.6900  4.2488
    7MOL0     H  911   2.843   6.257   9.845  2.2886 -1.0018  0.1327
    7MOL0     H  912   2.626   6.655  10.096  1.5931  0.9495 -1.2848
    7MOL0     H  913   2.428   6.710  10.214 -1.2652 -1.5003  0.9643
    7MOL0     H  914   2.185   6.851  10.114 -2.0383  0.7835  1.0902
    7MOL0     H  915   2.224   6.790  10.281  0.5236  2.0998 -0.2252
    7MOL0     H  916   1.973   6.721  10.274 -0.8465  0.5224 -2.1920
    7MOL0     H  917   2.000   6.880  10.312  0.2876 -1.0161  0.6295
    7MOL0     H  918   1.826   6.800  10.104 -0.6483  1.0016  0.5755
    7MOL0     H  919   1.977   6.817  10.010  1.9509  0.1145  0.5233
    7MOL0     H  920   1.978   7.056  10.067  0.8507 -0.1802  1.6532
    7MOL0     H  921   1.816   7.006   9.998 -0.0215 -2.4536 -0.2299
    7MOL0     H  922   1.679   7.135  10.369 -0.2004 -0.4035  1.7097
    7MOL0     H  923   2.186   6.507   9.912  0.0837  0.7369  0.6231
    7MOL0     H  924   2.397   6.481   9.783  1.0881 -1.7980  0.1291
    8MOL0     O  925   5.279   9.722   2.303  0.3413 -0.0422  0.3000
    8MOL0     C  926   5.385   9.726   2.237 -0.4821  0.8351  0.6238
    8MOL0     O  927   5.455   9.619   2.203  0.1983 -0.3292  0.0195
    8MOL0     C  928   5.398   9.492   2.219 -0.0049  0.3993 -0.9516
    8MOL0     C  929   5.461   9.404   2.309  0.6898 -0.0962  0.0793
    8MOL0     C  930   5.417   9.278   2.329  0.1952 -0.9557 -0.0388
    8MOL0     C  931   5.302   9.236   2.257  0.7095  0.9692  0.3277
    8MOL0     O  932   5.258   9.104   2.270 -0.6020 -0.0773  0.6349
    8MOL0     C  933   5.264   9.045   2.396 -0.1082 -0.7259 -0.2184
    8MOL0     C  934   5.138   8.967   2.420  0.2774 -0.6081 -0.2780
    8MOL0     C  935   5.146   8.861   2.530  0.2386  0.7141  0.0669
    8MOL0     C  936   5.011   8.790   2.542 -0.5720 -0.4699 -0.6059
    8MOL0     C  937   5.005   8.701   2.670 -0.2410  0.1311  0.0554
    8MOL0     C  938   4.874   8.611   2.672 -0.7547  0.0715  0.5592
    8MOL0     C  939   4.751   8.688   2.709 -0.2508  0.4740 -0.4636
    8MOL0     C  940   4.638   8.588   2.710 -0.8139 -0.2525 -0.1912
    8MOL0     N  941   4.535   8.639   2.800 -0.4568  0.5109  0.5326
    8MOL0     C  942   4.469   8.754   2.787 -0.8756  0.1473 -0.3701
    8MOL0     C  943   4.380   8.749   2.890  0.9152 -0.9507  0.5610
    8MOL0     C  944   4.288   8.858   2.928  0.3428 -0.4404 -0.3866
    8MOL0     C  945   4.150   8.862   2.872 -0.0052 -0.6366  0.7840
    8MOL0     C  946   4.155   8.887   2.720  0.7316  0.4184 -0.1690
    8MOL0     C  947   4.023   8.928   2.665 -0.5944 -0.4142 -0.4407
    8MOL0     O  948   3.923   8.843   2.713 -0.0299  0.5561  0.4990
    8MOL0     C  949   3.790   8.868   2.686 -0.1615 -0.0942  0.4323
    8MOL0     C  950   3.751   8.973   2.602 -0.7475 -0.3574  0.7606
    8MOL0     C  951   3.617   9.004   2.573  0.7588 -1.0249  0.4868
    8MOL0     C  952   3.516   8.935   2.636  0.2380  0.2554 -0.2009
    8MOL0     C  953   3.370   8.975   2.618  0.9435  0.2973 -0.5620
    8MOL0     O  954   3.349   9.095   2.558 -0.4277  0.2132 -0.1602
    8MOL0     C  955   3.234   9.135   2.506  0.3256 -0.3027  0.2554
    8MOL0     C  956   3.145   9.048   2.450  0.2870 -1.3292 -0.1576
    8MOL0     C  957   3.027   9.098   2.383 -0.2413  0.6574 -0.1326
    8MOL0     C  958   2.999   9.236   2.380  0.6726 -0.1968 -0.0168
    8MOL0     O  959   2.887   9.287   2.313  0.1905  0.8119 -0.1514
    8MOL0     C  960   2.784   9.201   2.274  0.8332 -0.0929  1.2029
    8MOL0     C  961   2.676   9.276   2.198 -0.3682 -0.6356  0.2760
    8MOL0     C  962   2.553   9.189   2.161 -0.1647 -0.0905 -1.1092
    8MOL0     C  963   2.588   9.084   2.065 -0.2554 -0.4446 -0.1190
    8MOL0     C  964   2.472   9.001   2.012  0.1432 -0.5530 -0.2094
    8MOL0     C  965   2.538   8.891   1.923 -0.4069 -0.4287  0.3069
    8MOL0     C  966   2.435   8.828   1.840 -0.3350  0.9444  0.4046
    8MOL0     C  967   2.494   8.719   1.745  0.1401 -0.5300  0.3869
    8MOL0    Cl  968   2.610   8.798   1.631 -0.1613 -0.2055 -0.0996
    8MOL0     C  969   3.096   9.318   2.428  0.8721 -0.4152  0.3312
    8MOL0     C  970   3.210   9.270   2.487  0.3454  0.0104  0.0082
    8MOL0     O  971   3.283   8.894   2.650  0.4267  0.1214  0.3211
    8MOL0     C  972   3.553   8.836   2.726  0.4012  0.0914  0.0227
    8MOL0     C  973   3.690   8.794   2.739 -0.1993 -0.2936 -0.1784
    8MOL0     N  974   4.384   8.633   2.953  0.0486  0.6471  0.7139
    8MOL0     N  975   4.473   8.560   2.891 -0.0756 -0.5802 -0.1129
    8MOL0     C  976   5.234   9.321   2.174 -0.7490  0.5281  0.3623
    8MOL0     C  977   5.278   9.454   2.157 -0.2113  0.0161  0.3159
    8MOL0     C  978   5.433   9.855   2.191 -0.0432  0.3161  0.5320
    8MOL0     C  979   5.511   9.858   2.068  0.1346  0.2084  0.7308
    8MOL0     C  980   5.550   9.981   2.004  0.5850 -0.6853 -0.6956
    8MOL0     C  981   5.520  10.105   2.068  0.1567 -0.1274 -0.6148
    8MOL0     O  982   5.562  10.221   2.014  0.3162  0.2840 -0.0221
    8MOL0     C  983   5.535  10.345   2.085  0.3191  0.2400  0.4930
    8MOL0     C  984   5.564  10.473   2.009  0.2679 -0.0280 -0.4464
    8MOL0     C  985   5.483  10.474   1.871  0.3730 -0.8515  1.0636
    8MOL0     C  986   5.512  10.588   1.773  0.4503  0.2538 -0.4612
    8MOL0     C  987   5.493  10.720   1.837 -0.0389 -0.3021  0.2894
    8MOL0     C  988   5.472  10.824   1.894 -0.1511 -0.5727  0.5664
    8MOL0     C  989   5.444  10.091   2.189 -0.6087 -0.5261 -0.5277
    8MOL0     C  990   5.398   9.975   2.249 -0.6385 -0.3366 -0.0719
    8MOL0     H  991   5.556   9.434   2.351  1.1412  0.4802 -1.3242
    8MOL0     H  992   5.467   9.205   2.392  0.6971 -0.6869 -0.1262
    8MOL0     H  993   5.249   9.118   2.477 -2.3956  0.1159 -1.2886
    8MOL0     H  994   5.353   8.983   2.410 -0.4927 -1.0504  0.9031
    8MOL0     H  995   5.116   8.929   2.320 -0.9205 -0.6572 -0.0109
    8MOL0     H  996   5.054   9.033   2.446  0.7056  0.0325 -0.4954
    8MOL0     H  997   5.165   8.909   2.626 -1.2036 -0.5428  1.0230
    8MOL0     H  998   5.223   8.789   2.503 -1.9740 -1.5809 -0.4936
    8MOL0     H  999   4.933   8.863   2.565 -1.2914 -1.7689  1.3771
    8MOL0     H 1000   4.998   8.737   2.448 -2.9927 -0.1101 -0.5466
    8MOL0     H 1001   4.994   8.761   2.762 -2.9028  4.8099 -2.8909
    8MOL0     H 1002   5.091   8.635   2.656 -0.5668 -0.2005 -0.3658
    8MOL0     H 1003   4.886   8.535   2.750  2.3666  0.0677  0.1892
    8MOL0     H 1004   4.863   8.566   2.573 -1.1194 -2.3268  1.6169
    8MOL0     H 1005   4.762   8.746   2.801  1.2795  0.8076 -0.8258
    8MOL0     H 1006   4.734   8.764   2.633  0.0201  0.0910 -0.9185
    8MOL0     H 1007   4.673   8.490   2.742  1.0092  0.2996 -0.3904
    8MOL0     H 1008   4.600   8.579   2.608 -1.8753  1.9940 -0.0667
    8MOL0     H 1009   4.493   8.836   2.719  0.0185 -0.4485 -0.7870
    8MOL0     H 1010   4.343   8.948   2.901  0.5188 -1.1507 -2.6073
    8MOL0     H 1011   4.277   8.854   3.036  0.5377 -1.3420 -0.3957
    8MOL0     H 1012   4.101   8.946   2.921 -1.1914  0.2966 -1.8392
    8MOL0     H 1013   4.090   8.774   2.899 -1.2792  0.6030  2.2166
    8MOL0     H 1014   4.228   8.966   2.704 -0.0181  2.2342  4.0862
    8MOL0     H 1015   4.187   8.796   2.668  0.2578 -0.1151  0.4580
    8MOL0     H 1016   4.034   8.928   2.556  1.0840 -0.9576 -0.3031
    8MOL0     H 1017   3.997   9.024   2.709 -0.6381 -0.5687 -0.1253
    8MOL0     H 1018   3.829   9.031   2.554  0.2263 -0.0206  2.6713
    8MOL0     H 1019   3.596   9.077   2.496 -2.5307 -0.7422  1.4653
    8MOL0     H 1020   3.161   8.941   2.464 -0.3482 -1.6805 -1.8655
    8MOL0     H 1021   2.947   9.035   2.347 -2.4306  4.4270 -2.5586
    8MOL0     H 1022   2.743   9.162   2.367 -0.4416  5.0808  3.1086
    8MOL0     H 1023   2.819   9.122   2.206 -2.8103  0.4270 -1.5923
    8MOL0     H 1024   2.714   9.329   2.110  0.0399  0.1424  0.9089
    8MOL0     H 1025   2.646   9.357   2.265 -1.3518  0.1238 -1.0308
    8MOL0     H 1026   2.469   9.254   2.134 -2.3020 -1.4114  1.8108
    8MOL0     H 1027   2.507   9.139   2.247  0.5918 -3.3339 -2.4470
    8MOL0     H 1028   2.635   9.134   1.980  2.2958 -0.6227  1.1096
    8MOL0     H 1029   2.659   9.019   2.116  0.4284  2.4732  3.0121
    8MOL0     H 1030   2.409   9.066   1.951  1.6603 -0.7908 -2.1337
    8MOL0     H 1031   2.425   8.945   2.093  0.2750 -0.4648 -0.0721
    8MOL0     H 1032   2.587   8.818   1.988 -1.9949 -0.0794  1.9550
    8MOL0     H 1033   2.615   8.941   1.863 -1.5384  2.5602  1.1865
    8MOL0     H 1034   2.355   8.780   1.898  1.5435  0.3288  2.6105
    8MOL0     H 1035   2.379   8.908   1.790 -2.1497  1.8634  3.6228
    8MOL0     H 1036   2.418   8.662   1.691 -0.7579  0.3550  0.6900
    8MOL0     H 1037   2.557   8.650   1.802  1.7577  1.4655  1.1744
    8MOL0     H 1038   3.080   9.424   2.412  0.6948 -0.2048  1.7248
    8MOL0     H 1039   3.287   9.341   2.515  2.4036 -2.4196  0.9619
    8MOL0     H 1040   3.478   8.772   2.773  0.0726 -1.0262 -1.9238
    8MOL0     H 1041   3.715   8.704   2.795 -1.5767 -0.8968 -0.4826
    8MOL0     H 1042   5.147   9.302   2.111 -0.7508  1.3428  0.1007
    8MOL0     H 1043   5.222   9.528   2.100  0.2200 -1.2771 -1.8810
    8MOL0     H 1044   5.539   9.768   2.014  1.0765  0.2071  1.1926
    8MOL0     H 1045   5.610   9.979   1.913  0.3124  0.7050 -0.9289
    8MOL0     H 1046   5.604  10.347   2.170  0.1803 -3.4184  0.8727
    8MOL0     H 1047   5.431  10.347   2.118 -0.2648 -0.1132 -1.2313
    8MOL0     H 1048   5.529  10.550   2.078  0.7501 -0.6651  0.5368
    8MOL0     H 1049   5.673  10.471   2.003  0.2711 -2.2266 -0.3121
    8MOL0     H 1050   5.378  10.470   1.899  0.7526  0.5225  2.8839
    8MOL0     H 1051   5.510  10.388   1.809 -1.1067  1.4290 -3.1438
    8MOL0     H 1052   5.615  10.580   1.739 -0.0949 -0.8570 -1.9552
    8MOL0     H 1053   5.438  10.586   1.692  1.2628 -0.2714 -1.2078
    8MOL0     H 1054   5.470  10.919   1.943 -1.1225 -0.8453  1.0796
    8MOL0     H 1055   5.433  10.180   2.249  1.9050 -0.1767 -0.4784
    8MOL0     H 1056   5.341   9.964   2.341  0.1922  1.3566  0.6946
    9MOL0     O 1057   2.650   7.990   9.697 -0.2756 -0.1732  0.4200
    9MOL0     C 1058   2.651   8.011   9.817 -0.5567  0.8965 -0.1061
    9MOL0     O 1059   2.545   7.988   9.894 -0.3403  0.0211 -0.0087
    9MOL0     C 1060   2.430   7.931   9.855 -0.0645 -0.5733  1.2763
    9MOL0     C 1061   2.359   7.883   9.966 -0.3258 -0.0079 -0.7469
    9MOL0     C 1062   2.234   7.842   9.945  0.1150 -0.2898  0.0373
    9MOL0     C 1063   2.170   7.841   9.820  0.3647  1.1552  0.5241
    9MOL0     O 1064   2.039   7.819   9.791 -0.0288  1.4268 -0.1589
    9MOL0     C 1065   1.942   7.810   9.894  0.6280  0.4297 -0.6622
    9MOL0     C 1066   1.806   7.786   9.821 -0.2946  0.0221 -0.4946
    9MOL0     C 1067   1.690   7.803   9.914  0.6011 -0.3497 -0.4818
    9MOL0     C 1068   1.662   7.701  10.020 -0.1443  0.0450 -0.9195
    9MOL0     C 1069   1.516   7.710  10.061  0.9934  0.3482  0.9582
    9MOL0     C 1070   1.434   7.594  10.004  0.1005 -0.5359 -0.3203
    9MOL0     C 1071   1.339   7.643   9.895  0.6510  0.3125  0.2659
    9MOL0     C 1072   1.215   7.555   9.869  0.1821 -0.6980  0.5676
    9MOL0     N 1073   1.160   7.566   9.732 -0.0608 -0.3908  0.7784
    9MOL0     C 1074   1.100   7.672   9.681 -0.1006 -0.6617  0.2023
    9MOL0     C 1075   1.041   7.622   9.568  0.1988 -0.6165  0.4960
    9MOL0     C 1076   0.949   7.692   9.468 -0.0822  0.7913  0.0216
    9MOL0     C 1077   0.811   7.708   9.531 -0.1980  0.2437 -0.3270
    9MOL0     C 1078   0.737   7.572   9.555 -0.1604  0.1575  0.8691
    9MOL0     C 1079   0.613   7.595   9.636  0.0066  0.2119 -0.7092
    9MOL0     O 1080   0.549   7.468   9.665 -0.5174  0.1742  0.0933
    9MOL0     C 1081   0.437   7.439   9.597 -0.6623  0.8214  0.2207
    9MOL0     C 1082   0.424   7.465   9.456  1.4749 -0.2512 -0.0817
    9MOL0     C 1083   0.301   7.436   9.389  0.5639 -0.1547 -0.2819
    9MOL0     C 1084   0.207   7.348   9.448  0.9971 -0.2879  0.2694
    9MOL0     C 1085   0.100   7.283   9.368  0.1304  0.0607 -0.8451
    9MOL0     O 1086  -0.002   7.221   9.446  0.2301 -0.7002  0.1256
    9MOL0     C 1087  -0.104   7.174   9.362  0.8152 -0.3388 -0.0672
    9MOL0     C 1088  -0.200   7.250   9.294 -0.8055 -0.5693  1.0789
    9MOL0     C 1089  -0.317   7.201   9.236  0.0734  0.0610  0.3399
    9MOL0     C 1090  -0.348   7.068   9.249 -0.0564 -0.4667  0.0027
    9MOL0     O 1091  -0.460   7.012   9.201  0.3607 -0.4083  0.0987
    9MOL0     C 1092  -0.471   6.877   9.186 -0.5675  0.4079 -1.1791
    9MOL0     C 1093  -0.568   6.846   9.082  0.5383 -0.5635  0.3179
    9MOL0     C 1094  -0.703   6.909   9.113  1.0543  0.4651  0.4342
    9MOL0     C 1095  -0.811   6.906   9.008 -0.7012  0.1306  0.2559
    9MOL0     C 1096  -0.858   6.766   8.979  0.0613 -0.1356  1.2276
    9MOL0     C 1097  -0.994   6.750   8.906 -0.1289  0.0918 -0.0211
    9MOL0     C 1098  -1.048   6.605   8.893  0.9689 -0.4810 -0.3949
    9MOL0     C 1099  -1.061   6.573   8.741  0.9701  0.0624  0.6009
    9MOL0    Cl 1100  -1.179   6.680   8.655 -0.0558 -0.0709  0.6677
    9MOL0     C 1101  -0.250   6.990   9.320  0.4241  0.9240 -0.8614
    9MOL0     C 1102  -0.129   7.036   9.364 -0.3119 -0.0991 -0.5702
    9MOL0     O 1103   0.093   7.307   9.251  0.9299  0.3541  0.2740
    9MOL0     C 1104   0.222   7.322   9.586 -0.7181 -0.1461  0.2973
    9MOL0     C 1105   0.334   7.366   9.655  0.0935  0.4415  0.1891
    9MOL0     N 1106   1.082   7.487   9.553  0.4297 -0.2339  0.6332
    9MOL0     N 1107   1.149   7.458   9.649  0.0450  0.5514  0.1515
    9MOL0     C 1108   2.245   7.864   9.705 -0.8945  0.3872  0.1259
    9MOL0     C 1109   2.372   7.920   9.721  0.1683  1.0429 -0.0046
    9MOL0     C 1110   2.767   8.078   9.861  0.2818 -0.6797 -0.1674
    9MOL0     C 1111   2.883   8.109   9.777  0.4458 -0.3094 -0.0066
    9MOL0     C 1112   2.984   8.190   9.829 -0.6931  0.4202  0.3432
    9MOL0     C 1113   2.976   8.241   9.965  0.8005 -0.5581 -0.0221
    9MOL0     O 1114   3.067   8.337  10.014 -0.6246 -0.4656 -0.2522
    9MOL0     C 1115   3.152   8.406   9.918  0.9660 -1.8596  0.5468
    9MOL0     C 1116   3.234   8.513   9.978  0.5074  0.6238  0.3990
    9MOL0     C 1117   3.342   8.471  10.076  0.1073  0.0754 -0.0586
    9MOL0     C 1118   3.486   8.478  10.020 -0.5384 -0.1068 -0.0954
    9MOL0     C 1119   3.530   8.346   9.957  0.3669  0.2063 -0.7123
    9MOL0     C 1120   3.574   8.242   9.910 -0.6270 -0.5301 -0.3756
    9MOL0     C 1121   2.864   8.212  10.042 -0.0635 -0.6512 -0.3168
    9MOL0     C 1122   2.754   8.138   9.988 -0.3594 -0.2892  0.2092
    9MOL0     H 1123   2.399   7.890  10.067 -0.5621  3.2171 -0.8005
    9MOL0     H 1124   2.194   7.804  10.038 -1.9840  2.6940  0.4988
    9MOL0     H 1125   1.930   7.898   9.958 -0.6706 -0.0921 -0.1602
    9MOL0     H 1126   1.968   7.722   9.954  0.1210  1.3898  1.0347
    9MOL0     H 1127   1.813   7.685   9.779 -0.6672 -1.3249  2.4569
    9MOL0     H 1128   1.811   7.864   9.744  1.2674 -3.4404 -4.3227
    9MOL0     H 1129   1.607   7.803   9.842 -0.5336 -4.2339  0.6092
    9MOL0     H 1130   1.681   7.895   9.973 -2.2126 -2.1554  2.1263
    9MOL0     H 1131   1.675   7.597   9.987 -0.2839  0.6590 -3.1246
    9MOL0     H 1132   1.721   7.712  10.111 -1.6600 -5.0994  1.0703
    9MOL0     H 1133   1.472   7.804  10.025 -2.6137 -1.8613 -1.0296
    9MOL0     H 1134   1.516   7.716  10.170  3.3030  2.2405  0.9210
    9MOL0     H 1135   1.381   7.563  10.095  0.6277  2.1311  1.0151
    9MOL0     H 1136   1.489   7.510   9.963  2.5415  1.2874 -1.0086
    9MOL0     H 1137   1.303   7.740   9.930 -1.0381  0.0764 -0.6834
    9MOL0     H 1138   1.398   7.648   9.803  1.2517 -0.1925  0.6162
    9MOL0     H 1139   1.134   7.572   9.940 -1.4050  1.9160 -1.6931
    9MOL0     H 1140   1.241   7.450   9.884 -1.6292 -1.4206 -0.9830
    9MOL0     H 1141   1.092   7.774   9.718  2.7906  0.2718 -1.4303
    9MOL0     H 1142   0.927   7.640   9.374 -0.1582  1.3240 -0.2614
    9MOL0     H 1143   0.996   7.784   9.432  1.0365 -0.3005 -1.4482
    9MOL0     H 1144   0.755   7.772   9.462 -0.7223  0.3942  0.2314
    9MOL0     H 1145   0.807   7.759   9.628  2.0292  2.0443 -1.0768
    9MOL0     H 1146   0.695   7.532   9.461 -1.5055 -0.7971  1.8352
    9MOL0     H 1147   0.800   7.495   9.600 -1.8118 -2.5094 -0.9967
    9MOL0     H 1148   0.557   7.675   9.586 -1.1674  3.4319  4.8869
    9MOL0     H 1149   0.651   7.632   9.732 -0.7264 -1.7408  0.3971
    9MOL0     H 1150   0.504   7.525   9.414  1.8627 -1.0929 -0.5609
    9MOL0     H 1151   0.285   7.481   9.291 -2.2023  0.4024  0.3413
    9MOL0     H 1152  -0.186   7.358   9.304  1.0999 -0.5343 -1.2600
    9MOL0     H 1153  -0.397   7.269   9.208  0.7091  0.2043 -1.2048
    9MOL0     H 1154  -0.501   6.835   9.282 -0.6451  1.1562 -0.8700
    9MOL0     H 1155  -0.375   6.840   9.147 -1.5974 -1.4152 -2.0997
    9MOL0     H 1156  -0.577   6.737   9.077 -0.3993 -0.5025  0.4875
    9MOL0     H 1157  -0.527   6.889   8.990 -0.5727  0.3454  0.2277
    9MOL0     H 1158  -0.691   7.016   9.133 -2.2156  1.2087 -0.8946
    9MOL0     H 1159  -0.754   6.871   9.202  1.6091 -0.0792  0.5197
    9MOL0     H 1160  -0.893   6.961   9.054  0.5285  3.1444 -0.8596
    9MOL0     H 1161  -0.762   6.954   8.923  1.8447  0.0320  1.5513
    9MOL0     H 1162  -0.871   6.714   9.074  0.2700 -2.1265  0.2178
    9MOL0     H 1163  -0.782   6.713   8.921  0.1380 -1.6175  2.6301
    9MOL0     H 1164  -0.983   6.777   8.800  1.7773 -1.1660 -0.2027
    9MOL0     H 1165  -1.076   6.800   8.957  0.3485  1.8135 -0.8545
    9MOL0     H 1166  -0.975   6.539   8.940  1.2193 -1.1393 -1.6690
    9MOL0     H 1167  -1.149   6.599   8.935  0.5454  0.5719 -1.2091
    9MOL0     H 1168  -1.099   6.471   8.728 -0.4498  0.3889  1.9224
    9MOL0     H 1169  -0.962   6.574   8.695  0.1636 -1.4464 -1.3034
    9MOL0     H 1170  -0.266   6.884   9.336  1.1526  0.7808 -1.0323
    9MOL0     H 1171  -0.056   6.971   9.411 -2.0580 -1.4974  0.3660
    9MOL0     H 1172   0.150   7.266   9.645  0.8085 -2.1807  0.3464
    9MOL0     H 1173   0.342   7.318   9.752  0.3711 -1.7847 -0.8657
    9MOL0     H 1174   2.202   7.874   9.606 -2.3797 -0.9866  0.5837
    9MOL0     H 1175   2.432   7.949   9.636  0.9506  2.9203  1.1322
    9MOL0     H 1176   2.898   8.053   9.685 -4.4201 -0.9129 -0.6539
    9MOL0     H 1177   3.066   8.218   9.764 -1.3510  1.7700  0.0704
    9MOL0     H 1178   3.094   8.446   9.834  0.0567 -3.0663  0.5667
    9MOL0     H 1179   3.225   8.340   9.871  1.4915  0.9034 -2.9877
    9MOL0     H 1180   3.267   8.582   9.901 -3.7358  1.9511 -0.5246
    9MOL0     H 1181   3.167   8.573  10.041 -0.8139 -1.4983  1.1645
    9MOL0     H 1182   3.317   8.373  10.118  1.5819 -0.9423 -1.4387
    9MOL0     H 1183   3.334   8.543  10.158 -1.2254 -0.9021  0.6940
    9MOL0     H 1184   3.485   8.555   9.942  1.2239 -0.9052 -0.9735
    9MOL0     H 1185   3.555   8.511  10.097 -0.3114  0.4113 -0.5174
    9MOL0     H 1186   3.623   8.153   9.876  0.2394 -0.4585  0.6726
    9MOL0     H 1187   2.859   8.247  10.144  0.1212 -1.3048 -0.0757
    9MOL0     H 1188   2.662   8.134  10.046 -0.2181  0.3760  0.4912
   10MOL0     O 1189   8.684   1.093   7.483 -0.4325 -0.3141 -0.0710
   10MOL0     C 1190   8.633   1.156   7.583 -0.1597  0.3108 -0.7305
   10MOL0     O 1191   8.516   1.116   7.658  0.5292 -1.0645  0.5012
   10MOL0     C 1192   8.463   0.985   7.639 -0.3306  0.4201  0.3086
   10MOL0     C 1193   8.411   0.941   7.518 -0.1083  0.2283  0.4142
   10MOL0     C 1194   8.348   0.822   7.508  0.1827  0.0868  0.8479
   10MOL0     C 1195   8.322   0.744   7.616 -0.1071  0.2026  0.2927
   10MOL0     O 1196   8.238   0.639   7.607  0.0730  0.9607  0.6189
   10MOL0     C 1197   8.172   0.620   7.481  0.0814 -0.8001  0.4499
   10MOL0     C 1198   8.064   0.504   7.492  0.1890  0.3742 -0.0263
   10MOL0     C 1199   7.975   0.477   7.366  0.4710 -1.0064 -0.3203
   10MOL0     C 1200   8.058   0.454   7.237 -0.2241  0.4056  0.6727
   10MOL0     C 1201   8.030   0.553   7.117 -0.7956 -0.4880  0.6346
   10MOL0     C 1202   8.037   0.697   7.164  0.7832  0.2313 -0.6093
   10MOL0     C 1203   8.075   0.778   7.054 -0.7547 -0.4804 -0.8216
   10MOL0     C 1204   8.089   0.922   7.103 -0.0220  0.1546  0.2707
   10MOL0     N 1205   8.140   1.007   6.988 -0.0031  0.2661  0.1288
   10MOL0     C 1206   8.276   1.042   6.969 -0.1100  0.6328 -1.3253
   10MOL0     C 1207   8.285   1.117   6.865 -0.8213 -0.2296  0.5470
   10MOL0     C 1208   8.412   1.179   6.816 -0.4940 -0.1893  0.5968
   10MOL0     C 1209   8.401   1.319   6.769 -0.2701 -0.4783  0.3855
   10MOL0     C 1210   8.528   1.395   6.719  0.5311 -0.6006  0.2490
   10MOL0     C 1211   8.577   1.505   6.826  0.0859  1.3995 -1.2928
   10MOL0     O 1212   8.691   1.578   6.783  0.0173  0.0971  0.7452
   10MOL0     C 1213   8.668   1.679   6.693  0.5518  0.3503  1.4622
   10MOL0     C 1214   8.547   1.732   6.650  0.0834  0.0394  0.9598
   10MOL0     C 1215   8.537   1.843   6.566 -0.5587  0.2021  0.4932
   10MOL0     C 1216   8.649   1.922   6.534  0.2336 -0.7328 -0.0481
   10MOL0     C 1217   8.643   2.034   6.438 -0.7559 -0.3144  0.5591
   10MOL0     O 1218   8.750   2.119   6.448 -0.6114 -0.1236 -0.0336
   10MOL0     C 1219   8.757   2.237   6.387 -0.5727  0.5803 -1.2055
   10MOL0     C 1220   8.757   2.250   6.250  0.0559  0.2440 -0.3013
   10MOL0     C 1221   8.741   2.379   6.193 -0.7345  0.9910  0.0942
   10MOL0     C 1222   8.754   2.489   6.272  0.4342 -0.8311  0.0251
   10MOL0     O 1223   8.740   2.605   6.195  0.1432 -0.2980  0.0380
   10MOL0     C 1224   8.639   2.695   6.243  0.1188 -0.2067 -1.5942
   10MOL0     C 1225   8.619   2.806   6.146  0.0518 -1.0557  0.7473
   10MOL0     C 1226   8.565   2.762   6.008  0.2805 -0.2761 -0.8705
   10MOL0     C 1227   8.667   2.700   5.915  0.0448 -0.2949  0.1609
   10MOL0     C 1228   8.590   2.652   5.784  0.1551 -0.2673  0.5900
   10MOL0     C 1229   8.549   2.769   5.692  0.8371  0.3064  0.6175
   10MOL0     C 1230   8.658   2.862   5.646  0.6792  0.3608  0.1453
   10MOL0     C 1231   8.598   2.968   5.559  0.1969 -0.0732 -0.3969
   10MOL0    Cl 1232   8.498   2.906   5.427  0.0945 -0.0091 -0.1913
   10MOL0     C 1233   8.772   2.478   6.412  0.5557  0.3140 -0.3803
   10MOL0     C 1234   8.771   2.351   6.468  0.0802  0.6114  0.1590
   10MOL0     O 1235   8.551   2.043   6.364  0.3482  0.4730 -0.0662
   10MOL0     C 1236   8.771   1.879   6.583  1.2140  0.3626 -0.0918
   10MOL0     C 1237   8.780   1.754   6.653  0.3198 -0.4352 -0.1596
   10MOL0     N 1238   8.156   1.139   6.826 -1.3148 -0.3744  0.2754
   10MOL0     N 1239   8.064   1.079   6.900  0.3493  0.4020  1.1540
   10MOL0     C 1240   8.378   0.780   7.738  0.2364 -0.3599  0.1689
   10MOL0     C 1241   8.446   0.900   7.755 -0.4627 -1.3233  0.6615
   10MOL0     C 1242   8.711   1.280   7.621 -0.2514  0.2083 -0.1732
   10MOL0     C 1243   8.680   1.355   7.737  0.9421 -0.7700  0.6726
   10MOL0     C 1244   8.749   1.472   7.769 -0.5731 -0.4645  0.3314
   10MOL0     C 1245   8.841   1.528   7.679  0.3657  0.2439  0.3814
   10MOL0     O 1246   8.890   1.649   7.714 -0.2107  0.0255 -1.3800
   10MOL0     C 1247   8.918   1.748   7.620  0.5374 -0.7722  0.5521
   10MOL0     C 1248   8.801   1.837   7.572 -0.0540  0.4500 -0.1423
   10MOL0     C 1249   8.684   1.760   7.517  0.4900 -0.0503 -1.6811
   10MOL0     C 1250   8.589   1.848   7.433 -0.6752  0.7877 -1.2112
   10MOL0     C 1251   8.445   1.844   7.467 -0.2815 -0.0785  0.6585
   10MOL0     C 1252   8.327   1.845   7.497 -0.5970  0.2113 -0.5544
   10MOL0     C 1253   8.867   1.446   7.564 -0.1599  0.0235  0.0028
   10MOL0     C 1254   8.814   1.326   7.542 -0.3828  0.8458 -0.2731
   10MOL0     H 1255   8.437   1.001   7.431  3.3684 -0.7536  0.6142
   10MOL0     H 1256   8.321   0.793   7.407 -4.0076  0.7607  1.5712
   10MOL0     H 1257   8.254   0.602   7.411 -1.5829  3.4733 -3.0301
   10MOL0     H 1258   8.114   0.707   7.450 -0.2678 -0.7497  1.2193
   10MOL0     H 1259   8.001   0.529   7.577 -1.0858  1.2897 -1.1959
   10MOL0     H 1260   8.114   0.410   7.515  0.5555  0.6346  0.2551
   10MOL0     H 1261   7.903   0.560   7.361  1.2416 -0.2895  0.1078
   10MOL0     H 1262   7.916   0.387   7.385 -0.0174 -0.8607 -1.1349
   10MOL0     H 1263   8.164   0.464   7.265 -0.3798  0.0739  1.3827
   10MOL0     H 1264   8.037   0.351   7.207 -1.3054  0.4918  1.1179
   10MOL0     H 1265   7.933   0.544   7.068 -0.3523 -0.4839 -0.2722
   10MOL0     H 1266   8.093   0.539   7.028  1.1979 -0.1410  1.9312
   10MOL0     H 1267   8.119   0.706   7.236  0.2792  2.2243 -0.2401
   10MOL0     H 1268   7.951   0.750   7.204 -0.9725 -1.3288 -2.1283
   10MOL0     H 1269   8.169   0.746   7.010 -1.4290 -2.7156 -0.7466
   10MOL0     H 1270   7.998   0.769   6.977 -0.1802  2.0298 -1.7985
   10MOL0     H 1271   8.149   0.928   7.194 -0.5215  1.3381  0.5303
   10MOL0     H 1272   7.985   0.939   7.129 -0.1438 -3.4167  2.9220
   10MOL0     H 1273   8.356   1.012   7.036 -0.5072  2.9898  0.2921
   10MOL0     H 1274   8.463   1.127   6.734  1.2118  1.6524  0.3992
   10MOL0     H 1275   8.494   1.181   6.889  1.8361  1.7184 -1.8983
   10MOL0     H 1276   8.373   1.381   6.855 -0.9960  0.4568 -0.5023
   10MOL0     H 1277   8.327   1.325   6.689  1.3301  1.4520 -1.0427
   10MOL0     H 1278   8.605   1.324   6.688  1.0868  1.0379 -2.3828
   10MOL0     H 1279   8.494   1.460   6.638 -0.9183 -2.5719 -0.8204
   10MOL0     H 1280   8.606   1.464   6.923 -1.4316  1.9578 -0.5638
   10MOL0     H 1281   8.491   1.566   6.855 -0.7185 -0.2092 -0.1886
   10MOL0     H 1282   8.453   1.685   6.677 -0.9867  0.7676 -1.2682
   10MOL0     H 1283   8.439   1.864   6.523 -0.4068 -0.8368 -0.3856
   10MOL0     H 1284   8.740   2.158   6.195  1.8226  0.7374 -1.7454
   10MOL0     H 1285   8.728   2.394   6.086 -0.7065  3.5731  0.3896
   10MOL0     H 1286   8.670   2.737   6.339  3.0545 -0.0870 -2.4836
   10MOL0     H 1287   8.544   2.644   6.257  1.2975 -1.6901  2.6154
   10MOL0     H 1288   8.712   2.861   6.130 -1.5453  1.2419 -1.3794
   10MOL0     H 1289   8.542   2.879   6.172  1.9770  1.5962 -0.5485
   10MOL0     H 1290   8.534   2.859   5.968  0.7880  1.7608  3.1502
   10MOL0     H 1291   8.478   2.698   6.023  0.2236 -0.0428 -0.1948
   10MOL0     H 1292   8.741   2.779   5.899 -2.0282  2.1003  1.6234
   10MOL0     H 1293   8.721   2.617   5.963  6.0207  1.8485 -1.9513
   10MOL0     H 1294   8.503   2.589   5.806  0.4290 -0.6584  0.5618
   10MOL0     H 1295   8.670   2.598   5.731  2.7677  2.4718  1.4472
   10MOL0     H 1296   8.459   2.820   5.728 -1.7788  0.3344 -4.9558
   10MOL0     H 1297   8.503   2.725   5.603  2.1887 -0.0308  0.0744
   10MOL0     H 1298   8.706   2.917   5.727  2.5858  0.9189 -1.2977
   10MOL0     H 1299   8.736   2.808   5.593 -0.5237 -1.5627  0.2242
   10MOL0     H 1300   8.672   3.033   5.510 -1.9466  0.3355 -3.3386
   10MOL0     H 1301   8.537   3.035   5.620  1.3596  2.0177 -1.4154
   10MOL0     H 1302   8.792   2.560   6.479  2.5412 -1.1392  0.9047
   10MOL0     H 1303   8.796   2.343   6.573 -0.7645 -1.9390  0.2379
   10MOL0     H 1304   8.866   1.927   6.562  1.5712 -1.5719 -3.7249
   10MOL0     H 1305   8.885   1.736   6.671  0.4782  1.0679  0.5227
   10MOL0     H 1306   8.386   0.705   7.815  1.5837  0.9603  1.3762
   10MOL0     H 1307   8.481   0.936   7.851 -0.9851 -0.6604  0.6099
   10MOL0     H 1308   8.592   1.339   7.799  0.5488 -1.0068  0.0655
   10MOL0     H 1309   8.724   1.531   7.857 -1.8136 -1.7841  0.9090
   10MOL0     H 1310   8.964   1.705   7.530 -1.9990  0.4893 -1.4861
   10MOL0     H 1311   8.978   1.825   7.669 -0.2316 -2.2128  4.0497
   10MOL0     H 1312   8.761   1.887   7.661 -2.3308 -2.0254  0.3555
   10MOL0     H 1313   8.842   1.909   7.502 -0.4737 -0.6622 -1.5757
   10MOL0     H 1314   8.635   1.714   7.603 -0.4242  0.0882 -2.1157
   10MOL0     H 1315   8.713   1.675   7.455 -1.2388 -0.1499 -2.3890
   10MOL0     H 1316   8.637   1.946   7.443  2.0417 -0.6059  0.5210
   10MOL0     H 1317   8.592   1.813   7.330 -1.2342 -2.1327 -0.3283
   10MOL0     H 1318   8.226   1.879   7.511 -0.6612  0.0888 -0.7173
   10MOL0     H 1319   8.938   1.481   7.489 -0.2311 -1.2914 -0.7074
   10MOL0     H 1320   8.840   1.277   7.449  3.0816 -0.3633  1.1830
   11MOL0     O 1321   3.637  10.799  10.527 -0.7835 -0.5397 -0.4202
   11MOL0     C 1322   3.750  10.848  10.513 -0.9433  1.0112  0.3371
   11MOL0     O 1323   3.800  10.894  10.395 -0.6660 -0.2295 -0.3576
   11MOL0     C 1324   3.719  10.920  10.288 -0.3738  0.0112  0.4724
   11MOL0     C 1325   3.789  10.946  10.171 -0.6585 -0.1350 -0.1436
   11MOL0     C 1326   3.732  10.975  10.046 -0.1471 -0.8803  0.5074
   11MOL0     C 1327   3.594  11.007  10.043 -0.3290  0.3818  1.4414
   11MOL0     O 1328   3.525  11.042   9.924 -0.2385  0.2363 -0.1376
   11MOL0     C 1329   3.484  10.924   9.851  0.3826  0.6381  0.5735
   11MOL0     C 1330   3.429  10.964   9.715  0.0480 -0.0824 -0.2126
   11MOL0     C 1331   3.394  10.848   9.628  0.1252  0.2252  0.4859
   11MOL0     C 1332   3.506  10.744   9.603  0.7252  0.5273  0.7055
   11MOL0     C 1333   3.448  10.630   9.514  0.1547 -0.3370 -0.1319
   11MOL0     C 1334   3.550  10.548   9.439 -0.1298  0.3879  0.2805
   11MOL0     C 1335   3.471  10.445   9.344 -0.2039  1.4287  0.0081
   11MOL0     C 1336   3.392  10.321   9.402 -0.3841  1.1440  0.1057
   11MOL0     N 1337   3.479  10.207   9.450  0.1737  0.0381  0.3172
   11MOL0     C 1338   3.530  10.123   9.354 -0.0076  0.7719  0.3067
   11MOL0     C 1339   3.635  10.067   9.415 -0.1653  0.4604 -0.1601
   11MOL0     C 1340   3.737   9.964   9.370  0.2266 -0.0769  0.7677
   11MOL0     C 1341   3.837  10.006   9.265  0.6296 -0.0571  0.2890
   11MOL0     C 1342   3.895   9.891   9.175  0.0502 -0.4074 -0.2694
   11MOL0     C 1343   4.002   9.968   9.087 -1.2812  0.1941 -0.5185
   11MOL0     O 1344   4.046   9.886   8.978 -0.9547 -0.5037  0.0086
   11MOL0     C 1345   4.160   9.935   8.916  0.1627 -0.0545  0.5098
   11MOL0     C 1346   4.170  10.060   8.848  0.7945  1.0628 -0.0604
   11MOL0     C 1347   4.286  10.112   8.811 -0.1128  0.3590  1.3101
   11MOL0     C 1348   4.410  10.038   8.821 -0.2969 -0.3956 -0.8376
   11MOL0     C 1349   4.539  10.088   8.780  0.1670 -0.9216  1.7269
   11MOL0     O 1350   4.538  10.224   8.738 -0.1688  0.3859 -0.1007
   11MOL0     C 1351   4.626  10.269   8.632 -0.0763 -0.3611  0.0707
   11MOL0     C 1352   4.630  10.409   8.625 -0.6852 -0.2006  0.9644
   11MOL0     C 1353   4.710  10.471   8.532 -0.3470  0.6900 -0.4707
   11MOL0     C 1354   4.787  10.399   8.436  0.1791  0.2241 -0.1844
   11MOL0     O 1355   4.873  10.455   8.342 -0.7221  0.2749 -0.1007
   11MOL0     C 1356   4.911  10.596   8.345 -0.8895  0.3099 -1.0673
   11MOL0     C 1357   5.022  10.622   8.445 -0.1941  0.2753 -0.1614
   11MOL0     C 1358   5.070  10.774   8.442 -0.6613  0.1004 -0.8039
   11MOL0     C 1359   5.176  10.789   8.551  0.4436  0.2430  0.3857
   11MOL0     C 1360   5.230  10.936   8.576 -0.0138 -1.0754  0.1042
   11MOL0     C 1361   5.119  11.002   8.649  0.4654 -0.5320 -0.4619
   11MOL0     C 1362   5.117  11.156   8.621 -0.1391 -0.5010  0.9344
   11MOL0     C 1363   5.057  11.185   8.481 -0.9238 -0.4714 -0.0446
   11MOL0    Cl 1364   5.174  11.162   8.335 -0.7209 -0.0569  0.1262
   11MOL0     C 1365   4.773  10.265   8.439  0.3419 -0.2043  0.2339
   11MOL0     C 1366   4.690  10.202   8.528  0.0181  0.0033  0.3244
   11MOL0     O 1367   4.639  10.015   8.774  0.5441 -0.8292  0.1861
   11MOL0     C 1368   4.405   9.920   8.881 -0.1002 -0.1170 -0.0344
   11MOL0     C 1369   4.282   9.869   8.932  0.2757 -0.2793  0.5702
   11MOL0     N 1370   3.646  10.110   9.548  0.3048  0.0845  0.2843
   11MOL0     N 1371   3.561  10.201   9.564 -0.2991 -0.3831 -0.6525
   11MOL0     C 1372   3.518  10.986  10.158 -0.4808 -0.1031  0.3571
   11MOL0     C 1373   3.581  10.940  10.281 -0.1923  0.0883  1.0167
   11MOL0     C 1374   3.859  10.842  10.613  0.3431 -0.3193  0.5532
   11MOL0     C 1375   3.823  10.873  10.743  0.8217  0.5468 -0.5009
   11MOL0     C 1376   3.918  10.880  10.840  0.4975 -0.0349  1.3689
   11MOL0     C 1377   4.046  10.865  10.807 -0.6045  0.5985  0.0868
   11MOL0     O 1378   4.130  10.875  10.912 -0.1262 -0.8342 -0.3403
   11MOL0     C 1379   4.270  10.857  10.893  0.3185  0.1998 -0.6372
   11MOL0     C 1380   4.330  10.876  11.041 -0.3156  0.4251  0.1591
   11MOL0     C 1381   4.482  10.920  11.024  0.5360 -0.4801  0.6248
   11MOL0     C 1382   4.529  10.985  11.155  0.3780 -0.9581  0.1814
   11MOL0     C 1383   4.670  10.957  11.167  0.4343 -0.6280 -0.7156
   11MOL0     C 1384   4.787  10.935  11.167 -0.1981 -0.0367 -0.3986
   11MOL0     C 1385   4.097  10.848  10.674  0.2323 -0.0244  0.5781
   11MOL0     C 1386   3.996  10.834  10.581 -0.1296  0.5745 -0.2515
   11MOL0     H 1387   3.897  10.942  10.160 -0.3890  2.9355  0.5327
   11MOL0     H 1388   3.786  10.975   9.952 -2.6950 -1.1665 -1.0543
   11MOL0     H 1389   3.406  10.869   9.904 -1.1005 -0.0492 -2.1254
   11MOL0     H 1390   3.567  10.859   9.825 -0.7237 -0.0969 -1.3092
   11MOL0     H 1391   3.489  11.036   9.660  2.7673 -2.1862 -0.2245
   11MOL0     H 1392   3.337  11.019   9.736 -1.7593 -2.8415 -0.3347
   11MOL0     H 1393   3.371  10.890   9.530 -2.1173 -2.6356 -0.3835
   11MOL0     H 1394   3.298  10.799   9.644 -1.6889  1.8250 -3.9214
   11MOL0     H 1395   3.595  10.789   9.557  1.4110 -2.1015 -0.7620
   11MOL0     H 1396   3.541  10.703   9.699 -0.1029 -0.2152  0.6985
   11MOL0     H 1397   3.387  10.675   9.435  0.1813 -0.4160 -0.1978
   11MOL0     H 1398   3.383  10.572   9.580  2.7732  0.6928  3.6092
   11MOL0     H 1399   3.625  10.497   9.500 -0.4017  0.2559  0.5019
   11MOL0     H 1400   3.621  10.612   9.386  2.2465 -0.2341  2.5228
   11MOL0     H 1401   3.399  10.498   9.281 -3.1349  0.6689  2.4860
   11MOL0     H 1402   3.542  10.404   9.272  0.8326 -0.3161  1.9003
   11MOL0     H 1403   3.323  10.281   9.327 -1.6299 -2.1680  2.7592
   11MOL0     H 1404   3.333  10.360   9.486  1.2582 -0.3777  2.0728
   11MOL0     H 1405   3.500  10.106   9.251 -1.2070 -0.8074  0.8754
   11MOL0     H 1406   3.675   9.880   9.337  0.2889 -0.0774  0.6472
   11MOL0     H 1407   3.793   9.910   9.447 -0.3751 -2.7255 -0.5356
   11MOL0     H 1408   3.918  10.061   9.314  0.2065  0.0950  0.8263
   11MOL0     H 1409   3.792  10.084   9.203 -1.9901  0.2180  2.3383
   11MOL0     H 1410   3.940   9.817   9.241  2.9802  1.4297  0.0073
   11MOL0     H 1411   3.809   9.862   9.114 -0.5888 -1.5277  1.1082
   11MOL0     H 1412   4.088   9.993   9.151 -0.3191  0.4883 -1.8708
   11MOL0     H 1413   3.955  10.061   9.054 -0.0621  2.2990  3.0351
   11MOL0     H 1414   4.082  10.122   8.836  1.2907  2.5137  2.8883
   11MOL0     H 1415   4.293  10.210   8.765  1.6238  1.0585  2.9680
   11MOL0     H 1416   4.570  10.472   8.690 -0.8507 -1.8622  2.5129
   11MOL0     H 1417   4.705  10.580   8.529  2.9445  1.1341  2.7959
   11MOL0     H 1418   4.834  10.667   8.377  3.4117  4.7313  0.7180
   11MOL0     H 1419   4.941  10.628   8.244  1.9354  3.9952  0.7199
   11MOL0     H 1420   5.097  10.550   8.413  0.9152  1.8651 -1.3195
   11MOL0     H 1421   4.974  10.593   8.539 -3.1504  0.7206 -1.4074
   11MOL0     H 1422   4.992  10.847   8.467  0.4179  2.1232 -2.9842
   11MOL0     H 1423   5.109  10.792   8.341 -0.7835 -0.0686 -0.8815
   11MOL0     H 1424   5.138  10.754   8.648 -3.0432  2.7023  0.1232
   11MOL0     H 1425   5.262  10.726   8.529  1.4753  1.4462  0.8434
   11MOL0     H 1426   5.266  10.988   8.486 -1.1383 -1.9702 -0.9032
   11MOL0     H 1427   5.317  10.940   8.642  0.8608 -0.5838 -1.0437
   11MOL0     H 1428   5.126  10.996   8.758 -0.2415 -0.2968 -0.3966
   11MOL0     H 1429   5.022  10.959   8.623 -0.2892  0.9944 -0.2896
   11MOL0     H 1430   5.049  11.209   8.689  0.5447  0.4405  0.8955
   11MOL0     H 1431   5.211  11.208   8.639 -1.6345  3.6644 -1.7037
   11MOL0     H 1432   5.038  11.293   8.486  0.2069 -0.3022  2.0728
   11MOL0     H 1433   4.968  11.124   8.466 -0.2708 -1.3480 -0.4626
   11MOL0     H 1434   4.826  10.202   8.368  0.9681  0.7513 -0.1686
   11MOL0     H 1435   4.677  10.094   8.529  1.1098 -0.1355  1.1298
   11MOL0     H 1436   4.491   9.856   8.865 -2.0102 -2.4398 -1.5835
   11MOL0     H 1437   4.292   9.783   8.997 -0.1038  0.1333  1.1784
   11MOL0     H 1438   3.410  10.974  10.148 -0.3457 -1.8377  0.5635
   11MOL0     H 1439   3.516  10.928  10.367  0.3804  0.8008  1.5567
   11MOL0     H 1440   3.721  10.905  10.758  1.3939  2.4603 -0.4009
   11MOL0     H 1441   3.905  10.921  10.939  0.6068 -0.6668  1.6495
   11MOL0     H 1442   4.309  10.942  10.836 -1.3930  0.6369 -1.1999
   11MOL0     H 1443   4.298  10.757  10.859 -1.9211 -1.4135  1.8952
   11MOL0     H 1444   4.275  10.954  11.095  3.0830 -0.7055  6.0791
   11MOL0     H 1445   4.323  10.787  11.104  0.8066  0.5716  0.5045
   11MOL0     H 1446   4.512  10.976  10.935  1.0444  0.0916  1.1447
   11MOL0     H 1447   4.542  10.830  11.019  0.8361 -0.2285 -0.9133
   11MOL0     H 1448   4.501  11.089  11.173 -5.2630 -2.2348  0.6037
   11MOL0     H 1449   4.472  10.940  11.236 -1.0436  0.3763 -0.0338
   11MOL0     H 1450   4.890  10.906  11.165  0.1261  1.0891 -1.1812
   11MOL0     H 1451   4.202  10.852  10.643  0.4830 -1.3709  1.1953
   11MOL0     H 1452   4.028  10.828  10.478 -2.9521  3.0989 -1.4260
   12MOL0     O 1453   8.372   2.374  10.655  0.1510 -0.7206 -0.5462
   12MOL0     C 1454   8.430   2.399  10.551  0.2590 -0.2918 -0.8249
   12MOL0     O 1455   8.548   2.462  10.543  0.0388  0.7355 -1.3073
   12MOL0     C 1456   8.627   2.486  10.653  0.3211 -0.1424 -0.6036
   12MOL0     C 1457   8.651   2.385  10.748  0.3270 -0.2213 -0.0927
   12MOL0     C 1458   8.747   2.401  10.851  0.2664  0.4283  0.3231
   12MOL0     C 1459   8.809   2.525  10.865  0.2583 -0.2521  1.3314
   12MOL0     O 1460   8.903   2.538  10.963 -0.4017 -0.5283 -0.6540
   12MOL0     C 1461   9.013   2.620  10.916 -0.3424 -0.1278 -0.1182
   12MOL0     C 1462   9.128   2.611  11.020 -0.4219  0.7027  0.6715
   12MOL0     C 1463   9.267   2.653  10.966  0.7094 -0.3425 -0.3321
   12MOL0     C 1464   9.283   2.802  10.946  0.6742  0.3847 -0.0813
   12MOL0     C 1465   9.267   2.883  11.077  0.1547 -0.3691  0.3010
   12MOL0     C 1466   9.281   3.035  11.052  0.3303 -0.2477  0.2697
   12MOL0     C 1467   9.153   3.100  10.998  0.0226  0.5364 -0.3312
   12MOL0     C 1468   9.045   3.132  11.091 -0.0547 -0.4698  0.0283
   12MOL0     N 1469   8.915   3.122  11.016  0.2940 -0.0391  0.0340
   12MOL0     C 1470   8.858   3.222  10.939 -0.8236  0.6567 -0.4453
   12MOL0     C 1471   8.745   3.161  10.887  0.8658 -0.9825 -0.5477
   12MOL0     C 1472   8.650   3.210  10.782  0.0622  0.3872  0.3284
   12MOL0     C 1473   8.723   3.262  10.653  0.7580 -0.0090  0.1540
   12MOL0     C 1474   8.601   3.290  10.548 -0.2604  0.2647 -0.5483
   12MOL0     C 1475   8.534   3.419  10.588  0.2520 -0.4400 -0.2591
   12MOL0     O 1476   8.462   3.486  10.481 -0.8433 -0.0072  0.6675
   12MOL0     C 1477   8.373   3.415  10.410  0.1812 -0.5275  0.3313
   12MOL0     C 1478   8.293   3.314  10.457 -0.0722  0.9172  0.2657
   12MOL0     C 1479   8.210   3.242  10.372 -0.2233  0.7115  0.0770
   12MOL0     C 1480   8.188   3.281  10.238 -1.0732  1.0922 -0.1153
   12MOL0     C 1481   8.089   3.219  10.152  0.0667  0.3998 -0.0240
   12MOL0     O 1482   8.029   3.112  10.211 -0.1540 -0.4589  0.0630
   12MOL0     C 1483   7.913   3.052  10.172 -0.4574 -0.3829 -0.1142
   12MOL0     C 1484   7.845   3.077  10.055  0.5703 -0.5901 -0.4647
   12MOL0     C 1485   7.729   3.013  10.017 -0.6825 -0.8173  0.2320
   12MOL0     C 1486   7.676   2.919  10.107 -0.1415  0.1266  0.1578
   12MOL0     O 1487   7.561   2.853  10.080  0.2866 -0.2030 -0.3774
   12MOL0     C 1488   7.455   2.921  10.016 -0.4628 -0.0598  0.1436
   12MOL0     C 1489   7.340   2.833   9.988  0.0254 -0.0426 -0.8885
   12MOL0     C 1490   7.225   2.906   9.914 -0.6720  0.2224  0.8571
   12MOL0     C 1491   7.118   2.812   9.849 -0.2616  0.5107 -0.1665
   12MOL0     C 1492   7.071   2.860   9.704  0.4098  0.7295 -0.0736
   12MOL0     C 1493   6.996   2.751   9.636  0.5304  1.1459  0.5118
   12MOL0     C 1494   6.932   2.800   9.504 -0.4778 -0.4746 -0.1841
   12MOL0     C 1495   6.779   2.840   9.523 -0.6585  0.4341 -0.2416
   12MOL0    Cl 1496   6.714   2.908   9.380 -0.2698  0.1279 -0.4141
   12MOL0     C 1497   7.740   2.892  10.223 -0.2105 -0.1647  0.4542
   12MOL0     C 1498   7.850   2.961  10.256 -0.8044  0.1084  0.3303
   12MOL0     O 1499   8.055   3.272  10.050  0.4865 -0.0987  0.5488
   12MOL0     C 1500   8.264   3.390  10.193  0.5947  0.2079  0.5531
   12MOL0     C 1501   8.353   3.456  10.278  0.6848 -0.8761  0.7354
   12MOL0     N 1502   8.735   3.032  10.934  0.4138  0.1876 -0.2014
   12MOL0     N 1503   8.839   3.010  11.011  0.6404 -0.0162 -0.1313
   12MOL0     C 1504   8.780   2.636  10.776  0.4646 -0.5580 -0.0904
   12MOL0     C 1505   8.692   2.609  10.669 -0.5083  0.2936 -0.7472
   12MOL0     C 1506   8.372   2.338  10.427 -0.9574 -0.1091 -0.9960
   12MOL0     C 1507   8.280   2.228  10.429  0.5418 -0.5373  0.0296
   12MOL0     C 1508   8.229   2.171  10.319  0.0883  0.1731  0.3523
   12MOL0     C 1509   8.258   2.226  10.191 -1.0795  0.7724 -0.1728
   12MOL0     O 1510   8.198   2.180  10.070 -0.1200  0.1047 -0.5009
   12MOL0     C 1511   8.233   2.219   9.938 -0.6648 -0.7544  0.2112
   12MOL0     C 1512   8.150   2.135   9.857  0.3815  0.4987 -0.4332
   12MOL0     C 1513   8.186   2.161   9.704  0.1468 -0.8043 -0.1575
   12MOL0     C 1514   8.109   2.283   9.643  0.6359  0.7875 -0.2615
   12MOL0     C 1515   8.195   2.403   9.629  0.6473  1.2664 -0.3746
   12MOL0     C 1516   8.262   2.492   9.624 -1.0274  0.6806 -0.3761
   12MOL0     C 1517   8.347   2.330  10.179 -0.1716  0.4828  0.1127
   12MOL0     C 1518   8.406   2.389  10.305 -0.5032  1.1929  0.3965
   12MOL0     H 1519   8.605   2.287  10.740  1.4370 -0.6622 -1.7559
   12MOL0     H 1520   8.761   2.311  10.911  1.2680 -1.1326 -2.0812
   12MOL0     H 1521   8.985   2.725  10.902 -0.4581 -0.4408 -2.9910
   12MOL0     H 1522   9.047   2.577  10.821 -2.5995 -3.9090  0.5834
   12MOL0     H 1523   9.142   2.505  11.047 -1.3214  0.0123 -1.3826
   12MOL0     H 1524   9.095   2.677  11.101 -2.6501  0.1841  0.2454
   12MOL0     H 1525   9.298   2.591  10.881  0.3616  0.9761 -1.4668
   12MOL0     H 1526   9.339   2.647  11.048  0.1831  1.9414  0.3701
   12MOL0     H 1527   9.382   2.819  10.903  1.2045  2.6515  1.7915
   12MOL0     H 1528   9.208   2.844  10.879  2.4907  3.1454 -0.5453
   12MOL0     H 1529   9.342   2.843  11.146  1.4237  1.6967  0.1673
   12MOL0     H 1530   9.172   2.870  11.130  1.0774 -4.0952  1.3796
   12MOL0     H 1531   9.362   3.060  10.982  0.8974  0.2609  1.0773
   12MOL0     H 1532   9.307   3.069  11.153 -1.7931 -1.6909  1.3607
   12MOL0     H 1533   9.178   3.199  10.960 -2.3314  1.1382 -0.4657
   12MOL0     H 1534   9.118   3.055  10.905  0.5881  3.7887 -2.2816
   12MOL0     H 1535   9.052   3.237  11.121  0.7954  0.8242 -4.0703
   12MOL0     H 1536   9.041   3.063  11.176 -2.5609 -2.6900 -1.7103
   12MOL0     H 1537   8.909   3.316  10.920  1.2119  0.3702  2.7550
   12MOL0     H 1538   8.602   3.297  10.828 -0.8411 -0.3225  0.7641
   12MOL0     H 1539   8.584   3.125  10.763  1.1848 -0.9875  2.1784
   12MOL0     H 1540   8.785   3.181  10.614 -0.7912 -0.6851 -0.9920
   12MOL0     H 1541   8.790   3.348  10.662  1.2829 -0.3368 -0.4946
   12MOL0     H 1542   8.642   3.304  10.447 -3.3408 -2.2150 -2.3204
   12MOL0     H 1543   8.530   3.207  10.539  1.6245 -1.4571 -0.4108
   12MOL0     H 1544   8.607   3.482  10.640  1.7109 -2.8190  0.7314
   12MOL0     H 1545   8.458   3.394  10.661 -0.7094  0.7191 -0.8227
   12MOL0     H 1546   8.291   3.270  10.556 -2.1586 -1.8815 -0.8617
   12MOL0     H 1547   8.153   3.162  10.419 -0.6111 -0.8117 -2.7862
   12MOL0     H 1548   7.883   3.150   9.984 -1.4163 -2.0986 -3.3072
   12MOL0     H 1549   7.676   3.045   9.928  0.1898  1.1655  0.3780
   12MOL0     H 1550   7.489   2.954   9.917 -1.2632  0.6050  0.0856
   12MOL0     H 1551   7.418   3.006  10.073 -2.2066 -1.1899  0.8143
   12MOL0     H 1552   7.291   2.794  10.078 -0.2266 -0.5811 -1.2572
   12MOL0     H 1553   7.369   2.746   9.928 -1.9273 -1.2698 -0.1690
   12MOL0     H 1554   7.277   2.959   9.834  0.0439 -0.9782  0.5025
   12MOL0     H 1555   7.173   2.988   9.963 -0.9245  1.5699 -1.4961
   12MOL0     H 1556   7.180   2.723   9.836 -2.1787 -1.4645  2.9848
   12MOL0     H 1557   7.027   2.787   9.903  0.3459  0.7284  1.0064
   12MOL0     H 1558   7.156   2.874   9.637 -0.0808  0.3069 -0.7983
   12MOL0     H 1559   7.007   2.948   9.719  2.7026  1.8623  5.1717
   12MOL0     H 1560   6.916   2.716   9.702  2.4359 -2.2424  1.2460
   12MOL0     H 1561   7.055   2.661   9.619 -1.7730 -0.8999  2.5289
   12MOL0     H 1562   6.988   2.884   9.462 -0.4060 -0.1040  0.6254
   12MOL0     H 1563   6.938   2.713   9.438  1.6999 -0.6311  0.1507
   12MOL0     H 1564   6.779   2.924   9.594  1.0596  0.4165 -0.1745
   12MOL0     H 1565   6.718   2.751   9.539  0.8339 -0.4844  0.4995
   12MOL0     H 1566   7.703   2.809  10.283 -0.3179 -0.2700  0.2453
   12MOL0     H 1567   7.898   2.925  10.347 -2.7138  2.1054  2.2611
   12MOL0     H 1568   8.259   3.414  10.087 -1.5435  2.0386  1.0019
   12MOL0     H 1569   8.410   3.541  10.241  2.7454 -1.9353  1.3150
   12MOL0     H 1570   8.825   2.734  10.784  1.5488 -1.0696  0.1903
   12MOL0     H 1571   8.663   2.686  10.599  0.8120  0.5754 -1.0090
   12MOL0     H 1572   8.240   2.183  10.520 -3.9707  0.5480 -1.2106
   12MOL0     H 1573   8.152   2.095  10.322 -1.3403  1.5922  2.5468
   12MOL0     H 1574   8.337   2.187   9.922 -1.1986 -3.2416  1.2825
   12MOL0     H 1575   8.205   2.324   9.925 -0.6773 -0.5556  1.7091
   12MOL0     H 1576   8.157   2.027   9.874 -1.0135  0.4727  0.1729
   12MOL0     H 1577   8.051   2.170   9.888  1.6312  2.2058  1.8903
   12MOL0     H 1578   8.167   2.070   9.646 -1.7234 -1.3194  1.2029
   12MOL0     H 1579   8.295   2.168   9.695  0.0668  0.5097 -0.3961
   12MOL0     H 1580   8.085   2.256   9.539 -0.2908 -3.5218  0.8761
   12MOL0     H 1581   8.019   2.305   9.702  2.6820  2.2663  2.5349
   12MOL0     H 1582   8.345   2.556   9.600  2.3013 -4.4715 -5.0660
   12MOL0     H 1583   8.356   2.373  10.080 -1.9027  0.5017 -0.0640
   12MOL0     H 1584   8.482   2.465  10.289  0.7158 -0.1008 -0.2099
   13MOL0     O 1585   5.991   3.958   7.258  0.3922 -0.8747  0.9896
   13MOL0     C 1586   6.090   3.890   7.239  1.2257  1.3275  0.5485
   13MOL0     O 1587   6.139   3.849   7.111  0.2111  0.2292 -0.0895
   13MOL0     C 1588   6.094   3.915   6.998 -1.1693 -0.1876  0.7786
   13MOL0     C 1589   6.061   4.056   6.996 -0.4902  0.2107  1.1579
   13MOL0     C 1590   6.016   4.112   6.873  1.0083 -0.6510 -0.4884
   13MOL0     C 1591   6.014   4.041   6.751  0.1268 -0.8363  0.9038
   13MOL0     O 1592   5.952   4.105   6.643  0.3436  0.2093 -0.8944
   13MOL0     C 1593   5.972   4.056   6.508  0.2689  0.0472 -0.1009
   13MOL0     C 1594   5.912   4.159   6.410 -0.1660 -0.0035 -0.2540
   13MOL0     C 1595   5.947   4.126   6.266 -0.7903 -0.1999  0.1112
   13MOL0     C 1596   5.864   4.010   6.207  0.1373  0.0659 -0.0390
   13MOL0     C 1597   5.868   3.990   6.053 -0.4750  0.3781  0.6755
   13MOL0     C 1598   5.795   3.854   6.026 -0.3018  1.1375  0.4811
   13MOL0     C 1599   5.655   3.844   6.077  0.0613 -0.5068  0.0366
   13MOL0     C 1600   5.579   3.716   6.034  0.8731  0.4671 -0.2438
   13MOL0     N 1601   5.438   3.726   6.063  0.4035 -0.5307 -0.2036
   13MOL0     C 1602   5.352   3.823   6.030 -1.4045  0.7700  0.3440
   13MOL0     C 1603   5.230   3.780   6.067 -0.5474  0.2938  0.3780
   13MOL0     C 1604   5.092   3.843   6.037 -0.2063 -0.2863  0.2764
   13MOL0     C 1605   5.041   3.951   6.137  0.6778  0.6570  0.4766
   13MOL0     C 1606   5.020   3.895   6.278  0.9911 -0.1579 -0.1276
   13MOL0     C 1607   5.017   4.010   6.384  0.6091 -0.3944 -0.1706
   13MOL0     O 1608   5.148   4.061   6.398  0.1494 -0.4685  0.9309
   13MOL0     C 1609   5.212   4.031   6.513 -0.8918  0.0165 -0.3583
   13MOL0     C 1610   5.235   3.907   6.571 -0.8783  0.0075 -0.8090
   13MOL0     C 1611   5.298   3.893   6.701  0.0304 -0.5261  0.6720
   13MOL0     C 1612   5.352   4.014   6.755  0.0804  0.1891 -1.0421
   13MOL0     C 1613   5.424   4.003   6.890  0.7160  1.4324  0.0341
   13MOL0     O 1614   5.429   3.881   6.949  0.0127 -0.5321 -0.1920
   13MOL0     C 1615   5.484   3.872   7.073  0.1358 -0.4774 -0.3648
   13MOL0     C 1616   5.394   3.826   7.175  0.4316  0.4183  0.3190
   13MOL0     C 1617   5.431   3.822   7.301 -0.2597 -0.0489  0.0492
   13MOL0     C 1618   5.561   3.856   7.337  0.0648 -0.3394  0.7890
   13MOL0     O 1619   5.587   3.842   7.468  0.0019 -0.1279 -0.3249
   13MOL0     C 1620   5.722   3.830   7.512  0.2981 -0.4859  0.7085
   13MOL0     C 1621   5.715   3.771   7.653  0.0498 -0.2269  0.7454
   13MOL0     C 1622   5.851   3.730   7.706  0.2136 -0.4511 -0.2064
   13MOL0     C 1623   5.851   3.676   7.860  0.4226  0.1251  0.8482
   13MOL0     C 1624   5.988   3.645   7.912  0.3687 -0.1896 -0.1455
   13MOL0     C 1625   6.053   3.551   7.818  0.3656  0.7264  0.5935
   13MOL0     C 1626   6.173   3.481   7.879 -0.4863 -0.3624  0.0858
   13MOL0     C 1627   6.239   3.388   7.779  0.2056  1.0359  0.1097
   13MOL0    Cl 1628   6.302   3.236   7.845  0.2107  0.3418 -0.3483
   13MOL0     C 1629   5.647   3.922   7.249  1.1069  0.1396  0.6924
   13MOL0     C 1630   5.607   3.929   7.118  0.5590 -0.2117  0.0467
   13MOL0     O 1631   5.483   4.100   6.924  0.2761 -0.2224 -0.0561
   13MOL0     C 1632   5.337   4.139   6.703 -0.2953 -0.0821  0.6080
   13MOL0     C 1633   5.259   4.140   6.583  0.3803 -0.2587  0.1649
   13MOL0     N 1634   5.245   3.670   6.141  0.1138  0.0587  0.4639
   13MOL0     N 1635   5.372   3.644   6.135  0.0340  0.1354 -0.2516
   13MOL0     C 1636   6.059   3.907   6.755 -0.3893 -0.4883 -0.6631
   13MOL0     C 1637   6.091   3.836   6.880 -0.7877 -0.0108 -0.4827
   13MOL0     C 1638   6.160   3.846   7.359  0.0440 -0.2055  0.1802
   13MOL0     C 1639   6.149   3.917   7.482  0.0242 -0.9150  0.2172
   13MOL0     C 1640   6.220   3.876   7.592 -0.0216 -1.0411  0.0809
   13MOL0     C 1641   6.274   3.749   7.603 -0.2065  0.2312  0.0573
   13MOL0     O 1642   6.341   3.723   7.716  0.4336 -0.8145  0.6212
   13MOL0     C 1643   6.486   3.713   7.696  0.7654 -1.3634  0.5735
   13MOL0     C 1644   6.558   3.695   7.827  0.1217 -1.2269 -0.2728
   13MOL0     C 1645   6.699   3.670   7.797  0.9011  0.1411 -0.1505
   13MOL0     C 1646   6.721   3.530   7.737 -0.3698 -0.1604  0.3393
   13MOL0     C 1647   6.866   3.497   7.727 -0.6116  0.3028 -0.1471
   13MOL0     C 1648   6.982   3.474   7.718 -0.4883  0.8050  0.6255
   13MOL0     C 1649   6.264   3.667   7.490 -1.1231  0.5194 -0.8905
   13MOL0     C 1650   6.213   3.715   7.369 -0.7441 -0.7416 -0.7684
   13MOL0     H 1651   6.092   4.110   7.084 -1.7585 -0.3322  1.9835
   13MOL0     H 1652   6.015   4.220   6.877  0.4525 -0.6828  1.1177
   13MOL0     H 1653   5.917   3.963   6.495  0.2495 -0.6526  3.6655
   13MOL0     H 1654   6.078   4.045   6.484 -0.0027  0.4114 -1.5669
   13MOL0     H 1655   5.955   4.258   6.429  1.7515 -0.7976 -0.2265
   13MOL0     H 1656   5.806   4.183   6.423  0.6636  3.3779  1.5623
   13MOL0     H 1657   6.052   4.096   6.268 -0.1386  1.9497  0.6013
   13MOL0     H 1658   5.925   4.214   6.205  0.9955 -0.4276 -0.9265
   13MOL0     H 1659   5.897   3.922   6.262 -2.8015 -0.9950  0.2122
   13MOL0     H 1660   5.761   4.025   6.239 -0.4760 -0.2070 -1.7961
   13MOL0     H 1661   5.973   4.001   6.026 -0.5207  1.5035  0.8807
   13MOL0     H 1662   5.813   4.073   6.008 -0.7970  0.0963  0.5441
   13MOL0     H 1663   5.859   3.782   6.077 -0.0655  0.6090 -0.5388
   13MOL0     H 1664   5.791   3.821   5.922 -0.4595 -0.6548  1.0300
   13MOL0     H 1665   5.656   3.837   6.186 -2.1698 -2.0298  0.0319
   13MOL0     H 1666   5.596   3.933   6.050 -1.7248 -1.9356 -1.0383
   13MOL0     H 1667   5.634   3.630   6.074  2.5224  1.4655 -0.2577
   13MOL0     H 1668   5.579   3.712   5.925  0.4788 -1.4248 -0.2083
   13MOL0     H 1669   5.365   3.920   5.982  0.7824 -0.3054 -1.4461
   13MOL0     H 1670   5.015   3.767   6.020 -2.3802  1.7295  0.6728
   13MOL0     H 1671   5.109   3.900   5.945 -0.2985  1.6745  1.4261
   13MOL0     H 1672   4.946   3.985   6.096  1.6041 -0.2490 -2.6626
   13MOL0     H 1673   5.121   4.026   6.143  0.3545  1.1231 -0.7535
   13MOL0     H 1674   4.929   3.835   6.277  1.4366 -0.8384 -0.7122
   13MOL0     H 1675   5.095   3.826   6.318 -0.5474 -2.4740 -1.0215
   13MOL0     H 1676   4.978   3.978   6.481 -0.7390 -2.3239 -1.2751
   13MOL0     H 1677   4.946   4.084   6.346  0.4301 -0.8493 -0.7546
   13MOL0     H 1678   5.196   3.820   6.519 -3.1164 -0.2205  1.0891
   13MOL0     H 1679   5.304   3.796   6.749 -3.7115 -1.0911  0.2610
   13MOL0     H 1680   5.300   3.790   7.136  0.8180  0.3713 -0.6094
   13MOL0     H 1681   5.354   3.786   7.369  1.4633 -2.1107  1.0155
   13MOL0     H 1682   5.784   3.920   7.510  3.0574 -2.2657  0.1589
   13MOL0     H 1683   5.778   3.759   7.451 -1.2385  0.6960 -2.2582
   13MOL0     H 1684   5.657   3.678   7.655  0.1616 -0.3639 -1.0027
   13MOL0     H 1685   5.664   3.839   7.722  1.7488  1.5911  0.2946
   13MOL0     H 1686   5.928   3.807   7.696  0.6726 -0.9423 -0.4449
   13MOL0     H 1687   5.893   3.652   7.643  1.2479  1.0355 -1.4306
   13MOL0     H 1688   5.804   3.742   7.935  3.1736  0.5754  2.2856
   13MOL0     H 1689   5.802   3.579   7.866  3.4725 -1.7041 -1.5189
   13MOL0     H 1690   5.977   3.600   8.011 -2.0870  1.4578  0.4268
   13MOL0     H 1691   6.053   3.734   7.913 -0.6008  0.7804 -4.1760
   13MOL0     H 1692   6.086   3.604   7.729 -1.9513 -1.5398 -1.8050
   13MOL0     H 1693   5.984   3.480   7.772 -0.6801  2.9652 -1.5323
   13MOL0     H 1694   6.251   3.547   7.918 -1.2124  0.7046 -0.2283
   13MOL0     H 1695   6.140   3.427   7.968 -1.4737  0.1044  0.0136
   13MOL0     H 1696   6.332   3.431   7.740  0.7501  1.6741  2.0075
   13MOL0     H 1697   6.163   3.363   7.704  0.0583 -1.1361  0.9064
   13MOL0     H 1698   5.739   3.971   7.280  2.4309  2.2255 -5.2125
   13MOL0     H 1699   5.670   3.977   7.043 -2.4294  0.4448 -2.2209
   13MOL0     H 1700   5.387   4.223   6.752  2.1632 -1.7294  1.0880
   13MOL0     H 1701   5.230   4.236   6.541 -0.1008  0.2591  1.6033
   13MOL0     H 1702   6.071   3.850   6.663 -1.6624 -0.3958 -0.8987
   13MOL0     H 1703   6.134   3.737   6.871  0.6895  0.5938 -0.3537
   13MOL0     H 1704   6.093   4.010   7.486  0.0088 -0.8126 -1.5194
   13MOL0     H 1705   6.217   3.934   7.683 -2.3314 -2.9055  1.3184
   13MOL0     H 1706   6.526   3.803   7.648 -0.4892 -0.9984  0.1727
   13MOL0     H 1707   6.499   3.628   7.629  3.0235 -1.4775  1.0530
   13MOL0     H 1708   6.544   3.788   7.883 -1.8875 -2.2426  1.0186
   13MOL0     H 1709   6.505   3.616   7.882 -1.3909  0.9745  1.5887
   13MOL0     H 1710   6.749   3.679   7.894 -1.3254 -2.9366  1.4279
   13MOL0     H 1711   6.741   3.747   7.731 -2.4569  1.3216 -1.0906
   13MOL0     H 1712   6.684   3.453   7.804 -0.4832  1.1083  1.8031
   13MOL0     H 1713   6.675   3.514   7.639  0.2403  1.5226 -0.2641
   13MOL0     H 1714   7.087   3.454   7.717 -0.3952  1.2966  0.0453
   13MOL0     H 1715   6.314   3.572   7.500 -2.1135  0.1655  1.1700
   13MOL0     H 1716   6.219   3.645   7.287 -2.5237 -0.4182 -1.2162
   14MOL0     O 1717   5.879   9.873   9.184  0.4653 -0.3654  0.6139
   14MOL0     C 1718   6.002   9.889   9.168  0.6524 -0.1414 -0.5029
   14MOL0     O 1719   6.091   9.868   9.266  0.5953 -0.3399  0.0009
   14MOL0     C 1720   6.061   9.824   9.398 -0.0592 -0.8432 -0.0325
   14MOL0     C 1721   6.169   9.780   9.477 -0.4662  0.0386 -0.5460
   14MOL0     C 1722   6.158   9.728   9.609 -0.3203 -0.0236 -0.2114
   14MOL0     C 1723   6.028   9.732   9.666  0.3086  0.4855  0.3178
   14MOL0     O 1724   5.983   9.704   9.791  0.3770 -0.3204 -0.1722
   14MOL0     C 1725   6.076   9.684   9.894 -0.4358  0.6510  0.1362
   14MOL0     C 1726   6.016   9.748  10.020 -0.6744 -0.4502 -0.7874
   14MOL0     C 1727   6.000   9.901   9.980  0.2464  0.4285  0.1843
   14MOL0     C 1728   5.941   9.989  10.092 -0.5511 -0.2683 -0.3289
   14MOL0     C 1729   5.796  10.022  10.079 -0.7380 -0.3661 -0.2732
   14MOL0     C 1730   5.723   9.888  10.069  0.1033  0.4124  0.3525
   14MOL0     C 1731   5.575   9.923  10.055  1.0280  0.0795 -0.6028
   14MOL0     C 1732   5.522   9.941   9.911  0.9501 -0.2044  0.5257
   14MOL0     N 1733   5.375   9.934   9.923 -0.2397  0.0655 -0.5513
   14MOL0     C 1734   5.297  10.034   9.978  0.6344 -0.0909  0.3165
   14MOL0     C 1735   5.172   9.981   9.992 -0.7459 -0.3123 -0.0491
   14MOL0     C 1736   5.056  10.050  10.065 -0.2914 -0.2108 -1.1027
   14MOL0     C 1737   4.918   9.972  10.046 -0.6544  0.6561 -0.4247
   14MOL0     C 1738   4.850   9.998   9.912 -0.0982 -1.2961  0.3811
   14MOL0     C 1739   4.764  10.128   9.922 -0.3789 -1.3627 -0.4815
   14MOL0     O 1740   4.696  10.152  10.040 -0.2991 -0.0817 -0.2899
   14MOL0     C 1741   4.567  10.184  10.038  0.3774 -0.4263  0.2644
   14MOL0     C 1742   4.520  10.211  10.165 -0.6220  1.2305 -0.3822
   14MOL0     C 1743   4.391  10.252  10.188  0.0987  1.1589 -0.0196
   14MOL0     C 1744   4.302  10.282  10.081 -0.5357  0.6013  0.4808
   14MOL0     C 1745   4.161  10.318  10.090 -0.8299  0.2676  0.3287
   14MOL0     O 1746   4.105  10.335   9.968 -0.1054 -0.3926 -0.1555
   14MOL0     C 1747   3.983  10.395   9.962 -0.0216 -1.7038 -0.8987
   14MOL0     C 1748   3.879  10.339   9.889  0.1776 -0.5596  1.2055
   14MOL0     C 1749   3.761  10.397   9.869  0.6593 -0.5462  0.9062
   14MOL0     C 1750   3.729  10.520   9.930 -0.0643 -0.3221  0.8154
   14MOL0     O 1751   3.608  10.578   9.904 -0.0837  1.1430 -0.2055
   14MOL0     C 1752   3.490  10.543   9.983  0.8435  0.4320  0.8207
   14MOL0     C 1753   3.488  10.571  10.135  0.1310 -0.4085  0.8400
   14MOL0     C 1754   3.366  10.515  10.201 -0.3527 -0.4639  0.8743
   14MOL0     C 1755   3.331  10.586  10.327  0.0466 -0.3865  0.1868
   14MOL0     C 1756   3.202  10.524  10.385 -0.0456 -0.8455 -0.6838
   14MOL0     C 1757   3.229  10.384  10.438  0.6130 -0.0787 -0.2861
   14MOL0     C 1758   3.124  10.351  10.554 -0.9011 -0.6290 -0.2693
   14MOL0     C 1759   3.168  10.222  10.637  0.8189 -1.1098  0.0657
   14MOL0    Cl 1760   3.202  10.084  10.528  0.2255  0.0048 -0.1923
   14MOL0     C 1761   3.824  10.584  10.012 -0.9349  0.1723 -1.1883
   14MOL0     C 1762   3.950  10.517  10.033 -0.2417 -0.1861 -0.0406
   14MOL0     O 1763   4.105  10.300  10.203  1.0061 -0.5893 -0.7927
   14MOL0     C 1764   4.354  10.260   9.957 -0.4257 -0.2928  0.1416
   14MOL0     C 1765   4.484  10.216   9.926 -0.6908 -0.4632 -0.6272
   14MOL0     N 1766   5.177   9.849   9.942 -0.1424  0.6302  1.2731
   14MOL0     N 1767   5.298   9.822   9.907  0.1081 -0.6897  1.0199
   14MOL0     C 1768   5.913   9.770   9.585 -0.3634 -0.9069  0.3810
   14MOL0     C 1769   5.936   9.826   9.460  0.3723  0.8057 -0.1171
   14MOL0     C 1770   6.055   9.933   9.039  0.4942  0.8703 -0.2061
   14MOL0     C 1771   5.996   9.887   8.921 -0.1365 -0.0547  0.0917
   14MOL0     C 1772   6.054   9.916   8.793 -0.1464  0.0943  0.2513
   14MOL0     C 1773   6.186   9.982   8.785  0.4100 -0.1553 -0.7793
   14MOL0     O 1774   6.232   9.991   8.656  0.3884 -0.0969  0.0297
   14MOL0     C 1775   6.355  10.059   8.635 -0.5778  0.0359  0.2637
   14MOL0     C 1776   6.410  10.057   8.493  0.1123  1.0723 -0.3678
   14MOL0     C 1777   6.304  10.077   8.385 -0.5840  0.8024  0.2600
   14MOL0     C 1778   6.337  10.033   8.248 -0.1247  0.1102  0.5584
   14MOL0     C 1779   6.317  10.135   8.137 -0.2780 -0.4422 -0.5036
   14MOL0     C 1780   6.308  10.223   8.058 -0.0171 -0.4649  0.2209
   14MOL0     C 1781   6.239  10.022   8.914  0.3833 -0.0661  0.8392
   14MOL0     C 1782   6.175   9.994   9.034  0.0031  0.3434  0.1125
   14MOL0     H 1783   6.270   9.790   9.439  0.3914  1.0074  1.7908
   14MOL0     H 1784   6.250   9.710   9.662 -1.5510 -1.7804  1.4398
   14MOL0     H 1785   6.170   9.731   9.868  0.8276 -1.7659  0.0592
   14MOL0     H 1786   6.095   9.578   9.917 -1.5719  0.2573 -0.6401
   14MOL0     H 1787   6.088   9.737  10.101 -0.8710  0.5138 -0.4667
   14MOL0     H 1788   5.918   9.701  10.031 -0.2887 -2.4790 -4.4318
   14MOL0     H 1789   5.940   9.908   9.888  0.5025 -0.1573 -0.0324
   14MOL0     H 1790   6.101   9.938   9.961 -0.3502  2.9262  1.4627
   14MOL0     H 1791   5.958   9.946  10.191 -0.0115 -0.2991 -0.4329
   14MOL0     H 1792   5.998  10.082  10.094  3.3154 -2.3037  4.2021
   14MOL0     H 1793   5.793  10.081   9.986 -0.5918  1.0650  0.5959
   14MOL0     H 1794   5.758  10.080  10.164  1.1622  1.5793 -0.6632
   14MOL0     H 1795   5.724   9.825  10.158 -0.1372 -0.1623 -0.0433
   14MOL0     H 1796   5.761   9.821   9.992 -1.2768  1.3537 -1.2344
   14MOL0     H 1797   5.537   9.829  10.096  1.9373 -1.3535 -2.8821
   14MOL0     H 1798   5.554  10.002  10.128  2.7955  0.2837 -0.2584
   14MOL0     H 1799   5.559   9.858   9.849  0.0471 -2.0558  2.3593
   14MOL0     H 1800   5.559  10.037   9.873 -0.5877 -0.4218 -1.7603
   14MOL0     H 1801   5.329  10.127  10.024  0.5676  0.9505 -1.6313
   14MOL0     H 1802   5.048  10.153  10.030 -0.2638 -0.2968 -1.3632
   14MOL0     H 1803   5.085  10.062  10.169 -4.3038 -0.3727  0.1947
   14MOL0     H 1804   4.844  10.001  10.122 -2.4508 -0.4304 -1.6753
   14MOL0     H 1805   4.942   9.867  10.063 -2.6516 -0.1133 -1.9343
   14MOL0     H 1806   4.930   9.996   9.838  1.3484 -5.1859  1.7698
   14MOL0     H 1807   4.784   9.918   9.875 -1.2160 -1.5602  2.7921
   14MOL0     H 1808   4.696  10.123   9.835 -2.3671  1.4980  0.7190
   14MOL0     H 1809   4.831  10.212   9.900 -2.3539  1.3559  2.8291
   14MOL0     H 1810   4.578  10.181  10.252  2.5434 -0.4528 -2.8540
   14MOL0     H 1811   4.354  10.269  10.288  0.1981 -2.4169  0.7412
   14MOL0     H 1812   3.899  10.243   9.842 -0.7534 -0.7127  1.0995
   14MOL0     H 1813   3.695  10.332   9.812 -1.5959  0.5398  2.1318
   14MOL0     H 1814   3.468  10.440   9.956 -2.5747  1.7166 -2.0942
   14MOL0     H 1815   3.411  10.602   9.935 -0.3182 -2.6302 -1.3375
   14MOL0     H 1816   3.490  10.680  10.149 -1.3639 -0.2790  0.2662
   14MOL0     H 1817   3.576  10.525  10.181  0.7979  0.6956  0.7107
   14MOL0     H 1818   3.390  10.410  10.217 -1.7738 -0.9219  0.1644
   14MOL0     H 1819   3.288  10.530  10.126 -0.2805 -0.5358  0.7847
   14MOL0     H 1820   3.412  10.587  10.401  0.7015  0.8954 -0.5107
   14MOL0     H 1821   3.304  10.688  10.300 -2.2675 -0.4236  2.0480
   14MOL0     H 1822   3.126  10.519  10.306 -0.1922 -1.8002 -0.4970
   14MOL0     H 1823   3.160  10.584  10.466 -0.3896 -4.1970  1.8533
   14MOL0     H 1824   3.325  10.381  10.490  0.8522 -4.5325 -0.6308
   14MOL0     H 1825   3.237  10.311  10.357  4.0659 -0.5216  0.3270
   14MOL0     H 1826   3.129  10.437  10.621 -0.9426 -0.8651  0.0430
   14MOL0     H 1827   3.025  10.354  10.509 -1.2485  2.1341  0.5392
   14MOL0     H 1828   3.103  10.195  10.721 -2.1460  0.7054 -1.4629
   14MOL0     H 1829   3.257  10.257  10.691 -1.3934  2.4387  1.7870
   14MOL0     H 1830   3.809  10.676  10.066 -0.4100 -0.1143 -0.5387
   14MOL0     H 1831   4.023  10.571  10.092 -0.5576  1.0361 -0.7287
   14MOL0     H 1832   4.301  10.284   9.866 -0.0184 -0.5136 -0.1598
   14MOL0     H 1833   4.515  10.193   9.824 -2.0845 -1.8705 -0.7689
   14MOL0     H 1834   5.818   9.789   9.634  1.0750  1.4365  2.5271
   14MOL0     H 1835   5.849   9.870   9.412  0.3924 -0.2542 -1.1560
   14MOL0     H 1836   5.898   9.842   8.934  0.0256 -0.3826  0.1793
   14MOL0     H 1837   5.996   9.879   8.710  0.8426 -1.3161  0.1487
   14MOL0     H 1838   6.438  10.024   8.696  0.3913  2.1130  0.2442
   14MOL0     H 1839   6.336  10.166   8.646  0.6952  0.4370 -1.0696
   14MOL0     H 1840   6.470  10.147   8.482 -1.7747  2.2417 -1.5555
   14MOL0     H 1841   6.459   9.960   8.482 -1.9440 -0.1078  0.2252
   14MOL0     H 1842   6.294  10.185   8.377 -0.2173  0.7530 -1.2500
   14MOL0     H 1843   6.214  10.023   8.418 -1.4808  2.2949  0.3159
   14MOL0     H 1844   6.444  10.008   8.244 -0.1686  0.1415 -1.6950
   14MOL0     H 1845   6.282   9.941   8.224  1.2154 -0.2778 -1.2423
   14MOL0     H 1846   6.299  10.303   7.987 -3.2084 -2.7209 -2.2321
   14MOL0     H 1847   6.336  10.071   8.906  0.1368  0.1230 -2.6114
   14MOL0     H 1848   6.222  10.006   9.131 -1.2909  1.7266  0.6191
   15MOL0     O 1849   0.428   8.782   4.370 -0.0795  1.1532 -0.2111
   15MOL0     C 1850   0.365   8.800   4.264 -0.7030  0.3542 -0.2570
   15MOL0     O 1851   0.226   8.811   4.252  0.4277 -0.1227  0.1926
   15MOL0     C 1852   0.150   8.790   4.358 -0.2991  0.5324 -0.4627
   15MOL0     C 1853   0.158   8.666   4.424  0.4316  0.2016  0.0650
   15MOL0     C 1854   0.074   8.637   4.529  0.1223  0.5122 -0.0662
   15MOL0     C 1855  -0.030   8.730   4.575 -0.1222 -0.3505  0.0966
   15MOL0     O 1856  -0.099   8.716   4.688  0.0854 -0.2256  0.0315
   15MOL0     C 1857  -0.035   8.624   4.777 -0.8427  0.4932  0.1106
   15MOL0     C 1858  -0.093   8.642   4.912  0.1919  0.9545 -0.4959
   15MOL0     C 1859  -0.235   8.580   4.918  0.6673 -0.3562  0.3700
   15MOL0     C 1860  -0.297   8.603   5.054 -1.0664  0.3505 -0.0849
   15MOL0     C 1861  -0.419   8.519   5.079  0.1364 -0.6258 -0.8051
   15MOL0     C 1862  -0.431   8.526   5.229  0.2947 -0.7693 -0.3773
   15MOL0     C 1863  -0.549   8.450   5.293 -0.1455 -0.7639  0.2488
   15MOL0     C 1864  -0.682   8.533   5.304  0.5831 -0.1219  0.9861
   15MOL0     N 1865  -0.798   8.468   5.363 -0.4043  0.6583  0.7440
   15MOL0     C 1866  -0.904   8.549   5.399  1.1100  1.0942  0.6795
   15MOL0     C 1867  -1.006   8.459   5.393  0.2223  0.4045  0.4150
   15MOL0     C 1868  -1.142   8.474   5.445  0.3262  0.0529  0.6695
   15MOL0     C 1869  -1.234   8.508   5.331  0.4689 -1.3514 -0.7780
   15MOL0     C 1870  -1.385   8.515   5.370  0.1618 -0.3131 -0.0948
   15MOL0     C 1871  -1.457   8.593   5.254 -0.6055 -0.5134  0.0983
   15MOL0     O 1872  -1.594   8.620   5.277  0.5978 -0.6217  0.7103
   15MOL0     C 1873  -1.694   8.529   5.291  0.2900 -0.2644  0.3423
   15MOL0     C 1874  -1.683   8.397   5.255 -0.7513  0.4716 -0.8471
   15MOL0     C 1875  -1.788   8.310   5.264 -0.1731 -0.2657 -0.2816
   15MOL0     C 1876  -1.910   8.344   5.321  0.3819  0.5394 -0.2218
   15MOL0     C 1877  -2.022   8.248   5.331  0.7424 -1.0603  0.4854
   15MOL0     O 1878  -1.991   8.111   5.326 -0.2302 -0.6382  0.6111
   15MOL0     C 1879  -2.100   8.026   5.347  0.3571  2.1354 -0.3884
   15MOL0     C 1880  -2.156   8.011   5.476 -0.5179 -0.0022  0.7937
   15MOL0     C 1881  -2.257   7.919   5.499 -0.5318  0.6177  0.5919
   15MOL0     C 1882  -2.303   7.827   5.402 -0.2381  0.4437 -0.5690
   15MOL0     O 1883  -2.410   7.744   5.431  0.8983 -0.0515  0.7761
   15MOL0     C 1884  -2.488   7.683   5.331 -0.5069 -0.2629 -0.3014
   15MOL0     C 1885  -2.566   7.566   5.393  0.3903 -0.6017 -0.3270
   15MOL0     C 1886  -2.642   7.481   5.289 -0.7917 -0.1517 -1.0678
   15MOL0     C 1887  -2.762   7.561   5.237  0.2790 -0.5775  0.8611
   15MOL0     C 1888  -2.808   7.538   5.088  0.1063 -0.2204 -0.3026
   15MOL0     C 1889  -2.865   7.402   5.076  0.3512  0.0818 -0.6622
   15MOL0     C 1890  -2.850   7.345   4.935  0.4728  0.5807  0.0890
   15MOL0     C 1891  -2.708   7.294   4.914  0.0816  0.8852  0.4108
   15MOL0    Cl 1892  -2.691   7.143   4.993 -0.3325 -0.2122 -0.7060
   15MOL0     C 1893  -2.246   7.847   5.269 -0.2394 -0.2870 -0.2449
   15MOL0     C 1894  -2.144   7.940   5.248  0.8349 -0.1464  1.1919
   15MOL0     O 1895  -2.133   8.294   5.360 -0.7171  0.6830  1.1725
   15MOL0     C 1896  -1.923   8.478   5.345 -0.0005  0.5070 -0.6296
   15MOL0     C 1897  -1.823   8.568   5.333  0.0197 -1.2533  0.8368
   15MOL0     N 1898  -0.958   8.332   5.366  0.5371  0.0043  0.0609
   15MOL0     N 1899  -0.829   8.342   5.340 -0.3753  0.2479 -0.2452
   15MOL0     C 1900  -0.040   8.848   4.509  0.0868 -0.0942 -0.4930
   15MOL0     C 1901   0.054   8.881   4.406 -0.4235  0.1429  0.3620
   15MOL0     C 1902   0.446   8.821   4.140  0.7435  0.5628  0.9044
   15MOL0     C 1903   0.590   8.842   4.148  0.6728 -1.1368 -0.5367
   15MOL0     C 1904   0.668   8.869   4.028 -0.1512 -0.6918 -0.2178
   15MOL0     C 1905   0.614   8.857   3.901  0.5936 -0.2785  0.4585
   15MOL0     O 1906   0.709   8.865   3.800 -0.2126  0.0318 -0.5716
   15MOL0     C 1907   0.672   8.873   3.667  0.6306  0.0795 -0.1279
   15MOL0     C 1908   0.631   8.722   3.631 -1.1698 -0.2388 -0.4215
   15MOL0     C 1909   0.731   8.616   3.689  0.8034  0.0205 -1.0804
   15MOL0     C 1910   0.717   8.479   3.622 -0.2577  0.1346  0.0061
   15MOL0     C 1911   0.579   8.434   3.620  0.5818 -0.4953 -0.5022
   15MOL0     C 1912   0.463   8.396   3.632 -0.3213 -0.1768 -0.2853
   15MOL0     C 1913   0.474   8.838   3.893  0.2302  1.0221 -0.2405
   15MOL0     C 1914   0.388   8.810   4.006 -0.9662  0.8326 -0.5985
   15MOL0     H 1915   0.235   8.591   4.403  0.0787 -0.0452 -0.3617
   15MOL0     H 1916   0.116   8.550   4.578 -1.5812  1.5802  3.6122
   15MOL0     H 1917   0.074   8.627   4.784 -0.7254 -1.9790  0.2039
   15MOL0     H 1918  -0.054   8.524   4.736 -0.1511 -0.0402  1.0574
   15MOL0     H 1919  -0.080   8.749   4.935  2.9947  0.8503 -1.1730
   15MOL0     H 1920  -0.033   8.586   4.985 -1.1869  1.9825  1.5096
   15MOL0     H 1921  -0.219   8.475   4.893  1.6499 -0.6952  2.2583
   15MOL0     H 1922  -0.295   8.624   4.837  0.2459  0.9911  1.3709
   15MOL0     H 1923  -0.217   8.574   5.124  1.9215 -1.2251 -3.7894
   15MOL0     H 1924  -0.325   8.708   5.059 -2.5660  0.1183 -2.3706
   15MOL0     H 1925  -0.406   8.419   5.036 -2.3052 -3.1579  3.6588
   15MOL0     H 1926  -0.496   8.574   5.025 -0.6228  0.2342  1.0722
   15MOL0     H 1927  -0.435   8.630   5.263  0.8549 -0.0735 -2.3509
   15MOL0     H 1928  -0.340   8.485   5.275  0.5907  0.6677  0.3766
   15MOL0     H 1929  -0.577   8.364   5.231 -1.3238 -0.5887  0.5174
   15MOL0     H 1930  -0.516   8.424   5.394  2.8026  1.4471 -0.0241
   15MOL0     H 1931  -0.703   8.562   5.201  1.4961 -0.2813  0.7474
   15MOL0     H 1932  -0.660   8.618   5.370 -0.1842 -1.0803  2.5389
   15MOL0     H 1933  -0.923   8.654   5.418 -3.6173  0.6429 -0.4242
   15MOL0     H 1934  -1.139   8.544   5.529 -0.2036 -1.2990  1.8447
   15MOL0     H 1935  -1.180   8.381   5.488 -2.5179  1.9929  2.7404
   15MOL0     H 1936  -1.221   8.429   5.256 -1.5648 -2.7141  0.2003
   15MOL0     H 1937  -1.204   8.604   5.289 -1.0358  0.6131  2.2710
   15MOL0     H 1938  -1.428   8.415   5.380  1.3828 -0.7180  1.3334
   15MOL0     H 1939  -1.394   8.569   5.464 -0.2194  1.3373 -1.0469
   15MOL0     H 1940  -1.450   8.538   5.160  2.4167  0.0387 -0.1041
   15MOL0     H 1941  -1.409   8.688   5.229 -1.4552  0.0788  0.6698
   15MOL0     H 1942  -1.587   8.362   5.219 -1.0312  0.9149 -2.0609
   15MOL0     H 1943  -1.782   8.206   5.234 -2.3685 -0.0793 -1.5572
   15MOL0     H 1944  -2.113   8.061   5.562 -0.3538  1.6124 -0.1881
   15MOL0     H 1945  -2.275   7.903   5.605  3.3989 -0.7431  1.2301
   15MOL0     H 1946  -2.421   7.648   5.251  0.8169  0.8988  0.2682
   15MOL0     H 1947  -2.550   7.758   5.282 -1.1220 -0.4058  0.2558
   15MOL0     H 1948  -2.638   7.605   5.465 -0.1161 -2.4017  0.2081
   15MOL0     H 1949  -2.499   7.509   5.458 -0.4204  0.8658  1.8985
   15MOL0     H 1950  -2.680   7.390   5.337 -0.9169  1.9377  3.2040
   15MOL0     H 1951  -2.576   7.458   5.205  2.1096  1.5681  0.5855
   15MOL0     H 1952  -2.846   7.557   5.307 -0.4284  1.6983  0.2235
   15MOL0     H 1953  -2.735   7.667   5.240  1.4947 -0.2997 -5.6027
   15MOL0     H 1954  -2.722   7.565   5.026  0.3994  1.7224  0.8638
   15MOL0     H 1955  -2.885   7.607   5.052 -1.4221 -2.8065 -2.3434
   15MOL0     H 1956  -2.969   7.386   5.104  0.4115 -2.4826 -1.6097
   15MOL0     H 1957  -2.799   7.339   5.136 -0.1652  0.8800  0.7759
   15MOL0     H 1958  -2.918   7.260   4.925  0.8724  0.1113  1.1096
   15MOL0     H 1959  -2.878   7.421   4.862  1.2333  0.7421 -0.0500
   15MOL0     H 1960  -2.641   7.374   4.948  0.5609  0.7364 -0.1671
   15MOL0     H 1961  -2.696   7.274   4.807  0.1585 -0.6563  0.6796
   15MOL0     H 1962  -2.279   7.800   5.177  1.5701 -0.0675 -1.0496
   15MOL0     H 1963  -2.096   7.945   5.150 -0.4228  0.9267  0.5977
   15MOL0     H 1964  -2.018   8.521   5.373 -0.9864 -0.9486 -1.6570
   15MOL0     H 1965  -1.852   8.672   5.337 -3.9875 -2.0082 -2.3065
   15MOL0     H 1966  -0.094   8.935   4.545 -2.6546 -1.5218 -0.8455
   15MOL0     H 1967   0.041   8.972   4.350  1.3323 -0.4601 -1.1108
   15MOL0     H 1968   0.640   8.863   4.242  1.0115  1.2991 -1.1840
   15MOL0     H 1969   0.771   8.884   4.059 -0.2395 -0.2687 -0.1217
   15MOL0     H 1970   0.754   8.894   3.598 -0.2208 -1.8803 -1.8740
   15MOL0     H 1971   0.594   8.943   3.635  3.1051  2.6276 -0.9407
   15MOL0     H 1972   0.528   8.701   3.662 -1.0840 -2.2788 -1.3407
   15MOL0     H 1973   0.618   8.719   3.522  2.7995 -0.6044 -1.0309
   15MOL0     H 1974   0.714   8.608   3.797  2.3929  1.8636 -0.6401
   15MOL0     H 1975   0.834   8.654   3.690  0.7317  0.4603  2.1510
   15MOL0     H 1976   0.745   8.486   3.516 -1.6356 -0.3097 -0.4019
   15MOL0     H 1977   0.780   8.412   3.681 -0.3797  0.7942  0.9115
   15MOL0     H 1978   0.372   8.341   3.645 -0.7149  0.9847  2.6904
   15MOL0     H 1979   0.428   8.835   3.795 -0.2968 -4.0408 -0.1038
   15MOL0     H 1980   0.294   8.757   3.997 -0.2562 -0.5525 -0.2669
   16MOL0     O 1981   3.045   8.073  11.088  0.2444 -0.2013 -0.6220
   16MOL0     C 1982   3.068   7.963  11.128 -0.3615  0.5006  0.2248
   16MOL0     O 1983   3.185   7.894  11.123  0.1282 -0.5463 -0.2827
   16MOL0     C 1984   3.298   7.935  11.055  0.3807  0.2022  0.1774
   16MOL0     C 1985   3.335   8.067  11.040 -0.3193 -0.3445  0.1985
   16MOL0     C 1986   3.458   8.092  10.974  0.2339 -1.2347 -0.3365
   16MOL0     C 1987   3.540   7.990  10.934  0.3798 -0.0248  0.3338
   16MOL0     O 1988   3.660   8.011  10.871  0.1988  0.0261 -0.6170
   16MOL0     C 1989   3.684   8.122  10.790 -1.0420 -0.2192 -0.6549
   16MOL0     C 1990   3.802   8.101  10.702 -0.5492 -0.2005 -0.3623
   16MOL0     C 1991   3.846   8.219  10.616 -0.2297  0.2262 -0.6906
   16MOL0     C 1992   3.922   8.330  10.693  0.9175 -0.0797  0.0306
   16MOL0     C 1993   3.952   8.445  10.583  0.0035  0.8553  0.4772
   16MOL0     C 1994   4.039   8.564  10.633 -0.1359  0.7623  0.0376
   16MOL0     C 1995   4.191   8.535  10.634  0.2349 -0.6251 -0.5666
   16MOL0     C 1996   4.257   8.520  10.497 -0.4282  0.0221  0.0043
   16MOL0     N 1997   4.243   8.631  10.403 -0.2994  0.6307  0.1549
   16MOL0     C 1998   4.264   8.761  10.416 -0.5116  0.5227 -0.3791
   16MOL0     C 1999   4.280   8.810  10.290 -0.5284 -0.1168  0.1086
   16MOL0     C 2000   4.327   8.946  10.261 -0.5617  0.0910  1.3998
   16MOL0     C 2001   4.216   9.020  10.183 -0.1527 -0.1722 -0.1172
   16MOL0     C 2002   4.094   9.042  10.276  0.2817  1.5639 -0.1875
   16MOL0     C 2003   3.969   9.104  10.202 -0.2271 -0.8188 -0.1675
   16MOL0     O 2004   3.922   9.212  10.276 -0.1104  0.1916  0.0036
   16MOL0     C 2005   3.831   9.185  10.367  0.0028  0.4550 -0.1262
   16MOL0     C 2006   3.872   9.172  10.499  0.1740  0.5325  0.7145
   16MOL0     C 2007   3.782   9.175  10.600  0.1019  0.4579  0.0111
   16MOL0     C 2008   3.641   9.191  10.577  0.5270  0.1223  0.0060
   16MOL0     C 2009   3.529   9.175  10.684 -0.5995 -0.1511 -0.0336
   16MOL0     O 2010   3.417   9.104  10.641 -0.5545 -0.5431  0.6801
   16MOL0     C 2011   3.318   9.082  10.720 -0.6221 -0.4332 -1.2078
   16MOL0     C 2012   3.258   8.957  10.734  1.2312 -0.6730 -0.8756
   16MOL0     C 2013   3.140   8.935  10.815 -1.1077 -0.8730  0.1705
   16MOL0     C 2014   3.078   9.049  10.870  0.6164 -0.8662  0.4988
   16MOL0     O 2015   2.955   9.035  10.932  0.0561  0.1922  0.2995
   16MOL0     C 2016   2.870   8.924  10.908  0.5823  0.5558 -0.2071
   16MOL0     C 2017   2.894   8.804  10.999 -0.4703  0.1440 -0.8115
   16MOL0     C 2018   2.780   8.703  10.978  0.3617 -0.0975  0.4866
   16MOL0     C 2019   2.797   8.600  11.083  0.2071  0.0891  1.0240
   16MOL0     C 2020   2.706   8.478  11.050 -0.0239  0.9567  0.3841
   16MOL0     C 2021   2.551   8.501  11.062  0.1475  0.2861  0.5866
   16MOL0     C 2022   2.481   8.363  11.033 -0.2179  0.2837 -0.2992
   16MOL0     C 2023   2.489   8.266  11.152 -1.3299  0.4740  0.0022
   16MOL0    Cl 2024   2.382   8.126  11.152  0.4274  0.3075 -0.1429
   16MOL0     C 2025   3.144   9.165  10.861 -0.1959 -0.0308 -1.0577
   16MOL0     C 2026   3.264   9.190  10.789 -0.6625 -0.9820 -0.4630
   16MOL0     O 2027   3.549   9.211  10.800 -0.3686  0.8114 -0.6089
   16MOL0     C 2028   3.603   9.224  10.448  0.0273 -0.4785  0.4021
   16MOL0     C 2029   3.697   9.203  10.342  0.0102 -0.6325 -0.6079
   16MOL0     N 2030   4.266   8.708  10.202  0.3597  1.4978 -0.5309
   16MOL0     N 2031   4.242   8.600  10.268 -0.6584 -0.4177  0.6746
   16MOL0     C 2032   3.501   7.858  10.948 -0.8793  0.3550 -0.9931
   16MOL0     C 2033   3.376   7.833  11.009 -0.1081 -0.6313 -0.3994
   16MOL0     C 2034   2.961   7.896  11.205  0.2733  0.3178  0.4411
   16MOL0     C 2035   2.980   7.770  11.261 -0.7181 -0.9074 -0.2103
   16MOL0     C 2036   2.877   7.709  11.335 -0.8282  0.8481 -0.6368
   16MOL0     C 2037   2.751   7.760  11.345  0.7029  0.2607  0.2200
   16MOL0     O 2038   2.646   7.690  11.405 -0.0952 -0.1362 -0.0708
   16MOL0     C 2039   2.551   7.755  11.492 -0.0248 -0.0547 -0.1269
   16MOL0     C 2040   2.417   7.692  11.457  0.4527  0.4519 -0.2251
   16MOL0     C 2041   2.382   7.680  11.304  0.4213 -0.0641  0.4503
   16MOL0     C 2042   2.242   7.617  11.272  0.3185 -0.1093 -0.9447
   16MOL0     C 2043   2.215   7.616  11.129  0.3013  0.1828  0.4045
   16MOL0     C 2044   2.189   7.617  11.008 -0.6880  0.8281 -0.0291
   16MOL0     C 2045   2.726   7.886  11.282 -0.4901  0.3948  0.5372
   16MOL0     C 2046   2.830   7.949  11.209 -0.9436  0.3944  0.0301
   16MOL0     H 2047   3.282   8.155  11.075 -0.5278 -1.0033  1.6299
   16MOL0     H 2048   3.480   8.197  10.956  1.2025 -1.8074 -2.9886
   16MOL0     H 2049   3.696   8.215  10.846 -1.6683 -2.5968  3.9226
   16MOL0     H 2050   3.598   8.127  10.723 -0.8596 -2.5155 -1.1642
   16MOL0     H 2051   3.770   8.019  10.637 -2.0984  0.1847 -0.1306
   16MOL0     H 2052   3.883   8.076  10.770 -0.9470 -0.4461  0.0295
   16MOL0     H 2053   3.758   8.273  10.580 -0.2535  0.8001  0.1882
   16MOL0     H 2054   3.912   8.190  10.533  0.0708 -0.6680 -0.1470
   16MOL0     H 2055   3.861   8.373  10.773  0.5803 -2.8233  1.3912
   16MOL0     H 2056   4.019   8.302  10.735  0.6073 -2.0296 -0.4173
   16MOL0     H 2057   3.860   8.497  10.554  0.8170  4.4164  3.4377
   16MOL0     H 2058   4.004   8.405  10.496 -1.6316 -3.1597  1.1198
   16MOL0     H 2059   3.999   8.581  10.733 -0.6909 -1.1351  0.1780
   16MOL0     H 2060   4.019   8.655  10.575 -0.3677 -0.5152 -1.9991
   16MOL0     H 2061   4.246   8.605  10.697 -0.2297 -0.8497  0.1027
   16MOL0     H 2062   4.199   8.441  10.690  0.5218  0.4349  1.2282
   16MOL0     H 2063   4.230   8.421  10.459  1.0501 -0.1820 -0.5846
   16MOL0     H 2064   4.365   8.519  10.513  0.1627  1.5191 -3.1885
   16MOL0     H 2065   4.284   8.809  10.512  4.0944  1.0036 -1.3870
   16MOL0     H 2066   4.416   8.969  10.202  0.0942  1.2147  2.7968
   16MOL0     H 2067   4.352   8.998  10.353  1.0790  0.3761  0.8208
   16MOL0     H 2068   4.201   8.966  10.089 -0.1275  0.3916 -0.4478
   16MOL0     H 2069   4.246   9.116  10.140 -0.3070  0.4249  1.0703
   16MOL0     H 2070   4.055   8.946  10.311 -0.8753  2.0976  0.0266
   16MOL0     H 2071   4.135   9.097  10.361  2.8248 -2.8174  1.7352
   16MOL0     H 2072   3.899   9.020  10.196  1.6044 -2.3930 -0.9423
   16MOL0     H 2073   3.991   9.148  10.104  0.5839  0.3726  0.5243
   16MOL0     H 2074   3.978   9.172  10.526 -0.5338 -1.3557  4.1268
   16MOL0     H 2075   3.802   9.153  10.704 -3.0974  1.0742  0.8571
   16MOL0     H 2076   3.291   8.875  10.672 -2.5891 -1.3839 -2.2067
   16MOL0     H 2077   3.111   8.830  10.826 -0.4680 -1.0752 -0.0370
   16MOL0     H 2078   2.887   8.893  10.804  3.8668  1.1360  0.0317
   16MOL0     H 2079   2.766   8.956  10.909  0.7078  0.9667  0.0963
   16MOL0     H 2080   2.898   8.824  11.106 -0.7690 -3.5446 -0.0117
   16MOL0     H 2081   2.994   8.760  10.991 -0.9066 -0.6104 -2.8176
   16MOL0     H 2082   2.790   8.654  10.881  2.3623 -2.4666  1.7583
   16MOL0     H 2083   2.684   8.750  10.999  0.7014  1.1265 -0.5585
   16MOL0     H 2084   2.899   8.559  11.090 -0.3890 -1.4301  1.2485
   16MOL0     H 2085   2.778   8.637  11.184  2.1778  0.9193  1.1393
   16MOL0     H 2086   2.725   8.403  11.128  1.7753  1.6946  0.7122
   16MOL0     H 2087   2.721   8.437  10.950 -0.3067  1.9363 -0.0712
   16MOL0     H 2088   2.528   8.581  10.991 -1.4463  0.2397  1.0186
   16MOL0     H 2089   2.527   8.530  11.165  1.8067  0.8057  0.8729
   16MOL0     H 2090   2.373   8.384  11.028 -0.0878  1.1252  0.2136
   16MOL0     H 2091   2.503   8.318  10.936  0.2624 -0.0968 -0.0195
   16MOL0     H 2092   2.464   8.323  11.242 -2.1319  0.3413 -0.1235
   16MOL0     H 2093   2.593   8.234  11.165 -0.3287  3.2287 -0.5213
   16MOL0     H 2094   3.108   9.246  10.924  0.0573 -1.2345  0.7236
   16MOL0     H 2095   3.289   9.295  10.796 -2.1949 -0.6729  1.8178
   16MOL0     H 2096   3.498   9.233  10.423  0.6629  0.1344 -2.4829
   16MOL0     H 2097   3.673   9.232  10.240 -2.3757  0.8424  0.2819
   16MOL0     H 2098   3.553   7.775  10.900 -1.3127 -1.0541  0.8525
   16MOL0     H 2099   3.338   7.732  11.010  0.5507 -0.8857  0.3076
   16MOL0     H 2100   3.077   7.725  11.239 -0.9739 -1.8497  0.5434
   16MOL0     H 2101   2.895   7.619  11.393 -0.8077  1.3046  0.0759
   16MOL0     H 2102   2.545   7.861  11.469  1.0451  0.9758  3.6086
   16MOL0     H 2103   2.568   7.745  11.600 -2.3190 -0.7495  0.2246
   16MOL0     H 2104   2.406   7.590  11.494  0.0634 -0.0519 -1.6581
   16MOL0     H 2105   2.333   7.738  11.509 -0.6888  0.1959 -1.7818
   16MOL0     H 2106   2.463   7.633  11.247  0.6548 -1.3579  1.7931
   16MOL0     H 2107   2.372   7.783  11.269  3.0674 -0.4483 -1.7280
   16MOL0     H 2108   2.234   7.513  11.303 -1.5553  0.2387 -0.1300
   16MOL0     H 2109   2.168   7.677  11.326  3.1659  0.7696  2.2989
   16MOL0     H 2110   2.183   7.616  10.901 -1.9442 -1.1274 -0.0053
   16MOL0     H 2111   2.638   7.948  11.292 -0.5088  0.1504  2.3963
   16MOL0     H 2112   2.816   8.045  11.161  0.4953 -0.5174 -2.4132
   17MOL0     O 2113   8.818  10.855   7.419 -0.5994 -0.5624 -0.2338
   17MOL0     C 2114   8.784  10.933   7.332  0.3661  0.0375 -0.3441
   17MOL0     O 2115   8.660  10.958   7.286 -0.0876 -0.0540 -0.3058
   17MOL0     C 2116   8.550  10.902   7.356 -0.9626 -0.8992  0.5859
   17MOL0     C 2117   8.538  10.874   7.493  0.4020 -0.3056  0.4488
   17MOL0     C 2118   8.424  10.815   7.550 -1.5728 -0.0386  0.3007
   17MOL0     C 2119   8.316  10.781   7.474  0.4079 -0.1706 -0.0233
   17MOL0     O 2120   8.213  10.702   7.531  0.1001 -0.2237  0.1550
   17MOL0     C 2121   8.105  10.651   7.450  0.1391  0.1357 -0.7835
   17MOL0     C 2122   7.977  10.742   7.450 -0.6486  1.0115  0.4439
   17MOL0     C 2123   7.952  10.800   7.591  0.3884  0.4406 -0.2455
   17MOL0     C 2124   7.960  10.687   7.700 -0.6043  0.0947  0.1699
   17MOL0     C 2125   7.887  10.732   7.829 -0.5465 -0.8425  0.6847
   17MOL0     C 2126   7.857  10.626   7.931 -1.3728 -0.6369  0.0058
   17MOL0     C 2127   7.992  10.562   7.975  0.3622 -0.1940  0.4250
   17MOL0     C 2128   7.950  10.457   8.079  0.3578 -0.0221 -0.9171
   17MOL0     N 2129   7.910  10.507   8.212  0.1837 -0.2714  0.8886
   17MOL0     C 2130   7.905  10.639   8.250 -0.4326  0.0300 -0.4183
   17MOL0     C 2131   7.878  10.627   8.383  0.8992  0.1881  0.2489
   17MOL0     C 2132   7.855  10.732   8.483  0.0046 -0.7789  0.7640
   17MOL0     C 2133   7.779  10.848   8.435 -0.2296 -1.2643  0.1307
   17MOL0     C 2134   7.805  10.963   8.532 -0.6540 -0.2808  0.6173
   17MOL0     C 2135   7.744  11.105   8.495  0.6687 -1.1688 -0.7842
   17MOL0     O 2136   7.601  11.104   8.518 -0.2009 -0.2389  1.0064
   17MOL0     C 2137   7.545  11.227   8.535  0.7544 -0.3357 -0.2811
   17MOL0     C 2138   7.592  11.357   8.501 -0.5802  0.5172  0.0306
   17MOL0     C 2139   7.512  11.472   8.510 -0.5414  0.6568  0.0934
   17MOL0     C 2140   7.384  11.468   8.566 -0.0122 -0.5816  0.4605
   17MOL0     C 2141   7.299  11.587   8.577  0.2299  0.2662  0.2778
   17MOL0     O 2142   7.359  11.704   8.542 -0.4611 -0.3723  0.1648
   17MOL0     C 2143   7.307  11.827   8.584  0.6709 -0.1696 -0.4631
   17MOL0     C 2144   7.243  11.903   8.487  0.2598  0.3430  0.4857
   17MOL0     C 2145   7.180  12.023   8.528 -0.8048  0.2028  0.9825
   17MOL0     C 2146   7.184  12.064   8.657  0.0103  1.1208 -0.5808
   17MOL0     O 2147   7.113  12.184   8.676  0.1513  0.1622 -0.3677
   17MOL0     C 2148   7.124  12.247   8.801 -0.7410 -0.4113  0.2797
   17MOL0     C 2149   7.069  12.185   8.931  0.7038  0.9304  0.9409
   17MOL0     C 2150   6.939  12.096   8.893  0.3118 -0.3071 -0.3372
   17MOL0     C 2151   6.842  12.083   9.014 -1.7298 -0.0590 -0.7098
   17MOL0     C 2152   6.729  11.988   8.971  0.6737  0.0927 -0.1321
   17MOL0     C 2153   6.602  11.985   9.062 -0.5679 -0.2874 -0.2237
   17MOL0     C 2154   6.637  12.004   9.211  0.3045 -0.2734 -0.1905
   17MOL0     C 2155   6.509  11.988   9.302 -0.3080  0.2519 -0.2392
   17MOL0    Cl 2156   6.416  12.138   9.288 -0.2438 -0.7209 -0.2901
   17MOL0     C 2157   7.259  11.990   8.755 -0.2279 -0.5262 -0.1465
   17MOL0     C 2158   7.325  11.871   8.712 -0.3747 -0.0270  0.4818
   17MOL0     O 2159   7.189  11.580   8.627  0.0106 -0.9212  0.0133
   17MOL0     C 2160   7.334  11.339   8.595 -1.1230  0.9729  0.4786
   17MOL0     C 2161   7.411  11.218   8.578 -0.5307 -0.6690 -0.9266
   17MOL0     N 2162   7.862  10.496   8.427 -1.1004 -0.2642 -0.5840
   17MOL0     N 2163   7.895  10.427   8.322  0.2507 -0.5220  0.4753
   17MOL0     C 2164   8.330  10.815   7.337  0.2465  0.6651 -0.4550
   17MOL0     C 2165   8.439  10.876   7.280  0.2307 -0.1063  0.1168
   17MOL0     C 2166   8.893  11.011   7.262 -0.8720 -0.5401  0.4039
   17MOL0     C 2167   8.864  11.115   7.171 -0.3079 -0.6634 -0.3365
   17MOL0     C 2168   8.956  11.183   7.094  0.4229 -0.7301  0.3807
   17MOL0     C 2169   9.091  11.152   7.113  0.5182  0.0755 -0.0618
   17MOL0     O 2170   9.194  11.214   7.043 -0.0350 -0.5525  0.4805
   17MOL0     C 2171   9.223  11.351   7.081  0.0861 -0.0539  0.1072
   17MOL0     C 2172   9.367  11.379   7.068  0.2492 -0.2748 -0.2194
   17MOL0     C 2173   9.463  11.265   7.123  0.5891 -0.4021 -0.1648
   17MOL0     C 2174   9.493  11.295   7.276 -0.6484  0.9754 -0.9740
   17MOL0     C 2175   9.381  11.270   7.358  0.2591 -0.0887 -0.3814
   17MOL0     C 2176   9.286  11.234   7.425  0.6577 -0.1862 -0.3120
   17MOL0     C 2177   9.120  11.034   7.194 -0.8288 -0.9905 -0.6411
   17MOL0     C 2178   9.022  10.970   7.266 -0.4963  0.5717  0.6970
   17MOL0     H 2179   8.613  10.899   7.568 -1.1483 -1.4391  2.4748
   17MOL0     H 2180   8.430  10.800   7.657 -2.5291  0.6951  0.4740
   17MOL0     H 2181   8.083  10.553   7.494 -0.8406  1.7733  2.7171
   17MOL0     H 2182   8.135  10.622   7.349  0.1782 -4.9500  0.4023
   17MOL0     H 2183   7.891  10.682   7.420  0.6546  0.3708 -2.2689
   17MOL0     H 2184   7.999  10.829   7.388 -0.3698  0.3451 -0.4081
   17MOL0     H 2185   7.853  10.842   7.608  0.0677 -1.0835  2.2873
   17MOL0     H 2186   8.023  10.880   7.616  1.6409 -1.2373  1.9376
   17MOL0     H 2187   7.911  10.597   7.662  0.3371 -1.0888  1.6464
   17MOL0     H 2188   8.057  10.649   7.732 -2.2925 -1.9031  3.5381
   17MOL0     H 2189   7.791  10.772   7.796 -1.5529 -1.3356  2.8280
   17MOL0     H 2190   7.940  10.821   7.861 -2.3045  1.1812 -1.6708
   17MOL0     H 2191   7.790  10.548   7.894  0.4947 -0.5788 -4.0433
   17MOL0     H 2192   7.803  10.685   8.005 -0.4520  0.7140 -0.3540
   17MOL0     H 2193   8.058  10.517   7.900  0.8957 -2.4232  2.1166
   17MOL0     H 2194   8.047  10.643   8.024 -0.3709 -2.2244  5.1902
   17MOL0     H 2195   8.029  10.388   8.110  1.5816  1.6809 -0.0670
   17MOL0     H 2196   7.871  10.391   8.042 -0.5852  0.6971 -0.2472
   17MOL0     H 2197   7.928  10.736   8.207 -0.3724  0.0070 -0.4351
   17MOL0     H 2198   7.959  10.760   8.503 -0.8336  1.8464  1.8801
   17MOL0     H 2199   7.816  10.688   8.576 -0.4665 -2.9253 -0.3809
   17MOL0     H 2200   7.670  10.833   8.436 -0.4978  0.1909  2.7177
   17MOL0     H 2201   7.815  10.890   8.340  0.9787  1.6540  1.7482
   17MOL0     H 2202   7.779  10.941   8.636  0.0629  0.3024  0.9333
   17MOL0     H 2203   7.911  10.990   8.531  0.2877 -3.4778 -1.8114
   17MOL0     H 2204   7.749  11.127   8.388 -0.9613  1.6782 -0.3722
   17MOL0     H 2205   7.792  11.186   8.550  0.1691 -1.1378 -0.3852
   17MOL0     H 2206   7.692  11.355   8.460 -1.3238 -0.0255 -1.8902
   17MOL0     H 2207   7.561  11.567   8.488 -1.2390  1.3079  1.2289
   17MOL0     H 2208   7.230  11.856   8.390  1.7496  0.6123  0.1307
   17MOL0     H 2209   7.129  12.083   8.453 -0.7276  2.5576  2.6991
   17MOL0     H 2210   7.065  12.338   8.788 -1.5739 -0.9510  0.2009
   17MOL0     H 2211   7.228  12.273   8.822 -0.5147  0.0846 -1.3694
   17MOL0     H 2212   7.027  12.276   8.976 -0.1381  1.6646 -1.1710
   17MOL0     H 2213   7.140  12.130   8.993 -0.1539 -1.3122  0.0326
   17MOL0     H 2214   6.981  12.000   8.864 -1.0843 -1.2971  0.7722
   17MOL0     H 2215   6.892  12.132   8.801  2.8754  0.2888 -1.5057
   17MOL0     H 2216   6.883  12.042   9.106 -0.8324  0.7637 -0.7323
   17MOL0     H 2217   6.798  12.178   9.046  0.2004  0.8769 -0.7185
   17MOL0     H 2218   6.763  11.885   8.961 -2.1436 -0.8319 -0.8821
   17MOL0     H 2219   6.687  12.021   8.875 -2.2415 -0.9341  0.6756
   17MOL0     H 2220   6.570  11.881   9.056  1.6070 -1.4681  4.1091
   17MOL0     H 2221   6.529  12.060   9.028 -1.4410 -0.5284  1.0346
   17MOL0     H 2222   6.712  11.932   9.245  1.8817  1.1004 -0.6507
   17MOL0     H 2223   6.680  12.104   9.224  1.7199 -0.7682 -0.9366
   17MOL0     H 2224   6.556  11.967   9.398 -0.4664  1.0045  0.0104
   17MOL0     H 2225   6.458  11.895   9.273  2.6072 -1.5594  0.0291
   17MOL0     H 2226   7.270  12.015   8.860  0.1391  1.6443 -0.6514
   17MOL0     H 2227   7.387  11.814   8.780 -2.7125 -1.5929  1.4343
   17MOL0     H 2228   7.231  11.327   8.626 -0.3658  0.2929  2.9580
   17MOL0     H 2229   7.352  11.127   8.586  0.4538 -1.2587 -0.0881
   17MOL0     H 2230   8.252  10.779   7.270  0.1785  0.7729 -0.4328
   17MOL0     H 2231   8.440  10.896   7.173  1.6049 -1.6626 -0.1979
   17MOL0     H 2232   8.768  11.167   7.164  1.1588  1.9944 -3.2630
   17MOL0     H 2233   8.926  11.266   7.032 -2.5429 -0.2341  2.2623
   17MOL0     H 2234   9.201  11.367   7.187 -0.7505 -0.9181  0.0823
   17MOL0     H 2235   9.161  11.430   7.037 -0.1556 -0.3209 -0.0381
   17MOL0     H 2236   9.394  11.402   6.964 -2.1406 -1.6242 -1.2113
   17MOL0     H 2237   9.394  11.473   7.118  1.7130 -1.2384  0.8941
   17MOL0     H 2238   9.555  11.270   7.064  0.3609  4.3860 -0.5180
   17MOL0     H 2239   9.423  11.164   7.113  1.0822 -0.5821 -0.3132
   17MOL0     H 2240   9.563  11.221   7.314  1.9823  3.1288 -1.3613
   17MOL0     H 2241   9.540  11.393   7.279 -1.2392  1.2454  0.1632
   17MOL0     H 2242   9.214  11.194   7.492  0.1426 -0.7012 -1.1503
   17MOL0     H 2243   9.225  11.007   7.199  0.1308  2.5313  3.6008
   17MOL0     H 2244   9.040  10.887   7.334 -1.4073 -1.5201 -1.4654
   18MOL0     O 2245   6.715   1.883   0.233 -0.0252  0.2835  0.1760
   18MOL0     C 2246   6.771   1.862   0.125 -0.7471 -0.1620  0.1768
   18MOL0     O 2247   6.716   1.863  -0.002  0.2200  0.6854 -0.1289
   18MOL0     C 2248   6.584   1.885  -0.006  0.1863  0.1830  0.4631
   18MOL0     C 2249   6.478   1.798   0.017  0.1594  0.3451  0.3926
   18MOL0     C 2250   6.343   1.833   0.007  0.4915 -0.1672 -0.6508
   18MOL0     C 2251   6.310   1.967  -0.025  0.0428 -0.0839  0.4063
   18MOL0     O 2252   6.187   2.012  -0.027  0.2491 -0.2914  0.0543
   18MOL0     C 2253   6.136   2.060  -0.157  0.2597 -0.2824  0.7866
   18MOL0     C 2254   6.048   1.954  -0.214 -0.0535  0.3680  0.1442
   18MOL0     C 2255   5.920   1.940  -0.131 -0.7678 -0.1673  1.1440
   18MOL0     C 2256   5.818   1.827  -0.194  0.1194 -0.0031  0.3803
   18MOL0     C 2257   5.673   1.841  -0.139 -0.5414 -0.9634 -0.0837
   18MOL0     C 2258   5.647   1.853   0.012  0.0192  0.3739 -1.0656
   18MOL0     C 2259   5.505   1.833   0.068  0.8151 -0.3736  1.1264
   18MOL0     C 2260   5.401   1.949   0.053 -0.1353  0.4509  0.2813
   18MOL0     N 2261   5.446   2.058   0.147 -0.1657 -0.4012  0.1633
   18MOL0     C 2262   5.491   2.182   0.105  0.0429  0.3481  0.0265
   18MOL0     C 2263   5.520   2.250   0.216  0.2672  0.1173 -0.1747
   18MOL0     C 2264   5.570   2.390   0.233  0.5188  0.0829 -0.8786
   18MOL0     C 2265   5.723   2.395   0.270  0.4778 -0.2087  0.3152
   18MOL0     C 2266   5.764   2.493   0.385  0.1511  0.1737 -0.2340
   18MOL0     C 2267   5.742   2.642   0.339  1.3854 -0.9033  0.8168
   18MOL0     O 2268   5.805   2.683   0.211 -0.8219 -0.5951 -0.0335
   18MOL0     C 2269   5.743   2.765   0.121  0.2232  0.3327 -0.5273
   18MOL0     C 2270   5.817   2.887   0.082  0.3191  1.1935  0.4202
   18MOL0     C 2271   5.773   2.983  -0.016 -0.7904  0.7636 -0.6022
   18MOL0     C 2272   5.642   2.957  -0.071 -0.3976 -0.0001 -0.1803
   18MOL0     C 2273   5.606   3.034  -0.192 -0.0270 -0.1667  0.9409
   18MOL0     O 2274   5.472   3.017  -0.227 -0.9048 -1.2850  1.1099
   18MOL0     C 2275   5.420   3.088  -0.330 -0.6443 -0.6904  0.3885
   18MOL0     C 2276   5.447   3.048  -0.464  0.9921 -0.1538 -0.0172
   18MOL0     C 2277   5.398   3.127  -0.570  0.3240  0.2826 -0.0047
   18MOL0     C 2278   5.335   3.248  -0.542  1.0871 -0.4848 -0.2304
   18MOL0     O 2279   5.283   3.344  -0.627  0.7839 -1.0547 -0.2172
   18MOL0     C 2280   5.271   3.301  -0.761 -1.1967 -0.8067 -1.1126
   18MOL0     C 2281   5.170   3.189  -0.792 -0.8217 -0.7265 -0.9747
   18MOL0     C 2282   5.029   3.237  -0.765  0.0874  0.1664  0.6062
   18MOL0     C 2283   4.926   3.130  -0.814 -0.1908  0.0757 -0.8990
   18MOL0     C 2284   4.779   3.167  -0.793  0.0891  0.3611  0.2949
   18MOL0     C 2285   4.763   3.211  -0.652  0.7171 -0.1786 -0.0525
   18MOL0     C 2286   4.615   3.212  -0.630 -0.8625  0.4230  0.5854
   18MOL0     C 2287   4.582   3.244  -0.487  0.4035  1.1164 -0.2463
   18MOL0    Cl 2288   4.632   3.406  -0.432  0.0893  0.6418 -0.3898
   18MOL0     C 2289   5.313   3.290  -0.402  0.8416  0.1128  0.2327
   18MOL0     C 2290   5.354   3.206  -0.305 -0.5956  0.8169  0.5975
   18MOL0     O 2291   5.684   3.112  -0.252  0.0204  0.1289 -0.4213
   18MOL0     C 2292   5.565   2.847  -0.025 -1.1935 -0.7742 -0.3203
   18MOL0     C 2293   5.613   2.755   0.073 -0.4394 -0.8124  0.2031
   18MOL0     N 2294   5.485   2.171   0.320  0.3533  0.5574 -0.4746
   18MOL0     N 2295   5.449   2.048   0.282  0.4490 -0.3012 -0.4042
   18MOL0     C 2296   6.416   2.057  -0.041 -0.0939 -0.0718  0.2931
   18MOL0     C 2297   6.550   2.017  -0.042 -0.3620 -0.0573 -0.4667
   18MOL0     C 2298   6.913   1.844   0.138 -1.2099 -0.0024  1.0444
   18MOL0     C 2299   6.998   1.882   0.030  0.1770  0.6779  0.4444
   18MOL0     C 2300   7.140   1.858   0.045  0.6968 -0.5818 -0.5350
   18MOL0     C 2301   7.196   1.812   0.159  0.2052  0.0174  0.1362
   18MOL0     O 2302   7.328   1.786   0.185 -0.7920  0.8652  0.4335
   18MOL0     C 2303   7.428   1.800   0.088  0.3600 -0.0676 -0.8268
   18MOL0     C 2304   7.549   1.801   0.169 -0.5686  0.5894 -0.4089
   18MOL0     C 2305   7.668   1.874   0.103 -0.0471 -1.1867 -0.7136
   18MOL0     C 2306   7.696   1.831  -0.040  0.7782  0.3097  0.0702
   18MOL0     C 2307   7.656   1.926  -0.141 -0.4217  0.4897 -0.1432
   18MOL0     C 2308   7.614   2.010  -0.225  0.3220 -0.1819  0.1815
   18MOL0     C 2309   7.107   1.780   0.261 -0.0771  0.8184 -0.2088
   18MOL0     C 2310   6.969   1.789   0.251  0.7099 -0.2770  0.1338
   18MOL0     H 2311   6.493   1.695   0.048 -0.7470  0.2480  0.5510
   18MOL0     H 2312   6.264   1.759   0.011 -3.0406  3.2363 -0.5914
   18MOL0     H 2313   6.207   2.072  -0.239 -2.7464 -4.7928 -2.9792
   18MOL0     H 2314   6.079   2.151  -0.137  2.0851  0.6544  1.9528
   18MOL0     H 2315   6.106   1.861  -0.220  1.9262  1.6105 -1.4914
   18MOL0     H 2316   6.015   1.973  -0.316 -3.8548 -1.0492  0.9596
   18MOL0     H 2317   5.885   2.044  -0.134  1.2152  0.6430 -4.1767
   18MOL0     H 2318   5.947   1.913  -0.028  5.2554  0.5103  0.1081
   18MOL0     H 2319   5.813   1.829  -0.303 -1.2443  1.5451  0.4492
   18MOL0     H 2320   5.858   1.729  -0.164 -0.1378 -0.3295 -0.3212
   18MOL0     H 2321   5.606   1.759  -0.168 -2.5776  0.8874 -0.9186
   18MOL0     H 2322   5.635   1.933  -0.185 -0.1730 -1.2240 -0.9369
   18MOL0     H 2323   5.684   1.952   0.041  1.2400  0.2259 -2.0356
   18MOL0     H 2324   5.714   1.778   0.056 -0.1474  1.4170  1.0829
   18MOL0     H 2325   5.466   1.746   0.014  0.7891  0.7668 -0.7797
   18MOL0     H 2326   5.500   1.802   0.173 -0.6966 -1.5444  0.7588
   18MOL0     H 2327   5.297   1.929   0.079 -0.8023  0.3650 -2.1596
   18MOL0     H 2328   5.394   1.994  -0.047 -3.8329 -1.1391 -0.3412
   18MOL0     H 2329   5.505   2.227   0.007  2.6841  3.0033  1.4812
   18MOL0     H 2330   5.509   2.443   0.307 -0.4441 -2.5435  0.3145
   18MOL0     H 2331   5.562   2.435   0.134  1.8126  0.2842 -0.9072
   18MOL0     H 2332   5.785   2.410   0.181  0.2700 -1.6274 -0.0980
   18MOL0     H 2333   5.735   2.292   0.306 -2.8985  0.2324  3.2926
   18MOL0     H 2334   5.714   2.468   0.479  2.8130 -1.7111  0.7909
   18MOL0     H 2335   5.867   2.472   0.414  0.0538 -0.3761 -0.2766
   18MOL0     H 2336   5.780   2.715   0.411 -0.0131 -0.4482  1.1269
   18MOL0     H 2337   5.636   2.668   0.326  1.6698  1.1900  2.2097
   18MOL0     H 2338   5.906   2.888   0.143  0.6471 -1.2776  0.0725
   18MOL0     H 2339   5.836   3.067  -0.042  1.1379 -0.2035  0.6742
   18MOL0     H 2340   5.512   2.962  -0.477  1.2520 -0.0167  0.3470
   18MOL0     H 2341   5.412   3.098  -0.674  1.7174 -0.1660  0.2902
   18MOL0     H 2342   5.367   3.276  -0.807  0.7536  1.2807  1.4886
   18MOL0     H 2343   5.237   3.392  -0.812  2.2530  2.2644  1.4726
   18MOL0     H 2344   5.186   3.100  -0.731  0.2531 -0.2830 -0.5666
   18MOL0     H 2345   5.189   3.168  -0.898  3.6498 -0.6768 -0.4000
   18MOL0     H 2346   5.028   3.321  -0.834  1.0689  0.5006  0.9672
   18MOL0     H 2347   5.016   3.270  -0.661  0.4318 -0.4762  0.8628
   18MOL0     H 2348   4.960   3.101  -0.914 -2.0199 -0.0212 -1.5355
   18MOL0     H 2349   4.947   3.041  -0.754  2.5518  0.7005 -0.7966
   18MOL0     H 2350   4.707   3.089  -0.816  0.5308  0.3033 -0.9489
   18MOL0     H 2351   4.754   3.247  -0.863 -3.4893 -2.2848 -1.7317
   18MOL0     H 2352   4.803   3.313  -0.647  1.0339 -0.1499 -2.3619
   18MOL0     H 2353   4.816   3.149  -0.579 -0.3298  0.8701  1.6710
   18MOL0     H 2354   4.576   3.295  -0.690 -0.3785 -1.2147 -2.1263
   18MOL0     H 2355   4.568   3.118  -0.661  0.7995  0.3773 -2.0557
   18MOL0     H 2356   4.631   3.176  -0.417  0.6135  0.0374 -1.4034
   18MOL0     H 2357   4.473   3.235  -0.475  0.7761 -1.8242  2.0431
   18MOL0     H 2358   5.258   3.381  -0.384 -0.7537 -0.8286  0.3715
   18MOL0     H 2359   5.350   3.252  -0.207 -1.1722  1.7253  0.1661
   18MOL0     H 2360   5.468   2.834  -0.072 -0.0893 -1.2827 -2.5970
   18MOL0     H 2361   5.546   2.675   0.103 -1.3751  0.2380  0.9959
   18MOL0     H 2362   6.383   2.157  -0.070 -3.7412 -1.5611 -1.2309
   18MOL0     H 2363   6.633   2.085  -0.060  0.4509 -1.2065 -1.1935
   18MOL0     H 2364   6.950   1.936  -0.051 -1.2464  2.1455  2.1576
   18MOL0     H 2365   7.196   1.881  -0.045  1.1041  2.9186  0.4459
   18MOL0     H 2366   7.428   1.894   0.033  1.9520  0.1665 -0.4953
   18MOL0     H 2367   7.436   1.716   0.018  0.5803 -0.2478 -0.5879
   18MOL0     H 2368   7.528   1.844   0.267  1.1565  1.3127 -0.3110
   18MOL0     H 2369   7.579   1.698   0.193  2.2628  1.0058 -1.7440
   18MOL0     H 2370   7.753   1.847   0.165  0.4014  2.6956  0.6448
   18MOL0     H 2371   7.653   1.982   0.105  2.2842 -0.8044  1.6927
   18MOL0     H 2372   7.804   1.821  -0.056  0.9766  1.1914  0.7780
   18MOL0     H 2373   7.650   1.734  -0.063 -3.8130  2.6560 -2.0420
   18MOL0     H 2374   7.577   2.088  -0.288 -2.3249 -0.4478  1.2965
   18MOL0     H 2375   7.145   1.750   0.358  1.8699  2.9133 -0.2371
   18MOL0     H 2376   6.899   1.775   0.333 -1.6825  0.1097 -1.7507
   19MOL0     O 2377   6.248   7.796   0.566  0.2527  0.5669 -0.3919
   19MOL0     C 2378   6.286   7.682   0.578  0.2147 -0.1455 -0.7752
   19MOL0     O 2379   6.227   7.582   0.654 -0.6462 -1.3510  0.0709
   19MOL0     C 2380   6.124   7.616   0.737 -1.0441 -0.8122 -0.2545
   19MOL0     C 2381   5.996   7.587   0.709 -0.1837  0.8173  0.0417
   19MOL0     C 2382   5.884   7.640   0.778  0.3302  0.6044 -0.3402
   19MOL0     C 2383   5.904   7.734   0.888  0.2841  0.6029 -0.1981
   19MOL0     O 2384   5.817   7.812   0.963 -0.0489 -0.2653  0.1710
   19MOL0     C 2385   5.673   7.825   0.930 -0.0572  0.8778 -0.7437
   19MOL0     C 2386   5.631   7.960   0.977 -0.6772  0.0123 -0.9341
   19MOL0     C 2387   5.490   7.978   0.949  0.1510 -0.7161  0.5089
   19MOL0     C 2388   5.435   8.111   0.992 -0.5564  0.3106  0.2191
   19MOL0     C 2389   5.283   8.118   0.956  0.0155  0.1653 -0.9359
   19MOL0     C 2390   5.243   8.128   0.813 -0.3487 -0.1408 -0.3086
   19MOL0     C 2391   5.098   8.178   0.798 -0.1099 -0.4959  0.4081
   19MOL0     C 2392   5.001   8.072   0.825 -0.5739 -0.0011 -0.8802
   19MOL0     N 2393   4.866   8.114   0.859 -0.9344  0.9141 -0.8543
   19MOL0     C 2394   4.794   8.212   0.809  0.1917 -0.2543  1.0880
   19MOL0     C 2395   4.681   8.234   0.874  0.3183  0.2211 -0.4413
   19MOL0     C 2396   4.577   8.332   0.853 -0.5485  1.3267  1.0498
   19MOL0     C 2397   4.480   8.359   0.966 -0.1675 -0.0113 -0.3518
   19MOL0     C 2398   4.351   8.430   0.915  0.5863  0.6504 -0.1045
   19MOL0     C 2399   4.255   8.474   1.031 -0.2529  0.1003  0.6127
   19MOL0     O 2400   4.316   8.587   1.095  0.0552 -0.5286 -0.2979
   19MOL0     C 2401   4.226   8.676   1.155  0.3815  0.7086 -0.5583
   19MOL0     C 2402   4.097   8.647   1.203 -1.2483 -0.0353  1.0644
   19MOL0     C 2403   4.009   8.754   1.245 -0.6367  0.6825 -0.0326
   19MOL0     C 2404   4.065   8.874   1.263  0.5849  0.4220 -0.8732
   19MOL0     C 2405   3.975   8.988   1.311  0.0808 -0.4064 -0.5384
   19MOL0     O 2406   4.019   9.113   1.299 -0.0585  0.0184 -0.6025
   19MOL0     C 2407   3.925   9.217   1.278 -1.5841  0.1364 -0.5759
   19MOL0     C 2408   3.927   9.283   1.160 -1.5756  0.6817 -0.0192
   19MOL0     C 2409   3.840   9.394   1.142  0.8121 -0.3922 -0.3284
   19MOL0     C 2410   3.744   9.429   1.238  0.4416  0.6235  0.1298
   19MOL0     O 2411   3.661   9.534   1.201 -0.5069 -0.0755 -0.2821
   19MOL0     C 2412   3.539   9.560   1.273 -0.2904  1.3534  0.7823
   19MOL0     C 2413   3.437   9.459   1.236 -0.5959  0.8405  1.2283
   19MOL0     C 2414   3.301   9.491   1.293  0.1841  0.3666  0.0680
   19MOL0     C 2415   3.185   9.396   1.256 -0.6589 -0.6724 -0.0633
   19MOL0     C 2416   3.076   9.398   1.367  0.2820 -0.2320 -0.5328
   19MOL0     C 2417   2.938   9.359   1.316 -0.2148  0.1128  0.2121
   19MOL0     C 2418   2.924   9.203   1.325 -0.3321 -0.8450  0.2957
   19MOL0     C 2419   2.877   9.149   1.452  0.1147 -0.1737 -0.5151
   19MOL0    Cl 2420   2.807   8.993   1.436 -0.0287 -0.4007  0.1162
   19MOL0     C 2421   3.733   9.357   1.359 -1.2688 -0.2152  1.3586
   19MOL0     C 2422   3.831   9.251   1.375  0.1939 -0.2321 -0.4436
   19MOL0     O 2423   3.893   8.953   1.391  0.3140 -0.9258  0.7261
   19MOL0     C 2424   4.198   8.901   1.224  0.3074 -1.2048  0.5014
   19MOL0     C 2425   4.270   8.798   1.171 -0.1642 -0.6197  0.1683
   19MOL0     N 2426   4.682   8.133   0.971 -0.3987  0.3825 -0.2111
   19MOL0     N 2427   4.788   8.065   0.958 -0.6743  0.4726 -0.5341
   19MOL0     C 2428   6.038   7.765   0.917  0.6613 -0.5388 -0.1975
   19MOL0     C 2429   6.143   7.710   0.838  0.7340 -0.6943  1.0840
   19MOL0     C 2430   6.400   7.625   0.498 -0.2808 -0.6959 -0.0134
   19MOL0     C 2431   6.447   7.700   0.390 -0.0506  0.8565  0.1938
   19MOL0     C 2432   6.562   7.660   0.318  0.1245 -0.3272 -0.1286
   19MOL0     C 2433   6.623   7.537   0.354  0.1628  0.8414 -0.6496
   19MOL0     O 2434   6.735   7.480   0.292  1.5898 -0.2045  0.3295
   19MOL0     C 2435   6.751   7.501   0.153  0.6561  0.0889  0.7649
   19MOL0     C 2436   6.849   7.414   0.085  0.3356  0.7030 -0.1403
   19MOL0     C 2437   6.807   7.264   0.058  0.7875 -0.0180 -0.0704
   19MOL0     C 2438   6.784   7.186   0.182  0.3207  0.3900 -0.2282
   19MOL0     C 2439   6.734   7.057   0.142  0.3236 -0.2182 -0.2135
   19MOL0     C 2440   6.692   6.949   0.115 -0.9659  0.5004  0.0535
   19MOL0     C 2441   6.569   7.458   0.457  0.3242  0.6674 -0.6068
   19MOL0     C 2442   6.455   7.498   0.531 -0.5180 -0.0440  0.6113
   19MOL0     H 2443   5.970   7.513   0.634 -2.3867 -0.4953  1.9513
   19MOL0     H 2444   5.787   7.605   0.746  0.7209  0.4663 -1.3902
   19MOL0     H 2445   5.618   7.752   0.991  1.4827  0.3916  0.1343
   19MOL0     H 2446   5.664   7.804   0.823  1.1216  2.1095 -1.1071
   19MOL0     H 2447   5.697   8.036   0.935 -1.6571  1.8548  0.6483
   19MOL0     H 2448   5.651   7.977   1.083  1.1649  2.1287 -1.5497
   19MOL0     H 2449   5.424   7.902   0.992  1.0547 -2.1855 -0.5831
   19MOL0     H 2450   5.468   7.962   0.843 -0.7355 -0.1157  0.5965
   19MOL0     H 2451   5.454   8.121   1.099  2.1234  1.2845 -0.2623
   19MOL0     H 2452   5.495   8.179   0.930  1.7647 -3.2647 -1.7814
   19MOL0     H 2453   5.246   8.203   1.014  2.3331  0.2479  0.5829
   19MOL0     H 2454   5.224   8.032   0.990  0.6813  0.2988  0.6414
   19MOL0     H 2455   5.259   8.037   0.754 -4.0945 -1.5912  0.6348
   19MOL0     H 2456   5.294   8.208   0.758 -2.4477  0.3922 -1.6070
   19MOL0     H 2457   5.072   8.266   0.858 -1.4581  1.2568 -2.5615
   19MOL0     H 2458   5.088   8.216   0.696  1.4700  0.5220  0.6040
   19MOL0     H 2459   5.036   8.003   0.902  0.6939 -1.7498 -2.9159
   19MOL0     H 2460   4.983   8.003   0.743 -1.3029 -0.3983 -0.3960
   19MOL0     H 2461   4.829   8.276   0.729  0.5460 -1.2070  0.4691
   19MOL0     H 2462   4.520   8.308   0.763  1.3888  1.6580 -0.3259
   19MOL0     H 2463   4.633   8.422   0.824 -0.1123  0.6037 -0.4479
   19MOL0     H 2464   4.529   8.414   1.046  1.4470 -0.5587 -0.9179
   19MOL0     H 2465   4.457   8.262   1.012  3.8065 -1.3290 -0.7867
   19MOL0     H 2466   4.378   8.507   0.842  2.0594  0.3753  0.1360
   19MOL0     H 2467   4.285   8.369   0.853 -0.4810  1.8925 -0.2551
   19MOL0     H 2468   4.252   8.395   1.106  1.1548  3.1317  4.1382
   19MOL0     H 2469   4.157   8.505   0.993  0.1839  1.8233  0.7846
   19MOL0     H 2470   4.060   8.548   1.179 -2.3445 -0.0073  2.5148
   19MOL0     H 2471   3.902   8.756   1.265 -1.0247  3.0416 -1.9770
   19MOL0     H 2472   3.998   9.239   1.090 -1.4793  0.3846  0.2619
   19MOL0     H 2473   3.841   9.461   1.056  1.9424 -0.6878 -0.5681
   19MOL0     H 2474   3.492   9.652   1.237 -1.4665  0.0345 -1.2549
   19MOL0     H 2475   3.547   9.571   1.381 -2.7929 -2.1367  1.5040
   19MOL0     H 2476   3.475   9.365   1.278  0.8516  0.9991  0.3320
   19MOL0     H 2477   3.424   9.458   1.128 -1.0102  2.3688  1.2383
   19MOL0     H 2478   3.275   9.587   1.248 -1.0293  0.2338  0.4364
   19MOL0     H 2479   3.304   9.503   1.401  0.7671  0.5791  0.0319
   19MOL0     H 2480   3.137   9.424   1.161 -2.4644  1.0140  1.2612
   19MOL0     H 2481   3.222   9.294   1.240  4.3538  0.9546 -0.7667
   19MOL0     H 2482   3.058   9.498   1.407 -0.4336 -0.4289 -0.3523
   19MOL0     H 2483   3.107   9.337   1.452  2.5214  0.2084 -0.9692
   19MOL0     H 2484   2.946   9.398   1.214  3.1960  0.7219  0.5957
   19MOL0     H 2485   2.856   9.409   1.369  0.3163  2.7349 -1.2519
   19MOL0     H 2486   2.849   9.170   1.253 -0.9869 -3.2430  1.9543
   19MOL0     H 2487   3.020   9.157   1.301 -0.6187 -2.1702  1.5116
   19MOL0     H 2488   2.814   9.218   1.510  0.7448 -1.8276  2.3120
   19MOL0     H 2489   2.966   9.131   1.513  2.1629  1.0176 -3.0081
   19MOL0     H 2490   3.659   9.389   1.432  0.3352  3.2620  1.7057
   19MOL0     H 2491   3.820   9.206   1.474  0.6233  1.8451  0.5966
   19MOL0     H 2492   4.245   8.998   1.235 -0.1861 -0.6068 -2.0742
   19MOL0     H 2493   4.374   8.819   1.145 -0.9233  0.2070 -2.5088
   19MOL0     H 2494   6.068   7.821   1.005 -0.3340  0.7464 -0.6361
   19MOL0     H 2495   6.246   7.728   0.865  1.3506  2.6048 -2.4591
   19MOL0     H 2496   6.402   7.798   0.385 -0.5143  0.6773  0.7755
   19MOL0     H 2497   6.605   7.727   0.245  1.9120  1.5027  2.3982
   19MOL0     H 2498   6.783   7.606   0.152 -0.2439  0.3813  1.5032
   19MOL0     H 2499   6.661   7.479   0.095  0.7693  0.5051  0.4256
   19MOL0     H 2500   6.876   7.472  -0.004  1.5023 -2.2848 -1.8871
   19MOL0     H 2501   6.938   7.406   0.147  1.8266 -1.8926 -2.3947
   19MOL0     H 2502   6.876   7.209  -0.006  0.3395 -2.3769  1.3430
   19MOL0     H 2503   6.712   7.266   0.004 -1.1558  1.3157  3.0668
   19MOL0     H 2504   6.883   7.168   0.226  1.2062 -2.3151 -3.0144
   19MOL0     H 2505   6.722   7.247   0.248 -0.3149  1.8948 -2.1273
   19MOL0     H 2506   6.651   6.859   0.073 -2.4324  0.5886  1.2241
   19MOL0     H 2507   6.614   7.360   0.469 -1.9884 -0.2984  0.8124
   19MOL0     H 2508   6.416   7.417   0.592 -2.2693 -0.0609 -0.4540
   20MOL0     O 2509   8.970   4.946  10.201 -0.3134  0.6820  0.4208
   20MOL0     C 2510   9.015   4.970  10.306 -0.6195 -0.2715  0.4608
   20MOL0     O 2511   8.968   4.911  10.423 -0.4862  0.3151 -0.5162
   20MOL0     C 2512   8.854   4.837  10.429 -0.3616 -0.0881  0.1477
   20MOL0     C 2513   8.850   4.728  10.516  0.4740 -0.6562 -0.0990
   20MOL0     C 2514   8.733   4.642  10.516 -0.9937  0.1878  0.1174
   20MOL0     C 2515   8.628   4.675  10.436  0.0536  0.2585 -0.1521
   20MOL0     O 2516   8.524   4.585  10.446  0.2148  0.4266 -0.8956
   20MOL0     C 2517   8.444   4.575  10.324  0.6770 -0.4686 -0.5146
   20MOL0     C 2518   8.340   4.473  10.361  0.0704 -0.8606  0.2096
   20MOL0     C 2519   8.404   4.338  10.370 -1.5153 -0.6486  0.4874
   20MOL0     C 2520   8.302   4.228  10.388  0.3822 -0.5283 -0.2108
   20MOL0     C 2521   8.259   4.170  10.253  0.5027  1.1388  0.1864
   20MOL0     C 2522   8.112   4.121  10.244 -0.5506 -0.7234 -0.0467
   20MOL0     C 2523   8.067   4.066  10.113 -0.0298 -0.5665 -0.3105
   20MOL0     C 2524   8.099   4.148   9.989 -1.0722  0.1104 -0.1829
   20MOL0     N 2525   8.033   4.282  10.000  0.0164 -0.1271  0.6890
   20MOL0     C 2526   8.120   4.394   9.994  0.9574  0.7010 -0.2969
   20MOL0     C 2527   8.034   4.496   9.993  0.5006  0.2850 -0.6066
   20MOL0     C 2528   8.073   4.631   9.953  0.1666  0.2023 -0.2567
   20MOL0     C 2529   8.204   4.678  10.007  0.4057  0.2169  0.0816
   20MOL0     C 2530   8.221   4.824   9.968  0.3465  0.4011  0.9837
   20MOL0     C 2531   8.301   4.908  10.065 -0.7358 -0.2609  0.2570
   20MOL0     O 2532   8.442   4.874  10.060 -0.0155  0.3228 -0.1732
   20MOL0     C 2533   8.542   4.961  10.034 -0.8272 -1.3365  0.8452
   20MOL0     C 2534   8.531   5.107  10.029  1.3631 -0.0798  0.5897
   20MOL0     C 2535   8.637   5.193  10.000  0.2776 -0.2715 -0.1499
   20MOL0     C 2536   8.758   5.134   9.974 -0.4661  0.3053  0.1071
   20MOL0     C 2537   8.877   5.219   9.957 -0.7329 -0.2726  0.0406
   20MOL0     O 2538   9.003   5.168   9.967  0.9211  0.0290  0.4714
   20MOL0     C 2539   9.115   5.233   9.928  0.3479  0.6099  0.3147
   20MOL0     C 2540   9.148   5.364   9.956 -0.6532  0.2376  0.3341
   20MOL0     C 2541   9.277   5.407   9.931  0.8515 -0.6254 -0.2080
   20MOL0     C 2542   9.381   5.316   9.884 -0.1940 -0.8536 -0.2554
   20MOL0     O 2543   9.515   5.351   9.862  0.4898  0.0724  0.8988
   20MOL0     C 2544   9.569   5.489   9.869  0.3228 -0.0888 -0.1513
   20MOL0     C 2545   9.532   5.570   9.751  0.4852 -0.7034  0.5772
   20MOL0     C 2546   9.586   5.516   9.617 -0.6853 -0.0690  0.0462
   20MOL0     C 2547   9.545   5.602   9.494  0.0927  0.0070  0.0272
   20MOL0     C 2548   9.394   5.596   9.472 -0.4864 -0.4744 -0.0624
   20MOL0     C 2549   9.355   5.650   9.329 -0.0604 -0.4026 -0.1650
   20MOL0     C 2550   9.210   5.633   9.283  0.0987  0.2553  0.0574
   20MOL0     C 2551   9.173   5.702   9.150 -0.3073  0.1349 -0.3606
   20MOL0    Cl 2552   9.190   5.875   9.192  0.3200 -0.0123  0.5869
   20MOL0     C 2553   9.340   5.189   9.853 -0.3531  0.5406 -0.0984
   20MOL0     C 2554   9.214   5.146   9.884 -0.0743  0.8617  0.0332
   20MOL0     O 2555   8.865   5.335   9.912 -0.0349  0.3578  0.8665
   20MOL0     C 2556   8.775   4.993   9.974 -0.6147  1.2361  0.9338
   20MOL0     C 2557   8.665   4.909  10.002 -0.5850  0.3272 -0.1934
   20MOL0     N 2558   7.906   4.444  10.001  0.5501 -0.8847 -0.4666
   20MOL0     N 2559   7.906   4.314  10.016  0.5102  0.8136  0.5673
   20MOL0     C 2560   8.626   4.791  10.357 -0.5208  0.4935  0.1314
   20MOL0     C 2561   8.740   4.871  10.351 -0.8071  0.0794  0.0669
   20MOL0     C 2562   9.122   5.066  10.324 -0.5242 -0.6088  0.1589
   20MOL0     C 2563   9.213   5.099  10.222  0.1098  0.1186 -0.3142
   20MOL0     C 2564   9.306   5.201  10.230 -0.6685  0.6599 -0.1988
   20MOL0     C 2565   9.324   5.276  10.345  0.4849 -1.4394 -0.8558
   20MOL0     O 2566   9.426   5.369  10.378 -0.3994  0.2160  0.2320
   20MOL0     C 2567   9.537   5.355  10.285  0.3671  0.1425  0.1449
   20MOL0     C 2568   9.659   5.428  10.330  0.0407  0.3327 -0.8090
   20MOL0     C 2569   9.732   5.497  10.216  0.0192  0.0799 -0.6920
   20MOL0     C 2570   9.816   5.404  10.124  1.1265 -0.3513  0.0964
   20MOL0     C 2571   9.899   5.478  10.025 -0.5109 -0.5180 -0.0946
   20MOL0     C 2572   9.965   5.533   9.935  0.8317  0.3101  0.0215
   20MOL0     C 2573   9.240   5.246  10.451 -0.5091  0.7183  0.4179
   20MOL0     C 2574   9.141   5.152  10.440 -0.5423 -0.1720  0.0989
   20MOL0     H 2575   8.950   4.705  10.552  1.8341 -0.6134 -3.4984
   20MOL0     H 2576   8.726   4.552  10.575 -3.0582 -1.0595 -1.8581
   20MOL0     H 2577   8.510   4.537  10.245  1.6653 -1.1660  0.6037
   20MOL0     H 2578   8.376   4.658  10.303  0.5739 -0.7615 -1.3478
   20MOL0     H 2579   8.250   4.465  10.300 -1.6779  0.2918  2.4853
   20MOL0     H 2580   8.293   4.507  10.453 -0.3033  2.1352 -0.9699
   20MOL0     H 2581   8.470   4.341  10.457  1.7350 -0.9614 -1.7889
   20MOL0     H 2582   8.459   4.326  10.276 -2.5866  0.9746 -0.3994
   20MOL0     H 2583   8.361   4.149  10.436 -0.1567 -1.5392 -1.1496
   20MOL0     H 2584   8.214   4.257  10.445  1.7600 -0.8177  2.2153
   20MOL0     H 2585   8.326   4.085  10.237 -1.1701 -0.4578  1.3030
   20MOL0     H 2586   8.295   4.245  10.182  2.7710  0.5099  0.5831
   20MOL0     H 2587   8.046   4.205  10.268 -2.7819 -2.1324 -0.9956
   20MOL0     H 2588   8.094   4.048  10.323  1.9797  0.4409  1.7671
   20MOL0     H 2589   8.117   3.971  10.090  0.0799  0.2098 -3.8821
   20MOL0     H 2590   7.961   4.042  10.126  0.3573 -2.3249 -0.1140
   20MOL0     H 2591   8.053   4.105   9.900  1.1001  1.1697 -1.9161
   20MOL0     H 2592   8.204   4.150   9.958 -1.7266  0.8077 -2.5893
   20MOL0     H 2593   8.227   4.386   9.978  1.1142 -2.0368  1.5167
   20MOL0     H 2594   7.989   4.700   9.970  0.1421  0.3252 -0.8626
   20MOL0     H 2595   8.084   4.619   9.845 -0.9132 -1.9008 -0.1826
   20MOL0     H 2596   8.290   4.628   9.961  0.6640  1.1592 -0.4898
   20MOL0     H 2597   8.211   4.664  10.115  0.0329 -1.5658 -0.0913
   20MOL0     H 2598   8.267   4.819   9.869  2.0453  1.0826  1.6898
   20MOL0     H 2599   8.125   4.875   9.962  2.1025  4.0018  0.9226
   20MOL0     H 2600   8.269   4.878  10.165 -3.2110 -2.3732 -1.0468
   20MOL0     H 2601   8.286   5.014  10.041  0.2195 -0.6907 -2.7279
   20MOL0     H 2602   8.436   5.148  10.061  1.3960  1.0892 -0.7020
   20MOL0     H 2603   8.615   5.299  10.010 -0.3354 -0.5595  1.8878
   20MOL0     H 2604   9.074   5.432   9.997 -0.5480  1.6985 -1.7326
   20MOL0     H 2605   9.307   5.511   9.943 -1.3138 -0.1294  1.2830
   20MOL0     H 2606   9.677   5.473   9.874  0.4971  1.2696  1.0125
   20MOL0     H 2607   9.535   5.536   9.962  0.6169  0.1857 -0.1831
   20MOL0     H 2608   9.577   5.669   9.760  0.9397 -0.8758  0.2645
   20MOL0     H 2609   9.424   5.582   9.749  0.7107  1.6380 -0.5932
   20MOL0     H 2610   9.537   5.423   9.587 -3.4083  1.5856 -0.9960
   20MOL0     H 2611   9.691   5.493   9.638 -1.7338 -3.7716  2.1518
   20MOL0     H 2612   9.568   5.705   9.519  1.2921 -0.5997  1.6139
   20MOL0     H 2613   9.602   5.582   9.403  1.5424 -2.0409  1.2974
   20MOL0     H 2614   9.343   5.654   9.550  0.0562 -2.1113  1.5817
   20MOL0     H 2615   9.359   5.493   9.485 -0.4653 -0.5635 -0.6657
   20MOL0     H 2616   9.418   5.593   9.260 -0.6909 -2.2507  0.7183
   20MOL0     H 2617   9.384   5.755   9.325 -0.2204 -0.3654 -0.4555
   20MOL0     H 2618   9.201   5.526   9.265  0.7602  0.4105 -1.3118
   20MOL0     H 2619   9.129   5.666   9.349  0.5488  0.8312  0.3370
   20MOL0     H 2620   9.072   5.683   9.112 -0.1038  0.9002 -1.3386
   20MOL0     H 2621   9.235   5.674   9.064 -1.9156  0.0562 -1.5322
   20MOL0     H 2622   9.412   5.117   9.818 -0.5954 -0.5875  1.6092
   20MOL0     H 2623   9.190   5.042   9.864  0.3723  0.9409 -1.0058
   20MOL0     H 2624   8.872   4.949   9.953 -1.0900  0.8397 -0.5154
   20MOL0     H 2625   8.684   4.802  10.006  0.3168  0.4737 -0.3821
   20MOL0     H 2626   8.535   4.823  10.306 -0.3465 -0.3600 -0.7288
   20MOL0     H 2627   8.746   4.955  10.282 -4.2731 -0.0960 -0.6372
   20MOL0     H 2628   9.214   5.033  10.136  0.5807 -0.4017  0.0866
   20MOL0     H 2629   9.354   5.211  10.133 -3.9523 -0.7327 -2.1215
   20MOL0     H 2630   9.513   5.405  10.191  0.9966  1.2414  0.5476
   20MOL0     H 2631   9.564   5.254  10.252  0.2557 -0.4073  1.6535
   20MOL0     H 2632   9.640   5.504  10.407  3.0527  1.1242 -0.7349
   20MOL0     H 2633   9.716   5.349  10.379 -1.6752  0.3708  1.4453
   20MOL0     H 2634   9.804   5.565  10.262 -1.0068  1.3725 -0.9300
   20MOL0     H 2635   9.667   5.563  10.158 -0.8271  1.2507  1.4346
   20MOL0     H 2636   9.889   5.346  10.182  1.5980  0.3125  0.1811
   20MOL0     H 2637   9.750   5.333  10.074  1.5128 -2.6277  2.5667
   20MOL0     H 2638  10.027   5.570   9.856 -0.5522 -0.2865 -1.3984
   20MOL0     H 2639   9.254   5.296  10.547  2.2969 -0.2220  0.5919
   20MOL0     H 2640   9.073   5.148  10.524 -0.2507 -0.5100  0.3203
   21MOL0     O 2641   8.980   7.453   6.597  0.7083  0.1077 -0.0196
   21MOL0     C 2642   9.045   7.458   6.492  0.4121 -0.2747  0.9629
   21MOL0     O 2643   9.168   7.514   6.475 -0.3876  0.4002  0.4853
   21MOL0     C 2644   9.244   7.549   6.580  0.0935 -0.0503 -0.6480
   21MOL0     C 2645   9.323   7.671   6.580  0.2452  0.0400  0.2905
   21MOL0     C 2646   9.406   7.710   6.689 -0.6813  0.8748  0.3161
   21MOL0     C 2647   9.419   7.627   6.799 -0.2002  0.0032 -0.1300
   21MOL0     O 2648   9.499   7.666   6.906 -0.1768 -0.1095  0.7190
   21MOL0     C 2649   9.482   7.598   7.029 -0.2593  0.4524 -0.1368
   21MOL0     C 2650   9.589   7.648   7.115 -0.7027 -0.0706  0.5500
   21MOL0     C 2651   9.580   7.791   7.149  0.7269  0.6263 -0.7552
   21MOL0     C 2652   9.673   7.850   7.262  1.2582  0.0112 -0.0106
   21MOL0     C 2653   9.643   8.000   7.277 -1.9194 -0.4019  0.0387
   21MOL0     C 2654   9.733   8.091   7.182 -0.0445  0.4948 -0.7508
   21MOL0     C 2655   9.874   8.073   7.226 -0.4888  0.2897  0.7084
   21MOL0     C 2656   9.966   8.180   7.169 -0.7429 -0.5286 -0.2694
   21MOL0     N 2657  10.100   8.152   7.205 -0.5728  0.3929  0.9696
   21MOL0     C 2658  10.184   8.081   7.124  0.0444  0.1494  0.0129
   21MOL0     C 2659  10.307   8.083   7.188 -0.9442 -0.2863  0.0824
   21MOL0     C 2660  10.422   7.997   7.136 -0.4172  0.3113  0.3516
   21MOL0     C 2661  10.447   7.884   7.227 -0.6777  0.8576 -0.6861
   21MOL0     C 2662  10.323   7.788   7.248  0.4589  0.0317  0.3574
   21MOL0     C 2663  10.264   7.722   7.125 -0.0822 -0.0756 -0.2320
   21MOL0     O 2664  10.129   7.671   7.156  0.3385 -0.4372 -0.2964
   21MOL0     C 2665  10.054   7.597   7.063  0.2795 -0.4235 -0.8604
   21MOL0     C 2666   9.953   7.525   7.111  0.4335 -0.7037  0.3727
   21MOL0     C 2667   9.873   7.439   7.028 -0.5453 -0.6090  0.4922
   21MOL0     C 2668   9.903   7.429   6.892  0.3866 -0.9844  0.9566
   21MOL0     C 2669   9.814   7.356   6.783  0.3893 -0.0774 -0.2588
   21MOL0     O 2670   9.732   7.251   6.830 -0.0490 -0.3859  0.1961
   21MOL0     C 2671   9.668   7.174   6.729  0.6930 -0.3010 -0.1836
   21MOL0     C 2672   9.695   7.038   6.724  0.7478  0.2938  0.2056
   21MOL0     C 2673   9.640   6.954   6.627  0.2568  0.2420  0.1633
   21MOL0     C 2674   9.554   7.005   6.532  0.1477  0.0700  0.9746
   21MOL0     O 2675   9.495   6.914   6.449 -0.2518  0.1614 -0.3210
   21MOL0     C 2676   9.416   6.954   6.338  1.2274  0.1186  0.1782
   21MOL0     C 2677   9.343   6.837   6.280 -0.4574  0.4681  0.1705
   21MOL0     C 2678   9.253   6.762   6.371  0.6232 -0.6157  0.1824
   21MOL0     C 2679   9.173   6.664   6.286  0.1310  0.3315  0.1810
   21MOL0     C 2680   9.237   6.525   6.263  0.3141  0.1859 -0.9849
   21MOL0     C 2681   9.164   6.425   6.173  0.5599 -0.6223  0.0133
   21MOL0     C 2682   9.013   6.399   6.197 -0.0313  1.3842 -0.5726
   21MOL0     C 2683   8.966   6.358   6.338  0.1822  0.3561  0.0846
   21MOL0    Cl 2684   8.800   6.289   6.315  0.1007 -0.4072 -0.3542
   21MOL0     C 2685   9.526   7.141   6.536  1.5784  0.6334 -0.1601
   21MOL0     C 2686   9.581   7.221   6.630  0.3595 -0.2616  0.6981
   21MOL0     O 2687   9.829   7.397   6.661  0.4711  0.9708 -0.1678
   21MOL0     C 2688  10.002   7.514   6.842 -1.3875  0.4963 -0.7633
   21MOL0     C 2689  10.079   7.596   6.930  0.3304 -0.7769  0.5986
   21MOL0     N 2690  10.285   8.156   7.306 -0.8706  0.5771 -0.5528
   21MOL0     N 2691  10.166   8.205   7.308 -0.3388  0.7213 -0.9383
   21MOL0     C 2692   9.346   7.501   6.797  0.0581 -0.7668 -0.0246
   21MOL0     C 2693   9.258   7.461   6.693  0.1948 -0.5258  0.0073
   21MOL0     C 2694   8.964   7.424   6.374  0.3349  0.7785 -0.1689
   21MOL0     C 2695   9.019   7.432   6.248  0.7210 -0.2754  0.7756
   21MOL0     C 2696   8.943   7.390   6.135  0.2996  0.8890 -0.2574
   21MOL0     C 2697   8.810   7.342   6.148  0.6805 -0.3649  0.1397
   21MOL0     O 2698   8.749   7.311   6.031  0.3356  0.3343 -0.1321
   21MOL0     C 2699   8.623   7.244   6.039 -1.4090 -0.0420 -0.2461
   21MOL0     C 2700   8.585   7.175   5.912  0.0051  0.2056  0.6307
   21MOL0     C 2701   8.449   7.109   5.916  0.0031 -0.2898  1.4176
   21MOL0     C 2702   8.454   6.974   5.976  0.7526  0.0898  0.3604
   21MOL0     C 2703   8.481   6.952   6.116  0.3346  0.8426 -0.8915
   21MOL0     C 2704   8.500   6.940   6.235  0.6060 -0.5555 -0.6692
   21MOL0     C 2705   8.755   7.331   6.281 -0.0235  0.0376  0.2002
   21MOL0     C 2706   8.828   7.367   6.394 -0.1112  0.5867 -0.6720
   21MOL0     H 2707   9.288   7.733   6.498 -0.2785 -0.1436  0.3713
   21MOL0     H 2708   9.468   7.798   6.703  2.6719 -1.1263 -0.8048
   21MOL0     H 2709   9.481   7.489   7.021 -2.0104  0.5463 -2.1825
   21MOL0     H 2710   9.385   7.622   7.071 -0.9804 -1.2642 -0.7478
   21MOL0     H 2711   9.684   7.642   7.063 -1.1340  0.7395 -0.3658
   21MOL0     H 2712   9.592   7.593   7.210  0.4599 -1.4790 -0.2671
   21MOL0     H 2713   9.475   7.818   7.161  0.1440 -1.7604  0.2051
   21MOL0     H 2714   9.609   7.843   7.057  2.3272  2.0857  0.5036
   21MOL0     H 2715   9.642   7.811   7.360  0.2244  1.1706  0.1424
   21MOL0     H 2716   9.776   7.817   7.240  1.3821  1.2305 -1.3813
   21MOL0     H 2717   9.673   8.025   7.380 -0.1981  0.0223 -0.5349
   21MOL0     H 2718   9.540   8.034   7.265 -0.7133  3.9226  0.2111
   21MOL0     H 2719   9.698   8.194   7.179 -0.8955  0.4433  2.8871
   21MOL0     H 2720   9.723   8.058   7.078 -3.6086  0.1799 -0.4415
   21MOL0     H 2721   9.902   8.070   7.332 -0.3112 -1.6320  0.6424
   21MOL0     H 2722   9.913   7.979   7.188  1.8189  1.5076 -0.0821
   21MOL0     H 2723   9.951   8.278   7.217 -0.7211 -0.4558 -0.4115
   21MOL0     H 2724   9.954   8.188   7.061 -1.0938 -2.0439 -0.3540
   21MOL0     H 2725  10.149   8.035   7.032 -3.7621  1.9029  0.4001
   21MOL0     H 2726  10.516   8.054   7.128 -0.6227  0.4956 -1.0309
   21MOL0     H 2727  10.407   7.969   7.031  0.8394  2.6085 -0.5299
   21MOL0     H 2728  10.465   7.921   7.328 -4.2069 -2.0890  1.2449
   21MOL0     H 2729  10.526   7.817   7.194 -2.8147 -1.6431 -1.0348
   21MOL0     H 2730  10.348   7.709   7.320  0.8615 -2.7047 -2.5509
   21MOL0     H 2731  10.234   7.840   7.283  1.2920  1.6394  0.1905
   21MOL0     H 2732  10.336   7.642   7.105  0.6846  0.8074 -1.1210
   21MOL0     H 2733  10.258   7.783   7.034 -1.0753 -0.4143 -0.4049
   21MOL0     H 2734   9.934   7.542   7.216 -0.8006  1.6126 -0.1410
   21MOL0     H 2735   9.790   7.381   7.069 -0.5647 -0.5749  0.5002
   21MOL0     H 2736   9.767   7.013   6.801 -0.9532  0.4921  1.9301
   21MOL0     H 2737   9.674   6.853   6.644 -0.4143  0.1372  0.9469
   21MOL0     H 2738   9.473   7.008   6.262 -0.7799  0.9207 -0.8565
   21MOL0     H 2739   9.346   7.027   6.380  1.9370 -1.3517  4.4014
   21MOL0     H 2740   9.415   6.768   6.235 -0.1353  1.9199 -1.6785
   21MOL0     H 2741   9.288   6.872   6.193  0.6980 -1.4386 -1.4045
   21MOL0     H 2742   9.186   6.839   6.412 -0.8432 -1.9713  0.4595
   21MOL0     H 2743   9.315   6.708   6.443  2.1246 -0.3718 -0.8959
   21MOL0     H 2744   9.081   6.662   6.345  0.5471 -0.0897  0.8292
   21MOL0     H 2745   9.160   6.701   6.183 -2.7431  1.5228  0.8488
   21MOL0     H 2746   9.250   6.470   6.357  0.0133  3.0716  0.8931
   21MOL0     H 2747   9.332   6.535   6.210  1.5469  1.3852  1.2884
   21MOL0     H 2748   9.221   6.331   6.169  2.1558  0.3172 -0.3274
   21MOL0     H 2749   9.177   6.463   6.071  2.0317  1.0458  0.7555
   21MOL0     H 2750   8.963   6.493   6.172 -1.3014  0.4927 -1.5174
   21MOL0     H 2751   8.994   6.322   6.122  1.1943 -2.2674  2.5506
   21MOL0     H 2752   8.963   6.439   6.411  0.8254 -1.5196  2.3324
   21MOL0     H 2753   9.041   6.289   6.379  2.3469  3.1849  1.2004
   21MOL0     H 2754   9.462   7.180   6.457  1.9580 -1.1752 -1.4294
   21MOL0     H 2755   9.560   7.327   6.620  0.6996 -0.1564  1.0603
   21MOL0     H 2756  10.040   7.499   6.742  0.2107 -3.7264  0.2874
   21MOL0     H 2757  10.161   7.657   6.895 -0.6431 -0.4516 -1.2592
   21MOL0     H 2758   9.356   7.431   6.879  2.0183  0.7519  1.1135
   21MOL0     H 2759   9.208   7.365   6.694 -0.7381 -0.0582 -0.2537
   21MOL0     H 2760   9.116   7.478   6.229 -0.5935  1.8914 -1.3176
   21MOL0     H 2761   8.996   7.412   6.043 -0.4147  0.0338 -0.8970
   21MOL0     H 2762   8.539   7.308   6.068 -0.7718  1.3566 -1.3742
   21MOL0     H 2763   8.631   7.166   6.114  0.7887  2.4371  2.3351
   21MOL0     H 2764   8.580   7.246   5.829 -1.0743 -1.5351 -0.8792
   21MOL0     H 2765   8.651   7.095   5.875 -1.6763 -0.4431 -1.1350
   21MOL0     H 2766   8.423   7.098   5.810  3.5462 -2.6677  0.6152
   21MOL0     H 2767   8.364   7.162   5.960 -2.7563 -2.4116 -0.8623
   21MOL0     H 2768   8.357   6.932   5.949  0.9344 -0.0556 -0.0810
   21MOL0     H 2769   8.521   6.908   5.919  1.6998  0.4691  1.0026
   21MOL0     H 2770   8.494   6.938   6.342 -2.9862 -0.2583 -0.7313
   21MOL0     H 2771   8.662   7.276   6.288 -0.6481  1.2913  2.9857
   21MOL0     H 2772   8.787   7.345   6.492  2.9703 -0.8566  0.4487
   22MOL0     O 2773   4.064   1.330   3.364 -0.2447 -0.3066  1.0658
   22MOL0     C 2774   4.168   1.365   3.303 -0.7388 -0.4108 -0.1293
   22MOL0     O 2775   4.295   1.368   3.360 -0.5497  1.0351  0.2090
   22MOL0     C 2776   4.316   1.324   3.486 -0.2979 -0.5693 -0.4554
   22MOL0     C 2777   4.410   1.222   3.508  0.2188 -0.3034 -0.1694
   22MOL0     C 2778   4.405   1.160   3.631  0.1742  0.1631  0.5463
   22MOL0     C 2779   4.338   1.224   3.733 -0.1549  0.0652  0.7239
   22MOL0     O 2780   4.337   1.158   3.858  0.2417 -0.3385  0.9545
   22MOL0     C 2781   4.371   1.223   3.981 -0.4114 -0.5879  0.6362
   22MOL0     C 2782   4.272   1.204   4.092  0.7861 -0.5739  0.7990
   22MOL0     C 2783   4.125   1.250   4.046  0.2581  0.4278 -0.2015
   22MOL0     C 2784   4.026   1.261   4.161 -0.0520  0.0983  0.4426
   22MOL0     C 2785   3.879   1.313   4.127  0.4072  0.7087  0.2546
   22MOL0     C 2786   3.863   1.440   4.046  0.8192  0.0258 -0.1373
   22MOL0     C 2787   3.712   1.471   4.025  0.6101  0.3363 -0.5751
   22MOL0     C 2788   3.684   1.591   3.928 -0.3176  0.5972 -0.2167
   22MOL0     N 2789   3.538   1.615   3.915 -0.8697  0.0160 -1.3909
   22MOL0     C 2790   3.457   1.666   4.010 -0.3671 -0.2482 -0.5564
   22MOL0     C 2791   3.337   1.650   3.964  1.6274 -0.4638 -0.0132
   22MOL0     C 2792   3.207   1.693   4.030 -0.5091  0.9157 -0.0968
   22MOL0     C 2793   3.109   1.776   3.946  0.5026 -0.1142 -0.3276
   22MOL0     C 2794   3.007   1.693   3.862 -1.1643 -0.6762 -0.5219
   22MOL0     C 2795   2.890   1.776   3.818  0.1407 -0.7657 -0.5270
   22MOL0     O 2796   2.808   1.815   3.935 -0.2748 -0.3397  0.2454
   22MOL0     C 2797   2.678   1.849   3.902 -0.1021 -0.1695 -0.0764
   22MOL0     C 2798   2.633   1.903   3.784  0.7981  0.2534  1.3994
   22MOL0     C 2799   2.487   1.899   3.761 -0.3764  0.5598 -0.0903
   22MOL0     C 2800   2.398   1.847   3.861 -0.1311 -1.0044 -0.3354
   22MOL0     C 2801   2.251   1.867   3.856 -0.2907 -0.4558  0.0920
   22MOL0     O 2802   2.175   1.867   3.973 -0.7268  0.3604 -1.3568
   22MOL0     C 2803   2.061   1.946   3.972 -0.0242 -0.0397  0.0525
   22MOL0     C 2804   1.952   1.895   4.028  0.4416  0.0385 -0.1179
   22MOL0     C 2805   1.836   1.978   4.055 -0.8036 -0.1201 -0.9543
   22MOL0     C 2806   1.827   2.111   4.020 -0.2266 -0.3132 -0.1391
   22MOL0     O 2807   1.708   2.172   4.031  0.1953 -0.1129 -0.1677
   22MOL0     C 2808   1.673   2.283   3.945 -0.0352 -0.1443  0.9210
   22MOL0     C 2809   1.527   2.295   3.957 -0.3576 -0.3136 -0.1188
   22MOL0     C 2810   1.486   2.442   3.929  0.0634 -0.8580 -1.0075
   22MOL0     C 2811   1.339   2.470   3.952  1.0727  0.2289  0.6545
   22MOL0     C 2812   1.307   2.618   3.937  0.9627 -0.2327  0.0749
   22MOL0     C 2813   1.325   2.688   3.801 -0.4955  0.0278  0.2816
   22MOL0     C 2814   1.244   2.625   3.680  0.2379  0.8603 -0.7084
   22MOL0     C 2815   1.279   2.486   3.623  0.6201 -0.0869 -0.6884
   22MOL0    Cl 2816   1.186   2.439   3.480  0.2192  0.5628  0.5056
   22MOL0     C 2817   1.937   2.168   3.956  0.9074 -0.0261  0.9477
   22MOL0     C 2818   2.048   2.083   3.935  0.0205 -0.7841  1.1102
   22MOL0     O 2819   2.215   1.919   3.752 -0.2324 -0.5430 -0.1767
   22MOL0     C 2820   2.451   1.798   3.979  0.0395 -0.5602  0.4445
   22MOL0     C 2821   2.588   1.790   3.990  0.8058  0.1917  0.3150
   22MOL0     N 2822   3.341   1.587   3.842  0.2250 -0.3155  0.3530
   22MOL0     N 2823   3.465   1.556   3.807  0.3000  0.5047 -0.0442
   22MOL0     C 2824   4.268   1.344   3.720  0.2103 -0.8644 -0.1585
   22MOL0     C 2825   4.251   1.394   3.593  0.0963 -0.2672 -0.3156
   22MOL0     C 2826   4.163   1.444   3.174  0.8601  0.3046 -0.6263
   22MOL0     C 2827   4.272   1.518   3.123 -0.1686 -0.2864 -0.5971
   22MOL0     C 2828   4.255   1.598   3.004 -0.3564 -1.0648  0.2429
   22MOL0     C 2829   4.146   1.584   2.917  0.4938  0.2584 -1.3797
   22MOL0     O 2830   4.147   1.640   2.797  0.2255 -0.1416  0.3093
   22MOL0     C 2831   4.119   1.552   2.692  0.8904  0.4006  0.2447
   22MOL0     C 2832   4.185   1.589   2.565  0.2280 -0.8888  0.0390
   22MOL0     C 2833   4.333   1.552   2.562  0.4673  0.3032  0.1175
   22MOL0     C 2834   4.396   1.582   2.435 -0.6752 -0.0176 -0.0330
   22MOL0     C 2835   4.336   1.499   2.331 -0.6421  0.9512 -0.4017
   22MOL0     C 2836   4.306   1.425   2.247 -0.9726  0.5368 -0.0301
   22MOL0     C 2837   4.036   1.513   2.976 -0.4335 -0.2984  0.7599
   22MOL0     C 2838   4.039   1.449   3.104  0.3319  0.8775  0.6353
   22MOL0     H 2839   4.454   1.177   3.420  0.7017 -1.1953  0.5137
   22MOL0     H 2840   4.458   1.070   3.660 -1.2251  0.1865  3.6045
   22MOL0     H 2841   4.379   1.329   3.955 -1.1493 -0.6214  0.2528
   22MOL0     H 2842   4.468   1.193   4.022  0.0555 -1.4426 -1.0083
   22MOL0     H 2843   4.312   1.273   4.166 -0.5061  0.4501  0.5868
   22MOL0     H 2844   4.271   1.101   4.131  2.0777 -0.9073  0.0040
   22MOL0     H 2845   4.083   1.177   3.977  1.6291 -1.9055  1.2635
   22MOL0     H 2846   4.126   1.348   3.997 -0.5608  0.4693 -0.1391
   22MOL0     H 2847   4.031   1.166   4.215  2.3230 -1.2011 -1.8447
   22MOL0     H 2848   4.066   1.331   4.235  0.4573  0.3677 -0.0861
   22MOL0     H 2849   3.825   1.309   4.222  2.2863 -0.8946  1.3419
   22MOL0     H 2850   3.831   1.240   4.060  0.6191  0.5834  0.2370
   22MOL0     H 2851   3.934   1.447   3.963  1.1825 -2.0586 -0.0426
   22MOL0     H 2852   3.901   1.517   4.114 -2.4254 -0.2211  2.2182
   22MOL0     H 2853   3.648   1.388   3.997  2.2861 -0.7955 -1.2159
   22MOL0     H 2854   3.680   1.506   4.124  3.5569 -0.5542  0.8381
   22MOL0     H 2855   3.705   1.562   3.824 -2.4772  1.2903 -0.8952
   22MOL0     H 2856   3.738   1.682   3.953 -0.0026  0.9242 -1.9294
   22MOL0     H 2857   3.466   1.705   4.110 -1.1363 -0.8139 -0.2508
   22MOL0     H 2858   3.253   1.757   4.106  1.6835 -0.2505 -0.3598
   22MOL0     H 2859   3.161   1.603   4.071  1.4250 -0.7881 -1.4440
   22MOL0     H 2860   3.170   1.842   3.884 -0.3013  1.1784  0.2032
   22MOL0     H 2861   3.051   1.844   4.009 -0.0897 -0.1345 -0.8495
   22MOL0     H 2862   3.059   1.653   3.774  1.1591  1.2211 -0.1319
   22MOL0     H 2863   2.967   1.606   3.915 -1.9039  0.6958  1.2789
   22MOL0     H 2864   2.841   1.724   3.736 -0.8682 -1.0150  0.2088
   22MOL0     H 2865   2.928   1.873   3.783 -1.3836  0.5605  1.2136
   22MOL0     H 2866   2.698   1.947   3.708 -1.1711 -0.1939 -0.6319
   22MOL0     H 2867   2.450   1.949   3.673 -0.0432  2.5049  0.8366
   22MOL0     H 2868   1.961   1.795   4.069  0.2254  0.4088  0.8586
   22MOL0     H 2869   1.746   1.934   4.097 -1.4960  2.0540 -0.0360
   22MOL0     H 2870   1.691   2.252   3.842 -2.0050 -1.5649  0.9452
   22MOL0     H 2871   1.729   2.373   3.973 -1.5817  0.6245  1.7404
   22MOL0     H 2872   1.495   2.267   4.058  1.9045 -1.8486  0.2533
   22MOL0     H 2873   1.479   2.219   3.896 -0.4417 -0.0780 -0.3502
   22MOL0     H 2874   1.518   2.475   3.830  1.0291  0.0055 -0.4325
   22MOL0     H 2875   1.539   2.508   3.998 -2.2227 -0.1749  0.1861
   22MOL0     H 2876   1.272   2.400   3.902  2.1180 -1.3577  1.3964
   22MOL0     H 2877   1.329   2.439   4.057  1.8890 -3.1515 -0.1517
   22MOL0     H 2878   1.368   2.676   4.007 -0.1280  0.6356  0.3474
   22MOL0     H 2879   1.202   2.630   3.969  1.4062  3.2104  0.6945
   22MOL0     H 2880   1.432   2.674   3.785 -0.6048  0.1665 -0.6285
   22MOL0     H 2881   1.307   2.796   3.811  2.4987  0.7279 -0.6717
   22MOL0     H 2882   1.142   2.613   3.718 -0.0262 -2.3449 -2.0817
   22MOL0     H 2883   1.244   2.700   3.600 -1.0287  2.6192  0.8706
   22MOL0     H 2884   1.269   2.410   3.701 -0.9327  1.2908  0.5201
   22MOL0     H 2885   1.382   2.491   3.585  1.6147  1.1773  1.8950
   22MOL0     H 2886   1.915   2.269   3.924 -0.6036 -1.0094 -1.3938
   22MOL0     H 2887   2.143   2.117   3.895  1.3171 -1.3989  3.5022
   22MOL0     H 2888   2.388   1.758   4.059  0.2394  0.8543  1.3476
   22MOL0     H 2889   2.608   1.728   4.076 -1.6817  1.4471  1.9147
   22MOL0     H 2890   4.214   1.386   3.804  0.3852  2.7118 -1.6458
   22MOL0     H 2891   4.182   1.477   3.592  1.9546  1.3425 -0.8494
   22MOL0     H 2892   4.362   1.521   3.184 -0.1604 -0.7807 -0.5863
   22MOL0     H 2893   4.354   1.637   2.981  0.6345 -3.1524  0.6831
   22MOL0     H 2894   4.011   1.539   2.677  1.4572 -2.9465 -2.2827
   22MOL0     H 2895   4.145   1.448   2.716 -1.7451 -0.0463  1.5683
   22MOL0     H 2896   4.129   1.546   2.481 -1.3955  0.0651  0.6023
   22MOL0     H 2897   4.160   1.695   2.563 -2.7509 -1.3441  3.6541
   22MOL0     H 2898   4.344   1.445   2.581 -5.8228 -0.8497 -0.7790
   22MOL0     H 2899   4.385   1.594   2.650  0.2491  0.5335  0.1379
   22MOL0     H 2900   4.372   1.684   2.404 -1.4718 -0.5899 -1.4283
   22MOL0     H 2901   4.503   1.559   2.434 -0.7229 -0.2650 -0.9518
   22MOL0     H 2902   4.271   1.368   2.163 -2.6300 -0.6292  1.3748
   22MOL0     H 2903   3.935   1.516   2.936 -0.9564  2.5420  2.0826
   22MOL0     H 2904   3.948   1.401   3.141  0.8488  0.6522  1.6725
   23MOL0     O 2905   4.291   6.613   5.615 -0.1056 -0.4424 -0.7667
   23MOL0     C 2906   4.259   6.510   5.673 -0.2957  0.9376  0.3852
   23MOL0     O 2907   4.135   6.479   5.728 -0.1941  0.8202  0.7268
   23MOL0     C 2908   4.036   6.574   5.698 -0.1312  0.7403 -0.6184
   23MOL0     C 2909   3.975   6.583   5.571  0.3210  0.0891  0.0141
   23MOL0     C 2910   3.862   6.662   5.548 -0.8223 -0.1392 -0.0705
   23MOL0     C 2911   3.800   6.737   5.651  0.2251  0.5276 -0.0082
   23MOL0     O 2912   3.689   6.811   5.637  0.1925 -0.2819 -0.1406
   23MOL0     C 2913   3.611   6.792   5.520 -0.1573 -0.4084  0.3543
   23MOL0     C 2914   3.492   6.888   5.517  0.2961 -0.2352 -0.2588
   23MOL0     C 2915   3.529   7.043   5.535 -0.0735 -0.0475  0.1570
   23MOL0     C 2916   3.405   7.112   5.493  0.3573 -0.0999 -0.7487
   23MOL0     C 2917   3.405   7.254   5.540  0.1761  0.2814  0.7841
   23MOL0     C 2918   3.516   7.349   5.488 -0.2401  1.3851 -0.4153
   23MOL0     C 2919   3.555   7.334   5.341  0.0526  0.3478  0.0491
   23MOL0     C 2920   3.445   7.382   5.236 -1.0359 -0.1340 -0.8691
   23MOL0     N 2921   3.503   7.394   5.101 -0.5046  0.0230  0.3648
   23MOL0     C 2922   3.541   7.506   5.028 -0.5160 -0.3583 -0.1056
   23MOL0     C 2923   3.573   7.464   4.902 -1.1818 -0.7253 -0.0138
   23MOL0     C 2924   3.628   7.543   4.780 -0.0186 -0.8209 -0.1201
   23MOL0     C 2925   3.782   7.529   4.785 -0.0629 -0.2785  0.5791
   23MOL0     C 2926   3.843   7.558   4.652 -0.2733  0.1633 -0.2206
   23MOL0     C 2927   3.966   7.650   4.649  0.2583 -0.3930 -0.2653
   23MOL0     O 2928   3.927   7.784   4.681 -0.0686  0.7889 -0.1843
   23MOL0     C 2929   3.873   7.855   4.578  0.5931  0.1881  0.1251
   23MOL0     C 2930   3.948   7.885   4.463  0.7704 -0.1072  0.1131
   23MOL0     C 2931   3.883   7.951   4.355  0.5972  0.7758  0.0893
   23MOL0     C 2932   3.755   7.989   4.374 -0.0958 -0.0065 -0.8625
   23MOL0     C 2933   3.685   8.055   4.264  0.8980  0.5165  0.7191
   23MOL0     O 2934   3.757   8.127   4.176  0.6775 -0.4457  0.3847
   23MOL0     C 2935   3.690   8.188   4.077 -0.2251 -0.6820  0.0525
   23MOL0     C 2936   3.675   8.109   3.964 -0.1179  0.5083 -0.3812
   23MOL0     C 2937   3.603   8.163   3.861  0.7771  0.9410  0.7975
   23MOL0     C 2938   3.534   8.287   3.869  0.5503 -0.1058  0.9666
   23MOL0     O 2939   3.466   8.360   3.772  0.1119  0.2317 -0.7630
   23MOL0     C 2940   3.406   8.280   3.671  0.2355  0.2452  0.5731
   23MOL0     C 2941   3.264   8.227   3.699  0.6812  0.1257 -0.0182
   23MOL0     C 2942   3.175   8.337   3.760  0.0888 -0.5119  0.4050
   23MOL0     C 2943   3.027   8.293   3.760 -0.6174 -0.1362 -0.4864
   23MOL0     C 2944   2.952   8.397   3.839  0.3051  0.2692 -0.2217
   23MOL0     C 2945   2.797   8.359   3.850 -0.2656 -0.7078  0.5356
   23MOL0     C 2946   2.722   8.472   3.902 -0.1621  0.5335  0.3737
   23MOL0     C 2947   2.576   8.449   3.937  0.1444 -0.5864  0.3722
   23MOL0    Cl 2948   2.489   8.433   3.790 -0.2819 -0.4501  0.3221
   23MOL0     C 2949   3.557   8.365   3.982 -0.7646  0.0359  0.4247
   23MOL0     C 2950   3.632   8.308   4.095  0.0847  0.1919  0.6582
   23MOL0     O 2951   3.563   8.022   4.255  0.5971 -0.0683  0.7923
   23MOL0     C 2952   3.685   7.965   4.490  0.5776  0.2929  0.0377
   23MOL0     C 2953   3.741   7.894   4.591 -1.3173  0.1628  0.6783
   23MOL0     N 2954   3.551   7.325   4.905  0.0292 -0.4793 -0.2575
   23MOL0     N 2955   3.496   7.288   5.018 -0.1472 -0.1414 -0.5336
   23MOL0     C 2956   3.859   6.734   5.776 -0.9668  0.4074  0.7821
   23MOL0     C 2957   3.974   6.652   5.796 -0.8144  0.5423 -0.0697
   23MOL0     C 2958   4.377   6.423   5.703 -0.3610 -0.3867 -0.7907
   23MOL0     C 2959   4.498   6.476   5.735 -0.6310 -0.3607  0.6976
   23MOL0     C 2960   4.608   6.388   5.759  0.3428 -0.2089  1.1350
   23MOL0     C 2961   4.594   6.248   5.739  0.3307 -0.2350 -0.8430
   23MOL0     O 2962   4.701   6.172   5.760 -0.2390  0.3319  0.5394
   23MOL0     C 2963   4.693   6.029   5.748 -0.2783  0.0013 -1.0532
   23MOL0     C 2964   4.833   5.975   5.716  1.1507 -0.0029 -0.5108
   23MOL0     C 2965   4.924   6.008   5.831 -0.1980  0.3525 -0.0519
   23MOL0     C 2966   5.053   5.924   5.811  0.1848 -1.2290 -0.1259
   23MOL0     C 2967   5.138   5.979   5.924 -0.1532 -0.7682  0.5716
   23MOL0     C 2968   5.190   6.019   6.036  0.1451  0.2835  0.7604
   23MOL0     C 2969   4.466   6.195   5.719 -0.1981 -0.6369 -0.8041
   23MOL0     C 2970   4.357   6.282   5.704 -0.4375 -0.3454 -0.9029
   23MOL0     H 2971   4.015   6.513   5.499 -2.7192 -3.3678  1.3617
   23MOL0     H 2972   3.826   6.652   5.446 -1.0229 -2.6201  0.1672
   23MOL0     H 2973   3.581   6.688   5.508  0.8998 -0.5970 -0.9901
   23MOL0     H 2974   3.677   6.813   5.435  1.9575 -1.5361  1.6240
   23MOL0     H 2975   3.420   6.846   5.588 -3.1130 -1.8003 -4.2664
   23MOL0     H 2976   3.440   6.865   5.424 -1.1453  2.7378 -0.3241
   23MOL0     H 2977   3.619   7.072   5.480 -1.4313  0.3536 -1.9885
   23MOL0     H 2978   3.547   7.064   5.641  0.6853  1.2018 -0.1948
   23MOL0     H 2979   3.395   7.110   5.384  1.0616 -2.2538 -0.8199
   23MOL0     H 2980   3.316   7.064   5.534  0.4230  1.0956  0.8959
   23MOL0     H 2981   3.401   7.255   5.650  1.4633 -0.1607  0.8484
   23MOL0     H 2982   3.311   7.292   5.500  0.2878  2.2305  2.2080
   23MOL0     H 2983   3.594   7.328   5.562 -0.2421  1.4962 -0.3830
   23MOL0     H 2984   3.493   7.455   5.499 -0.9014  1.1835  0.2596
   23MOL0     H 2985   3.644   7.395   5.323  1.3362 -1.7889 -1.2181
   23MOL0     H 2986   3.586   7.233   5.311 -1.5159  0.4574 -2.1436
   23MOL0     H 2987   3.416   7.482   5.270 -2.1885 -1.9876  4.3895
   23MOL0     H 2988   3.368   7.305   5.242  0.8403 -1.9643  2.5531
   23MOL0     H 2989   3.544   7.608   5.067 -0.0796  0.1222 -1.3359
   23MOL0     H 2990   3.611   7.650   4.787  0.3209 -0.8737  3.5518
   23MOL0     H 2991   3.590   7.505   4.685  1.2149 -0.3737 -0.8148
   23MOL0     H 2992   3.800   7.423   4.805  1.3784 -0.2047 -0.1474
   23MOL0     H 2993   3.815   7.600   4.862  1.8205  0.5041 -0.8612
   23MOL0     H 2994   3.871   7.459   4.616 -0.2384 -0.5423  1.6226
   23MOL0     H 2995   3.766   7.597   4.585  0.1337 -0.5237 -1.1121
   23MOL0     H 2996   4.028   7.637   4.559  1.8360 -1.0429  0.8614
   23MOL0     H 2997   4.023   7.613   4.734  2.2836 -0.2702 -1.4951
   23MOL0     H 2998   4.039   7.829   4.449  2.4357  2.7128 -1.3547
   23MOL0     H 2999   3.930   7.940   4.258  0.8275 -1.3073  0.3840
   23MOL0     H 3000   3.728   8.016   3.950  2.5335  1.5225  1.9404
   23MOL0     H 3001   3.584   8.098   3.777 -0.8282  0.9802  1.0920
   23MOL0     H 3002   3.455   8.185   3.649 -0.8970 -0.2727  0.2243
   23MOL0     H 3003   3.402   8.347   3.584  1.3456  0.0570  0.3670
   23MOL0     H 3004   3.276   8.138   3.762  1.4701 -0.4900 -1.0004
   23MOL0     H 3005   3.224   8.187   3.605  1.1174 -4.0263  1.3291
   23MOL0     H 3006   3.191   8.429   3.704 -0.6914 -1.9902 -2.4367
   23MOL0     H 3007   3.215   8.360   3.860  2.1668 -0.3809 -0.4145
   23MOL0     H 3008   3.000   8.291   3.655  1.2731 -1.3992 -1.0124
   23MOL0     H 3009   3.010   8.194   3.805 -1.0800 -0.8279 -2.1229
   23MOL0     H 3010   2.965   8.501   3.808  3.2388  0.8559  2.4189
   23MOL0     H 3011   2.988   8.400   3.943  0.9205 -1.2488 -0.3660
   23MOL0     H 3012   2.775   8.276   3.917 -1.1729 -1.5248 -0.7187
   23MOL0     H 3013   2.770   8.336   3.746  1.5203  0.7081 -0.3118
   23MOL0     H 3014   2.771   8.498   3.996  1.4669 -3.2614  0.7416
   23MOL0     H 3015   2.733   8.553   3.829  1.0808  0.7910  0.8216
   23MOL0     H 3016   2.541   8.544   3.977 -0.8439 -0.1200 -1.5053
   23MOL0     H 3017   2.551   8.365   4.002 -0.0942 -1.8575 -1.2777
   23MOL0     H 3018   3.504   8.460   3.985  0.2866  0.6897 -0.5187
   23MOL0     H 3019   3.634   8.358   4.191 -1.2001 -0.3035  0.9661
   23MOL0     H 3020   3.586   8.009   4.501  1.0759  1.8901 -1.5137
   23MOL0     H 3021   3.682   7.865   4.678 -0.0529  0.9327  1.8202
   23MOL0     H 3022   3.829   6.807   5.851 -0.0265  1.8062 -0.1585
   23MOL0     H 3023   4.021   6.651   5.893  1.5924 -2.0394 -1.1304
   23MOL0     H 3024   4.516   6.582   5.727  0.3898 -0.6714 -5.0146
   23MOL0     H 3025   4.709   6.422   5.782  0.3588  1.3108 -0.9332
   23MOL0     H 3026   4.618   5.982   5.685 -1.1294 -2.0651  1.3217
   23MOL0     H 3027   4.665   5.996   5.849  1.1468 -3.1397 -1.5777
   23MOL0     H 3028   4.816   5.868   5.697 -1.9427  0.3584 -0.2652
   23MOL0     H 3029   4.864   6.023   5.623  1.4042 -0.4250 -0.6511
   23MOL0     H 3030   4.873   5.989   5.925 -1.4416  1.9273 -0.3748
   23MOL0     H 3031   4.948   6.114   5.828  0.6603  0.1710 -2.1933
   23MOL0     H 3032   5.026   5.820   5.828 -2.1066 -1.1954 -2.7294
   23MOL0     H 3033   5.100   5.936   5.713 -4.5355  0.8502 -2.5004
   23MOL0     H 3034   5.235   6.059   6.124  4.0919 -1.0520 -0.4312
   23MOL0     H 3035   4.449   6.089   5.705  3.1544 -1.6630  1.5821
   23MOL0     H 3036   4.255   6.254   5.681 -1.1823 -0.2496  1.8576
   24MOL0     O 3037   3.193   8.062   0.220  0.2761 -0.0193  0.8896
   24MOL0     C 3038   3.144   8.152   0.150 -0.0128 -0.1096  0.3358
   24MOL0     O 3039   3.013   8.197   0.159 -0.0042 -1.0060 -0.1505
   24MOL0     C 3040   2.931   8.124   0.247 -0.2969 -0.4231 -0.3127
   24MOL0     C 3041   2.871   8.190   0.356 -0.4897  0.7021 -0.1278
   24MOL0     C 3042   2.787   8.120   0.446 -0.1839 -0.0273 -1.1072
   24MOL0     C 3043   2.770   7.981   0.439  1.0872 -0.7322 -0.0187
   24MOL0     O 3044   2.685   7.910   0.529 -0.1863 -0.4637 -0.3114
   24MOL0     C 3045   2.560   7.959   0.570  0.0121  1.0705  0.1516
   24MOL0     C 3046   2.485   7.836   0.628 -0.4385 -0.3262 -0.3985
   24MOL0     C 3047   2.335   7.847   0.654 -0.1836 -0.8491 -0.4206
   24MOL0     C 3048   2.278   7.709   0.661 -0.6817  1.2104 -0.0526
   24MOL0     C 3049   2.131   7.711   0.642 -0.3946  0.6575 -0.0114
   24MOL0     C 3050   2.087   7.759   0.504 -0.6479 -0.4117  0.2251
   24MOL0     C 3051   1.950   7.717   0.482 -0.2103 -0.3716  0.2794
   24MOL0     C 3052   1.908   7.754   0.333  0.5078  0.3198 -0.3925
   24MOL0     N 3053   1.767   7.729   0.297  0.2805  0.2414 -0.2900
   24MOL0     C 3054   1.656   7.800   0.346 -0.4414  0.0513 -0.5075
   24MOL0     C 3055   1.553   7.761   0.273 -0.0055  0.1710  0.1521
   24MOL0     C 3056   1.410   7.803   0.280  0.0538  1.2548 -0.1348
   24MOL0     C 3057   1.345   7.695   0.369 -0.9329 -0.1504 -0.4197
   24MOL0     C 3058   1.208   7.732   0.424  1.2546  1.1805 -0.0816
   24MOL0     C 3059   1.146   7.604   0.480 -0.1133 -0.2102  0.5505
   24MOL0     O 3060   1.009   7.619   0.518 -0.0592 -0.2801  0.4654
   24MOL0     C 3061   0.972   7.683   0.636 -0.2678  0.2335 -0.6418
   24MOL0     C 3062   0.852   7.745   0.627  1.0367  0.1663  0.2512
   24MOL0     C 3063   0.810   7.815   0.733  0.4782 -0.6595 -0.1641
   24MOL0     C 3064   0.879   7.810   0.856  0.6047 -0.7980 -0.1826
   24MOL0     C 3065   0.810   7.878   0.972  0.6671  0.4517 -0.8215
   24MOL0     O 3066   0.698   7.950   0.956 -0.6362  0.0261  0.5644
   24MOL0     C 3067   0.664   8.045   1.048  0.5638  0.2307 -0.0718
   24MOL0     C 3068   0.636   8.007   1.180  0.0357 -0.4953 -0.3467
   24MOL0     C 3069   0.615   8.103   1.277 -0.0504  0.6365 -0.5841
   24MOL0     C 3070   0.625   8.241   1.251  0.3050  0.4237 -0.2043
   24MOL0     O 3071   0.623   8.334   1.351 -1.1611 -0.1093 -0.8171
   24MOL0     C 3072   0.655   8.287   1.481 -0.2918 -0.1299  0.5533
   24MOL0     C 3073   0.675   8.415   1.556  0.2791 -0.2146  0.1126
   24MOL0     C 3074   0.814   8.475   1.545  0.4331  0.7296 -0.3038
   24MOL0     C 3075   0.802   8.610   1.616 -0.0431 -0.2984  0.1345
   24MOL0     C 3076   0.932   8.683   1.605 -0.1610 -0.8862  0.0021
   24MOL0     C 3077   1.051   8.625   1.685  0.0547  0.4738  0.1199
   24MOL0     C 3078   1.177   8.706   1.654  0.0959  0.3205 -0.3051
   24MOL0     C 3079   1.287   8.714   1.763  0.2112 -0.2576  0.3049
   24MOL0    Cl 3080   1.353   8.546   1.781  0.1406 -0.2495  0.3766
   24MOL0     C 3081   0.636   8.280   1.118 -0.6124 -0.4175 -0.5619
   24MOL0     C 3082   0.659   8.182   1.014  0.3185  0.3247  0.1735
   24MOL0     O 3083   0.865   7.867   1.085  0.2980  0.1197  0.1663
   24MOL0     C 3084   1.007   7.749   0.871 -0.0893 -0.6590  0.2537
   24MOL0     C 3085   1.050   7.686   0.758 -0.6725  0.1039 -0.8134
   24MOL0     N 3086   1.601   7.671   0.178 -0.0549  0.1846 -0.4157
   24MOL0     N 3087   1.731   7.657   0.190 -0.2732 -0.2674 -0.0530
   24MOL0     C 3088   2.814   7.917   0.322  0.4172  0.5743  0.3334
   24MOL0     C 3089   2.894   7.987   0.220 -0.0097 -0.3060  0.0512
   24MOL0     C 3090   3.216   8.227   0.056 -0.0881 -1.2846  1.3736
   24MOL0     C 3091   3.163   8.338  -0.015 -0.1918 -0.3630  0.5052
   24MOL0     C 3092   3.257   8.407  -0.094  0.1976  0.4361  0.0533
   24MOL0     C 3093   3.387   8.379  -0.115  0.1458  0.0028 -0.9177
   24MOL0     O 3094   3.473   8.460  -0.189  0.5196 -0.3343  0.2663
   24MOL0     C 3095   3.603   8.498  -0.130  0.0548  0.2708  0.2160
   24MOL0     C 3096   3.715   8.412  -0.199 -0.1015 -0.0478  0.4422
   24MOL0     C 3097   3.848   8.407  -0.128 -0.1917  0.3681  0.4822
   24MOL0     C 3098   3.911   8.548  -0.093 -0.4768  1.6648  0.0846
   24MOL0     C 3099   3.987   8.536   0.033  0.8294 -0.6254  1.2255
   24MOL0     C 3100   4.057   8.540   0.134  0.0190  0.5662  1.0085
   24MOL0     C 3101   3.438   8.265  -0.048 -0.0388 -0.2142  0.3106
   24MOL0     C 3102   3.351   8.187   0.026 -0.3486 -0.2733 -0.9287
   24MOL0     H 3103   2.880   8.297   0.370 -1.7303  0.6091  1.7594
   24MOL0     H 3104   2.738   8.176   0.525  1.1258 -1.0791  0.5129
   24MOL0     H 3105   2.498   8.000   0.490 -0.0702  0.9390  0.1462
   24MOL0     H 3106   2.567   8.045   0.636 -4.4133  1.8234 -0.1001
   24MOL0     H 3107   2.538   7.805   0.719 -0.0301 -3.5604 -1.5990
   24MOL0     H 3108   2.493   7.759   0.551  0.0497 -0.2280 -0.4510
   24MOL0     H 3109   2.283   7.914   0.585 -0.3078 -1.1979 -0.6661
   24MOL0     H 3110   2.309   7.908   0.742  1.8234  0.2194 -0.5050
   24MOL0     H 3111   2.313   7.631   0.593 -0.8264 -0.5974  1.8374
   24MOL0     H 3112   2.323   7.669   0.753 -0.2224  0.4899 -0.5742
   24MOL0     H 3113   2.095   7.774   0.724 -0.6157  1.0384 -0.3975
   24MOL0     H 3114   2.089   7.611   0.655 -0.4014  0.5054 -1.1354
   24MOL0     H 3115   2.143   7.713   0.421 -1.2526 -1.4638  0.3887
   24MOL0     H 3116   2.098   7.867   0.497  2.1081 -0.5995  0.3891
   24MOL0     H 3117   1.948   7.608   0.492  4.3013 -0.7316 -0.4150
   24MOL0     H 3118   1.889   7.763   0.560  1.0263  2.7015 -0.4021
   24MOL0     H 3119   1.972   7.686   0.276 -0.7096 -0.6626 -0.6444
   24MOL0     H 3120   1.927   7.860   0.317 -2.8802  0.9332 -1.1348
   24MOL0     H 3121   1.658   7.862   0.435 -4.9293 -1.3576  0.8617
   24MOL0     H 3122   1.366   7.821   0.182 -0.6613  2.6719  0.4201
   24MOL0     H 3123   1.392   7.904   0.320 -5.3065  1.5972 -2.6112
   24MOL0     H 3124   1.419   7.688   0.450 -2.1681  2.0449  1.0131
   24MOL0     H 3125   1.341   7.604   0.310 -1.7272  1.9995 -4.0049
   24MOL0     H 3126   1.210   7.808   0.502  1.3559  0.8183  0.2745
   24MOL0     H 3127   1.142   7.770   0.345  0.7497 -1.9856 -1.3446
   24MOL0     H 3128   1.212   7.571   0.560  1.6690  2.5151  0.3206
   24MOL0     H 3129   1.151   7.523   0.406  1.5719  1.2330 -1.0093
   24MOL0     H 3130   0.790   7.744   0.538 -1.5139  0.1822  1.9228
   24MOL0     H 3131   0.722   7.876   0.716  2.2998  2.6999  1.4742
   24MOL0     H 3132   0.653   7.906   1.216  4.3526  0.5267  1.0025
   24MOL0     H 3133   0.611   8.069   1.379  1.9119  0.7136 -0.4272
   24MOL0     H 3134   0.747   8.228   1.486 -1.6835 -2.5379 -0.7001
   24MOL0     H 3135   0.575   8.222   1.517 -0.7097  0.4803  0.7433
   24MOL0     H 3136   0.669   8.384   1.661  2.6172 -1.1886  0.0358
   24MOL0     H 3137   0.591   8.484   1.551 -1.8945 -2.7000  0.2843
   24MOL0     H 3138   0.821   8.487   1.437 -0.0715 -1.3432 -0.6108
   24MOL0     H 3139   0.889   8.408   1.588 -0.1918  0.4463  0.3875
   24MOL0     H 3140   0.715   8.665   1.579  0.2044 -0.7841 -1.2436
   24MOL0     H 3141   0.789   8.601   1.724 -2.2226  0.5909  0.0080
   24MOL0     H 3142   0.910   8.786   1.632 -0.0362 -0.8115 -0.1721
   24MOL0     H 3143   0.960   8.670   1.499  1.3284  1.8169 -0.0312
   24MOL0     H 3144   1.054   8.524   1.643 -0.0074  0.8926 -0.9090
   24MOL0     H 3145   1.038   8.618   1.793 -2.6625 -2.1041 -0.2459
   24MOL0     H 3146   1.221   8.677   1.558  2.9233 -2.2643  1.5771
   24MOL0     H 3147   1.133   8.805   1.639 -2.0359 -0.1760  1.9575
   24MOL0     H 3148   1.234   8.740   1.855 -3.4331  2.3192 -2.2339
   24MOL0     H 3149   1.372   8.778   1.736  0.1108 -1.5886 -4.0290
   24MOL0     H 3150   0.618   8.383   1.089  3.9216 -0.3261 -4.2950
   24MOL0     H 3151   0.665   8.217   0.911 -0.1472  0.0869  0.0633
   24MOL0     H 3152   1.050   7.740   0.970 -1.4633 -2.5793  0.7252
   24MOL0     H 3153   1.136   7.620   0.762 -0.4947  0.2948 -1.4708
   24MOL0     H 3154   2.795   7.811   0.306 -1.4286  0.5777  2.0855
   24MOL0     H 3155   2.935   7.933   0.135  1.7293 -1.8242  1.7604
   24MOL0     H 3156   3.064   8.380   0.001 -2.9508 -5.8514  0.2755
   24MOL0     H 3157   3.222   8.497  -0.144 -0.2708 -0.5066 -1.3872
   24MOL0     H 3158   3.609   8.476  -0.023 -1.5557 -0.7530  0.1419
   24MOL0     H 3159   3.630   8.604  -0.135  2.4684 -0.3557 -1.3446
   24MOL0     H 3160   3.676   8.311  -0.218 -1.1897  0.3580  0.4868
   24MOL0     H 3161   3.735   8.444  -0.301 -3.1099  0.4564 -0.0649
   24MOL0     H 3162   3.909   8.347  -0.195 -0.6263 -1.3878  1.6050
   24MOL0     H 3163   3.837   8.350  -0.036 -2.1219  0.5556  0.3998
   24MOL0     H 3164   3.981   8.570  -0.174 -1.0123  2.7710 -0.0925
   24MOL0     H 3165   3.836   8.627  -0.082  0.2775  2.3075  0.7300
   24MOL0     H 3166   4.119   8.549   0.220  1.2604  1.0265  0.0982
   24MOL0     H 3167   3.543   8.239  -0.056 -0.0871 -0.9055  1.7025
   24MOL0     H 3168   3.370   8.098   0.086 -0.8508 -1.1324 -2.0183
   25MOL0     O 3169   9.988  10.660  10.162 -0.3535  0.7317 -0.1302
   25MOL0     C 3170   9.952  10.651  10.049  0.8632 -0.6419 -0.4842
   25MOL0     O 3171   9.840  10.582  10.008  0.2023  0.1776  0.0738
   25MOL0     C 3172   9.778  10.488  10.093 -0.7162 -0.8598 -0.4726
   25MOL0     C 3173   9.650  10.510  10.139 -0.0711  0.0460 -0.4257
   25MOL0     C 3174   9.574  10.429  10.212  0.5831  0.5201  0.4219
   25MOL0     C 3175   9.623  10.299  10.221  0.5134  0.1370  0.2313
   25MOL0     O 3176   9.552  10.203  10.274  0.7978 -0.2280 -0.4184
   25MOL0     C 3177   9.586  10.173  10.412 -0.3145  0.2045 -0.5309
   25MOL0     C 3178   9.477  10.086  10.482  0.1608 -0.8662  1.1185
   25MOL0     C 3179   9.359  10.166  10.514  0.2072  0.1162  0.6271
   25MOL0     C 3180   9.261  10.097  10.609 -0.2677  0.3679  0.1998
   25MOL0     C 3181   9.142  10.189  10.625 -0.2582  1.2270  0.2835
   25MOL0     C 3182   9.050  10.136  10.728 -0.4143  0.1902 -0.1592
   25MOL0     C 3183   8.926  10.215  10.738 -0.4795  0.0868 -0.0745
   25MOL0     C 3184   8.850  10.178  10.869 -0.9708 -0.4164  0.5966
   25MOL0     N 3185   8.714  10.224  10.868 -0.5024  0.5691 -0.4900
   25MOL0     C 3186   8.620  10.166  10.794  0.4214  0.2863  0.9012
   25MOL0     C 3187   8.500  10.208  10.845  0.5323 -1.1570  0.3763
   25MOL0     C 3188   8.363  10.177  10.794  1.1429  0.3715 -1.2164
   25MOL0     C 3189   8.249  10.211  10.899 -0.1683  0.2781  0.0143
   25MOL0     C 3190   8.237  10.094  11.000 -0.2206 -0.0809 -0.7926
   25MOL0     C 3191   8.110  10.108  11.091  0.1596 -0.9031  0.1763
   25MOL0     O 3192   8.114  10.237  11.145 -0.2153  0.9087  0.1890
   25MOL0     C 3193   8.021  10.267  11.239  0.7982  0.2515  0.1850
   25MOL0     C 3194   8.007  10.400  11.263 -0.3615  0.6980  0.9440
   25MOL0     C 3195   7.908  10.430  11.367 -0.2995  0.0776  0.2599
   25MOL0     C 3196   7.833  10.336  11.431 -0.6952  0.5936 -0.1426
   25MOL0     C 3197   7.732  10.386  11.519 -0.2748  0.2749 -0.3648
   25MOL0     O 3198   7.702  10.310  11.636  0.6611  0.1448 -0.9613
   25MOL0     C 3199   7.595  10.342  11.715  1.2827  0.1371  1.1730
   25MOL0     C 3200   7.467  10.346  11.658 -0.9696 -0.4035  0.1909
   25MOL0     C 3201   7.351  10.381  11.731  0.4258 -0.6626 -0.0925
   25MOL0     C 3202   7.361  10.407  11.875  0.5148 -0.0176 -0.4640
   25MOL0     O 3203   7.250  10.433  11.957 -0.1241 -0.2707  0.2506
   25MOL0     C 3204   7.147  10.521  11.899  0.8523  0.5178  0.1219
   25MOL0     C 3205   7.161  10.657  11.971  0.5774 -0.0272  0.0769
   25MOL0     C 3206   7.041  10.744  11.963 -0.4119 -0.5104 -0.5530
   25MOL0     C 3207   7.030  10.866  12.065 -0.2565 -0.2710 -1.6312
   25MOL0     C 3208   6.900  10.850  12.150 -0.0074 -0.3117  0.4049
   25MOL0     C 3209   6.775  10.860  12.051  0.4436 -0.2181 -0.5936
   25MOL0     C 3210   6.642  10.838  12.136 -0.4445  0.3468 -0.3676
   25MOL0     C 3211   6.641  10.747  12.264 -0.6450 -0.3524 -0.5945
   25MOL0    Cl 3212   6.665  10.583  12.196  0.3899  0.1653  0.7551
   25MOL0     C 3213   7.484  10.395  11.935  0.0766  0.1540  0.0539
   25MOL0     C 3214   7.602  10.358  11.857 -0.1834  0.5435 -0.6037
   25MOL0     O 3215   7.684  10.494  11.489  0.6096  0.2404  0.0575
   25MOL0     C 3216   7.851  10.197  11.402 -0.1244  0.1274 -0.6026
   25MOL0     C 3217   7.946  10.167  11.305  0.1030 -0.4753  0.4233
   25MOL0     N 3218   8.528  10.309  10.928 -0.2275 -0.6027 -0.4107
   25MOL0     N 3219   8.653  10.313  10.949  0.7621  0.0484 -1.0085
   25MOL0     C 3220   9.752  10.261  10.167  0.6893  0.0321 -0.0027
   25MOL0     C 3221   9.831  10.360  10.113 -0.5038  0.1159  0.0237
   25MOL0     C 3222  10.034  10.718   9.945 -0.1782  0.2880 -0.0410
   25MOL0     C 3223   9.985  10.709   9.812 -0.1452 -0.0226 -0.3171
   25MOL0     C 3224  10.053  10.758   9.703 -0.2886 -0.9322  0.6363
   25MOL0     C 3225  10.170  10.823   9.720  0.5951  0.9354  0.6283
   25MOL0     O 3226  10.252  10.881   9.620 -0.1405  0.1703 -0.4212
   25MOL0     C 3227  10.276  10.801   9.500 -0.4504  0.0905 -0.1492
   25MOL0     C 3228  10.419  10.731   9.511 -0.9760 -0.6628 -0.2986
   25MOL0     C 3229  10.475  10.675   9.384  0.2393  0.5199 -0.2353
   25MOL0     C 3230  10.530  10.786   9.298  0.2567 -0.6801 -0.4227
   25MOL0     C 3231  10.565  10.749   9.166  0.7439  0.2129  0.1615
   25MOL0     C 3232  10.596  10.720   9.051  0.1991 -0.2744 -0.2429
   25MOL0     C 3233  10.218  10.842   9.851 -0.1277  0.2301 -0.1564
   25MOL0     C 3234  10.148  10.794   9.964  1.0734  0.1398  0.2404
   25MOL0     H 3235   9.597  10.602  10.117  1.1038  1.3630  1.8459
   25MOL0     H 3236   9.475  10.449  10.253  0.6955  4.0185 -0.7126
   25MOL0     H 3237   9.614  10.263  10.466  0.6976 -0.8151  0.7031
   25MOL0     H 3238   9.678  10.113  10.414 -1.8518 -2.2997 -0.1561
   25MOL0     H 3239   9.535  10.041  10.563  0.7305  0.2310  1.3374
   25MOL0     H 3240   9.454  10.005  10.412  1.8336  0.8041 -1.5734
   25MOL0     H 3241   9.304  10.184  10.422 -1.5833 -2.0364  1.2050
   25MOL0     H 3242   9.398  10.262  10.549  3.2197 -0.4131 -0.9114
   25MOL0     H 3243   9.223   9.999  10.580  0.0584 -0.3269  2.0025
   25MOL0     H 3244   9.320  10.084  10.701  0.3318  1.4056 -0.0261
   25MOL0     H 3245   9.081  10.178  10.535  1.6950 -1.1780 -0.8498
   25MOL0     H 3246   9.180  10.287  10.657  1.0328  0.7798  0.1536
   25MOL0     H 3247   9.116  10.133  10.815 -0.3308  1.5499 -0.1531
   25MOL0     H 3248   9.029  10.030  10.718 -2.2612  0.4655  0.3174
   25MOL0     H 3249   8.958  10.319  10.744 -0.3530  0.4928 -4.4810
   25MOL0     H 3250   8.869  10.208  10.645  0.5841 -0.5938 -0.6931
   25MOL0     H 3251   8.903  10.217  10.956  0.5153  1.4005 -1.0051
   25MOL0     H 3252   8.842  10.069  10.880 -3.4474 -0.4168 -0.6535
   25MOL0     H 3253   8.637  10.090  10.719  0.9725 -0.8590  2.1529
   25MOL0     H 3254   8.352  10.071  10.772 -0.6700  0.4299 -0.7833
   25MOL0     H 3255   8.341  10.226  10.699 -0.5318 -2.9319 -2.6686
   25MOL0     H 3256   8.154  10.217  10.845  0.9522  0.6718 -1.9842
   25MOL0     H 3257   8.263  10.308  10.948  2.3985  1.5157 -2.8685
   25MOL0     H 3258   8.225   9.997  10.952 -1.5822 -0.4747  0.2702
   25MOL0     H 3259   8.326  10.084  11.062 -1.4208 -0.5947  0.9436
   25MOL0     H 3260   8.109  10.026  11.164  1.3834 -1.1628 -0.0716
   25MOL0     H 3261   8.027  10.083  11.023 -2.1008 -0.6245  2.6438
   25MOL0     H 3262   8.077  10.469  11.216  3.8660 -0.8849  4.2084
   25MOL0     H 3263   7.906  10.536  11.392 -0.4077  0.7196 -2.2137
   25MOL0     H 3264   7.440  10.312  11.559 -1.8316 -1.5463  0.8076
   25MOL0     H 3265   7.248  10.380  11.696  1.2366 -0.3679 -2.6869
   25MOL0     H 3266   7.046  10.480  11.911  1.0300 -0.2409 -0.8190
   25MOL0     H 3267   7.146  10.542  11.792 -3.4086 -1.5074 -0.4335
   25MOL0     H 3268   7.243  10.710  11.922 -1.3758  1.5212 -1.6791
   25MOL0     H 3269   7.186  10.633  12.075  1.6304 -0.7851 -0.3310
   25MOL0     H 3270   6.952  10.682  11.977  0.3233 -0.8257  6.3153
   25MOL0     H 3271   7.038  10.776  11.858 -5.4900  0.7406 -0.3209
   25MOL0     H 3272   7.121  10.870  12.124 -0.9242  1.0624 -0.6619
   25MOL0     H 3273   7.040  10.958  12.007  0.9170 -2.2164 -4.8114
   25MOL0     H 3274   6.893  10.935  12.219  1.2699 -1.2342  1.7372
   25MOL0     H 3275   6.908  10.754  12.201  2.1607 -2.1100 -2.9383
   25MOL0     H 3276   6.773  10.787  11.970  2.0293 -0.1643 -0.7154
   25MOL0     H 3277   6.762  10.959  12.007 -1.5920 -0.5065 -0.7506
   25MOL0     H 3278   6.617  10.935  12.181  2.2590  1.6027 -1.3120
   25MOL0     H 3279   6.564  10.801  12.068  0.2589 -0.5142 -0.7214
   25MOL0     H 3280   6.544  10.764  12.311 -0.9951 -0.3118 -1.3134
   25MOL0     H 3281   6.726  10.770  12.329 -1.0963  1.8570 -0.6995
   25MOL0     H 3282   7.503  10.413  12.040 -0.3385  2.4800 -0.2341
   25MOL0     H 3283   7.700  10.355  11.902 -0.8577  1.2828  0.9968
   25MOL0     H 3284   7.784  10.124  11.446  0.6472  0.0850  0.5366
   25MOL0     H 3285   7.957  10.060  11.290  3.2870 -0.2306  0.3353
   25MOL0     H 3286   9.776  10.157  10.185 -2.0407 -0.7338 -0.3453
   25MOL0     H 3287   9.929  10.327  10.082 -1.2502 -2.6001  0.2504
   25MOL0     H 3288   9.895  10.652   9.790 -0.3830 -0.1681  0.9829
   25MOL0     H 3289  10.024  10.741   9.599 -2.1962  0.9671  0.7786
   25MOL0     H 3290  10.293  10.864   9.412  2.4744  0.6694  0.7151
   25MOL0     H 3291  10.200  10.725   9.479 -2.1987  1.3362  1.3447
   25MOL0     H 3292  10.499  10.791   9.556 -1.4001 -1.6780  1.9015
   25MOL0     H 3293  10.409  10.658   9.591 -2.2559 -0.0537  0.1264
   25MOL0     H 3294  10.388  10.621   9.346  1.5291 -2.5777  0.8772
   25MOL0     H 3295  10.562  10.609   9.393  0.0500  0.1495 -1.0909
   25MOL0     H 3296  10.462  10.871   9.285  0.8341  0.0750  1.2332
   25MOL0     H 3297  10.616  10.834   9.346 -1.6703  1.2710  1.3366
   25MOL0     H 3298  10.629  10.700   8.951  4.0245 -0.4740  0.9042
   25MOL0     H 3299  10.313  10.893   9.859  1.1225 -2.1333  1.0453
   25MOL0     H 3300  10.190  10.824  10.060  0.5585 -0.5882  0.6929
   26MOL0     O 3301   5.810  10.458   2.428 -0.4725  0.6236 -0.5000
   26MOL0     C 3302   5.825  10.525   2.321  0.7527 -0.3785  0.4572
   26MOL0     O 3303   5.903  10.490   2.211  0.4263 -0.7643  0.1240
   26MOL0     C 3304   5.960  10.361   2.214 -0.8434 -0.1175  0.0213
   26MOL0     C 3305   5.931  10.283   2.107  1.0824  0.3383 -0.4618
   26MOL0     C 3306   6.004  10.160   2.088 -0.2721  0.1453 -0.4912
   26MOL0     C 3307   6.111  10.128   2.162 -0.1243  0.0232 -0.0657
   26MOL0     O 3308   6.171  10.007   2.132 -0.1023 -0.4101 -0.6685
   26MOL0     C 3309   6.309   9.997   2.154  0.1222  0.6489 -0.8369
   26MOL0     C 3310   6.369   9.869   2.088  0.3048  0.2206 -0.4512
   26MOL0     C 3311   6.368   9.750   2.188 -0.0798  0.3353 -0.2661
   26MOL0     C 3312   6.455   9.642   2.127 -0.5282  0.0303 -0.5638
   26MOL0     C 3313   6.366   9.540   2.058  0.7638  0.0374 -0.6941
   26MOL0     C 3314   6.443   9.409   2.009  0.0010  1.1235  0.5423
   26MOL0     C 3315   6.541   9.441   1.896 -0.5269  0.1227  0.4309
   26MOL0     C 3316   6.493   9.492   1.765 -0.5865 -0.1985 -0.1991
   26MOL0     N 3317   6.406   9.407   1.696  0.2951 -0.0691  0.2001
   26MOL0     C 3318   6.274   9.402   1.714  0.3566 -0.0920 -0.6062
   26MOL0     C 3319   6.230   9.311   1.625 -0.2409  0.4528  0.2202
   26MOL0     C 3320   6.092   9.273   1.593 -0.2475  0.4986 -0.3209
   26MOL0     C 3321   5.993   9.291   1.706 -0.2789 -0.0464  0.1365
   26MOL0     C 3322   5.864   9.218   1.662 -0.2374  0.3942  0.2935
   26MOL0     C 3323   5.738   9.257   1.730 -0.7066  0.0269  0.4607
   26MOL0     O 3324   5.753   9.202   1.863 -0.4288  0.1816  0.6600
   26MOL0     C 3325   5.699   9.083   1.887  0.8024  0.0635 -0.5270
   26MOL0     C 3326   5.623   9.001   1.798 -0.3521 -0.8065 -0.0589
   26MOL0     C 3327   5.555   8.883   1.824  0.3564  0.1057 -0.5708
   26MOL0     C 3328   5.537   8.846   1.964 -0.9406 -0.8071  0.9516
   26MOL0     C 3329   5.454   8.735   2.000  0.7929 -0.3269 -0.0124
   26MOL0     O 3330   5.375   8.679   1.901  0.6119  0.6646  0.5092
   26MOL0     C 3331   5.294   8.573   1.942  0.0522  0.5710  0.3680
   26MOL0     C 3332   5.172   8.585   2.004 -0.0332 -0.4152  0.8936
   26MOL0     C 3333   5.089   8.471   2.030 -0.2838 -1.2607 -0.1637
   26MOL0     C 3334   5.132   8.346   1.997 -0.1541 -0.2159 -0.2674
   26MOL0     O 3335   5.055   8.236   2.023 -0.2981 -0.2546 -0.0268
   26MOL0     C 3336   5.079   8.167   2.147  0.0576  0.0278 -0.1033
   26MOL0     C 3337   4.950   8.103   2.194  0.8523  0.3682  0.5564
   26MOL0     C 3338   4.935   7.979   2.129  0.2532 -0.2850 -0.2303
   26MOL0     C 3339   4.817   7.890   2.172  0.5413 -0.2302 -0.7314
   26MOL0     C 3340   4.843   7.805   2.297 -0.3844 -0.7936 -1.0987
   26MOL0     C 3341   4.709   7.760   2.366  0.1361  0.4413  0.6786
   26MOL0     C 3342   4.616   7.664   2.296  0.4794 -0.1265 -0.4184
   26MOL0     C 3343   4.689   7.524   2.283 -0.9433  0.2342  0.1824
   26MOL0    Cl 3344   4.837   7.521   2.182  0.0989 -0.3714 -0.0178
   26MOL0     C 3345   5.257   8.329   1.928  0.9653 -0.4086  0.4319
   26MOL0     C 3346   5.333   8.440   1.902 -0.5911 -1.0185  0.1844
   26MOL0     O 3347   5.442   8.710   2.122 -0.3212  0.1152  0.3939
   26MOL0     C 3348   5.605   8.928   2.058 -0.5092  0.4812 -0.0843
   26MOL0     C 3349   5.688   9.037   2.022  0.0825 -0.3896  0.4094
   26MOL0     N 3350   6.342   9.270   1.546  0.3334 -0.2751 -0.1769
   26MOL0     N 3351   6.446   9.336   1.585  0.4815 -0.3647 -0.3879
   26MOL0     C 3352   6.141  10.207   2.274  0.3240 -0.2454  1.1321
   26MOL0     C 3353   6.065  10.322   2.302 -0.0071 -0.1864 -0.4730
   26MOL0     C 3354   5.754  10.657   2.303  0.0654 -0.3029  0.0339
   26MOL0     C 3355   5.781  10.740   2.191 -0.0759  0.7828  0.9596
   26MOL0     C 3356   5.704  10.849   2.153 -0.2622  0.1463  0.5356
   26MOL0     C 3357   5.607  10.900   2.231 -0.1972  0.9128 -0.5916
   26MOL0     O 3358   5.555  11.019   2.199  0.7857  0.3005  0.2925
   26MOL0     C 3359   5.422  11.033   2.229  0.2130  0.2165  0.7914
   26MOL0     C 3360   5.380  11.159   2.152 -0.2726 -0.1836  0.6494
   26MOL0     C 3361   5.229  11.185   2.170 -0.0050 -0.0133  0.1787
   26MOL0     C 3362   5.193  11.332   2.222  0.1508 -0.5799 -0.2990
   26MOL0     C 3363   5.230  11.333   2.365  0.5907  0.6130  0.3707
   26MOL0     C 3364   5.243  11.332   2.488  0.5893 -0.2851  0.1253
   26MOL0     C 3365   5.580  10.829   2.350  0.3561  0.3116  0.2961
   26MOL0     C 3366   5.657  10.715   2.386  0.6441 -0.8976 -1.0708
   26MOL0     H 3367   5.856  10.310   2.034 -1.4755  1.3021  2.3238
   26MOL0     H 3368   5.981  10.085   2.014 -0.4993 -2.6243  2.2054
   26MOL0     H 3369   6.333   9.988   2.260 -1.8293 -2.3683 -0.5347
   26MOL0     H 3370   6.358  10.086   2.115  1.0729  1.9081  2.8377
   26MOL0     H 3371   6.474   9.895   2.074  0.5130 -0.5919 -0.4663
   26MOL0     H 3372   6.321   9.841   1.994 -0.6190  0.0949  0.0487
   26MOL0     H 3373   6.265   9.717   2.205  0.4015 -0.3501  1.5442
   26MOL0     H 3374   6.409   9.777   2.285  0.7137 -1.2908 -0.1189
   26MOL0     H 3375   6.527   9.677   2.053  0.2288  1.5942  0.8450
   26MOL0     H 3376   6.504   9.603   2.218 -2.6872  1.2851  1.2305
   26MOL0     H 3377   6.317   9.595   1.977 -3.3044 -0.4098  1.2200
   26MOL0     H 3378   6.283   9.508   2.121  2.3953  0.3680  1.7617
   26MOL0     H 3379   6.358   9.349   1.975 -0.2643  1.8299 -0.0725
   26MOL0     H 3380   6.487   9.356   2.094  0.7408  3.6364  1.8272
   26MOL0     H 3381   6.615   9.509   1.938 -0.9457  0.2794  0.9248
   26MOL0     H 3382   6.585   9.344   1.872 -1.5524  0.0029 -1.1498
   26MOL0     H 3383   6.579   9.512   1.700 -2.7588 -0.5304 -3.3830
   26MOL0     H 3384   6.447   9.586   1.797 -0.4743 -0.4116  0.6244
   26MOL0     H 3385   6.206   9.452   1.782 -0.1530  0.6004 -1.5985
   26MOL0     H 3386   6.097   9.169   1.562  1.9445  1.4503 -3.5703
   26MOL0     H 3387   6.056   9.324   1.504 -0.8517 -1.3386 -1.1740
   26MOL0     H 3388   5.988   9.395   1.742  2.5118  0.2226  0.0069
   26MOL0     H 3389   6.039   9.233   1.787  0.3993 -0.1736 -0.3366
   26MOL0     H 3390   5.846   9.242   1.557 -5.5433 -2.5473  0.1654
   26MOL0     H 3391   5.875   9.110   1.675 -2.4917 -0.4346 -3.2114
   26MOL0     H 3392   5.652   9.216   1.676  1.9029 -3.4862 -1.4412
   26MOL0     H 3393   5.744   9.366   1.737  0.7176  0.0822 -0.9450
   26MOL0     H 3394   5.622   9.026   1.692  1.8387 -1.7150 -0.3599
   26MOL0     H 3395   5.499   8.841   1.741 -0.3796  1.3841 -0.7473
   26MOL0     H 3396   5.132   8.683   2.027 -0.1730 -1.1539  4.4767
   26MOL0     H 3397   4.984   8.487   2.055 -0.9080 -1.5258 -2.4194
   26MOL0     H 3398   5.093   8.232   2.234 -3.3974 -1.0524  1.4448
   26MOL0     H 3399   5.156   8.089   2.145 -1.9659 -2.2707  2.8189
   26MOL0     H 3400   4.867   8.173   2.197  1.1805  0.7223  1.8680
   26MOL0     H 3401   4.967   8.080   2.300  2.6969 -2.2102 -0.1943
   26MOL0     H 3402   5.028   7.922   2.138 -0.4174 -2.1483 -3.4998
   26MOL0     H 3403   4.927   8.007   2.024  1.0371 -2.8999 -1.0774
   26MOL0     H 3404   4.731   7.957   2.177  0.9323  0.1819  2.5104
   26MOL0     H 3405   4.802   7.826   2.085  1.0680  1.0618 -1.7979
   26MOL0     H 3406   4.888   7.874   2.369  0.6847  0.2076 -2.6402
   26MOL0     H 3407   4.917   7.730   2.267  0.8869 -0.6818  1.5130
   26MOL0     H 3408   4.648   7.850   2.377 -1.4062 -0.0518 -2.8063
   26MOL0     H 3409   4.742   7.703   2.454  1.5318 -2.6472 -1.6275
   26MOL0     H 3410   4.533   7.653   2.365  2.4123 -0.5131  1.9926
   26MOL0     H 3411   4.582   7.704   2.200 -1.1348  1.6096  0.7979
   26MOL0     H 3412   4.624   7.450   2.234 -0.0536  0.8490 -2.0441
   26MOL0     H 3413   4.711   7.489   2.385 -2.6596 -1.9624 -0.1178
   26MOL0     H 3414   5.275   8.228   1.893 -1.5900 -0.8363  0.1382
   26MOL0     H 3415   5.426   8.450   1.846  0.1958  2.4762  1.8203
   26MOL0     H 3416   5.588   8.906   2.163  0.3685 -0.1228 -0.0582
   26MOL0     H 3417   5.735   9.108   2.089 -1.0937  1.7949 -0.9828
   26MOL0     H 3418   6.219  10.185   2.347  2.0029  0.2403 -0.4341
   26MOL0     H 3419   6.092  10.385   2.386 -0.6520 -2.6854  1.7575
   26MOL0     H 3420   5.859  10.708   2.123  0.4987  0.1751  1.8736
   26MOL0     H 3421   5.729  10.908   2.065 -2.6715  0.1863 -0.2024
   26MOL0     H 3422   5.409  11.058   2.335  0.7912  3.6049  0.1883
   26MOL0     H 3423   5.353  10.954   2.198  1.6582  0.5620 -4.2359
   26MOL0     H 3424   5.430  11.252   2.180 -0.3015  0.9084 -2.5202
   26MOL0     H 3425   5.402  11.141   2.046  5.1850  0.2325  1.4443
   26MOL0     H 3426   5.192  11.112   2.242 -0.4873 -0.0646 -0.1128
   26MOL0     H 3427   5.175  11.171   2.075 -1.5893  0.4658  0.9702
   26MOL0     H 3428   5.251  11.405   2.165  1.2992 -1.3986 -0.2275
   26MOL0     H 3429   5.087  11.357   2.216 -0.3085 -2.0982  0.8180
   26MOL0     H 3430   5.261  11.338   2.593  0.5353 -1.1186  0.1833
   26MOL0     H 3431   5.502  10.871   2.413  0.5164 -0.5225  1.0689
   26MOL0     H 3432   5.636  10.672   2.483 -0.9203 -0.2782 -1.1101
   27MOL0     O 3433   8.583   0.010   2.306  0.4001 -0.2066  0.2244
   27MOL0     C 3434   8.574   0.102   2.220  0.8874  0.0257  0.4496
   27MOL0     O 3435   8.458   0.148   2.158  0.0362  0.2038 -0.0393
   27MOL0     C 3436   8.349   0.153   2.237  0.7231 -0.2451  0.6850
   27MOL0     C 3437   8.237   0.102   2.170  0.1585 -0.4626  0.0193
   27MOL0     C 3438   8.128   0.068   2.248  0.2931  0.7032 -0.6783
   27MOL0     C 3439   8.118   0.086   2.387  0.3375 -0.3963 -0.0128
   27MOL0     O 3440   8.010   0.033   2.463 -0.8201  0.8380  0.4344
   27MOL0     C 3441   8.058  -0.078   2.545 -0.4161 -0.5864 -0.1768
   27MOL0     C 3442   8.036  -0.047   2.691 -0.2025 -0.2443 -1.3285
   27MOL0     C 3443   8.096  -0.161   2.770  0.1911 -0.2195  0.6059
   27MOL0     C 3444   8.123  -0.113   2.914  0.3959  0.3137  0.2697
   27MOL0     C 3445   8.153  -0.233   3.005  0.2686 -0.2622 -0.8703
   27MOL0     C 3446   8.196  -0.186   3.136 -0.2367 -0.1436 -0.2125
   27MOL0     C 3447   8.240  -0.302   3.226  0.6332  0.7924  1.4098
   27MOL0     C 3448   8.122  -0.408   3.251 -0.1907  0.0164  0.2007
   27MOL0     N 3449   8.164  -0.507   3.352  0.2478 -0.1628 -0.1671
   27MOL0     C 3450   8.196  -0.483   3.488  0.4048 -0.7030  0.3324
   27MOL0     C 3451   8.244  -0.601   3.542  0.1493  0.5905 -0.7290
   27MOL0     C 3452   8.282  -0.626   3.693  0.7062 -0.8063  0.6049
   27MOL0     C 3453   8.148  -0.660   3.765 -0.1564 -0.9763  0.9800
   27MOL0     C 3454   8.153  -0.657   3.923  0.0672 -0.4825  1.0466
   27MOL0     C 3455   8.026  -0.709   4.005  0.9044  0.1935 -0.3497
   27MOL0     O 3456   7.943  -0.595   4.058 -0.6721 -0.0419  0.4282
   27MOL0     C 3457   7.816  -0.631   4.110 -0.3638 -0.4389  0.9397
   27MOL0     C 3458   7.769  -0.761   4.142  0.3902  0.5884 -0.1225
   27MOL0     C 3459   7.642  -0.777   4.198 -1.2661 -0.1782  1.3885
   27MOL0     C 3460   7.557  -0.673   4.236  0.6618 -0.5287  0.7468
   27MOL0     C 3461   7.423  -0.704   4.285  0.1294  0.4077  0.1555
   27MOL0     O 3462   7.330  -0.607   4.295  0.7874 -0.0526  0.4189
   27MOL0     C 3463   7.198  -0.634   4.328  0.3510 -0.2245  0.0180
   27MOL0     C 3464   7.135  -0.538   4.417 -0.6267  0.5873 -0.0462
   27MOL0     C 3465   7.003  -0.547   4.441  0.5158 -0.1670 -0.7095
   27MOL0     C 3466   6.921  -0.650   4.384  0.1446 -1.1311 -1.0003
   27MOL0     O 3467   6.783  -0.663   4.405  1.2359  1.0084 -0.0520
   27MOL0     C 3468   6.704  -0.554   4.465  0.5617 -1.0934  0.1699
   27MOL0     C 3469   6.564  -0.599   4.458 -0.3774 -0.0117 -0.1393
   27MOL0     C 3470   6.537  -0.729   4.540 -0.1349  0.2620  0.3937
   27MOL0     C 3471   6.423  -0.714   4.645 -0.1951  0.0009 -0.5833
   27MOL0     C 3472   6.402  -0.850   4.700  0.7829  0.5638 -0.4795
   27MOL0     C 3473   6.281  -0.827   4.791  0.5850  0.5110 -0.0413
   27MOL0     C 3474   6.240  -0.961   4.853 -0.2935 -0.1630  0.1866
   27MOL0     C 3475   6.104  -0.940   4.918  0.1689  1.3174  0.4488
   27MOL0    Cl 3476   5.978  -0.919   4.791 -0.0919  0.3615 -0.0680
   27MOL0     C 3477   6.982  -0.741   4.296  0.0589 -0.0043  0.6471
   27MOL0     C 3478   7.124  -0.729   4.267  0.5512  0.2203  0.0475
   27MOL0     O 3479   7.402  -0.826   4.319  0.4593 -1.3393 -0.4816
   27MOL0     C 3480   7.599  -0.546   4.205 -0.0413  0.5097 -0.0998
   27MOL0     C 3481   7.733  -0.528   4.141 -0.4684 -0.5359 -0.2834
   27MOL0     N 3482   8.247  -0.699   3.435  0.5853 -0.7250  0.2213
   27MOL0     N 3483   8.202  -0.633   3.326 -1.1574  0.0682  1.1463
   27MOL0     C 3484   8.225   0.156   2.448 -0.7586 -0.5382 -0.0084
   27MOL0     C 3485   8.341   0.179   2.381 -0.5834 -0.2519 -0.1667
   27MOL0     C 3486   8.703   0.167   2.182  0.7099  0.2132  0.1139
   27MOL0     C 3487   8.820   0.108   2.218  0.2088 -0.5160  0.1091
   27MOL0     C 3488   8.945   0.166   2.176 -0.4497  0.2309 -0.4873
   27MOL0     C 3489   8.944   0.280   2.097 -0.2860 -0.1174  0.2051
   27MOL0     O 3490   9.071   0.324   2.063  0.2016  0.3177 -0.5083
   27MOL0     C 3491   9.155   0.226   1.997  0.7801  0.0513  0.2032
   27MOL0     C 3492   9.287   0.308   1.943  0.0996 -0.0651  0.9428
   27MOL0     C 3493   9.386   0.362   2.050 -0.8539  0.2630 -0.7095
   27MOL0     C 3494   9.496   0.464   2.000  0.6323  0.2190  0.6366
   27MOL0     C 3495   9.558   0.446   1.867 -0.1988 -0.1775  1.3224
   27MOL0     C 3496   9.612   0.446   1.760  0.4232  0.6326 -0.2042
   27MOL0     C 3497   8.826   0.342   2.060 -0.9545  0.4630 -1.3522
   27MOL0     C 3498   8.706   0.282   2.109  0.1209 -0.6638  0.6801
   27MOL0     H 3499   8.244   0.065   2.068 -0.4075  1.1663 -0.6354
   27MOL0     H 3500   8.045   0.025   2.193  0.2703 -1.6819  1.0626
   27MOL0     H 3501   8.165  -0.083   2.526 -0.8068 -0.1824 -2.9544
   27MOL0     H 3502   8.010  -0.171   2.512  1.6041 -1.4029 -0.9405
   27MOL0     H 3503   7.931  -0.039   2.722  0.1136 -2.2956  0.5511
   27MOL0     H 3504   8.098   0.038   2.721  0.1580 -0.9449  0.0225
   27MOL0     H 3505   8.189  -0.193   2.724 -0.7644 -0.6052 -1.1420
   27MOL0     H 3506   8.031  -0.247   2.757  0.2261 -0.0998 -0.3931
   27MOL0     H 3507   8.199  -0.034   2.909 -0.4833  1.1500 -0.1261
   27MOL0     H 3508   8.036  -0.062   2.957  0.3723 -1.3720  2.3960
   27MOL0     H 3509   8.235  -0.300   2.976  1.3234  0.3382  0.5585
   27MOL0     H 3510   8.061  -0.291   3.016  1.6189 -2.6556 -1.3794
   27MOL0     H 3511   8.114  -0.136   3.187 -1.3227 -1.0325 -1.0467
   27MOL0     H 3512   8.284  -0.124   3.116 -0.6571  0.3021 -0.7336
   27MOL0     H 3513   8.329  -0.352   3.186 -1.9041 -2.0148 -1.1921
   27MOL0     H 3514   8.276  -0.249   3.315  1.2906  2.2384  0.3206
   27MOL0     H 3515   8.098  -0.467   3.162 -0.6112  2.5381 -1.4774
   27MOL0     H 3516   8.036  -0.358   3.297 -0.8772 -1.3579  0.4563
   27MOL0     H 3517   8.170  -0.397   3.549  2.5133 -1.5501  2.6024
   27MOL0     H 3518   8.329  -0.544   3.747 -1.8157  2.1794 -1.3917
   27MOL0     H 3519   8.365  -0.698   3.696  1.1738 -0.2832  0.3601
   27MOL0     H 3520   8.120  -0.761   3.735  2.5678 -1.4880 -0.1839
   27MOL0     H 3521   8.074  -0.584   3.737  1.5523  2.2408  4.2524
   27MOL0     H 3522   8.236  -0.724   3.947  1.7688  0.0955 -2.5177
   27MOL0     H 3523   8.174  -0.560   3.968  0.2738 -0.6352  1.2863
   27MOL0     H 3524   8.055  -0.778   4.086 -1.6947 -1.1657 -0.4727
   27MOL0     H 3525   7.972  -0.761   3.925  2.2358  0.4748 -1.4789
   27MOL0     H 3526   7.817  -0.853   4.112  0.5273 -0.1102  2.1137
   27MOL0     H 3527   7.606  -0.872   4.236 -1.3204  0.5220  3.2185
   27MOL0     H 3528   7.186  -0.452   4.458 -3.0887  2.0465  0.1649
   27MOL0     H 3529   6.966  -0.472   4.510  1.3331 -1.4713  1.2116
   27MOL0     H 3530   6.706  -0.459   4.412 -1.3398 -0.9289  0.3183
   27MOL0     H 3531   6.732  -0.539   4.569 -2.7968  1.7873  0.8456
   27MOL0     H 3532   6.530  -0.602   4.354  0.3077  0.3176 -0.3733
   27MOL0     H 3533   6.492  -0.530   4.504  0.0519  0.5856 -0.3542
   27MOL0     H 3534   6.634  -0.769   4.571 -0.5455 -0.1864  1.1210
   27MOL0     H 3535   6.502  -0.812   4.479 -1.5171 -0.9523  2.6861
   27MOL0     H 3536   6.448  -0.638   4.720  0.0582  1.2560 -1.9052
   27MOL0     H 3537   6.327  -0.680   4.605 -2.4505 -1.7695  2.7926
   27MOL0     H 3538   6.481  -0.899   4.759 -2.1128 -1.9086  1.6457
   27MOL0     H 3539   6.372  -0.925   4.626  1.1557  0.4654 -0.5371
   27MOL0     H 3540   6.202  -0.793   4.724 -0.4827 -0.4097  0.7063
   27MOL0     H 3541   6.307  -0.758   4.871  1.1366 -0.9212  1.0678
   27MOL0     H 3542   6.252  -1.050   4.791  3.5536 -1.3750  2.3375
   27MOL0     H 3543   6.310  -0.981   4.934  0.5481 -2.9813 -1.1041
   27MOL0     H 3544   6.111  -0.853   4.984  0.4037  0.1620  2.0166
   27MOL0     H 3545   6.087  -1.033   4.973  3.0276  0.1354 -0.4538
   27MOL0     H 3546   6.916  -0.814   4.252 -1.5908  0.6980  1.8689
   27MOL0     H 3547   7.174  -0.792   4.194  1.1108  0.1631  0.4713
   27MOL0     H 3548   7.531  -0.462   4.207 -1.1763 -0.4073  0.2879
   27MOL0     H 3549   7.774  -0.429   4.122 -1.0756 -0.4521 -1.2515
   27MOL0     H 3550   8.205   0.185   2.551 -1.3314 -2.1883  0.3869
   27MOL0     H 3551   8.427   0.227   2.427 -0.6067 -2.0413  1.8934
   27MOL0     H 3552   8.816   0.013   2.271  3.0935  1.3557  4.2473
   27MOL0     H 3553   9.032   0.106   2.199  0.1039  0.8134 -1.0470
   27MOL0     H 3554   9.098   0.195   1.908  1.5224 -1.5935  0.2626
   27MOL0     H 3555   9.180   0.134   2.050 -3.0052  0.7981  3.8943
   27MOL0     H 3556   9.337   0.264   1.856 -3.0744  2.0951 -2.2408
   27MOL0     H 3557   9.249   0.404   1.908  2.3430  1.8397  3.2670
   27MOL0     H 3558   9.444   0.276   2.085 -1.9412 -0.1722  0.0726
   27MOL0     H 3559   9.336   0.405   2.138  0.9894 -1.5220  1.3475
   27MOL0     H 3560   9.463   0.568   1.987  1.7579  0.9565  2.9737
   27MOL0     H 3561   9.574   0.471   2.077  1.1614  1.6038  0.0206
   27MOL0     H 3562   9.670   0.440   1.670  1.4769  0.2183  0.4942
   27MOL0     H 3563   8.837   0.432   2.000  2.0391 -0.2415 -2.0379
   27MOL0     H 3564   8.607   0.322   2.090  0.1678  0.0475  1.8587
   28MOL0     O 3565   6.481   3.700   8.149  0.1169 -0.7323 -0.8137
   28MOL0     C 3566   6.462   3.823   8.160  0.2882 -0.3428 -0.8473
   28MOL0     O 3567   6.556   3.925   8.130 -0.1095 -0.2992 -0.4544
   28MOL0     C 3568   6.689   3.896   8.093  0.1838  0.4910 -0.3466
   28MOL0     C 3569   6.747   3.992   8.001 -1.0492  0.1665  0.0731
   28MOL0     C 3570   6.881   3.984   7.961  0.2042 -0.2305  0.5841
   28MOL0     C 3571   6.962   3.878   7.998 -0.0267  0.3882 -0.1799
   28MOL0     O 3572   7.083   3.879   7.947  0.6605 -0.7138 -0.0838
   28MOL0     C 3573   7.136   3.752   7.904 -0.2103  0.0916  0.2944
   28MOL0     C 3574   7.282   3.755   7.864  0.2339 -0.0470 -0.1104
   28MOL0     C 3575   7.325   3.618   7.817  0.0466 -0.1611  0.2219
   28MOL0     C 3576   7.325   3.502   7.930  1.0322 -1.7871 -0.9490
   28MOL0     C 3577   7.411   3.384   7.897  1.3885 -0.5754  0.1113
   28MOL0     C 3578   7.341   3.302   7.791 -0.7751  0.2985  0.3882
   28MOL0     C 3579   7.440   3.198   7.734  0.6986  0.1643  0.8705
   28MOL0     C 3580   7.366   3.057   7.732 -0.2856 -0.5386  0.4041
   28MOL0     N 3581   7.248   3.036   7.645  0.1561  0.0420  0.2940
   28MOL0     C 3582   7.266   3.003   7.510  0.4217  0.2734  0.1881
   28MOL0     C 3583   7.142   2.992   7.462  1.1097 -0.2467  0.6856
   28MOL0     C 3584   7.092   2.982   7.313  0.2890 -0.2764  0.0386
   28MOL0     C 3585   6.987   2.874   7.288 -0.4163 -0.8982  0.5046
   28MOL0     C 3586   7.041   2.721   7.333  0.5137 -0.0278  0.3163
   28MOL0     C 3587   6.915   2.651   7.380  0.4157  0.3046  1.2091
   28MOL0     O 3588   6.954   2.518   7.433  0.5060 -0.2618 -0.5723
   28MOL0     C 3589   6.971   2.498   7.568  0.4475 -0.3657  0.4128
   28MOL0     C 3590   6.977   2.364   7.617  0.4477 -0.2070 -0.3180
   28MOL0     C 3591   6.973   2.343   7.756 -0.0436  1.0508  0.4159
   28MOL0     C 3592   6.982   2.443   7.851 -0.3967 -0.9739 -0.0034
   28MOL0     C 3593   6.983   2.414   7.993 -0.2465 -0.5725  0.0065
   28MOL0     O 3594   6.963   2.289   8.039 -0.9108 -0.4042  1.0701
   28MOL0     C 3595   7.003   2.229   8.157  1.2376 -0.4360  0.7385
   28MOL0     C 3596   6.912   2.137   8.214  0.1706 -0.1137  0.8394
   28MOL0     C 3597   6.950   2.070   8.323  0.8524 -0.3793 -0.1317
   28MOL0     C 3598   7.072   2.086   8.385  0.6772  0.7030  0.2328
   28MOL0     O 3599   7.115   2.024   8.507 -0.6657  0.0719  0.5170
   28MOL0     C 3600   7.071   1.890   8.528 -0.0830  0.2304 -0.4395
   28MOL0     C 3601   7.139   1.849   8.661  0.2433 -0.2729 -0.1352
   28MOL0     C 3602   7.119   1.957   8.775 -0.5151  0.7518  0.2741
   28MOL0     C 3603   7.163   1.889   8.906 -0.2284 -1.1694 -0.0264
   28MOL0     C 3604   7.134   1.984   9.022  0.2140  0.4998 -0.3841
   28MOL0     C 3605   7.159   1.908   9.148  0.3398  0.2547  0.5341
   28MOL0     C 3606   7.046   1.809   9.178 -0.3614 -0.0074  0.1539
   28MOL0     C 3607   7.081   1.714   9.293 -0.4173 -0.2868  0.2765
   28MOL0    Cl 3608   6.928   1.633   9.313 -0.5877 -0.1502 -0.1304
   28MOL0     C 3609   7.140   2.192   8.330  0.3208 -0.3785 -0.0252
   28MOL0     C 3610   7.117   2.262   8.214  0.5945  0.0507  0.5672
   28MOL0     O 3611   7.019   2.507   8.071 -0.0706  0.3145 -0.0699
   28MOL0     C 3612   6.993   2.576   7.802 -0.2471 -0.0188  0.6174
   28MOL0     C 3613   6.975   2.601   7.666 -0.8789 -0.2680  0.7595
   28MOL0     N 3614   7.051   3.019   7.568  0.1535 -0.3235  0.3830
   28MOL0     N 3615   7.118   3.048   7.674  1.0736 -0.0734  0.5396
   28MOL0     C 3616   6.907   3.780   8.087  0.0766 -0.5752  0.9922
   28MOL0     C 3617   6.773   3.792   8.127  1.7231 -1.0893 -0.8691
   28MOL0     C 3618   6.321   3.861   8.198  0.7025 -0.1615 -0.6926
   28MOL0     C 3619   6.217   3.776   8.232  0.3854  0.6157  0.4670
   28MOL0     C 3620   6.091   3.830   8.266 -0.0121 -0.8278 -0.5596
   28MOL0     C 3621   6.070   3.971   8.277 -0.4200  0.6564 -0.4750
   28MOL0     O 3622   5.947   4.017   8.322  0.8405  0.3640  0.5856
   28MOL0     C 3623   5.936   4.158   8.359  0.0570  0.5841 -0.7641
   28MOL0     C 3624   5.819   4.173   8.464 -0.8607 -0.6063 -0.1241
   28MOL0     C 3625   5.866   4.137   8.613  0.3829 -0.1467  0.0425
   28MOL0     C 3626   5.911   3.990   8.631 -0.3138 -0.0813 -0.0537
   28MOL0     C 3627   5.931   3.960   8.775  0.4809  0.5067 -0.1659
   28MOL0     C 3628   5.946   3.966   8.898 -0.0420 -0.7416 -0.1606
   28MOL0     C 3629   6.168   4.052   8.246  0.8448  0.1245 -0.1072
   28MOL0     C 3630   6.287   4.000   8.204  0.4012 -0.3809 -0.4435
   28MOL0     H 3631   6.691   4.084   7.986  1.2470  1.9827  1.9009
   28MOL0     H 3632   6.927   4.064   7.903 -1.9092 -1.0512 -2.4798
   28MOL0     H 3633   7.072   3.712   7.825  1.7498 -0.7829 -0.9342
   28MOL0     H 3634   7.126   3.683   7.988 -1.8210 -1.2973 -0.9864
   28MOL0     H 3635   7.355   3.788   7.938 -0.6665  1.9985 -0.0519
   28MOL0     H 3636   7.295   3.824   7.780  0.5140 -1.9059 -1.6907
   28MOL0     H 3637   7.427   3.631   7.781  0.6210 -2.1278  0.9952
   28MOL0     H 3638   7.261   3.578   7.737 -0.6876 -0.0036  0.7156
   28MOL0     H 3639   7.363   3.544   8.023 -3.5283 -1.2956  0.9298
   28MOL0     H 3640   7.225   3.473   7.964  1.8865  0.7429  4.8461
   28MOL0     H 3641   7.402   3.308   7.975 -3.4365 -0.3208  0.1100
   28MOL0     H 3642   7.515   3.409   7.876  2.0538 -0.8354  2.6687
   28MOL0     H 3643   7.324   3.366   7.704 -0.7914  0.6933  0.6751
   28MOL0     H 3644   7.239   3.269   7.812 -2.1466  2.6122 -2.0648
   28MOL0     H 3645   7.478   3.221   7.634  4.0642  3.1533  2.6022
   28MOL0     H 3646   7.532   3.190   7.791  1.0923 -0.9515  0.1140
   28MOL0     H 3647   7.348   3.035   7.838  2.4715  0.7735  1.2324
   28MOL0     H 3648   7.438   2.978   7.712 -1.6720 -1.7676  0.0809
   28MOL0     H 3649   7.352   2.989   7.446 -0.6495  0.8218 -1.4412
   28MOL0     H 3650   7.178   2.968   7.246 -0.0571  1.3591 -0.8056
   28MOL0     H 3651   7.054   3.081   7.285  1.0503  0.9979  3.0693
   28MOL0     H 3652   6.954   2.872   7.184  0.1296 -1.4742  0.3309
   28MOL0     H 3653   6.893   2.898   7.337 -1.0700  1.4882 -1.7507
   28MOL0     H 3654   7.091   2.673   7.248  1.1345 -2.2442  1.8238
   28MOL0     H 3655   7.111   2.726   7.416 -2.2917  0.7782  2.8272
   28MOL0     H 3656   6.845   2.639   7.297  2.1319 -2.0416 -0.0221
   28MOL0     H 3657   6.861   2.702   7.460 -0.8577  1.7887 -0.5265
   28MOL0     H 3658   6.989   2.276   7.555  1.8041 -0.3980  0.1817
   28MOL0     H 3659   6.950   2.239   7.780 -0.1611  1.6173  3.0849
   28MOL0     H 3660   6.812   2.132   8.173 -0.2833  1.1867  1.7286
   28MOL0     H 3661   6.870   2.005   8.357  1.3541 -1.8174 -1.5967
   28MOL0     H 3662   7.112   1.833   8.444 -1.3406  0.6650 -1.3847
   28MOL0     H 3663   6.962   1.883   8.529 -0.1111  0.6942  0.8620
   28MOL0     H 3664   7.247   1.840   8.650  0.4152  2.0422 -0.8541
   28MOL0     H 3665   7.093   1.754   8.690 -0.5554 -0.3194 -1.4472
   28MOL0     H 3666   7.011   1.976   8.780 -1.4751 -3.8547  1.9941
   28MOL0     H 3667   7.175   2.043   8.737 -1.7490 -0.2071 -4.2717
   28MOL0     H 3668   7.109   1.795   8.914 -0.7876 -0.9924 -1.3827
   28MOL0     H 3669   7.271   1.871   8.908  0.1193  0.6295  2.7978
   28MOL0     H 3670   7.028   2.010   9.022  0.4347  1.8782 -3.4242
   28MOL0     H 3671   7.190   2.077   9.008 -3.3411  2.9175  0.0446
   28MOL0     H 3672   7.140   1.970   9.236 -0.4828 -1.7052  1.8166
   28MOL0     H 3673   7.259   1.864   9.153 -0.6333 -2.0284  1.7675
   28MOL0     H 3674   6.956   1.863   9.210 -0.0026 -1.6884  4.6874
   28MOL0     H 3675   7.012   1.752   9.091 -1.3689  0.2140  0.3922
   28MOL0     H 3676   7.126   1.771   9.374  2.5407  0.6790 -1.8734
   28MOL0     H 3677   7.158   1.640   9.269  0.0467 -0.9346  3.4168
   28MOL0     H 3678   7.233   2.212   8.383  0.3525  0.1089 -0.2504
   28MOL0     H 3679   7.183   2.341   8.179  0.8820 -0.4691 -0.0874
   28MOL0     H 3680   6.994   2.671   7.856  2.2827  0.2681  0.1930
   28MOL0     H 3681   6.972   2.705   7.633 -0.8503 -0.4462  0.1860
   28MOL0     H 3682   6.965   3.699   8.129 -0.9667 -2.8337 -1.6726
   28MOL0     H 3683   6.736   3.713   8.192 -0.6090  1.0802  0.6388
   28MOL0     H 3684   6.228   3.668   8.239 -0.5976  0.3816 -1.3431
   28MOL0     H 3685   6.009   3.765   8.296 -1.5022  0.5435 -1.4731
   28MOL0     H 3686   5.911   4.212   8.268  0.0470  0.6493 -0.7227
   28MOL0     H 3687   6.031   4.190   8.402  0.4927 -0.7469 -0.7026
   28MOL0     H 3688   5.802   4.281   8.460  0.9012 -0.1933  2.0755
   28MOL0     H 3689   5.730   4.116   8.434 -0.4501 -0.0877 -2.5679
   28MOL0     H 3690   5.785   4.158   8.684  0.4381  0.0051  0.0603
   28MOL0     H 3691   5.949   4.201   8.644  3.2352 -3.3131 -0.4655
   28MOL0     H 3692   5.837   3.923   8.585 -1.2992  2.2142 -2.0493
   28MOL0     H 3693   5.999   3.981   8.568 -0.5193  1.6363 -0.6449
   28MOL0     H 3694   5.972   3.954   9.001  0.1666 -2.0844 -0.3516
   28MOL0     H 3695   6.166   4.161   8.255  3.0437  0.2010 -0.1195
   28MOL0     H 3696   6.358   4.078   8.177 -0.4612 -0.6915 -4.1985
   29MOL0     O 3697   9.982   3.427   5.825  0.0905  0.1498 -0.5910
   29MOL0     C 3698   9.977   3.310   5.788  0.1129  0.4323 -0.3446
   29MOL0     O 3699   9.908   3.210   5.848  0.3181  0.5762  0.0851
   29MOL0     C 3700   9.834   3.241   5.961 -0.5448  0.3019 -0.7101
   29MOL0     C 3701   9.692   3.249   5.954  0.5912  0.2751  0.3479
   29MOL0     C 3702   9.600   3.274   6.056  0.0033 -0.3048  0.1416
   29MOL0     C 3703   9.662   3.297   6.182  0.4498 -1.3913 -0.5849
   29MOL0     O 3704   9.569   3.328   6.276  0.7030  0.4858 -0.8289
   29MOL0     C 3705   9.591   3.316   6.415 -0.9458  0.2018 -0.0940
   29MOL0     C 3706   9.543   3.454   6.467  0.1429  0.6753 -0.0856
   29MOL0     C 3707   9.578   3.462   6.612  0.7390 -0.7139 -0.0426
   29MOL0     C 3708   9.526   3.342   6.703 -0.3838  0.4582  0.4976
   29MOL0     C 3709   9.510   3.391   6.844  0.7148 -0.1918 -0.4022
   29MOL0     C 3710   9.477   3.273   6.944 -1.1219  0.0845  0.4595
   29MOL0     C 3711   9.474   3.332   7.089  0.4533  0.0371  0.0701
   29MOL0     C 3712   9.337   3.379   7.130 -0.7503 -0.1949  0.0610
   29MOL0     N 3713   9.229   3.274   7.141 -0.0810 -0.9602 -0.0711
   29MOL0     C 3714   9.158   3.212   7.033 -0.4232 -0.3831 -0.4637
   29MOL0     C 3715   9.100   3.105   7.101 -0.5642  0.1664  0.1689
   29MOL0     C 3716   9.003   2.999   7.065  0.0725  0.2239  0.2644
   29MOL0     C 3717   9.029   2.861   7.124 -1.9694 -0.5984 -0.9151
   29MOL0     C 3718   8.940   2.746   7.083  0.0205 -0.2138 -0.4962
   29MOL0     C 3719   8.952   2.717   6.933 -0.0058  0.2316  0.0323
   29MOL0     O 3720   8.851   2.790   6.864  0.2909  0.3049 -0.6223
   29MOL0     C 3721   8.727   2.723   6.848 -0.2069 -0.0487 -0.6981
   29MOL0     C 3722   8.705   2.602   6.787 -0.2480 -0.0769  0.3940
   29MOL0     C 3723   8.578   2.554   6.776 -0.1739  0.4146 -0.9660
   29MOL0     C 3724   8.469   2.612   6.843  1.4606 -0.1731 -0.5032
   29MOL0     C 3725   8.330   2.565   6.820  0.3787  0.1069 -0.3685
   29MOL0     O 3726   8.294   2.481   6.712  0.3935  1.1443  0.9067
   29MOL0     C 3727   8.166   2.432   6.709  0.0946  0.2510  0.8583
   29MOL0     C 3728   8.050   2.513   6.702  0.4502  0.0512 -0.7275
   29MOL0     C 3729   7.919   2.456   6.686 -0.0962 -0.2147 -0.1386
   29MOL0     C 3730   7.907   2.322   6.682  0.6163 -0.0405  0.0236
   29MOL0     O 3731   7.788   2.257   6.678 -0.2954 -0.3105 -0.9674
   29MOL0     C 3732   7.766   2.200   6.549  0.5623  0.6863 -0.5829
   29MOL0     C 3733   7.614   2.203   6.502 -0.0429  0.2292 -0.0919
   29MOL0     C 3734   7.534   2.092   6.561 -0.3618  0.5324 -0.3093
   29MOL0     C 3735   7.394   2.063   6.499  0.3250 -1.0498  0.8389
   29MOL0     C 3736   7.326   1.939   6.561 -0.9925 -0.3946  0.1434
   29MOL0     C 3737   7.196   1.918   6.493  0.1517 -0.3746  0.2541
   29MOL0     C 3738   7.110   1.810   6.563 -0.8209 -0.0393 -0.5570
   29MOL0     C 3739   7.137   1.665   6.506 -1.0414 -0.1736  0.4832
   29MOL0    Cl 3740   6.994   1.617   6.388  0.3434 -0.6486 -0.5727
   29MOL0     C 3741   8.024   2.243   6.703 -0.3326 -0.5389 -0.4429
   29MOL0     C 3742   8.150   2.294   6.716  0.6347  0.6188 -1.2159
   29MOL0     O 3743   8.250   2.603   6.902 -0.1240 -0.1729  0.5147
   29MOL0     C 3744   8.496   2.720   6.924  0.0304 -0.2475 -0.2220
   29MOL0     C 3745   8.624   2.778   6.920  0.4630 -0.8995  0.9651
   29MOL0     N 3746   9.142   3.110   7.235  0.1801 -0.6270 -0.2027
   29MOL0     N 3747   9.221   3.205   7.255  0.0282  0.3218  0.1537
   29MOL0     C 3748   9.799   3.282   6.203 -0.6532  0.5871 -0.2494
   29MOL0     C 3749   9.891   3.260   6.091 -0.4647  0.0464 -1.2468
   29MOL0     C 3750  10.021   3.285   5.642 -0.5919 -0.3937  0.4608
   29MOL0     C 3751  10.089   3.382   5.570  0.0696  0.1943 -0.8685
   29MOL0     C 3752  10.145   3.348   5.446 -0.5951  0.1350  0.3092
   29MOL0     C 3753  10.124   3.223   5.387 -0.8395 -0.3063  0.0065
   29MOL0     O 3754  10.181   3.224   5.265  0.2578  0.1760  0.3103
   29MOL0     C 3755  10.198   3.090   5.214  1.2361  0.6802  0.2411
   29MOL0     C 3756  10.273   3.093   5.082 -0.3534 -0.2094  0.7222
   29MOL0     C 3757  10.199   3.171   4.972  0.2077  0.1906 -0.2239
   29MOL0     C 3758  10.049   3.152   4.947 -0.1300 -0.0277  0.2079
   29MOL0     C 3759  10.010   3.008   4.944 -0.1281 -0.0273 -0.3819
   29MOL0     C 3760   9.973   2.896   4.960 -1.1173  0.4544  0.3057
   29MOL0     C 3761  10.049   3.128   5.457 -0.3478  0.4143 -0.5063
   29MOL0     C 3762  10.008   3.158   5.581 -0.4503 -0.4352  0.2836
   29MOL0     H 3763   9.649   3.235   5.855  2.4255 -0.6185 -0.3827
   29MOL0     H 3764   9.496   3.302   6.049  0.6780  3.0044  1.4113
   29MOL0     H 3765   9.696   3.315   6.446 -1.6502  2.0956  2.8029
   29MOL0     H 3766   9.541   3.228   6.457 -2.1574  1.5803  1.5277
   29MOL0     H 3767   9.435   3.472   6.465  0.1454  0.7436 -2.5443
   29MOL0     H 3768   9.593   3.540   6.422  2.1599  1.0724  2.6759
   29MOL0     H 3769   9.540   3.557   6.648  0.0059 -0.4709 -1.3747
   29MOL0     H 3770   9.682   3.491   6.629 -0.0521  1.3683  1.5438
   29MOL0     H 3771   9.432   3.301   6.665 -0.1896  1.7491 -1.4872
   29MOL0     H 3772   9.599   3.260   6.702 -2.4018 -1.4667  1.5647
   29MOL0     H 3773   9.428   3.462   6.854  0.0707 -1.0656  0.9032
   29MOL0     H 3774   9.606   3.431   6.877  0.3620  1.0586 -0.8341
   29MOL0     H 3775   9.552   3.194   6.955 -0.4108  0.8614  1.3949
   29MOL0     H 3776   9.389   3.223   6.903  0.3715 -1.9917 -0.3820
   29MOL0     H 3777   9.502   3.258   7.166 -1.0366 -0.2656  0.3645
   29MOL0     H 3778   9.546   3.413   7.099  1.1469 -0.5734  0.0676
   29MOL0     H 3779   9.306   3.444   7.047  3.0453 -1.4246 -2.5899
   29MOL0     H 3780   9.342   3.446   7.216  0.4887 -0.4409  0.2013
   29MOL0     H 3781   9.133   3.242   6.931 -0.2897  0.2783 -0.3071
   29MOL0     H 3782   9.006   2.974   6.958 -2.4018 -3.3613  0.8861
   29MOL0     H 3783   8.907   3.037   7.100  1.8662  3.8916  1.7367
   29MOL0     H 3784   9.030   2.886   7.230 -0.2484  1.9956 -1.4530
   29MOL0     H 3785   9.131   2.823   7.115 -2.4150 -3.2147  2.8185
   29MOL0     H 3786   8.977   2.651   7.122  0.4669 -0.4531 -1.4689
   29MOL0     H 3787   8.840   2.767   7.124  0.8871  0.4562  1.4132
   29MOL0     H 3788   8.942   2.610   6.914 -0.5760  0.0955  1.0292
   29MOL0     H 3789   9.055   2.734   6.904  0.5952 -1.8343  0.7990
   29MOL0     H 3790   8.782   2.545   6.738  0.9379  1.9446 -0.1988
   29MOL0     H 3791   8.555   2.460   6.726  0.9207 -0.6484  0.4008
   29MOL0     H 3792   8.068   2.619   6.693  1.7647 -0.1166 -0.4063
   29MOL0     H 3793   7.833   2.518   6.662  0.3651 -0.0465 -1.4065
   29MOL0     H 3794   7.804   2.097   6.551 -0.6161  0.2469 -0.1690
   29MOL0     H 3795   7.818   2.254   6.470  1.7074  0.7159  0.1628
   29MOL0     H 3796   7.616   2.179   6.395 -0.8400  1.6726 -0.4637
   29MOL0     H 3797   7.573   2.304   6.512  1.9830  1.4103 -2.4805
   29MOL0     H 3798   7.539   2.105   6.669 -0.4851  0.7901 -0.3328
   29MOL0     H 3799   7.594   2.003   6.542  0.9234  1.1969  0.4917
   29MOL0     H 3800   7.333   2.152   6.520  0.2571 -1.1793  1.1980
   29MOL0     H 3801   7.400   2.052   6.390 -1.9166  1.4088  0.3561
   29MOL0     H 3802   7.307   1.966   6.665 -1.3348 -0.2128  0.0379
   29MOL0     H 3803   7.391   1.852   6.546  0.1553  0.5344 -0.4123
   29MOL0     H 3804   7.209   1.900   6.386 -0.2109 -1.3468  0.3626
   29MOL0     H 3805   7.130   2.005   6.501 -2.3513 -2.2985  2.0914
   29MOL0     H 3806   7.125   1.811   6.671  2.7614  0.9114 -0.9115
   29MOL0     H 3807   7.003   1.833   6.563 -1.1969 -1.4628  1.5195
   29MOL0     H 3808   7.141   1.586   6.582  3.2207 -1.6780 -0.9731
   29MOL0     H 3809   7.233   1.663   6.454 -0.4143 -0.2353  1.6030
   29MOL0     H 3810   8.016   2.136   6.689  1.7437 -0.7482 -0.2574
   29MOL0     H 3811   8.243   2.238   6.718 -0.6882 -1.7022 -1.9113
   29MOL0     H 3812   8.421   2.764   6.989  3.4922  3.4286  1.7065
   29MOL0     H 3813   8.631   2.874   6.970 -2.8297  0.0702 -0.1381
   29MOL0     H 3814   9.842   3.301   6.301 -0.0364 -4.6517  0.8107
   29MOL0     H 3815   9.998   3.271   6.103 -0.7040 -0.2486  2.0737
   29MOL0     H 3816  10.103   3.485   5.602 -0.7797 -0.5419  2.2466
   29MOL0     H 3817  10.201   3.421   5.389 -1.4180 -0.2282 -1.0221
   29MOL0     H 3818  10.096   3.050   5.214  1.1655  0.8513  0.4354
   29MOL0     H 3819  10.260   3.031   5.282  0.5621  0.3858  0.6084
   29MOL0     H 3820  10.366   3.150   5.094 -1.0332  1.1521 -0.1439
   29MOL0     H 3821  10.281   2.989   5.048  0.6640  0.3379 -0.8311
   29MOL0     H 3822  10.242   3.139   4.876  0.4506 -2.5696  0.7178
   29MOL0     H 3823  10.211   3.279   4.981  1.7295 -0.0589  1.0924
   29MOL0     H 3824   9.993   3.206   5.024 -1.8088  0.4380 -1.2784
   29MOL0     H 3825  10.013   3.185   4.849 -2.7979 -1.5463  0.5670
   29MOL0     H 3826   9.951   2.793   4.981 -1.2388  0.9222  2.6878
   29MOL0     H 3827  10.014   3.038   5.407  2.1384  0.2876 -2.2221
   29MOL0     H 3828   9.945   3.087   5.633  0.1863 -1.2845 -0.0945
   30MOL0     O 3829   2.566   3.038   6.295  0.1575 -0.0550 -0.3579
   30MOL0     C 3830   2.666   2.970   6.310  0.1858  0.2020 -0.4522
   30MOL0     O 3831   2.753   2.976   6.417  0.6433  0.8884 -0.8801
   30MOL0     C 3832   2.712   3.027   6.535  0.2786  0.2322  0.6003
   30MOL0     C 3833   2.750   3.153   6.567 -0.1898  0.0482 -1.1196
   30MOL0     C 3834   2.695   3.212   6.683  0.0874  0.4392  0.1875
   30MOL0     C 3835   2.600   3.153   6.755  0.0248 -0.4408  1.1676
   30MOL0     O 3836   2.539   3.233   6.848 -0.1183 -0.4361  0.5642
   30MOL0     C 3837   2.400   3.200   6.875 -0.2409  0.0653 -0.4730
   30MOL0     C 3838   2.313   3.315   6.925  0.4707  0.6770  0.3013
   30MOL0     C 3839   2.315   3.443   6.853  0.7997 -0.0858 -0.6245
   30MOL0     C 3840   2.290   3.415   6.707  0.6422  1.2783  0.1606
   30MOL0     C 3841   2.257   3.552   6.630  0.1146 -0.6654 -0.0674
   30MOL0     C 3842   2.375   3.647   6.626  0.3079  0.1052  0.0579
   30MOL0     C 3843   2.497   3.603   6.533 -0.0372 -0.6704 -0.1145
   30MOL0     C 3844   2.515   3.674   6.401  0.2472 -0.5512  0.4440
   30MOL0     N 3845   2.552   3.815   6.414 -0.3293  0.0320 -0.6340
   30MOL0     C 3846   2.462   3.918   6.441  0.1443 -0.4543 -0.4205
   30MOL0     C 3847   2.533   4.032   6.429  1.1127 -0.4124 -0.3736
   30MOL0     C 3848   2.477   4.174   6.427  0.1566 -0.7612  0.1691
   30MOL0     C 3849   2.581   4.278   6.485  0.2729  0.5394  0.1188
   30MOL0     C 3850   2.521   4.413   6.490 -0.2970 -0.5401  0.2607
   30MOL0     C 3851   2.413   4.434   6.599 -0.5969 -0.1611 -0.7539
   30MOL0     O 3852   2.285   4.396   6.540 -0.0053 -0.3762  0.2090
   30MOL0     C 3853   2.171   4.469   6.565 -0.3874 -0.5688  0.0302
   30MOL0     C 3854   2.160   4.563   6.662  0.0375  0.2869 -0.2995
   30MOL0     C 3855   2.044   4.625   6.670 -0.0933  0.1259  0.0281
   30MOL0     C 3856   1.929   4.594   6.591  1.0305 -0.7277  0.2028
   30MOL0     C 3857   1.797   4.658   6.618  0.4379 -1.3696 -0.4802
   30MOL0     O 3858   1.797   4.725   6.743  0.9481  0.6958  0.0362
   30MOL0     C 3859   1.679   4.783   6.794  0.5443  0.3215  0.1484
   30MOL0     C 3860   1.548   4.740   6.781 -0.5325 -1.3576  0.0817
   30MOL0     C 3861   1.444   4.811   6.841  0.1573  0.0864  0.0797
   30MOL0     C 3862   1.462   4.922   6.921 -0.1170 -0.3870 -0.4265
   30MOL0     O 3863   1.365   5.003   6.983  0.1354  0.3168  0.6618
   30MOL0     C 3864   1.246   5.022   6.900  0.0514 -0.3075 -0.1795
   30MOL0     C 3865   1.201   5.163   6.942 -0.1745 -0.0527  0.2203
   30MOL0     C 3866   1.138   5.174   7.081  0.9409 -0.3111  0.0989
   30MOL0     C 3867   1.142   5.312   7.141  0.2358  0.7814  0.2496
   30MOL0     C 3868   1.134   5.310   7.289 -0.1246 -0.7274 -0.8325
   30MOL0     C 3869   1.152   5.455   7.344  0.2074  0.6166 -0.2827
   30MOL0     C 3870   1.113   5.478   7.494  0.6109  0.0177 -0.7948
   30MOL0     C 3871   1.173   5.607   7.537 -0.6092  0.1323 -0.5646
   30MOL0    Cl 3872   1.141   5.734   7.411  0.0761 -0.2450 -0.1010
   30MOL0     C 3873   1.597   4.954   6.951 -0.1452  0.0684  0.1897
   30MOL0     C 3874   1.703   4.881   6.892  0.6523  0.4149  0.0111
   30MOL0     O 3875   1.712   4.658   6.531  0.5685  0.1639 -0.3195
   30MOL0     C 3876   1.939   4.492   6.498 -0.4251 -0.2650  0.3510
   30MOL0     C 3877   2.063   4.433   6.484  0.2309  0.0198  0.7952
   30MOL0     N 3878   2.659   3.997   6.382  0.4999 -1.6157 -0.4389
   30MOL0     N 3879   2.666   3.872   6.359 -0.4952  0.5251 -1.1654
   30MOL0     C 3880   2.558   3.024   6.717 -0.5215 -0.2208  1.1898
   30MOL0     C 3881   2.615   2.955   6.610  0.4413  0.1298  1.0120
   30MOL0     C 3882   2.705   2.897   6.187  0.1868  0.0413 -0.3759
   30MOL0     C 3883   2.841   2.898   6.152 -0.2749  0.3094  0.7283
   30MOL0     C 3884   2.884   2.828   6.036 -0.5630  0.3567 -0.4695
   30MOL0     C 3885   2.789   2.764   5.950 -0.0818  0.6473 -0.0424
   30MOL0     O 3886   2.850   2.682   5.851  0.2001  0.6732 -0.6250
   30MOL0     C 3887   2.776   2.565   5.802  0.6557 -0.7368 -0.5420
   30MOL0     C 3888   2.816   2.525   5.658  0.2436  0.2485 -0.2814
   30MOL0     C 3889   2.757   2.598   5.535  0.0237 -0.9866  0.1647
   30MOL0     C 3890   2.774   2.525   5.401  0.0675  0.3285 -0.4746
   30MOL0     C 3891   2.769   2.616   5.289  0.0402 -0.1270 -0.5326
   30MOL0     C 3892   2.752   2.705   5.209 -0.6608 -1.2883  0.3516
   30MOL0     C 3893   2.652   2.771   5.993 -0.0714  0.5087  0.9223
   30MOL0     C 3894   2.614   2.836   6.104  0.0984  0.5529 -0.0017
   30MOL0     H 3895   2.814   3.204   6.496 -0.1445  0.6836 -0.6235
   30MOL0     H 3896   2.725   3.314   6.703 -0.2794  0.4138  0.8883
   30MOL0     H 3897   2.394   3.116   6.945 -1.6148 -2.4739 -3.3802
   30MOL0     H 3898   2.354   3.172   6.780 -0.6762 -1.2334  0.0859
   30MOL0     H 3899   2.339   3.336   7.029  0.7754  1.5078  0.0615
   30MOL0     H 3900   2.206   3.295   6.927  0.2581  1.3031  4.5738
   30MOL0     H 3901   2.412   3.491   6.866  0.2393  0.4510  2.4332
   30MOL0     H 3902   2.239   3.509   6.896 -0.7347 -1.9263 -0.3735
   30MOL0     H 3903   2.377   3.365   6.663  0.2868  2.3311 -1.8650
   30MOL0     H 3904   2.202   3.351   6.695  0.6418  1.4567 -0.9402
   30MOL0     H 3905   2.171   3.598   6.679 -0.7419 -2.2247 -0.0500
   30MOL0     H 3906   2.220   3.557   6.527 -2.9917  1.4271  0.9921
   30MOL0     H 3907   2.414   3.654   6.728  1.8735  2.6144 -0.6221
   30MOL0     H 3908   2.344   3.748   6.598 -0.2916  0.5260  2.0870
   30MOL0     H 3909   2.593   3.616   6.584  1.3377  0.6594 -2.8359
   30MOL0     H 3910   2.493   3.496   6.508  0.2478 -1.2581  2.1775
   30MOL0     H 3911   2.434   3.669   6.328  1.7549 -0.2071 -1.3619
   30MOL0     H 3912   2.604   3.629   6.354  0.8541  2.0052 -1.0918
   30MOL0     H 3913   2.355   3.906   6.453 -0.4339  3.1956 -0.8694
   30MOL0     H 3914   2.382   4.171   6.480 -0.5511 -2.6636 -1.0633
   30MOL0     H 3915   2.452   4.198   6.323  0.3963  0.4183  0.3789
   30MOL0     H 3916   2.667   4.270   6.418  0.2614  1.8855 -0.0851
   30MOL0     H 3917   2.596   4.235   6.585 -1.8917 -3.7061 -1.1493
   30MOL0     H 3918   2.599   4.480   6.528 -0.8227  0.3917 -0.2549
   30MOL0     H 3919   2.487   4.447   6.392 -1.5811  0.1293  0.9007
   30MOL0     H 3920   2.414   4.540   6.625  1.6985 -0.6238  1.4300
   30MOL0     H 3921   2.439   4.385   6.693  1.2837  1.2554 -0.4823
   30MOL0     H 3922   2.239   4.601   6.727 -0.2616  0.7942 -0.2251
   30MOL0     H 3923   2.050   4.709   6.739  4.6690 -0.2320  0.3948
   30MOL0     H 3924   1.502   4.658   6.727 -2.8925  1.1843 -2.0479
   30MOL0     H 3925   1.350   4.770   6.805 -0.0282  1.4361 -1.0758
   30MOL0     H 3926   1.165   4.951   6.918  0.8931 -0.8512  1.7486
   30MOL0     H 3927   1.277   5.030   6.795  1.5181 -1.4334  0.1357
   30MOL0     H 3928   1.135   5.206   6.866  0.8089 -0.9394 -1.1872
   30MOL0     H 3929   1.287   5.231   6.947  0.7844 -0.9424 -2.5371
   30MOL0     H 3930   1.199   5.103   7.138 -0.5017 -0.2471  1.8196
   30MOL0     H 3931   1.035   5.137   7.092  1.0055 -0.1930  1.1664
   30MOL0     H 3932   1.233   5.360   7.103 -0.3503  0.7413 -1.2964
   30MOL0     H 3933   1.058   5.365   7.094  0.6592  1.1367 -0.1193
   30MOL0     H 3934   1.213   5.247   7.329  1.0497  0.6345 -0.9411
   30MOL0     H 3935   1.036   5.271   7.318  0.5210 -2.4701 -0.9135
   30MOL0     H 3936   1.085   5.521   7.289 -1.3199  0.8663  1.7501
   30MOL0     H 3937   1.256   5.487   7.333  1.3126 -1.9958  1.4555
   30MOL0     H 3938   1.004   5.471   7.505  0.9155 -1.7641  2.5436
   30MOL0     H 3939   1.149   5.401   7.563 -2.3449  0.0172  0.9086
   30MOL0     H 3940   1.281   5.596   7.542 -0.6623  0.2421  1.3297
   30MOL0     H 3941   1.148   5.641   7.638 -0.1271  0.6067 -0.5994
   30MOL0     H 3942   1.608   5.050   6.999  2.3531 -0.0088 -0.1063
   30MOL0     H 3943   1.800   4.919   6.924 -0.1836 -0.4106  4.1208
   30MOL0     H 3944   1.851   4.463   6.443 -0.0740 -0.8196  0.0828
   30MOL0     H 3945   2.069   4.357   6.407 -0.2137  0.1395  0.6419
   30MOL0     H 3946   2.470   2.985   6.766 -0.4889  1.9530  3.1143
   30MOL0     H 3947   2.567   2.861   6.585  1.8148 -0.2137 -0.5008
   30MOL0     H 3948   2.922   2.932   6.216 -2.0180  2.0038  2.1450
   30MOL0     H 3949   2.986   2.825   6.001 -0.4567 -1.9525 -0.1733
   30MOL0     H 3950   2.666   2.566   5.803  0.3521  0.5974  5.5511
   30MOL0     H 3951   2.800   2.485   5.873 -0.0278 -1.3397 -0.9727
   30MOL0     H 3952   2.923   2.505   5.657  0.1198 -0.4548 -0.0981
   30MOL0     H 3953   2.790   2.419   5.645 -3.4295  1.2479 -2.8308
   30MOL0     H 3954   2.798   2.700   5.530  0.5865 -1.2454 -0.5507
   30MOL0     H 3955   2.649   2.615   5.545  0.2560  0.4065  0.5918
   30MOL0     H 3956   2.866   2.469   5.382  0.3352 -0.4566  2.5715
   30MOL0     H 3957   2.691   2.453   5.396 -2.4419  3.0555 -0.8484
   30MOL0     H 3958   2.743   2.786   5.140  0.8759 -2.3775 -1.2432
   30MOL0     H 3959   2.581   2.715   5.933 -0.8191  1.0017  1.3417
   30MOL0     H 3960   2.510   2.821   6.132 -0.4307 -1.3939 -2.6362
   31MOL0     O 3961   7.498   6.806   7.614  0.9392  1.0306 -0.0040
   31MOL0     C 3962   7.449   6.743   7.513  0.1207 -0.3301 -0.7911
   31MOL0     O 3963   7.318   6.703   7.511  0.1755  0.1495  0.7864
   31MOL0     C 3964   7.228   6.756   7.597 -0.8326  0.3985  0.5174
   31MOL0     C 3965   7.205   6.672   7.715  0.4630 -1.2009  0.1653
   31MOL0     C 3966   7.117   6.732   7.808  0.6024 -0.4294 -0.0354
   31MOL0     C 3967   7.066   6.861   7.788 -0.0652 -0.3132  0.3278
   31MOL0     O 3968   6.991   6.921   7.885 -0.8003 -0.1423  0.2460
   31MOL0     C 3969   6.870   6.861   7.913 -0.0912 -0.6819  0.0373
   31MOL0     C 3970   6.797   6.969   7.998  0.9362  0.1312 -0.3276
   31MOL0     C 3971   6.788   7.109   7.943 -0.8500 -0.7213 -0.1928
   31MOL0     C 3972   6.710   7.209   8.031  0.8020  0.5298 -0.1340
   31MOL0     C 3973   6.560   7.201   8.002  0.4074 -0.5530 -0.2323
   31MOL0     C 3974   6.481   7.256   8.126 -1.1445  0.5539 -0.9005
   31MOL0     C 3975   6.530   7.389   8.180 -0.9379 -0.6120  0.2941
   31MOL0     C 3976   6.553   7.514   8.092 -0.0091 -0.0149  0.2326
   31MOL0     N 3977   6.549   7.643   8.162 -0.8953 -0.1729  0.0621
   31MOL0     C 3978   6.444   7.685   8.242 -0.4556  0.0888 -0.0436
   31MOL0     C 3979   6.498   7.796   8.304  0.1466  1.2258  0.0381
   31MOL0     C 3980   6.405   7.876   8.390 -0.5402  0.5802  0.3440
   31MOL0     C 3981   6.343   7.999   8.318  0.0513 -0.2152 -0.4804
   31MOL0     C 3982   6.448   8.088   8.256  0.0960 -0.0346 -0.0732
   31MOL0     C 3983   6.371   8.219   8.224 -0.1303 -0.6395 -0.5566
   31MOL0     O 3984   6.262   8.217   8.126  0.5099 -0.0876 -0.1557
   31MOL0     C 3985   6.282   8.273   8.005 -0.0648 -0.6117 -0.2376
   31MOL0     C 3986   6.192   8.227   7.913 -0.6331 -0.0146 -0.1688
   31MOL0     C 3987   6.200   8.275   7.782  0.0078 -1.1036  0.0597
   31MOL0     C 3988   6.295   8.377   7.742  1.3874  0.3017  0.2129
   31MOL0     C 3989   6.292   8.414   7.598  0.5141 -0.4365  0.4658
   31MOL0     O 3990   6.367   8.532   7.559  0.1704  0.1488 -0.1336
   31MOL0     C 3991   6.382   8.554   7.422  0.5435 -0.5343  0.0696
   31MOL0     C 3992   6.434   8.456   7.343 -0.7854 -0.6501  0.2350
   31MOL0     C 3993   6.464   8.475   7.205 -0.6666 -0.2823 -0.0803
   31MOL0     C 3994   6.425   8.594   7.140  0.6298  0.0041 -0.6276
   31MOL0     O 3995   6.426   8.620   7.003 -0.4111 -0.5698  0.0917
   31MOL0     C 3996   6.475   8.525   6.907 -1.1511 -0.0843 -0.4727
   31MOL0     C 3997   6.625   8.522   6.909 -0.3866 -0.0461 -0.0287
   31MOL0     C 3998   6.683   8.419   6.812 -0.0164  0.2907 -0.1874
   31MOL0     C 3999   6.832   8.418   6.781 -0.0266  0.4465 -0.0896
   31MOL0     C 4000   6.843   8.323   6.667 -0.2078  0.4452  0.6228
   31MOL0     C 4001   6.987   8.324   6.609 -0.0263  0.2924 -0.1802
   31MOL0     C 4002   6.993   8.275   6.456 -0.3740  0.1566 -1.0350
   31MOL0     C 4003   7.143   8.255   6.415  0.4476  0.0772  0.4991
   31MOL0    Cl 4004   7.144   8.186   6.253 -0.0545 -0.3646  0.3933
   31MOL0     C 4005   6.368   8.689   7.221 -0.4125 -0.2810  0.2594
   31MOL0     C 4006   6.348   8.681   7.360 -0.3735  0.1615  0.5623
   31MOL0     O 4007   6.229   8.333   7.524 -0.8266 -0.7302  0.1224
   31MOL0     C 4008   6.386   8.420   7.832  0.2562  0.2493  0.1666
   31MOL0     C 4009   6.381   8.374   7.969 -0.3466  0.8854  0.6920
   31MOL0     N 4010   6.627   7.814   8.274  0.3681 -0.0995  0.9287
   31MOL0     N 4011   6.660   7.725   8.188 -0.0889 -0.4534  0.9023
   31MOL0     C 4012   7.094   6.944   7.671 -0.2026  0.7430 -0.2829
   31MOL0     C 4013   7.172   6.879   7.579 -0.5624 -0.1292  0.0148
   31MOL0     C 4014   7.545   6.699   7.421 -0.5303  0.4167 -0.2563
   31MOL0     C 4015   7.680   6.686   7.456 -0.4224 -0.4082 -0.8433
   31MOL0     C 4016   7.779   6.638   7.373 -0.4233 -0.6540  0.5562
   31MOL0     C 4017   7.744   6.606   7.244  0.5984 -0.0580  0.3446
   31MOL0     O 4018   7.829   6.550   7.150  0.2927  0.3364  0.0179
   31MOL0     C 4019   7.961   6.513   7.190  0.7666 -0.0109  0.9802
   31MOL0     C 4020   8.014   6.401   7.104  1.3103  0.4319  0.3136
   31MOL0     C 4021   8.083   6.433   6.969 -0.0132 -0.3587 -0.0621
   31MOL0     C 4022   7.994   6.507   6.880  0.3774  1.1953  0.0665
   31MOL0     C 4023   8.033   6.520   6.739 -1.1808  0.2384 -0.6623
   31MOL0     C 4024   8.066   6.521   6.625  0.5965 -1.1315 -0.6364
   31MOL0     C 4025   7.606   6.611   7.210  0.5721  1.0135 -0.1015
   31MOL0     C 4026   7.504   6.657   7.293  0.0036 -1.0049  0.4902
   31MOL0     H 4027   7.241   6.570   7.722  0.0260 -1.5610 -2.1337
   31MOL0     H 4028   7.092   6.680   7.900 -2.3607  1.1771  0.2066
   31MOL0     H 4029   6.879   6.767   7.969 -3.3910 -1.8051 -1.1005
   31MOL0     H 4030   6.815   6.837   7.821 -1.3766  0.2118  0.5449
   31MOL0     H 4031   6.855   6.977   8.091 -0.4966  0.8703  0.5356
   31MOL0     H 4032   6.699   6.928   8.023  0.8685 -1.1567 -2.4817
   31MOL0     H 4033   6.753   7.116   7.840  0.7991  3.6116 -0.6774
   31MOL0     H 4034   6.890   7.148   7.943 -1.2634  0.4807  1.5112
   31MOL0     H 4035   6.736   7.194   8.136  0.6768  4.2582  0.5704
   31MOL0     H 4036   6.758   7.302   7.998  3.1015  0.7899  3.4583
   31MOL0     H 4037   6.531   7.098   7.978  2.2259 -1.5229  1.4242
   31MOL0     H 4038   6.545   7.269   7.918  1.1825  0.1871  0.2039
   31MOL0     H 4039   6.498   7.187   8.210  1.5286  1.3720 -0.6787
   31MOL0     H 4040   6.376   7.252   8.099 -1.5024  0.8190  0.3647
   31MOL0     H 4041   6.463   7.420   8.261  1.1613  0.8546  1.5709
   31MOL0     H 4042   6.622   7.358   8.230 -1.6385 -2.3051  0.5998
   31MOL0     H 4043   6.482   7.522   8.009 -1.0543  3.1262  1.3130
   31MOL0     H 4044   6.656   7.500   8.057  0.4071  2.7813  0.1298
   31MOL0     H 4045   6.347   7.640   8.257 -0.0250  0.1300  4.1875
   31MOL0     H 4046   6.457   7.903   8.482 -2.8115 -0.4603  2.0162
   31MOL0     H 4047   6.324   7.822   8.439 -1.7834 -0.4863 -2.6521
   31MOL0     H 4048   6.274   8.057   8.379 -0.4668  1.3727 -2.4386
   31MOL0     H 4049   6.274   7.961   8.243 -1.8906 -1.0322  1.6201
   31MOL0     H 4050   6.531   8.108   8.324 -0.6247 -1.8482  1.4029
   31MOL0     H 4051   6.476   8.055   8.155  1.0064  3.6400 -1.2138
   31MOL0     H 4052   6.440   8.303   8.211  0.5551 -1.0792  0.1462
   31MOL0     H 4053   6.310   8.249   8.309 -3.8662 -2.0033 -2.5533
   31MOL0     H 4054   6.119   8.150   7.936 -0.3274 -0.9957 -2.2975
   31MOL0     H 4055   6.125   8.247   7.709 -0.1337  4.5204 -2.4815
   31MOL0     H 4056   6.448   8.358   7.389 -0.6943 -0.2650  1.0417
   31MOL0     H 4057   6.495   8.389   7.146 -2.5060 -1.3001  0.3789
   31MOL0     H 4058   6.433   8.540   6.808 -1.8734 -0.4135 -0.2235
   31MOL0     H 4059   6.432   8.425   6.922 -1.6455  0.2888  0.7722
   31MOL0     H 4060   6.660   8.503   7.011 -0.8715  0.1465  0.1791
   31MOL0     H 4061   6.668   8.620   6.886  2.1465 -0.4485  2.3986
   31MOL0     H 4062   6.641   8.460   6.720 -1.0839 -2.7862 -1.1589
   31MOL0     H 4063   6.652   8.316   6.832 -1.8314 -0.4322 -5.2791
   31MOL0     H 4064   6.871   8.518   6.762  0.5974  0.8025  2.6871
   31MOL0     H 4065   6.888   8.375   6.865  0.5818  0.5828 -0.4238
   31MOL0     H 4066   6.785   8.355   6.580  0.8955 -0.9502 -0.6822
   31MOL0     H 4067   6.820   8.224   6.706  1.2821  0.2099  0.9819
   31MOL0     H 4068   7.046   8.259   6.674 -1.0825  0.6994  1.2464
   31MOL0     H 4069   7.026   8.426   6.615  1.1582 -0.0767 -1.2075
   31MOL0     H 4070   6.932   8.185   6.454 -0.3770  0.1520 -0.7673
   31MOL0     H 4071   6.950   8.356   6.397  1.9807  1.3798 -1.2034
   31MOL0     H 4072   7.194   8.196   6.492 -0.4927  0.7009  1.6478
   31MOL0     H 4073   7.195   8.351   6.414 -1.5700  1.2279 -0.8477
   31MOL0     H 4074   6.336   8.786   7.184  2.0314  0.2051 -0.7592
   31MOL0     H 4075   6.316   8.763   7.423  0.4499  0.4694  0.5830
   31MOL0     H 4076   6.460   8.492   7.798 -0.1664 -0.6993 -3.1029
   31MOL0     H 4077   6.445   8.422   8.042 -0.8045  0.9276  1.0752
   31MOL0     H 4078   7.055   7.044   7.663  0.3002  0.8911 -0.9178
   31MOL0     H 4079   7.193   6.925   7.483  0.7256 -1.7516 -0.5307
   31MOL0     H 4080   7.711   6.706   7.558  3.7075 -2.7450 -1.4354
   31MOL0     H 4081   7.878   6.636   7.417 -0.4994  1.9544  1.0061
   31MOL0     H 4082   7.967   6.482   7.295  1.8780 -0.1880  0.8719
   31MOL0     H 4083   8.032   6.596   7.186  3.2759 -2.0738 -0.1284
   31MOL0     H 4084   8.090   6.350   7.163  2.3852  0.6106 -0.8664
   31MOL0     H 4085   7.939   6.322   7.098  1.8629 -0.1108  0.5405
   31MOL0     H 4086   8.114   6.340   6.920  2.8947  0.5803 -0.2267
   31MOL0     H 4087   8.179   6.484   6.982  0.2065 -0.0126 -2.4924
   31MOL0     H 4088   7.893   6.466   6.891 -0.1225  1.6879 -2.0683
   31MOL0     H 4089   7.969   6.605   6.921 -4.0149  0.8202 -1.1477
   31MOL0     H 4090   8.099   6.506   6.525 -0.4097 -2.5918 -0.7972
   31MOL0     H 4091   7.587   6.584   7.107  2.2687 -1.4221  0.1439
   31MOL0     H 4092   7.401   6.663   7.260 -0.0190  0.2641  0.7614
   32MOL0     O 4093   1.846   4.133   9.233  0.9311  0.1579 -0.0095
   32MOL0     C 4094   1.849   4.015   9.192 -0.2159 -0.3083 -1.5966
   32MOL0     O 4095   1.824   3.905   9.267  0.4040  0.5187 -0.2800
   32MOL0     C 4096   1.779   3.904   9.395 -0.5145 -0.7713 -0.8094
   32MOL0     C 4097   1.650   3.855   9.422 -0.0906 -0.7338  0.1806
   32MOL0     C 4098   1.597   3.847   9.552  0.1814 -0.0910  0.0135
   32MOL0     C 4099   1.681   3.888   9.661  0.2696 -0.1828  0.5546
   32MOL0     O 4100   1.643   3.879   9.791  0.0256  0.0809 -0.8789
   32MOL0     C 4101   1.533   3.795   9.837 -0.8287 -0.8509  0.4712
   32MOL0     C 4102   1.405   3.872   9.822  0.6402 -1.2455  0.2001
   32MOL0     C 4103   1.388   3.965   9.944  1.0791 -0.7690  0.4605
   32MOL0     C 4104   1.274   4.058   9.909  0.7861 -0.6978  0.9531
   32MOL0     C 4105   1.224   4.137  10.029  1.3078  0.1233  0.8013
   32MOL0     C 4106   1.159   4.047  10.144  0.0697 -0.6542 -0.5812
   32MOL0     C 4107   1.103   4.123  10.268 -0.0507  0.1346  0.1360
   32MOL0     C 4108   1.008   4.238  10.226 -0.5492 -0.4200 -0.7365
   32MOL0     N 4109   0.892   4.234  10.318  0.0895 -0.5017 -0.4591
   32MOL0     C 4110   0.869   4.324  10.419 -0.4114  0.4664 -0.0463
   32MOL0     C 4111   0.744   4.296  10.456  0.9189 -0.0761  0.9738
   32MOL0     C 4112   0.662   4.365  10.563 -0.7130  0.6913  0.2596
   32MOL0     C 4113   0.517   4.378  10.506  0.7978  0.2744  0.6494
   32MOL0     C 4114   0.420   4.455  10.608  0.3913 -0.1216  0.2870
   32MOL0     C 4115   0.278   4.445  10.557 -0.8732  0.1358 -0.4260
   32MOL0     O 4116   0.178   4.497  10.651  0.0834 -0.4253 -0.2125
   32MOL0     C 4117   0.059   4.531  10.580  0.8129  0.5811  0.3386
   32MOL0     C 4118   0.004   4.451  10.479 -0.2352  0.3071  0.9287
   32MOL0     C 4119  -0.114   4.500  10.421 -0.1549 -0.3453  0.0958
   32MOL0     C 4120  -0.183   4.624  10.454 -0.0981  0.2760  0.2991
   32MOL0     C 4121  -0.305   4.673  10.388 -0.6914 -1.1048 -1.0235
   32MOL0     O 4122  -0.351   4.613  10.276 -0.4532 -0.0866 -0.0249
   32MOL0     C 4123  -0.479   4.630  10.232 -0.5822 -0.1428 -0.0144
   32MOL0     C 4124  -0.528   4.746  10.175 -0.1604  0.1150 -0.3271
   32MOL0     C 4125  -0.656   4.762  10.130  0.3981  1.4960 -0.6233
   32MOL0     C 4126  -0.743   4.654  10.148 -0.0831 -0.8740 -0.1528
   32MOL0     O 4127  -0.864   4.684  10.100 -0.3365  0.1761  0.4514
   32MOL0     C 4128  -0.923   4.602  10.001 -0.1413  0.0287 -0.0485
   32MOL0     C 4129  -1.066   4.641   9.953 -0.1006  0.5674 -0.3897
   32MOL0     C 4130  -1.075   4.794   9.924 -1.3811  0.3052 -0.3790
   32MOL0     C 4131  -1.156   4.852  10.039 -0.2931  0.2814  1.1306
   32MOL0     C 4132  -1.195   4.991   9.994 -0.6468 -1.1169 -0.6903
   32MOL0     C 4133  -1.075   5.078   9.956  0.2770 -0.2870  0.5580
   32MOL0     C 4134  -0.965   5.081  10.064  0.9572 -0.4008 -0.1796
   32MOL0     C 4135  -0.841   5.162  10.022 -0.0069 -0.1751 -0.9564
   32MOL0    Cl 4136  -0.752   5.093   9.882 -0.0798  0.0552 -0.2617
   32MOL0     C 4137  -0.708   4.536  10.200 -0.2202  0.6520 -1.0005
   32MOL0     C 4138  -0.574   4.526  10.249 -0.1883  0.2956  1.0756
   32MOL0     O 4139  -0.356   4.777  10.436  0.5353 -0.1210 -0.5835
   32MOL0     C 4140  -0.120   4.684  10.567  0.0703 -0.8098 -0.5009
   32MOL0     C 4141  -0.007   4.644  10.628  0.4995  0.1511 -0.7522
   32MOL0     N 4142   0.695   4.193  10.375  1.1897 -0.5817 -0.0173
   32MOL0     N 4143   0.778   4.170  10.287 -0.4963  0.3556  0.5551
   32MOL0     C 4144   1.806   3.927   9.630  0.5655 -0.5643  0.5850
   32MOL0     C 4145   1.858   3.929   9.501 -0.4070 -0.4893 -0.1551
   32MOL0     C 4146   1.903   3.991   9.063  0.7142  0.0400  0.3557
   32MOL0     C 4147   1.913   4.101   8.975 -0.7963 -0.5397  0.5303
   32MOL0     C 4148   1.942   4.086   8.838  0.8546 -0.6672  0.1874
   32MOL0     C 4149   1.956   3.960   8.790  0.4946 -0.5902  0.1064
   32MOL0     O 4150   2.002   3.946   8.658 -0.2872  0.1064  0.8611
   32MOL0     C 4151   2.135   3.980   8.642  0.2866 -0.3433  0.1341
   32MOL0     C 4152   2.163   4.115   8.570  0.2334 -0.1428 -0.4168
   32MOL0     C 4153   2.300   4.179   8.604 -0.6361  0.2588 -0.4868
   32MOL0     C 4154   2.286   4.282   8.713  0.1279 -0.6839  0.1513
   32MOL0     C 4155   2.268   4.222   8.847 -0.3669  0.5208 -0.3485
   32MOL0     C 4156   2.263   4.165   8.956  1.1347 -0.6922 -0.4512
   32MOL0     C 4157   1.953   3.848   8.869  0.1544 -0.3707 -0.7780
   32MOL0     C 4158   1.920   3.865   9.006 -0.0994 -0.2271  0.4673
   32MOL0     H 4159   1.599   3.812   9.336 -0.4950 -3.1231  1.5224
   32MOL0     H 4160   1.497   3.805   9.552 -0.0425  0.4238 -0.2481
   32MOL0     H 4161   1.566   3.780   9.941  0.9002  1.5082  0.3589
   32MOL0     H 4162   1.548   3.706   9.775  4.2735  0.9585 -1.4215
   32MOL0     H 4163   1.315   3.812   9.803 -0.4024 -0.6949  2.9908
   32MOL0     H 4164   1.419   3.940   9.738  0.2836  0.2789  1.3249
   32MOL0     H 4165   1.477   4.026   9.966 -0.6323  1.8277  0.5505
   32MOL0     H 4166   1.365   3.901  10.030  0.4543  1.5800  2.1208
   32MOL0     H 4167   1.312   4.132   9.839  0.8112 -2.8844 -1.4767
   32MOL0     H 4168   1.192   4.003   9.861  1.4194 -0.6127 -0.2619
   32MOL0     H 4169   1.144   4.206  10.000  1.5452  0.3196  0.6162
   32MOL0     H 4170   1.306   4.191  10.078  0.9113  1.3219  0.1922
   32MOL0     H 4171   1.233   3.976  10.184  1.5063  1.2694  0.3494
   32MOL0     H 4172   1.068   4.003  10.102 -0.0662 -0.2163 -0.7491
   32MOL0     H 4173   1.054   4.042  10.322 -5.3266  1.8347 -1.4728
   32MOL0     H 4174   1.180   4.155  10.338 -0.5747 -3.6393  2.7169
   32MOL0     H 4175   0.964   4.211  10.129  1.2273 -2.2170 -1.1152
   32MOL0     H 4176   1.034   4.344  10.229 -2.4961  0.0813  0.8565
   32MOL0     H 4177   0.924   4.412  10.449 -1.2341  1.7912 -2.2046
   32MOL0     H 4178   0.698   4.468  10.566  3.6492 -0.6091 -0.2699
   32MOL0     H 4179   0.672   4.310  10.657  0.9319 -1.0126 -0.8313
   32MOL0     H 4180   0.489   4.279  10.468 -0.3306 -0.5057  3.3026
   32MOL0     H 4181   0.526   4.436  10.414 -0.2613 -0.2207  0.2196
   32MOL0     H 4182   0.428   4.403  10.703  1.7358 -0.6002 -0.0597
   32MOL0     H 4183   0.454   4.559  10.618 -1.8943  0.8100 -0.8591
   32MOL0     H 4184   0.261   4.341  10.527 -2.5966  0.2889 -0.0846
   32MOL0     H 4185   0.281   4.501  10.463  2.6125 -0.6483 -0.9213
   32MOL0     H 4186   0.060   4.370  10.433  0.9328  1.6980 -0.2237
   32MOL0     H 4187  -0.157   4.456  10.332  0.9646  1.4350 -1.3709
   32MOL0     H 4188  -0.462   4.829  10.156 -2.8385  2.9813  1.8020
   32MOL0     H 4189  -0.690   4.849  10.075  0.4785 -0.0433 -3.2759
   32MOL0     H 4190  -0.933   4.501  10.042  0.7729  0.0125  0.1481
   32MOL0     H 4191  -0.857   4.609   9.915 -1.0816  0.0746 -0.7820
   32MOL0     H 4192  -1.133   4.601  10.030 -0.2386 -1.5547 -1.5507
   32MOL0     H 4193  -1.091   4.571   9.873  0.2223  0.8468 -0.7399
   32MOL0     H 4194  -1.110   4.817   9.823  0.4046 -0.8323 -1.3088
   32MOL0     H 4195  -0.976   4.839   9.913 -1.1901 -0.6027 -2.9302
   32MOL0     H 4196  -1.248   4.795  10.051 -0.5943 -0.5060 -3.3919
   32MOL0     H 4197  -1.103   4.859  10.135 -0.3389 -1.0883  1.2738
   32MOL0     H 4198  -1.254   5.044  10.070 -1.2690 -3.0026  0.2125
   32MOL0     H 4199  -1.258   4.991   9.905  0.9955  1.1778 -1.9411
   32MOL0     H 4200  -1.114   5.180   9.953 -2.4351 -1.1838  2.0660
   32MOL0     H 4201  -1.040   5.043   9.858 -1.6553 -0.1386 -0.2261
   32MOL0     H 4202  -1.019   5.121  10.150 -0.1895 -2.1154 -0.0537
   32MOL0     H 4203  -0.931   4.982  10.096  1.7425 -0.6282 -1.6351
   32MOL0     H 4204  -0.765   5.149  10.100 -1.6602 -2.2889  0.4333
   32MOL0     H 4205  -0.865   5.268  10.014 -1.0271 -0.1847  1.3130
   32MOL0     H 4206  -0.782   4.461  10.224  2.0242 -1.1550  0.6914
   32MOL0     H 4207  -0.535   4.435  10.293  1.0219  0.4425  0.3695
   32MOL0     H 4208  -0.159   4.775  10.611  1.8382 -0.5040  0.5536
   32MOL0     H 4209   0.019   4.704  10.715  0.0272 -0.9548  0.1803
   32MOL0     H 4210   1.878   3.943   9.710  2.2144  0.1028 -0.9568
   32MOL0     H 4211   1.953   3.972   9.473 -1.7602  2.0435 -1.2244
   32MOL0     H 4212   1.893   4.203   9.007  2.7528  1.5337 -2.8794
   32MOL0     H 4213   1.954   4.173   8.774 -1.6500 -0.2778  0.1365
   32MOL0     H 4214   2.186   3.900   8.587 -0.5841 -0.4449 -0.5572
   32MOL0     H 4215   2.187   3.993   8.738 -1.9973  1.8923  1.1793
   32MOL0     H 4216   2.156   4.095   8.463 -0.2037  1.7686 -0.7722
   32MOL0     H 4217   2.081   4.185   8.591  1.8859  1.4302  1.1265
   32MOL0     H 4218   2.349   4.225   8.517  0.4164 -1.8261 -1.0670
   32MOL0     H 4219   2.379   4.108   8.630 -1.3891 -0.6788 -0.6886
   32MOL0     H 4220   2.359   4.363   8.711  0.3003 -0.7319  2.2179
   32MOL0     H 4221   2.198   4.339   8.682  1.4668  0.6753 -1.3715
   32MOL0     H 4222   2.263   4.085   9.027 -1.5245  0.5778  1.1660
   32MOL0     H 4223   1.975   3.756   8.817 -3.2071 -1.0037 -1.2706
   32MOL0     H 4224   1.900   3.773   9.059  1.4453 -0.5294  0.5801
   33MOL0     O 4225  11.014   0.543   1.465 -0.0757  0.5522  0.7763
   33MOL0     C 4226  10.950   0.561   1.359  0.2893  0.2989 -0.3875
   33MOL0     O 4227  10.818   0.562   1.347 -0.4867 -0.4416 -0.3717
   33MOL0     C 4228  10.747   0.613   1.451  0.4912 -0.2107 -0.5074
   33MOL0     C 4229  10.779   0.725   1.536 -0.0625 -0.4741 -0.5585
   33MOL0     C 4230  10.684   0.758   1.641 -0.1168 -0.2685 -0.0452
   33MOL0     C 4231  10.566   0.687   1.663  0.1268 -0.7403 -0.4273
   33MOL0     O 4232  10.487   0.710   1.774 -0.8471  0.4274  0.1957
   33MOL0     C 4233  10.525   0.779   1.894 -0.1502  0.4333  0.3905
   33MOL0     C 4234  10.407   0.795   1.986  0.7083  0.8070 -0.2304
   33MOL0     C 4235  10.452   0.850   2.126  0.5157 -0.1322  0.1656
   33MOL0     C 4236  10.501   0.732   2.210  0.8293  0.3072 -0.2721
   33MOL0     C 4237  10.394   0.638   2.260  0.1998 -0.7997  0.0970
   33MOL0     C 4238  10.293   0.712   2.332 -0.8398 -0.3505 -0.0595
   33MOL0     C 4239  10.210   0.617   2.414  0.1110  0.3753  0.5025
   33MOL0     C 4240  10.090   0.687   2.466 -0.5177  0.0029  0.6000
   33MOL0     N 4241  10.128   0.789   2.561 -0.3892  0.4504 -0.2924
   33MOL0     C 4242  10.215   0.776   2.667  0.2689 -0.6343 -0.3922
   33MOL0     C 4243  10.240   0.908   2.696 -0.2044 -0.2236  0.3273
   33MOL0     C 4244  10.324   0.942   2.824 -0.1261  1.7098 -0.2296
   33MOL0     C 4245  10.473   0.958   2.790 -0.6287 -0.3755 -0.2475
   33MOL0     C 4246  10.568   0.900   2.902 -0.9263 -0.6173  0.6412
   33MOL0     C 4247  10.583   0.752   2.892 -0.6788 -0.3915 -0.6294
   33MOL0     O 4248  10.642   0.712   2.778  0.2546 -0.3182 -0.2994
   33MOL0     C 4249  10.778   0.739   2.743 -0.0269 -0.4698  0.2452
   33MOL0     C 4250  10.818   0.682   2.624 -0.2732 -0.6697  0.0830
   33MOL0     C 4251  10.947   0.706   2.574  1.6732 -0.0625 -0.3740
   33MOL0     C 4252  11.038   0.778   2.643  0.1119  0.5838  0.1393
   33MOL0     C 4253  11.178   0.791   2.598 -0.0724 -0.4217  0.9242
   33MOL0     O 4254  11.196   0.797   2.465  0.2932 -0.3399 -0.4060
   33MOL0     C 4255  11.318   0.837   2.419 -0.8224  0.2917 -0.6424
   33MOL0     C 4256  11.442   0.780   2.442 -0.0042  0.2396  0.0512
   33MOL0     C 4257  11.557   0.810   2.373 -0.6393  0.9345 -0.6501
   33MOL0     C 4258  11.549   0.895   2.262  0.4183 -0.2901  0.1825
   33MOL0     O 4259  11.654   0.936   2.187 -0.7070 -0.0424 -0.5216
   33MOL0     C 4260  11.723   0.830   2.137  0.5950  0.4200  0.0368
   33MOL0     C 4261  11.839   0.887   2.045 -0.2422 -0.9157 -0.5163
   33MOL0     C 4262  11.879   0.781   1.944  0.0494  0.8494 -0.0709
   33MOL0     C 4263  12.010   0.819   1.874 -0.7065 -0.5115 -0.1619
   33MOL0     C 4264  12.044   0.712   1.774 -0.5826 -0.7415 -0.3002
   33MOL0     C 4265  12.193   0.745   1.727  0.2109  0.5223  0.3557
   33MOL0     C 4266  12.255   0.652   1.610  0.5483 -0.4005 -0.5450
   33MOL0     C 4267  12.182   0.668   1.474 -0.3416 -0.0588  0.9697
   33MOL0    Cl 4268  12.214   0.523   1.377  0.0464  0.1929 -0.1695
   33MOL0     C 4269  11.420   0.944   2.230 -0.4917 -0.6756  0.3040
   33MOL0     C 4270  11.307   0.920   2.308 -0.3465 -0.2682  1.5397
   33MOL0     O 4271  11.263   0.797   2.689  0.1597  0.3272 -0.1851
   33MOL0     C 4272  10.997   0.835   2.762 -0.8561  0.4358  0.5334
   33MOL0     C 4273  10.870   0.819   2.810  1.2206 -0.2319  0.4086
   33MOL0     N 4274  10.177   0.999   2.614  0.5599 -0.4984 -1.1345
   33MOL0     N 4275  10.120   0.923   2.532 -0.5305 -0.2835  0.7172
   33MOL0     C 4276  10.547   0.576   1.586 -0.8548  0.2250  0.4104
   33MOL0     C 4277  10.630   0.535   1.480  0.1055 -0.3840  0.5015
   33MOL0     C 4278  11.020   0.563   1.227  0.0597 -1.4678 -0.5276
   33MOL0     C 4279  10.946   0.545   1.109  0.4360 -0.0199  0.8496
   33MOL0     C 4280  11.004   0.536   0.982 -0.8925 -1.0808  0.9917
   33MOL0     C 4281  11.146   0.539   0.966  0.2678  0.1179  0.6425
   33MOL0     O 4282  11.217   0.542   0.847 -0.6252 -0.0617  0.2316
   33MOL0     C 4283  11.156   0.596   0.729  0.2858 -0.7124  0.0961
   33MOL0     C 4284  11.258   0.633   0.619  0.0421 -1.0651 -0.1217
   33MOL0     C 4285  11.344   0.759   0.658  0.9054  0.9725 -0.6279
   33MOL0     C 4286  11.464   0.773   0.563 -1.2674 -0.4776 -1.1115
   33MOL0     C 4287  11.557   0.656   0.596  0.3097  0.3141  0.3711
   33MOL0     C 4288  11.645   0.583   0.639 -0.0054 -0.4031 -0.1353
   33MOL0     C 4289  11.222   0.570   1.071  0.1009  0.3697 -0.7275
   33MOL0     C 4290  11.160   0.579   1.201  0.1115 -0.5461 -0.8214
   33MOL0     H 4291  10.866   0.787   1.515  2.2602 -2.7342  1.7284
   33MOL0     H 4292  10.708   0.847   1.698  1.2345 -0.7044  0.1220
   33MOL0     H 4293  10.566   0.876   1.866 -0.4138 -0.2059 -2.4581
   33MOL0     H 4294  10.605   0.721   1.942 -0.6298 -0.2126  0.4331
   33MOL0     H 4295  10.360   0.698   2.003 -3.3612  2.4695 -0.9152
   33MOL0     H 4296  10.330   0.858   1.939 -2.2935 -3.1447 -1.1428
   33MOL0     H 4297  10.384   0.915   2.181  0.4861 -1.4666  1.7913
   33MOL0     H 4298  10.541   0.910   2.107  0.4319  0.7226  2.1785
   33MOL0     H 4299  10.565   0.669   2.147 -0.6863 -1.7306  0.1011
   33MOL0     H 4300  10.562   0.766   2.294 -1.2614 -4.7070  3.8999
   33MOL0     H 4301  10.438   0.578   2.340  1.3294 -1.4210 -0.9521
   33MOL0     H 4302  10.354   0.560   2.194 -1.0289 -1.2965  1.3769
   33MOL0     H 4303  10.234   0.768   2.258  1.8333  0.3559 -1.7732
   33MOL0     H 4304  10.341   0.791   2.390 -2.9110  2.1566 -1.5014
   33MOL0     H 4305  10.175   0.532   2.353  0.1098  0.0936  0.8915
   33MOL0     H 4306  10.267   0.578   2.499  2.5867 -0.7029 -1.5247
   33MOL0     H 4307  10.005   0.627   2.499  0.6483 -2.5159 -0.6963
   33MOL0     H 4308  10.038   0.736   2.383  0.3872 -1.5977 -0.9810
   33MOL0     H 4309  10.263   0.687   2.706  1.0809 -1.1249 -2.3859
   33MOL0     H 4310  10.316   0.855   2.890 -2.7725  1.1235 -1.1738
   33MOL0     H 4311  10.280   1.025   2.881 -2.8459  1.4990 -1.8283
   33MOL0     H 4312  10.489   1.066   2.779 -0.3961 -0.0737  2.2863
   33MOL0     H 4313  10.506   0.913   2.696  0.6379  1.8681 -0.9577
   33MOL0     H 4314  10.661   0.953   2.880  0.2934 -1.7801  2.7770
   33MOL0     H 4315  10.531   0.923   3.002  0.0939 -0.9610  1.1123
   33MOL0     H 4316  10.485   0.704   2.899  1.0924 -4.3301  0.5982
   33MOL0     H 4317  10.646   0.710   2.972 -0.7701 -1.4136 -1.0727
   33MOL0     H 4318  10.742   0.641   2.558 -0.8449 -1.7198  1.3490
   33MOL0     H 4319  10.975   0.672   2.474  1.7150 -0.8075 -0.1104
   33MOL0     H 4320  11.451   0.710   2.523 -2.7612 -1.3059 -0.8309
   33MOL0     H 4321  11.645   0.766   2.420 -1.0732  0.7946  0.0439
   33MOL0     H 4322  11.642   0.771   2.091 -1.6539  0.5018  3.5400
   33MOL0     H 4323  11.763   0.786   2.228 -0.2408  3.3567  1.9685
   33MOL0     H 4324  11.924   0.917   2.107  1.6378 -1.3488 -2.7375
   33MOL0     H 4325  11.803   0.975   1.993 -0.1913 -0.3298  0.4159
   33MOL0     H 4326  11.802   0.781   1.867 -0.0283  1.4132 -0.0007
   33MOL0     H 4327  11.893   0.683   1.991  0.6988  0.3909 -1.1957
   33MOL0     H 4328  11.998   0.921   1.835  2.2025  0.3305  0.8601
   33MOL0     H 4329  12.087   0.837   1.950 -1.1786  0.8491  0.0320
   33MOL0     H 4330  11.981   0.729   1.686  2.6840  0.0735 -2.6535
   33MOL0     H 4331  12.042   0.610   1.814 -0.7514 -0.9921 -0.9242
   33MOL0     H 4332  12.253   0.738   1.818  3.4750  5.0903 -1.0757
   33MOL0     H 4333  12.194   0.848   1.691  0.1465  0.4027  0.0115
   33MOL0     H 4334  12.359   0.680   1.591  0.2122  2.0170  0.7371
   33MOL0     H 4335  12.253   0.552   1.654 -1.2924  0.3614  1.2843
   33MOL0     H 4336  12.218   0.753   1.415 -1.9985 -1.2566 -1.9664
   33MOL0     H 4337  12.078   0.690   1.498 -1.2612 -1.0106 -1.7200
   33MOL0     H 4338  11.412   1.018   2.151 -0.7429  0.9553  1.7852
   33MOL0     H 4339  11.226   0.980   2.268  2.0128 -0.0576 -3.8531
   33MOL0     H 4340  11.059   0.903   2.821 -4.3562  1.2749  3.6750
   33MOL0     H 4341  10.848   0.877   2.899  1.3307 -2.8696  2.2386
   33MOL0     H 4342  10.456   0.522   1.612  0.0471 -2.9785 -2.2975
   33MOL0     H 4343  10.596   0.452   1.419 -2.7652  0.1416  1.2348
   33MOL0     H 4344  10.838   0.539   1.115  0.4640 -0.0321  1.4905
   33MOL0     H 4345  10.945   0.529   0.892  1.6917  1.1869 -1.0436
   33MOL0     H 4346  11.101   0.685   0.761  2.0157  0.0366  1.1632
   33MOL0     H 4347  11.077   0.528   0.696 -0.4231  0.0936  0.1079
   33MOL0     H 4348  11.328   0.550   0.610  0.5787 -0.3929 -3.2283
   33MOL0     H 4349  11.208   0.658   0.525  2.0788 -0.1501 -1.0231
   33MOL0     H 4350  11.370   0.758   0.764  0.6881  1.0354 -0.5739
   33MOL0     H 4351  11.282   0.846   0.636 -2.8635 -0.8719  1.6388
   33MOL0     H 4352  11.442   0.776   0.456 -2.2356  2.1391 -0.9265
   33MOL0     H 4353  11.519   0.862   0.596 -0.4886 -1.0070 -0.9650
   33MOL0     H 4354  11.703   0.517   0.701  1.5207  0.6623 -0.4019
   33MOL0     H 4355  11.328   0.589   1.064  0.7541 -2.2738  0.6510
   33MOL0     H 4356  11.222   0.590   1.289 -1.3479  1.6913 -0.0110
   34MOL0     O 4357   0.331   3.667   0.167  1.5688  0.3375 -0.7954
   34MOL0     C 4358   0.319   3.772   0.226 -0.1080 -0.6947  0.1053
   34MOL0     O 4359   0.209   3.856   0.228 -0.7900 -0.4121 -0.0309
   34MOL0     C 4360   0.095   3.809   0.171 -0.1417 -0.1512 -0.4564
   34MOL0     C 4361   0.062   3.850   0.044 -0.0355  0.0012 -0.5586
   34MOL0     C 4362  -0.065   3.814  -0.009  0.6409 -0.4030  0.8667
   34MOL0     C 4363  -0.145   3.731   0.056  0.6487  1.1360  0.2761
   34MOL0     O 4364  -0.265   3.688   0.001 -0.0513  0.3054 -0.0816
   34MOL0     C 4365  -0.363   3.782  -0.017 -0.6375  0.1783  0.6019
   34MOL0     C 4366  -0.478   3.711  -0.076 -0.1849 -0.0467  0.6519
   34MOL0     C 4367  -0.601   3.802  -0.075 -0.4621  0.2851 -0.0845
   34MOL0     C 4368  -0.729   3.717  -0.084 -0.4541 -0.4079 -0.7193
   34MOL0     C 4369  -0.864   3.790  -0.084  0.3477  0.2139  0.5565
   34MOL0     C 4370  -0.973   3.688  -0.032 -0.6048 -0.0217  0.8688
   34MOL0     C 4371  -1.104   3.764  -0.004 -0.5833 -0.0240 -0.1149
   34MOL0     C 4372  -1.176   3.841  -0.115  0.3777  0.3291 -1.2319
   34MOL0     N 4373  -1.272   3.773  -0.193 -0.3046  0.6086  0.9791
   34MOL0     C 4374  -1.230   3.700  -0.305 -0.5851  1.0167  0.0438
   34MOL0     C 4375  -1.327   3.609  -0.324 -0.0426  1.5683  0.2630
   34MOL0     C 4376  -1.336   3.503  -0.437  1.2740  0.5461 -0.4460
   34MOL0     C 4377  -1.288   3.367  -0.371 -0.8455 -0.1786  0.8833
   34MOL0     C 4378  -1.393   3.254  -0.382  0.0317  0.6742  0.0959
   34MOL0     C 4379  -1.419   3.224  -0.529  0.9320 -0.6560  0.6585
   34MOL0     O 4380  -1.513   3.113  -0.510  0.0621 -0.2872 -0.0943
   34MOL0     C 4381  -1.617   3.095  -0.601  0.2136  0.4416 -0.3343
   34MOL0     C 4382  -1.648   3.181  -0.705 -1.1440  0.0278 -0.2079
   34MOL0     C 4383  -1.773   3.159  -0.776 -0.5765 -0.1913  0.2183
   34MOL0     C 4384  -1.860   3.055  -0.745  0.7495  0.3622  0.5459
   34MOL0     C 4385  -1.985   3.035  -0.812  0.2009  0.7663  0.4095
   34MOL0     O 4386  -2.078   2.943  -0.753 -0.2653  0.1696  0.3230
   34MOL0     C 4387  -2.194   2.926  -0.825  1.0667 -0.2345 -1.0499
   34MOL0     C 4388  -2.200   2.843  -0.940 -0.2900  0.5013 -0.3205
   34MOL0     C 4389  -2.329   2.804  -0.994 -0.0323 -0.5375 -0.0822
   34MOL0     C 4390  -2.441   2.874  -0.951  0.5951  0.9220 -0.3719
   34MOL0     O 4391  -2.559   2.839  -1.006  1.5915 -0.1359  0.2240
   34MOL0     C 4392  -2.644   2.946  -1.040 -0.8021  0.9297  0.0420
   34MOL0     C 4393  -2.769   2.935  -0.951 -0.0197 -0.2312 -0.5931
   34MOL0     C 4394  -2.866   2.822  -0.996  0.3279 -0.6991 -0.1491
   34MOL0     C 4395  -2.976   2.799  -0.886  0.2389  0.1498  0.1863
   34MOL0     C 4396  -3.112   2.750  -0.944 -0.3015 -0.5001  0.3943
   34MOL0     C 4397  -3.201   2.695  -0.837  0.3900  0.6689  0.3845
   34MOL0     C 4398  -3.241   2.793  -0.726  0.4026  0.0657 -0.6027
   34MOL0     C 4399  -3.351   2.743  -0.633  0.4646  0.4302 -0.1965
   34MOL0    Cl 4400  -3.510   2.787  -0.715 -0.2014  0.2528  0.3412
   34MOL0     C 4401  -2.427   2.960  -0.839 -0.3301  0.7739  0.1763
   34MOL0     C 4402  -2.305   2.986  -0.779 -0.6366 -1.2578  0.0940
   34MOL0     O 4403  -2.010   3.098  -0.916 -0.1963 -0.3888 -0.1313
   34MOL0     C 4404  -1.819   2.972  -0.645  0.7954  0.9793 -0.3910
   34MOL0     C 4405  -1.709   2.994  -0.568 -0.8200  0.8418 -0.4514
   34MOL0     N 4406  -1.423   3.630  -0.229 -0.4569  0.2875  0.3871
   34MOL0     N 4407  -1.385   3.724  -0.153 -0.5557  0.4254 -0.8543
   34MOL0     C 4408  -0.111   3.672   0.181 -0.4923  0.4200  0.3660
   34MOL0     C 4409   0.005   3.720   0.242  0.2606  0.2851  0.1689
   34MOL0     C 4410   0.438   3.824   0.293 -0.3031 -0.0910 -0.7035
   34MOL0     C 4411   0.559   3.755   0.315 -0.4345 -0.7174  0.2426
   34MOL0     C 4412   0.665   3.797   0.391 -0.4935 -0.8466 -0.2957
   34MOL0     C 4413   0.658   3.920   0.457  0.1428  0.5073  2.1925
   34MOL0     O 4414   0.771   3.967   0.531  0.1221  0.2308 -0.5477
   34MOL0     C 4415   0.780   4.104   0.570  0.5381  0.1213 -0.3017
   34MOL0     C 4416   0.810   4.194   0.450  0.7493 -0.8023 -0.3984
   34MOL0     C 4417   0.899   4.135   0.338 -0.1918  0.0458 -0.1035
   34MOL0     C 4418   1.045   4.115   0.377 -0.5556  0.2138  0.5374
   34MOL0     C 4419   1.125   4.073   0.261 -0.8267  0.2179 -0.4878
   34MOL0     C 4420   1.200   4.032   0.174  0.9228  0.1374  0.9109
   34MOL0     C 4421   0.551   3.998   0.418 -0.1266  0.5355 -0.1843
   34MOL0     C 4422   0.440   3.958   0.338 -0.3223  0.5654  0.3337
   34MOL0     H 4423   0.124   3.916  -0.016  0.1525  0.5012  0.1790
   34MOL0     H 4424  -0.089   3.855  -0.106  2.0361  0.0939  0.7057
   34MOL0     H 4425  -0.325   3.850  -0.094 -0.6104  0.3404  0.7545
   34MOL0     H 4426  -0.387   3.843   0.071 -0.4989  3.5476 -1.4995
   34MOL0     H 4427  -0.499   3.621  -0.017  0.3120 -0.9844 -0.5735
   34MOL0     H 4428  -0.449   3.683  -0.178 -3.1417  1.8107 -0.8237
   34MOL0     H 4429  -0.612   3.878  -0.152 -1.9579  0.9701  0.7769
   34MOL0     H 4430  -0.595   3.860   0.017  1.0010  0.2795 -0.1478
   34MOL0     H 4431  -0.720   3.651  -0.171  1.8800 -1.1673  0.0126
   34MOL0     H 4432  -0.721   3.663   0.011 -1.0242  2.1044  0.8349
   34MOL0     H 4433  -0.877   3.838  -0.182 -0.9276 -3.7430 -1.4642
   34MOL0     H 4434  -0.873   3.867  -0.007 -2.7761 -0.6247  1.1925
   34MOL0     H 4435  -0.945   3.653   0.068  0.3213 -0.1890  0.5621
   34MOL0     H 4436  -0.992   3.601  -0.096  3.4208 -2.4014  2.5109
   34MOL0     H 4437  -1.169   3.685   0.035  0.2213 -0.2825  0.7149
   34MOL0     H 4438  -1.082   3.837   0.074 -2.3489 -2.4297  2.8678
   34MOL0     H 4439  -1.099   3.874  -0.184  0.7041 -0.3292 -1.1869
   34MOL0     H 4440  -1.229   3.928  -0.074 -1.6907 -0.3250 -2.3595
   34MOL0     H 4441  -1.136   3.714  -0.357 -0.4233  0.9306  0.3095
   34MOL0     H 4442  -1.283   3.530  -0.529  0.7552 -0.1523 -0.9637
   34MOL0     H 4443  -1.438   3.494  -0.475  1.8566  5.8764 -4.4150
   34MOL0     H 4444  -1.257   3.385  -0.267  0.5825 -2.5026  0.9302
   34MOL0     H 4445  -1.190   3.344  -0.413  0.2726  0.3129  3.0381
   34MOL0     H 4446  -1.357   3.165  -0.330  0.1024 -0.6057 -2.0425
   34MOL0     H 4447  -1.477   3.286  -0.319  0.7881 -0.7072  1.9132
   34MOL0     H 4448  -1.322   3.181  -0.554 -0.1815 -3.7705  1.3006
   34MOL0     H 4449  -1.448   3.307  -0.594  2.0835 -0.6436  0.1335
   34MOL0     H 4450  -1.578   3.260  -0.729  0.4681 -1.0560  0.6686
   34MOL0     H 4451  -1.806   3.238  -0.844  1.1627  1.3870  1.1083
   34MOL0     H 4452  -2.110   2.789  -0.967 -1.2457 -0.7507 -1.1411
   34MOL0     H 4453  -2.335   2.736  -1.078 -0.3842  3.1207 -3.2869
   34MOL0     H 4454  -2.674   2.933  -1.145 -0.4608 -0.2046  0.0696
   34MOL0     H 4455  -2.603   3.047  -1.040 -0.6850  0.9576 -2.6859
   34MOL0     H 4456  -2.823   3.028  -0.970 -0.5178 -0.4441 -0.2434
   34MOL0     H 4457  -2.752   2.916  -0.845 -2.4791  0.6282  0.0226
   34MOL0     H 4458  -2.798   2.738  -1.014  4.8968  3.0336 -2.5676
   34MOL0     H 4459  -2.916   2.847  -1.090 -0.2131 -0.7533  0.1235
   34MOL0     H 4460  -2.942   2.731  -0.808 -1.3273  0.2061  0.9589
   34MOL0     H 4461  -3.000   2.897  -0.842 -3.8876 -0.4126 -0.3757
   34MOL0     H 4462  -3.087   2.684  -1.027  1.2365 -1.0707  1.2734
   34MOL0     H 4463  -3.165   2.836  -0.987  1.2866  0.4330  0.1989
   34MOL0     H 4464  -3.153   2.604  -0.799 -1.8986  0.2725  2.5810
   34MOL0     H 4465  -3.290   2.652  -0.884  0.5601 -1.3135  1.7536
   34MOL0     H 4466  -3.158   2.819  -0.660 -0.6369  1.8736  0.0833
   34MOL0     H 4467  -3.270   2.897  -0.748 -0.4543  0.0065  0.2256
   34MOL0     H 4468  -3.345   2.793  -0.536  0.0750  0.4615 -0.1866
   34MOL0     H 4469  -3.339   2.634  -0.623  0.1369  0.4846  1.0322
   34MOL0     H 4470  -2.515   3.002  -0.791 -1.6584 -0.2917 -1.2273
   34MOL0     H 4471  -2.311   3.061  -0.700 -3.1077 -0.0116 -1.1399
   34MOL0     H 4472  -1.883   2.888  -0.619  3.2822 -0.6853  0.8050
   34MOL0     H 4473  -1.666   2.926  -0.496 -2.4841 -1.6601 -1.6937
   34MOL0     H 4474  -0.173   3.599   0.233  0.2902 -0.1109  0.5693
   34MOL0     H 4475   0.032   3.689   0.342 -1.5597  0.1390  0.6569
   34MOL0     H 4476   0.579   3.659   0.269  0.8715 -0.2839 -0.1331
   34MOL0     H 4477   0.755   3.740   0.416  0.1241  0.4426  0.5216
   34MOL0     H 4478   0.860   4.120   0.643  0.5664  4.1247 -0.9697
   34MOL0     H 4479   0.691   4.142   0.621  1.2539 -0.4980  1.4661
   34MOL0     H 4480   0.719   4.228   0.401  0.7083 -0.0135  0.2154
   34MOL0     H 4481   0.849   4.287   0.491  0.3179 -0.2623 -1.2037
   34MOL0     H 4482   0.908   4.221   0.271 -0.1824  0.0863 -0.0505
   34MOL0     H 4483   0.861   4.055   0.275  0.6517 -0.9796  0.6602
   34MOL0     H 4484   1.095   4.210   0.395  3.5703 -1.5251 -0.5696
   34MOL0     H 4485   1.057   4.049   0.463 -1.0843  0.0462  0.4854
   34MOL0     H 4486   1.261   4.004   0.091 -0.4410  2.6427 -1.1037
   34MOL0     H 4487   0.555   4.097   0.462  5.7496  0.1138  1.0982
   34MOL0     H 4488   0.364   4.030   0.311 -0.7867  0.6241  1.7052
   35MOL0     O 4489   1.670   7.574   8.542  0.1979 -0.0960 -0.5387
   35MOL0     C 4490   1.794   7.584   8.529  0.3746 -0.8380  0.1289
   35MOL0     O 4491   1.865   7.701   8.561  0.4436  0.5213 -0.1915
   35MOL0     C 4492   1.787   7.813   8.574 -0.4457  0.1342 -0.7654
   35MOL0     C 4493   1.691   7.835   8.678 -0.0380  0.7736 -0.0382
   35MOL0     C 4494   1.631   7.961   8.685  0.9767  0.6210  0.3927
   35MOL0     C 4495   1.643   8.054   8.582 -0.7754  0.4292  0.1958
   35MOL0     O 4496   1.556   8.160   8.589  0.2618  0.6823  0.3445
   35MOL0     C 4497   1.492   8.210   8.471 -0.4787  0.2349 -0.4762
   35MOL0     C 4498   1.371   8.135   8.415  0.7557 -0.5504 -0.2999
   35MOL0     C 4499   1.278   8.219   8.341  0.6817 -0.3024 -0.1304
   35MOL0     C 4500   1.162   8.135   8.287  0.2423  0.2425  0.3883
   35MOL0     C 4501   1.026   8.222   8.290  0.5366  0.3154  0.0477
   35MOL0     C 4502   1.032   8.353   8.209 -0.0781 -0.6089  0.0647
   35MOL0     C 4503   0.900   8.437   8.223  0.3859  0.7744 -0.4443
   35MOL0     C 4504   0.839   8.448   8.358  1.1124 -0.3821 -0.1167
   35MOL0     N 4505   0.928   8.505   8.465 -0.9490 -0.1301 -0.2442
   35MOL0     C 4506   1.025   8.606   8.452  0.5537  0.3461 -0.1824
   35MOL0     C 4507   1.092   8.600   8.570 -0.2195  1.1111 -0.4018
   35MOL0     C 4508   1.215   8.688   8.593  1.1831 -0.4801  0.4801
   35MOL0     C 4509   1.344   8.607   8.602  0.0481  1.2419  0.3614
   35MOL0     C 4510   1.365   8.555   8.751 -0.0158  0.5810 -0.1519
   35MOL0     C 4511   1.496   8.493   8.781 -0.5514  0.4109 -0.2188
   35MOL0     O 4512   1.601   8.581   8.749  0.4783 -0.5774  0.5327
   35MOL0     C 4513   1.694   8.522   8.661 -0.1108 -0.7870 -0.3567
   35MOL0     C 4514   1.758   8.408   8.700 -0.8521  0.3876  0.1697
   35MOL0     C 4515   1.844   8.332   8.620 -0.5510 -0.4340  0.9887
   35MOL0     C 4516   1.873   8.384   8.497 -0.9389 -0.6951  0.4578
   35MOL0     C 4517   1.968   8.310   8.408 -0.0530  0.4437 -0.3290
   35MOL0     O 4518   2.039   8.210   8.475 -0.3982  0.2422 -0.3855
   35MOL0     C 4519   2.120   8.137   8.393  0.5966 -0.1776 -0.2881
   35MOL0     C 4520   2.250   8.121   8.424 -0.2206 -1.0825 -0.6011
   35MOL0     C 4521   2.337   8.060   8.339  0.4764  0.9645 -0.8021
   35MOL0     C 4522   2.295   7.996   8.222  0.3333 -0.0110  0.1696
   35MOL0     O 4523   2.375   7.932   8.133 -0.4918 -0.1089  0.0594
   35MOL0     C 4524   2.500   7.880   8.171  0.0881 -0.3162 -0.3577
   35MOL0     C 4525   2.550   7.771   8.070  0.1026  0.5826  0.1543
   35MOL0     C 4526   2.689   7.732   8.100  0.3664 -0.8552 -0.0885
   35MOL0     C 4527   2.752   7.644   7.981  0.1050 -0.3639 -0.4651
   35MOL0     C 4528   2.886   7.587   8.037  0.2090 -0.1605  0.5527
   35MOL0     C 4529   2.972   7.515   7.932  0.2321  0.5741 -0.4206
   35MOL0     C 4530   2.906   7.386   7.891  0.1251  0.6186 -0.0133
   35MOL0     C 4531   2.990   7.306   7.793 -0.2485  0.2001 -0.3769
   35MOL0    Cl 4532   3.146   7.263   7.873 -0.1731  0.4418  0.3582
   35MOL0     C 4533   2.157   8.004   8.197  0.6627  0.5631  0.1932
   35MOL0     C 4534   2.076   8.079   8.274 -0.5750 -0.1576 -0.6270
   35MOL0     O 4535   1.957   8.336   8.284  0.2420 -0.3452 -0.9393
   35MOL0     C 4536   1.822   8.511   8.464 -0.3905  0.5850 -0.0630
   35MOL0     C 4537   1.732   8.587   8.542 -0.0206 -0.0344 -1.5623
   35MOL0     N 4538   1.038   8.505   8.657 -0.1256 -0.1996  0.8002
   35MOL0     N 4539   0.945   8.455   8.590  1.0081  0.0753  0.2726
   35MOL0     C 4540   1.732   8.025   8.483 -0.8170 -1.2214  0.3570
   35MOL0     C 4541   1.809   7.907   8.480 -0.1771 -0.3080  0.7923
   35MOL0     C 4542   1.860   7.449   8.505  0.0664  0.8127  1.2342
   35MOL0     C 4543   1.791   7.337   8.450 -0.3288  0.0155 -0.8282
   35MOL0     C 4544   1.863   7.219   8.428 -0.0762  0.6147 -0.4642
   35MOL0     C 4545   2.003   7.219   8.446 -0.4552 -0.4894 -0.0695
   35MOL0     O 4546   2.070   7.100   8.449  0.3382  0.2051  0.4235
   35MOL0     C 4547   2.085   7.034   8.572 -0.2009  0.1543  0.1643
   35MOL0     C 4548   2.151   6.896   8.565  0.1642  0.2812 -0.3089
   35MOL0     C 4549   2.240   6.859   8.680 -0.6930  1.0304  0.1695
   35MOL0     C 4550   2.383   6.897   8.666 -0.8050 -0.1333  0.1104
   35MOL0     C 4551   2.458   6.831   8.556  1.0861  0.6305 -0.2408
   35MOL0     C 4552   2.515   6.776   8.461 -0.1260 -0.0420  0.1627
   35MOL0     C 4553   2.064   7.329   8.498 -0.3116 -0.4286  0.5332
   35MOL0     C 4554   1.996   7.443   8.526 -0.0921 -0.1459 -0.0859
   35MOL0     H 4555   1.664   7.768   8.759 -0.7110  1.2628  0.1623
   35MOL0     H 4556   1.554   7.966   8.762 -1.4148  2.2874 -1.9495
   35MOL0     H 4557   1.571   8.215   8.396 -0.2042  2.1261 -0.1144
   35MOL0     H 4558   1.465   8.314   8.492  2.0059  1.1696 -1.5543
   35MOL0     H 4559   1.313   8.090   8.496  2.8237 -1.5471  0.7092
   35MOL0     H 4560   1.412   8.058   8.350  2.8872  2.3008 -2.6010
   35MOL0     H 4561   1.320   8.277   8.258 -2.0997  3.9967  1.1108
   35MOL0     H 4562   1.244   8.293   8.414  0.4701  0.2885 -0.8223
   35MOL0     H 4563   1.185   8.117   8.182  1.7484  3.6009  0.0351
   35MOL0     H 4564   1.135   8.043   8.340 -1.8770 -0.9813 -2.5923
   35MOL0     H 4565   1.007   8.236   8.397  3.1423  0.5027  0.5651
   35MOL0     H 4566   0.950   8.167   8.233 -1.1424  1.2886  1.2502
   35MOL0     H 4567   1.057   8.353   8.102  1.8005  3.7453  0.2935
   35MOL0     H 4568   1.116   8.413   8.246  0.2334  0.0207 -1.5591
   35MOL0     H 4569   0.903   8.531   8.168 -0.4300  1.7862  1.1663
   35MOL0     H 4570   0.830   8.373   8.168  1.6686 -1.8705  0.7728
   35MOL0     H 4571   0.792   8.356   8.393 -1.0050  0.1825 -1.2948
   35MOL0     H 4572   0.760   8.524   8.359  1.4954  0.0614  2.1790
   35MOL0     H 4573   1.053   8.654   8.359 -0.8402 -0.4047 -1.0211
   35MOL0     H 4574   1.199   8.743   8.687  1.2864  2.1880 -0.9743
   35MOL0     H 4575   1.225   8.753   8.506  1.9155  2.3529  2.5086
   35MOL0     H 4576   1.430   8.670   8.576  0.0774  0.3773 -1.8731
   35MOL0     H 4577   1.343   8.517   8.541  0.7938  0.9182  0.8089
   35MOL0     H 4578   1.351   8.633   8.826 -2.0059  0.2338 -0.1103
   35MOL0     H 4579   1.288   8.482   8.777  3.8986 -4.5236 -1.0150
   35MOL0     H 4580   1.503   8.401   8.722  0.8078 -0.2202  0.8843
   35MOL0     H 4581   1.509   8.466   8.886  0.0510 -0.9899 -0.6213
   35MOL0     H 4582   1.749   8.371   8.802  0.8811 -0.3235  0.0962
   35MOL0     H 4583   1.877   8.233   8.652  0.2690 -0.6621 -0.4867
   35MOL0     H 4584   2.286   8.161   8.518  0.4750  0.1605 -1.3709
   35MOL0     H 4585   2.440   8.071   8.371  0.4945 -4.0515  1.9146
   35MOL0     H 4586   2.499   7.838   8.273  5.0851 -3.6282 -1.2684
   35MOL0     H 4587   2.563   7.969   8.179 -2.5311  1.5073  1.2839
   35MOL0     H 4588   2.539   7.796   7.964 -1.9237 -0.3332  0.1034
   35MOL0     H 4589   2.495   7.681   8.099 -1.8323  1.9661  1.0151
   35MOL0     H 4590   2.699   7.696   8.203 -0.7578 -0.0594  0.3161
   35MOL0     H 4591   2.746   7.823   8.081  0.2633 -0.6309  0.6465
   35MOL0     H 4592   2.684   7.560   7.964 -2.6371  2.1126 -3.0411
   35MOL0     H 4593   2.771   7.696   7.887  2.1151  0.1600  0.1912
   35MOL0     H 4594   2.860   7.525   8.123 -0.9119 -0.6437 -0.1017
   35MOL0     H 4595   2.953   7.661   8.081  0.5347 -1.5231  2.4601
   35MOL0     H 4596   3.069   7.477   7.966 -0.8314 -0.4345  1.7260
   35MOL0     H 4597   2.977   7.582   7.846 -2.6412 -0.2868 -1.3433
   35MOL0     H 4598   2.887   7.329   7.982  0.9110 -1.1844 -0.9422
   35MOL0     H 4599   2.813   7.411   7.839  0.2366  1.2005  0.0543
   35MOL0     H 4600   2.995   7.364   7.700  0.0309  2.2379  0.8539
   35MOL0     H 4601   2.934   7.216   7.766 -1.9915  1.5343 -1.4455
   35MOL0     H 4602   2.118   7.970   8.102  2.0714 -1.0826  0.1402
   35MOL0     H 4603   1.972   8.090   8.246 -1.3324  2.2431  2.5627
   35MOL0     H 4604   1.855   8.541   8.365 -1.3098 -2.6621 -1.4862
   35MOL0     H 4605   1.686   8.683   8.518 -0.6379 -0.1251 -0.7696
   35MOL0     H 4606   1.733   8.097   8.402  1.2022 -0.4942  0.9717
   35MOL0     H 4607   1.887   7.894   8.405  0.3996  0.5632  1.2247
   35MOL0     H 4608   1.683   7.339   8.446 -0.3652  1.5470  0.0833
   35MOL0     H 4609   1.803   7.129   8.419  0.5697 -0.2586  2.6907
   35MOL0     H 4610   1.990   7.017   8.624 -0.8388  0.6760 -0.8120
   35MOL0     H 4611   2.137   7.108   8.632 -0.9239  2.7625 -2.2138
   35MOL0     H 4612   2.073   6.820   8.564 -2.3359  2.6884 -0.2684
   35MOL0     H 4613   2.199   6.892   8.467 -0.4226 -0.9667 -0.5619
   35MOL0     H 4614   2.239   6.751   8.696 -0.8293  0.7424 -1.6043
   35MOL0     H 4615   2.200   6.911   8.768  1.4847  2.0881  0.6052
   35MOL0     H 4616   2.386   7.006   8.660  0.7907 -0.2399 -2.9805
   35MOL0     H 4617   2.429   6.875   8.762 -1.6591 -0.5471  0.4406
   35MOL0     H 4618   2.560   6.739   8.371 -1.3082  2.0871 -1.3913
   35MOL0     H 4619   2.171   7.334   8.516 -0.5844  0.4879  2.0764
   35MOL0     H 4620   2.042   7.525   8.581  0.2266 -0.5561  0.2676
   36MOL0     O 4621  11.238   3.308   2.132  0.6970 -0.8957 -0.1543
   36MOL0     C 4622  11.122   3.265   2.132 -0.7498 -0.0537 -0.7227
   36MOL0     O 4623  11.101   3.132   2.156 -0.1744  0.7653  0.1609
   36MOL0     C 4624  11.215   3.057   2.150 -0.4364  0.7823  0.0271
   36MOL0     C 4625  11.309   3.066   2.042 -0.4500 -0.3954 -0.0379
   36MOL0     C 4626  11.431   2.981   2.035  1.0887 -0.5857 -0.3948
   36MOL0     C 4627  11.447   2.874   2.122  0.3563 -0.8133 -0.0121
   36MOL0     O 4628  11.562   2.801   2.121 -0.3010 -0.9574 -1.1024
   36MOL0     C 4629  11.531   2.661   2.104 -0.0020 -0.2803 -0.1278
   36MOL0     C 4630  11.668   2.594   2.116 -0.7344  0.5760  0.9711
   36MOL0     C 4631  11.669   2.441   2.085  0.0588 -0.6937  0.1756
   36MOL0     C 4632  11.600   2.360   2.198  0.9593  0.0771 -0.1164
   36MOL0     C 4633  11.698   2.268   2.268  0.2969  0.2534 -0.5560
   36MOL0     C 4634  11.668   2.220   2.421 -0.1093 -1.2381  0.2219
   36MOL0     C 4635  11.760   2.099   2.445  0.6367 -0.6293  0.7313
   36MOL0     C 4636  11.904   2.133   2.443  0.9926  0.1304  0.3609
   36MOL0     N 4637  11.987   2.022   2.495  0.0732 -0.1242 -0.0219
   36MOL0     C 4638  12.045   1.917   2.424 -0.2518  0.3585 -0.2944
   36MOL0     C 4639  12.136   1.866   2.505 -0.1477 -0.5100  0.0358
   36MOL0     C 4640  12.237   1.758   2.471 -0.7734 -0.7861  0.1841
   36MOL0     C 4641  12.175   1.625   2.443  0.4447  0.1509 -0.2377
   36MOL0     C 4642  12.141   1.551   2.568 -0.3447 -0.2837 -0.2097
   36MOL0     C 4643  12.005   1.595   2.635 -0.0759 -0.8178  0.5400
   36MOL0     O 4644  11.905   1.555   2.540  0.3199  0.0195 -0.3647
   36MOL0     C 4645  11.803   1.644   2.517 -0.4969  0.3137  0.9036
   36MOL0     C 4646  11.738   1.720   2.611  0.1280 -0.2576 -0.2626
   36MOL0     C 4647  11.632   1.801   2.582 -0.6017 -0.3044 -0.3669
   36MOL0     C 4648  11.573   1.802   2.455  0.8001  0.5412 -0.3060
   36MOL0     C 4649  11.452   1.885   2.427 -0.7003  1.0826  0.3020
   36MOL0     O 4650  11.399   1.959   2.535 -0.7482 -0.5364 -0.1795
   36MOL0     C 4651  11.280   2.018   2.531  1.3323 -0.7189 -0.2206
   36MOL0     C 4652  11.173   2.013   2.442 -0.0171 -1.3706  0.3346
   36MOL0     C 4653  11.049   2.079   2.454  0.9686  0.5381 -0.3995
   36MOL0     C 4654  11.031   2.158   2.572  0.4331 -0.4045 -0.6215
   36MOL0     O 4655  10.924   2.244   2.591 -0.4153 -0.0561  1.1952
   36MOL0     C 4656  10.797   2.201   2.535  0.0971 -0.3748  0.5354
   36MOL0     C 4657  10.693   2.305   2.596 -0.2982 -0.1700 -0.6401
   36MOL0     C 4658  10.559   2.234   2.603 -0.2712  0.7577  0.3622
   36MOL0     C 4659  10.443   2.317   2.667 -0.1853 -0.4844  0.4028
   36MOL0     C 4660  10.315   2.236   2.653  0.8192  0.0175 -0.4475
   36MOL0     C 4661  10.194   2.328   2.698 -0.3205  0.5687  0.3198
   36MOL0     C 4662  10.063   2.247   2.680  0.4503  1.0378  0.0700
   36MOL0     C 4663   9.972   2.263   2.802 -0.1021 -0.2955 -0.0063
   36MOL0    Cl 4664   9.908   2.438   2.799  0.1098 -0.0798 -0.6621
   36MOL0     C 4665  11.136   2.164   2.665  0.2014 -0.2413  0.8278
   36MOL0     C 4666  11.259   2.094   2.649  0.3348  0.0256 -0.2362
   36MOL0     O 4667  11.403   1.877   2.311 -0.2303  0.3222 -0.2520
   36MOL0     C 4668  11.636   1.721   2.356  1.0508  0.7720 -0.1456
   36MOL0     C 4669  11.759   1.655   2.380 -0.4789  0.3492 -0.2979
   36MOL0     N 4670  12.137   1.941   2.620 -0.0569 -0.4212 -0.3070
   36MOL0     N 4671  12.039   2.023   2.627  0.2143  0.6991 -1.1011
   36MOL0     C 4672  11.353   2.860   2.229 -0.2894 -0.5536  0.3354
   36MOL0     C 4673  11.242   2.947   2.233  0.0148 -0.6090 -0.8810
   36MOL0     C 4674  11.007   3.354   2.126  0.0960 -0.1436  0.9409
   36MOL0     C 4675  10.895   3.310   2.054 -0.5726  0.1691 -0.4096
   36MOL0     C 4676  10.778   3.371   2.069 -0.9721  0.3410  1.2976
   36MOL0     C 4677  10.767   3.485   2.147 -0.4772  0.0904  0.8428
   36MOL0     O 4678  10.643   3.533   2.169  0.6018  0.0865 -0.3260
   36MOL0     C 4679  10.591   3.602   2.055  0.7725  0.4751 -0.3940
   36MOL0     C 4680  10.580   3.744   2.097  0.5441 -0.5484  0.3380
   36MOL0     C 4681  10.544   3.839   1.983 -0.3181 -0.3285 -0.0226
   36MOL0     C 4682  10.546   3.993   2.008  0.3020 -0.3716 -1.3238
   36MOL0     C 4683  10.417   4.029   2.071 -0.2686 -0.1667 -0.1056
   36MOL0     C 4684  10.309   4.065   2.111  0.0721 -0.4420 -0.0627
   36MOL0     C 4685  10.882   3.550   2.195 -0.2107  0.3721  0.9119
   36MOL0     C 4686  11.006   3.484   2.179  0.1114 -0.2405 -0.0802
   36MOL0     H 4687  11.290   3.136   1.961 -0.7240 -2.2156 -1.6197
   36MOL0     H 4688  11.504   3.009   1.960 -0.7004  0.4214 -1.8509
   36MOL0     H 4689  11.485   2.643   2.006 -0.0714 -2.7766  0.2935
   36MOL0     H 4690  11.469   2.617   2.182  0.8103 -0.1498  0.6018
   36MOL0     H 4691  11.707   2.628   2.212 -0.9873  2.6529  0.4026
   36MOL0     H 4692  11.727   2.651   2.043 -1.0996  0.2714  0.4287
   36MOL0     H 4693  11.775   2.417   2.075 -0.0319 -0.5532 -1.4921
   36MOL0     H 4694  11.629   2.425   1.984 -0.1729 -0.5968  0.2516
   36MOL0     H 4695  11.554   2.425   2.273 -1.9976 -2.1452  0.2044
   36MOL0     H 4696  11.514   2.305   2.158 -0.0568 -0.7100  2.8346
   36MOL0     H 4697  11.791   2.325   2.271 -1.4393  3.2615  1.8437
   36MOL0     H 4698  11.698   2.176   2.208  2.3220 -0.6697  0.7575
   36MOL0     H 4699  11.567   2.177   2.419 -1.1072  0.8889 -2.4188
   36MOL0     H 4700  11.692   2.306   2.484  0.8074 -0.0135 -1.6781
   36MOL0     H 4701  11.734   2.062   2.545 -3.0079 -0.0684  0.1068
   36MOL0     H 4702  11.743   2.018   2.374 -0.1098  0.7749 -0.7515
   36MOL0     H 4703  11.917   2.219   2.509  0.3372 -0.3116  1.0929
   36MOL0     H 4704  11.934   2.167   2.344 -1.1442  1.7226  0.1802
   36MOL0     H 4705  12.023   1.887   2.322 -0.1566 -1.1625  0.1066
   36MOL0     H 4706  12.316   1.751   2.546  1.2432 -0.2850 -1.7722
   36MOL0     H 4707  12.291   1.789   2.381 -0.1636 -2.4132 -0.0365
   36MOL0     H 4708  12.251   1.557   2.402  2.3070  2.3604 -0.7055
   36MOL0     H 4709  12.084   1.633   2.383 -0.5510  0.2593  1.2455
   36MOL0     H 4710  12.124   1.446   2.544 -3.3225 -0.4246  1.9586
   36MOL0     H 4711  12.227   1.564   2.635 -0.3703 -1.1450  0.0011
   36MOL0     H 4712  11.989   1.702   2.652  1.6820 -0.3069 -0.7379
   36MOL0     H 4713  11.981   1.539   2.726  0.2985 -1.5182  0.2125
   36MOL0     H 4714  11.762   1.716   2.717 -0.0018  0.8548 -0.1858
   36MOL0     H 4715  11.590   1.857   2.665  2.3606 -1.2603  2.0005
   36MOL0     H 4716  11.179   1.935   2.367 -2.9711 -1.7947  0.4414
   36MOL0     H 4717  10.978   2.062   2.374  1.4605 -0.6320 -0.6098
   36MOL0     H 4718  10.765   2.097   2.547  0.3867 -0.7014 -1.2518
   36MOL0     H 4719  10.793   2.202   2.426  0.9034 -3.4740  0.3865
   36MOL0     H 4720  10.692   2.397   2.537 -0.8035 -0.8110 -1.6679
   36MOL0     H 4721  10.715   2.333   2.699 -1.6209  0.2774 -0.4633
   36MOL0     H 4722  10.567   2.139   2.656  0.7450 -1.5239 -3.4895
   36MOL0     H 4723  10.535   2.217   2.497  2.5025 -1.6204 -0.0141
   36MOL0     H 4724  10.467   2.332   2.773 -2.0403  0.9824  0.6523
   36MOL0     H 4725  10.429   2.412   2.617  1.1896 -0.1003  0.6947
   36MOL0     H 4726  10.316   2.146   2.715  0.6851  0.8223  0.7444
   36MOL0     H 4727  10.312   2.218   2.545 -3.9438  0.1351 -0.5291
   36MOL0     H 4728  10.189   2.412   2.628 -0.0304 -0.4653 -1.0026
   36MOL0     H 4729  10.208   2.357   2.802  0.9929 -2.2389  1.0347
   36MOL0     H 4730  10.013   2.281   2.589  0.1336  2.5001  0.7677
   36MOL0     H 4731  10.083   2.141   2.662  2.5496  1.2998  0.6536
   36MOL0     H 4732  10.027   2.229   2.891  0.1391 -1.0901 -0.4426
   36MOL0     H 4733   9.889   2.193   2.787  0.5570 -1.0920 -0.0599
   36MOL0     H 4734  11.124   2.208   2.764 -1.0961 -2.2896  1.6536
   36MOL0     H 4735  11.336   2.100   2.725 -0.0361 -0.0437  0.1479
   36MOL0     H 4736  11.583   1.720   2.262 -0.8833 -2.5283  0.8407
   36MOL0     H 4737  11.805   1.601   2.299  1.2037  1.0332  0.1662
   36MOL0     H 4738  11.364   2.781   2.303 -1.3336 -0.1932  0.9075
   36MOL0     H 4739  11.171   2.917   2.308  1.0304  1.3349  0.9781
   36MOL0     H 4740  10.895   3.217   1.998  1.7666  0.8729 -1.7194
   36MOL0     H 4741  10.696   3.332   2.009  0.5579  1.4546 -1.7258
   36MOL0     H 4742  10.495   3.552   2.040 -1.0524  3.0964  1.5631
   36MOL0     H 4743  10.651   3.604   1.963  1.5365  1.6774  0.1061
   36MOL0     H 4744  10.503   3.750   2.175 -2.5127 -2.9755 -2.2482
   36MOL0     H 4745  10.666   3.790   2.146 -0.0397 -0.1013  0.9718
   36MOL0     H 4746  10.445   3.824   1.940 -1.2992  0.6097  1.7834
   36MOL0     H 4747  10.623   3.832   1.908  1.1149 -4.9164  1.5960
   36MOL0     H 4748  10.635   4.021   2.065  0.7228 -0.0667 -2.1097
   36MOL0     H 4749  10.542   4.046   1.912 -3.8230 -1.7331 -2.0922
   36MOL0     H 4750  10.207   4.095   2.121 -0.4229 -2.0784  0.1409
   36MOL0     H 4751  10.864   3.647   2.239 -3.1364 -0.0872  0.9486
   36MOL0     H 4752  11.096   3.509   2.234 -1.0016 -0.3881  1.8998
   37MOL0     O 4753   3.233   9.006   5.842  0.1111  0.2115 -0.2728
   37MOL0     C 4754   3.171   8.960   5.938  0.2795 -0.7440 -1.2578
   37MOL0     O 4755   3.224   8.943   6.061 -0.0659 -0.5541 -0.1649
   37MOL0     C 4756   3.359   8.941   6.082 -0.3188 -0.1226 -0.1301
   37MOL0     C 4757   3.434   8.824   6.109 -0.6143 -0.6479 -0.0053
   37MOL0     C 4758   3.569   8.829   6.152 -0.2469  0.1004 -0.2333
   37MOL0     C 4759   3.636   8.948   6.143 -0.1468 -0.5702 -0.6251
   37MOL0     O 4760   3.776   8.966   6.158  0.0823 -0.6801 -0.1147
   37MOL0     C 4761   3.859   8.850   6.186 -0.2002  0.1280  0.0483
   37MOL0     C 4762   4.003   8.875   6.131  0.3572  0.5583  0.7107
   37MOL0     C 4763   4.085   8.746   6.143 -0.0830 -0.3415 -0.4983
   37MOL0     C 4764   4.210   8.758   6.065  0.3346  0.5022  0.5703
   37MOL0     C 4765   4.288   8.623   6.078  0.5441  0.0967 -0.8899
   37MOL0     C 4766   4.419   8.628   6.003 -1.3683 -0.3525  0.2446
   37MOL0     C 4767   4.512   8.513   6.038  0.7989  0.7163 -0.4258
   37MOL0     C 4768   4.460   8.376   5.987 -0.4116 -0.0810  0.5405
   37MOL0     N 4769   4.557   8.275   5.998 -0.7009  0.0088  0.2236
   37MOL0     C 4770   4.563   8.161   5.920 -0.0164 -0.1632 -0.2378
   37MOL0     C 4771   4.672   8.090   5.968 -0.4012  1.3266  0.2478
   37MOL0     C 4772   4.739   7.962   5.915  0.3347 -0.1578 -0.1198
   37MOL0     C 4773   4.647   7.844   5.940  0.1649 -0.8226 -0.6113
   37MOL0     C 4774   4.729   7.706   5.954  0.6240  0.2215 -0.0379
   37MOL0     C 4775   4.742   7.645   5.814 -0.5429  0.2635  0.2262
   37MOL0     O 4776   4.783   7.508   5.841  0.3302 -0.2660  0.3786
   37MOL0     C 4777   4.810   7.435   5.732 -0.0002 -0.7287  0.6983
   37MOL0     C 4778   4.864   7.311   5.754 -0.1378  0.6064  0.1361
   37MOL0     C 4779   4.880   7.222   5.647 -0.0895 -0.5611  0.3364
   37MOL0     C 4780   4.870   7.265   5.512  0.7376  0.3952  0.6055
   37MOL0     C 4781   4.925   7.187   5.393  0.0094  0.0776  0.0113
   37MOL0     O 4782   4.951   7.242   5.273  0.0180 -0.7204 -0.0551
   37MOL0     C 4783   4.979   7.175   5.154  0.6933 -0.2103 -0.6771
   37MOL0     C 4784   5.060   7.243   5.067  0.5119  0.8532  1.3423
   37MOL0     C 4785   5.099   7.191   4.944  0.4045  0.7839  0.0150
   37MOL0     C 4786   5.046   7.068   4.903 -0.5797  0.0164  0.5388
   37MOL0     O 4787   5.077   7.011   4.790  0.1489 -0.0916 -0.3359
   37MOL0     C 4788   5.006   7.062   4.683  0.6089  0.4321  0.1160
   37MOL0     C 4789   4.910   6.966   4.606  0.0287 -0.0285  0.1396
   37MOL0     C 4790   4.961   6.821   4.608  0.2265  0.7495 -0.8717
   37MOL0     C 4791   4.882   6.719   4.526 -0.7847  0.0569  0.3830
   37MOL0     C 4792   4.972   6.614   4.462 -0.0113  0.1281  0.1122
   37MOL0     C 4793   5.036   6.507   4.560 -0.3326  0.1016  0.4215
   37MOL0     C 4794   5.054   6.364   4.505  0.7195 -0.5259  0.0566
   37MOL0     C 4795   5.151   6.348   4.388 -0.7400 -0.2957 -0.2298
   37MOL0    Cl 4796   5.308   6.349   4.461  0.7457  0.4263 -0.1477
   37MOL0     C 4797   4.952   6.997   4.984 -1.4134  1.0004  0.0385
   37MOL0     C 4798   4.923   7.048   5.115 -0.1113 -0.3488 -0.4918
   37MOL0     O 4799   4.939   7.069   5.417 -0.0245  0.3208 -0.1363
   37MOL0     C 4800   4.828   7.396   5.484 -0.3293  0.4136  0.1718
   37MOL0     C 4801   4.800   7.471   5.594  0.1810 -1.1244  0.6267
   37MOL0     N 4802   4.722   8.150   6.082  0.4057 -1.0829  0.3449
   37MOL0     N 4803   4.644   8.257   6.099 -0.0736  0.2129  0.9328
   37MOL0     C 4804   3.567   9.064   6.110  0.4660  0.4228  0.0402
   37MOL0     C 4805   3.429   9.058   6.077  0.4001 -0.4459  0.0502
   37MOL0     C 4806   3.017   8.950   5.927 -0.0507 -0.6774  0.4556
   37MOL0     C 4807   2.946   8.983   5.813  0.8869 -0.9477 -0.1403
   37MOL0     C 4808   2.801   8.999   5.814 -0.4056 -0.0833 -0.8685
   37MOL0     C 4809   2.727   8.978   5.938 -0.5471 -0.2624  1.0012
   37MOL0     O 4810   2.587   8.984   5.953 -0.4734  1.3398  0.4716
   37MOL0     C 4811   2.548   9.117   5.995  0.8575 -0.1580 -0.3343
   37MOL0     C 4812   2.576   9.234   5.906 -0.2855 -0.0530  0.0721
   37MOL0     C 4813   2.496   9.358   5.949  0.3406 -0.4937  1.0322
   37MOL0     C 4814   2.528   9.473   5.845  0.7944  1.0131 -0.7515
   37MOL0     C 4815   2.419   9.575   5.847  0.0231  0.0940 -0.3987
   37MOL0     C 4816   2.331   9.654   5.852 -0.8794  0.3242  0.6387
   37MOL0     C 4817   2.799   8.946   6.047 -1.2399 -0.0490 -1.0554
   37MOL0     C 4818   2.939   8.936   6.043  0.3156 -0.0019 -0.2125
   37MOL0     H 4819   3.375   8.733   6.110 -1.3170 -0.2218  2.3385
   37MOL0     H 4820   3.613   8.733   6.177  0.2036  1.5025  5.8328
   37MOL0     H 4821   3.816   8.760   6.142 -2.8020  1.7932 -1.0117
   37MOL0     H 4822   3.848   8.844   6.295  2.9994  3.4578  0.7472
   37MOL0     H 4823   4.051   8.947   6.198  1.4334 -0.8535  1.5134
   37MOL0     H 4824   3.988   8.909   6.028 -2.5917 -2.3362  0.0291
   37MOL0     H 4825   4.030   8.653   6.126 -0.2429 -1.1532  3.5235
   37MOL0     H 4826   4.117   8.732   6.247  1.6863  2.1348 -0.6319
   37MOL0     H 4827   4.180   8.771   5.960 -1.6502 -0.3704  0.9847
   37MOL0     H 4828   4.276   8.839   6.098 -1.1540  1.0396  2.3583
   37MOL0     H 4829   4.232   8.547   6.023  0.9169 -0.3950 -0.6048
   37MOL0     H 4830   4.302   8.585   6.179  2.7444 -0.1069 -1.2273
   37MOL0     H 4831   4.481   8.715   6.026  1.4458 -1.5443 -2.3006
   37MOL0     H 4832   4.399   8.648   5.897  1.1083 -1.8844 -0.5878
   37MOL0     H 4833   4.605   8.531   5.985  0.4080 -0.4647 -1.5744
   37MOL0     H 4834   4.525   8.505   6.146 -0.1099  0.1893 -0.3417
   37MOL0     H 4835   4.421   8.372   5.886 -4.0028  0.1568  1.7796
   37MOL0     H 4836   4.381   8.361   6.061 -0.8827  2.3570  0.6087
   37MOL0     H 4837   4.500   8.125   5.840 -0.9915  0.0381  0.4100
   37MOL0     H 4838   4.834   7.948   5.969  0.5230  1.5147  0.0355
   37MOL0     H 4839   4.776   7.965   5.812  1.2156  1.7392  0.2074
   37MOL0     H 4840   4.574   7.834   5.859  2.3508 -0.9288 -2.7184
   37MOL0     H 4841   4.586   7.862   6.028 -1.2243 -0.3237 -1.6450
   37MOL0     H 4842   4.830   7.716   5.993  0.4602 -0.4808  0.5858
   37MOL0     H 4843   4.670   7.644   6.022 -0.0389 -0.3865 -1.1291
   37MOL0     H 4844   4.807   7.698   5.745 -2.4709 -2.0617 -3.7747
   37MOL0     H 4845   4.647   7.638   5.759  1.8114 -4.6755 -4.0752
   37MOL0     H 4846   4.880   7.289   5.859 -0.0254  0.1716  0.0312
   37MOL0     H 4847   4.920   7.125   5.672  0.3048  0.0404  2.2104
   37MOL0     H 4848   5.089   7.345   5.090  3.5750  1.1499 -2.7092
   37MOL0     H 4849   5.171   7.240   4.879  0.3813 -1.0490 -1.5194
   37MOL0     H 4850   5.079   7.096   4.609 -0.8362  0.5175 -1.3313
   37MOL0     H 4851   4.946   7.148   4.715 -1.2483 -1.5360  2.4250
   37MOL0     H 4852   4.894   6.996   4.502  1.0851  0.1996  0.0317
   37MOL0     H 4853   4.818   6.971   4.665  0.5363  1.8812  0.8505
   37MOL0     H 4854   4.968   6.789   4.713 -0.9989  0.7671 -0.7703
   37MOL0     H 4855   5.059   6.811   4.561 -0.0669 -0.2994 -1.3049
   37MOL0     H 4856   4.795   6.687   4.584 -0.6653  0.8572  1.0122
   37MOL0     H 4857   4.829   6.766   4.442  2.1184  0.4796 -1.3369
   37MOL0     H 4858   5.046   6.652   4.391  1.5626 -0.1783  1.5374
   37MOL0     H 4859   4.908   6.559   4.392  0.4690 -0.9713  0.5142
   37MOL0     H 4860   4.973   6.494   4.649  0.8722 -2.8736  0.9793
   37MOL0     H 4861   5.137   6.543   4.586  1.0586 -3.3982  0.4037
   37MOL0     H 4862   5.085   6.311   4.595 -1.1712 -0.7410  0.6203
   37MOL0     H 4863   4.959   6.320   4.473 -0.0647  0.7226  0.5794
   37MOL0     H 4864   5.149   6.439   4.326 -1.8816 -1.1534 -1.5089
   37MOL0     H 4865   5.137   6.266   4.318 -0.7126 -0.3044 -0.2249
   37MOL0     H 4866   4.906   6.907   4.942 -1.2455  1.0461 -0.2456
   37MOL0     H 4867   4.851   7.007   5.185 -0.2337 -0.9795 -0.9755
   37MOL0     H 4868   4.802   7.429   5.384 -0.3669 -1.0098 -0.3099
   37MOL0     H 4869   4.755   7.569   5.584  2.9100  0.4692  2.6955
   37MOL0     H 4870   3.626   9.155   6.114  0.3870  0.6004 -1.8365
   37MOL0     H 4871   3.369   9.148   6.068 -1.5952 -1.3445  3.1611
   37MOL0     H 4872   2.994   8.999   5.717  2.6130 -2.5652  0.3942
   37MOL0     H 4873   2.747   9.011   5.721 -1.3052 -1.0314 -0.4863
   37MOL0     H 4874   2.593   9.133   6.093 -0.6497  0.9972  0.2245
   37MOL0     H 4875   2.441   9.131   6.014  0.7849 -0.8953 -0.1976
   37MOL0     H 4876   2.684   9.245   5.892 -0.1365 -1.4864 -0.0701
   37MOL0     H 4877   2.534   9.200   5.811 -0.9438  0.5328  0.1444
   37MOL0     H 4878   2.521   9.396   6.049 -1.8742  0.5820  1.2361
   37MOL0     H 4879   2.388   9.342   5.955  0.3936 -1.8915 -0.9411
   37MOL0     H 4880   2.624   9.516   5.875  0.7641  0.5426  0.0398
   37MOL0     H 4881   2.536   9.433   5.743 -0.3527  0.1384 -0.5158
   37MOL0     H 4882   2.246   9.718   5.839 -2.3098 -1.3397  1.4501
   37MOL0     H 4883   2.752   8.935   6.144 -2.5852 -2.9451 -1.9225
   37MOL0     H 4884   2.989   8.933   6.140 -1.0132  1.3111  0.5497
   38MOL0     O 4885   7.716   5.325   5.923  1.4669  0.1154 -0.4635
   38MOL0     C 4886   7.760   5.440   5.892  0.5329  0.9077  0.4719
   38MOL0     O 4887   7.682   5.554   5.905  0.6496  0.2868  0.8775
   38MOL0     C 4888   7.568   5.539   5.977 -0.6330  0.3708 -0.0497
   38MOL0     C 4889   7.552   5.605   6.100  0.1828  0.4346  0.5527
   38MOL0     C 4890   7.428   5.610   6.171  0.4642  0.8797 -0.5753
   38MOL0     C 4891   7.319   5.543   6.111 -0.2419 -0.2867 -0.0138
   38MOL0     O 4892   7.193   5.533   6.154  0.8809 -0.9942  0.1936
   38MOL0     C 4893   7.145   5.639   6.238  0.5153 -0.0113  0.3057
   38MOL0     C 4894   7.138   5.781   6.163  0.0606 -0.0498  0.1774
   38MOL0     C 4895   7.042   5.887   6.233  0.4441  0.5119 -0.0131
   38MOL0     C 4896   7.014   6.021   6.155  0.0513  0.1744 -0.1457
   38MOL0     C 4897   6.975   6.131   6.259  0.3345  0.2861  0.0377
   38MOL0     C 4898   6.925   6.255   6.185 -0.9143 -0.5122  0.1660
   38MOL0     C 4899   6.927   6.384   6.269 -0.4037  0.3949 -0.2084
   38MOL0     C 4900   6.930   6.497   6.172 -0.1429 -0.2122 -0.0511
   38MOL0     N 4901   6.933   6.624   6.245 -0.5218 -0.9537  0.1410
   38MOL0     C 4902   6.849   6.732   6.231  0.3428 -0.3771  0.0547
   38MOL0     C 4903   6.890   6.820   6.319 -0.3394 -0.0809  0.0555
   38MOL0     C 4904   6.838   6.960   6.335 -0.0692 -0.3278 -0.0444
   38MOL0     C 4905   6.694   6.947   6.372 -0.4632 -0.1570 -0.6383
   38MOL0     C 4906   6.634   7.081   6.420  0.5010  0.1032  0.7457
   38MOL0     C 4907   6.649   7.112   6.575  0.3596  0.5352  0.4553
   38MOL0     O 4908   6.552   7.034   6.652  0.4662 -0.8744  0.6621
   38MOL0     C 4909   6.507   7.096   6.761 -0.6152  0.1952 -0.6933
   38MOL0     C 4910   6.541   7.055   6.888  0.6064  1.0671 -0.1579
   38MOL0     C 4911   6.486   7.107   7.001  1.6875  0.4932  0.1556
   38MOL0     C 4912   6.392   7.205   6.998  1.2143  0.2117 -0.5057
   38MOL0     C 4913   6.313   7.252   7.119  0.3438  0.2015  0.2226
   38MOL0     O 4914   6.194   7.303   7.098 -0.0282 -0.3282 -0.6373
   38MOL0     C 4915   6.106   7.341   7.195 -0.4534  0.6374  0.4513
   38MOL0     C 4916   5.977   7.303   7.169 -0.3652  0.3648  0.0696
   38MOL0     C 4917   5.874   7.349   7.255 -0.4822 -0.0506  0.3985
   38MOL0     C 4918   5.898   7.423   7.376  0.2191  0.2144  0.1881
   38MOL0     O 4919   5.789   7.445   7.448 -0.5446  0.4064  0.1946
   38MOL0     C 4920   5.802   7.528   7.559  0.2118 -0.1365  0.6251
   38MOL0     C 4921   5.658   7.559   7.591 -0.1181 -0.0948 -0.3332
   38MOL0     C 4922   5.617   7.640   7.718  0.0555  0.0843 -0.4400
   38MOL0     C 4923   5.690   7.592   7.849 -0.1315 -0.5435 -0.9328
   38MOL0     C 4924   5.655   7.691   7.963  1.1362  0.2320 -0.1721
   38MOL0     C 4925   5.506   7.705   7.995 -0.0570 -0.2635  0.0798
   38MOL0     C 4926   5.470   7.802   8.105  0.4351  0.2674 -0.3380
   38MOL0     C 4927   5.537   7.944   8.097  0.1269 -0.3263 -0.5219
   38MOL0    Cl 4928   5.480   8.065   8.219  0.2545 -0.4306  0.2268
   38MOL0     C 4929   6.028   7.446   7.404  0.1308 -0.2176  0.5212
   38MOL0     C 4930   6.133   7.418   7.312 -0.6164  0.2206  0.3786
   38MOL0     O 4931   6.363   7.234   7.227  0.0386 -0.2540 -0.4201
   38MOL0     C 4932   6.351   7.251   6.867  0.2678 -0.3828 -0.8279
   38MOL0     C 4933   6.404   7.188   6.759 -0.2163 -0.1407 -0.7753
   38MOL0     N 4934   7.014   6.776   6.380 -0.0920  0.5761  0.0039
   38MOL0     N 4935   7.038   6.661   6.329 -0.0006 -0.6670 -0.4111
   38MOL0     C 4936   7.333   5.473   5.991 -0.3025  0.4754 -0.4920
   38MOL0     C 4937   7.456   5.467   5.925 -0.2476 -0.3388  0.0574
   38MOL0     C 4938   7.900   5.458   5.849  0.0057  0.0261 -1.1003
   38MOL0     C 4939   7.999   5.366   5.894  0.0010  0.4140 -0.6769
   38MOL0     C 4940   8.134   5.374   5.865  0.0961 -0.2731 -0.1847
   38MOL0     C 4941   8.186   5.489   5.795 -0.4322  0.6763  0.0457
   38MOL0     O 4942   8.320   5.498   5.779  0.2084 -0.2417  0.2079
   38MOL0     C 4943   8.367   5.622   5.736 -0.7058  0.3258 -0.4210
   38MOL0     C 4944   8.522   5.625   5.752  0.1890  0.3311  0.1784
   38MOL0     C 4945   8.592   5.754   5.692 -0.4205  0.5094 -0.3541
   38MOL0     C 4946   8.744   5.767   5.721  0.3735  0.5602  0.3482
   38MOL0     C 4947   8.796   5.892   5.668 -0.1432 -0.7595 -0.8162
   38MOL0     C 4948   8.840   5.984   5.602  0.3680 -0.8542  0.7322
   38MOL0     C 4949   8.090   5.588   5.758 -0.1388  1.4142  1.1283
   38MOL0     C 4950   7.950   5.570   5.778 -0.0282 -0.0354 -0.1508
   38MOL0     H 4951   7.634   5.670   6.128  0.0535  0.8344  0.0179
   38MOL0     H 4952   7.424   5.658   6.268  1.2743  0.9260 -0.5521
   38MOL0     H 4953   7.190   5.644   6.338 -0.9200  0.9605  0.9571
   38MOL0     H 4954   7.042   5.606   6.257 -1.1195  4.8737  1.6320
   38MOL0     H 4955   7.098   5.761   6.063 -3.1137  2.3233  0.8073
   38MOL0     H 4956   7.237   5.826   6.155 -0.6262  1.8931  1.8283
   38MOL0     H 4957   7.072   5.906   6.337 -0.8959 -0.0204  0.4798
   38MOL0     H 4958   6.941   5.847   6.247  0.7040 -0.6923 -1.3105
   38MOL0     H 4959   7.101   6.058   6.100  1.4683 -3.9866 -1.0717
   38MOL0     H 4960   6.935   5.998   6.083  1.0587 -1.7520 -0.7147
   38MOL0     H 4961   7.070   6.169   6.297 -1.1885  2.8437  1.5700
   38MOL0     H 4962   6.909   6.096   6.339 -1.8216 -0.6069 -2.0134
   38MOL0     H 4963   6.830   6.232   6.136 -1.2355  0.2965  0.3817
   38MOL0     H 4964   7.002   6.270   6.108 -0.9814 -1.1829 -0.0333
   38MOL0     H 4965   6.840   6.398   6.334 -0.5491 -0.3659 -0.2339
   38MOL0     H 4966   7.019   6.386   6.328 -0.9072 -0.1724  0.6200
   38MOL0     H 4967   6.844   6.499   6.104  0.3251  2.8198 -0.6697
   38MOL0     H 4968   7.022   6.496   6.113  1.0475  2.4121  1.5871
   38MOL0     H 4969   6.775   6.745   6.153  0.1456  3.4707  0.7067
   38MOL0     H 4970   6.839   7.015   6.240  3.9676 -2.8175 -1.7633
   38MOL0     H 4971   6.909   7.012   6.400 -0.0984 -0.5306  0.1514
   38MOL0     H 4972   6.693   6.870   6.450  0.1634  0.1493 -0.3202
   38MOL0     H 4973   6.637   6.908   6.288  0.0240 -1.1686 -0.5040
   38MOL0     H 4974   6.682   7.161   6.363  1.1424 -0.4387  0.5242
   38MOL0     H 4975   6.525   7.085   6.404  0.3424 -2.9930  0.5442
   38MOL0     H 4976   6.653   7.220   6.594  0.9010  0.8122 -1.1125
   38MOL0     H 4977   6.749   7.074   6.597 -0.5948 -2.0690  0.6003
   38MOL0     H 4978   6.608   6.970   6.891 -1.4656 -0.6471 -0.8481
   38MOL0     H 4979   6.506   7.078   7.104 -0.9959  3.7010  1.7806
   38MOL0     H 4980   5.952   7.255   7.075  1.4492  0.0412 -0.2736
   38MOL0     H 4981   5.775   7.311   7.231 -0.0103 -0.7731 -0.4493
   38MOL0     H 4982   5.851   7.623   7.536 -2.3713  0.9013 -0.9827
   38MOL0     H 4983   5.834   7.482   7.653 -4.4649 -2.7875  1.2351
   38MOL0     H 4984   5.608   7.462   7.599 -2.1753  0.6489 -2.8197
   38MOL0     H 4985   5.623   7.622   7.508 -1.3474  1.7365  1.4746
   38MOL0     H 4986   5.508   7.642   7.734  0.3257 -2.1038  2.7192
   38MOL0     H 4987   5.647   7.744   7.705 -1.3640  1.2835  4.0051
   38MOL0     H 4988   5.655   7.491   7.871  0.5918 -0.6015  0.0369
   38MOL0     H 4989   5.797   7.598   7.828 -0.4957  1.8344 -2.4730
   38MOL0     H 4990   5.701   7.789   7.945  1.2990 -0.1739 -2.2913
   38MOL0     H 4991   5.696   7.657   8.058 -3.5068  1.5995  2.5941
   38MOL0     H 4992   5.454   7.610   8.012 -1.2956 -0.0207 -1.9774
   38MOL0     H 4993   5.453   7.751   7.910  0.7882 -3.0588 -2.1293
   38MOL0     H 4994   5.361   7.807   8.101  0.3876  1.6401  1.5520
   38MOL0     H 4995   5.487   7.751   8.200 -0.2919  0.5772 -0.0349
   38MOL0     H 4996   5.516   7.977   7.995 -0.1101  0.8733 -0.1013
   38MOL0     H 4997   5.645   7.953   8.110 -0.0227 -1.1395  1.7162
   38MOL0     H 4998   6.055   7.490   7.499  3.8411 -1.2785  0.1421
   38MOL0     H 4999   6.238   7.439   7.330 -0.9587  1.4449  1.0432
   38MOL0     H 5000   6.275   7.328   6.860  2.5285  1.9876 -0.7665
   38MOL0     H 5001   6.383   7.227   6.660  1.0180 -2.1485 -1.8908
   38MOL0     H 5002   7.251   5.414   5.953  1.5883 -1.9671 -1.0620
   38MOL0     H 5003   7.474   5.413   5.832 -2.7984 -1.4197  0.0999
   38MOL0     H 5004   7.963   5.280   5.951  2.2637  0.8442  1.5452
   38MOL0     H 5005   8.195   5.291   5.900 -0.2423  0.0214  1.1731
   38MOL0     H 5006   8.333   5.705   5.799 -0.4879  1.4678 -1.7508
   38MOL0     H 5007   8.339   5.642   5.632  0.9303 -0.8395 -1.1379
   38MOL0     H 5008   8.547   5.608   5.857  3.3824  0.9983 -0.3510
   38MOL0     H 5009   8.560   5.540   5.694  0.1686 -0.8141  1.7576
   38MOL0     H 5010   8.538   5.842   5.728  1.1653  1.3979 -0.0662
   38MOL0     H 5011   8.576   5.748   5.584 -0.8456 -0.6583 -0.2436
   38MOL0     H 5012   8.753   5.767   5.830 -1.2379 -1.1737  0.5374
   38MOL0     H 5013   8.811   5.689   5.685 -0.9331 -0.8618  0.8734
   38MOL0     H 5014   8.867   6.073   5.550  3.2801 -2.2190 -0.3141
   38MOL0     H 5015   8.132   5.671   5.702  1.3281 -0.8053 -1.3161
   38MOL0     H 5016   7.882   5.647   5.743  0.3071  0.5528  0.4590
   39MOL0     O 5017   6.731   7.380   9.328  0.0349  0.8095 -0.1168
   39MOL0     C 5018   6.664   7.467   9.264 -0.3704  0.5774 -0.3501
   39MOL0     O 5019   6.565   7.425   9.171 -0.4812  0.1374  0.1801
   39MOL0     C 5020   6.567   7.289   9.136  0.5080  0.0215 -0.5755
   39MOL0     C 5021   6.506   7.192   9.219  0.2136 -0.4428 -0.5490
   39MOL0     C 5022   6.512   7.055   9.178 -0.4983 -0.4393 -0.6015
   39MOL0     C 5023   6.561   7.021   9.055 -0.3257  1.2341  0.4383
   39MOL0     O 5024   6.561   6.879   9.035  0.0582 -0.4921  0.6025
   39MOL0     C 5025   6.610   6.823   8.919  0.1495 -0.1463  0.6732
   39MOL0     C 5026   6.762   6.790   8.934  0.4340  0.2877  0.3824
   39MOL0     C 5027   6.797   6.701   9.061  0.0149  0.1384 -0.3339
   39MOL0     C 5028   6.946   6.675   9.080 -0.5428 -0.3841 -0.3325
   39MOL0     C 5029   6.987   6.560   9.185  0.3642  0.1198  0.7665
   39MOL0     C 5030   7.103   6.584   9.278 -0.6509 -0.9869  0.4322
   39MOL0     C 5031   7.235   6.583   9.196  0.2346 -0.2009  0.5263
   39MOL0     C 5032   7.345   6.643   9.279 -0.2348  0.3223 -0.6092
   39MOL0     N 5033   7.341   6.589   9.421 -0.9664 -0.4424  0.3319
   39MOL0     C 5034   7.281   6.663   9.519  0.5565  0.2116 -1.0668
   39MOL0     C 5035   7.269   6.583   9.628  0.7253 -1.0156  0.1602
   39MOL0     C 5036   7.223   6.600   9.768  0.0886  0.5813  0.4077
   39MOL0     C 5037   7.340   6.612   9.860  0.2738 -0.2728  0.2378
   39MOL0     C 5038   7.436   6.735   9.853 -0.5127  0.3007 -0.0165
   39MOL0     C 5039   7.569   6.711   9.936  0.3908  0.0948  0.6313
   39MOL0     O 5040   7.652   6.825   9.922  0.4171 -0.4164  0.2392
   39MOL0     C 5041   7.730   6.849   9.811  0.1709  0.0816 -1.2067
   39MOL0     C 5042   7.736   6.780   9.692  1.1530 -0.2863  0.4826
   39MOL0     C 5043   7.836   6.798   9.590 -0.0253 -0.5299  0.0390
   39MOL0     C 5044   7.941   6.882   9.632  0.0936  0.4364 -0.2482
   39MOL0     C 5045   8.065   6.876   9.545  0.1854  0.3522 -0.2313
   39MOL0     O 5046   8.078   6.782   9.453  1.1046  0.5769 -0.2981
   39MOL0     C 5047   8.184   6.760   9.389 -0.4920 -0.4916  0.2354
   39MOL0     C 5048   8.260   6.644   9.426  0.1347  0.4679  1.2097
   39MOL0     C 5049   8.384   6.617   9.361  0.2290 -0.7147 -0.4066
   39MOL0     C 5050   8.424   6.693   9.253 -0.0750  0.0016 -0.3474
   39MOL0     O 5051   8.540   6.646   9.197  0.0224  0.0749  0.2992
   39MOL0     C 5052   8.608   6.738   9.112 -0.1415  0.2540 -0.5393
   39MOL0     C 5053   8.745   6.677   9.087 -0.1395  1.1857 -0.1141
   39MOL0     C 5054   8.745   6.549   8.998  0.4454  0.9076 -0.5052
   39MOL0     C 5055   8.846   6.569   8.887  0.0321  0.3490  0.0304
   39MOL0     C 5056   8.865   6.457   8.793  0.1558  0.6504 -0.2712
   39MOL0     C 5057   8.737   6.425   8.713 -0.5377 -0.4657  0.2387
   39MOL0     C 5058   8.785   6.342   8.588 -0.3787  0.9506 -0.3554
   39MOL0     C 5059   8.674   6.274   8.516 -0.4103 -0.0935 -0.5761
   39MOL0    Cl 5060   8.749   6.200   8.362 -0.1172  0.2074 -0.3621
   39MOL0     C 5061   8.345   6.805   9.216  0.6492 -0.2496 -0.3726
   39MOL0     C 5062   8.221   6.835   9.281 -0.4823 -0.0189  0.0775
   39MOL0     O 5063   8.155   6.946   9.582  0.6075 -0.6281 -0.2686
   39MOL0     C 5064   7.938   6.954   9.750 -0.6856  0.4313 -0.2932
   39MOL0     C 5065   7.830   6.938   9.838 -0.6500 -0.0526 -0.1675
   39MOL0     N 5066   7.323   6.461   9.594 -0.3710 -0.6517  0.1164
   39MOL0     N 5067   7.364   6.462   9.466  0.2923 -0.4666 -0.1005
   39MOL0     C 5068   6.618   7.109   8.965  0.2956 -0.0991 -0.2165
   39MOL0     C 5069   6.619   7.243   9.013 -0.0549  0.1293  0.4038
   39MOL0     C 5070   6.714   7.605   9.271  0.1524 -0.0532 -0.3981
   39MOL0     C 5071   6.820   7.640   9.353 -0.5249  0.0004  0.2604
   39MOL0     C 5072   6.873   7.775   9.332 -0.5279 -0.6000  0.0059
   39MOL0     C 5073   6.812   7.874   9.251  0.3299  0.1282  1.0161
   39MOL0     O 5074   6.866   8.001   9.234  0.5348  0.2583 -0.2602
   39MOL0     C 5075   6.814   8.081   9.118  0.4653 -0.2069 -0.2937
   39MOL0     C 5076   6.857   8.229   9.123 -0.2401 -0.8540 -0.3726
   39MOL0     C 5077   7.008   8.241   9.133 -0.0719  0.4871  0.3296
   39MOL0     C 5078   7.064   8.380   9.141 -0.7001 -0.2669 -0.7266
   39MOL0     C 5079   7.080   8.449   9.014 -0.6112  0.4032 -0.6292
   39MOL0     C 5080   7.102   8.497   8.903 -0.6099  0.2269  0.1665
   39MOL0     C 5081   6.688   7.832   9.187  0.3791 -0.2053  0.8595
   39MOL0     C 5082   6.652   7.697   9.189 -0.1053 -0.8407 -0.6697
   39MOL0     H 5083   6.468   7.230   9.314  2.2400  2.0311 -0.6361
   39MOL0     H 5084   6.493   6.973   9.246  0.7157  1.8048  2.7186
   39MOL0     H 5085   6.598   6.890   8.834  5.3974  1.9722  1.2250
   39MOL0     H 5086   6.563   6.728   8.891  0.5257 -0.4005  0.8818
   39MOL0     H 5087   6.808   6.888   8.945  4.4657 -1.4665  1.0117
   39MOL0     H 5088   6.787   6.744   8.838 -2.0876 -0.7273  0.1284
   39MOL0     H 5089   6.748   6.604   9.045  0.9476 -0.1911 -1.3304
   39MOL0     H 5090   6.755   6.744   9.153  3.9725  0.4761  1.5278
   39MOL0     H 5091   6.994   6.648   8.985 -1.2833 -3.2038 -0.0205
   39MOL0     H 5092   7.003   6.763   9.111  0.7705 -1.5259  0.6549
   39MOL0     H 5093   7.003   6.462   9.138  0.2109  0.6276 -0.3636
   39MOL0     H 5094   6.897   6.552   9.246 -1.0902 -1.8644 -1.4609
   39MOL0     H 5095   7.105   6.512   9.360 -1.2620 -0.3127  1.0604
   39MOL0     H 5096   7.086   6.679   9.331  1.7316 -1.2751  1.8516
   39MOL0     H 5097   7.260   6.484   9.158 -1.1095 -1.3487  2.4832
   39MOL0     H 5098   7.218   6.645   9.107 -0.0741  1.4183  1.6728
   39MOL0     H 5099   7.315   6.745   9.302  3.1736  1.3433 -0.2298
   39MOL0     H 5100   7.444   6.642   9.233 -0.4148 -1.3827 -1.0340
   39MOL0     H 5101   7.241   6.764   9.510 -1.7180 -0.6599 -1.2590
   39MOL0     H 5102   7.174   6.508   9.799 -1.7913  0.8000 -1.7189
   39MOL0     H 5103   7.151   6.682   9.774  0.2947  0.7832  0.1405
   39MOL0     H 5104   7.402   6.522   9.858 -2.6633 -2.5721  2.0827
   39MOL0     H 5105   7.306   6.608   9.964 -4.6227 -0.0324 -1.0801
   39MOL0     H 5106   7.458   6.756   9.748 -0.6257 -5.2489 -1.4746
   39MOL0     H 5107   7.386   6.821   9.897 -1.5343  0.3923 -1.2835
   39MOL0     H 5108   7.619   6.621   9.899  1.7674  1.6459 -1.4642
   39MOL0     H 5109   7.544   6.692  10.041  1.6883 -1.6465  0.6717
   39MOL0     H 5110   7.660   6.705   9.672 -2.2536  3.0128 -0.2108
   39MOL0     H 5111   7.852   6.727   9.510 -1.0201 -1.4900  0.6618
   39MOL0     H 5112   8.225   6.576   9.503 -3.7090 -1.9000 -2.2023
   39MOL0     H 5113   8.443   6.532   9.394 -1.1872 -0.7386  2.4145
   39MOL0     H 5114   8.611   6.832   9.167 -2.4951  0.3336 -0.4582
   39MOL0     H 5115   8.552   6.755   9.020 -0.3707 -0.8170 -0.6124
   39MOL0     H 5116   8.795   6.652   9.180 -1.1291  1.9969  0.6601
   39MOL0     H 5117   8.798   6.760   9.040 -0.7936  0.5697 -2.0452
   39MOL0     H 5118   8.649   6.548   8.945 -0.7187  0.2149  1.5357
   39MOL0     H 5119   8.762   6.462   9.062  2.6126  1.7084  0.0923
   39MOL0     H 5120   8.831   6.658   8.827 -0.5634  1.3600  1.6231
   39MOL0     H 5121   8.942   6.572   8.941  0.9615 -2.2833 -1.2726
   39MOL0     H 5122   8.896   6.367   8.847 -2.4269  1.5708  3.1061
   39MOL0     H 5123   8.949   6.481   8.726 -2.2680  3.6757 -2.5263
   39MOL0     H 5124   8.692   6.516   8.672  2.1106 -0.5872 -3.4314
   39MOL0     H 5125   8.665   6.375   8.778  0.0641 -0.0971  1.2171
   39MOL0     H 5126   8.837   6.408   8.518  1.4318 -0.6662 -0.6135
   39MOL0     H 5127   8.870   6.277   8.608  0.9601  2.3014 -1.3860
   39MOL0     H 5128   8.602   6.353   8.494 -0.3517 -0.4286 -2.0903
   39MOL0     H 5129   8.640   6.192   8.581  1.2649 -1.5447 -1.4159
   39MOL0     H 5130   8.377   6.875   9.139 -1.4869  1.6762  0.3845
   39MOL0     H 5131   8.152   6.914   9.254  0.7120  1.5781  1.4458
   39MOL0     H 5132   8.019   7.024   9.771  0.5111 -0.7196 -0.9409
   39MOL0     H 5133   7.844   7.000   9.926 -0.6128 -0.6197  0.2332
   39MOL0     H 5134   6.660   7.076   8.871  0.9709  0.9040 -0.2877
   39MOL0     H 5135   6.662   7.321   8.950 -3.2232  1.4046 -0.4274
   39MOL0     H 5136   6.862   7.568   9.422  0.6929 -0.6145 -1.0801
   39MOL0     H 5137   6.949   7.810   9.401 -1.5628 -1.6922  1.7535
   39MOL0     H 5138   6.705   8.083   9.119  0.3246 -2.5463  1.8371
   39MOL0     H 5139   6.850   8.037   9.025  0.6877 -0.4170 -0.1113
   39MOL0     H 5140   6.827   8.295   9.042  1.7667  2.7214  1.5441
   39MOL0     H 5141   6.812   8.267   9.216 -3.5488 -1.2649 -1.6752
   39MOL0     H 5142   7.052   8.198   9.043  0.0951 -0.3285  0.7893
   39MOL0     H 5143   7.043   8.175   9.214 -1.7061 -0.2595  0.4765
   39MOL0     H 5144   7.007   8.448   9.205 -1.8247 -0.0006 -1.9674
   39MOL0     H 5145   7.166   8.373   9.179 -0.3373  4.5250 -0.1315
   39MOL0     H 5146   7.120   8.550   8.812 -0.6698 -3.7088 -2.3935
   39MOL0     H 5147   6.622   7.902   9.135  0.9830 -0.8807 -0.9066
   39MOL0     H 5148   6.562   7.677   9.131  0.2819 -0.8516 -1.2687
   40MOL0     O 5149   0.515   9.580   7.827  0.9022  0.0641  0.2567
   40MOL0     C 5150   0.537   9.481   7.761  0.8456  0.9339  0.5451
   40MOL0     O 5151   0.451   9.425   7.666  0.4614 -0.6609  0.1321
   40MOL0     C 5152   0.341   9.501   7.621 -0.0015 -0.5261  0.5403
   40MOL0     C 5153   0.212   9.441   7.638 -0.2007  0.2224  0.3968
   40MOL0     C 5154   0.101   9.515   7.607 -0.7762 -0.1059  0.5229
   40MOL0     C 5155   0.117   9.648   7.565  0.1810 -0.1902  0.3877
   40MOL0     O 5156   0.004   9.710   7.531  0.2029  0.2443  0.1557
   40MOL0     C 5157  -0.026   9.691   7.392 -0.0033  0.3913  1.1708
   40MOL0     C 5158  -0.085   9.821   7.338  0.1013  0.4118  0.4302
   40MOL0     C 5159  -0.184   9.892   7.430  0.5825 -0.4008  0.2644
   40MOL0     C 5160  -0.274   9.990   7.362  0.4785  0.1077  0.1993
   40MOL0     C 5161  -0.379  10.054   7.462 -1.0001  0.0105  0.6966
   40MOL0     C 5162  -0.494  10.127   7.393  0.0514  0.3184  0.0649
   40MOL0     C 5163  -0.594  10.030   7.342 -0.9187 -1.2030 -0.6290
   40MOL0     C 5164  -0.690  10.088   7.236 -0.1461 -0.6685  0.1085
   40MOL0     N 5165  -0.795   9.988   7.214  0.3715 -0.4520 -0.2066
   40MOL0     C 5166  -0.803   9.859   7.255 -0.0714 -0.1576  0.3905
   40MOL0     C 5167  -0.900   9.806   7.176 -0.2761 -0.6471 -0.6629
   40MOL0     C 5168  -0.950   9.664   7.166  0.3352  0.0665 -0.5374
   40MOL0     C 5169  -1.030   9.634   7.037  0.1666  0.0368 -0.0334
   40MOL0     C 5170  -1.068   9.482   7.024  0.2596 -0.0468 -0.3941
   40MOL0     C 5171  -1.119   9.448   6.892 -0.1682 -0.2732  0.0914
   40MOL0     O 5172  -1.178   9.323   6.877  0.9301  0.5755 -0.1786
   40MOL0     C 5173  -1.227   9.293   6.755 -0.1794 -1.0147 -0.4243
   40MOL0     C 5174  -1.213   9.159   6.722 -0.1106  0.4700  0.8660
   40MOL0     C 5175  -1.261   9.114   6.605  0.9761 -0.0053 -0.7118
   40MOL0     C 5176  -1.345   9.192   6.521  0.6366 -0.0395  0.9667
   40MOL0     C 5177  -1.407   9.137   6.394 -0.2862 -0.3377 -0.8676
   40MOL0     O 5178  -1.404   8.999   6.389  0.2181 -0.6728 -0.1674
   40MOL0     C 5179  -1.468   8.953   6.278 -0.9363 -0.4353  0.1248
   40MOL0     C 5180  -1.388   8.940   6.161  0.2465  0.3216  0.1757
   40MOL0     C 5181  -1.437   8.887   6.038 -0.8874 -0.8490  0.3413
   40MOL0     C 5182  -1.565   8.827   6.040  0.9980  0.7505  0.0275
   40MOL0     O 5183  -1.611   8.768   5.924 -0.2758 -0.2355  0.3330
   40MOL0     C 5184  -1.746   8.729   5.921 -0.6328 -0.2183  0.4338
   40MOL0     C 5185  -1.776   8.697   5.776  0.0831 -0.0904 -0.7850
   40MOL0     C 5186  -1.865   8.576   5.747 -0.1185 -0.0987 -0.4010
   40MOL0     C 5187  -2.008   8.622   5.733 -1.2956 -0.4731  0.4744
   40MOL0     C 5188  -2.100   8.506   5.718  0.0262 -0.1204  0.2948
   40MOL0     C 5189  -2.251   8.549   5.745 -0.0749  0.2608 -0.5458
   40MOL0     C 5190  -2.289   8.517   5.898 -0.0025 -0.1894  0.7693
   40MOL0     C 5191  -2.338   8.372   5.921  0.1710  0.0200 -0.4287
   40MOL0    Cl 5192  -2.201   8.255   5.903  0.1695  0.2555 -0.1918
   40MOL0     C 5193  -1.639   8.831   6.162 -1.0927  0.4373  0.1139
   40MOL0     C 5194  -1.591   8.890   6.278 -0.1995  0.0225 -0.5436
   40MOL0     O 5195  -1.454   9.214   6.308  0.3528 -0.1863 -0.8556
   40MOL0     C 5196  -1.350   9.331   6.545 -0.0667 -1.2699 -0.0743
   40MOL0     C 5197  -1.283   9.378   6.657  1.3790  0.2443  0.7211
   40MOL0     N 5198  -0.961   9.906   7.099 -0.2147  1.0439  0.1089
   40MOL0     N 5199  -0.898  10.017   7.126  0.1388  0.3426  0.9267
   40MOL0     C 5200   0.246   9.712   7.543  0.3273 -0.1100  0.4421
   40MOL0     C 5201   0.353   9.641   7.574 -0.1208  0.4704  0.3721
   40MOL0     C 5202   0.677   9.419   7.787 -0.4708 -0.8132  0.1861
   40MOL0     C 5203   0.765   9.486   7.877  0.2956  0.1843 -0.3121
   40MOL0     C 5204   0.895   9.432   7.889  0.1672  0.0169  0.0876
   40MOL0     C 5205   0.940   9.315   7.816 -0.2304 -0.1565 -0.4931
   40MOL0     O 5206   1.069   9.267   7.819  0.1409 -0.0022  0.0243
   40MOL0     C 5207   1.167   9.372   7.829  0.3363 -0.0015 -0.2541
   40MOL0     C 5208   1.308   9.311   7.844 -0.3037  0.8189  0.4984
   40MOL0     C 5209   1.362   9.251   7.714 -0.2367 -0.5601  0.2211
   40MOL0     C 5210   1.511   9.288   7.689  0.1768  0.1044 -0.5266
   40MOL0     C 5211   1.559   9.204   7.575 -0.1095 -0.2303 -1.0287
   40MOL0     C 5212   1.608   9.158   7.477  0.3336  0.7154  0.4796
   40MOL0     C 5213   0.860   9.253   7.737  0.1096  0.1250 -0.4550
   40MOL0     C 5214   0.724   9.304   7.722  0.0177  0.0099 -0.5613
   40MOL0     H 5215   0.185   9.341   7.671  0.1911 -0.1395 -0.3499
   40MOL0     H 5216   0.001   9.474   7.615 -0.1933 -1.6745  0.2367
   40MOL0     H 5217  -0.102   9.613   7.393 -0.8180  1.1241 -0.2584
   40MOL0     H 5218   0.064   9.650   7.343  0.5107  1.6883  0.9793
   40MOL0     H 5219  -0.143   9.798   7.248 -1.4027 -0.4625  1.5846
   40MOL0     H 5220  -0.006   9.889   7.305  1.9245 -2.1980 -0.9668
   40MOL0     H 5221  -0.121   9.954   7.494  0.6295 -0.8167  0.6234
   40MOL0     H 5222  -0.239   9.811   7.479  1.7828 -0.2987  1.8779
   40MOL0     H 5223  -0.217  10.071   7.315 -0.0952  0.6297  0.3928
   40MOL0     H 5224  -0.324   9.931   7.286  0.0298  0.2975  0.3467
   40MOL0     H 5225  -0.328  10.129   7.523 -0.0714 -1.1294  1.3673
   40MOL0     H 5226  -0.421   9.974   7.524 -1.9333 -0.0958 -0.0456
   40MOL0     H 5227  -0.460  10.190   7.310 -1.1403 -1.5749 -1.9887
   40MOL0     H 5228  -0.536  10.197   7.466 -2.1088  0.7608 -1.4859
   40MOL0     H 5229  -0.536   9.954   7.289  0.8687  0.6148 -1.4630
   40MOL0     H 5230  -0.644   9.988   7.429  0.7766 -1.7158  0.1324
   40MOL0     H 5231  -0.637  10.109   7.142  1.0786 -0.2350  0.8743
   40MOL0     H 5232  -0.736  10.170   7.291  1.3492 -2.1711  3.9641
   40MOL0     H 5233  -0.726   9.811   7.313 -1.8695 -0.6875  2.4730
   40MOL0     H 5234  -1.020   9.635   7.245  2.3802 -2.0814  0.6091
   40MOL0     H 5235  -0.858   9.606   7.162 -0.5239 -1.4232  0.3738
   40MOL0     H 5236  -0.984   9.664   6.942  0.8261  1.1168  0.6094
   40MOL0     H 5237  -1.125   9.688   7.033  1.9572  3.3593 -0.9994
   40MOL0     H 5238  -0.977   9.422   7.031 -1.0421 -2.1395 -0.5073
   40MOL0     H 5239  -1.138   9.454   7.103 -1.0090 -0.2770 -1.5637
   40MOL0     H 5240  -1.025   9.449   6.835 -0.7692  0.3851 -0.9291
   40MOL0     H 5241  -1.190   9.524   6.857 -0.9305 -0.1745  1.8026
   40MOL0     H 5242  -1.140   9.105   6.782  1.4042  0.1450 -1.1380
   40MOL0     H 5243  -1.246   9.009   6.584 -0.8946 -0.2633 -0.8692
   40MOL0     H 5244  -1.291   8.990   6.156 -0.2197  1.3116  0.7413
   40MOL0     H 5245  -1.378   8.901   5.948  0.4694 -0.0401  1.3168
   40MOL0     H 5246  -1.808   8.809   5.962  1.6974  1.6218  0.6055
   40MOL0     H 5247  -1.761   8.639   5.982 -1.1200 -2.0278 -2.1648
   40MOL0     H 5248  -1.682   8.669   5.728  0.9626  1.9423 -0.3542
   40MOL0     H 5249  -1.814   8.790   5.733 -0.1690  1.3695  2.3245
   40MOL0     H 5250  -1.849   8.511   5.834  0.3382  3.5372  2.5217
   40MOL0     H 5251  -1.835   8.533   5.651  1.4534  0.7276 -0.3277
   40MOL0     H 5252  -2.044   8.672   5.823 -4.1767  0.8322 -1.2368
   40MOL0     H 5253  -2.016   8.695   5.651  1.2753  2.1755  2.3664
   40MOL0     H 5254  -2.073   8.416   5.775 -4.5785 -4.0080 -2.8083
   40MOL0     H 5255  -2.089   8.478   5.613  0.4840 -1.9689  0.7907
   40MOL0     H 5256  -2.314   8.486   5.682 -1.5742  0.3313  0.8129
   40MOL0     H 5257  -2.267   8.652   5.711  2.5026  0.4851 -1.3245
   40MOL0     H 5258  -2.200   8.531   5.961  0.0835 -0.6739  0.7655
   40MOL0     H 5259  -2.367   8.588   5.925  1.7715  2.4033 -0.5176
   40MOL0     H 5260  -2.419   8.344   5.853  1.3060 -1.8965 -1.0748
   40MOL0     H 5261  -2.376   8.370   6.023  2.2667  0.5992  0.4147
   40MOL0     H 5262  -1.733   8.781   6.183 -1.8060  1.9679  0.7097
   40MOL0     H 5263  -1.646   8.887   6.371  4.8037 -0.5494  2.7921
   40MOL0     H 5264  -1.388   9.384   6.459 -0.2319 -3.0293 -1.1475
   40MOL0     H 5265  -1.302   9.480   6.690  1.0801  0.4143  0.0449
   40MOL0     H 5266   0.255   9.811   7.499  0.0730 -1.2917 -2.4505
   40MOL0     H 5267   0.452   9.672   7.544  0.0277 -0.6194 -0.3261
   40MOL0     H 5268   0.739   9.568   7.943 -2.4598 -1.8730  1.4021
   40MOL0     H 5269   0.970   9.478   7.952  0.8026 -0.0464 -0.6151
   40MOL0     H 5270   1.144   9.425   7.921 -0.0452 -1.1242  0.3159
   40MOL0     H 5271   1.161   9.441   7.744 -0.4977  1.0898  0.6605
   40MOL0     H 5272   1.377   9.391   7.872  0.2271 -0.6626  3.9665
   40MOL0     H 5273   1.309   9.232   7.920  0.2106 -1.5548 -1.8396
   40MOL0     H 5274   1.302   9.271   7.625 -0.9055 -2.1417  0.2699
   40MOL0     H 5275   1.358   9.142   7.723  1.4161 -0.6599  0.0272
   40MOL0     H 5276   1.512   9.390   7.650 -0.4029  0.1431 -0.4383
   40MOL0     H 5277   1.561   9.277   7.786 -3.0490  0.8601  1.3627
   40MOL0     H 5278   1.656   9.130   7.385 -1.4000  0.5465 -0.4184
   40MOL0     H 5279   0.879   9.158   7.688  1.7159  1.1968 -2.0229
   40MOL0     H 5280   0.667   9.245   7.652  2.7345 -0.3394 -2.6549
   41MOL0     O 5281   2.636   7.774   4.974 -0.4527  0.6444  1.0677
   41MOL0     C 5282   2.659   7.819   5.083  0.4671 -0.3077 -0.2115
   41MOL0     O 5283   2.742   7.921   5.113  0.4613  0.2208 -0.2430
   41MOL0     C 5284   2.790   8.005   5.016 -0.7772 -0.1885  0.2636
   41MOL0     C 5285   2.741   8.024   4.888 -0.4371  0.0007 -0.5288
   41MOL0     C 5286   2.808   8.108   4.795  0.1758  0.5698 -0.6757
   41MOL0     C 5287   2.943   8.157   4.813  0.1344 -1.3941 -0.1005
   41MOL0     O 5288   3.015   8.238   4.727 -0.0537  0.0958 -0.5213
   41MOL0     C 5289   2.956   8.317   4.631  0.6020 -0.3867 -0.0121
   41MOL0     C 5290   3.056   8.424   4.584  0.5463  1.2044  0.0172
   41MOL0     C 5291   3.087   8.542   4.687 -0.9193  0.2702  0.1168
   41MOL0     C 5292   2.963   8.608   4.747 -0.2269 -0.1799 -0.3224
   41MOL0     C 5293   2.947   8.542   4.883 -0.5682 -0.5825  0.7368
   41MOL0     C 5294   2.819   8.605   4.931  0.6208 -0.5721 -0.0299
   41MOL0     C 5295   2.752   8.550   5.052  0.0181  0.3512 -0.6820
   41MOL0     C 5296   2.691   8.414   5.045  0.8753 -0.0748 -0.7133
   41MOL0     N 5297   2.696   8.358   5.180 -1.0605 -0.2801 -0.0229
   41MOL0     C 5298   2.805   8.303   5.234  0.5613  0.5085 -0.1402
   41MOL0     C 5299   2.754   8.241   5.343 -0.1126 -0.3009  0.7450
   41MOL0     C 5300   2.835   8.156   5.434 -0.1380 -0.0327  0.4377
   41MOL0     C 5301   2.869   8.203   5.569  0.6411 -0.7577  0.2622
   41MOL0     C 5302   2.973   8.119   5.641 -0.5231  0.6524 -0.2737
   41MOL0     C 5303   2.902   7.994   5.702  0.4653 -0.5195  0.1297
   41MOL0     O 5304   2.998   7.901   5.751  0.0361  0.0762  0.0330
   41MOL0     C 5305   2.969   7.765   5.726 -1.0375 -0.4889  1.1720
   41MOL0     C 5306   2.846   7.701   5.697 -0.1212 -0.2238  0.4574
   41MOL0     C 5307   2.835   7.557   5.689 -0.0168  0.2698  0.0632
   41MOL0     C 5308   2.952   7.484   5.682  0.4896 -0.4739  0.1273
   41MOL0     C 5309   2.946   7.338   5.644  0.1072 -1.3214  0.9200
   41MOL0     O 5310   3.040   7.294   5.549 -0.2248 -0.0559  0.0483
   41MOL0     C 5311   3.045   7.158   5.519  0.0973 -1.1941  0.3412
   41MOL0     C 5312   3.039   7.045   5.606  0.9326 -0.3273  0.1350
   41MOL0     C 5313   3.028   6.913   5.564 -0.6610 -0.2291  0.4397
   41MOL0     C 5314   3.017   6.890   5.421  0.8018 -0.1087 -0.4927
   41MOL0     O 5315   2.983   6.772   5.359  0.1260 -0.0622 -0.6741
   41MOL0     C 5316   2.888   6.693   5.433  0.1644  0.0546 -0.1440
   41MOL0     C 5317   2.874   6.558   5.339 -0.1408 -0.7630 -0.8625
   41MOL0     C 5318   2.818   6.606   5.201  0.0441 -0.4038 -0.3427
   41MOL0     C 5319   2.673   6.656   5.197 -0.3380  0.2456  0.1312
   41MOL0     C 5320   2.629   6.706   5.059 -0.3108  0.1226 -0.1029
   41MOL0     C 5321   2.480   6.756   5.045  0.4784 -0.0018  0.9333
   41MOL0     C 5322   2.450   6.795   4.898  0.0938 -1.3429 -0.0427
   41MOL0     C 5323   2.307   6.838   4.885  0.5248  0.5343  0.5813
   41MOL0    Cl 5324   2.272   6.905   4.721 -0.0929 -0.0157 -0.1226
   41MOL0     C 5325   3.054   6.997   5.341  0.9352 -0.2330 -0.1722
   41MOL0     C 5326   3.066   7.130   5.386 -0.1223  1.0681  0.0193
   41MOL0     O 5327   2.870   7.270   5.701  0.3334 -0.4095 -0.6753
   41MOL0     C 5328   3.080   7.546   5.696  0.7706 -0.5264  0.0783
   41MOL0     C 5329   3.081   7.679   5.725  0.1857  0.0172  0.4868
   41MOL0     N 5330   2.625   8.280   5.368  0.5243  1.0038 -0.1935
   41MOL0     N 5331   2.595   8.353   5.271 -0.8710 -0.3630  0.6103
   41MOL0     C 5332   2.990   8.139   4.942 -0.6718  0.4105 -0.7124
   41MOL0     C 5333   2.909   8.080   5.045 -1.3138  0.4451  0.1271
   41MOL0     C 5334   2.596   7.752   5.199  0.1103  0.3492 -1.0069
   41MOL0     C 5335   2.514   7.641   5.188  0.4255  0.3688  0.5114
   41MOL0     C 5336   2.470   7.572   5.300  0.7868 -1.0490  0.2512
   41MOL0     C 5337   2.496   7.619   5.428 -0.2181  0.2878  0.6130
   41MOL0     O 5338   2.459   7.568   5.545 -0.5374 -0.7343  0.4969
   41MOL0     C 5339   2.365   7.459   5.552  0.3468 -0.8434 -0.1413
   41MOL0     C 5340   2.353   7.425   5.704 -0.6918  0.1711  0.3687
   41MOL0     C 5341   2.235   7.336   5.745 -0.2280  0.2171  0.2974
   41MOL0     C 5342   2.224   7.340   5.894  0.8316  0.5551 -0.1820
   41MOL0     C 5343   2.116   7.243   5.936  0.1804 -0.7059  0.2067
   41MOL0     C 5344   2.042   7.155   5.969 -0.2771 -0.2217  0.5481
   41MOL0     C 5345   2.568   7.743   5.443  0.3488 -0.2704  1.0186
   41MOL0     C 5346   2.616   7.797   5.328 -0.5871 -0.0848 -0.3968
   41MOL0     H 5347   2.648   7.980   4.854 -1.0467  0.7486  0.1181
   41MOL0     H 5348   2.764   8.110   4.696  0.1176  4.0547 -0.7246
   41MOL0     H 5349   2.860   8.361   4.660  1.6437  2.9869 -1.2646
   41MOL0     H 5350   2.940   8.264   4.537  0.0197  1.7377 -1.1582
   41MOL0     H 5351   3.018   8.468   4.491  0.4234  0.7301 -0.1635
   41MOL0     H 5352   3.153   8.373   4.574 -0.4300 -0.4424 -1.8247
   41MOL0     H 5353   3.146   8.613   4.629 -1.1232 -1.3505 -2.2525
   41MOL0     H 5354   3.150   8.511   4.770 -0.9896  3.3230  1.4282
   41MOL0     H 5355   2.991   8.714   4.750 -0.1289 -0.1101 -2.1889
   41MOL0     H 5356   2.876   8.592   4.683  1.6558  0.7474 -3.3286
   41MOL0     H 5357   3.042   8.564   4.933  1.7162 -1.9221 -2.6574
   41MOL0     H 5358   2.931   8.435   4.871 -1.1989 -0.3430 -0.7949
   41MOL0     H 5359   2.743   8.607   4.852 -0.0238  1.1682  0.5731
   41MOL0     H 5360   2.837   8.712   4.941 -1.6164 -0.3805  3.9253
   41MOL0     H 5361   2.821   8.560   5.135  1.1381  0.6040 -1.6154
   41MOL0     H 5362   2.671   8.621   5.071 -0.6205 -0.6532  0.4612
   41MOL0     H 5363   2.745   8.349   4.975 -3.8270 -2.2884 -2.6953
   41MOL0     H 5364   2.588   8.422   5.011  0.7466  2.4898  0.0294
   41MOL0     H 5365   2.908   8.312   5.200  0.3213  1.8946 -0.5157
   41MOL0     H 5366   2.929   8.120   5.391 -0.7217 -1.6513  0.4352
   41MOL0     H 5367   2.788   8.057   5.438  4.2313 -2.3354  1.2924
   41MOL0     H 5368   2.774   8.226   5.619  0.5544  1.0167 -0.6214
   41MOL0     H 5369   2.920   8.300   5.565 -1.0636  0.1348 -1.5713
   41MOL0     H 5370   3.045   8.093   5.563  1.7706  3.3886  0.7755
   41MOL0     H 5371   3.013   8.174   5.726 -2.4658 -0.8829  1.7829
   41MOL0     H 5372   2.826   7.960   5.631 -0.9578  4.3729 -1.0268
   41MOL0     H 5373   2.835   8.015   5.787  0.0960  1.3429 -0.5794
   41MOL0     H 5374   2.748   7.748   5.698 -1.8821 -3.5346 -0.8435
   41MOL0     H 5375   2.743   7.499   5.686 -0.5341  1.0735 -0.1699
   41MOL0     H 5376   3.036   7.058   5.714 -2.7315 -4.0646  0.7489
   41MOL0     H 5377   3.022   6.831   5.634  0.0892 -1.3487 -0.7704
   41MOL0     H 5378   2.789   6.738   5.447 -0.7353 -1.2211 -2.0440
   41MOL0     H 5379   2.936   6.656   5.524  2.0074 -2.9103 -2.1732
   41MOL0     H 5380   2.809   6.477   5.376  2.2397 -2.5686 -0.4079
   41MOL0     H 5381   2.976   6.528   5.316  1.1889  2.9677 -0.4033
   41MOL0     H 5382   2.814   6.519   5.135  2.9039 -0.9743  0.1101
   41MOL0     H 5383   2.882   6.688   5.167 -1.2575  1.8271  2.1878
   41MOL0     H 5384   2.608   6.573   5.226  0.3493 -0.9568 -1.6517
   41MOL0     H 5385   2.658   6.735   5.272  1.4317 -1.6544  2.6390
   41MOL0     H 5386   2.648   6.625   4.987  1.4441 -0.1865  0.6624
   41MOL0     H 5387   2.689   6.788   5.020 -0.6772  1.2947  1.7059
   41MOL0     H 5388   2.464   6.837   5.117  0.8182 -1.4983  2.7772
   41MOL0     H 5389   2.418   6.668   5.066  0.7714 -1.0882 -2.2023
   41MOL0     H 5390   2.508   6.885   4.875  1.2988 -1.7371  1.2804
   41MOL0     H 5391   2.470   6.711   4.831 -2.0549 -2.4809  0.6405
   41MOL0     H 5392   2.296   6.919   4.958  2.7084 -0.1589  1.7673
   41MOL0     H 5393   2.239   6.754   4.907  1.6908  0.3140  3.8997
   41MOL0     H 5394   3.046   6.966   5.237 -3.6014 -0.0946 -0.0300
   41MOL0     H 5395   3.080   7.208   5.312  1.2277 -0.0722 -0.9977
   41MOL0     H 5396   3.172   7.491   5.681  1.6705  0.9110  0.0901
   41MOL0     H 5397   3.178   7.714   5.759  0.1560  1.2504 -0.6227
   41MOL0     H 5398   3.089   8.182   4.953  0.6587 -2.0531 -2.0292
   41MOL0     H 5399   2.957   8.070   5.141  0.2613 -1.0184 -0.7724
   41MOL0     H 5400   2.509   7.594   5.090  0.5013  0.7705  0.3139
   41MOL0     H 5401   2.410   7.483   5.284 -0.9599  0.3197 -1.3328
   41MOL0     H 5402   2.389   7.370   5.492  4.8674 -0.7095  1.0770
   41MOL0     H 5403   2.269   7.505   5.527  1.1438 -0.2837 -2.3458
   41MOL0     H 5404   2.448   7.380   5.737  2.6676  5.5945 -0.5925
   41MOL0     H 5405   2.335   7.523   5.749  0.2938 -0.2232  1.6781
   41MOL0     H 5406   2.261   7.237   5.707 -1.4050 -0.1121  0.3258
   41MOL0     H 5407   2.151   7.372   5.686  0.9179 -0.2655 -1.7072
   41MOL0     H 5408   2.315   7.309   5.946  1.8046  0.7926 -1.6919
   41MOL0     H 5409   2.191   7.438   5.928  1.4294 -0.2830  3.2272
   41MOL0     H 5410   1.960   7.103   6.014  1.5070 -0.2149  4.2827
   41MOL0     H 5411   2.581   7.781   5.544 -0.6926  1.3695  0.5569
   41MOL0     H 5412   2.681   7.880   5.353 -0.6436 -0.2361  0.2734
   42MOL0     O 5413   1.618   3.288   7.695 -0.7745  0.5211  0.0254
   42MOL0     C 5414   1.593   3.295   7.815 -0.1487 -0.5419  0.0720
   42MOL0     O 5415   1.683   3.336   7.909  0.2931  0.3615 -0.8156
   42MOL0     C 5416   1.800   3.403   7.867  1.4165 -0.8749 -1.0065
   42MOL0     C 5417   1.803   3.499   7.759 -0.4188  0.0484 -0.2191
   42MOL0     C 5418   1.920   3.569   7.737  0.3768  0.4696  0.0515
   42MOL0     C 5419   2.036   3.545   7.808 -0.2963 -0.5138 -0.4999
   42MOL0     O 5420   2.160   3.608   7.789 -0.2045 -0.7037 -0.2915
   42MOL0     C 5421   2.160   3.736   7.720 -0.5738 -0.0618  0.1287
   42MOL0     C 5422   2.303   3.768   7.704  0.1338  0.4473 -0.4914
   42MOL0     C 5423   2.330   3.918   7.687 -0.5505 -1.1172  0.2414
   42MOL0     C 5424   2.478   3.935   7.668 -0.0546  0.5680 -0.6991
   42MOL0     C 5425   2.513   4.083   7.635  0.3736  0.0601  0.0960
   42MOL0     C 5426   2.664   4.084   7.604  0.2317  0.0367  0.3564
   42MOL0     C 5427   2.717   4.225   7.555  0.2038  0.3663  0.2724
   42MOL0     C 5428   2.871   4.221   7.523 -0.8118 -0.3752 -0.2368
   42MOL0     N 5429   2.902   4.348   7.467  0.4013  0.2490  1.1039
   42MOL0     C 5430   2.833   4.427   7.372 -0.1100  0.5535 -0.3768
   42MOL0     C 5431   2.897   4.544   7.372 -0.3815 -0.0832  0.0389
   42MOL0     C 5432   2.868   4.673   7.296  0.2439 -0.3568  0.1678
   42MOL0     C 5433   2.886   4.654   7.143 -0.4144 -0.2106  0.3188
   42MOL0     C 5434   2.900   4.789   7.077 -1.6873 -0.2079 -0.0181
   42MOL0     C 5435   2.772   4.875   7.082 -0.8091  0.5225  0.1642
   42MOL0     O 5436   2.778   4.975   6.974 -0.1029  0.0725  0.2933
   42MOL0     C 5437   2.702   5.090   6.994 -0.1537  0.0138 -0.2519
   42MOL0     C 5438   2.561   5.087   7.018 -0.4703 -0.3689 -0.2217
   42MOL0     C 5439   2.485   5.208   7.024 -0.8189 -0.3593 -0.0727
   42MOL0     C 5440   2.551   5.329   7.012 -0.2656 -0.5515  0.5088
   42MOL0     C 5441   2.470   5.452   7.023  0.4780  0.4298 -0.0800
   42MOL0     O 5442   2.534   5.568   7.026 -0.5861  0.2238  0.6719
   42MOL0     C 5443   2.455   5.679   7.071 -0.9106  0.0716 -0.0522
   42MOL0     C 5444   2.412   5.766   6.968 -0.7376  0.0098 -0.0458
   42MOL0     C 5445   2.348   5.885   7.001 -0.0266 -0.5558  0.1979
   42MOL0     C 5446   2.326   5.926   7.133  0.7692 -0.4459  0.6436
   42MOL0     O 5447   2.284   6.048   7.182  0.3248 -0.0391  0.0249
   42MOL0     C 5448   2.201   6.122   7.097  0.2563 -0.0073 -0.6263
   42MOL0     C 5449   2.065   6.049   7.049  0.0202 -0.1003 -0.3577
   42MOL0     C 5450   1.978   6.003   7.169  0.0329  0.4888 -0.0914
   42MOL0     C 5451   1.855   5.929   7.131 -0.0225  0.8227  0.4592
   42MOL0     C 5452   1.800   5.855   7.247  0.1786  0.0431  0.0415
   42MOL0     C 5453   1.661   5.792   7.222 -0.1418  0.3041  0.1571
   42MOL0     C 5454   1.549   5.891   7.207 -0.4599  1.0309 -0.6105
   42MOL0     C 5455   1.422   5.823   7.193  0.6543 -0.2373 -0.1043
   42MOL0    Cl 5456   1.314   5.940   7.111  0.5512 -0.1398 -0.5079
   42MOL0     C 5457   2.363   5.829   7.233 -0.3491 -0.1024 -0.8959
   42MOL0     C 5458   2.422   5.709   7.207  0.2160  0.6358  0.1126
   42MOL0     O 5459   2.345   5.436   7.028 -0.5450 -0.6800 -0.5424
   42MOL0     C 5460   2.688   5.327   6.991  0.3640  0.6436  0.2088
   42MOL0     C 5461   2.762   5.210   6.977  0.6293 -0.8236  0.1420
   42MOL0     N 5462   3.008   4.539   7.456 -0.1714 -0.8625 -0.3882
   42MOL0     N 5463   3.009   4.419   7.502 -0.2850  0.0557 -0.4122
   42MOL0     C 5464   2.024   3.454   7.907 -0.6714 -0.1640  0.3879
   42MOL0     C 5465   1.909   3.378   7.936 -0.7017  0.6231  0.1002
   42MOL0     C 5466   1.460   3.254   7.848  0.7094  0.3057  0.4032
   42MOL0     C 5467   1.372   3.190   7.754  0.1324 -0.9072 -0.4038
   42MOL0     C 5468   1.237   3.156   7.783 -0.8811  0.4284 -0.1197
   42MOL0     C 5469   1.180   3.175   7.906 -0.9129 -0.5926 -0.2531
   42MOL0     O 5470   1.045   3.139   7.921  0.3236 -0.0916  1.3142
   42MOL0     C 5471   0.987   3.149   8.052 -0.0505 -0.5646 -0.2550
   42MOL0     C 5472   0.986   3.017   8.130 -0.7457  0.4199 -0.3248
   42MOL0     C 5473   0.956   3.045   8.278 -0.2320  0.0805 -0.5185
   42MOL0     C 5474   1.082   3.098   8.356  0.7657  0.4467  0.4360
   42MOL0     C 5475   1.191   2.999   8.347  0.8551  0.6893 -1.5398
   42MOL0     C 5476   1.299   2.945   8.340  0.4882 -0.4281 -0.0161
   42MOL0     C 5477   1.268   3.228   8.002  0.5188  0.1831  0.2779
   42MOL0     C 5478   1.401   3.270   7.973  0.0953 -0.3982 -0.9567
   42MOL0     H 5479   1.709   3.521   7.709 -0.7830  0.2607  0.5479
   42MOL0     H 5480   1.924   3.638   7.653  1.2320 -0.9199 -1.0862
   42MOL0     H 5481   2.109   3.816   7.774  1.1554  2.3922 -1.6672
   42MOL0     H 5482   2.121   3.733   7.618 -0.2434 -2.1404  0.0196
   42MOL0     H 5483   2.344   3.721   7.614 -0.4313  0.7984 -0.9428
   42MOL0     H 5484   2.358   3.714   7.782 -1.2319 -1.0685 -0.5085
   42MOL0     H 5485   2.293   3.962   7.780  0.8087  0.7938 -0.0695
   42MOL0     H 5486   2.278   3.963   7.601 -0.4365 -0.5805  0.4508
   42MOL0     H 5487   2.538   3.899   7.752  1.1933  0.5909 -1.5570
   42MOL0     H 5488   2.515   3.870   7.589 -1.0737  1.3114 -1.8168
   42MOL0     H 5489   2.474   4.157   7.705 -2.6951  2.0064 -3.3450
   42MOL0     H 5490   2.459   4.111   7.544  0.0677  0.2792  0.3414
   42MOL0     H 5491   2.671   4.006   7.528 -6.5019 -2.9713  2.0420
   42MOL0     H 5492   2.716   4.050   7.694 -0.4268 -0.9393  0.3831
   42MOL0     H 5493   2.650   4.256   7.475 -1.1719  0.5186  1.4317
   42MOL0     H 5494   2.677   4.295   7.629 -0.7075 -1.4325  1.5505
   42MOL0     H 5495   2.903   4.142   7.454 -3.6560 -1.0337 -0.9441
   42MOL0     H 5496   2.924   4.203   7.617  1.5776 -2.5865 -1.8463
   42MOL0     H 5497   2.742   4.398   7.321 -1.8145  1.0566  2.1840
   42MOL0     H 5498   2.930   4.751   7.341 -2.7610  0.5616  3.1128
   42MOL0     H 5499   2.766   4.708   7.313  0.9857  2.2606 -0.3043
   42MOL0     H 5500   2.803   4.603   7.093 -1.7775  1.3792  0.8561
   42MOL0     H 5501   2.982   4.609   7.117 -0.0619  0.4642  0.4260
   42MOL0     H 5502   2.979   4.852   7.119 -2.8765  2.0939 -1.0574
   42MOL0     H 5503   2.928   4.774   6.972  0.7296  3.0379 -0.0021
   42MOL0     H 5504   2.755   4.907   7.185 -1.8765  0.9004 -0.1226
   42MOL0     H 5505   2.695   4.806   7.046  0.8878 -0.9664 -0.8486
   42MOL0     H 5506   2.511   4.991   7.029  1.7711 -1.3855  1.9599
   42MOL0     H 5507   2.377   5.196   7.029 -0.8367 -0.3345 -0.4132
   42MOL0     H 5508   2.414   5.763   6.859  1.0711 -1.5202 -0.0338
   42MOL0     H 5509   2.322   5.951   6.919 -0.1561  0.2033  0.8318
   42MOL0     H 5510   2.242   6.169   7.006 -0.5989 -2.0591 -2.1523
   42MOL0     H 5511   2.170   6.208   7.156  0.8783 -1.1357  1.4139
   42MOL0     H 5512   2.094   5.956   7.000 -1.4690 -1.8391  1.8291
   42MOL0     H 5513   2.007   6.105   6.976 -1.1508 -0.6826  0.0956
   42MOL0     H 5514   1.958   6.092   7.230  3.8744  1.2996  0.2788
   42MOL0     H 5515   2.037   5.940   7.237  0.3027  0.0578 -0.7117
   42MOL0     H 5516   1.789   6.005   7.090  1.5330  1.1971 -1.5587
   42MOL0     H 5517   1.881   5.859   7.051  0.4063 -0.3194  1.5618
   42MOL0     H 5518   1.786   5.933   7.323  0.2475 -1.4649  1.6626
   42MOL0     H 5519   1.862   5.774   7.284 -0.6042 -0.2685  0.7114
   42MOL0     H 5520   1.633   5.734   7.311 -1.6861  2.0593  0.8743
   42MOL0     H 5521   1.658   5.732   7.131 -1.5001  0.5728 -0.0005
   42MOL0     H 5522   1.543   5.960   7.292  1.2143  1.9560 -1.1989
   42MOL0     H 5523   1.566   5.945   7.114  0.8058 -0.0105 -1.0212
   42MOL0     H 5524   1.381   5.796   7.291  0.3681  1.0966  0.1607
   42MOL0     H 5525   1.425   5.724   7.146 -2.2245 -0.5785  0.2200
   42MOL0     H 5526   2.345   5.872   7.331 -1.0149  1.7170 -1.7539
   42MOL0     H 5527   2.459   5.660   7.296 -2.8172  1.1985  1.8345
   42MOL0     H 5528   2.754   5.412   6.978  1.8090 -0.4802 -0.1417
   42MOL0     H 5529   2.870   5.216   6.963  0.8012 -2.5296  0.4698
   42MOL0     H 5530   2.115   3.417   7.953  0.3466 -1.0528 -2.1416
   42MOL0     H 5531   1.915   3.308   8.018 -1.6933 -0.9673 -1.1253
   42MOL0     H 5532   1.406   3.154   7.657  2.8660  2.5517 -0.9274
   42MOL0     H 5533   1.196   3.089   7.708  0.2398  1.4171 -1.6709
   42MOL0     H 5534   0.882   3.178   8.046  0.3192  0.7263 -0.8906
   42MOL0     H 5535   1.031   3.232   8.107 -0.6670  0.5521 -1.4001
   42MOL0     H 5536   0.919   2.940   8.090 -2.3229  2.1952 -1.2266
   42MOL0     H 5537   1.085   2.971   8.133  0.0643  2.0832  2.2287
   42MOL0     H 5538   0.920   2.954   8.327 -1.6138  0.9184  0.0753
   42MOL0     H 5539   0.873   3.116   8.286  1.3991  2.3607 -2.4254
   42MOL0     H 5540   1.112   3.194   8.315  0.5913  0.3643  0.1133
   42MOL0     H 5541   1.058   3.105   8.462  1.5348 -0.8914  0.7292
   42MOL0     H 5542   1.383   2.879   8.331 -0.5086 -1.9316  1.1949
   42MOL0     H 5543   1.224   3.230   8.101 -0.8410 -0.9820 -0.2727
   42MOL0     H 5544   1.466   3.291   8.058  1.2082 -0.6292 -1.7325
   43MOL0     O 5545   4.017  11.197   9.978  0.5729 -0.0385  0.4675
   43MOL0     C 5546   4.025  11.222  10.100 -0.6003 -0.2824  0.3674
   43MOL0     O 5547   3.953  11.323  10.158  0.6675 -0.1358 -0.0263
   43MOL0     C 5548   3.850  11.381  10.093  0.6019  0.6663  0.2407
   43MOL0     C 5549   3.880  11.492  10.014  0.4793 -0.7240  0.3383
   43MOL0     C 5550   3.781  11.557   9.944 -0.2285  0.4067  0.8126
   43MOL0     C 5551   3.644  11.514   9.938 -0.6388 -0.5953  0.9692
   43MOL0     O 5552   3.550  11.578   9.864 -0.3216  0.2546 -0.5645
   43MOL0     C 5553   3.562  11.712   9.815 -0.4160 -0.1530  0.1786
   43MOL0     C 5554   3.550  11.814   9.931  0.1556  0.1479  0.3218
   43MOL0     C 5555   3.518  11.964   9.891 -0.5727  1.3077 -0.1461
   43MOL0     C 5556   3.511  12.054  10.018  0.4755  0.8421 -0.1450
   43MOL0     C 5557   3.489  12.201   9.992 -1.1326 -0.5740  0.4643
   43MOL0     C 5558   3.487  12.285  10.125  0.2326  0.4143  0.5513
   43MOL0     C 5559   3.426  12.415  10.095  0.9892 -0.2219  0.2508
   43MOL0     C 5560   3.376  12.480  10.222  0.6335  0.0526 -0.1601
   43MOL0     N 5561   3.488  12.535  10.300  1.0736  0.7066  0.2090
   43MOL0     C 5562   3.579  12.459  10.368 -0.9779 -0.2532 -0.0343
   43MOL0     C 5563   3.676  12.543  10.412 -1.3360 -0.4119 -0.4669
   43MOL0     C 5564   3.797  12.527  10.503  0.8430  0.7310 -0.4599
   43MOL0     C 5565   3.920  12.503  10.429  0.5631 -0.3427 -0.2658
   43MOL0     C 5566   4.035  12.444  10.515  0.2419  0.0298 -0.3709
   43MOL0     C 5567   4.129  12.365  10.430  0.4301  0.4080  0.0612
   43MOL0     O 5568   4.226  12.286  10.497 -0.3528 -0.7598  0.1588
   43MOL0     C 5569   4.322  12.211  10.444  0.2289  0.6823 -0.1205
   43MOL0     C 5570   4.365  12.104  10.525 -0.3223 -0.2737  0.2043
   43MOL0     C 5571   4.470  12.015  10.490  0.4775 -0.8066 -0.6953
   43MOL0     C 5572   4.533  12.036  10.379 -0.6972  0.4864 -0.0088
   43MOL0     C 5573   4.653  11.948  10.343  0.0185 -0.1154 -0.5581
   43MOL0     O 5574   4.699  11.873  10.437  0.2351  0.4345 -0.1976
   43MOL0     C 5575   4.796  11.783  10.406  0.0947 -0.2022  0.5993
   43MOL0     C 5576   4.794  11.679  10.304  0.5481 -0.2040 -0.5328
   43MOL0     C 5577   4.904  11.591  10.285 -0.8475 -0.4195 -0.3706
   43MOL0     C 5578   5.025  11.609  10.362  0.1869  0.2600  0.1537
   43MOL0     O 5579   5.142  11.535  10.344 -0.3294  0.2205 -0.1914
   43MOL0     C 5580   5.135  11.388  10.361  0.8128 -0.2579 -0.1231
   43MOL0     C 5581   5.131  11.358  10.515  0.1541 -0.6950  0.3337
   43MOL0     C 5582   5.223  11.444  10.597 -0.6665  0.0778  0.3473
   43MOL0     C 5583   5.375  11.420  10.557 -0.3707 -0.0594 -0.7985
   43MOL0     C 5584   5.462  11.489  10.667 -0.2335 -0.0020 -0.1199
   43MOL0     C 5585   5.602  11.413  10.675  0.3201 -0.2729 -0.7288
   43MOL0     C 5586   5.658  11.369  10.539 -0.6267 -0.4670 -0.6238
   43MOL0     C 5587   5.803  11.323  10.542 -1.1922 -0.1516  1.1166
   43MOL0    Cl 5588   5.825  11.155  10.612  0.1791  0.8510 -0.0223
   43MOL0     C 5589   5.026  11.714  10.453  0.0230 -0.3478  0.1529
   43MOL0     C 5590   4.907  11.790  10.481 -0.5731 -0.7260  0.5261
   43MOL0     O 5591   4.695  11.954  10.229 -0.3481  0.0592  0.7074
   43MOL0     C 5592   4.499  12.143  10.292 -0.2281 -0.6431 -0.7831
   43MOL0     C 5593   4.391  12.224  10.323 -0.3201 -0.6768 -0.3030
   43MOL0     N 5594   3.635  12.672  10.386 -0.1792  0.2637  0.2745
   43MOL0     N 5595   3.522  12.663  10.316 -0.7037 -0.2023  0.7233
   43MOL0     C 5596   3.622  11.401  10.020  0.9717 -0.4809  0.8283
   43MOL0     C 5597   3.722  11.332  10.090  0.5146 -0.5346 -0.6326
   43MOL0     C 5598   4.127  11.149  10.184  0.1569 -0.2394 -1.2205
   43MOL0     C 5599   4.158  11.196  10.314  0.4282  0.3489 -0.2042
   43MOL0     C 5600   4.265  11.131  10.390  0.5940  0.1326  0.9007
   43MOL0     C 5601   4.343  11.018  10.339 -0.5660 -0.4608 -0.0905
   43MOL0     O 5602   4.446  10.944  10.407  0.1250 -0.7191  0.2492
   43MOL0     C 5603   4.461  10.923  10.549 -0.7361  0.2533  0.2949
   43MOL0     C 5604   4.606  10.884  10.594 -0.8092  0.0521  0.7363
   43MOL0     C 5605   4.667  10.748  10.550  0.4898 -0.3665 -0.1874
   43MOL0     C 5606   4.779  10.712  10.652 -0.1070 -1.1913  0.4215
   43MOL0     C 5607   4.716  10.664  10.774 -0.4243 -0.3989  1.0915
   43MOL0     C 5608   4.666  10.642  10.876 -0.1204 -0.0503 -0.8652
   43MOL0     C 5609   4.304  10.972  10.214  0.3061  0.1735 -0.3098
   43MOL0     C 5610   4.203  11.037  10.144 -0.6946  0.7386  0.9109
   43MOL0     H 5611   3.978  11.536  10.030 -0.2311  0.8050  0.6570
   43MOL0     H 5612   3.810  11.643   9.885 -0.5793  0.5260  0.8077
   43MOL0     H 5613   3.486  11.735   9.739 -0.2017  4.2694  1.0670
   43MOL0     H 5614   3.661  11.720   9.768  0.5355 -0.1693  2.0999
   43MOL0     H 5615   3.639  11.802   9.995  1.2998  1.2678 -0.9932
   43MOL0     H 5616   3.464  11.778   9.988  1.0902 -0.3508  1.4753
   43MOL0     H 5617   3.421  11.976   9.841  0.5306  0.4979 -2.6536
   43MOL0     H 5618   3.600  11.991   9.825 -0.5533  1.8453  0.0932
   43MOL0     H 5619   3.424  12.014  10.070 -1.3075 -1.4837 -4.4683
   43MOL0     H 5620   3.605  12.047  10.075  1.2610  3.2342 -1.0287
   43MOL0     H 5621   3.394  12.207   9.937 -1.1964 -0.6063  0.5718
   43MOL0     H 5622   3.567  12.228   9.919  0.3474 -1.4675  1.6475
   43MOL0     H 5623   3.588  12.288  10.167  0.7177 -0.7875 -0.4758
   43MOL0     H 5624   3.414  12.231  10.187 -1.8906  0.2705 -1.8986
   43MOL0     H 5625   3.491  12.482  10.038  1.9476  0.4277  2.0189
   43MOL0     H 5626   3.341  12.394  10.029  1.4854 -0.2746 -0.3819
   43MOL0     H 5627   3.320  12.406  10.280 -1.2024  2.0953  0.7893
   43MOL0     H 5628   3.308  12.561  10.196 -2.0839 -2.1187 -0.2377
   43MOL0     H 5629   3.583  12.351  10.369  1.8844 -0.2325 -0.7970
   43MOL0     H 5630   3.771  12.444  10.570 -1.8518  0.8863 -1.2330
   43MOL0     H 5631   3.806  12.618  10.564  0.7957  0.5590 -0.1949
   43MOL0     H 5632   3.945  12.592  10.370  0.3915 -0.0343  0.1285
   43MOL0     H 5633   3.888  12.432  10.353  1.4895  0.1388 -1.1405
   43MOL0     H 5634   4.105  12.518  10.556  3.8915 -3.8624  1.0977
   43MOL0     H 5635   4.005  12.393  10.607  1.0109  2.2943  1.2498
   43MOL0     H 5636   4.178  12.420  10.349 -1.9892 -0.4919 -2.1460
   43MOL0     H 5637   4.069  12.291  10.378 -0.2204  1.2337 -0.3834
   43MOL0     H 5638   4.297  12.096  10.610 -0.5191 -1.9302 -0.0703
   43MOL0     H 5639   4.487  11.933  10.559  0.6823 -0.4648 -0.3359
   43MOL0     H 5640   4.716  11.674  10.230  0.1994 -0.6088 -0.1450
   43MOL0     H 5641   4.897  11.535  10.192 -4.9406  1.5173 -1.4257
   43MOL0     H 5642   5.227  11.351  10.315  0.9233  2.2557 -2.1158
   43MOL0     H 5643   5.045  11.355  10.308 -0.0520  0.6094  0.7790
   43MOL0     H 5644   5.158  11.254  10.533  0.8807 -1.1078 -2.5779
   43MOL0     H 5645   5.030  11.372  10.555  1.4226  1.8726  2.9919
   43MOL0     H 5646   5.210  11.425  10.705 -1.7483 -0.0804  0.2030
   43MOL0     H 5647   5.192  11.548  10.591 -3.3466 -0.5098  2.0787
   43MOL0     H 5648   5.396  11.314  10.540  1.3435  0.6665 -3.7718
   43MOL0     H 5649   5.391  11.475  10.464  1.4278  2.2085  0.7413
   43MOL0     H 5650   5.408  11.482  10.761 -1.2891  1.5626 -0.5673
   43MOL0     H 5651   5.472  11.597  10.649  2.6950 -0.3302 -1.1323
   43MOL0     H 5652   5.582  11.322  10.732 -0.1173  0.7345  0.8062
   43MOL0     H 5653   5.674  11.484  10.717  1.4176 -1.8696  0.1785
   43MOL0     H 5654   5.609  11.282  10.496 -1.3222  0.1440 -1.0934
   43MOL0     H 5655   5.635  11.443  10.462 -2.5175 -2.1761 -1.8059
   43MOL0     H 5656   5.855  11.392  10.609 -4.1539  2.2361  1.2016
   43MOL0     H 5657   5.843  11.337  10.441  1.1802 -0.2167  1.9912
   43MOL0     H 5658   5.114  11.730  10.514  0.1572  2.9380 -0.7488
   43MOL0     H 5659   4.902  11.853  10.569  1.7213 -1.2646  1.0948
   43MOL0     H 5660   4.562  12.157  10.204 -0.6227 -0.5405 -1.0507
   43MOL0     H 5661   4.378  12.310  10.258  1.3147 -2.2417 -2.9234
   43MOL0     H 5662   3.515  11.384  10.031  0.5711  0.5986 -1.0046
   43MOL0     H 5663   3.715  11.252  10.163  1.2572  0.0938  0.1442
   43MOL0     H 5664   4.103  11.279  10.357  4.5504  2.4610  1.6141
   43MOL0     H 5665   4.289  11.175  10.486  0.1719  4.5223 -0.7818
   43MOL0     H 5666   4.403  10.835  10.578 -1.4749  1.1814  1.7504
   43MOL0     H 5667   4.434  11.012  10.606 -1.5677 -1.1321  2.1341
   43MOL0     H 5668   4.666  10.968  10.556 -0.5870  0.6373  2.3240
   43MOL0     H 5669   4.605  10.900  10.702 -2.4515 -2.5515  1.1897
   43MOL0     H 5670   4.699  10.758  10.446 -1.0640  2.2270 -0.5016
   43MOL0     H 5671   4.586  10.675  10.548  0.6861 -0.5741 -1.7069
   43MOL0     H 5672   4.848  10.638  10.611  0.3291  0.4320 -1.9866
   43MOL0     H 5673   4.839  10.802  10.665 -1.1811  0.3222 -3.5664
   43MOL0     H 5674   4.637  10.621  10.977  1.7082  0.4890 -0.1837
   43MOL0     H 5675   4.361  10.894  10.166 -2.4922 -0.6069 -2.6469
   43MOL0     H 5676   4.176  11.007  10.043  2.2501 -0.8739  0.4783
   44MOL0     O 5677   0.564   3.158   1.226  0.2862 -0.1090 -0.3244
   44MOL0     C 5678   0.617   3.222   1.136  0.4772  0.0037 -0.3538
   44MOL0     O 5679   0.569   3.237   1.012 -0.2015 -0.9920  0.4327
   44MOL0     C 5680   0.444   3.198   0.982 -0.4514 -0.2724 -0.7897
   44MOL0     C 5681   0.392   3.065   1.017  0.9432 -0.9288  0.0175
   44MOL0     C 5682   0.256   3.032   0.975  0.2626 -0.1859  0.1225
   44MOL0     C 5683   0.177   3.135   0.930  1.4026  0.2619  0.5954
   44MOL0     O 5684   0.043   3.121   0.893 -0.7173 -0.1178  0.2003
   44MOL0     C 5685  -0.031   2.998   0.914 -0.5877 -0.0909  0.8502
   44MOL0     C 5686  -0.070   2.970   1.056  0.0263  0.0875 -0.2197
   44MOL0     C 5687  -0.176   3.066   1.106 -0.0732 -0.3787 -0.0939
   44MOL0     C 5688  -0.230   3.031   1.245  0.9855  0.2892 -0.1493
   44MOL0     C 5689  -0.351   3.126   1.280 -0.3127 -0.2467  0.3452
   44MOL0     C 5690  -0.409   3.139   1.420 -0.3106  0.3831 -0.2361
   44MOL0     C 5691  -0.295   3.160   1.519 -0.1444  0.0974 -0.2031
   44MOL0     C 5692  -0.351   3.173   1.654  1.0138 -0.8031 -0.0181
   44MOL0     N 5693  -0.431   3.298   1.669  0.1406  0.8329 -0.3976
   44MOL0     C 5694  -0.402   3.427   1.650  0.7420 -0.1350  0.3064
   44MOL0     C 5695  -0.518   3.489   1.664 -0.6638 -0.0784 -0.9003
   44MOL0     C 5696  -0.524   3.638   1.651  0.4492  0.4783 -0.2248
   44MOL0     C 5697  -0.497   3.685   1.503 -0.2716  0.3206 -0.1409
   44MOL0     C 5698  -0.491   3.833   1.504 -0.3943  0.3186 -0.1575
   44MOL0     C 5699  -0.353   3.874   1.563  0.7024 -0.6762 -0.2925
   44MOL0     O 5700  -0.331   4.004   1.527 -0.4473 -1.0203 -0.0110
   44MOL0     C 5701  -0.203   4.054   1.520 -0.2390  0.3614  0.2932
   44MOL0     C 5702  -0.082   3.989   1.554  0.4685 -0.2629 -1.0190
   44MOL0     C 5703   0.045   4.046   1.537  0.2332 -0.5750  0.7290
   44MOL0     C 5704   0.055   4.180   1.497 -0.5238 -1.0741 -1.0012
   44MOL0     C 5705   0.183   4.247   1.480  0.1461 -0.0362 -0.1184
   44MOL0     O 5706   0.183   4.362   1.404  0.1172  0.6451  0.1174
   44MOL0     C 5707   0.304   4.416   1.364  0.5341  0.1112  0.3170
   44MOL0     C 5708   0.305   4.552   1.317  0.5465 -0.9159 -0.2426
   44MOL0     C 5709   0.419   4.623   1.276  0.7936  0.6859  0.4970
   44MOL0     C 5710   0.546   4.558   1.277  0.6381 -0.4964 -0.0804
   44MOL0     O 5711   0.662   4.616   1.242 -0.1130  0.0317  0.1060
   44MOL0     C 5712   0.687   4.728   1.336 -0.4137 -0.8530 -1.1234
   44MOL0     C 5713   0.827   4.707   1.397  0.2136  0.2572 -0.9654
   44MOL0     C 5714   0.938   4.679   1.295 -0.7802 -0.2568 -0.5197
   44MOL0     C 5715   1.072   4.639   1.358  0.5933 -0.4192 -0.6693
   44MOL0     C 5716   1.173   4.641   1.238 -0.6300 -0.1152 -0.1890
   44MOL0     C 5717   1.324   4.618   1.275 -0.6373 -0.3938 -0.1502
   44MOL0     C 5718   1.336   4.474   1.342 -0.5404 -0.0397  0.0047
   44MOL0     C 5719   1.471   4.461   1.409 -0.7402 -0.7234 -0.4443
   44MOL0    Cl 5720   1.617   4.506   1.307  0.1237 -0.1401  0.2273
   44MOL0     C 5721   0.547   4.423   1.308  0.0389 -1.2683  1.2163
   44MOL0     C 5722   0.431   4.360   1.353  1.1548  0.6677 -0.8937
   44MOL0     O 5723   0.282   4.205   1.544 -0.1380 -0.5973  0.0464
   44MOL0     C 5724  -0.063   4.250   1.466 -0.3355  0.2812  0.4864
   44MOL0     C 5725  -0.189   4.184   1.476  0.4991 -0.4702  0.8874
   44MOL0     N 5726  -0.616   3.401   1.699  0.4593 -0.6212 -0.1501
   44MOL0     N 5727  -0.568   3.287   1.693 -0.5913  0.1512  0.4727
   44MOL0     C 5728   0.228   3.256   0.900 -0.7846  0.0718  0.8852
   44MOL0     C 5729   0.362   3.287   0.921  0.0699  0.3536 -0.8946
   44MOL0     C 5730   0.755   3.263   1.177  0.2012  1.0111 -0.2318
   44MOL0     C 5731   0.827   3.356   1.096 -0.0011  0.0564 -0.1949
   44MOL0     C 5732   0.960   3.393   1.115 -0.2986  0.6134 -0.1888
   44MOL0     C 5733   1.015   3.350   1.231  0.2571  0.4606  0.6947
   44MOL0     O 5734   1.135   3.405   1.232  0.2865 -0.9049  0.8768
   44MOL0     C 5735   1.225   3.370   1.337 -0.1969 -0.3543 -0.4370
   44MOL0     C 5736   1.209   3.473   1.443 -0.5273  0.1115  0.1135
   44MOL0     C 5737   1.343   3.465   1.527 -0.1168  0.3075  0.0331
   44MOL0     C 5738   1.442   3.578   1.493  0.2148  0.7282  0.0201
   44MOL0     C 5739   1.557   3.566   1.566 -1.3118 -0.2093  0.2778
   44MOL0     C 5740   1.657   3.567   1.630  0.6705 -0.2071 -0.0723
   44MOL0     C 5741   0.956   3.259   1.324 -0.3710  0.7444  0.1107
   44MOL0     C 5742   0.828   3.210   1.285  0.2029 -0.2376 -0.3014
   44MOL0     H 5743   0.447   2.983   1.061 -1.2575 -2.4067  0.1852
   44MOL0     H 5744   0.223   2.929   0.991  0.7507 -0.2488  0.7655
   44MOL0     H 5745   0.029   2.915   0.876 -3.2182 -1.2317 -1.1291
   44MOL0     H 5746  -0.120   3.000   0.850 -0.2389  4.2699  0.2209
   44MOL0     H 5747   0.019   2.983   1.119  0.5845 -0.1673 -0.9326
   44MOL0     H 5748  -0.110   2.870   1.076  0.4235  0.3950  2.5222
   44MOL0     H 5749  -0.259   3.052   1.036  1.0068 -1.7760 -1.1328
   44MOL0     H 5750  -0.138   3.168   1.094 -1.5489 -0.0648 -2.8540
   44MOL0     H 5751  -0.277   2.933   1.233 -0.3572  0.6192  1.9788
   44MOL0     H 5752  -0.152   3.028   1.321  0.0856  3.6105  1.0591
   44MOL0     H 5753  -0.433   3.094   1.215  1.1604  1.1019 -2.3032
   44MOL0     H 5754  -0.328   3.231   1.263 -0.3366  0.1959  2.7170
   44MOL0     H 5755  -0.470   3.052   1.444 -0.6883  1.1274  1.6594
   44MOL0     H 5756  -0.484   3.219   1.424  0.9568  1.5766  0.3259
   44MOL0     H 5757  -0.224   3.076   1.512  2.0646  1.9662 -2.1126
   44MOL0     H 5758  -0.241   3.251   1.491 -1.6309  0.5241 -1.8570
   44MOL0     H 5759  -0.274   3.175   1.731  0.3826 -0.7375  0.6223
   44MOL0     H 5760  -0.419   3.090   1.675  2.2232 -2.5239 -2.3881
   44MOL0     H 5761  -0.311   3.478   1.623  1.6713 -1.6200  0.5063
   44MOL0     H 5762  -0.467   3.683   1.733  0.9062 -2.3955  1.2053
   44MOL0     H 5763  -0.630   3.661   1.666  0.5205  0.3048  0.6455
   44MOL0     H 5764  -0.565   3.644   1.427 -1.3479  1.3870  0.2225
   44MOL0     H 5765  -0.398   3.649   1.474  0.7077  0.7139  2.4193
   44MOL0     H 5766  -0.500   3.865   1.400  0.1405 -4.6192 -1.9983
   44MOL0     H 5767  -0.571   3.873   1.567 -0.2804 -1.0415  0.9022
   44MOL0     H 5768  -0.280   3.810   1.515  1.9950  0.5229  0.0205
   44MOL0     H 5769  -0.354   3.852   1.671  0.0009 -0.3080 -0.2173
   44MOL0     H 5770  -0.096   3.887   1.590 -2.3055  0.7787  1.2383
   44MOL0     H 5771   0.124   3.984   1.576  1.3926 -0.4691 -1.2999
   44MOL0     H 5772   0.213   4.609   1.320  0.2004 -1.4636 -0.2173
   44MOL0     H 5773   0.408   4.730   1.263 -2.2393  0.3973 -0.0958
   44MOL0     H 5774   0.608   4.721   1.411 -1.0298 -4.4794 -1.9298
   44MOL0     H 5775   0.679   4.830   1.297 -1.9991  0.2219  1.6747
   44MOL0     H 5776   0.834   4.619   1.461  0.7055  1.5628  0.8730
   44MOL0     H 5777   0.846   4.781   1.476  1.2109 -4.0604  3.2681
   44MOL0     H 5778   0.953   4.775   1.245 -1.0281 -1.1337 -2.3643
   44MOL0     H 5779   0.909   4.603   1.222  0.4719 -1.3038  0.0406
   44MOL0     H 5780   1.100   4.714   1.432  1.4465 -0.0979 -1.2919
   44MOL0     H 5781   1.070   4.539   1.402 -2.2144  0.2428  0.9141
   44MOL0     H 5782   1.162   4.741   1.195 -2.1164 -1.1028 -2.2337
   44MOL0     H 5783   1.143   4.562   1.169 -3.5656  0.0328  0.7869
   44MOL0     H 5784   1.365   4.688   1.349  0.2948 -2.2624  1.1992
   44MOL0     H 5785   1.390   4.624   1.189  1.3758 -2.5396  1.1175
   44MOL0     H 5786   1.266   4.446   1.421  0.1752  0.1881  0.7263
   44MOL0     H 5787   1.331   4.405   1.256  2.1068 -0.7184  0.2814
   44MOL0     H 5788   1.482   4.363   1.456  0.6471  1.3909  4.2272
   44MOL0     H 5789   1.470   4.528   1.496 -1.7031  1.2730 -1.9223
   44MOL0     H 5790   0.638   4.365   1.298  0.2018 -0.9415  0.7709
   44MOL0     H 5791   0.446   4.256   1.380  2.5034  0.3320 -2.7293
   44MOL0     H 5792  -0.059   4.356   1.442  0.8221  0.4280  1.2362
   44MOL0     H 5793  -0.278   4.242   1.452  0.3541 -0.6210  1.0528
   44MOL0     H 5794   0.171   3.333   0.848  0.6648 -0.1237 -1.1071
   44MOL0     H 5795   0.385   3.384   0.879 -0.6025  1.3743  0.9908
   44MOL0     H 5796   0.774   3.380   1.004 -1.2431 -1.1318  0.1765
   44MOL0     H 5797   1.014   3.452   1.042 -1.6091  2.0995 -0.0053
   44MOL0     H 5798   1.327   3.375   1.298 -0.7075  0.3211 -1.7825
   44MOL0     H 5799   1.198   3.268   1.365 -1.4247 -0.4707 -1.9190
   44MOL0     H 5800   1.196   3.568   1.390  0.3274  2.0075  3.0399
   44MOL0     H 5801   1.119   3.450   1.502 -0.2151  0.8645  0.9105
   44MOL0     H 5802   1.401   3.374   1.506  0.5150  0.1216  2.3330
   44MOL0     H 5803   1.320   3.476   1.633 -0.1019 -0.4545  0.1227
   44MOL0     H 5804   1.463   3.589   1.386 -3.8866  2.1237 -0.8175
   44MOL0     H 5805   1.404   3.678   1.517 -1.6043  0.4368 -1.3949
   44MOL0     H 5806   1.749   3.564   1.686 -0.3369 -0.2696  1.6480
   44MOL0     H 5807   1.012   3.224   1.411  1.3160 -1.3186 -1.7050
   44MOL0     H 5808   0.787   3.130   1.347 -3.2454  0.1714 -1.8429
   45MOL0     O 5809  10.569   0.437   7.485 -0.0886  0.1439  0.3001
   45MOL0     C 5810  10.581   0.428   7.362 -0.4394  0.4678  0.7346
   45MOL0     O 5811  10.688   0.464   7.295  0.4729  0.0268  1.0329
   45MOL0     C 5812  10.816   0.478   7.349 -0.1165 -0.4754 -0.2813
   45MOL0     C 5813  10.910   0.517   7.260 -0.8866  0.1700 -0.2853
   45MOL0     C 5814  11.039   0.547   7.299  0.5146  0.7782 -0.0784
   45MOL0     C 5815  11.087   0.543   7.429  0.0103  0.5998  0.4469
   45MOL0     O 5816  11.214   0.560   7.463 -0.8891  0.8020  0.1180
   45MOL0     C 5817  11.259   0.524   7.595  0.0551  0.6477  0.0371
   45MOL0     C 5818  11.412   0.494   7.596 -0.2329 -1.2673 -0.6408
   45MOL0     C 5819  11.446   0.359   7.562  0.4788 -0.7222 -0.6700
   45MOL0     C 5820  11.597   0.355   7.549 -0.1556  0.0510 -0.9593
   45MOL0     C 5821  11.633   0.214   7.512 -0.0905  0.6418 -0.3336
   45MOL0     C 5822  11.766   0.199   7.464 -0.0433  0.3048 -0.6098
   45MOL0     C 5823  11.825   0.065   7.503 -0.4342 -0.0982  0.4464
   45MOL0     C 5824  11.751  -0.056   7.450  0.2680  0.6792  0.0339
   45MOL0     N 5825  11.636  -0.099   7.537  0.2465  1.0108  0.4562
   45MOL0     C 5826  11.648  -0.149   7.665  0.5026 -0.7566  0.2194
   45MOL0     C 5827  11.522  -0.167   7.698  0.2583 -0.2795  0.3480
   45MOL0     C 5828  11.472  -0.236   7.825 -0.0456 -0.7453 -0.7069
   45MOL0     C 5829  11.391  -0.355   7.776  0.0547  0.8926 -0.3040
   45MOL0     C 5830  11.325  -0.417   7.900  1.3646  0.3887  0.7969
   45MOL0     C 5831  11.198  -0.511   7.870  0.3521  0.1459  0.6055
   45MOL0     O 5832  11.155  -0.565   7.992  0.5239  0.0287  0.2350
   45MOL0     C 5833  11.055  -0.656   8.004 -0.1260  0.6186  2.0060
   45MOL0     C 5834  10.965  -0.692   7.906  0.3296  0.6760 -0.1235
   45MOL0     C 5835  10.862  -0.791   7.919 -0.3835 -1.0908  0.8606
   45MOL0     C 5836  10.857  -0.865   8.034 -0.2292  0.4292 -0.3625
   45MOL0     C 5837  10.762  -0.979   8.060 -0.7435  0.3172 -0.1072
   45MOL0     O 5838  10.757  -1.046   8.182 -0.0068 -0.3064 -0.2336
   45MOL0     C 5839  10.654  -1.134   8.201  0.5621 -0.0809  0.6660
   45MOL0     C 5840  10.536  -1.096   8.266  0.1212  0.0423  0.2943
   45MOL0     C 5841  10.430  -1.178   8.290  0.1889  0.1219 -0.0003
   45MOL0     C 5842  10.428  -1.309   8.245  0.2838 -0.5738  0.6694
   45MOL0     O 5843  10.315  -1.378   8.294 -0.2375 -0.1040  0.8507
   45MOL0     C 5844  10.316  -1.516   8.242 -0.2742 -0.3136  0.2173
   45MOL0     C 5845  10.182  -1.571   8.276  0.6912  0.7081  0.1486
   45MOL0     C 5846  10.150  -1.546   8.424 -0.4002  0.1831  0.5924
   45MOL0     C 5847  10.003  -1.557   8.448  0.4642  0.5370  0.1876
   45MOL0     C 5848   9.972  -1.520   8.587 -1.2630 -0.7255 -1.1198
   45MOL0     C 5849   9.827  -1.516   8.631  0.6884  0.2874 -0.7757
   45MOL0     C 5850   9.776  -1.664   8.646 -0.2279  0.2187  1.0432
   45MOL0     C 5851   9.628  -1.658   8.655 -1.1638 -0.2194  0.3587
   45MOL0    Cl 5852   9.562  -1.610   8.814 -0.7619  0.5499 -0.3972
   45MOL0     C 5853  10.546  -1.355   8.177  0.0993  0.1608 -0.0812
   45MOL0     C 5854  10.661  -1.275   8.172 -0.2896 -0.3399  0.0126
   45MOL0     O 5855  10.691  -1.004   7.966  0.5979  0.2082 -0.3949
   45MOL0     C 5856  10.954  -0.840   8.138  0.8056 -0.6078  0.2429
   45MOL0     C 5857  11.040  -0.736   8.119  0.4001 -0.3606 -0.9112
   45MOL0     N 5858  11.435  -0.139   7.592  0.6734  0.3766  0.4214
   45MOL0     N 5859  11.503  -0.091   7.495  0.4307  0.8120 -0.3488
   45MOL0     C 5860  10.984   0.519   7.525 -0.8406  0.1359  0.7271
   45MOL0     C 5861  10.859   0.481   7.483  0.2739  0.1084 -0.2911
   45MOL0     C 5862  10.472   0.367   7.273 -0.3330 -0.7152  0.0198
   45MOL0     C 5863  10.467   0.400   7.140 -0.1571  0.8187  0.1832
   45MOL0     C 5864  10.371   0.357   7.055  0.1757  0.5101 -0.2439
   45MOL0     C 5865  10.272   0.268   7.103  0.2158  0.1641  0.5744
   45MOL0     O 5866  10.189   0.207   7.016 -0.5906  0.1881 -0.5177
   45MOL0     C 5867  10.075   0.296   6.990  0.0154  0.4638 -0.7799
   45MOL0     C 5868   9.948   0.240   7.052  1.0388 -0.3795  0.2890
   45MOL0     C 5869   9.935   0.080   7.022 -0.4846 -0.6065 -0.4990
   45MOL0     C 5870   9.790   0.026   7.011 -0.7022 -0.6570  0.1667
   45MOL0     C 5871   9.700   0.101   6.927 -0.1556 -0.9386  0.6623
   45MOL0     C 5872   9.619   0.186   6.888  0.1658  0.8250 -0.5162
   45MOL0     C 5873  10.280   0.229   7.243  0.5603 -0.0316 -0.2381
   45MOL0     C 5874  10.373   0.282   7.329  0.0471  0.3988  0.2742
   45MOL0     H 5875  10.882   0.525   7.155 -0.8479  0.4476 -0.2772
   45MOL0     H 5876  11.118   0.563   7.226  3.1961 -1.1247  2.1627
   45MOL0     H 5877  11.199   0.437   7.625 -0.1360  0.6791 -0.2437
   45MOL0     H 5878  11.242   0.600   7.671  1.7539  0.2217  0.8807
   45MOL0     H 5879  11.451   0.517   7.695  3.5371 -3.2875 -1.4825
   45MOL0     H 5880  11.447   0.566   7.521  1.2159 -1.4014 -0.1256
   45MOL0     H 5881  11.409   0.335   7.462 -2.0063 -4.5429  0.9092
   45MOL0     H 5882  11.405   0.294   7.640 -1.5780  1.4772  0.2221
   45MOL0     H 5883  11.628   0.418   7.465  0.9376  1.6327  0.5563
   45MOL0     H 5884  11.649   0.382   7.641  1.6631 -1.9919 -1.3138
   45MOL0     H 5885  11.569   0.180   7.430  2.0774  2.7171 -3.0609
   45MOL0     H 5886  11.595   0.150   7.592 -0.0847 -1.0669 -1.6414
   45MOL0     H 5887  11.829   0.279   7.504 -2.6648  1.6611  1.0192
   45MOL0     H 5888  11.766   0.208   7.355 -0.3156 -1.8571 -0.8399
   45MOL0     H 5889  11.930   0.069   7.472 -0.6241  1.4473 -0.0657
   45MOL0     H 5890  11.830   0.067   7.612  3.7669 -1.5335  0.4573
   45MOL0     H 5891  11.814  -0.144   7.446  2.0443  1.5703  3.7845
   45MOL0     H 5892  11.717  -0.022   7.351 -1.5848  2.3455  1.1587
   45MOL0     H 5893  11.742  -0.174   7.713  1.2163  1.5608  0.1452
   45MOL0     H 5894  11.419  -0.157   7.878 -2.3906 -2.3290 -0.5633
   45MOL0     H 5895  11.547  -0.251   7.903 -1.2085  0.2045  0.6381
   45MOL0     H 5896  11.452  -0.426   7.720  0.5389  1.6440 -0.7451
   45MOL0     H 5897  11.313  -0.326   7.705 -1.7318 -0.5763  0.9711
   45MOL0     H 5898  11.401  -0.472   7.956 -0.3209 -2.2796  0.6468
   45MOL0     H 5899  11.280  -0.337   7.960  2.3703  0.8519  0.9648
   45MOL0     H 5900  11.216  -0.593   7.801  2.6489  0.2054  1.0539
   45MOL0     H 5901  11.127  -0.449   7.814  2.4262  0.9241 -1.3059
   45MOL0     H 5902  10.973  -0.636   7.813 -3.4745  2.4530  0.4705
   45MOL0     H 5903  10.800  -0.812   7.833  1.5737 -1.4686 -0.5269
   45MOL0     H 5904  10.530  -0.992   8.298 -2.9766 -0.6256  2.3495
   45MOL0     H 5905  10.350  -1.143   8.356  0.7655 -0.6437  1.1307
   45MOL0     H 5906  10.395  -1.575   8.288 -1.1153  0.3903  2.7523
   45MOL0     H 5907  10.323  -1.515   8.133 -1.7115  1.1030  0.0939
   45MOL0     H 5908  10.186  -1.677   8.251 -1.6967  0.6681 -0.3031
   45MOL0     H 5909  10.108  -1.519   8.213  0.5357  1.8845  1.2721
   45MOL0     H 5910  10.181  -1.450   8.466 -1.9919  0.9425  0.1025
   45MOL0     H 5911  10.197  -1.621   8.487 -0.9791  1.8998  3.2253
   45MOL0     H 5912   9.943  -1.490   8.386 -1.1504 -0.5701  0.5065
   45MOL0     H 5913   9.970  -1.659   8.427 -0.8338  0.3895  2.5871
   45MOL0     H 5914  10.028  -1.427   8.604 -1.9433 -0.7176  1.4851
   45MOL0     H 5915  10.020  -1.601   8.642 -0.0039  0.8353  0.2031
   45MOL0     H 5916   9.772  -1.468   8.549  2.0795 -0.0029 -1.9307
   45MOL0     H 5917   9.815  -1.459   8.724 -0.2478 -0.5707 -0.3601
   45MOL0     H 5918   9.814  -1.727   8.565  1.5607  1.4983  0.8183
   45MOL0     H 5919   9.821  -1.710   8.735  4.8894  0.2067 -1.2262
   45MOL0     H 5920   9.581  -1.753   8.625  1.7163 -1.4906 -0.4649
   45MOL0     H 5921   9.589  -1.585   8.585 -1.5077 -1.8225 -1.2018
   45MOL0     H 5922  10.543  -1.462   8.157 -3.3813  0.1364 -0.0961
   45MOL0     H 5923  10.745  -1.328   8.129 -1.1424 -1.1889 -0.6531
   45MOL0     H 5924  10.945  -0.887   8.235  3.7002 -0.5102  0.6457
   45MOL0     H 5925  11.107  -0.719   8.203 -2.3556 -2.1820  1.9241
   45MOL0     H 5926  11.004   0.531   7.631  2.2762 -1.1278  0.4046
   45MOL0     H 5927  10.785   0.478   7.563 -0.4169  4.1885 -0.6004
   45MOL0     H 5928  10.538   0.476   7.108  0.2137 -0.9163 -3.5875
   45MOL0     H 5929  10.372   0.396   6.954  1.0223  1.4259  0.1067
   45MOL0     H 5930  10.066   0.303   6.881  0.4665 -2.6114 -1.0947
   45MOL0     H 5931  10.081   0.396   7.033 -2.8897 -0.0813  1.2175
   45MOL0     H 5932   9.936   0.261   7.159  0.7677 -1.8768  0.5795
   45MOL0     H 5933   9.868   0.293   6.999  0.2999 -2.2380 -0.5603
   45MOL0     H 5934   9.979   0.026   7.105 -0.9462  1.0130  0.8662
   45MOL0     H 5935   9.985   0.063   6.927 -1.4325  0.2447 -1.1802
   45MOL0     H 5936   9.791  -0.073   6.964  0.1251 -0.3532 -0.5009
   45MOL0     H 5937   9.739   0.023   7.108 -1.2475  2.3097  0.0830
   45MOL0     H 5938   9.547   0.258   6.857  0.1957  0.1412 -2.2722
   45MOL0     H 5939  10.202   0.162   7.280  3.1188 -2.4730  1.0884
   45MOL0     H 5940  10.379   0.253   7.433 -2.6513 -1.6781 -0.0187
   46MOL0     O 5941   8.108   7.906   7.495  0.3709 -0.2001 -0.9463
   46MOL0     C 5942   8.084   7.812   7.422  0.4642 -1.3046  0.5582
   46MOL0     O 5943   8.175   7.732   7.359  0.5919 -1.1816 -0.8784
   46MOL0     C 5944   8.308   7.768   7.356 -0.3996  0.1745 -0.3858
   46MOL0     C 5945   8.386   7.689   7.442  0.5715 -0.7550  0.2680
   46MOL0     C 5946   8.526   7.697   7.420 -0.4765  0.7161  0.2767
   46MOL0     C 5947   8.592   7.777   7.324  0.3252  0.0417 -0.5523
   46MOL0     O 5948   8.724   7.765   7.310 -0.1779 -0.4396 -0.3470
   46MOL0     C 5949   8.804   7.879   7.242 -0.1467 -0.5186  0.0613
   46MOL0     C 5950   8.922   7.911   7.337  0.0620  0.5975  0.0959
   46MOL0     C 5951   9.026   8.008   7.277  0.3266  0.7185  0.0977
   46MOL0     C 5952   9.142   8.033   7.376 -1.3795 -0.2398  0.5094
   46MOL0     C 5953   9.251   8.103   7.296  0.8277 -0.0864  0.4189
   46MOL0     C 5954   9.214   8.227   7.224 -0.0001 -0.2643  1.1116
   46MOL0     C 5955   9.336   8.305   7.179  0.2400  0.6813 -0.2783
   46MOL0     C 5956   9.401   8.380   7.300 -0.0571 -1.0510  0.8555
   46MOL0     N 5957   9.507   8.474   7.249  0.2564 -0.5929  0.0910
   46MOL0     C 5958   9.483   8.587   7.185  0.3319  0.0202 -0.0942
   46MOL0     C 5959   9.604   8.637   7.155 -0.0117 -1.4693  1.1531
   46MOL0     C 5960   9.633   8.767   7.088  0.6257  0.8268  0.0880
   46MOL0     C 5961   9.609   8.870   7.191 -0.7591  0.4360  0.2420
   46MOL0     C 5962   9.621   9.017   7.150 -1.5138 -0.8865 -0.3411
   46MOL0     C 5963   9.762   9.063   7.145 -0.3182  0.4922  0.4542
   46MOL0     O 5964   9.833   9.032   7.022  0.4214 -0.5670 -0.5761
   46MOL0     C 5965   9.969   9.020   7.030 -0.4248 -0.6581 -0.4496
   46MOL0     C 5966  10.044   9.108   7.108  0.7272  0.2892  0.1174
   46MOL0     C 5967  10.180   9.083   7.111  0.1400  0.4649 -0.2485
   46MOL0     C 5968  10.243   8.970   7.051 -0.6135  0.3447 -0.2807
   46MOL0     C 5969  10.391   8.943   7.078  0.7007  0.4093 -0.4861
   46MOL0     O 5970  10.447   8.832   7.041  0.0568 -0.0173 -0.4527
   46MOL0     C 5971  10.563   8.801   7.097  0.0113 -0.3883 -0.3895
   46MOL0     C 5972  10.685   8.804   7.037 -0.1400 -0.1711  0.8151
   46MOL0     C 5973  10.805   8.782   7.107  0.2576 -0.2174  0.3057
   46MOL0     C 5974  10.802   8.751   7.238 -0.4527  0.1063  0.1243
   46MOL0     O 5975  10.912   8.736   7.310  0.2628  0.4530 -0.0669
   46MOL0     C 5976  10.963   8.601   7.301 -0.7015 -0.9856 -0.2289
   46MOL0     C 5977  11.098   8.595   7.374  0.4986  0.2890  0.5734
   46MOL0     C 5978  11.204   8.658   7.285 -0.2322 -0.6959  0.5200
   46MOL0     C 5979  11.339   8.677   7.357 -0.2318 -0.3025 -0.1240
   46MOL0     C 5980  11.452   8.722   7.261 -0.8278 -0.4978 -0.0791
   46MOL0     C 5981  11.590   8.717   7.336  0.1134 -0.4676  0.3086
   46MOL0     C 5982  11.650   8.578   7.332  0.1842  0.6730 -0.1967
   46MOL0     C 5983  11.756   8.536   7.423  0.5689 -0.7520 -0.9606
   46MOL0    Cl 5984  11.857   8.685   7.477  0.3719 -0.0485  0.4085
   46MOL0     C 5985  10.680   8.740   7.308  1.1679 -0.9023  0.7267
   46MOL0     C 5986  10.559   8.760   7.233  0.4761  0.1113  0.2765
   46MOL0     O 5987  10.450   9.036   7.136 -1.1827  0.5570  0.4533
   46MOL0     C 5988  10.165   8.882   6.974 -0.1138 -0.8457  0.2743
   46MOL0     C 5989  10.030   8.925   6.958 -0.2909  0.3555  0.8925
   46MOL0     N 5990   9.701   8.562   7.221 -0.2581 -0.1989 -0.4527
   46MOL0     N 5991   9.636   8.467   7.276  1.1430 -0.3610 -0.1637
   46MOL0     C 5992   8.502   7.841   7.239  0.3018  0.2072  0.7522
   46MOL0     C 5993   8.364   7.847   7.253  0.5615 -0.1912 -0.4049
   46MOL0     C 5994   7.944   7.785   7.392  0.2945  0.1577  0.5221
   46MOL0     C 5995   7.911   7.673   7.316 -0.4137  0.1613 -0.1603
   46MOL0     C 5996   7.778   7.637   7.293  0.0537 -0.3589 -0.5524
   46MOL0     C 5997   7.676   7.709   7.345 -0.0777  0.1571  0.0369
   46MOL0     O 5998   7.553   7.662   7.321 -0.1219  0.6045 -0.7372
   46MOL0     C 5999   7.469   7.764   7.261  0.4767  0.6465 -0.4026
   46MOL0     C 6000   7.365   7.700   7.164  0.4493  0.4601  0.1275
   46MOL0     C 6001   7.264   7.628   7.254  0.4601  0.4543  0.3821
   46MOL0     C 6002   7.162   7.551   7.162 -1.0107 -0.3735 -0.3123
   46MOL0     C 6003   7.214   7.419   7.119  0.1663  0.5160 -0.5567
   46MOL0     C 6004   7.253   7.312   7.079  0.3340 -0.2591  0.0639
   46MOL0     C 6005   7.708   7.823   7.422 -0.7167  0.2182  0.1017
   46MOL0     C 6006   7.836   7.859   7.445 -1.0120 -0.1343  0.2551
   46MOL0     H 6007   8.337   7.624   7.513  2.0624  0.1314  2.2041
   46MOL0     H 6008   8.579   7.629   7.485  0.9763 -0.9079 -2.4379
   46MOL0     H 6009   8.754   7.975   7.232  0.6206 -0.1781 -0.6050
   46MOL0     H 6010   8.840   7.854   7.141  4.5456  3.0090  0.5322
   46MOL0     H 6011   8.959   7.816   7.375 -4.5837 -1.4663  0.1349
   46MOL0     H 6012   8.889   7.967   7.425  0.3554 -0.2062  0.7233
   46MOL0     H 6013   8.977   8.103   7.254  0.9154  0.9209 -0.3642
   46MOL0     H 6014   9.067   7.957   7.190 -2.2702  2.0859 -2.0581
   46MOL0     H 6015   9.113   8.100   7.457 -1.2846 -2.5289  2.5551
   46MOL0     H 6016   9.194   7.954   7.430  2.3416  1.2548 -0.5510
   46MOL0     H 6017   9.288   8.035   7.219 -0.9793 -1.2553  0.5103
   46MOL0     H 6018   9.340   8.129   7.353  0.8835  2.1953 -0.6326
   46MOL0     H 6019   9.156   8.298   7.283 -2.6088 -0.8565 -0.5665
   46MOL0     H 6020   9.150   8.201   7.139  0.5607 -0.7597  0.8314
   46MOL0     H 6021   9.400   8.229   7.132 -2.5547 -1.3542 -1.0741
   46MOL0     H 6022   9.317   8.377   7.099 -0.2821  0.3779 -0.4330
   46MOL0     H 6023   9.446   8.304   7.365  1.4840  0.6568  1.8599
   46MOL0     H 6024   9.314   8.425   7.349 -0.4664 -2.5526  1.5641
   46MOL0     H 6025   9.384   8.627   7.163 -0.0001  0.0649  1.3657
   46MOL0     H 6026   9.571   8.773   6.998 -0.5359  2.4662  0.9572
   46MOL0     H 6027   9.739   8.760   7.062  0.8626 -0.1364  1.2289
   46MOL0     H 6028   9.680   8.843   7.269 -1.7817  0.0122  1.0444
   46MOL0     H 6029   9.510   8.863   7.237 -1.1115  2.6884 -0.0441
   46MOL0     H 6030   9.578   9.040   7.052 -1.8075  0.4017  0.0664
   46MOL0     H 6031   9.573   9.083   7.222 -2.8503 -1.5564 -0.6023
   46MOL0     H 6032   9.822   9.021   7.227  1.3553 -0.5016 -1.2079
   46MOL0     H 6033   9.758   9.170   7.169  1.8639  0.2859  2.1109
   46MOL0     H 6034  10.009   9.196   7.162  2.0019 -0.4675  2.3135
   46MOL0     H 6035  10.232   9.156   7.172  0.3975  1.0527 -1.1528
   46MOL0     H 6036  10.690   8.825   6.931 -1.7211  1.5104  1.0210
   46MOL0     H 6037  10.904   8.799   7.066  0.7785 -1.1203  1.1407
   46MOL0     H 6038  10.966   8.564   7.198  2.8695 -0.6700 -0.3399
   46MOL0     H 6039  10.893   8.535   7.353 -0.0497 -0.6911  1.0627
   46MOL0     H 6040  11.109   8.486   7.383  0.6207  0.1547 -0.8535
   46MOL0     H 6041  11.091   8.645   7.471  0.8131  2.9656 -0.6945
   46MOL0     H 6042  11.167   8.758   7.261 -1.1625 -0.5980  2.2142
   46MOL0     H 6043  11.217   8.594   7.196 -2.8034  2.1704 -2.1526
   46MOL0     H 6044  11.327   8.756   7.432  3.2294 -1.4733  1.8739
   46MOL0     H 6045  11.379   8.591   7.410  2.2546  1.7320  1.5605
   46MOL0     H 6046  11.427   8.819   7.215  2.2968 -1.1385 -3.5724
   46MOL0     H 6047  11.457   8.641   7.188  0.6811 -2.0709  1.6583
   46MOL0     H 6048  11.565   8.760   7.434 -1.5890  0.7452 -0.6081
   46MOL0     H 6049  11.660   8.781   7.283  1.1266 -0.9564  1.0232
   46MOL0     H 6050  11.577   8.497   7.334  1.5378 -0.6175 -1.1217
   46MOL0     H 6051  11.698   8.578   7.234  2.2848 -2.1315  0.7222
   46MOL0     H 6052  11.827   8.466   7.377  0.4377 -1.0431 -0.7263
   46MOL0     H 6053  11.716   8.497   7.518 -0.0099 -0.4273 -1.0706
   46MOL0     H 6054  10.688   8.713   7.413  0.8467 -1.7899  0.5267
   46MOL0     H 6055  10.465   8.758   7.288  1.0669 -0.2484  1.2844
   46MOL0     H 6056  10.209   8.797   6.923 -1.4732 -0.6206 -1.3608
   46MOL0     H 6057   9.972   8.856   6.897 -0.3336 -1.3551  2.7477
   46MOL0     H 6058   8.536   7.884   7.145  1.2661  1.4229  1.6138
   46MOL0     H 6059   8.299   7.897   7.182  0.0705  0.6919  0.6321
   46MOL0     H 6060   7.992   7.616   7.272 -0.7752 -0.4361 -0.0563
   46MOL0     H 6061   7.753   7.558   7.223  1.1061 -1.1000 -0.1288
   46MOL0     H 6062   7.530   7.839   7.210  0.0402  0.2542 -1.5378
   46MOL0     H 6063   7.404   7.812   7.334 -1.6309 -1.2682 -0.8903
   46MOL0     H 6064   7.311   7.774   7.104 -1.2242 -0.6224  0.2293
   46MOL0     H 6065   7.418   7.640   7.089 -0.0277  0.6578 -0.3711
   46MOL0     H 6066   7.224   7.710   7.314  1.2842  1.7722 -0.7853
   46MOL0     H 6067   7.307   7.557   7.324  1.7070  1.9999  1.2629
   46MOL0     H 6068   7.072   7.542   7.223 -1.2092  2.2729 -0.1020
   46MOL0     H 6069   7.138   7.612   7.074 -0.1759  0.4726  0.0137
   46MOL0     H 6070   7.287   7.216   7.046  0.4104 -0.1455 -0.1990
   46MOL0     H 6071   7.634   7.891   7.463 -0.9179 -0.7167  1.3399
   46MOL0     H 6072   7.858   7.949   7.502 -2.7157  1.3002 -1.2308
   47MOL0     O 6073   9.146   9.695  10.575 -0.5843 -0.2428  0.3804
   47MOL0     C 6074   9.214   9.638  10.656 -0.4154 -0.0295 -0.4089
   47MOL0     O 6075   9.161   9.574  10.764  0.0866 -0.6888  0.2359
   47MOL0     C 6076   9.038   9.613  10.811  0.7427  1.1697  0.9988
   47MOL0     C 6077   9.031   9.744  10.872 -0.5242  0.0173 -0.8286
   47MOL0     C 6078   8.927   9.780  10.951  0.9105 -0.2738 -0.2787
   47MOL0     C 6079   8.813   9.699  10.949  0.2174 -1.6427  0.5077
   47MOL0     O 6080   8.693   9.731  11.002  0.1997 -0.1707 -0.4390
   47MOL0     C 6081   8.690   9.846  11.082 -0.1989 -0.9010 -0.2815
   47MOL0     C 6082   8.569   9.861  11.165 -0.9807  0.8810  1.0262
   47MOL0     C 6083   8.587   9.973  11.266  0.0289  0.2748  0.0242
   47MOL0     C 6084   8.456  10.015  11.347 -1.0683 -0.2667  0.4489
   47MOL0     C 6085   8.483  10.161  11.391 -0.6330 -0.3583  0.2066
   47MOL0     C 6086   8.364  10.224  11.471  0.2337  1.6992 -0.1000
   47MOL0     C 6087   8.364  10.378  11.470  0.6766 -0.1577 -0.2817
   47MOL0     C 6088   8.487  10.440  11.529  0.1726 -0.7421  0.1479
   47MOL0     N 6089   8.554  10.376  11.639  0.4047 -0.4704  0.7923
   47MOL0     C 6090   8.503  10.366  11.756  0.4688  0.2916 -0.1763
   47MOL0     C 6091   8.601  10.390  11.850  0.3342  0.5884 -0.3793
   47MOL0     C 6092   8.577  10.409  11.994  0.2065  0.0685 -0.4339
   47MOL0     C 6093   8.526  10.265  12.046  0.2637  0.2967 -0.8598
   47MOL0     C 6094   8.446  10.299  12.179  0.1925 -1.0912 -0.6737
   47MOL0     C 6095   8.401  10.175  12.252  0.0405  0.1090 -0.0264
   47MOL0     O 6096   8.325  10.206  12.361 -0.6414  0.0701  0.2950
   47MOL0     C 6097   8.320  10.105  12.453 -0.1583 -0.7790 -1.1048
   47MOL0     C 6098   8.359   9.969  12.447 -0.3464  0.2077  0.8053
   47MOL0     C 6099   8.337   9.879  12.550 -0.2777 -0.5190 -0.9094
   47MOL0     C 6100   8.263   9.911  12.667 -0.4746 -1.3095 -0.0374
   47MOL0     C 6101   8.225   9.820  12.772  0.2467 -0.1150 -0.0558
   47MOL0     O 6102   8.155   9.875  12.875  0.4513 -0.8786 -1.1813
   47MOL0     C 6103   8.103   9.794  12.983 -0.0981  0.2117  0.2050
   47MOL0     C 6104   8.099   9.847  13.106 -0.0169  0.0583 -0.3172
   47MOL0     C 6105   8.042   9.772  13.215 -0.7698  0.6044  1.1895
   47MOL0     C 6106   7.984   9.644  13.188 -0.4108 -0.4810  0.0811
   47MOL0     O 6107   7.924   9.580  13.290 -0.2080 -0.0218 -0.1931
   47MOL0     C 6108   7.886   9.444  13.278  0.0634 -0.8186  0.9012
   47MOL0     C 6109   7.842   9.400  13.418 -0.2599 -0.2294 -0.4733
   47MOL0     C 6110   7.694   9.417  13.428  0.2889 -0.0575 -0.9564
   47MOL0     C 6111   7.650   9.374  13.570 -0.7515 -0.7363  0.0555
   47MOL0     C 6112   7.506   9.326  13.570  0.2208 -0.0010 -0.8500
   47MOL0     C 6113   7.406   9.432  13.558  0.1474 -0.0731  0.9350
   47MOL0     C 6114   7.259   9.377  13.551 -0.3494 -0.5350 -0.0446
   47MOL0     C 6115   7.214   9.326  13.409 -0.5764 -0.5666 -0.2204
   47MOL0    Cl 6116   7.077   9.215  13.437 -0.4347  0.0449  0.0442
   47MOL0     C 6117   7.993   9.601  13.056 -0.3821  0.0460  0.0190
   47MOL0     C 6118   8.046   9.667  12.955 -0.5148  0.3899  0.8038
   47MOL0     O 6119   8.269   9.702  12.771 -0.0451 -0.7832 -0.2348
   47MOL0     C 6120   8.227  10.050  12.675  0.3120 -0.4280  0.4746
   47MOL0     C 6121   8.258  10.143  12.570  0.4919  0.9935 -0.2271
   47MOL0     N 6122   8.713  10.412  11.779  0.2354  0.2200 -0.3438
   47MOL0     N 6123   8.690  10.392  11.657 -0.2900 -0.0283  0.8451
   47MOL0     C 6124   8.809   9.586  10.876  0.5746 -0.2476  0.3633
   47MOL0     C 6125   8.922   9.537  10.803 -1.1925  0.5330  0.4979
   47MOL0     C 6126   9.361   9.625  10.626  0.0610 -0.0973 -0.7265
   47MOL0     C 6127   9.449   9.536  10.700 -0.0402  0.3646  0.3278
   47MOL0     C 6128   9.584   9.527  10.679 -0.1082 -0.0766  0.4615
   47MOL0     C 6129   9.645   9.597  10.574  1.4899 -0.2585  0.0322
   47MOL0     O 6130   9.780   9.595  10.557 -0.6718  0.5308 -0.5789
   47MOL0     C 6131   9.831   9.550  10.432  0.9311  0.4745 -0.6263
   47MOL0     C 6132   9.903   9.671  10.365  0.8648 -0.3754  0.2175
   47MOL0     C 6133   9.981   9.761  10.458  0.7215  0.5450  0.7734
   47MOL0     C 6134  10.057   9.880  10.401 -0.6384  0.1677  0.3370
   47MOL0     C 6135  10.171   9.851  10.318  0.1133  0.6155 -0.2703
   47MOL0     C 6136  10.265   9.805  10.254 -0.9013  0.1963 -0.9910
   47MOL0     C 6137   9.562   9.685  10.505 -0.6467  0.1925 -0.3693
   47MOL0     C 6138   9.428   9.701  10.529  0.5560 -0.6900 -0.0988
   47MOL0     H 6139   9.110   9.817  10.862 -1.0391  0.4317 -2.1180
   47MOL0     H 6140   8.920   9.874  11.003  0.1505 -1.2418  1.4470
   47MOL0     H 6141   8.706   9.931  11.016  1.4480 -2.1637 -1.5955
   47MOL0     H 6142   8.776   9.851  11.150  3.8972 -1.2612 -4.9018
   47MOL0     H 6143   8.544   9.770  11.219 -0.9343 -0.8020 -1.6296
   47MOL0     H 6144   8.482   9.886  11.103  0.9016  0.7131 -1.8706
   47MOL0     H 6145   8.608  10.060  11.203  2.3906 -0.2792 -0.0468
   47MOL0     H 6146   8.677   9.953  11.325  0.4645 -1.9132 -1.2633
   47MOL0     H 6147   8.362  10.009  11.292 -1.2176  2.4795  0.2579
   47MOL0     H 6148   8.450   9.957  11.440  2.3413 -1.9635 -0.2241
   47MOL0     H 6149   8.491  10.223  11.301 -0.1111  0.1636  0.6023
   47MOL0     H 6150   8.573  10.161  11.453 -0.4660 -4.4587  0.2501
   47MOL0     H 6151   8.392  10.183  11.569 -0.9665 -2.5790 -1.3293
   47MOL0     H 6152   8.269  10.178  11.444  0.7296 -1.5789  2.9982
   47MOL0     H 6153   8.366  10.409  11.365 -2.6143  1.7711  0.0823
   47MOL0     H 6154   8.267  10.418  11.501  0.0648 -0.2035 -2.0252
   47MOL0     H 6155   8.472  10.545  11.555  4.0119  0.1410 -0.6425
   47MOL0     H 6156   8.573  10.435  11.462  1.8474  3.1612  1.7085
   47MOL0     H 6157   8.398  10.351  11.779 -0.4649  2.9352 -2.2593
   47MOL0     H 6158   8.491  10.477  11.999 -0.2410 -0.5528  0.5894
   47MOL0     H 6159   8.659  10.453  12.052 -0.0019  1.6644 -1.2831
   47MOL0     H 6160   8.617  10.212  12.075  0.2098  0.1915 -0.8810
   47MOL0     H 6161   8.472  10.207  11.970  1.1222 -0.7429 -0.7001
   47MOL0     H 6162   8.507  10.367  12.241  0.7430 -0.7761 -1.5461
   47MOL0     H 6163   8.356  10.355  12.154 -0.5746 -3.0569 -2.6849
   47MOL0     H 6164   8.486  10.128  12.302  0.6519  0.7570 -0.4510
   47MOL0     H 6165   8.353  10.104  12.184  1.7558 -1.0297 -0.0974
   47MOL0     H 6166   8.409   9.922  12.362  0.6195 -2.3181  2.6453
   47MOL0     H 6167   8.374   9.776  12.548 -1.2781 -0.9475  0.6915
   47MOL0     H 6168   8.144   9.945  13.118  2.7922 -1.0409 -1.1187
   47MOL0     H 6169   8.032   9.814  13.314  0.9903 -1.3895  2.2795
   47MOL0     H 6170   7.973   9.391  13.236 -0.9828 -0.8546 -1.3464
   47MOL0     H 6171   7.810   9.426  13.203 -0.8122  0.8237  1.3404
   47MOL0     H 6172   7.896   9.463  13.490  0.2525  1.6661 -2.4076
   47MOL0     H 6173   7.884   9.300  13.435 -0.8445 -0.6989 -1.7146
   47MOL0     H 6174   7.654   9.347  13.353 -2.6697  1.5283 -1.0290
   47MOL0     H 6175   7.650   9.514  13.405 -2.4625 -0.7337  0.9209
   47MOL0     H 6176   7.722   9.297  13.600  1.8795  1.0275 -1.2587
   47MOL0     H 6177   7.678   9.454  13.639 -1.7496 -0.7397  0.4720
   47MOL0     H 6178   7.487   9.272  13.663 -2.3148  2.2862  0.1125
   47MOL0     H 6179   7.502   9.252  13.490  0.1854  0.3357 -1.1610
   47MOL0     H 6180   7.429   9.489  13.467  2.6110 -2.8012 -0.2896
   47MOL0     H 6181   7.413   9.502  13.642 -2.6476  1.1554  0.2809
   47MOL0     H 6182   7.249   9.295  13.622 -0.6358 -0.1307  0.3926
   47MOL0     H 6183   7.185   9.452  13.583 -2.4725 -0.7049 -3.8658
   47MOL0     H 6184   7.292   9.267  13.361 -0.9679 -0.1401 -1.4148
   47MOL0     H 6185   7.192   9.414  13.348 -0.7464  0.9917  1.9417
   47MOL0     H 6186   7.938   9.512  13.028 -1.5711 -0.4711  3.6038
   47MOL0     H 6187   8.046   9.629  12.854 -0.1398  1.4472  0.3979
   47MOL0     H 6188   8.183  10.088  12.767  1.5233 -1.3236  1.4489
   47MOL0     H 6189   8.220  10.243  12.591 -1.1652  0.3803 -0.1551
   47MOL0     H 6190   8.713   9.539  10.861 -0.4632  2.5074 -2.6580
   47MOL0     H 6191   8.919   9.439  10.757 -3.4045  0.7451  0.0775
   47MOL0     H 6192   9.391   9.478  10.771  2.9228 -1.4902  1.4501
   47MOL0     H 6193   9.639   9.465  10.749  0.8406 -0.4449 -0.5814
   47MOL0     H 6194   9.751   9.514  10.367  1.4092  0.0522 -0.9817
   47MOL0     H 6195   9.899   9.468  10.457 -1.7369 -1.8261 -0.4232
   47MOL0     H 6196   9.967   9.629  10.286 -0.0013 -3.2629  0.9341
   47MOL0     H 6197   9.824   9.735  10.324  0.8510 -0.1855  0.5369
   47MOL0     H 6198  10.049   9.697  10.514 -2.9854 -2.3390  2.4158
   47MOL0     H 6199   9.911   9.804  10.531 -1.0155  0.3508 -0.7223
   47MOL0     H 6200   9.987   9.948  10.352  2.9001  3.7468 -0.2512
   47MOL0     H 6201  10.104   9.935  10.483  0.4183  0.5413 -0.4859
   47MOL0     H 6202  10.333   9.761  10.184 -0.3846 -2.0164  0.7832
   47MOL0     H 6203   9.603   9.731  10.415 -1.3834 -0.1836 -0.9145
   47MOL0     H 6204   9.373   9.765  10.460 -0.7770 -2.5824 -0.8689
   48MOL0     O 6205   5.305   8.690   6.180  0.3946  0.6923 -0.3444
   48MOL0     C 6206   5.249   8.656   6.281 -0.1055  0.8209 -0.4962
   48MOL0     O 6207   5.281   8.551   6.356  1.1505 -0.0642  0.0952
   48MOL0     C 6208   5.375   8.450   6.338  0.7099 -0.2433 -0.6192
   48MOL0     C 6209   5.369   8.343   6.434  0.4689  0.4617 -0.4589
   48MOL0     C 6210   5.443   8.224   6.400 -0.0522 -0.6359 -0.4477
   48MOL0     C 6211   5.533   8.217   6.287 -0.1612  0.0103  0.5839
   48MOL0     O 6212   5.616   8.112   6.256 -0.0693 -0.1682  1.0668
   48MOL0     C 6213   5.575   7.986   6.283 -0.5465 -0.8856  0.1900
   48MOL0     C 6214   5.481   7.941   6.178 -0.5211  0.1075  0.7454
   48MOL0     C 6215   5.330   7.970   6.201 -0.3352  0.2474 -0.0445
   48MOL0     C 6216   5.272   7.890   6.325  0.4319  0.2276  0.3220
   48MOL0     C 6217   5.122   7.925   6.351  0.6884 -0.5118  0.4029
   48MOL0     C 6218   5.053   7.824   6.438 -0.3031  0.4565  0.1835
   48MOL0     C 6219   4.901   7.846   6.430 -0.4718  0.0575 -0.0507
   48MOL0     C 6220   4.819   7.781   6.312  0.1449 -0.6775 -0.7528
   48MOL0     N 6221   4.676   7.801   6.314  0.0329  0.7803  0.3661
   48MOL0     C 6222   4.624   7.923   6.304 -0.3440 -0.0766  0.3622
   48MOL0     C 6223   4.491   7.912   6.289  0.0216  0.0376  0.6243
   48MOL0     C 6224   4.403   8.032   6.267  1.1388 -0.5670  0.3216
   48MOL0     C 6225   4.325   8.032   6.134 -0.2310  0.8194  0.3561
   48MOL0     C 6226   4.181   8.023   6.161  0.2191  0.0657  0.3411
   48MOL0     C 6227   4.094   7.999   6.035 -0.9382 -0.3144  0.0707
   48MOL0     O 6228   3.960   8.045   6.051  0.8850  0.8885 -0.0468
   48MOL0     C 6229   3.871   7.964   6.118 -0.3438  0.3270 -0.7890
   48MOL0     C 6230   3.760   8.026   6.168 -0.5538  1.1125 -0.4890
   48MOL0     C 6231   3.659   7.963   6.238  0.4900 -1.2726  1.0964
   48MOL0     C 6232   3.674   7.828   6.272 -0.7482 -0.7363  0.4403
   48MOL0     C 6233   3.564   7.750   6.321 -0.1763 -0.7798  0.2769
   48MOL0     O 6234   3.471   7.820   6.390 -0.2305  0.5721  0.3416
   48MOL0     C 6235   3.368   7.743   6.442 -0.4577 -0.8425  0.1448
   48MOL0     C 6236   3.377   7.642   6.523  0.5081 -0.2810  0.0395
   48MOL0     C 6237   3.254   7.579   6.550 -0.6478 -0.0355  0.5906
   48MOL0     C 6238   3.128   7.627   6.509 -0.6579  0.0355  0.2498
   48MOL0     O 6239   3.023   7.549   6.540  1.2217  0.2070  0.9868
   48MOL0     C 6240   2.894   7.570   6.486  0.0051 -0.8381  0.7518
   48MOL0     C 6241   2.805   7.463   6.545  0.1362  0.5695  0.1976
   48MOL0     C 6242   2.655   7.494   6.512 -0.1756  0.0577  0.1625
   48MOL0     C 6243   2.549   7.420   6.589 -0.7073  0.5794 -0.4415
   48MOL0     C 6244   2.548   7.275   6.540 -0.1710 -0.4737 -0.1471
   48MOL0     C 6245   2.468   7.255   6.405 -0.8628  0.8164  0.7891
   48MOL0     C 6246   2.489   7.119   6.337 -0.3173 -0.1470  0.0244
   48MOL0     C 6247   2.419   7.092   6.214 -0.1307  0.0618  0.0585
   48MOL0    Cl 6248   2.234   7.102   6.241  0.0015 -0.1138  0.1129
   48MOL0     C 6249   3.121   7.741   6.422 -0.2623  0.6157 -1.4557
   48MOL0     C 6250   3.247   7.805   6.406  0.2690  1.2447  0.5755
   48MOL0     O 6251   3.563   7.636   6.284 -0.5896  0.8326 -0.0932
   48MOL0     C 6252   3.791   7.765   6.236  0.4644 -0.7611 -0.0021
   48MOL0     C 6253   3.891   7.837   6.170  0.1910  0.2048 -0.2966
   48MOL0     N 6254   4.465   7.776   6.273  0.0307 -0.1201  0.2211
   48MOL0     N 6255   4.577   7.709   6.291 -0.4885  0.2702 -0.4984
   48MOL0     C 6256   5.545   8.329   6.207  0.2950 -0.5127 -1.3920
   48MOL0     C 6257   5.466   8.441   6.231 -1.3826 -0.2672 -0.0664
   48MOL0     C 6258   5.153   8.741   6.342  0.3204  0.1580  0.1330
   48MOL0     C 6259   5.070   8.686   6.438  0.4816 -0.2389 -0.0091
   48MOL0     C 6260   4.987   8.766   6.521  0.3010  0.0811 -0.1315
   48MOL0     C 6261   4.986   8.908   6.508 -0.1812  0.3278  0.5759
   48MOL0     O 6262   4.895   8.973   6.591 -0.6277  0.3161 -0.0640
   48MOL0     C 6263   4.868   9.111   6.579  0.1986  0.6086  0.7711
   48MOL0     C 6264   4.741   9.147   6.661  0.0166  0.1966  0.2218
   48MOL0     C 6265   4.715   9.302   6.667  0.6172 -0.1897 -0.4415
   48MOL0     C 6266   4.583   9.332   6.759  0.0955 -0.2787  0.4205
   48MOL0     C 6267   4.465   9.255   6.715  0.0080  0.0676  0.0792
   48MOL0     C 6268   4.373   9.181   6.689  0.6151 -0.1073 -0.3945
   48MOL0     C 6269   5.068   8.968   6.412  0.0521  0.9738 -0.0982
   48MOL0     C 6270   5.161   8.884   6.339  0.4186 -0.5198 -0.9291
   48MOL0     H 6271   5.306   8.346   6.522  0.2154  0.2057 -0.6313
   48MOL0     H 6272   5.434   8.147   6.476  0.2905 -2.2276 -1.9511
   48MOL0     H 6273   5.540   7.969   6.385 -1.0070 -2.8600 -0.2513
   48MOL0     H 6274   5.666   7.926   6.281  0.0556 -0.0723  1.4723
   48MOL0     H 6275   5.507   7.836   6.165  1.9315  0.7183  0.1563
   48MOL0     H 6276   5.514   7.988   6.085  3.5155 -4.4579 -0.5249
   48MOL0     H 6277   5.266   7.954   6.113 -1.5226  0.1296  0.8162
   48MOL0     H 6278   5.300   8.073   6.222 -3.6501 -0.6443  0.2506
   48MOL0     H 6279   5.263   7.782   6.307 -0.7981  0.5657 -1.2274
   48MOL0     H 6280   5.339   7.908   6.410  0.0641 -1.2509  0.9734
   48MOL0     H 6281   5.077   7.919   6.251 -2.2669  1.1472  1.5179
   48MOL0     H 6282   5.128   8.028   6.387  1.5920 -0.9496  1.5869
   48MOL0     H 6283   5.099   7.850   6.534 -0.0381  0.2683  0.1087
   48MOL0     H 6284   5.065   7.721   6.405 -0.6595  1.0455 -1.9382
   48MOL0     H 6285   4.857   7.811   6.524  0.3740  1.6388  0.9859
   48MOL0     H 6286   4.882   7.954   6.424  3.3733  0.8205 -1.2012
   48MOL0     H 6287   4.838   7.674   6.325 -2.2821 -0.8863  2.0509
   48MOL0     H 6288   4.861   7.823   6.220  0.6231 -0.2833 -0.3678
   48MOL0     H 6289   4.685   8.014   6.302 -1.0176  0.3977 -1.9316
   48MOL0     H 6290   4.472   8.117   6.261  2.8424 -1.7971  1.6764
   48MOL0     H 6291   4.339   8.033   6.356  1.7099  1.1541  0.7579
   48MOL0     H 6292   4.349   7.934   6.091 -1.7866  0.2893  0.6340
   48MOL0     H 6293   4.345   8.118   6.070 -0.3908 -0.8948 -2.1380
   48MOL0     H 6294   4.150   7.941   6.227  0.2906  1.0506  1.6121
   48MOL0     H 6295   4.135   8.112   6.205  0.1731 -0.3680  1.1905
   48MOL0     H 6296   4.100   7.894   6.006  1.2128  0.0696 -1.1158
   48MOL0     H 6297   4.139   8.059   5.955 -1.9723  1.0994  0.4977
   48MOL0     H 6298   3.739   8.129   6.142  2.9853  2.3420  0.9558
   48MOL0     H 6299   3.575   8.016   6.281 -1.2350 -2.2297 -0.9170
   48MOL0     H 6300   3.468   7.604   6.570  1.1158  2.3398  1.1500
   48MOL0     H 6301   3.261   7.493   6.615  3.5929 -0.5158 -0.1841
   48MOL0     H 6302   2.896   7.575   6.377  0.4462  0.4482  0.7980
   48MOL0     H 6303   2.862   7.667   6.525  1.4776 -0.1567  0.3294
   48MOL0     H 6304   2.822   7.455   6.653 -0.3300  0.3273  0.2542
   48MOL0     H 6305   2.823   7.365   6.498  0.5516  1.0273 -0.6307
   48MOL0     H 6306   2.636   7.497   6.404  0.0279  0.4640  0.1362
   48MOL0     H 6307   2.650   7.598   6.546  2.4092  0.5600 -0.7873
   48MOL0     H 6308   2.576   7.424   6.695  2.8681 -1.3689 -1.1200
   48MOL0     H 6309   2.455   7.469   6.564 -0.1881  0.8610 -1.9887
   48MOL0     H 6310   2.497   7.231   6.627 -0.2324  1.3660  0.7973
   48MOL0     H 6311   2.646   7.226   6.542 -0.1353 -0.6396 -2.8036
   48MOL0     H 6312   2.500   7.329   6.330 -1.0908  0.8852  0.7582
   48MOL0     H 6313   2.361   7.270   6.425 -1.4159  3.3806 -2.9431
   48MOL0     H 6314   2.597   7.114   6.321  0.3656  2.3358  2.8597
   48MOL0     H 6315   2.460   7.041   6.408  0.4104 -0.6862 -0.2628
   48MOL0     H 6316   2.440   6.993   6.173 -2.0316  0.4334 -2.0156
   48MOL0     H 6317   2.454   7.153   6.131  0.2689 -2.4468 -1.7339
   48MOL0     H 6318   3.026   7.781   6.388 -2.2454 -1.5345  1.0247
   48MOL0     H 6319   3.252   7.896   6.346 -2.2245  0.4415 -1.0122
   48MOL0     H 6320   3.802   7.662   6.266 -3.5602 -1.0591  0.9994
   48MOL0     H 6321   3.987   7.793   6.145  1.7993  2.1950  1.8798
   48MOL0     H 6322   5.611   8.317   6.121  0.5025 -1.4629 -1.1183
   48MOL0     H 6323   5.464   8.514   6.150 -0.6879 -1.4620 -1.1997
   48MOL0     H 6324   5.076   8.579   6.452  0.3517 -0.4202 -1.1991
   48MOL0     H 6325   4.929   8.724   6.602 -1.8768  3.1024  0.0514
   48MOL0     H 6326   4.843   9.121   6.473  1.4885 -0.9576  0.2718
   48MOL0     H 6327   4.955   9.172   6.605  1.2350 -0.8032  0.7544
   48MOL0     H 6328   4.649   9.094   6.634 -0.6156 -0.1879  2.8357
   48MOL0     H 6329   4.749   9.106   6.763 -3.4035  0.8442  0.8754
   48MOL0     H 6330   4.689   9.338   6.567 -2.3004 -0.2076  0.2102
   48MOL0     H 6331   4.790   9.369   6.710 -1.3610  1.4254  0.7384
   48MOL0     H 6332   4.604   9.297   6.861  0.1261  1.0602  0.8858
   48MOL0     H 6333   4.564   9.439   6.763 -2.4961 -0.7036  1.5847
   48MOL0     H 6334   4.298   9.108   6.666  0.2309 -0.6106  2.1305
   48MOL0     H 6335   5.064   9.073   6.383  1.4330  0.9037 -0.6326
   48MOL0     H 6336   5.238   8.936   6.282 -0.4711  0.8197 -0.9468
   49MOL0     O 6337   1.728   7.564   0.744  0.3358 -0.2991  0.1938
   49MOL0     C 6338   1.737   7.607   0.862  0.8480  0.0681  0.4241
   49MOL0     O 6339   1.853   7.631   0.932  0.2626  0.6086  0.2585
   49MOL0     C 6340   1.865   7.754   0.973 -0.0884 -0.2816  0.7676
   49MOL0     C 6341   1.867   7.780   1.110  0.5674  0.2807 -0.1932
   49MOL0     C 6342   1.868   7.913   1.152  0.3668  1.1437 -0.3076
   49MOL0     C 6343   1.879   8.017   1.062  0.2629 -0.2244  0.3505
   49MOL0     O 6344   1.904   8.142   1.119  0.5540 -0.4805 -0.4920
   49MOL0     C 6345   2.003   8.227   1.049  0.3265  0.2229 -0.4547
   49MOL0     C 6346   2.027   8.358   1.129 -0.7755 -0.5516 -0.5426
   49MOL0     C 6347   2.091   8.330   1.269  0.0511 -0.2430 -0.3144
   49MOL0     C 6348   2.227   8.243   1.260  0.0908 -0.1307 -0.7320
   49MOL0     C 6349   2.304   8.265   1.390 -0.2246  0.1683 -0.1284
   49MOL0     C 6350   2.344   8.413   1.423 -0.3280  0.9782  0.6885
   49MOL0     C 6351   2.476   8.409   1.479 -0.8373  0.4272  0.3263
   49MOL0     C 6352   2.500   8.313   1.595  0.2315  0.6283 -1.1208
   49MOL0     N 6353   2.398   8.293   1.699  0.0368 -0.1168  0.4499
   49MOL0     C 6354   2.360   8.171   1.749  0.2921 -0.4256 -0.5403
   49MOL0     C 6355   2.242   8.192   1.819  0.0203  0.0662  0.7420
   49MOL0     C 6356   2.166   8.092   1.889  0.7748 -0.0497  0.8145
   49MOL0     C 6357   2.009   8.112   1.892 -0.0630  0.2140  0.3199
   49MOL0     C 6358   1.956   8.170   2.021 -1.1077  0.0396 -0.3647
   49MOL0     C 6359   2.041   8.289   2.071  0.3186 -0.2903  0.5632
   49MOL0     O 6360   2.169   8.247   2.134 -0.2392 -0.7613  0.4763
   49MOL0     C 6361   2.222   8.359   2.209 -0.1647  1.2521 -0.5478
   49MOL0     C 6362   2.290   8.330   2.328 -0.0831 -0.6434  0.4307
   49MOL0     C 6363   2.362   8.430   2.395 -0.4291  0.3762 -0.1412
   49MOL0     C 6364   2.378   8.560   2.339 -0.4842 -0.2878 -0.9139
   49MOL0     C 6365   2.461   8.665   2.416  0.1735 -0.0901 -0.7804
   49MOL0     O 6366   2.500   8.628   2.538  0.5467  0.2136  0.2324
   49MOL0     C 6367   2.585   8.705   2.608 -1.3501  0.1202 -0.4361
   49MOL0     C 6368   2.554   8.765   2.733  0.1292 -0.2688  0.0046
   49MOL0     C 6369   2.646   8.829   2.814  0.2929 -0.2109  0.7139
   49MOL0     C 6370   2.773   8.845   2.769 -0.9533 -0.1349  0.4091
   49MOL0     O 6371   2.857   8.911   2.852 -0.7455 -0.3257 -0.2874
   49MOL0     C 6372   2.990   8.954   2.804 -0.7047 -0.2111  0.3461
   49MOL0     C 6373   3.056   9.070   2.886 -0.1895 -0.2001  0.2050
   49MOL0     C 6374   2.995   9.202   2.858  0.1545 -0.2490 -0.6430
   49MOL0     C 6375   3.081   9.300   2.944 -0.5992  0.4387  0.0589
   49MOL0     C 6376   3.052   9.447   2.914  0.1899  0.3858  0.2882
   49MOL0     C 6377   3.102   9.523   3.033 -0.0507 -0.0037 -0.0793
   49MOL0     C 6378   3.067   9.671   3.016 -0.8741  0.3995 -0.4756
   49MOL0     C 6379   3.108   9.731   3.147 -0.6778 -0.5599 -0.7052
   49MOL0    Cl 6380   3.111   9.913   3.132 -0.2978 -0.2863 -0.2418
   49MOL0     C 6381   2.816   8.794   2.649 -0.4271 -0.2481 -0.5021
   49MOL0     C 6382   2.726   8.716   2.573 -0.7744 -0.6687 -0.1016
   49MOL0     O 6383   2.493   8.762   2.355  0.1247  0.3123 -0.3976
   49MOL0     C 6384   2.319   8.588   2.213 -0.4716  0.6561 -0.3946
   49MOL0     C 6385   2.249   8.487   2.150 -0.0542  1.0572  0.5676
   49MOL0     N 6386   2.212   8.325   1.806  0.0672  0.2878  0.9733
   49MOL0     N 6387   2.311   8.387   1.749 -0.1128 -1.2366  1.1936
   49MOL0     C 6388   1.873   7.992   0.919  0.8550  0.1587  0.4766
   49MOL0     C 6389   1.874   7.854   0.878 -0.0940 -0.9914  0.2559
   49MOL0     C 6390   1.603   7.624   0.932  0.0311  0.2104  0.2930
   49MOL0     C 6391   1.489   7.682   0.872 -0.1202  0.5312 -0.3222
   49MOL0     C 6392   1.370   7.690   0.945  0.0443 -0.2016 -0.4453
   49MOL0     C 6393   1.362   7.667   1.082 -0.1005 -0.6478  0.7463
   49MOL0     O 6394   1.239   7.704   1.141  0.9930 -0.9137 -1.0034
   49MOL0     C 6395   1.220   7.660   1.275 -0.1405  0.1521  0.0397
   49MOL0     C 6396   1.091   7.707   1.336  1.3261  0.5470 -0.4706
   49MOL0     C 6397   1.068   7.860   1.346  0.2246  0.4505  0.2959
   49MOL0     C 6398   0.943   7.915   1.423 -0.8106  0.1181  0.7111
   49MOL0     C 6399   0.932   7.843   1.553  0.1751 -0.7509  0.9090
   49MOL0     C 6400   0.949   7.773   1.652 -0.1939 -0.5217  0.2760
   49MOL0     C 6401   1.471   7.603   1.137  0.7286 -0.9883 -0.4914
   49MOL0     C 6402   1.590   7.590   1.068  0.1635 -0.2116 -0.3461
   49MOL0     H 6403   1.872   7.699   1.182 -1.4751  1.2355  1.1172
   49MOL0     H 6404   1.866   7.935   1.258 -0.3354 -0.9919  0.1611
   49MOL0     H 6405   1.975   8.254   0.947  3.6491 -2.1148 -2.1748
   49MOL0     H 6406   2.097   8.171   1.046  1.7476  2.5183 -1.7700
   49MOL0     H 6407   1.936   8.417   1.137 -0.0768  0.6751 -1.3009
   49MOL0     H 6408   2.100   8.423   1.081 -1.3611  0.2189 -0.3961
   49MOL0     H 6409   2.029   8.283   1.346  0.6228 -1.1580 -0.4088
   49MOL0     H 6410   2.110   8.432   1.306  2.8076 -1.0507  0.7442
   49MOL0     H 6411   2.214   8.136   1.244  2.7955 -1.2648  3.1023
   49MOL0     H 6412   2.282   8.275   1.171  3.0753  1.5678  1.5264
   49MOL0     H 6413   2.388   8.196   1.392 -0.3112  0.0553  2.3086
   49MOL0     H 6414   2.240   8.234   1.473 -1.9349  0.3529 -1.3214
   49MOL0     H 6415   2.266   8.445   1.493 -1.2569 -0.4056  0.3373
   49MOL0     H 6416   2.335   8.472   1.332 -2.0766  0.7309  0.6714
   49MOL0     H 6417   2.548   8.393   1.399 -3.2372 -1.2592 -1.6815
   49MOL0     H 6418   2.495   8.509   1.519  1.6976  0.2716 -0.3261
   49MOL0     H 6419   2.591   8.344   1.648  1.5268 -0.8080 -2.4212
   49MOL0     H 6420   2.529   8.215   1.555  2.0346  1.0546 -0.9680
   49MOL0     H 6421   2.425   8.085   1.736  1.1442 -0.4124  2.7634
   49MOL0     H 6422   2.201   8.071   1.990  1.1036 -0.7308  0.5658
   49MOL0     H 6423   2.186   8.003   1.829 -0.2007  2.1270 -3.1066
   49MOL0     H 6424   1.961   8.014   1.888  0.4926 -0.2093  2.6251
   49MOL0     H 6425   1.991   8.170   1.801  1.2796 -0.3232 -0.3240
   49MOL0     H 6426   1.851   8.195   2.006 -1.4879 -0.4646  1.3149
   49MOL0     H 6427   1.947   8.099   2.103  0.4051  1.1893  0.8543
   49MOL0     H 6428   1.979   8.342   2.143 -0.1364  2.5143 -1.7309
   49MOL0     H 6429   2.050   8.368   1.996  4.8901 -3.7244 -3.1539
   49MOL0     H 6430   2.293   8.231   2.374  3.9369 -0.3345  1.1840
   49MOL0     H 6431   2.395   8.392   2.491 -0.2887 -2.1174 -1.1070
   49MOL0     H 6432   2.451   8.765   2.765  0.6455 -1.2712  1.7730
   49MOL0     H 6433   2.610   8.880   2.903 -0.4442 -1.1267  0.9622
   49MOL0     H 6434   2.984   8.999   2.705  2.5355 -1.2014 -0.4225
   49MOL0     H 6435   3.056   8.867   2.805  0.3540  0.5080  3.4228
   49MOL0     H 6436   3.160   9.066   2.852  0.0413 -0.5563  0.9325
   49MOL0     H 6437   3.070   9.028   2.986  0.5000  0.0922  0.2322
   49MOL0     H 6438   2.892   9.198   2.895  0.1674 -0.7591 -0.6509
   49MOL0     H 6439   2.984   9.240   2.756 -2.5008  2.1381  0.3976
   49MOL0     H 6440   3.057   9.277   3.048  0.3781  1.5631  0.5524
   49MOL0     H 6441   3.188   9.284   2.933 -0.9499 -3.1194  0.7790
   49MOL0     H 6442   2.952   9.487   2.894  1.0927  2.3437 -0.6656
   49MOL0     H 6443   3.110   9.463   2.823  0.4453 -0.9022  0.2106
   49MOL0     H 6444   3.210   9.506   3.042  0.1302  1.3603  0.6023
   49MOL0     H 6445   3.055   9.489   3.126  2.8824  2.2819  2.4564
   49MOL0     H 6446   3.124   9.709   2.931  2.0008  0.6549  1.4144
   49MOL0     H 6447   2.962   9.687   2.992 -1.1157  0.0042  0.2715
   49MOL0     H 6448   3.194   9.681   3.193 -0.2938 -0.8520 -1.7216
   49MOL0     H 6449   3.020   9.707   3.207 -1.3632  0.0835 -1.4292
   49MOL0     H 6450   2.921   8.791   2.621 -0.2053 -0.0456  0.2777
   49MOL0     H 6451   2.763   8.666   2.484 -2.7344  1.8637 -2.5245
   49MOL0     H 6452   2.340   8.686   2.170  2.5274 -0.4920 -1.7719
   49MOL0     H 6453   2.224   8.504   2.046 -2.4647  0.9122  1.0452
   49MOL0     H 6454   1.875   8.072   0.846 -3.5067 -1.5801 -1.9076
   49MOL0     H 6455   1.861   7.824   0.774  0.8304 -0.6216  0.0150
   49MOL0     H 6456   1.491   7.698   0.764 -1.2721 -2.5483 -0.9074
   49MOL0     H 6457   1.280   7.732   0.900 -0.8254 -1.4373  0.0873
   49MOL0     H 6458   1.304   7.678   1.343 -0.3243  2.2832 -0.2557
   49MOL0     H 6459   1.215   7.550   1.274  0.3628  0.0663  2.0617
   49MOL0     H 6460   1.013   7.652   1.283  1.5473 -0.9251  0.6449
   49MOL0     H 6461   1.091   7.675   1.441 -0.7538 -3.1247 -1.4107
   49MOL0     H 6462   1.064   7.897   1.243 -0.4958 -0.8539 -0.1708
   49MOL0     H 6463   1.161   7.906   1.379  1.0179 -2.2388  2.1101
   49MOL0     H 6464   0.963   8.022   1.432  1.1873  0.0002 -1.3645
   49MOL0     H 6465   0.853   7.895   1.366 -0.7032  0.6582  0.3475
   49MOL0     H 6466   0.959   7.711   1.739 -0.5251  1.9920  2.2434
   49MOL0     H 6467   1.469   7.573   1.242 -1.6253 -0.7590 -0.4309
   49MOL0     H 6468   1.675   7.546   1.119 -1.4153 -3.4212 -0.1927
   50MOL0     O 6469  10.466   6.506   2.211 -0.9385 -0.4039  0.8425
   50MOL0     C 6470  10.503   6.607   2.139  0.2475  0.4111 -0.0221
   50MOL0     O 6471  10.440   6.734   2.126 -0.2522  0.5000 -0.0631
   50MOL0     C 6472  10.324   6.765   2.191  0.1879  0.2703  0.1079
   50MOL0     C 6473  10.335   6.775   2.333  1.6117 -0.5671 -0.8367
   50MOL0     C 6474  10.229   6.823   2.409  0.7325  0.0891  0.0700
   50MOL0     C 6475  10.110   6.872   2.340 -0.0398 -0.2345 -0.6910
   50MOL0     O 6476  10.007   6.935   2.399  0.0493  0.6934  0.8638
   50MOL0     C 6477  10.044   7.005   2.519 -0.4455  0.2180  0.4431
   50MOL0     C 6478   9.949   7.110   2.554 -0.2207  0.1477 -0.3123
   50MOL0     C 6479   9.793   7.077   2.540  0.8478 -0.4397 -0.7305
   50MOL0     C 6480   9.721   7.183   2.623  0.2502 -1.1013 -0.5657
   50MOL0     C 6481   9.567   7.176   2.616 -0.0444 -0.5671 -0.6076
   50MOL0     C 6482   9.504   7.286   2.702  0.3026 -0.7830  0.3531
   50MOL0     C 6483   9.350   7.268   2.687 -0.2131 -0.7115 -0.1079
   50MOL0     C 6484   9.288   7.175   2.792 -0.0546  0.2067 -0.0838
   50MOL0     N 6485   9.149   7.215   2.830 -0.5072 -0.6787  0.2260
   50MOL0     C 6486   9.049   7.214   2.738  0.4015 -0.6016 -1.3826
   50MOL0     C 6487   8.933   7.231   2.813  0.5307  0.1877  0.0298
   50MOL0     C 6488   8.792   7.242   2.766 -0.5282 -0.5522  0.2289
   50MOL0     C 6489   8.746   7.395   2.731  0.3691  0.0280 -0.3615
   50MOL0     C 6490   8.599   7.387   2.679  0.0493  1.1195 -0.7653
   50MOL0     C 6491   8.505   7.289   2.748  0.8993 -0.0274 -0.1071
   50MOL0     O 6492   8.378   7.345   2.738 -0.5280  0.6430 -0.3905
   50MOL0     C 6493   8.278   7.273   2.800 -0.2349 -0.3980 -0.3510
   50MOL0     C 6494   8.285   7.136   2.848 -0.3420  0.8493 -0.4024
   50MOL0     C 6495   8.169   7.067   2.889  0.1817 -0.2904 -0.1184
   50MOL0     C 6496   8.045   7.130   2.906  0.1832  0.7180  0.0625
   50MOL0     C 6497   7.926   7.064   2.970 -0.4212 -0.4744  1.1438
   50MOL0     O 6498   7.947   6.945   3.025  0.7251 -0.1096 -0.5332
   50MOL0     C 6499   7.845   6.881   3.080 -0.2592 -0.0779  0.5689
   50MOL0     C 6500   7.808   6.910   3.219 -1.1023 -0.2072  0.5946
   50MOL0     C 6501   7.703   6.835   3.272  0.5387 -0.2539 -0.3342
   50MOL0     C 6502   7.648   6.733   3.202 -0.2137  0.2363 -0.4567
   50MOL0     O 6503   7.539   6.673   3.264  0.4777  0.1484 -0.4203
   50MOL0     C 6504   7.409   6.693   3.202 -0.2406 -0.4462  0.3059
   50MOL0     C 6505   7.291   6.680   3.293 -0.2382 -0.4556 -0.5523
   50MOL0     C 6506   7.277   6.787   3.408 -0.5230  0.1848  1.0270
   50MOL0     C 6507   7.143   6.766   3.485 -0.7143  0.5934 -0.2891
   50MOL0     C 6508   7.101   6.882   3.572 -0.1937  0.4168  0.0741
   50MOL0     C 6509   6.979   6.850   3.653 -0.1700  0.5802  0.4814
   50MOL0     C 6510   6.865   6.816   3.562  0.7400  0.2783  0.5003
   50MOL0     C 6511   6.728   6.834   3.634 -0.0063  0.2388  0.8674
   50MOL0    Cl 6512   6.614   6.808   3.507 -0.6845  0.0534 -0.0743
   50MOL0     C 6513   7.694   6.696   3.074  0.6827  0.4798  0.7816
   50MOL0     C 6514   7.780   6.782   3.006 -1.0883 -0.3206  0.3420
   50MOL0     O 6515   7.818   7.112   2.947  0.7975  0.1293 -0.3790
   50MOL0     C 6516   8.037   7.269   2.861  0.2369  0.3009  0.0996
   50MOL0     C 6517   8.156   7.338   2.821 -0.2523  0.7684  0.5188
   50MOL0     N 6518   8.966   7.223   2.944  1.1888 -0.5640 -0.6503
   50MOL0     N 6519   9.093   7.228   2.955  0.2125  0.0980  0.2868
   50MOL0     C 6520  10.097   6.853   2.202 -0.6976  0.4110 -0.2268
   50MOL0     C 6521  10.208   6.804   2.131  0.1267 -0.0609 -1.0488
   50MOL0     C 6522  10.629   6.590   2.073 -0.3241 -0.2994  0.0751
   50MOL0     C 6523  10.695   6.695   2.002 -0.3086 -0.2184  0.7581
   50MOL0     C 6524  10.809   6.671   1.924  0.6235 -0.5622  0.2177
   50MOL0     C 6525  10.877   6.550   1.928 -0.0136  0.7298  0.0014
   50MOL0     O 6526  11.004   6.551   1.872  0.2039  0.1237  0.0089
   50MOL0     C 6527  11.108   6.452   1.905 -0.0677  0.2553 -0.2521
   50MOL0     C 6528  11.139   6.442   2.053 -0.3330  0.3315 -0.3560
   50MOL0     C 6529  11.226   6.560   2.097  0.0592 -0.0630 -0.1103
   50MOL0     C 6530  11.154   6.701   2.111  0.0390  0.2240 -0.0481
   50MOL0     C 6531  11.101   6.712   2.251  0.5751  0.0225  0.6240
   50MOL0     C 6532  11.056   6.685   2.362 -0.2365  0.6396 -0.7408
   50MOL0     C 6533  10.819   6.443   1.997 -0.7159 -0.1608  0.5208
   50MOL0     C 6534  10.700   6.464   2.070  0.0132 -0.6996  0.9133
   50MOL0     H 6535  10.432   6.744   2.371  1.0700 -3.5103 -1.5782
   50MOL0     H 6536  10.237   6.826   2.518  0.7848 -0.6883  0.0947
   50MOL0     H 6537  10.138   7.061   2.514 -0.8941  1.0396  0.8711
   50MOL0     H 6538  10.053   6.932   2.600  1.8162 -2.0586 -1.6695
   50MOL0     H 6539   9.959   7.195   2.485 -2.7005  0.2418 -0.6430
   50MOL0     H 6540   9.970   7.143   2.656  2.9436  0.4453 -0.9670
   50MOL0     H 6541   9.770   6.978   2.581  3.6127  0.0015  2.3418
   50MOL0     H 6542   9.758   7.089   2.437 -0.1746  0.3361 -0.3072
   50MOL0     H 6543   9.751   7.167   2.727  0.8597  3.2428  0.0952
   50MOL0     H 6544   9.757   7.284   2.603  4.4747 -2.0517  1.2885
   50MOL0     H 6545   9.530   7.079   2.651 -2.7560  0.9924  1.2620
   50MOL0     H 6546   9.526   7.182   2.514 -0.1587 -2.8701 -0.7603
   50MOL0     H 6547   9.530   7.390   2.680 -2.4074 -0.0755  0.0853
   50MOL0     H 6548   9.535   7.278   2.807  3.5505 -1.4164 -0.5515
   50MOL0     H 6549   9.316   7.371   2.702  0.3890 -0.6204  0.7625
   50MOL0     H 6550   9.314   7.237   2.589 -3.8718 -3.7895  1.9597
   50MOL0     H 6551   9.347   7.160   2.883 -1.1981  1.9336  0.9863
   50MOL0     H 6552   9.286   7.086   2.728  1.5011  1.6404 -2.2683
   50MOL0     H 6553   9.038   7.197   2.632 -3.7885 -1.0570 -1.0481
   50MOL0     H 6554   8.736   7.213   2.855  1.7389  0.9041  2.2805
   50MOL0     H 6555   8.781   7.179   2.678 -3.2961 -0.3891  0.3816
   50MOL0     H 6556   8.805   7.434   2.648 -0.2792  4.1369  0.8632
   50MOL0     H 6557   8.760   7.466   2.813 -4.1737  2.7905 -1.5535
   50MOL0     H 6558   8.555   7.487   2.673 -1.5940  0.5670  0.9248
   50MOL0     H 6559   8.610   7.357   2.575  1.5598 -1.3357  0.0107
   50MOL0     H 6560   8.533   7.255   2.848  0.2402 -0.0635  0.0672
   50MOL0     H 6561   8.509   7.202   2.682  1.4696  0.8920 -1.3221
   50MOL0     H 6562   8.370   7.069   2.837  0.6927  1.8004  1.3181
   50MOL0     H 6563   8.188   6.960   2.897  1.5593 -0.1684 -1.3466
   50MOL0     H 6564   7.853   6.988   3.279 -0.7305 -0.0942  0.1718
   50MOL0     H 6565   7.660   6.847   3.370  0.5011  2.7565 -0.6369
   50MOL0     H 6566   7.407   6.613   3.126  1.0996 -0.5578  0.3530
   50MOL0     H 6567   7.410   6.792   3.156 -1.1124 -0.2099  0.7816
   50MOL0     H 6568   7.293   6.579   3.336 -0.9958 -1.1091 -1.9731
   50MOL0     H 6569   7.200   6.698   3.235 -0.0698 -0.9490 -0.9827
   50MOL0     H 6570   7.275   6.888   3.367 -0.1200 -0.3769 -0.4569
   50MOL0     H 6571   7.370   6.784   3.466  0.8794  0.9133 -1.0715
   50MOL0     H 6572   7.067   6.755   3.407  1.7691  0.6409 -2.8917
   50MOL0     H 6573   7.154   6.677   3.547  1.8868  1.0959  0.1078
   50MOL0     H 6574   7.096   6.964   3.500 -0.3365  1.3523  1.1205
   50MOL0     H 6575   7.180   6.891   3.647  0.2499 -2.4637  0.0710
   50MOL0     H 6576   6.960   6.941   3.711  0.5716  0.0085  1.6673
   50MOL0     H 6577   6.988   6.770   3.727 -2.2584  1.2340  1.5225
   50MOL0     H 6578   6.876   6.873   3.470 -1.4464 -1.3546 -0.8737
   50MOL0     H 6579   6.868   6.710   3.533 -2.6127 -0.0096  0.7979
   50MOL0     H 6580   6.709   6.931   3.682  3.1126  2.4050 -1.7920
   50MOL0     H 6581   6.724   6.752   3.706  0.2745 -1.3212 -0.8278
   50MOL0     H 6582   7.641   6.624   3.013 -2.4880  1.9581  1.5699
   50MOL0     H 6583   7.805   6.766   2.902  1.2212 -2.8857  1.1676
   50MOL0     H 6584   7.943   7.322   2.873  0.7055  1.2744 -0.4346
   50MOL0     H 6585   8.137   7.444   2.807 -0.4256  0.5050 -1.5128
   50MOL0     H 6586  10.010   6.901   2.158 -1.2090  1.1674  1.5127
   50MOL0     H 6587  10.212   6.780   2.025 -0.6858 -0.0803 -1.0773
   50MOL0     H 6588  10.638   6.786   1.992 -1.3926 -0.7300  2.0087
   50MOL0     H 6589  10.854   6.763   1.887 -1.4336  0.4119 -0.0067
   50MOL0     H 6590  11.200   6.483   1.855  0.1842 -1.3488 -0.8684
   50MOL0     H 6591  11.078   6.354   1.867 -2.5965  0.9770 -0.3071
   50MOL0     H 6592  11.048   6.439   2.112 -0.2996 -1.2783 -0.3240
   50MOL0     H 6593  11.177   6.341   2.071 -2.5452 -0.7436 -1.3000
   50MOL0     H 6594  11.306   6.565   2.022  1.0916 -3.7771  0.5280
   50MOL0     H 6595  11.258   6.535   2.199  3.0783  3.4338 -0.0115
   50MOL0     H 6596  11.241   6.767   2.104  0.4380 -0.4614 -2.1183
   50MOL0     H 6597  11.081   6.734   2.037  0.6831  3.8403  0.7411
   50MOL0     H 6598  11.009   6.675   2.458 -0.8575 -1.8944 -1.2469
   50MOL0     H 6599  10.863   6.344   1.986 -0.8948 -0.7237  3.8211
   50MOL0     H 6600  10.646   6.375   2.099 -0.6368 -1.4907 -2.3202
   51MOL0     O 6601   7.348   9.971   1.383  0.0543  0.6091 -0.3283
   51MOL0     C 6602   7.320  10.084   1.336 -0.4192 -0.0578  0.0552
   51MOL0     O 6603   7.288  10.196   1.404  0.5236 -0.3222 -0.6187
   51MOL0     C 6604   7.304  10.219   1.538 -0.3795 -0.7398  0.1276
   51MOL0     C 6605   7.224  10.322   1.608  0.4986  0.7263 -0.1179
   51MOL0     C 6606   7.241  10.340   1.746 -0.5408  0.8680  0.2026
   51MOL0     C 6607   7.358  10.289   1.809 -0.0810 -0.0548 -0.5357
   51MOL0     O 6608   7.396  10.333   1.936 -0.2992  0.0051 -0.2575
   51MOL0     C 6609   7.302  10.294   2.044 -0.2933 -0.3999 -0.2370
   51MOL0     C 6610   7.314  10.387   2.160 -0.0721 -0.3669 -0.4736
   51MOL0     C 6611   7.280  10.534   2.121 -0.5461  0.6338 -0.0735
   51MOL0     C 6612   7.319  10.636   2.224 -1.8095 -0.4339  0.1937
   51MOL0     C 6613   7.467  10.667   2.186  0.3503 -0.6758  0.1152
   51MOL0     C 6614   7.532  10.777   2.275 -0.5173  0.8070 -1.0789
   51MOL0     C 6615   7.682  10.786   2.235  0.5649  0.2788  0.3433
   51MOL0     C 6616   7.743  10.910   2.291 -0.4044  0.6275  0.7499
   51MOL0     N 6617   7.753  10.928   2.433  0.4439  0.8107  0.5285
   51MOL0     C 6618   7.795  10.838   2.525 -0.4056 -1.0324 -0.9668
   51MOL0     C 6619   7.820  10.908   2.646 -0.4053  0.2458 -0.3835
   51MOL0     C 6620   7.871  10.856   2.776 -0.0718  0.3442  1.1339
   51MOL0     C 6621   7.753  10.839   2.871 -0.2261  0.1660 -0.1634
   51MOL0     C 6622   7.805  10.782   3.004 -1.1988  1.1121  0.5054
   51MOL0     C 6623   7.683  10.731   3.082  0.1404  0.0558  0.3884
   51MOL0     O 6624   7.614  10.846   3.133 -1.1392 -0.2863  0.5175
   51MOL0     C 6625   7.533  10.838   3.252  0.0893  0.5581 -0.0707
   51MOL0     C 6626   7.518  10.723   3.325  0.0159  0.3552  0.2026
   51MOL0     C 6627   7.427  10.725   3.432  0.1233  0.7358 -0.0929
   51MOL0     C 6628   7.338  10.831   3.448  0.9591  0.4617 -0.5033
   51MOL0     C 6629   7.216  10.812   3.532  0.5313 -0.2102  0.7218
   51MOL0     O 6630   7.113  10.896   3.505 -0.1540 -0.2155  0.0219
   51MOL0     C 6631   7.002  10.875   3.584  0.7331  1.1055 -0.4360
   51MOL0     C 6632   6.907  10.765   3.554  0.2076  0.2508  0.1360
   51MOL0     C 6633   6.785  10.755   3.626 -0.1103 -0.0240  0.4893
   51MOL0     C 6634   6.751  10.854   3.718 -0.7577  0.2530  1.2470
   51MOL0     O 6635   6.629  10.846   3.787 -0.1564 -1.0299 -0.3001
   51MOL0     C 6636   6.516  10.806   3.719 -0.5886 -0.0686  0.7877
   51MOL0     C 6637   6.394  10.870   3.787 -0.4398 -1.3231 -0.8299
   51MOL0     C 6638   6.411  11.018   3.799  0.2974 -0.5328  0.3453
   51MOL0     C 6639   6.279  11.092   3.832  0.0675  0.4965  0.8493
   51MOL0     C 6640   6.293  11.242   3.827 -0.2069 -0.2482 -0.2665
   51MOL0     C 6641   6.358  11.293   3.953  0.1454 -0.2792  0.9726
   51MOL0     C 6642   6.376  11.446   3.946  1.1602  0.6439 -0.1919
   51MOL0     C 6643   6.428  11.494   4.079 -0.0326 -0.2258  0.5040
   51MOL0    Cl 6644   6.428  11.672   4.065 -0.0480  0.3618  0.7717
   51MOL0     C 6645   6.841  10.951   3.744 -0.6777  0.4204 -0.4984
   51MOL0     C 6646   6.962  10.967   3.675  0.6286  0.5693  1.0319
   51MOL0     O 6647   7.224  10.720   3.613  0.2738 -1.0688  0.1835
   51MOL0     C 6648   7.363  10.957   3.385  0.3528 -0.4426 -0.4423
   51MOL0     C 6649   7.460  10.955   3.289  0.3431 -0.5031  0.4732
   51MOL0     N 6650   7.787  11.031   2.619  0.1157 -0.0944 -0.5147
   51MOL0     N 6651   7.745  11.051   2.497  0.8677  0.7751 -0.2172
   51MOL0     C 6652   7.431  10.194   1.753  0.5197 -0.0226 -0.3426
   51MOL0     C 6653   7.406  10.151   1.621 -0.4079 -0.2922  0.1168
   51MOL0     C 6654   7.310  10.087   1.193  0.3405  0.7319  0.3339
   51MOL0     C 6655   7.243  10.194   1.122 -1.0659  0.2504  0.5083
   51MOL0     C 6656   7.217  10.196   0.981  0.1895  0.4013 -0.2343
   51MOL0     C 6657   7.275  10.090   0.911 -0.5426  1.0830  0.9597
   51MOL0     O 6658   7.253  10.072   0.779 -0.1976 -0.3291 -0.0731
   51MOL0     C 6659   7.116  10.061   0.743  0.2327 -0.0445 -0.2799
   51MOL0     C 6660   7.105   9.985   0.618  0.1498 -0.3736 -0.1769
   51MOL0     C 6661   6.979  10.033   0.533 -0.3179  0.2836 -0.5631
   51MOL0     C 6662   6.961  10.185   0.493 -0.4739 -0.2950 -0.8834
   51MOL0     C 6663   6.880  10.194   0.377  0.7582 -0.0867 -0.2304
   51MOL0     C 6664   6.804  10.221   0.286 -0.3874 -0.2985 -0.2175
   51MOL0     C 6665   7.348   9.987   0.969  0.9237 -0.3242 -0.0681
   51MOL0     C 6666   7.370   9.986   1.109  0.1023 -0.3427 -1.3978
   51MOL0     H 6667   7.142  10.373   1.559  0.7271  0.8392 -0.3839
   51MOL0     H 6668   7.176  10.404   1.804  0.1147 -0.6276  2.7189
   51MOL0     H 6669   7.296  10.195   2.090 -5.5929  1.1877  3.4558
   51MOL0     H 6670   7.201  10.299   2.002 -0.2042 -0.1071 -0.4265
   51MOL0     H 6671   7.416  10.389   2.201  0.3478  2.6128 -1.4323
   51MOL0     H 6672   7.247  10.365   2.244 -1.6177 -0.9915 -1.8285
   51MOL0     H 6673   7.171  10.543   2.128 -0.5201  0.7727  0.1473
   51MOL0     H 6674   7.317  10.562   2.022  1.5273  0.7922  0.6961
   51MOL0     H 6675   7.265  10.730   2.208 -0.3440  0.2107 -1.1707
   51MOL0     H 6676   7.310  10.599   2.327  1.6321 -4.7806 -0.7913
   51MOL0     H 6677   7.464  10.709   2.085 -1.7718 -0.3349  0.2693
   51MOL0     H 6678   7.523  10.573   2.190 -0.5474 -1.2293 -0.0205
   51MOL0     H 6679   7.528  10.754   2.381 -0.4599  0.2312 -1.2012
   51MOL0     H 6680   7.470  10.866   2.260 -2.3432 -0.5119 -1.6003
   51MOL0     H 6681   7.729  10.692   2.265  3.3386  0.7308 -2.0972
   51MOL0     H 6682   7.698  10.795   2.127  1.2568 -0.1288  0.4030
   51MOL0     H 6683   7.685  10.996   2.256  0.4302  0.4525 -1.1707
   51MOL0     H 6684   7.842  10.914   2.245 -1.3707  1.9799 -1.3279
   51MOL0     H 6685   7.821  10.734   2.511 -1.5171 -1.4419 -0.1933
   51MOL0     H 6686   7.939  10.929   2.821  0.3717  0.5533  0.1407
   51MOL0     H 6687   7.926  10.763   2.761  2.5898  1.9480  0.2949
   51MOL0     H 6688   7.673  10.779   2.827 -0.1418  0.9912 -1.4909
   51MOL0     H 6689   7.718  10.942   2.888 -0.6868  0.5786 -3.0902
   51MOL0     H 6690   7.860  10.691   2.976  0.0679  1.9413  0.1891
   51MOL0     H 6691   7.859  10.864   3.054 -1.6114  2.1702 -0.7260
   51MOL0     H 6692   7.705  10.652   3.155  1.8891  1.2824  1.2648
   51MOL0     H 6693   7.638  10.676   2.999 -1.4375  1.8626 -0.0169
   51MOL0     H 6694   7.588  10.640   3.320  0.1044  0.3894  0.8049
   51MOL0     H 6695   7.413  10.628   3.480 -1.3403 -0.1160 -2.1324
   51MOL0     H 6696   6.934  10.697   3.474  2.4190  2.1052 -0.8151
   51MOL0     H 6697   6.715  10.673   3.612 -2.8041  1.8487  1.9586
   51MOL0     H 6698   6.504  10.698   3.711  0.8149 -0.1301 -1.3566
   51MOL0     H 6699   6.523  10.848   3.618 -3.1880 -0.7409  0.2518
   51MOL0     H 6700   6.395  10.831   3.889  3.1987 -0.3042 -0.3259
   51MOL0     H 6701   6.301  10.836   3.741  0.2776 -1.3002 -2.3403
   51MOL0     H 6702   6.443  11.066   3.706 -1.1370 -1.2406 -0.5436
   51MOL0     H 6703   6.483  11.037   3.880 -1.2639 -6.5443  3.7553
   51MOL0     H 6704   6.216  11.055   3.751  2.7806  0.9684 -1.6443
   51MOL0     H 6705   6.246  11.052   3.929 -3.0058 -1.0256 -0.6929
   51MOL0     H 6706   6.192  11.283   3.821 -0.6637 -1.4244 -0.9486
   51MOL0     H 6707   6.344  11.285   3.739 -2.9096 -1.4824 -2.5809
   51MOL0     H 6708   6.456  11.251   3.976 -0.5778 -1.0928  2.7274
   51MOL0     H 6709   6.297  11.266   4.039  1.1987 -1.8725  1.2638
   51MOL0     H 6710   6.453  11.470   3.872 -1.1493 -0.6198 -3.2096
   51MOL0     H 6711   6.284  11.496   3.915  1.5502  1.5532  0.0874
   51MOL0     H 6712   6.525  11.464   4.118  1.1846  1.1403 -1.3328
   51MOL0     H 6713   6.360  11.462   4.159 -1.6172  1.8805  0.0961
   51MOL0     H 6714   6.824  11.021   3.825  3.3020  2.3236 -1.0647
   51MOL0     H 6715   7.018  11.054   3.707  1.5155 -0.2198  1.6760
   51MOL0     H 6716   7.290  11.036   3.402 -0.4240 -0.9663 -1.2488
   51MOL0     H 6717   7.467  11.048   3.232  2.5030 -1.1504 -0.3977
   51MOL0     H 6718   7.507  10.142   1.810  0.2199  0.7190  0.7552
   51MOL0     H 6719   7.470  10.078   1.572  1.7255  0.8236  1.1125
   51MOL0     H 6720   7.207  10.284   1.171  0.1844  2.2581 -2.0126
   51MOL0     H 6721   7.162  10.273   0.929  1.9654  0.9058 -1.4336
   51MOL0     H 6722   7.079  10.162   0.724 -2.4242 -0.8851 -0.0041
   51MOL0     H 6723   7.062  10.018   0.828 -0.1552  3.1273  1.2008
   51MOL0     H 6724   7.200   9.992   0.564  0.5094 -0.7328  0.3960
   51MOL0     H 6725   7.098   9.881   0.649  1.0171 -0.2944  0.3129
   51MOL0     H 6726   6.885  10.018   0.586 -1.6042  2.7624 -1.9317
   51MOL0     H 6727   6.968   9.977   0.439  2.3406  2.8834 -2.6405
   51MOL0     H 6728   6.915  10.248   0.570  1.0034  1.5912 -1.4515
   51MOL0     H 6729   7.063  10.225   0.484  0.1013 -1.0296  1.4605
   51MOL0     H 6730   6.751  10.239   0.195 -0.1425 -0.1895 -0.3395
   51MOL0     H 6731   7.398   9.907   0.915  3.1157  1.0393 -0.1711
   51MOL0     H 6732   7.416   9.901   1.158 -0.7969  1.1554  2.3714
   52MOL0     O 6733   3.419   5.259   6.968 -0.4128 -0.7469 -0.6222
   52MOL0     C 6734   3.499   5.176   6.926  1.0071  0.2847 -0.1935
   52MOL0     O 6735   3.479   5.081   6.835 -0.2289 -0.3219 -0.1045
   52MOL0     C 6736   3.353   5.073   6.787 -0.4749  0.0937  0.2183
   52MOL0     C 6737   3.324   5.128   6.660 -0.0303 -0.0591  0.2235
   52MOL0     C 6738   3.189   5.130   6.616 -0.1532 -0.8929  1.0520
   52MOL0     C 6739   3.091   5.067   6.688  0.2135 -0.3973 -0.0762
   52MOL0     O 6740   2.956   5.052   6.651  0.3467  0.2995  0.0613
   52MOL0     C 6741   2.895   5.162   6.573 -1.2516  0.3392 -0.1154
   52MOL0     C 6742   2.753   5.129   6.555  0.4431 -0.2703 -0.7052
   52MOL0     C 6743   2.694   5.268   6.522 -0.0666  0.3290 -0.1629
   52MOL0     C 6744   2.540   5.274   6.510 -0.1415  0.2598 -0.4124
   52MOL0     C 6745   2.463   5.290   6.648  0.4645 -0.0542  0.7220
   52MOL0     C 6746   2.311   5.282   6.611 -0.0039 -0.3853  0.4464
   52MOL0     C 6747   2.233   5.287   6.743  0.0887 -0.5769  0.8665
   52MOL0     C 6748   2.074   5.290   6.728 -0.1885  0.0781  0.1400
   52MOL0     N 6749   1.997   5.321   6.850 -0.4271  0.2853 -0.6279
   52MOL0     C 6750   2.029   5.425   6.933  0.5362 -0.2202 -0.4197
   52MOL0     C 6751   1.933   5.428   7.028  0.7043  0.1131  0.2975
   52MOL0     C 6752   1.919   5.521   7.153  0.4573  0.8709  0.6969
   52MOL0     C 6753   1.925   5.442   7.282 -0.1499  0.5815 -0.3832
   52MOL0     C 6754   2.072   5.404   7.317 -0.1477  0.7868 -0.0556
   52MOL0     C 6755   2.176   5.507   7.368  0.3678  0.2722  0.7091
   52MOL0     O 6756   2.264   5.483   7.473  0.0011 -0.1399 -0.6009
   52MOL0     C 6757   2.381   5.416   7.457 -1.0591 -0.8489  1.0830
   52MOL0     C 6758   2.495   5.478   7.493 -1.4553 -0.4943  0.4613
   52MOL0     C 6759   2.619   5.407   7.489  0.1217 -0.5793 -0.0381
   52MOL0     C 6760   2.639   5.286   7.418 -0.2538 -1.0477 -0.0410
   52MOL0     C 6761   2.777   5.242   7.409  0.0544  0.5457 -0.0438
   52MOL0     O 6762   2.780   5.106   7.383  0.0518 -0.4692  0.2349
   52MOL0     C 6763   2.908   5.052   7.382  0.3435  0.7981 -0.2145
   52MOL0     C 6764   2.994   5.070   7.272 -0.1147 -0.5523  0.6934
   52MOL0     C 6765   3.122   5.020   7.276  0.2677 -0.3541 -0.3829
   52MOL0     C 6766   3.170   4.941   7.377 -0.6946  0.3092  0.6451
   52MOL0     O 6767   3.294   4.876   7.368 -0.1733  0.0487  0.0685
   52MOL0     C 6768   3.280   4.738   7.398 -0.5141  0.4032  0.1884
   52MOL0     C 6769   3.382   4.653   7.319 -0.2878 -0.7575 -0.6522
   52MOL0     C 6770   3.387   4.663   7.167  0.1089 -0.2181 -0.4991
   52MOL0     C 6771   3.491   4.564   7.092 -0.5492  0.1833  0.3618
   52MOL0     C 6772   3.548   4.607   6.954  0.2319 -0.3533  0.5147
   52MOL0     C 6773   3.437   4.645   6.853 -0.4200  0.6841 -0.0004
   52MOL0     C 6774   3.403   4.533   6.752  0.4917  0.6565  0.4505
   52MOL0     C 6775   3.256   4.545   6.713 -0.2666  0.3722 -0.4179
   52MOL0    Cl 6776   3.210   4.400   6.623  0.6493  0.4675 -0.2468
   52MOL0     C 6777   3.076   4.916   7.483 -0.5598 -0.0475 -0.8548
   52MOL0     C 6778   2.947   4.966   7.488  0.4172 -0.0725 -0.3511
   52MOL0     O 6779   2.871   5.322   7.411  0.3882  0.0874 -0.2834
   52MOL0     C 6780   2.514   5.225   7.374 -0.6207  0.7545 -0.0366
   52MOL0     C 6781   2.386   5.285   7.396 -0.6420  0.0496 -0.0800
   52MOL0     N 6782   1.835   5.333   6.987  0.0779  1.5807 -0.5271
   52MOL0     N 6783   1.874   5.267   6.884 -0.9046  0.0752 -0.4969
   52MOL0     C 6784   3.127   5.007   6.810 -0.3337  0.4067  0.1216
   52MOL0     C 6785   3.258   5.010   6.858  0.3035  0.7417  0.0808
   52MOL0     C 6786   3.638   5.189   6.977  0.2980  0.7475  1.0010
   52MOL0     C 6787   3.666   5.270   7.088 -0.2442 -0.1038  0.1645
   52MOL0     C 6788   3.792   5.254   7.155  0.0817 -0.3327 -0.1062
   52MOL0     C 6789   3.879   5.157   7.115  0.2066  0.0068 -0.9000
   52MOL0     O 6790   3.993   5.136   7.187 -0.1795 -0.3096  0.3506
   52MOL0     C 6791   3.964   5.097   7.327  0.0837  0.0669  0.6473
   52MOL0     C 6792   4.089   5.018   7.372  0.9290 -0.8060  0.1459
   52MOL0     C 6793   4.110   4.889   7.296  0.5709 -0.0011  0.1660
   52MOL0     C 6794   4.250   4.835   7.351 -0.0482  0.0651  0.9604
   52MOL0     C 6795   4.304   4.727   7.263 -0.4580  0.2823  0.0994
   52MOL0     C 6796   4.344   4.643   7.194 -0.2671 -0.6226 -0.2668
   52MOL0     C 6797   3.849   5.065   7.024 -0.4465 -0.6466 -0.3099
   52MOL0     C 6798   3.727   5.078   6.953  1.3260  0.3827  0.3643
   52MOL0     H 6799   3.396   5.188   6.606  0.2327  0.6881  1.3816
   52MOL0     H 6800   3.171   5.178   6.520  0.0575  0.0506  1.4726
   52MOL0     H 6801   2.933   5.178   6.472 -0.8570 -0.3495 -0.0866
   52MOL0     H 6802   2.912   5.253   6.631  0.4243  0.2864 -0.4849
   52MOL0     H 6803   2.717   5.093   6.652  1.2501  1.4063  0.2503
   52MOL0     H 6804   2.750   5.046   6.483  1.1341 -0.8075 -0.1365
   52MOL0     H 6805   2.736   5.320   6.436 -0.2559 -1.3917 -1.3443
   52MOL0     H 6806   2.699   5.320   6.618  1.1681 -1.3357  0.7377
   52MOL0     H 6807   2.517   5.351   6.436 -0.5226 -1.1363 -1.8135
   52MOL0     H 6808   2.513   5.180   6.461  0.2589 -0.0207 -0.1039
   52MOL0     H 6809   2.486   5.387   6.694  0.0402  0.7752 -0.7355
   52MOL0     H 6810   2.481   5.209   6.719 -2.7922  0.0396  1.8272
   52MOL0     H 6811   2.291   5.194   6.549 -0.1500  2.7300 -4.4482
   52MOL0     H 6812   2.291   5.369   6.549 -0.5823 -0.7797  0.0708
   52MOL0     H 6813   2.270   5.208   6.810  0.4186 -1.3414 -0.1973
   52MOL0     H 6814   2.261   5.379   6.795  0.7920  0.1526 -0.7559
   52MOL0     H 6815   2.043   5.195   6.684  1.0275 -1.0771  1.6233
   52MOL0     H 6816   2.043   5.366   6.656  0.3293 -0.7886 -1.0302
   52MOL0     H 6817   2.115   5.491   6.933 -0.6251  1.3587 -1.4479
   52MOL0     H 6818   1.820   5.566   7.135  0.7417  0.3465 -3.1240
   52MOL0     H 6819   1.998   5.596   7.156 -0.8962  2.4240 -0.5526
   52MOL0     H 6820   1.857   5.356   7.285 -2.8330  2.6036  1.1471
   52MOL0     H 6821   1.898   5.502   7.369  1.5299  1.4268 -0.4105
   52MOL0     H 6822   2.071   5.327   7.395  2.9043  0.0439 -0.6081
   52MOL0     H 6823   2.125   5.361   7.232 -1.3600  0.8309 -0.8634
   52MOL0     H 6824   2.119   5.599   7.385 -0.9049 -0.2681 -0.4710
   52MOL0     H 6825   2.235   5.531   7.279  3.4801  2.4225  3.1373
   52MOL0     H 6826   2.473   5.572   7.542 -1.7505 -0.5531  0.4414
   52MOL0     H 6827   2.691   5.467   7.543 -1.1276  0.0079  1.0333
   52MOL0     H 6828   2.954   5.117   7.182  0.5812 -0.6956  0.3024
   52MOL0     H 6829   3.182   5.040   7.188  0.6139  2.8331  0.4847
   52MOL0     H 6830   3.181   4.702   7.369 -0.9175  0.7604  1.0969
   52MOL0     H 6831   3.295   4.724   7.505  0.5479  1.4161  0.1983
   52MOL0     H 6832   3.344   4.553   7.341  0.8496 -1.1293 -0.3119
   52MOL0     H 6833   3.481   4.664   7.365 -1.2736 -5.1912  3.3306
   52MOL0     H 6834   3.425   4.761   7.137  1.6816 -0.7438 -0.3110
   52MOL0     H 6835   3.283   4.657   7.133  0.2296 -0.0075 -0.9070
   52MOL0     H 6836   3.580   4.551   7.155  0.8395  0.3003 -1.4783
   52MOL0     H 6837   3.460   4.459   7.089 -0.2360  0.0386  1.5334
   52MOL0     H 6838   3.603   4.522   6.913  2.8116  1.9368 -1.0634
   52MOL0     H 6839   3.616   4.692   6.950 -1.0949  0.7183 -0.2605
   52MOL0     H 6840   3.474   4.731   6.798  1.7281 -1.3506 -1.9422
   52MOL0     H 6841   3.348   4.676   6.909 -0.9416 -0.7816  0.0417
   52MOL0     H 6842   3.467   4.542   6.664  0.3995 -0.2594  0.2753
   52MOL0     H 6843   3.404   4.434   6.798 -1.8875 -0.0598 -0.8157
   52MOL0     H 6844   3.239   4.631   6.648 -0.1607  2.7425  2.4958
   52MOL0     H 6845   3.189   4.547   6.799  1.4259 -2.3325  1.1275
   52MOL0     H 6846   3.110   4.855   7.566 -2.7497  1.2843  1.1433
   52MOL0     H 6847   2.875   4.938   7.564 -0.0221 -2.2044 -1.4641
   52MOL0     H 6848   2.516   5.130   7.321 -1.1206  0.6467  0.1347
   52MOL0     H 6849   2.295   5.246   7.351 -0.6869  3.6057 -3.7428
   52MOL0     H 6850   3.052   4.957   6.869 -0.4811  1.1094  0.5453
   52MOL0     H 6851   3.276   4.970   6.958 -1.8593  1.6509  0.8935
   52MOL0     H 6852   3.599   5.349   7.123 -1.8220  0.3799 -3.4874
   52MOL0     H 6853   3.819   5.320   7.237  0.7989  0.2003 -0.7730
   52MOL0     H 6854   3.869   5.043   7.327  0.2328 -0.3978 -2.4003
   52MOL0     H 6855   3.960   5.189   7.386  1.3721  0.5291  0.0665
   52MOL0     H 6856   4.179   5.080   7.366  1.3055 -1.3535  0.0655
   52MOL0     H 6857   4.070   4.999   7.478 -2.1030  1.3605  0.1119
   52MOL0     H 6858   4.114   4.909   7.188 -0.2740  1.0354  0.3110
   52MOL0     H 6859   4.033   4.817   7.326  1.4709 -1.6634 -1.3478
   52MOL0     H 6860   4.329   4.910   7.346 -0.3363  0.4292  1.6627
   52MOL0     H 6861   4.233   4.805   7.455 -0.1323 -1.0200  0.6452
   52MOL0     H 6862   4.402   4.575   7.136  3.5175  2.4244 -0.5038
   52MOL0     H 6863   3.906   4.974   7.009 -0.5421 -0.6135 -0.8854
   52MOL0     H 6864   3.697   5.006   6.877  1.2436 -0.2051  0.9491
   53MOL0     O 6865   8.796   5.655   4.893 -0.1181 -0.5801  0.2461
   53MOL0     C 6866   8.756   5.610   4.785 -0.6162 -0.8426 -0.1703
   53MOL0     O 6867   8.835   5.604   4.676 -0.2482  0.0050  0.8021
   53MOL0     C 6868   8.969   5.624   4.669 -0.2977 -0.1745 -0.9698
   53MOL0     C 6869   9.022   5.712   4.571 -0.0169 -1.6248  0.8465
   53MOL0     C 6870   9.163   5.719   4.551 -0.6611 -0.3718 -0.2740
   53MOL0     C 6871   9.252   5.635   4.615 -0.3576 -0.3783 -0.7017
   53MOL0     O 6872   9.389   5.636   4.603  0.1249 -0.0169 -0.3012
   53MOL0     C 6873   9.432   5.597   4.472  0.0821 -0.3662  0.3805
   53MOL0     C 6874   9.584   5.604   4.455 -0.0040 -0.0932  0.3135
   53MOL0     C 6875   9.637   5.743   4.454 -0.3292  0.5350  0.9473
   53MOL0     C 6876   9.779   5.754   4.379  0.3574  0.3448  0.0962
   53MOL0     C 6877   9.837   5.892   4.409  1.2436 -0.5366 -0.3037
   53MOL0     C 6878   9.986   5.893   4.351  0.3455  0.3937  0.6395
   53MOL0     C 6879  10.045   6.030   4.371  0.4289 -2.0394  0.5434
   53MOL0     C 6880  10.180   6.061   4.300 -0.0935  0.2987 -0.1888
   53MOL0     N 6881  10.291   5.985   4.349 -0.3640  0.0607 -0.2170
   53MOL0     C 6882  10.356   5.884   4.279 -0.2441  0.4645 -0.5158
   53MOL0     C 6883  10.451   5.838   4.361 -0.3758  0.5748 -0.9410
   53MOL0     C 6884  10.538   5.730   4.332 -0.5714  0.7140  0.0196
   53MOL0     C 6885  10.479   5.596   4.373 -0.0777  0.8654 -0.4924
   53MOL0     C 6886  10.592   5.501   4.409 -0.8505  0.4661  0.3115
   53MOL0     C 6887  10.561   5.347   4.418 -0.2744 -0.2935  0.3671
   53MOL0     O 6888  10.457   5.317   4.324  0.2175 -0.2779  0.5422
   53MOL0     C 6889  10.371   5.232   4.384  0.2738  0.2595 -0.6790
   53MOL0     C 6890  10.402   5.098   4.414  1.0433 -0.4254 -0.0666
   53MOL0     C 6891  10.306   5.007   4.464 -1.0780 -0.7355 -0.1693
   53MOL0     C 6892  10.176   5.057   4.500  0.1556  0.1025  0.4649
   53MOL0     C 6893  10.074   4.967   4.537  0.8693  0.6107  0.5308
   53MOL0     O 6894  10.013   4.895   4.443  0.4042 -1.0135  0.5347
   53MOL0     C 6895   9.921   4.807   4.489 -0.0183 -0.2014  0.2608
   53MOL0     C 6896   9.955   4.699   4.564 -0.7710  0.7509  1.0538
   53MOL0     C 6897   9.868   4.604   4.605  0.2018 -0.4339 -0.1462
   53MOL0     C 6898   9.734   4.619   4.570  0.4946  0.3596  0.4613
   53MOL0     O 6899   9.640   4.528   4.611  0.2408  0.3121 -0.2797
   53MOL0     C 6900   9.614   4.544   4.752 -0.9910 -0.4275 -0.1069
   53MOL0     C 6901   9.485   4.625   4.764  0.9002  0.6684  1.1709
   53MOL0     C 6902   9.441   4.624   4.911 -0.1706  0.2420 -0.1590
   53MOL0     C 6903   9.323   4.712   4.938 -0.4963 -0.7628 -0.5970
   53MOL0     C 6904   9.206   4.657   4.878 -0.0423 -0.5528  0.5586
   53MOL0     C 6905   9.078   4.709   4.940  0.1566  0.5438 -0.3897
   53MOL0     C 6906   9.053   4.660   5.092 -1.5544 -1.0788  0.1157
   53MOL0     C 6907   8.907   4.667   5.130  0.4406 -0.3972  0.4527
   53MOL0    Cl 6908   8.818   4.828   5.073  0.1958 -0.2513  0.3019
   53MOL0     C 6909   9.693   4.723   4.492 -0.0961 -0.5354  0.7734
   53MOL0     C 6910   9.789   4.815   4.442 -0.3522 -0.3626 -0.4636
   53MOL0     O 6911  10.033   4.986   4.651  0.1288  0.4377 -0.6495
   53MOL0     C 6912  10.153   5.190   4.478  0.6487 -0.6653 -0.0612
   53MOL0     C 6913  10.236   5.272   4.410  0.1275  0.5170 -0.4070
   53MOL0     N 6914  10.454   5.913   4.474  0.7003  0.1179  0.3847
   53MOL0     N 6915  10.367   6.007   4.454 -0.4379  0.2418 -0.5947
   53MOL0     C 6916   9.197   5.531   4.703 -0.1142 -0.9868  0.1047
   53MOL0     C 6917   9.057   5.530   4.732 -0.3796  0.1190  0.0291
   53MOL0     C 6918   8.615   5.584   4.776 -0.4008  0.0719 -0.2207
   53MOL0     C 6919   8.548   5.531   4.660 -0.6691  0.3899  0.4306
   53MOL0     C 6920   8.412   5.516   4.655 -0.3966  0.5501 -0.7884
   53MOL0     C 6921   8.335   5.558   4.768  0.3954 -0.0688 -0.5166
   53MOL0     O 6922   8.212   5.506   4.776  0.0581 -0.0392  0.7310
   53MOL0     C 6923   8.122   5.562   4.677 -0.4466  0.9815 -0.0167
   53MOL0     C 6924   7.976   5.525   4.716 -0.2536  0.9598  0.3359
   53MOL0     C 6925   7.877   5.536   4.602  0.1857 -0.3503  0.2509
   53MOL0     C 6926   7.738   5.508   4.644  0.3227 -0.2897 -0.4033
   53MOL0     C 6927   7.646   5.612   4.605 -0.1405  0.4395  0.1028
   53MOL0     C 6928   7.561   5.689   4.572 -0.3885 -0.9068 -0.6293
   53MOL0     C 6929   8.390   5.620   4.872  0.3869  0.3795  0.6859
   53MOL0     C 6930   8.529   5.629   4.884  0.1343  0.2115  0.7317
   53MOL0     H 6931   8.961   5.781   4.512  0.7030 -0.6651  1.2006
   53MOL0     H 6932   9.211   5.794   4.490  1.2319 -1.2584  0.0382
   53MOL0     H 6933   9.399   5.675   4.403  0.2464 -1.7986 -1.3968
   53MOL0     H 6934   9.393   5.498   4.448  2.5548 -1.3551  0.1198
   53MOL0     H 6935   9.606   5.562   4.357  0.7595  1.3914 -0.1818
   53MOL0     H 6936   9.641   5.552   4.533  2.9515 -0.2135 -1.7846
   53MOL0     H 6937   9.651   5.778   4.557 -0.4134  1.2593  0.7157
   53MOL0     H 6938   9.563   5.799   4.395 -1.9416 -3.0276 -0.7601
   53MOL0     H 6939   9.846   5.682   4.427  2.4367 -0.4895 -3.7086
   53MOL0     H 6940   9.766   5.723   4.275 -2.8727 -3.7003  1.4103
   53MOL0     H 6941   9.833   5.909   4.517 -2.6407  4.4637 -0.8299
   53MOL0     H 6942   9.774   5.972   4.368  1.2830 -0.0962  0.4690
   53MOL0     H 6943   9.981   5.872   4.244 -1.3143 -2.5242  1.1993
   53MOL0     H 6944  10.048   5.823   4.408  1.6199  0.7362 -0.2993
   53MOL0     H 6945   9.978   6.111   4.341  1.7880 -0.1268  2.3546
   53MOL0     H 6946  10.071   6.035   4.477  1.3852 -1.2711  0.2913
   53MOL0     H 6947  10.205   6.165   4.322  0.4235 -0.2014  1.8008
   53MOL0     H 6948  10.160   6.057   4.192 -0.4889 -1.1376 -0.0829
   53MOL0     H 6949  10.339   5.855   4.176  3.2306  2.6348 -1.8674
   53MOL0     H 6950  10.627   5.753   4.391 -0.5642 -1.9007  1.1447
   53MOL0     H 6951  10.551   5.735   4.224 -0.2434  1.6262  0.0922
   53MOL0     H 6952  10.398   5.549   4.316 -0.5815 -1.0522  1.6403
   53MOL0     H 6953  10.425   5.610   4.467  0.8177 -2.2512  0.6161
   53MOL0     H 6954  10.667   5.508   4.329  1.1433 -3.0886  1.6506
   53MOL0     H 6955  10.641   5.531   4.502 -2.0797 -2.6544  2.1117
   53MOL0     H 6956  10.531   5.334   4.523  0.5448  2.2872  0.9946
   53MOL0     H 6957  10.648   5.284   4.398  2.0463  2.8767 -0.3172
   53MOL0     H 6958  10.498   5.073   4.369  0.2092  0.1564 -2.2839
   53MOL0     H 6959  10.323   4.901   4.475 -2.2521 -0.7178  2.8197
   53MOL0     H 6960  10.057   4.681   4.596  0.1408  0.6614 -1.6597
   53MOL0     H 6961   9.882   4.525   4.678  0.1056 -1.3267 -1.0838
   53MOL0     H 6962   9.687   4.606   4.804 -1.4903 -0.0095  0.1049
   53MOL0     H 6963   9.622   4.447   4.800  0.9069 -0.5126 -0.5148
   53MOL0     H 6964   9.410   4.588   4.693  1.7340 -0.8035  1.0047
   53MOL0     H 6965   9.515   4.727   4.739  2.5924  0.1320  0.8270
   53MOL0     H 6966   9.520   4.652   4.981 -0.6244 -0.9029  0.8553
   53MOL0     H 6967   9.423   4.518   4.934  0.6643 -0.1070 -1.0402
   53MOL0     H 6968   9.306   4.712   5.046 -2.7944  0.7805 -0.8956
   53MOL0     H 6969   9.341   4.818   4.920  3.3160 -0.4457  3.3405
   53MOL0     H 6970   9.212   4.548   4.889 -0.1833 -0.8332 -1.6173
   53MOL0     H 6971   9.200   4.672   4.770  0.9564 -0.6572  0.4770
   53MOL0     H 6972   9.001   4.652   4.886  2.0991 -1.0282 -1.6264
   53MOL0     H 6973   9.069   4.818   4.941 -2.0585  0.4195 -0.3521
   53MOL0     H 6974   9.090   4.559   5.115  0.2169 -0.8621 -1.4972
   53MOL0     H 6975   9.113   4.733   5.147  0.2842 -2.0089 -0.5557
   53MOL0     H 6976   8.889   4.651   5.236  1.0285  0.4004  0.6789
   53MOL0     H 6977   8.853   4.588   5.077 -0.0564 -0.8102  1.5506
   53MOL0     H 6978   9.585   4.733   4.480 -0.1154 -0.6616  0.8425
   53MOL0     H 6979   9.767   4.904   4.384  2.0483  0.6843  0.1072
   53MOL0     H 6980  10.063   5.244   4.504  1.5740  0.4778  0.9010
   53MOL0     H 6981  10.205   5.374   4.392 -2.0633 -0.2609 -1.3653
   53MOL0     H 6982   9.260   5.448   4.734 -1.9702 -3.0181 -1.2500
   53MOL0     H 6983   9.014   5.445   4.784  1.0525 -2.1950 -2.3612
   53MOL0     H 6984   8.612   5.498   4.579 -0.2283 -0.0228  0.9360
   53MOL0     H 6985   8.377   5.450   4.576  0.8886  1.6997 -2.3817
   53MOL0     H 6986   8.143   5.520   4.578 -0.5091  3.2929 -1.0734
   53MOL0     H 6987   8.142   5.669   4.666  2.5381  0.8648  2.8085
   53MOL0     H 6988   7.980   5.424   4.756 -1.0490  0.5557 -0.5698
   53MOL0     H 6989   7.943   5.600   4.789 -2.8876  0.5899 -0.3763
   53MOL0     H 6990   7.904   5.462   4.526  0.0178  1.0373 -1.2154
   53MOL0     H 6991   7.891   5.637   4.561  1.3278  1.0727  3.7439
   53MOL0     H 6992   7.700   5.415   4.602  1.2537 -1.0918  0.4996
   53MOL0     H 6993   7.740   5.490   4.751 -1.3751 -2.0801 -0.6124
   53MOL0     H 6994   7.480   5.744   4.527  0.9755  0.8462 -1.0708
   53MOL0     H 6995   8.329   5.653   4.955  2.3613  1.3479  1.8264
   53MOL0     H 6996   8.571   5.673   4.974  0.0975 -0.3413  1.0232
   54MOL0     O 6997   8.488   9.083   4.392  0.4728 -0.3344  0.0500
   54MOL0     C 6998   8.390   9.015   4.348 -0.2990 -0.1640 -1.5423
   54MOL0     O 6999   8.380   8.949   4.224 -0.6893 -0.1157  0.5373
   54MOL0     C 7000   8.502   8.922   4.161  0.6876 -0.3337  0.5960
   54MOL0     C 7001   8.506   8.922   4.024  0.3289 -0.2978  0.4962
   54MOL0     C 7002   8.621   8.892   3.955  0.9699 -1.1983 -0.1853
   54MOL0     C 7003   8.733   8.852   4.021 -1.4203 -0.4574 -0.1723
   54MOL0     O 7004   8.844   8.810   3.948 -0.1332  0.1705 -0.2568
   54MOL0     C 7005   8.953   8.743   4.011  0.5700 -0.1454 -0.0983
   54MOL0     C 7006   9.061   8.714   3.914 -0.6126 -0.1475  0.4427
   54MOL0     C 7007   9.170   8.634   3.976 -0.2436 -0.3585 -0.7830
   54MOL0     C 7008   9.265   8.563   3.874  0.1486  0.5394 -0.6024
   54MOL0     C 7009   9.366   8.470   3.942 -0.9187  0.0532 -0.0066
   54MOL0     C 7010   9.482   8.436   3.840 -0.4421 -0.3940 -0.3178
   54MOL0     C 7011   9.581   8.351   3.920 -0.1386 -0.2475  0.6842
   54MOL0     C 7012   9.705   8.326   3.835  0.1711  0.7720 -0.2013
   54MOL0     N 7013   9.812   8.260   3.903 -0.8145  0.8989 -0.3245
   54MOL0     C 7014   9.869   8.147   3.865  0.0362  1.1160 -0.2123
   54MOL0     C 7015   9.992   8.152   3.927  0.4936  0.0128  0.7152
   54MOL0     C 7016  10.089   8.051   3.915  0.3289  1.0137  0.3167
   54MOL0     C 7017  10.165   8.062   3.775 -0.9760  0.4760 -0.6141
   54MOL0     C 7018  10.234   7.931   3.723  0.0188 -0.5166  0.1129
   54MOL0     C 7019  10.324   7.862   3.827  0.6700  0.1608 -0.0128
   54MOL0     O 7020  10.358   7.729   3.777  0.9140  0.3048 -1.1652
   54MOL0     C 7021  10.268   7.629   3.813 -0.0792  1.0210  0.1959
   54MOL0     C 7022  10.247   7.577   3.939  0.1925  0.3413 -0.7533
   54MOL0     C 7023  10.158   7.470   3.945  0.6614 -0.6659  0.2095
   54MOL0     C 7024  10.096   7.410   3.829  0.2548  0.5192  0.4241
   54MOL0     C 7025  10.021   7.289   3.841 -0.4648  0.5228  0.2753
   54MOL0     O 7026  10.062   7.197   3.936 -0.4365  1.0777 -0.2624
   54MOL0     C 7027  10.003   7.078   3.956  0.3516 -0.6715  0.4881
   54MOL0     C 7028  10.071   6.966   3.967 -0.4690  0.1015 -0.5364
   54MOL0     C 7029  10.014   6.843   3.988 -0.0760  0.1157 -0.0688
   54MOL0     C 7030   9.872   6.829   3.974 -1.0054 -0.6213  0.4270
   54MOL0     O 7031   9.819   6.699   3.970 -0.0754  0.0404  0.1407
   54MOL0     C 7032   9.727   6.667   4.073 -0.2250 -0.1838  0.0903
   54MOL0     C 7033   9.628   6.574   4.017  0.0338  0.3351 -0.4236
   54MOL0     C 7034   9.513   6.549   4.115 -0.2046  0.2372 -0.1303
   54MOL0     C 7035   9.553   6.482   4.252 -0.7873  0.1369 -0.1534
   54MOL0     C 7036   9.441   6.488   4.361 -0.3705  0.6839 -0.8357
   54MOL0     C 7037   9.459   6.417   4.492  0.3019 -0.4610  0.1474
   54MOL0     C 7038   9.528   6.512   4.603 -0.6499 -0.2718  0.3981
   54MOL0     C 7039   9.442   6.595   4.692  0.8567  0.6046  0.0814
   54MOL0    Cl 7040   9.562   6.675   4.790 -0.0478  0.4290  0.5110
   54MOL0     C 7041   9.798   6.941   3.948 -1.0568  0.1569 -0.2424
   54MOL0     C 7042   9.859   7.070   3.937 -1.2696 -0.8419  0.0161
   54MOL0     O 7043   9.937   7.264   3.751 -0.3833 -0.5753 -0.7383
   54MOL0     C 7044  10.126   7.455   3.702 -0.3221 -0.1714 -0.1671
   54MOL0     C 7045  10.215   7.565   3.696  0.4037 -0.2661 -0.6322
   54MOL0     N 7046  10.001   8.268   4.002 -0.6919 -0.4540 -0.7809
   54MOL0     N 7047   9.890   8.329   4.002  0.5984  0.2120  0.3366
   54MOL0     C 7048   8.734   8.849   4.160 -0.0333  0.6827 -0.0898
   54MOL0     C 7049   8.618   8.884   4.227 -0.3012  0.6321 -0.4190
   54MOL0     C 7050   8.286   8.995   4.451  0.3404 -0.8075  0.3128
   54MOL0     C 7051   8.171   8.929   4.415  0.6279 -0.1749 -0.0507
   54MOL0     C 7052   8.068   8.902   4.505 -0.3003  1.1114  0.4566
   54MOL0     C 7053   8.076   8.929   4.644  0.0775 -0.1072  0.4768
   54MOL0     O 7054   7.974   8.890   4.727 -0.3113 -0.6558 -0.4198
   54MOL0     C 7055   7.865   8.988   4.731  0.1065 -0.1885  0.6854
   54MOL0     C 7056   7.866   9.082   4.847  0.0309  0.3603  0.3858
   54MOL0     C 7057   7.845   9.015   4.995 -0.6822 -0.2750  0.5433
   54MOL0     C 7058   7.738   8.904   5.014 -0.9384 -0.0661  0.3160
   54MOL0     C 7059   7.605   8.954   4.962  0.3500 -0.1565  0.3134
   54MOL0     C 7060   7.500   8.987   4.919 -0.7203 -0.2844  0.1969
   54MOL0     C 7061   8.189   8.994   4.684 -0.2419  0.5750  0.3753
   54MOL0     C 7062   8.296   9.036   4.587 -0.2983  0.1258  0.0478
   54MOL0     H 7063   8.423   8.944   3.957  1.6333  1.2499 -0.7170
   54MOL0     H 7064   8.630   8.896   3.847  2.1835  2.7421 -0.0832
   54MOL0     H 7065   8.915   8.649   4.053 -0.9107  1.1497  1.6898
   54MOL0     H 7066   8.986   8.807   4.094  0.7032 -0.9526  0.4769
   54MOL0     H 7067   9.114   8.802   3.876 -0.1011 -1.7193 -2.8307
   54MOL0     H 7068   9.014   8.656   3.834  0.2746  2.4512 -2.1235
   54MOL0     H 7069   9.119   8.562   4.041  0.3475  0.9955  1.2613
   54MOL0     H 7070   9.229   8.700   4.040 -0.9730  3.0115 -3.2859
   54MOL0     H 7071   9.217   8.507   3.793  0.0415  1.5477 -1.2577
   54MOL0     H 7072   9.312   8.646   3.819 -2.5137  2.2887 -0.3860
   54MOL0     H 7073   9.316   8.376   3.967  0.0151 -0.4135  0.1317
   54MOL0     H 7074   9.411   8.513   4.032  0.7203  1.0170 -1.2187
   54MOL0     H 7075   9.524   8.531   3.806 -0.3719 -0.2063  0.2708
   54MOL0     H 7076   9.439   8.381   3.757  3.1286 -3.2998 -0.4350
   54MOL0     H 7077   9.609   8.401   4.013 -1.8566 -2.4623  2.5271
   54MOL0     H 7078   9.527   8.258   3.943 -4.3774  1.6114 -0.6948
   54MOL0     H 7079   9.737   8.426   3.804  3.5143  1.2321  3.9083
   54MOL0     H 7080   9.676   8.266   3.749  1.8422  0.0787 -0.3193
   54MOL0     H 7081   9.827   8.068   3.803  1.4229  0.6872 -0.6442
   54MOL0     H 7082  10.038   7.954   3.913  1.4652  0.3044 -3.4743
   54MOL0     H 7083  10.144   8.055   4.010 -0.3059  0.1853  0.7374
   54MOL0     H 7084  10.246   8.134   3.790 -2.4825  2.2611 -0.6844
   54MOL0     H 7085  10.101   8.088   3.691  1.5334  0.3266 -2.6972
   54MOL0     H 7086  10.160   7.854   3.701  0.6080 -0.7730 -1.0474
   54MOL0     H 7087  10.274   7.945   3.622 -2.8608  0.8338 -0.9861
   54MOL0     H 7088  10.282   7.849   3.927 -2.5692 -1.2920 -1.4207
   54MOL0     H 7089  10.417   7.919   3.836  1.3516 -0.6615 -1.4655
   54MOL0     H 7090  10.292   7.621   4.028  0.6903 -0.4658 -0.5962
   54MOL0     H 7091  10.129   7.425   4.039  0.9547  3.7770  2.7369
   54MOL0     H 7092  10.180   6.969   3.971 -0.3832 -1.9767  0.0750
   54MOL0     H 7093  10.070   6.751   3.999 -0.1183  0.1680  0.5970
   54MOL0     H 7094   9.667   6.749   4.112  1.3284  1.7435 -1.3295
   54MOL0     H 7095   9.778   6.624   4.159  0.6059 -0.9669 -0.7607
   54MOL0     H 7096   9.676   6.476   4.007 -0.5955  0.1760 -2.2654
   54MOL0     H 7097   9.584   6.615   3.925 -1.5021  0.6850  0.4482
   54MOL0     H 7098   9.439   6.486   4.063  1.1687  0.6658 -2.8112
   54MOL0     H 7099   9.465   6.643   4.142 -0.6572  0.0864 -0.3851
   54MOL0     H 7100   9.576   6.378   4.227  0.7228 -0.6070  3.5636
   54MOL0     H 7101   9.644   6.527   4.292  0.0332 -1.8308  0.3270
   54MOL0     H 7102   9.359   6.440   4.307  0.3190  1.8160 -3.0562
   54MOL0     H 7103   9.421   6.592   4.389 -0.5558  0.0688  1.5194
   54MOL0     H 7104   9.514   6.323   4.485  1.1754 -0.1838  2.5716
   54MOL0     H 7105   9.364   6.384   4.534  0.1707  2.2190  2.2120
   54MOL0     H 7106   9.580   6.438   4.665 -1.0472  1.1822  2.5710
   54MOL0     H 7107   9.585   6.594   4.558 -0.6593  0.2593  1.3445
   54MOL0     H 7108   9.378   6.533   4.756  0.1297 -2.8596 -3.5359
   54MOL0     H 7109   9.380   6.658   4.627 -0.5538 -0.9098 -0.1182
   54MOL0     H 7110   9.689   6.943   3.945 -1.0577 -0.4611 -1.4582
   54MOL0     H 7111   9.805   7.163   3.929  2.2921  1.5168  1.1162
   54MOL0     H 7112  10.075   7.420   3.613  0.7692  0.2344 -0.9663
   54MOL0     H 7113  10.227   7.614   3.600  0.2989 -0.8955 -0.9774
   54MOL0     H 7114   8.819   8.819   4.221 -0.6633 -0.5965  0.1951
   54MOL0     H 7115   8.618   8.873   4.335  2.3064 -1.7334 -0.5231
   54MOL0     H 7116   8.162   8.886   4.315  1.0379 -0.3306 -0.0218
   54MOL0     H 7117   7.977   8.852   4.475 -0.0906 -1.3489  3.5227
   54MOL0     H 7118   7.764   8.945   4.733 -0.2225 -0.5752 -5.8180
   54MOL0     H 7119   7.868   9.038   4.634 -0.3087 -3.2071 -0.9879
   54MOL0     H 7120   7.963   9.132   4.849 -0.0578  0.5501 -0.0326
   54MOL0     H 7121   7.783   9.153   4.843 -0.7597 -0.5325  0.3954
   54MOL0     H 7122   7.825   9.087   5.075 -1.3458 -0.6493  0.7202
   54MOL0     H 7123   7.939   8.962   5.012 -0.0327  0.3922 -0.7833
   54MOL0     H 7124   7.770   8.812   4.965  1.3862  0.6261  0.3791
   54MOL0     H 7125   7.719   8.875   5.118  3.6167 -2.0992  0.8410
   54MOL0     H 7126   7.402   9.010   4.882 -1.1678  0.9030  1.9665
   54MOL0     H 7127   8.202   9.020   4.789  1.2669  0.8202  0.1518
   54MOL0     H 7128   8.384   9.089   4.623  1.8257 -0.1468 -4.1586
   55MOL0     O 7129   2.463   0.938   0.689 -0.0941 -0.6066 -0.2125
   55MOL0     C 7130   2.502   1.032   0.755  0.6507  0.1491 -0.5004
   55MOL0     O 7131   2.426   1.140   0.800 -0.2198 -0.5168  0.0914
   55MOL0     C 7132   2.300   1.165   0.747 -0.5353 -0.1224  0.7436
   55MOL0     C 7133   2.188   1.180   0.829  0.8292 -0.6308  0.5993
   55MOL0     C 7134   2.053   1.195   0.780  0.2097  0.7990 -0.3528
   55MOL0     C 7135   2.037   1.177   0.646  0.9610 -0.5036  0.1480
   55MOL0     O 7136   1.901   1.169   0.599 -0.9581 -0.3180 -0.0550
   55MOL0     C 7137   1.885   1.153   0.458 -0.6969  0.5885  0.6634
   55MOL0     C 7138   1.733   1.138   0.441 -0.6325 -0.4566  0.3259
   55MOL0     C 7139   1.702   1.137   0.297  0.4978 -0.1912  0.6900
   55MOL0     C 7140   1.555   1.079   0.275 -0.3039  0.0079 -0.0782
   55MOL0     C 7141   1.497   1.106   0.141 -0.1931 -0.7542 -0.3133
   55MOL0     C 7142   1.361   1.039   0.107 -0.6863  0.0117  0.2290
   55MOL0     C 7143   1.322   1.085  -0.033 -1.0221 -0.4606 -0.3352
   55MOL0     C 7144   1.175   1.038  -0.066 -0.1270  0.1015 -0.0213
   55MOL0     N 7145   1.131   1.078  -0.205  0.6151  0.5909 -1.2999
   55MOL0     C 7146   1.050   1.177  -0.242 -0.0365 -0.1661  0.2851
   55MOL0     C 7147   1.043   1.181  -0.381  1.1919 -0.1146  0.0152
   55MOL0     C 7148   0.958   1.262  -0.474  0.0473 -0.3289 -0.8435
   55MOL0     C 7149   0.816   1.211  -0.482  0.5027 -1.2943 -0.4569
   55MOL0     C 7150   0.794   1.080  -0.549  0.3027 -0.3290  0.1730
   55MOL0     C 7151   0.751   1.087  -0.693 -0.4600 -0.4319  0.1411
   55MOL0     O 7152   0.784   0.965  -0.766  0.4894  0.5888 -0.5183
   55MOL0     C 7153   0.683   0.876  -0.780 -0.2547  0.7438  0.4674
   55MOL0     C 7154   0.544   0.912  -0.795  0.5228  0.7063  1.0976
   55MOL0     C 7155   0.452   0.804  -0.791  0.6214 -0.4865 -0.2721
   55MOL0     C 7156   0.496   0.669  -0.771 -0.2861  0.5600 -1.4247
   55MOL0     C 7157   0.401   0.558  -0.740  0.5514 -0.4075 -0.1978
   55MOL0     O 7158   0.453   0.430  -0.707 -0.3281  0.4126  1.0517
   55MOL0     C 7159   0.369   0.333  -0.674  0.0057 -0.1876  1.1953
   55MOL0     C 7160   0.378   0.217  -0.742 -0.2391  0.5132  0.2043
   55MOL0     C 7161   0.303   0.099  -0.708 -0.0774 -0.0043  0.4917
   55MOL0     C 7162   0.206   0.112  -0.611  0.5811 -1.3819 -0.8193
   55MOL0     O 7163   0.136   0.003  -0.558  0.8216  0.4921  0.8099
   55MOL0     C 7164   0.109  -0.105  -0.647  0.3942  0.8521 -0.0096
   55MOL0     C 7165   0.003  -0.202  -0.580 -0.7183 -0.6010  0.3328
   55MOL0     C 7166   0.068  -0.297  -0.472  0.3950  0.0037  0.1643
   55MOL0     C 7167  -0.016  -0.418  -0.439  0.7342 -0.3209  0.0492
   55MOL0     C 7168   0.075  -0.523  -0.381  0.3151  0.6198 -0.1760
   55MOL0     C 7169   0.153  -0.478  -0.261 -0.1938  0.1620 -0.8090
   55MOL0     C 7170   0.240  -0.590  -0.200 -1.1284  0.4964  0.5851
   55MOL0     C 7171   0.344  -0.549  -0.093 -0.0419 -0.2998  0.0473
   55MOL0    Cl 7172   0.484  -0.455  -0.172 -0.2512  0.3316  0.0828
   55MOL0     C 7173   0.178   0.241  -0.552 -0.6828  0.5251  0.3930
   55MOL0     C 7174   0.254   0.353  -0.584 -0.5317 -0.7079  0.4247
   55MOL0     O 7175   0.282   0.594  -0.737 -0.0569  0.4500  0.4442
   55MOL0     C 7176   0.631   0.641  -0.746  0.3726 -0.3014 -0.8663
   55MOL0     C 7177   0.721   0.744  -0.756 -0.4059 -0.0585 -1.0313
   55MOL0     N 7178   1.114   1.072  -0.430 -0.1524  0.1937  0.1054
   55MOL0     N 7179   1.168   1.018  -0.322  0.5148  0.0844  0.2384
   55MOL0     C 7180   2.149   1.167   0.564  0.6647  0.5648  0.7136
   55MOL0     C 7181   2.278   1.168   0.615  0.3012 -0.3843 -0.0414
   55MOL0     C 7182   2.641   1.026   0.807  0.5997  0.6503  0.4655
   55MOL0     C 7183   2.667   1.080   0.928  0.7133  0.2396  0.4854
   55MOL0     C 7184   2.800   1.075   0.973 -0.0061  0.2855  0.5555
   55MOL0     C 7185   2.900   1.016   0.892 -0.7622  0.0743 -0.0719
   55MOL0     O 7186   3.026   1.005   0.930 -0.5490 -0.8030  0.5058
   55MOL0     C 7187   3.075   1.037   1.061 -0.7678  0.2265 -0.6915
   55MOL0     C 7188   3.220   0.986   1.084 -0.5444 -0.8803  0.1214
   55MOL0     C 7189   3.223   0.845   1.127 -0.6102  0.2733 -0.7681
   55MOL0     C 7190   3.358   0.779   1.150  0.2005 -0.2849 -0.5372
   55MOL0     C 7191   3.331   0.645   1.210 -0.1006 -0.7758 -0.0352
   55MOL0     C 7192   3.310   0.557   1.288  0.1703 -0.2089  0.8980
   55MOL0     C 7193   2.860   0.959   0.766  0.7588  0.0097  0.8300
   55MOL0     C 7194   2.734   0.970   0.721 -0.3007  0.4211  0.6399
   55MOL0     H 7195   2.204   1.190   0.936 -1.1542  0.7858  0.7953
   55MOL0     H 7196   1.975   1.234   0.845 -0.0331  0.6782 -0.5653
   55MOL0     H 7197   1.926   1.054   0.436 -0.1671  1.0596 -0.6001
   55MOL0     H 7198   1.921   1.224   0.383 -1.7697  0.3144 -0.1486
   55MOL0     H 7199   1.678   1.227   0.473 -0.4928  0.6734 -2.3351
   55MOL0     H 7200   1.695   1.054   0.499  1.2146  0.7479  3.5908
   55MOL0     H 7201   1.763   1.066   0.240 -0.8703 -0.4980 -0.4810
   55MOL0     H 7202   1.717   1.238   0.259  2.0077  0.7810  3.5908
   55MOL0     H 7203   1.556   0.970   0.273 -1.8491 -0.0327 -2.6060
   55MOL0     H 7204   1.488   1.113   0.354 -0.9804 -2.7403  0.6196
   55MOL0     H 7205   1.569   1.080   0.063  1.4329 -1.6537  1.3889
   55MOL0     H 7206   1.479   1.214   0.138 -0.5187 -0.7688 -4.4695
   55MOL0     H 7207   1.287   1.073   0.181  1.2063 -0.2386  2.3575
   55MOL0     H 7208   1.368   0.930   0.109 -0.4515 -0.0600 -2.2555
   55MOL0     H 7209   1.314   1.194  -0.036  1.0585 -0.2838 -2.6123
   55MOL0     H 7210   1.393   1.056  -0.111 -1.2706 -2.2141  0.0377
   55MOL0     H 7211   1.113   1.096   0.003 -0.6718 -2.1281  1.4944
   55MOL0     H 7212   1.162   0.930  -0.049 -0.9875 -0.4522 -3.4102
   55MOL0     H 7213   1.005   1.254  -0.181 -0.2668 -0.3682  0.3734
   55MOL0     H 7214   1.006   1.257  -0.573  1.2616 -0.3028 -0.2842
   55MOL0     H 7215   0.939   1.364  -0.439 -0.7824 -0.9019  0.4317
   55MOL0     H 7216   0.757   1.291  -0.528 -1.5054  0.1935  4.1117
   55MOL0     H 7217   0.777   1.211  -0.380 -0.3584 -1.7304 -0.7827
   55MOL0     H 7218   0.882   1.015  -0.548  2.4268  2.1017 -3.8868
   55MOL0     H 7219   0.710   1.039  -0.492 -0.3664  1.7956  0.8012
   55MOL0     H 7220   0.791   1.178  -0.738 -0.2249 -1.1291 -1.1105
   55MOL0     H 7221   0.644   1.109  -0.700 -0.0902  1.4252 -0.0738
   55MOL0     H 7222   0.501   1.010  -0.812 -0.0524  0.5568  1.6472
   55MOL0     H 7223   0.344   0.801  -0.794  0.4275  1.4321  1.6183
   55MOL0     H 7224   0.448   0.207  -0.824 -1.4750 -1.5757 -0.6763
   55MOL0     H 7225   0.337   0.015  -0.766  1.5284  3.0829 -3.5177
   55MOL0     H 7226   0.208  -0.149  -0.661  0.4495  1.6625 -2.9367
   55MOL0     H 7227   0.086  -0.070  -0.749  2.4373 -0.6107 -1.0454
   55MOL0     H 7228  -0.027  -0.268  -0.661 -0.3104 -0.0757 -0.2494
   55MOL0     H 7229  -0.083  -0.143  -0.545  0.1955  0.7817  0.3131
   55MOL0     H 7230   0.090  -0.233  -0.387 -0.3928  2.9085 -1.6856
   55MOL0     H 7231   0.163  -0.334  -0.512 -2.4817 -5.0083 -3.1377
   55MOL0     H 7232  -0.098  -0.398  -0.370 -1.3092 -1.2591 -1.9859
   55MOL0     H 7233  -0.065  -0.465  -0.524 -0.9313  1.9417 -0.3383
   55MOL0     H 7234   0.148  -0.559  -0.454  0.6275  2.3201 -0.7583
   55MOL0     H 7235   0.004  -0.601  -0.352 -2.2225  2.0538 -2.1553
   55MOL0     H 7236   0.088  -0.450  -0.178 -0.4144 -3.5718  0.4982
   55MOL0     H 7237   0.209  -0.386  -0.278 -0.6933  0.6347  0.0238
   55MOL0     H 7238   0.180  -0.675  -0.164 -2.1917  0.5509 -0.9643
   55MOL0     H 7239   0.302  -0.621  -0.284 -0.2328 -0.0073  1.4146
   55MOL0     H 7240   0.385  -0.639  -0.045 -2.8958 -1.6957  0.0958
   55MOL0     H 7241   0.293  -0.490  -0.017  1.7483  0.2064  0.9140
   55MOL0     H 7242   0.092   0.249  -0.486  0.5780  0.0830  2.1711
   55MOL0     H 7243   0.237   0.448  -0.535 -0.2239 -0.7761  0.6634
   55MOL0     H 7244   0.649   0.536  -0.727 -1.2768 -1.2886 -4.0430
   55MOL0     H 7245   0.826   0.724  -0.738  0.0140  1.2435 -1.8353
   55MOL0     H 7246   2.142   1.158   0.456  2.2829 -2.3345  0.7557
   55MOL0     H 7247   2.357   1.145   0.544 -0.9118  1.1147 -1.9903
   55MOL0     H 7248   2.593   1.127   0.991  1.2745  1.2073  0.4347
   55MOL0     H 7249   2.843   1.131   1.055  0.2395  2.8456 -1.2010
   55MOL0     H 7250   3.011   0.986   1.134  0.0733 -1.0049 -0.8054
   55MOL0     H 7251   3.069   1.146   1.075  0.8283  0.1541  0.8712
   55MOL0     H 7252   3.275   1.016   0.994  0.5275  0.9285  1.3160
   55MOL0     H 7253   3.272   1.052   1.154  0.4971  0.9900 -2.2754
   55MOL0     H 7254   3.178   0.794   1.042  0.5514 -0.5347 -0.9224
   55MOL0     H 7255   3.157   0.831   1.213 -0.0411  0.7952 -0.2341
   55MOL0     H 7256   3.410   0.763   1.055 -2.7748 -1.3099 -2.1423
   55MOL0     H 7257   3.410   0.838   1.226  0.0789 -1.5703  0.5878
   55MOL0     H 7258   3.266   0.487   1.355 -2.1026 -0.9819 -1.2436
   55MOL0     H 7259   2.944   0.941   0.699  0.1411 -0.9314  0.2926
   55MOL0     H 7260   2.716   0.943   0.617 -0.3862  0.1940  0.7152
   56MOL0     O 7261   0.904   3.994   7.755  0.4840 -0.1542  0.0181
   56MOL0     C 7262   1.026   3.973   7.766 -0.9502 -0.3496 -0.6624
   56MOL0     O 7263   1.095   3.878   7.846 -0.4815 -0.0247  0.2325
   56MOL0     C 7264   1.031   3.784   7.920  1.0525 -1.2323 -0.1050
   56MOL0     C 7265   1.087   3.660   7.911  0.6410  0.6378 -0.3413
   56MOL0     C 7266   1.023   3.546   7.976 -0.6895  0.2725 -1.3778
   56MOL0     C 7267   0.927   3.572   8.072  0.9576  1.1335  0.4225
   56MOL0     O 7268   0.881   3.463   8.141  0.2726 -0.3647  0.1528
   56MOL0     C 7269   0.746   3.457   8.200 -0.0804  0.5212  0.6372
   56MOL0     C 7270   0.652   3.372   8.104 -0.4027 -1.1259  0.5261
   56MOL0     C 7271   0.585   3.448   7.984  0.8616 -0.0418  0.0520
   56MOL0     C 7272   0.500   3.368   7.879  0.7353  0.2926  0.3503
   56MOL0     C 7273   0.583   3.256   7.826 -0.5277  0.3617 -0.7285
   56MOL0     C 7274   0.524   3.182   7.703 -0.1441  0.3993 -0.4555
   56MOL0     C 7275   0.624   3.061   7.672 -0.0897 -0.0093 -0.1050
   56MOL0     C 7276   0.618   2.943   7.774 -0.3855  0.8771  0.0601
   56MOL0     N 7277   0.481   2.897   7.774  0.1843 -0.1761  0.0976
   56MOL0     C 7278   0.414   2.809   7.689 -0.4531  0.3567  0.1551
   56MOL0     C 7279   0.296   2.772   7.748  0.1450  0.0107  0.3311
   56MOL0     C 7280   0.201   2.673   7.700 -0.0881  0.1493 -0.0533
   56MOL0     C 7281   0.144   2.579   7.804  0.8857  1.0235  0.5344
   56MOL0     C 7282  -0.003   2.547   7.804 -0.1503 -0.0647  0.7358
   56MOL0     C 7283  -0.110   2.658   7.793 -0.2177  0.4936 -0.1717
   56MOL0     O 7284  -0.231   2.580   7.793  0.3133 -0.1558 -0.0736
   56MOL0     C 7285  -0.321   2.619   7.704 -0.0454  1.0225  0.5468
   56MOL0     C 7286  -0.320   2.564   7.578  0.3175 -0.0979  0.2706
   56MOL0     C 7287  -0.422   2.585   7.481 -0.4848  0.4810 -0.0858
   56MOL0     C 7288  -0.537   2.647   7.521 -0.2835 -0.6584  0.2706
   56MOL0     C 7289  -0.651   2.658   7.427  0.7069 -0.1693  0.2250
   56MOL0     O 7290  -0.624   2.633   7.294 -0.3063  0.0761  0.5249
   56MOL0     C 7291  -0.716   2.631   7.196  0.0394  0.1965 -0.4499
   56MOL0     C 7292  -0.656   2.666   7.076  0.0355 -1.0470  0.7254
   56MOL0     C 7293  -0.736   2.679   6.956  0.3118  1.3225 -0.1070
   56MOL0     C 7294  -0.878   2.655   6.966  0.2171 -0.5618 -0.9650
   56MOL0     O 7295  -0.956   2.660   6.858  0.8013 -0.1921  0.3008
   56MOL0     C 7296  -0.915   2.601   6.738  0.2087 -0.1849  1.0831
   56MOL0     C 7297  -1.018   2.630   6.627  0.1042 -0.5136  0.1348
   56MOL0     C 7298  -1.166   2.576   6.656  0.3316  0.0332 -0.6035
   56MOL0     C 7299  -1.174   2.418   6.672 -0.1145 -0.1893  0.3656
   56MOL0     C 7300  -1.321   2.374   6.693  0.4896 -0.9012 -0.4649
   56MOL0     C 7301  -1.336   2.233   6.750 -0.0033  0.1127  0.3565
   56MOL0     C 7302  -1.479   2.168   6.746  0.2141 -0.6422 -0.6376
   56MOL0     C 7303  -1.585   2.243   6.826 -0.6922 -0.0542  0.3534
   56MOL0    Cl 7304  -1.723   2.138   6.824  0.2730 -0.0221  0.2776
   56MOL0     C 7305  -0.927   2.626   7.091 -0.3560 -0.2216  0.5230
   56MOL0     C 7306  -0.853   2.622   7.208  0.2768 -0.0557  1.2792
   56MOL0     O 7307  -0.758   2.693   7.473 -0.0929  0.4672 -0.0312
   56MOL0     C 7308  -0.549   2.689   7.656 -0.8536 -0.3871  0.4386
   56MOL0     C 7309  -0.440   2.675   7.742 -0.0642 -0.1501 -0.1035
   56MOL0     N 7310   0.280   2.849   7.863 -0.3008  0.3823 -0.4693
   56MOL0     N 7311   0.390   2.916   7.875 -0.2042  1.1742 -0.0659
   56MOL0     C 7312   0.868   3.703   8.078 -0.3150 -0.2803  0.1133
   56MOL0     C 7313   0.919   3.809   8.000  1.2481 -0.3317  0.3175
   56MOL0     C 7314   1.117   4.065   7.683  0.4604 -0.9355  0.8559
   56MOL0     C 7315   1.260   4.073   7.712 -0.2324  0.3376  0.8170
   56MOL0     C 7316   1.332   4.167   7.639 -0.3187 -0.3736  0.4415
   56MOL0     C 7317   1.276   4.246   7.533 -0.4275  1.1200 -0.2155
   56MOL0     O 7318   1.339   4.340   7.459  0.4294  0.4566 -0.2910
   56MOL0     C 7319   1.483   4.324   7.432  0.5575  0.0262 -0.1316
   56MOL0     C 7320   1.550   4.453   7.396  0.6095  0.2741 -0.0345
   56MOL0     C 7321   1.688   4.426   7.332  0.5111 -0.1873 -1.0106
   56MOL0     C 7322   1.750   4.562   7.298 -0.5140 -0.5763  0.3521
   56MOL0     C 7323   1.845   4.607   7.400 -0.3491  0.7208  0.4476
   56MOL0     C 7324   1.920   4.638   7.490  0.0485 -0.5808  0.2617
   56MOL0     C 7325   1.137   4.245   7.525 -0.4536  0.6690  0.6809
   56MOL0     C 7326   1.058   4.159   7.595 -0.0540  0.0139  0.6730
   56MOL0     H 7327   1.175   3.656   7.847  2.6311 -1.9337  2.2788
   56MOL0     H 7328   1.062   3.445   7.965 -0.9755  0.1231 -1.0701
   56MOL0     H 7329   0.709   3.556   8.229  1.3457  2.2527 -2.7982
   56MOL0     H 7330   0.763   3.394   8.288 -1.8205 -2.8301 -1.2387
   56MOL0     H 7331   0.565   3.346   8.164 -1.7913  0.3247 -0.7470
   56MOL0     H 7332   0.694   3.275   8.076  0.5045 -0.9372  1.2062
   56MOL0     H 7333   0.659   3.502   7.923 -1.9382  0.7523 -2.9442
   56MOL0     H 7334   0.519   3.528   8.020 -0.6279 -1.1961 -0.0512
   56MOL0     H 7335   0.404   3.347   7.926  0.6173  0.6473  0.2741
   56MOL0     H 7336   0.471   3.420   7.787 -1.1249  1.0177  1.2930
   56MOL0     H 7337   0.598   3.178   7.900  1.8701  1.2302 -0.1986
   56MOL0     H 7338   0.679   3.299   7.795 -0.6146  1.3871  0.3809
   56MOL0     H 7339   0.533   3.254   7.621 -0.6802 -0.2534 -1.0992
   56MOL0     H 7340   0.418   3.154   7.713 -0.5141  1.9154  0.2721
   56MOL0     H 7341   0.614   3.020   7.571 -1.2293 -0.5493  0.2130
   56MOL0     H 7342   0.726   3.099   7.674 -0.6188  1.4922  2.9065
   56MOL0     H 7343   0.643   2.979   7.874 -2.9252  0.5283  0.8830
   56MOL0     H 7344   0.677   2.853   7.751 -5.1245 -2.7025  0.2873
   56MOL0     H 7345   0.442   2.768   7.593  0.8861 -0.8707  1.0289
   56MOL0     H 7346   0.249   2.606   7.628  1.8763  0.2705  1.0984
   56MOL0     H 7347   0.123   2.720   7.640  0.6666 -0.9760 -1.9850
   56MOL0     H 7348   0.173   2.608   7.905 -4.5259  1.9279  2.1134
   56MOL0     H 7349   0.189   2.480   7.788  1.0810  1.1455  0.3245
   56MOL0     H 7350  -0.012   2.478   7.720  0.7366 -0.6193  1.0846
   56MOL0     H 7351  -0.027   2.478   7.886  2.5590  0.6730  2.2470
   56MOL0     H 7352  -0.090   2.712   7.700  0.7566 -3.0218 -2.2313
   56MOL0     H 7353  -0.100   2.712   7.888 -0.7895 -0.8046  0.6603
   56MOL0     H 7354  -0.223   2.526   7.548  0.1320  0.3904 -1.0086
   56MOL0     H 7355  -0.403   2.570   7.375 -1.1794  3.2275 -0.6854
   56MOL0     H 7356  -0.548   2.674   7.069 -0.0546 -1.4290 -2.3106
   56MOL0     H 7357  -0.702   2.692   6.854  1.0095  2.3446  0.2420
   56MOL0     H 7358  -0.885   2.495   6.743 -0.5102 -0.4792 -0.3070
   56MOL0     H 7359  -0.831   2.656   6.696  0.4791 -1.7868 -0.6190
   56MOL0     H 7360  -0.977   2.588   6.535  1.8513  2.8150 -0.7903
   56MOL0     H 7361  -1.027   2.738   6.609 -2.7035  0.1433  4.2490
   56MOL0     H 7362  -1.232   2.613   6.577 -1.5749  0.1990  0.9961
   56MOL0     H 7363  -1.205   2.627   6.744  1.7505  3.0165 -1.5629
   56MOL0     H 7364  -1.127   2.376   6.582 -0.4001 -0.4707  0.3458
   56MOL0     H 7365  -1.121   2.392   6.764 -0.1669 -0.0747  0.4289
   56MOL0     H 7366  -1.376   2.389   6.600  0.3362 -0.4900 -0.3106
   56MOL0     H 7367  -1.364   2.448   6.762  0.6335 -1.6304  0.4283
   56MOL0     H 7368  -1.289   2.220   6.847  2.6976 -0.3164 -0.9104
   56MOL0     H 7369  -1.294   2.173   6.669 -1.3084 -0.0246 -0.2576
   56MOL0     H 7370  -1.505   2.158   6.640  0.1201  0.1762 -0.6934
   56MOL0     H 7371  -1.487   2.070   6.795  1.3874 -1.0975 -1.2997
   56MOL0     H 7372  -1.616   2.338   6.782 -2.2736 -0.7685 -0.1226
   56MOL0     H 7373  -1.561   2.260   6.931 -1.6336  1.5889  0.3271
   56MOL0     H 7374  -1.035   2.615   7.080 -0.8983  3.8522 -0.1528
   56MOL0     H 7375  -0.903   2.611   7.303 -1.3258 -0.8215  0.3908
   56MOL0     H 7376  -0.639   2.729   7.701  0.9365  2.3106  1.8673
   56MOL0     H 7377  -0.437   2.698   7.848 -1.6869 -3.4545  0.7951
   56MOL0     H 7378   0.782   3.724   8.142 -0.7954  0.5658 -0.7857
   56MOL0     H 7379   0.875   3.908   8.009  1.3348 -0.4629  3.2334
   56MOL0     H 7380   1.302   4.010   7.789 -2.1386 -2.4541 -0.2735
   56MOL0     H 7381   1.437   4.177   7.666  0.0908 -1.0223 -0.8237
   56MOL0     H 7382   1.486   4.244   7.358  0.0777 -0.8993  0.8181
   56MOL0     H 7383   1.544   4.294   7.518  0.8394  0.8189 -0.0494
   56MOL0     H 7384   1.481   4.513   7.336 -0.3398 -1.0271 -0.2901
   56MOL0     H 7385   1.567   4.524   7.478  2.1681  2.1659 -1.8823
   56MOL0     H 7386   1.671   4.375   7.237 -0.4873 -0.8739 -0.4895
   56MOL0     H 7387   1.747   4.365   7.401 -1.6184 -1.3587 -0.1288
   56MOL0     H 7388   1.808   4.565   7.206  1.5838  2.5966  1.6001
   56MOL0     H 7389   1.674   4.640   7.289  1.5572  1.4534 -0.5875
   56MOL0     H 7390   1.991   4.683   7.557 -1.5070 -1.4415  2.6008
   56MOL0     H 7391   1.106   4.333   7.469  0.5237  1.6286  1.5725
   56MOL0     H 7392   0.951   4.152   7.577  0.2107 -0.8254 -0.7964
   57MOL0     O 7393   1.524   7.001   1.410  0.5464 -0.3840  0.9763
   57MOL0     C 7394   1.493   7.090   1.328  0.7985 -0.0978 -0.0475
   57MOL0     O 7395   1.374   7.155   1.326 -0.6220 -0.1456  0.5296
   57MOL0     C 7396   1.308   7.212   1.434 -0.3638 -1.4741  0.2552
   57MOL0     C 7397   1.191   7.283   1.394  0.7491  0.0988  0.2102
   57MOL0     C 7398   1.108   7.334   1.488 -0.9084  0.5233  0.2647
   57MOL0     C 7399   1.127   7.312   1.621 -0.6162 -0.2497 -0.2257
   57MOL0     O 7400   1.032   7.365   1.703 -0.6454 -0.7171  0.8091
   57MOL0     C 7401   1.055   7.351   1.841 -0.3999 -0.5255  0.4444
   57MOL0     C 7402   0.954   7.424   1.931 -0.3008  0.0880  0.4588
   57MOL0     C 7403   0.816   7.450   1.880  0.5887 -0.3644  0.2495
   57MOL0     C 7404   0.733   7.328   1.879 -0.6801 -0.0995 -0.0558
   57MOL0     C 7405   0.587   7.361   1.846  0.7042  0.4008 -1.2042
   57MOL0     C 7406   0.510   7.232   1.807 -0.3156  0.8926 -0.0509
   57MOL0     C 7407   0.363   7.260   1.805 -0.1128 -0.5249 -0.1497
   57MOL0     C 7408   0.274   7.171   1.709 -0.4817 -0.4446 -0.1581
   57MOL0     N 7409   0.135   7.157   1.751  1.0321  0.8922 -0.3893
   57MOL0     C 7410   0.063   7.237   1.837 -1.0881 -0.1831  0.5555
   57MOL0     C 7411  -0.039   7.163   1.877  0.0793 -0.2517 -0.3114
   57MOL0     C 7412  -0.146   7.217   1.969  0.1841 -0.0660 -0.4355
   57MOL0     C 7413  -0.289   7.168   1.926 -0.0679  0.4803  0.0479
   57MOL0     C 7414  -0.405   7.244   1.987 -0.1916 -0.2827  0.0867
   57MOL0     C 7415  -0.543   7.224   1.937  0.0015 -0.3329  0.7377
   57MOL0     O 7416  -0.636   7.284   2.020 -0.6930 -0.2943 -0.2979
   57MOL0     C 7417  -0.668   7.417   2.016  0.1824  0.4590 -0.6093
   57MOL0     C 7418  -0.626   7.504   1.921 -0.9520  0.1984 -0.2790
   57MOL0     C 7419  -0.676   7.640   1.917 -0.5090  0.1772  0.2128
   57MOL0     C 7420  -0.766   7.686   2.017 -0.6755 -0.4728  1.0781
   57MOL0     C 7421  -0.797   7.832   2.027 -0.0515  0.4405 -0.9499
   57MOL0     O 7422  -0.792   7.907   1.909 -0.0646 -0.0752 -0.2655
   57MOL0     C 7423  -0.855   8.023   1.897 -0.0352 -0.1139 -0.0828
   57MOL0     C 7424  -0.899   8.117   1.995 -0.4841 -0.0052 -0.1367
   57MOL0     C 7425  -0.948   8.247   1.957 -0.1380  1.0554  0.3688
   57MOL0     C 7426  -0.963   8.272   1.820  0.4592  0.5035 -0.2156
   57MOL0     O 7427  -1.004   8.390   1.774  0.2603  0.2451 -0.1059
   57MOL0     C 7428  -0.934   8.511   1.807  0.2075  0.0794  0.0772
   57MOL0     C 7429  -0.941   8.597   1.679  0.1858 -0.6155 -0.0876
   57MOL0     C 7430  -0.856   8.720   1.702  0.4509  0.2427  0.5978
   57MOL0     C 7431  -0.875   8.805   1.565  1.3151 -0.8813  0.1652
   57MOL0     C 7432  -0.835   8.724   1.441  0.3313  0.5068  0.0444
   57MOL0     C 7433  -0.798   8.806   1.324  0.3187  0.0177 -0.3403
   57MOL0     C 7434  -0.907   8.905   1.280 -0.5057 -0.4879 -0.3859
   57MOL0     C 7435  -0.890   8.959   1.144 -0.1821 -0.4018  0.2244
   57MOL0    Cl 7436  -1.020   9.079   1.111 -0.2867  0.1103 -0.4252
   57MOL0     C 7437  -0.940   8.174   1.722  0.2423  0.4716 -0.2850
   57MOL0     C 7438  -0.877   8.059   1.761 -0.8502 -0.0759 -0.1378
   57MOL0     O 7439  -0.847   7.862   2.133 -0.0394 -0.0256  0.2538
   57MOL0     C 7440  -0.802   7.602   2.118  0.3712 -1.4630 -0.0481
   57MOL0     C 7441  -0.760   7.468   2.119 -0.2406 -0.8320 -0.3243
   57MOL0     N 7442  -0.030   7.041   1.819 -0.1810  0.4946  0.4959
   57MOL0     N 7443   0.077   7.032   1.755 -0.3452 -0.6453  0.6592
   57MOL0     C 7444   1.250   7.247   1.668 -0.2558 -1.5899  0.5275
   57MOL0     C 7445   1.337   7.192   1.570 -0.3101  0.2735 -0.9139
   57MOL0     C 7446   1.581   7.104   1.207  0.0493  0.5048  0.2515
   57MOL0     C 7447   1.681   7.011   1.186  0.1197 -0.0704  0.3773
   57MOL0     C 7448   1.776   7.032   1.079  1.1940  0.1753  0.4745
   57MOL0     C 7449   1.757   7.136   0.984  0.1764  0.6359  0.3903
   57MOL0     O 7450   1.863   7.169   0.901  0.3489 -0.0157  0.1045
   57MOL0     C 7451   1.898   7.311   0.863  0.5272  1.0300  1.0688
   57MOL0     C 7452   2.041   7.316   0.827  0.3143 -0.1530  0.3921
   57MOL0     C 7453   2.144   7.280   0.939  0.0350  0.2060 -0.9113
   57MOL0     C 7454   2.127   7.361   1.072 -0.4717  0.1924  0.0954
   57MOL0     C 7455   2.162   7.506   1.047  0.0729 -0.6806 -1.2093
   57MOL0     C 7456   2.210   7.620   1.039 -0.1655 -0.2746  0.0543
   57MOL0     C 7457   1.649   7.222   1.005  0.4358  1.1592 -0.1705
   57MOL0     C 7458   1.568   7.212   1.123 -0.6916  0.8157  0.5607
   57MOL0     H 7459   1.157   7.294   1.291  1.2420 -2.7010 -0.3458
   57MOL0     H 7460   1.019   7.393   1.466 -0.4190  2.1807  2.3893
   57MOL0     H 7461   1.157   7.370   1.877 -0.7887 -1.3775  2.0730
   57MOL0     H 7462   1.054   7.244   1.862  1.7150 -0.2989  2.0785
   57MOL0     H 7463   1.000   7.521   1.953 -0.8316  0.2877  0.7148
   57MOL0     H 7464   0.950   7.372   2.027 -0.8854  0.2264  0.5151
   57MOL0     H 7465   0.818   7.493   1.779  1.7429 -0.0694  0.3954
   57MOL0     H 7466   0.769   7.525   1.945  0.3887 -1.4287  1.3770
   57MOL0     H 7467   0.775   7.256   1.808  1.6346 -0.7453  1.8779
   57MOL0     H 7468   0.730   7.280   1.977  0.9242  0.6657  0.3864
   57MOL0     H 7469   0.584   7.440   1.769  1.4962  3.6848  1.8857
   57MOL0     H 7470   0.546   7.399   1.940 -2.9810 -0.9368 -2.1088
   57MOL0     H 7471   0.532   7.150   1.875  2.2392 -0.7258 -2.5753
   57MOL0     H 7472   0.539   7.190   1.710 -4.0921 -0.5693 -0.7099
   57MOL0     H 7473   0.334   7.241   1.909  0.1321  0.1882  0.0578
   57MOL0     H 7474   0.342   7.363   1.775  1.4860 -0.2481 -0.4061
   57MOL0     H 7475   0.308   7.067   1.705 -2.3145 -1.1119  0.2882
   57MOL0     H 7476   0.277   7.216   1.610 -3.4416 -1.9528 -1.0671
   57MOL0     H 7477   0.092   7.341   1.846  2.6004 -1.0482  0.1314
   57MOL0     H 7478  -0.131   7.322   1.994 -1.6773 -0.3050  2.0863
   57MOL0     H 7479  -0.119   7.174   2.066  2.6967 -2.0604 -1.8754
   57MOL0     H 7480  -0.301   7.062   1.953 -0.0410  0.6288  0.6694
   57MOL0     H 7481  -0.301   7.175   1.818  2.6476  2.4440 -0.2330
   57MOL0     H 7482  -0.400   7.220   2.094  1.5677 -2.1092 -0.3513
   57MOL0     H 7483  -0.386   7.352   1.984  1.2863 -0.5543 -1.9424
   57MOL0     H 7484  -0.554   7.115   1.928  0.2620 -0.3676  0.8076
   57MOL0     H 7485  -0.568   7.260   1.837  0.3578  1.1556  1.1726
   57MOL0     H 7486  -0.564   7.477   1.836  0.7540  1.8648  0.3645
   57MOL0     H 7487  -0.643   7.704   1.836 -0.9045  1.1342  0.7795
   57MOL0     H 7488  -0.875   8.106   2.100 -1.2226  1.2130  0.1819
   57MOL0     H 7489  -0.960   8.320   2.036 -3.8649  1.0512 -0.0233
   57MOL0     H 7490  -0.827   8.493   1.824 -0.1048 -0.9644  1.0720
   57MOL0     H 7491  -0.991   8.555   1.889 -0.8507  0.9938 -1.0960
   57MOL0     H 7492  -1.044   8.634   1.678  0.2385 -0.4604  0.0275
   57MOL0     H 7493  -0.897   8.544   1.595  1.2965  0.1230  0.0088
   57MOL0     H 7494  -0.752   8.686   1.703  1.0912  1.9605 -1.1107
   57MOL0     H 7495  -0.880   8.774   1.794 -0.0098 -1.7835  1.7281
   57MOL0     H 7496  -0.982   8.825   1.558  1.4147 -0.8157 -1.6524
   57MOL0     H 7497  -0.816   8.897   1.565 -0.7066  0.5019 -1.4784
   57MOL0     H 7498  -0.914   8.656   1.407 -0.0333  2.0701 -2.5099
   57MOL0     H 7499  -0.752   8.659   1.471  2.3305  1.8796 -2.0822
   57MOL0     H 7500  -0.777   8.740   1.240 -1.4703 -2.4697  1.0291
   57MOL0     H 7501  -0.702   8.857   1.343 -0.1323  1.3633 -1.4873
   57MOL0     H 7502  -1.004   8.855   1.291 -0.8451  0.6240  2.4385
   57MOL0     H 7503  -0.905   8.989   1.349 -4.0255 -3.2071  3.5188
   57MOL0     H 7504  -0.888   8.884   1.064  0.3741 -1.1978  0.9669
   57MOL0     H 7505  -0.793   9.011   1.148  1.2719 -2.9714  1.0114
   57MOL0     H 7506  -0.983   8.199   1.625 -1.5443 -0.4658  0.2244
   57MOL0     H 7507  -0.844   7.989   1.685 -0.1105 -2.6843  2.4056
   57MOL0     H 7508  -0.858   7.642   2.201 -0.5607 -1.6468 -0.5792
   57MOL0     H 7509  -0.790   7.401   2.200 -4.9987  2.2571  0.8692
   57MOL0     H 7510   1.282   7.251   1.772  2.2406  0.8684 -0.2315
   57MOL0     H 7511   1.409   7.119   1.604 -0.2475  0.7200 -0.0470
   57MOL0     H 7512   1.708   6.943   1.267  0.4032  0.6662  0.9128
   57MOL0     H 7513   1.851   6.955   1.063  0.7643 -1.9357  6.2686
   57MOL0     H 7514   1.874   7.372   0.950 -0.8549  2.7599 -0.4549
   57MOL0     H 7515   1.834   7.350   0.783  2.5950  0.4662 -0.9850
   57MOL0     H 7516   2.051   7.248   0.742 -3.3620 -1.7946  1.0818
   57MOL0     H 7517   2.068   7.418   0.797  3.3981 -0.5041  1.5975
   57MOL0     H 7518   2.245   7.303   0.905  0.9195 -0.3421  1.1650
   57MOL0     H 7519   2.148   7.174   0.963 -1.9492  0.7472  2.6487
   57MOL0     H 7520   2.026   7.350   1.113 -0.1239  0.7838  1.1174
   57MOL0     H 7521   2.194   7.320   1.147 -0.6949 -0.9176 -0.2968
   57MOL0     H 7522   2.262   7.711   1.021 -0.3749 -0.0816  0.4349
   57MOL0     H 7523   1.639   7.323   0.967  0.5336  3.4022  4.9371
   57MOL0     H 7524   1.497   7.294   1.130  1.3215  2.9802 -1.9109
   58MOL0     O 7525   4.590   4.361   4.802 -0.1067  0.3882 -0.2407
   58MOL0     C 7526   4.588   4.465   4.737  0.3598 -0.0117 -1.3270
   58MOL0     O 7527   4.471   4.537   4.715  0.0574 -0.0421  0.1064
   58MOL0     C 7528   4.363   4.508   4.785 -0.2687  1.1652 -0.1230
   58MOL0     C 7529   4.356   4.527   4.921  0.3419 -0.7901 -0.0485
   58MOL0     C 7530   4.239   4.502   4.993  0.5770  0.3695 -0.7114
   58MOL0     C 7531   4.125   4.455   4.927  0.2285  0.4254  0.2749
   58MOL0     O 7532   3.999   4.444   4.980 -0.1255 -0.5394 -1.4235
   58MOL0     C 7533   3.981   4.471   5.124 -1.7467 -0.2340  1.2787
   58MOL0     C 7534   3.861   4.397   5.164  0.7034 -0.1462  0.4989
   58MOL0     C 7535   3.836   4.405   5.315  0.6331  0.1474 -0.0020
   58MOL0     C 7536   3.792   4.551   5.353  0.3343 -1.2375  0.2055
   58MOL0     C 7537   3.844   4.592   5.488 -0.8186 -0.6246 -0.1333
   58MOL0     C 7538   3.795   4.500   5.608  0.1496 -0.2135  0.9260
   58MOL0     C 7539   3.821   4.563   5.744  0.2239 -0.1725  0.7087
   58MOL0     C 7540   3.722   4.680   5.768  0.4092  0.2083 -0.3427
   58MOL0     N 7541   3.775   4.795   5.845 -0.0105  0.1046  0.2136
   58MOL0     C 7542   3.821   4.776   5.970  0.2594 -0.4538 -1.5499
   58MOL0     C 7543   3.879   4.897   5.993  0.6858  0.6452  0.2511
   58MOL0     C 7544   3.948   4.955   6.116 -0.1564 -0.6053  0.3361
   58MOL0     C 7545   4.010   4.858   6.202  0.2037 -0.2558  0.3268
   58MOL0     C 7546   4.092   4.921   6.314  0.5315 -0.1795 -0.5479
   58MOL0     C 7547   4.244   4.939   6.282 -0.2458 -0.5602  0.6537
   58MOL0     O 7548   4.298   4.820   6.223  0.4154 -0.0161 -0.2906
   58MOL0     C 7549   4.333   4.709   6.300  0.2015  0.3753 -0.1883
   58MOL0     C 7550   4.289   4.679   6.432  0.2362 -0.7199  0.2937
   58MOL0     C 7551   4.329   4.560   6.492 -1.3543 -0.3815 -0.1704
   58MOL0     C 7552   4.397   4.464   6.425  1.1769  0.0588  0.9573
   58MOL0     C 7553   4.456   4.342   6.495 -0.2217  0.8904 -0.8975
   58MOL0     O 7554   4.439   4.334   6.629  0.2019 -0.0199  0.2414
   58MOL0     C 7555   4.460   4.205   6.678  0.2448 -0.1889  0.4852
   58MOL0     C 7556   4.344   4.130   6.691 -0.3490  0.7203 -0.8007
   58MOL0     C 7557   4.338   4.010   6.759  0.0660 -0.6797  0.1054
   58MOL0     C 7558   4.456   3.961   6.814 -0.4907  0.1910 -0.0866
   58MOL0     O 7559   4.485   3.838   6.865  0.9993  0.5035 -0.1732
   58MOL0     C 7560   4.374   3.799   6.940  0.0854  0.2102 -0.8900
   58MOL0     C 7561   4.401   3.698   7.050 -0.0025 -0.2393  1.4871
   58MOL0     C 7562   4.463   3.566   7.003  0.1889 -0.1732  0.6220
   58MOL0     C 7563   4.445   3.462   7.109 -0.3037  0.2140 -0.1586
   58MOL0     C 7564   4.508   3.326   7.060 -0.3909  0.3631 -0.4973
   58MOL0     C 7565   4.463   3.221   7.161 -0.9774  0.0051 -0.3042
   58MOL0     C 7566   4.549   3.226   7.290  0.9141 -0.8201 -0.0041
   58MOL0     C 7567   4.521   3.104   7.387 -1.2479  0.4905  0.2131
   58MOL0    Cl 7568   4.636   2.970   7.334  0.1763 -0.1798 -0.0904
   58MOL0     C 7569   4.574   4.049   6.819 -0.4760 -0.1228  0.4452
   58MOL0     C 7570   4.569   4.175   6.756 -0.1613 -0.0641 -1.0198
   58MOL0     O 7571   4.529   4.268   6.432  0.3446  0.1415  0.2306
   58MOL0     C 7572   4.447   4.498   6.298  0.4100  0.9409  0.6326
   58MOL0     C 7573   4.420   4.626   6.236 -0.3922  0.5706 -0.6221
   58MOL0     N 7574   3.854   4.978   5.882  0.2371  0.0932  0.4815
   58MOL0     N 7575   3.801   4.912   5.787  0.2395  0.5245 -0.0190
   58MOL0     C 7576   4.132   4.425   4.793 -0.3261  0.1804 -0.5856
   58MOL0     C 7577   4.247   4.457   4.722 -0.0732  0.0090 -1.1418
   58MOL0     C 7578   4.697   4.479   4.636  0.2674  0.5512 -0.1395
   58MOL0     C 7579   4.829   4.433   4.654 -0.0892  0.4640 -0.8533
   58MOL0     C 7580   4.919   4.436   4.559 -0.7545  0.4189 -0.7490
   58MOL0     C 7581   4.901   4.496   4.435  0.0465 -0.7732 -0.4248
   58MOL0     O 7582   4.981   4.518   4.325  0.3338 -0.4142 -0.1502
   58MOL0     C 7583   5.111   4.460   4.317  0.6080  0.1255 -0.3188
   58MOL0     C 7584   5.174   4.514   4.188 -0.3267  0.2554  0.8841
   58MOL0     C 7585   5.312   4.430   4.170  0.7178  0.0044 -0.4798
   58MOL0     C 7586   5.400   4.498   4.078  0.0741 -0.7576  0.0146
   58MOL0     C 7587   5.520   4.424   4.050  0.0694 -0.7116 -0.2583
   58MOL0     C 7588   5.624   4.374   4.028 -0.9707  1.0784  0.6394
   58MOL0     C 7589   4.768   4.549   4.410  0.0555  0.0581 -0.8571
   58MOL0     C 7590   4.664   4.525   4.510  1.4757 -0.2971 -0.8381
   58MOL0     H 7591   4.440   4.569   4.976  0.8490  2.8386 -3.1860
   58MOL0     H 7592   4.239   4.543   5.093 -0.6433  0.3067 -0.6821
   58MOL0     H 7593   3.977   4.576   5.154  1.6031 -0.0685  1.4959
   58MOL0     H 7594   4.064   4.429   5.181 -1.3204 -0.8876  0.2180
   58MOL0     H 7595   3.859   4.294   5.126  1.3943  0.4069 -1.1674
   58MOL0     H 7596   3.777   4.439   5.108  1.5104  2.2838  0.9982
   58MOL0     H 7597   3.930   4.386   5.367  1.0654 -2.0112 -1.4324
   58MOL0     H 7598   3.763   4.329   5.344  1.2166 -0.4052  0.0416
   58MOL0     H 7599   3.843   4.620   5.286  0.9540 -1.4177  0.4861
   58MOL0     H 7600   3.686   4.574   5.338  0.6487  0.2839  0.1627
   58MOL0     H 7601   3.819   4.695   5.516 -0.3094 -1.4905  4.3060
   58MOL0     H 7602   3.954   4.591   5.482 -0.8939  0.4143 -4.1698
   58MOL0     H 7603   3.857   4.411   5.616  0.8988  0.2626  0.4911
   58MOL0     H 7604   3.690   4.469   5.602  0.4642 -1.6346  2.3594
   58MOL0     H 7605   3.804   4.479   5.811 -0.2291 -0.7091 -0.0560
   58MOL0     H 7606   3.925   4.596   5.746  0.6856 -1.4942 -0.1477
   58MOL0     H 7607   3.635   4.643   5.823  2.5698 -2.9222  1.2946
   58MOL0     H 7608   3.700   4.724   5.670  2.3257  2.9281  0.3485
   58MOL0     H 7609   3.807   4.697   6.043 -3.8900  0.8777 -0.6456
   58MOL0     H 7610   3.873   5.018   6.164  0.5092 -0.0864  0.7123
   58MOL0     H 7611   4.031   5.017   6.078 -0.3423 -0.5877 -0.0505
   58MOL0     H 7612   4.068   4.780   6.152  0.2156 -1.1818  1.7078
   58MOL0     H 7613   3.922   4.805   6.242 -1.2254 -1.8658 -4.2635
   58MOL0     H 7614   4.051   5.022   6.325 -1.6004 -1.1920  1.5599
   58MOL0     H 7615   4.078   4.874   6.412  0.7799  0.4997 -0.1745
   58MOL0     H 7616   4.298   4.962   6.373 -0.2376  0.5828  0.3697
   58MOL0     H 7617   4.253   5.023   6.213  0.0268 -0.3849  0.9059
   58MOL0     H 7618   4.219   4.741   6.487 -1.5398 -1.6491 -0.8363
   58MOL0     H 7619   4.291   4.560   6.594  0.5944  0.2813  0.5960
   58MOL0     H 7620   4.252   4.166   6.646  0.1384  1.0144 -1.6032
   58MOL0     H 7621   4.248   3.951   6.746  1.3248 -3.1267  1.6887
   58MOL0     H 7622   4.299   3.758   6.871  0.1404 -0.6718 -0.4353
   58MOL0     H 7623   4.314   3.874   6.993 -0.6470 -1.2224  0.3745
   58MOL0     H 7624   4.301   3.670   7.086 -2.6344 -0.5499 -4.7453
   58MOL0     H 7625   4.468   3.732   7.130 -0.1187  0.4212  1.3063
   58MOL0     H 7626   4.572   3.575   6.996  0.6061 -1.9998  3.2507
   58MOL0     H 7627   4.416   3.528   6.911  1.2103  1.0216 -0.4284
   58MOL0     H 7628   4.495   3.493   7.201 -0.1526 -0.8489  0.1346
   58MOL0     H 7629   4.338   3.443   7.119  0.0909 -0.7337  4.0278
   58MOL0     H 7630   4.617   3.328   7.049 -0.2846  2.3493  0.4037
   58MOL0     H 7631   4.460   3.305   6.963 -2.4485 -0.9254  0.7194
   58MOL0     H 7632   4.476   3.125   7.110  0.3547 -0.0888  0.1618
   58MOL0     H 7633   4.357   3.235   7.181 -0.8461  2.2896 -0.9710
   58MOL0     H 7634   4.653   3.225   7.257  0.8892 -2.2719 -0.1035
   58MOL0     H 7635   4.525   3.324   7.333 -3.0067 -0.0836 -3.2444
   58MOL0     H 7636   4.419   3.068   7.377 -1.7426  2.4734 -4.1383
   58MOL0     H 7637   4.526   3.121   7.495 -0.6535  1.4096  0.0570
   58MOL0     H 7638   4.673   4.028   6.858  0.7264 -0.3385 -2.4232
   58MOL0     H 7639   4.664   4.228   6.753 -0.3763  0.4130  0.2753
   58MOL0     H 7640   4.515   4.436   6.241  0.6621  1.0771  0.7826
   58MOL0     H 7641   4.442   4.650   6.133  1.5428  0.0286 -0.3771
   58MOL0     H 7642   4.044   4.383   4.745 -1.3670 -0.4636  1.7500
   58MOL0     H 7643   4.249   4.443   4.614 -1.5383  1.4133 -1.3912
   58MOL0     H 7644   4.861   4.382   4.745  0.6351  4.2004  1.1934
   58MOL0     H 7645   5.020   4.397   4.569 -0.3058  0.5800 -3.6779
   58MOL0     H 7646   5.095   4.352   4.308 -3.0632  0.5354 -0.1267
   58MOL0     H 7647   5.165   4.496   4.406  0.2965 -3.4403  1.5160
   58MOL0     H 7648   5.105   4.499   4.104  0.6867  0.8319 -0.0692
   58MOL0     H 7649   5.193   4.622   4.189  1.3380  0.0019  2.1229
   58MOL0     H 7650   5.297   4.327   4.137  1.3453  0.4935 -2.4027
   58MOL0     H 7651   5.380   4.424   4.256  2.9632 -0.6447 -2.1894
   58MOL0     H 7652   5.346   4.524   3.987  0.7329 -0.8552 -0.4139
   58MOL0     H 7653   5.431   4.597   4.112  2.3336 -0.1229 -3.3985
   58MOL0     H 7654   5.723   4.344   4.000 -2.4515 -0.6733 -3.3970
   58MOL0     H 7655   4.743   4.585   4.311 -1.6967 -1.9097 -1.2080
   58MOL0     H 7656   4.559   4.552   4.500  0.9718  0.5989  4.2224
   59MOL0     O 7657   4.850  11.073  10.839  0.2153 -0.2975  0.7708
   59MOL0     C 7658   4.940  11.158  10.836  1.0590  0.1644 -0.1538
   59MOL0     O 7659   4.933  11.282  10.793  0.5442 -0.1423  0.1641
   59MOL0     C 7660   4.814  11.320  10.723  0.0950 -0.5088 -0.8178
   59MOL0     C 7661   4.750  11.243  10.629  0.6309  0.0578  0.2145
   59MOL0     C 7662   4.630  11.285  10.566  0.1452  0.0537 -0.4912
   59MOL0     C 7663   4.590  11.415  10.577  1.1816  0.2610 -0.6246
   59MOL0     O 7664   4.486  11.461  10.501  0.2302  1.0473  0.7298
   59MOL0     C 7665   4.407  11.581  10.519 -0.3615 -0.7922 -0.4238
   59MOL0     C 7666   4.343  11.639  10.399 -1.3294 -0.0533 -1.0592
   59MOL0     C 7667   4.223  11.547  10.363 -1.2074  0.5462 -0.4905
   59MOL0     C 7668   4.149  11.597  10.240 -0.1774 -0.0764  0.5146
   59MOL0     C 7669   4.107  11.741  10.255  1.1455 -0.3451 -0.5176
   59MOL0     C 7670   4.016  11.780  10.374  0.5671  0.3972 -1.6131
   59MOL0     C 7671   4.062  11.918  10.432  0.7006 -0.4586  0.7053
   59MOL0     C 7672   3.950  11.998  10.493  0.6553 -0.7121  1.0685
   59MOL0     N 7673   3.888  11.928  10.610 -0.4999  0.2026 -0.4012
   59MOL0     C 7674   3.936  11.917  10.738  0.0790 -0.0180 -0.5363
   59MOL0     C 7675   3.853  11.830  10.807  0.2620 -0.0035  0.0968
   59MOL0     C 7676   3.867  11.776  10.947 -0.5603 -0.6287 -0.4928
   59MOL0     C 7677   3.741  11.700  10.980 -0.0589  1.1303  0.5517
   59MOL0     C 7678   3.709  11.694  11.128  1.1562  0.7646 -0.4903
   59MOL0     C 7679   3.811  11.610  11.209 -0.6110 -0.4126 -0.1148
   59MOL0     O 7680   3.833  11.472  11.173 -0.2019 -0.2745 -0.2076
   59MOL0     C 7681   3.934  11.414  11.243  0.0462  0.2551  0.0381
   59MOL0     C 7682   3.992  11.298  11.191  1.0343 -0.7865 -0.4371
   59MOL0     C 7683   4.099  11.239  11.241  0.7528  0.5713  0.4446
   59MOL0     C 7684   4.145  11.270  11.368 -0.5679  0.2612 -0.0394
   59MOL0     C 7685   4.252  11.186  11.435 -1.6287 -0.2832 -0.1469
   59MOL0     O 7686   4.309  11.241  11.549  0.2901  0.1685 -0.6808
   59MOL0     C 7687   4.436  11.219  11.588  0.1750 -0.0583 -0.0493
   59MOL0     C 7688   4.543  11.209  11.499 -1.0815 -0.6367  0.0001
   59MOL0     C 7689   4.672  11.182  11.550  0.1078  0.5175  0.1986
   59MOL0     C 7690   4.675  11.165  11.694 -0.0212 -0.7215  0.1442
   59MOL0     O 7691   4.792  11.132  11.762  0.3533  0.9571 -0.3724
   59MOL0     C 7692   4.907  11.091  11.684  0.8616 -0.3273  0.8119
   59MOL0     C 7693   5.014  11.055  11.785  0.7754  0.0179  0.7329
   59MOL0     C 7694   5.041  11.159  11.892  0.1941 -0.2417  0.3043
   59MOL0     C 7695   5.153  11.115  11.983  0.1749  0.2155 -0.2420
   59MOL0     C 7696   5.293  11.139  11.927 -0.3263  0.1896  0.7695
   59MOL0     C 7697   5.418  11.094  12.019  0.6684 -0.4837  0.1246
   59MOL0     C 7698   5.547  11.094  11.930 -0.3003  0.4360  0.7800
   59MOL0     C 7699   5.666  11.095  12.020  0.2911 -0.2276 -0.7370
   59MOL0    Cl 7700   5.832  11.069  11.945 -0.0773  0.1128  0.2840
   59MOL0     C 7701   4.569  11.182  11.777  0.0049  0.3889  0.4743
   59MOL0     C 7702   4.447  11.213  11.725 -0.7737  0.7652 -0.8227
   59MOL0     O 7703   4.282  11.075  11.392  0.3882 -0.1451  0.6022
   59MOL0     C 7704   4.089  11.382  11.429  0.4502 -0.0719 -0.3288
   59MOL0     C 7705   3.984  11.454  11.365 -0.0713  0.4106  0.7509
   59MOL0     N 7706   3.752  11.792  10.714 -0.6346 -0.4513 -0.4247
   59MOL0     N 7707   3.783  11.846  10.608 -0.3847 -1.0037  0.6465
   59MOL0     C 7708   4.662  11.502  10.659 -0.2824 -0.3254 -0.1673
   59MOL0     C 7709   4.775  11.458  10.732  0.6145 -0.2378 -0.3755
   59MOL0     C 7710   5.059  11.098  10.889 -1.0000 -0.1350  1.0193
   59MOL0     C 7711   5.169  11.180  10.919  0.0176  0.6470  0.1019
   59MOL0     C 7712   5.295  11.136  10.946  0.2526  0.9617 -0.7822
   59MOL0     C 7713   5.311  10.994  10.969  0.6536  0.1025 -0.0868
   59MOL0     O 7714   5.434  10.935  10.986 -0.1279 -0.6266  0.6999
   59MOL0     C 7715   5.549  11.015  11.030 -0.5046 -0.2605 -0.4745
   59MOL0     C 7716   5.633  11.073  10.917 -0.8300  0.2891 -0.1635
   59MOL0     C 7717   5.788  11.090  10.957 -0.6690  0.2549  0.2515
   59MOL0     C 7718   5.877  10.961  10.930  0.0760 -0.3471 -0.6125
   59MOL0     C 7719   6.016  11.009  10.958 -1.4776  0.1760  0.6978
   59MOL0     C 7720   6.133  11.036  10.977 -0.1766  0.6587 -0.0722
   59MOL0     C 7721   5.204  10.910  10.954  0.1972 -0.6070 -0.4405
   59MOL0     C 7722   5.078  10.959  10.914  0.0526  0.0129  0.3161
   59MOL0     H 7723   4.775  11.142  10.600  0.9038  0.3099 -0.4457
   59MOL0     H 7724   4.572  11.218  10.503 -4.8177  0.3539  3.1469
   59MOL0     H 7725   4.476  11.663  10.540  1.8487 -3.0742  1.9567
   59MOL0     H 7726   4.333  11.571  10.599 -0.0466  0.9929  0.1368
   59MOL0     H 7727   4.419  11.654  10.321 -0.7623  2.2934 -0.1365
   59MOL0     H 7728   4.305  11.738  10.426 -3.5638 -1.2222  0.3863
   59MOL0     H 7729   4.161  11.534  10.453  4.3787  2.7657  4.3651
   59MOL0     H 7730   4.263  11.449  10.337 -0.4152  1.4292 -2.8264
   59MOL0     H 7731   4.225  11.598  10.162  0.5919  1.0729  1.2521
   59MOL0     H 7732   4.058  11.539  10.218 -1.0763  0.5001  2.4589
   59MOL0     H 7733   4.051  11.761  10.163 -0.9117 -3.4817 -0.0947
   59MOL0     H 7734   4.193  11.808  10.248  1.2277 -0.6406 -4.2976
   59MOL0     H 7735   4.024  11.713  10.460  1.8728  1.7803 -0.6125
   59MOL0     H 7736   3.908  11.772  10.357  0.7466 -1.0896 -2.2359
   59MOL0     H 7737   4.138  11.893  10.507  0.7994 -3.0054 -0.1324
   59MOL0     H 7738   4.106  11.977  10.351 -0.4951  0.4759  0.7233
   59MOL0     H 7739   3.876  12.027  10.417  2.5488 -1.9629 -1.4070
   59MOL0     H 7740   3.997  12.086  10.537 -1.0138  0.0906  1.3406
   59MOL0     H 7741   4.019  11.978  10.771 -1.8119  2.4271  0.0017
   59MOL0     H 7742   3.870  11.864  11.013 -1.1560  0.1541 -1.4864
   59MOL0     H 7743   3.961  11.720  10.953  1.0953  2.0371  0.0888
   59MOL0     H 7744   3.762  11.604  10.932 -1.2293  0.8488  0.5802
   59MOL0     H 7745   3.647  11.739  10.941 -1.3870 -2.4480 -0.1661
   59MOL0     H 7746   3.687  11.794  11.166 -3.6572 -0.6062  1.0470
   59MOL0     H 7747   3.610  11.647  11.132  0.3855  2.4080  2.2377
   59MOL0     H 7748   3.774  11.617  11.312 -0.3923 -0.0214 -0.0625
   59MOL0     H 7749   3.908  11.660  11.207 -0.4961 -0.6371 -0.1825
   59MOL0     H 7750   3.950  11.271  11.095  1.0563  1.6115 -1.1889
   59MOL0     H 7751   4.147  11.157  11.189  4.4686  0.3926  3.7035
   59MOL0     H 7752   4.527  11.218  11.392  0.3105 -2.2673 -0.3748
   59MOL0     H 7753   4.761  11.171  11.488 -1.1763 -1.6706 -1.3952
   59MOL0     H 7754   4.943  11.176  11.625 -1.8082 -0.6882 -1.5549
   59MOL0     H 7755   4.879  11.003  11.626 -0.8818  0.1154  0.9230
   59MOL0     H 7756   5.102  11.035  11.723 -0.5039  0.2870 -1.2702
   59MOL0     H 7757   4.990  10.963  11.840  0.9448  1.2685  2.9825
   59MOL0     H 7758   4.950  11.165  11.952 -0.6511  0.1457 -0.9889
   59MOL0     H 7759   5.067  11.253  11.843  1.5580  0.2768  1.8984
   59MOL0     H 7760   5.131  11.149  12.084 -1.5195  0.8008 -0.7820
   59MOL0     H 7761   5.152  11.006  11.992 -1.7672  0.2054 -0.2460
   59MOL0     H 7762   5.306  11.246  11.910  0.9089 -0.1458 -0.7399
   59MOL0     H 7763   5.301  11.086  11.831 -2.5933  1.3586 -0.1372
   59MOL0     H 7764   5.388  10.994  12.050 -2.8236  0.2842 -0.4394
   59MOL0     H 7765   5.419  11.166  12.101 -1.1748  0.5056 -0.6844
   59MOL0     H 7766   5.544  10.997  11.878  1.7310  1.4031 -1.3200
   59MOL0     H 7767   5.560  11.168  11.851 -3.6275 -2.0571 -2.4589
   59MOL0     H 7768   5.656  11.014  12.093  1.0446 -0.4606 -0.8815
   59MOL0     H 7769   5.672  11.187  12.079  1.5007 -0.9942  0.4064
   59MOL0     H 7770   4.579  11.181  11.885 -1.3491  1.6841  0.6541
   59MOL0     H 7771   4.355  11.234  11.778 -0.5139  1.0311 -0.4724
   59MOL0     H 7772   4.121  11.416  11.526  0.9600  0.6873 -0.7540
   59MOL0     H 7773   3.952  11.544  11.416 -0.0422 -0.4450  2.3346
   59MOL0     H 7774   4.650  11.610  10.665  0.0079 -0.3081  0.1621
   59MOL0     H 7775   4.836  11.527  10.789  0.2223  0.7483 -1.1226
   59MOL0     H 7776   5.158  11.288  10.916 -2.9791  0.4243 -1.2542
   59MOL0     H 7777   5.379  11.204  10.961 -1.4720  3.0067  0.0732
   59MOL0     H 7778   5.614  10.944  11.082  1.1547  0.3868 -1.5911
   59MOL0     H 7779   5.516  11.094  11.098 -1.7395  0.8552 -2.2754
   59MOL0     H 7780   5.623  11.014  10.826  2.0193 -0.0838 -0.3232
   59MOL0     H 7781   5.580  11.165  10.892  0.5358  0.5176 -2.4964
   59MOL0     H 7782   5.790  11.124  11.061 -2.0300 -1.2440  0.8152
   59MOL0     H 7783   5.831  11.172  10.900 -0.8383  0.9924  1.1600
   59MOL0     H 7784   5.853  10.878  10.997  0.6894 -1.7608 -2.0687
   59MOL0     H 7785   5.873  10.921  10.828  2.2974 -1.2880 -0.3927
   59MOL0     H 7786   6.238  11.056  10.979 -0.3010  1.3580  1.5287
   59MOL0     H 7787   5.209  10.802  10.960 -1.1582 -0.6778 -0.3537
   59MOL0     H 7788   5.005  10.879  10.908  1.7069 -1.5415 -0.1561
   60MOL0     O 7789   9.780  10.114   8.205 -0.0177 -0.6433  0.1453
   60MOL0     C 7790   9.874  10.194   8.220  0.1838 -0.2385 -0.5117
   60MOL0     O 7791   9.936  10.270   8.119  0.1567  0.1129 -0.7781
   60MOL0     C 7792   9.930  10.224   7.991  0.1020 -0.8423 -0.0236
   60MOL0     C 7793  10.013  10.116   7.944  0.5831  0.1616  0.3897
   60MOL0     C 7794   9.995  10.068   7.813 -0.6247 -0.8414  0.1334
   60MOL0     C 7795   9.895  10.123   7.727  0.5223 -0.2941 -0.5566
   60MOL0     O 7796   9.867  10.065   7.612 -0.1065 -0.5594 -0.7835
   60MOL0     C 7797   9.901   9.931   7.590  0.1040  1.1034 -0.4344
   60MOL0     C 7798   9.826   9.890   7.459 -0.3858  0.4054 -0.3732
   60MOL0     C 7799   9.869   9.750   7.415 -0.3340 -0.1660 -0.4046
   60MOL0     C 7800  10.011   9.748   7.340 -0.3281 -0.2752  0.0712
   60MOL0     C 7801  10.039   9.617   7.263  0.5293  0.4057  0.6301
   60MOL0     C 7802   9.925   9.514   7.228  0.2505 -0.4202 -0.6374
   60MOL0     C 7803   9.840   9.554   7.114  0.7859 -0.5338 -0.1393
   60MOL0     C 7804   9.903   9.547   6.976 -0.5087  0.4515  0.6273
   60MOL0     N 7805   9.798   9.516   6.878  0.8268  0.8097  0.6324
   60MOL0     C 7806   9.745   9.387   6.856  0.6761 -0.1273 -0.3457
   60MOL0     C 7807   9.649   9.392   6.755 -0.2794  0.6581  0.0656
   60MOL0     C 7808   9.566   9.281   6.706  0.0458  0.6232  0.1152
   60MOL0     C 7809   9.656   9.183   6.622 -0.0133 -0.4472 -0.1659
   60MOL0     C 7810   9.589   9.041   6.601 -0.0441  1.1843 -0.0397
   60MOL0     C 7811   9.651   8.933   6.685  0.2300 -0.0963 -0.3932
   60MOL0     O 7812   9.610   8.800   6.654  0.4711  0.7575 -0.0735
   60MOL0     C 7813   9.497   8.751   6.699  0.4334 -0.4685  1.2638
   60MOL0     C 7814   9.463   8.617   6.667 -0.0688 -0.1007 -0.2358
   60MOL0     C 7815   9.355   8.560   6.731 -0.8815 -0.5065  0.6347
   60MOL0     C 7816   9.267   8.631   6.803  0.2619  0.0655  0.6996
   60MOL0     C 7817   9.143   8.564   6.849 -0.2961 -0.7675  0.0240
   60MOL0     O 7818   9.134   8.427   6.839 -0.9585  0.6390  0.4797
   60MOL0     C 7819   9.018   8.372   6.811  0.5844  0.5941  0.4255
   60MOL0     C 7820   8.914   8.426   6.732  0.8624 -0.1365  0.4455
   60MOL0     C 7821   8.790   8.366   6.709 -0.0335 -0.2707 -0.3386
   60MOL0     C 7822   8.766   8.248   6.766 -0.0829 -0.3171  0.4154
   60MOL0     O 7823   8.638   8.189   6.761  0.4982 -0.0478  0.1205
   60MOL0     C 7824   8.534   8.266   6.831  0.6669 -0.2254 -0.1145
   60MOL0     C 7825   8.541   8.236   6.984  0.3260 -0.0579  0.2051
   60MOL0     C 7826   8.605   8.342   7.075 -0.5135  0.5518 -0.5236
   60MOL0     C 7827   8.631   8.271   7.201  0.6553  0.3304 -0.0505
   60MOL0     C 7828   8.662   8.363   7.323  0.3394  0.7595 -0.0602
   60MOL0     C 7829   8.767   8.476   7.281 -0.0575 -0.6613  0.2869
   60MOL0     C 7830   8.911   8.432   7.244  0.4456  1.4284 -0.1654
   60MOL0     C 7831   8.983   8.533   7.164 -0.5123  0.1594 -0.5069
   60MOL0    Cl 7832   8.990   8.682   7.258 -0.0067  0.1188  0.0401
   60MOL0     C 7833   8.861   8.183   6.840 -0.5762  0.6778 -0.7102
   60MOL0     C 7834   8.985   8.246   6.866 -0.0253 -0.5797  0.2954
   60MOL0     O 7835   9.052   8.643   6.879 -0.3144 -0.1641  0.1789
   60MOL0     C 7836   9.295   8.768   6.832 -0.1890  0.0091 -0.4341
   60MOL0     C 7837   9.403   8.826   6.774  0.0047  0.6570  0.7457
   60MOL0     N 7838   9.645   9.526   6.721 -0.3970  0.0767 -0.4724
   60MOL0     N 7839   9.724   9.596   6.797  1.0202  0.8751 -0.5786
   60MOL0     C 7840   9.814  10.235   7.776  0.4803  0.1280 -0.0707
   60MOL0     C 7841   9.840  10.287   7.906  1.2040 -0.3464  1.0049
   60MOL0     C 7842   9.912  10.215   8.361  0.0776 -0.7189 -0.0803
   60MOL0     C 7843   9.826  10.176   8.463 -0.3783 -0.1702  0.8608
   60MOL0     C 7844   9.866  10.186   8.605  0.2407  0.2197  0.6353
   60MOL0     C 7845   9.993  10.246   8.640  0.2857  0.2621 -0.4558
   60MOL0     O 7846  10.006  10.271   8.777 -1.1304  0.1355  0.8602
   60MOL0     C 7847  10.089  10.385   8.809  0.5470 -0.8631  0.3017
   60MOL0     C 7848  10.115  10.384   8.963 -0.5889 -0.0919  0.2489
   60MOL0     C 7849  10.188  10.524   8.985  0.7863  0.3411 -0.7299
   60MOL0     C 7850  10.279  10.524   9.111  0.3335 -0.4949 -0.5276
   60MOL0     C 7851  10.192  10.529   9.229  0.2137  0.3754  0.3786
   60MOL0     C 7852  10.106  10.535   9.307 -0.0152 -0.1880 -0.1880
   60MOL0     C 7853  10.065  10.300   8.536 -1.0163 -0.5900  0.2271
   60MOL0     C 7854  10.029  10.285   8.399  0.5691  0.9360 -0.7558
   60MOL0     H 7855  10.088  10.086   8.016 -0.4834  2.7041  2.7482
   60MOL0     H 7856  10.048   9.982   7.773 -2.3634 -0.5630 -3.1513
   60MOL0     H 7857   9.869   9.871   7.675  0.5041  0.9964 -0.3578
   60MOL0     H 7858  10.010   9.932   7.580  0.4238 -1.7875  1.6122
   60MOL0     H 7859   9.849   9.968   7.386 -1.1193  1.4827  0.5061
   60MOL0     H 7860   9.718   9.882   7.471 -0.2878 -0.7687 -0.1487
   60MOL0     H 7861   9.790   9.715   7.347 -0.7521  1.3435 -0.7397
   60MOL0     H 7862   9.873   9.674   7.493  1.4676  0.8761  0.5982
   60MOL0     H 7863  10.019   9.836   7.276  0.0895 -0.7571 -0.5430
   60MOL0     H 7864  10.095   9.755   7.410 -1.0876  2.2112  0.8527
   60MOL0     H 7865  10.115   9.564   7.321  2.0788  2.3792  0.5072
   60MOL0     H 7866  10.088   9.654   7.172 -2.3329 -1.5031 -1.8551
   60MOL0     H 7867   9.855   9.505   7.311 -0.0413  2.6889 -0.4424
   60MOL0     H 7868   9.980   9.419   7.231 -2.6103 -2.2060  3.3146
   60MOL0     H 7869   9.758   9.483   7.115  0.5223 -0.2314 -0.2528
   60MOL0     H 7870   9.797   9.653   7.129 -0.4382 -0.5255 -3.0723
   60MOL0     H 7871   9.978   9.469   6.963 -3.5075 -2.1873 -2.9086
   60MOL0     H 7872   9.941   9.646   6.949 -6.4311  2.8867 -0.4038
   60MOL0     H 7873   9.776   9.300   6.912 -1.3965 -0.1453  0.8627
   60MOL0     H 7874   9.485   9.325   6.646  2.0590  2.0096 -1.7252
   60MOL0     H 7875   9.511   9.234   6.788 -0.7874  0.9602 -0.2301
   60MOL0     H 7876   9.748   9.170   6.680  2.3836  1.5537 -3.2000
   60MOL0     H 7877   9.680   9.225   6.523 -4.9046 -0.3038 -1.5727
   60MOL0     H 7878   9.482   9.047   6.625 -0.0581  1.0001 -0.0504
   60MOL0     H 7879   9.600   9.019   6.494  2.1699 -1.4456  0.6268
   60MOL0     H 7880   9.636   8.960   6.790  2.2245 -1.3866  0.2856
   60MOL0     H 7881   9.757   8.929   6.658  0.5482 -0.5521  0.8674
   60MOL0     H 7882   9.531   8.560   6.605  0.9972 -0.8278  1.5134
   60MOL0     H 7883   9.331   8.461   6.694 -2.7194 -0.9014  2.6927
   60MOL0     H 7884   8.929   8.525   6.691 -1.5768  1.1607  2.4023
   60MOL0     H 7885   8.716   8.409   6.642  2.0515  0.4484 -2.3200
   60MOL0     H 7886   8.432   8.238   6.806  0.2929 -0.6832  1.7295
   60MOL0     H 7887   8.554   8.373   6.822  1.2228 -0.3466 -0.4059
   60MOL0     H 7888   8.600   8.145   7.000  0.9540  0.2202 -0.5178
   60MOL0     H 7889   8.442   8.218   7.026  1.3151 -5.3448  0.9258
   60MOL0     H 7890   8.533   8.423   7.078 -0.4454  0.6094 -0.4224
   60MOL0     H 7891   8.696   8.383   7.031  0.7332 -0.7055  0.7665
   60MOL0     H 7892   8.553   8.200   7.229  1.3976 -0.4020  0.1784
   60MOL0     H 7893   8.720   8.211   7.183 -0.5549 -1.9548  1.1256
   60MOL0     H 7894   8.702   8.297   7.401 -1.7849  1.8763  2.1142
   60MOL0     H 7895   8.571   8.403   7.369  0.1259 -1.6995  1.8401
   60MOL0     H 7896   8.774   8.528   7.376 -3.8060 -3.0371  2.1127
   60MOL0     H 7897   8.725   8.535   7.199 -3.1988 -1.3801  1.2391
   60MOL0     H 7898   8.956   8.423   7.343  1.4470  3.9583 -0.3285
   60MOL0     H 7899   8.904   8.340   7.185  0.0223  3.2332 -3.1203
   60MOL0     H 7900   8.933   8.543   7.067  1.7901  0.9287 -1.6910
   60MOL0     H 7901   9.086   8.501   7.149 -0.1106  0.8037  0.7938
   60MOL0     H 7902   8.859   8.083   6.882  2.4500  0.8711  0.0759
   60MOL0     H 7903   9.056   8.184   6.920 -0.3546 -0.5296  0.8002
   60MOL0     H 7904   9.236   8.833   6.896  2.0628 -0.5388  2.3813
   60MOL0     H 7905   9.406   8.935   6.782 -1.0751  0.7030  0.6865
   60MOL0     H 7906   9.748  10.293   7.713 -1.4725 -2.0834 -0.1718
   60MOL0     H 7907   9.789  10.380   7.931 -1.1671  0.5569 -5.2433
   60MOL0     H 7908   9.738  10.116   8.438  0.4813 -0.2402 -2.4369
   60MOL0     H 7909   9.787  10.151   8.672 -1.8125  2.3989 -0.5186
   60MOL0     H 7910  10.027  10.474   8.792  0.4844 -1.1141 -0.8278
   60MOL0     H 7911  10.184  10.398   8.755 -0.0410  2.8035 -0.1287
   60MOL0     H 7912  10.019  10.383   9.015  0.6052 -1.0600  2.6212
   60MOL0     H 7913  10.187  10.304   8.981 -0.5240 -0.6753 -2.2220
   60MOL0     H 7914  10.103  10.592   8.997 -1.5200 -2.5551  0.5406
   60MOL0     H 7915  10.244  10.560   8.898 -2.4713  2.4753 -2.1234
   60MOL0     H 7916  10.339  10.433   9.120  2.5425  0.8719 -0.6149
   60MOL0     H 7917  10.357  10.601   9.115  0.8021 -1.0293  1.5665
   60MOL0     H 7918  10.031  10.547   9.383  2.0206  0.2029  1.8570
   60MOL0     H 7919  10.145  10.369   8.559  1.2227 -2.2146 -2.1469
   60MOL0     H 7920  10.100  10.335   8.334  1.8346  0.5702  0.2907
   61MOL0     O 7921   2.392   7.646   7.788  0.4328 -0.3444 -0.4625
   61MOL0     C 7922   2.423   7.533   7.744 -0.7617 -0.1529  0.2885
   61MOL0     O 7923   2.354   7.417   7.782 -0.3842  0.1856 -0.1207
   61MOL0     C 7924   2.247   7.433   7.866 -0.9785  0.3352 -0.9711
   61MOL0     C 7925   2.117   7.427   7.818 -0.0055  0.9056 -1.2139
   61MOL0     C 7926   1.999   7.420   7.894 -0.1924 -0.8340  0.1051
   61MOL0     C 7927   2.016   7.446   8.029 -0.1258  0.4410 -1.3113
   61MOL0     O 7928   1.909   7.466   8.116 -0.3846 -0.2518  0.3587
   61MOL0     C 7929   1.793   7.518   8.055 -0.1297  0.1221 -1.4809
   61MOL0     C 7930   1.717   7.566   8.176  0.8588 -0.2514  0.0031
   61MOL0     C 7931   1.586   7.639   8.123  0.5923  0.3680  0.4710
   61MOL0     C 7932   1.507   7.683   8.246 -0.0689  0.6725  1.3699
   61MOL0     C 7933   1.386   7.771   8.218  0.4103  0.1712  0.3624
   61MOL0     C 7934   1.266   7.686   8.190  0.0200  0.0488  0.3683
   61MOL0     C 7935   1.143   7.771   8.193 -0.0761  0.2077 -0.1899
   61MOL0     C 7936   1.023   7.686   8.151  0.7483  0.0890 -0.2765
   61MOL0     N 7937   0.891   7.755   8.165 -0.0218 -0.8594 -0.4108
   61MOL0     C 7938   0.776   7.692   8.139  0.7521  0.5097  0.0385
   61MOL0     C 7939   0.680   7.789   8.159 -0.5857  0.1007  0.5723
   61MOL0     C 7940   0.530   7.765   8.151 -0.7518 -0.5120 -1.6566
   61MOL0     C 7941   0.463   7.832   8.272  0.2905  0.2555  0.4331
   61MOL0     C 7942   0.303   7.824   8.278 -0.2509 -0.0447  0.2985
   61MOL0     C 7943   0.253   7.705   8.358 -0.2886  0.6204 -0.4082
   61MOL0     O 7944   0.155   7.742   8.457 -0.0002 -0.4898  0.7933
   61MOL0     C 7945   0.045   7.664   8.474 -0.0995  0.8496  0.2350
   61MOL0     C 7946  -0.028   7.691   8.588 -0.1471  0.0506  0.7324
   61MOL0     C 7947  -0.147   7.633   8.612  0.9209  0.1550 -0.5075
   61MOL0     C 7948  -0.193   7.530   8.530  0.0573  0.3199 -0.1125
   61MOL0     C 7949  -0.322   7.453   8.559  0.0243  0.3277  0.2533
   61MOL0     O 7950  -0.344   7.333   8.508  0.1400  0.3717  0.4033
   61MOL0     C 7951  -0.462   7.276   8.548 -1.0109 -0.0438 -1.3024
   61MOL0     C 7952  -0.463   7.200   8.666 -0.4889  0.8803  1.3845
   61MOL0     C 7953  -0.563   7.112   8.695  0.4724 -0.6398  0.9003
   61MOL0     C 7954  -0.670   7.108   8.605 -1.0573 -0.7241 -0.1375
   61MOL0     O 7955  -0.761   7.015   8.635 -0.3650 -0.6600  0.0555
   61MOL0     C 7956  -0.781   6.912   8.536 -0.5383 -0.2431  0.5109
   61MOL0     C 7957  -0.715   6.786   8.595  0.2880  0.2120 -0.0595
   61MOL0     C 7958  -0.742   6.653   8.522 -0.8455 -0.2683 -0.6945
   61MOL0     C 7959  -0.668   6.644   8.389  0.9161 -0.5050  0.9806
   61MOL0     C 7960  -0.716   6.521   8.315 -0.2652 -0.2036 -0.6888
   61MOL0     C 7961  -0.636   6.492   8.182 -0.1093 -0.1272  0.3943
   61MOL0     C 7962  -0.561   6.366   8.179  0.1996  0.3162  1.3995
   61MOL0     C 7963  -0.446   6.348   8.273 -0.0553  0.5307  0.0995
   61MOL0    Cl 7964  -0.338   6.203   8.230  0.2512  0.0721 -0.6352
   61MOL0     C 7965  -0.676   7.181   8.492  0.3753 -0.1275  0.0733
   61MOL0     C 7966  -0.577   7.270   8.468 -0.0762 -0.6608  0.5877
   61MOL0     O 7967  -0.399   7.510   8.637 -0.1093  0.1938 -0.1254
   61MOL0     C 7968  -0.124   7.490   8.420 -0.9694  0.8250 -0.1834
   61MOL0     C 7969   0.000   7.551   8.396  0.3472 -0.4760 -0.0296
   61MOL0     N 7970   0.744   7.914   8.177  0.6194  0.4435 -0.2844
   61MOL0     N 7971   0.868   7.882   8.204  0.2622  0.6335  0.4188
   61MOL0     C 7972   2.150   7.443   8.084 -0.6272  1.0111  0.3940
   61MOL0     C 7973   2.263   7.440   8.006  0.0552 -0.2248 -0.1918
   61MOL0     C 7974   2.541   7.515   7.653 -0.7013  0.3762 -0.3085
   61MOL0     C 7975   2.618   7.632   7.640 -0.2085 -0.3734 -0.0800
   61MOL0     C 7976   2.739   7.627   7.568 -1.2790  0.6502 -0.5360
   61MOL0     C 7977   2.778   7.505   7.513 -0.0571 -0.4973 -0.8508
   61MOL0     O 7978   2.897   7.481   7.452  0.0884  0.1477 -0.3052
   61MOL0     C 7979   2.983   7.600   7.426  0.0343 -0.3685  0.1640
   61MOL0     C 7980   3.120   7.563   7.372  0.5298  0.5172 -0.4669
   61MOL0     C 7981   3.193   7.478   7.480 -0.6531  0.0189  0.5511
   61MOL0     C 7982   3.343   7.483   7.478 -0.6363  0.5355  0.7889
   61MOL0     C 7983   3.401   7.423   7.597 -0.3129 -0.0432 -0.7272
   61MOL0     C 7984   3.458   7.376   7.695  0.4610 -0.3267  0.4114
   61MOL0     C 7985   2.706   7.390   7.534 -0.2681 -0.2087 -0.5652
   61MOL0     C 7986   2.587   7.390   7.601 -0.4470  0.8355  0.8088
   61MOL0     H 7987   2.112   7.419   7.710  0.4917 -0.2834 -1.1728
   61MOL0     H 7988   1.901   7.413   7.850 -1.8936 -2.1583  3.7240
   61MOL0     H 7989   1.743   7.444   7.994  1.4009 -1.0723 -1.3556
   61MOL0     H 7990   1.813   7.608   7.996  1.3601  2.2384  1.9389
   61MOL0     H 7991   1.775   7.633   8.240 -0.4333 -0.2693  1.2434
   61MOL0     H 7992   1.693   7.478   8.237  0.5947 -0.6879 -0.7157
   61MOL0     H 7993   1.536   7.570   8.055  2.4617 -0.6674  0.0857
   61MOL0     H 7994   1.608   7.723   8.057  2.0910 -1.5338 -1.5741
   61MOL0     H 7995   1.484   7.596   8.308 -2.0321  0.1580  0.0294
   61MOL0     H 7996   1.572   7.749   8.305 -0.0391  1.0825  0.8828
   61MOL0     H 7997   1.408   7.840   8.136 -1.3936 -2.4822 -2.5683
   61MOL0     H 7998   1.368   7.834   8.306  0.5810  3.0720 -1.5746
   61MOL0     H 7999   1.261   7.617   8.274 -1.2349 -1.3699 -0.8111
   61MOL0     H 8000   1.276   7.635   8.094 -4.4096  0.3827 -0.4640
   61MOL0     H 8001   1.128   7.818   8.290  2.4478  0.9704 -0.1073
   61MOL0     H 8002   1.155   7.842   8.110 -0.0518 -0.9506 -1.2184
   61MOL0     H 8003   1.027   7.592   8.206  1.1016 -0.5399 -1.3517
   61MOL0     H 8004   1.029   7.656   8.046  0.3426 -0.2116 -0.2169
   61MOL0     H 8005   0.769   7.587   8.111 -2.4086  0.2499  1.4941
   61MOL0     H 8006   0.521   7.659   8.176  2.3216 -0.5995 -0.5230
   61MOL0     H 8007   0.479   7.781   8.055 -1.9465 -3.7880 -1.6942
   61MOL0     H 8008   0.491   7.937   8.258  0.8359 -0.0622 -1.0819
   61MOL0     H 8009   0.511   7.792   8.362 -2.2397  1.0587  2.2331
   61MOL0     H 8010   0.263   7.916   8.321  1.8352  0.7231  0.6832
   61MOL0     H 8011   0.263   7.823   8.176  0.6793 -1.1071 -0.0698
   61MOL0     H 8012   0.324   7.647   8.419  2.5480  3.1992 -1.0144
   61MOL0     H 8013   0.222   7.628   8.286  1.0537 -0.7329  0.3768
   61MOL0     H 8014   0.015   7.772   8.646  1.9013 -0.4795  0.0487
   61MOL0     H 8015  -0.210   7.658   8.696 -0.7605  0.2582 -1.7482
   61MOL0     H 8016  -0.378   7.196   8.734 -1.1993  0.0210  2.2505
   61MOL0     H 8017  -0.582   7.044   8.777  1.6086 -0.2328  1.5089
   61MOL0     H 8018  -0.740   6.943   8.440 -1.1988  1.4865  0.7534
   61MOL0     H 8019  -0.889   6.899   8.523 -0.7748  0.2125  1.8939
   61MOL0     H 8020  -0.750   6.775   8.698  2.1546  1.6595  0.7996
   61MOL0     H 8021  -0.608   6.808   8.608  0.3287 -1.1873  2.6617
   61MOL0     H 8022  -0.850   6.639   8.512 -0.7652 -0.6815 -1.0043
   61MOL0     H 8023  -0.691   6.580   8.585  0.3970  1.2084  0.0891
   61MOL0     H 8024  -0.684   6.732   8.326  0.6597 -1.2178  0.0239
   61MOL0     H 8025  -0.562   6.651   8.414  1.1480  0.3624 -0.1514
   61MOL0     H 8026  -0.822   6.536   8.290 -0.6048  0.1361  0.8194
   61MOL0     H 8027  -0.707   6.426   8.368  1.0131  1.6382  2.7338
   61MOL0     H 8028  -0.569   6.577   8.166 -1.1175  0.5385 -0.3253
   61MOL0     H 8029  -0.708   6.494   8.101  1.2690  0.0200 -0.8702
   61MOL0     H 8030  -0.632   6.284   8.196  0.9768 -1.2060 -1.8555
   61MOL0     H 8031  -0.531   6.347   8.075 -1.5479 -0.8847  1.0667
   61MOL0     H 8032  -0.481   6.350   8.376 -1.1688 -0.9128 -0.2136
   61MOL0     H 8033  -0.381   6.433   8.246  2.6861 -1.5079 -0.1624
   61MOL0     H 8034  -0.763   7.168   8.429 -0.3846  2.0795  0.5690
   61MOL0     H 8035  -0.588   7.335   8.382 -1.1296  1.5096  2.2422
   61MOL0     H 8036  -0.153   7.413   8.349  4.6011 -0.6622 -1.3581
   61MOL0     H 8037   0.060   7.519   8.311  2.6640  1.9851  0.5457
   61MOL0     H 8038   2.151   7.431   8.192  0.3185  0.9428  0.3817
   61MOL0     H 8039   2.362   7.449   8.050  0.2314 -1.6337 -0.2736
   61MOL0     H 8040   2.582   7.723   7.686 -3.1184 -0.9901 -0.9207
   61MOL0     H 8041   2.803   7.714   7.555  1.0729 -1.0765 -1.0846
   61MOL0     H 8042   2.995   7.653   7.521  0.0581  0.6147 -0.3771
   61MOL0     H 8043   2.937   7.666   7.351 -0.8765  1.0166  1.8513
   61MOL0     H 8044   3.092   7.514   7.279 -3.5962  0.0365  0.8588
   61MOL0     H 8045   3.177   7.656   7.362  1.2193  0.2600  0.7826
   61MOL0     H 8046   3.165   7.372   7.474  1.3386 -0.4779 -0.7545
   61MOL0     H 8047   3.163   7.528   7.573  1.0322  2.3102 -0.0446
   61MOL0     H 8048   3.374   7.432   7.386  1.0368  0.7851  1.1764
   61MOL0     H 8049   3.377   7.586   7.468 -0.1366  0.4448  1.4584
   61MOL0     H 8050   3.515   7.338   7.777  0.4361 -0.5592  0.3198
   61MOL0     H 8051   2.734   7.292   7.496  0.4105 -0.4558  0.5134
   61MOL0     H 8052   2.528   7.301   7.621 -2.0648  1.6368 -0.1628
   62MOL0     O 8053   9.434   4.045   4.768 -0.4779 -0.9606  0.1066
   62MOL0     C 8054   9.463   4.112   4.870  0.1536  0.1969 -0.9888
   62MOL0     O 8055   9.385   4.211   4.928  0.0332  0.0790 -0.2030
   62MOL0     C 8056   9.256   4.231   4.886  0.0106  0.4270 -0.7381
   62MOL0     C 8057   9.181   4.277   4.992 -0.0394 -0.3220 -0.4546
   62MOL0     C 8058   9.044   4.304   4.974 -0.1545 -0.3046  0.3441
   62MOL0     C 8059   8.983   4.297   4.846  0.5479 -0.0480 -0.5862
   62MOL0     O 8060   8.870   4.372   4.822  0.4204 -0.1703 -0.1408
   62MOL0     C 8061   8.753   4.314   4.762 -0.0547  0.0270  0.4945
   62MOL0     C 8062   8.645   4.417   4.758 -0.5938 -0.3412 -0.5802
   62MOL0     C 8063   8.677   4.542   4.676 -0.1594  0.0644  0.8062
   62MOL0     C 8064   8.582   4.655   4.698  0.5688  0.4252 -0.5101
   62MOL0     C 8065   8.434   4.612   4.697  0.6776 -0.3078  0.5404
   62MOL0     C 8066   8.352   4.744   4.689 -0.1337  0.0720 -1.6843
   62MOL0     C 8067   8.205   4.704   4.695 -0.4414  0.0060  0.0245
   62MOL0     C 8068   8.113   4.830   4.664 -0.8976  0.6999 -0.1973
   62MOL0     N 8069   7.968   4.823   4.630  0.4914 -0.8966  0.3523
   62MOL0     C 8070   7.888   4.728   4.690  0.4987  0.0030  0.1014
   62MOL0     C 8071   7.770   4.756   4.632 -0.0037 -0.5025  0.3584
   62MOL0     C 8072   7.649   4.672   4.642 -0.0304 -0.3751  0.1971
   62MOL0     C 8073   7.673   4.533   4.583 -0.0279 -1.4777  0.8904
   62MOL0     C 8074   7.556   4.444   4.588 -0.6722 -0.3386  0.2356
   62MOL0     C 8075   7.421   4.510   4.572  0.4872  0.4799  0.0421
   62MOL0     O 8076   7.322   4.412   4.565 -0.0930 -0.2188  0.3418
   62MOL0     C 8077   7.200   4.440   4.629 -0.0078  0.8813  0.0612
   62MOL0     C 8078   7.141   4.343   4.712 -0.7870  0.2068 -0.4401
   62MOL0     C 8079   7.029   4.369   4.791 -0.4237  0.6523  0.0519
   62MOL0     C 8080   6.949   4.476   4.761  0.0736 -0.5531 -0.5461
   62MOL0     C 8081   6.825   4.513   4.839 -0.4561 -0.2612 -0.1889
   62MOL0     O 8082   6.767   4.638   4.806  0.8353  0.7262 -0.0423
   62MOL0     C 8083   6.645   4.670   4.861  0.5264 -0.4777 -0.0649
   62MOL0     C 8084   6.626   4.703   4.998  0.0627  0.2252  0.3731
   62MOL0     C 8085   6.499   4.724   5.042  0.1333 -0.5476 -1.4036
   62MOL0     C 8086   6.390   4.719   4.961  0.5855 -0.7179 -0.1672
   62MOL0     O 8087   6.268   4.720   5.026 -0.6682 -0.7313  0.0543
   62MOL0     C 8088   6.178   4.817   4.967 -0.2445  0.0780 -0.7636
   62MOL0     C 8089   6.169   4.949   5.046 -1.2260  0.6466  0.1091
   62MOL0     C 8090   6.126   4.936   5.194  0.8156 -0.2988  0.0838
   62MOL0     C 8091   6.169   5.076   5.257 -0.3175  0.1523  0.0559
   62MOL0     C 8092   6.074   5.140   5.358 -0.6532 -0.0554 -0.4091
   62MOL0     C 8093   6.028   5.046   5.480  0.0515 -1.2433  0.0658
   62MOL0     C 8094   5.936   5.120   5.572  0.0619 -0.3865  0.9805
   62MOL0     C 8095   5.789   5.101   5.533  0.2382  0.8721 -0.4845
   62MOL0    Cl 8096   5.677   5.174   5.644 -0.5865 -0.5685  0.3049
   62MOL0     C 8097   6.408   4.684   4.830  0.1197 -1.2801 -0.0248
   62MOL0     C 8098   6.535   4.654   4.778 -0.1685 -0.6504  0.6049
   62MOL0     O 8099   6.783   4.435   4.922  0.0667  0.3988 -0.2957
   62MOL0     C 8100   7.000   4.571   4.670  0.3850 -0.2900 -0.2924
   62MOL0     C 8101   7.124   4.556   4.606  0.1686 -0.1588  0.7119
   62MOL0     N 8102   7.771   4.872   4.556 -0.5956  0.7093  0.0558
   62MOL0     N 8103   7.897   4.914   4.555  0.3293 -0.8183  0.2223
   62MOL0     C 8104   9.062   4.241   4.745 -0.6616 -0.5014 -0.3789
   62MOL0     C 8105   9.197   4.214   4.764 -0.2831 -0.4351 -0.3003
   62MOL0     C 8106   9.585   4.072   4.937  0.0694  0.1060  0.4837
   62MOL0     C 8107   9.625   3.943   4.944 -0.0736  0.8363 -0.6612
   62MOL0     C 8108   9.749   3.919   5.004 -0.2229  0.9059 -0.4582
   62MOL0     C 8109   9.839   4.016   5.049 -0.5621  1.1208  0.1214
   62MOL0     O 8110   9.969   4.005   5.096  0.5126  0.8912  0.5908
   62MOL0     C 8111  10.018   3.866   5.081  0.1610 -0.0441 -0.2246
   62MOL0     C 8112  10.171   3.869   5.107 -0.0419  0.6552 -0.3777
   62MOL0     C 8113  10.241   3.977   5.028 -0.4145  0.0437 -0.4292
   62MOL0     C 8114  10.394   3.955   5.054  1.0650 -0.3482 -0.0089
   62MOL0     C 8115  10.453   3.849   4.959  0.0259  0.0381 -0.0198
   62MOL0     C 8116  10.503   3.766   4.891 -0.6335  0.3164  0.3121
   62MOL0     C 8117   9.786   4.145   5.054  0.7905 -0.2344 -0.4116
   62MOL0     C 8118   9.661   4.170   5.000  0.2481 -0.5830 -0.6372
   62MOL0     H 8119   9.232   4.283   5.087  0.4164 -0.2997 -0.7017
   62MOL0     H 8120   8.979   4.329   5.057 -0.7336 -3.2533  0.8695
   62MOL0     H 8121   8.700   4.239   4.820 -3.6954  0.1733 -2.2843
   62MOL0     H 8122   8.784   4.277   4.664  0.5438  0.5626  0.4703
   62MOL0     H 8123   8.630   4.459   4.858  0.9330  1.1119 -0.9200
   62MOL0     H 8124   8.557   4.368   4.715 -0.7086  0.3798 -1.1765
   62MOL0     H 8125   8.671   4.524   4.568  0.3297  2.1563  0.3879
   62MOL0     H 8126   8.779   4.575   4.699 -0.9750  3.1780  0.4590
   62MOL0     H 8127   8.603   4.693   4.799  0.1726  0.7400 -0.5452
   62MOL0     H 8128   8.592   4.734   4.624 -3.2366  3.3890  1.7772
   62MOL0     H 8129   8.409   4.554   4.787 -0.1121 -1.9248 -0.6847
   62MOL0     H 8130   8.417   4.550   4.610  0.4495  1.3191 -0.6252
   62MOL0     H 8131   8.378   4.810   4.605 -1.2384  1.3250 -1.0776
   62MOL0     H 8132   8.390   4.803   4.773 -1.3704  0.9278 -1.7078
   62MOL0     H 8133   8.195   4.624   4.621  0.9306  0.2132 -0.4184
   62MOL0     H 8134   8.173   4.649   4.784  0.8482 -0.8460 -0.0200
   62MOL0     H 8135   8.170   4.877   4.583  0.5618  0.4663  0.6570
   62MOL0     H 8136   8.125   4.892   4.753  0.3318 -3.1447  2.5827
   62MOL0     H 8137   7.912   4.649   4.760 -0.6693  0.4929  1.0937
   62MOL0     H 8138   7.569   4.733   4.599 -1.9740  0.4027  4.4834
   62MOL0     H 8139   7.624   4.666   4.748  2.2592  0.2378  0.8340
   62MOL0     H 8140   7.740   4.482   4.652  2.1269 -3.4229 -2.3986
   62MOL0     H 8141   7.723   4.536   4.486  0.0972  0.6373  0.9612
   62MOL0     H 8142   7.562   4.359   4.520 -2.1700 -1.0698  0.9584
   62MOL0     H 8143   7.555   4.401   4.689  1.6753 -1.1955 -0.0597
   62MOL0     H 8144   7.415   4.570   4.481 -1.8585 -1.0089 -0.8788
   62MOL0     H 8145   7.409   4.568   4.664 -1.5521 -0.4615  0.4268
   62MOL0     H 8146   7.177   4.244   4.739  0.5561  1.1927  1.6228
   62MOL0     H 8147   7.013   4.294   4.868  1.7781  1.9172  1.8658
   62MOL0     H 8148   6.709   4.713   5.067  0.8151 -1.2583 -0.2766
   62MOL0     H 8149   6.485   4.741   5.148  1.0107  0.7189 -1.4586
   62MOL0     H 8150   6.089   4.755   4.972  2.3547 -4.0265 -1.0214
   62MOL0     H 8151   6.188   4.840   4.861 -1.2458  0.5037 -0.7755
   62MOL0     H 8152   6.099   5.023   5.006 -3.1814 -0.1496  1.9062
   62MOL0     H 8153   6.271   4.987   5.032 -0.6659 -1.1593 -1.1497
   62MOL0     H 8154   6.168   4.856   5.256  1.3297 -0.5791 -0.6142
   62MOL0     H 8155   6.017   4.927   5.205  0.5173  1.2084 -1.3406
   62MOL0     H 8156   6.262   5.055   5.310 -0.1228 -2.1136 -1.0660
   62MOL0     H 8157   6.194   5.143   5.174 -0.4613 -1.3872 -1.2717
   62MOL0     H 8158   5.993   5.179   5.295 -0.3075 -0.5929 -1.1962
   62MOL0     H 8159   6.125   5.227   5.401  1.1349 -1.0597 -0.4222
   62MOL0     H 8160   6.115   5.020   5.540  1.7308 -0.7997 -2.0550
   62MOL0     H 8161   5.983   4.955   5.437 -3.0388  0.9374 -1.7619
   62MOL0     H 8162   5.937   5.063   5.666 -0.6766 -0.2199  1.0974
   62MOL0     H 8163   5.971   5.222   5.588  3.0203 -1.3817  1.4483
   62MOL0     H 8164   5.764   4.995   5.523 -2.3931  1.4103 -0.3098
   62MOL0     H 8165   5.774   5.145   5.434 -1.4330  1.1156 -0.1540
   62MOL0     H 8166   6.315   4.685   4.775 -0.3228 -1.4704  0.7120
   62MOL0     H 8167   6.569   4.638   4.676  2.6502  1.8598  1.0152
   62MOL0     H 8168   6.940   4.656   4.641 -1.2981 -0.7369  1.6301
   62MOL0     H 8169   7.155   4.628   4.531  2.0970 -0.3605  1.2399
   62MOL0     H 8170   9.026   4.225   4.644 -1.7815 -0.7231  0.0455
   62MOL0     H 8171   9.257   4.176   4.682 -1.0531 -1.5094 -0.3842
   62MOL0     H 8172   9.579   3.849   4.916  0.4129 -1.4255  4.7625
   62MOL0     H 8173   9.787   3.817   5.009 -1.1984  0.5790  0.7757
   62MOL0     H 8174  10.008   3.833   4.977  3.0102 -1.7747 -0.0562
   62MOL0     H 8175   9.968   3.807   5.158 -0.8415  0.5562 -0.4041
   62MOL0     H 8176  10.195   3.877   5.214  2.3041  1.1660 -0.8806
   62MOL0     H 8177  10.206   3.771   5.073 -2.1325 -0.7395  1.2682
   62MOL0     H 8178  10.216   4.079   5.058  0.3497  0.5977 -1.6278
   62MOL0     H 8179  10.216   3.949   4.925  1.3775 -2.2691 -0.3088
   62MOL0     H 8180  10.444   4.049   5.027 -4.7479  2.7460 -1.7450
   62MOL0     H 8181  10.402   3.934   5.161 -2.1516  0.4536  0.4894
   62MOL0     H 8182  10.548   3.694   4.826  1.4251 -0.5641  2.5823
   62MOL0     H 8183   9.841   4.226   5.101  0.2768 -0.1614  0.0659
   62MOL0     H 8184   9.623   4.271   4.998 -0.2420 -0.7729 -1.1327
   63MOL0     O 8185   5.475   0.685   9.379 -0.1891  0.2376  0.7524
   63MOL0     C 8186   5.428   0.655   9.267  0.3577 -0.4964  0.8220
   63MOL0     O 8187   5.322   0.573   9.238 -0.1560 -0.4608 -0.5337
   63MOL0     C 8188   5.246   0.536   9.343  0.2225 -0.4223 -0.2007
   63MOL0     C 8189   5.300   0.472   9.456  0.0064 -0.3562 -0.8988
   63MOL0     C 8190   5.215   0.454   9.568 -0.0876  1.1873  0.4957
   63MOL0     C 8191   5.079   0.484   9.567 -0.0017  0.3866 -0.3013
   63MOL0     O 8192   5.018   0.438   9.675 -0.1985  0.4303 -0.8144
   63MOL0     C 8193   4.893   0.368   9.661  0.2696  0.6457  0.1242
   63MOL0     C 8194   4.836   0.338   9.803  0.7045  0.5185  0.2062
   63MOL0     C 8195   4.701   0.409   9.813  1.1238  0.5798 -0.4081
   63MOL0     C 8196   4.633   0.366   9.943  0.6756  0.3851 -0.3765
   63MOL0     C 8197   4.534   0.466  10.009 -0.5513 -0.1101 -0.2686
   63MOL0     C 8198   4.407   0.483   9.928  0.5025 -0.4046  0.1905
   63MOL0     C 8199   4.326   0.589   9.985  0.6057 -0.0677  0.0811
   63MOL0     C 8200   4.188   0.587   9.914 -0.1006  0.1921  0.8953
   63MOL0     N 8201   4.113   0.706   9.948  0.3306  0.1302 -0.2715
   63MOL0     C 8202   4.101   0.815   9.867  0.6868  0.2958  1.3814
   63MOL0     C 8203   4.053   0.915   9.945 -0.3802 -0.3080 -0.4237
   63MOL0     C 8204   4.029   1.060   9.916 -0.3314 -0.8728 -0.0430
   63MOL0     C 8205   3.985   1.080   9.766  0.0923 -0.6781 -0.0774
   63MOL0     C 8206   3.845   1.020   9.732  0.2907  0.7529 -0.0135
   63MOL0     C 8207   3.791   1.059   9.589  0.1012  0.1465  0.3817
   63MOL0     O 8208   3.683   0.970   9.554 -0.3238 -0.1718  0.7455
   63MOL0     C 8209   3.552   0.993   9.594  0.1213 -0.3698 -0.1076
   63MOL0     C 8210   3.459   0.912   9.532  0.7161  0.8702  0.0450
   63MOL0     C 8211   3.319   0.910   9.573 -0.3719  0.0127  0.2776
   63MOL0     C 8212   3.275   1.001   9.674 -0.4594  0.0939 -0.1569
   63MOL0     C 8213   3.136   0.999   9.722 -0.7666 -0.1000 -0.2665
   63MOL0     O 8214   3.048   0.912   9.656  0.0102  0.2720  0.5108
   63MOL0     C 8215   2.932   0.883   9.720 -0.3318 -0.2727  0.2315
   63MOL0     C 8216   2.903   0.786   9.820 -0.1587  0.3522 -0.2631
   63MOL0     C 8217   2.767   0.760   9.853 -0.7376 -0.2455 -0.0345
   63MOL0     C 8218   2.661   0.813   9.784 -0.4755 -0.0619 -0.7873
   63MOL0     O 8219   2.535   0.777   9.796 -0.5868 -0.1774 -0.1590
   63MOL0     C 8220   2.499   0.644   9.775 -0.4239  0.2082 -0.0788
   63MOL0     C 8221   2.343   0.616   9.742 -0.2795  0.4947  0.1443
   63MOL0     C 8222   2.295   0.681   9.610  0.5392  0.0101 -0.4084
   63MOL0     C 8223   2.146   0.674   9.599 -0.1739  0.5641 -0.3581
   63MOL0     C 8224   2.086   0.813   9.646  0.0996  0.7701  1.1189
   63MOL0     C 8225   2.098   0.930   9.540 -0.5641  0.4289  0.3368
   63MOL0     C 8226   2.029   0.911   9.406 -0.3754 -0.5476 -0.6181
   63MOL0     C 8227   1.876   0.889   9.406 -0.8876 -0.8378  0.3624
   63MOL0    Cl 8228   1.773   1.031   9.441  0.2583 -0.2343  0.0061
   63MOL0     C 8229   2.695   0.915   9.683 -0.3455 -0.7168 -0.2774
   63MOL0     C 8230   2.830   0.954   9.666 -0.1834 -0.6585  0.4963
   63MOL0     O 8231   3.118   1.058   9.831  0.7930  1.2154 -0.1413
   63MOL0     C 8232   3.375   1.080   9.729  0.2962 -0.2464 -0.2392
   63MOL0     C 8233   3.511   1.079   9.695 -0.6707 -0.4179  0.5374
   63MOL0     N 8234   4.034   0.859  10.068  0.2448  0.6802  0.3000
   63MOL0     N 8235   4.063   0.737  10.069  0.4662 -0.1874  0.2760
   63MOL0     C 8236   5.019   0.545   9.458 -1.0453 -0.4004  0.8126
   63MOL0     C 8237   5.106   0.568   9.349  0.0114  0.2751 -0.3308
   63MOL0     C 8238   5.487   0.730   9.152 -0.4194 -0.8929 -0.4564
   63MOL0     C 8239   5.576   0.841   9.171  0.2830  0.0091  0.4599
   63MOL0     C 8240   5.628   0.916   9.064  0.5444  0.3288 -0.2417
   63MOL0     C 8241   5.580   0.890   8.933 -0.3553  0.2351 -0.3206
   63MOL0     O 8242   5.613   0.959   8.822 -0.2103 -0.2911  0.1459
   63MOL0     C 8243   5.719   1.053   8.832  0.5647 -0.0811 -0.2081
   63MOL0     C 8244   5.767   1.089   8.694 -0.2542  0.5272  0.2964
   63MOL0     C 8245   5.834   0.969   8.622  0.5237 -0.5811 -0.2218
   63MOL0     C 8246   5.957   1.017   8.545 -0.5827 -0.0999  0.7829
   63MOL0     C 8247   5.993   0.906   8.442  0.1915 -0.3797 -0.8646
   63MOL0     C 8248   5.995   0.828   8.351 -0.0946  0.4575  0.0046
   63MOL0     C 8249   5.509   0.768   8.916  0.2528  0.2732 -0.3507
   63MOL0     C 8250   5.450   0.705   9.020 -0.1396  0.4151 -0.1646
   63MOL0     H 8251   5.405   0.445   9.464  0.0778  0.4794  3.4663
   63MOL0     H 8252   5.260   0.411   9.657 -1.4795 -0.1000  0.6127
   63MOL0     H 8253   4.918   0.282   9.598 -0.9144 -0.6462  1.3601
   63MOL0     H 8254   4.827   0.440   9.611 -1.2537 -0.3117  0.7020
   63MOL0     H 8255   4.904   0.364   9.885  0.0582 -0.6898  1.1672
   63MOL0     H 8256   4.821   0.229   9.808  0.2850  0.6218  3.6831
   63MOL0     H 8257   4.634   0.379   9.731  0.8450  1.4497 -0.5033
   63MOL0     H 8258   4.716   0.516   9.802  1.7407  0.6596  1.0409
   63MOL0     H 8259   4.578   0.273   9.930  1.3551  0.0459 -0.8855
   63MOL0     H 8260   4.715   0.341  10.011 -0.1850 -1.5720 -0.0082
   63MOL0     H 8261   4.582   0.564  10.014  2.4492 -1.2358 -3.1562
   63MOL0     H 8262   4.505   0.437  10.110  0.1601  0.1601  0.0185
   63MOL0     H 8263   4.356   0.386   9.932  3.5502 -2.2887 -1.9241
   63MOL0     H 8264   4.428   0.513   9.825 -0.0881  2.7057  0.8650
   63MOL0     H 8265   4.324   0.568  10.092  2.4081  4.0439  1.0864
   63MOL0     H 8266   4.359   0.693   9.985  0.3605  0.0111 -0.0907
   63MOL0     H 8267   4.145   0.493   9.950  1.7282 -0.9736  0.1378
   63MOL0     H 8268   4.212   0.588   9.807  2.5133 -0.6972  1.4207
   63MOL0     H 8269   4.119   0.815   9.760 -0.5251 -1.1346  1.1526
   63MOL0     H 8270   4.121   1.116   9.935  1.6156 -2.9123 -2.6580
   63MOL0     H 8271   3.948   1.094   9.981 -2.1798 -0.8310 -2.2658
   63MOL0     H 8272   4.057   1.036   9.697 -1.4716 -1.6117 -1.1792
   63MOL0     H 8273   3.983   1.188   9.750 -1.0001 -0.7800 -0.7891
   63MOL0     H 8274   3.844   0.912   9.750  1.9475  0.7738  0.3025
   63MOL0     H 8275   3.770   1.064   9.799 -1.2160  0.8397 -1.6720
   63MOL0     H 8276   3.875   1.038   9.522  0.4743 -0.1045  0.9179
   63MOL0     H 8277   3.756   1.162   9.586  1.7245  0.7460  0.9662
   63MOL0     H 8278   3.497   0.840   9.460 -2.6972  0.5467 -1.6468
   63MOL0     H 8279   3.256   0.828   9.542  1.8189 -2.1259  1.1650
   63MOL0     H 8280   2.991   0.745   9.869 -1.7149 -0.4956  1.9570
   63MOL0     H 8281   2.746   0.689   9.932  1.3743  0.5421  1.3216
   63MOL0     H 8282   2.527   0.597   9.869  2.5504  4.3284  1.3799
   63MOL0     H 8283   2.558   0.602   9.693 -1.1377 -0.6052 -0.1963
   63MOL0     H 8284   2.277   0.650   9.822 -0.4517  1.1042 -0.2462
   63MOL0     H 8285   2.336   0.507   9.737 -0.3428  0.4272  1.3680
   63MOL0     H 8286   2.342   0.628   9.526  0.7948 -0.4977  0.0536
   63MOL0     H 8287   2.333   0.784   9.617  2.1667 -0.6662  4.2830
   63MOL0     H 8288   2.117   0.646   9.497 -2.0870  1.2227 -0.0403
   63MOL0     H 8289   2.104   0.598   9.666 -1.1583  0.8346 -0.6522
   63MOL0     H 8290   2.147   0.844   9.731  2.4305 -1.6636  0.4442
   63MOL0     H 8291   1.985   0.810   9.688 -0.9476  1.4622 -1.1803
   63MOL0     H 8292   2.205   0.949   9.525 -0.8295  0.5368 -1.8285
   63MOL0     H 8293   2.070   1.022   9.592 -2.8553 -0.2815  0.4858
   63MOL0     H 8294   2.052   1.001   9.349 -1.4814  0.4206  0.3966
   63MOL0     H 8295   2.088   0.842   9.346 -1.7391 -1.2360 -1.2025
   63MOL0     H 8296   1.863   0.816   9.487  1.8425 -0.9577  0.7749
   63MOL0     H 8297   1.853   0.832   9.316 -1.0665 -1.1263  0.5876
   63MOL0     H 8298   2.609   0.946   9.625 -0.7519  0.0703  0.7276
   63MOL0     H 8299   2.841   1.038   9.597  1.4826 -1.4277 -0.2224
   63MOL0     H 8300   3.351   1.155   9.804 -0.0329  0.7962 -1.3560
   63MOL0     H 8301   3.557   1.160   9.750  1.9243  0.0031 -1.9657
   63MOL0     H 8302   4.915   0.573   9.450 -0.6066  1.1395  0.0291
   63MOL0     H 8303   5.055   0.627   9.273  0.5743  0.5456 -0.5047
   63MOL0     H 8304   5.633   0.868   9.259  2.9079 -0.6832 -0.9202
   63MOL0     H 8305   5.683   1.006   9.088 -4.3133  3.8982 -0.8662
   63MOL0     H 8306   5.807   1.017   8.886  2.0380  1.9531 -1.1337
   63MOL0     H 8307   5.692   1.144   8.888 -1.7212 -1.5358  1.2451
   63MOL0     H 8308   5.680   1.129   8.642  0.1169  3.6796  1.8429
   63MOL0     H 8309   5.834   1.176   8.699 -1.4018  1.4165  0.4889
   63MOL0     H 8310   5.761   0.917   8.560  1.1057 -2.3919  0.5324
   63MOL0     H 8311   5.859   0.891   8.695  0.3714  0.2911  0.7767
   63MOL0     H 8312   5.928   1.107   8.490 -2.2468 -0.4293  1.0694
   63MOL0     H 8313   6.047   1.038   8.604 -0.9729  1.8528  0.7505
   63MOL0     H 8314   5.983   0.751   8.277 -0.7440 -0.4220  0.9845
   63MOL0     H 8315   5.494   0.724   8.819  1.4840  0.7295 -0.7695
   63MOL0     H 8316   5.394   0.623   8.976  5.2259 -3.1155 -1.3636
   64MOL0     O 8317   6.206   4.501   3.131  0.2518 -0.3553  0.8461
   64MOL0     C 8318   6.256   4.612   3.124  1.5999  0.3315 -0.7220
   64MOL0     O 8319   6.200   4.722   3.061  0.1021  0.2151 -0.2885
   64MOL0     C 8320   6.073   4.712   3.010  1.2275 -0.2458  0.6588
   64MOL0     C 8321   6.043   4.712   2.878 -0.6456  0.3403  0.1417
   64MOL0     C 8322   5.917   4.671   2.830  0.9055  0.3832  0.4230
   64MOL0     C 8323   5.812   4.646   2.923  0.9770 -1.9074 -0.1165
   64MOL0     O 8324   5.689   4.609   2.883  0.1817  0.8106  0.3310
   64MOL0     C 8325   5.664   4.611   2.742  0.6706  0.1717 -0.1602
   64MOL0     C 8326   5.508   4.579   2.715 -1.3529 -0.2547 -0.7248
   64MOL0     C 8327   5.473   4.623   2.570  0.2731  0.8706 -0.0028
   64MOL0     C 8328   5.324   4.588   2.541 -0.1661  0.2501 -0.2747
   64MOL0     C 8329   5.226   4.687   2.624 -0.8510  0.4842 -0.9753
   64MOL0     C 8330   5.082   4.646   2.605 -0.3298  0.6612 -0.7532
   64MOL0     C 8331   5.025   4.677   2.468  0.0495  0.4365  0.1844
   64MOL0     C 8332   4.959   4.818   2.489  0.0612  0.1972 -0.5904
   64MOL0     N 8333   4.907   4.880   2.367 -0.4794  0.3799  0.5296
   64MOL0     C 8334   4.982   4.933   2.261  0.4209  0.4095 -0.5539
   64MOL0     C 8335   4.889   4.966   2.167 -0.0182  0.1103 -0.6650
   64MOL0     C 8336   4.939   5.013   2.031  0.3817  0.0897 -0.4185
   64MOL0     C 8337   4.891   4.913   1.921  0.5484 -0.7067 -0.4501
   64MOL0     C 8338   4.889   4.965   1.776 -0.3224 -0.0305 -0.5041
   64MOL0     C 8339   5.021   5.031   1.730  0.2194 -0.4410 -0.7760
   64MOL0     O 8340   4.988   5.068   1.596 -0.2502 -0.5343 -0.3725
   64MOL0     C 8341   5.071   5.127   1.506 -0.1901 -0.1762  0.1279
   64MOL0     C 8342   5.201   5.164   1.532 -0.4173  0.0342 -0.1943
   64MOL0     C 8343   5.291   5.206   1.433 -1.0468  0.1455  0.1684
   64MOL0     C 8344   5.249   5.233   1.305  0.3970 -0.0179  0.2160
   64MOL0     C 8345   5.354   5.250   1.203  0.0521  0.9246 -0.0443
   64MOL0     O 8346   5.471   5.183   1.225  0.5819  0.0984  0.9395
   64MOL0     C 8347   5.568   5.216   1.144 -0.5039  0.6360 -0.7827
   64MOL0     C 8348   5.640   5.109   1.090  0.5989 -0.4108  0.3876
   64MOL0     C 8349   5.751   5.134   1.016  0.1413 -0.3611  0.6357
   64MOL0     C 8350   5.807   5.264   1.004 -0.2716  0.5300 -0.1238
   64MOL0     O 8351   5.909   5.295   0.911 -0.2478 -0.4298 -0.3975
   64MOL0     C 8352   5.986   5.194   0.841 -0.2555  0.1256  0.2779
   64MOL0     C 8353   6.110   5.265   0.788  0.1596  0.9514 -0.0824
   64MOL0     C 8354   6.170   5.182   0.664 -0.0281  0.1742  0.3803
   64MOL0     C 8355   6.207   5.032   0.682 -0.2708 -0.3495 -0.5390
   64MOL0     C 8356   6.305   5.022   0.802 -0.4685 -0.0358 -0.2733
   64MOL0     C 8357   6.432   5.112   0.786  0.3666 -0.1717 -0.4820
   64MOL0     C 8358   6.529   5.068   0.895 -1.5663  0.8504  0.1681
   64MOL0     C 8359   6.485   5.098   1.044 -0.8671 -0.4792 -0.7582
   64MOL0    Cl 8360   6.648   5.071   1.128  0.1421  0.2671  0.0157
   64MOL0     C 8361   5.741   5.364   1.076 -0.7949  0.6565 -1.0582
   64MOL0     C 8362   5.629   5.338   1.156  0.3051 -0.4848  0.6065
   64MOL0     O 8363   5.319   5.307   1.101 -0.9421 -0.5860  0.0314
   64MOL0     C 8364   5.106   5.212   1.273  0.0026  0.1730  0.3439
   64MOL0     C 8365   5.025   5.157   1.376 -0.6717 -0.6187  0.4179
   64MOL0     N 8366   4.761   4.931   2.209  0.7072  0.0034  0.4331
   64MOL0     N 8367   4.770   4.888   2.327  0.7155 -0.3877 -0.5297
   64MOL0     C 8368   5.832   4.679   3.058 -0.4930 -0.2304 -1.0385
   64MOL0     C 8369   5.969   4.694   3.096 -0.3231  0.9669 -0.3740
   64MOL0     C 8370   6.382   4.628   3.197  0.3208 -0.2135  0.0736
   64MOL0     C 8371   6.428   4.531   3.283  0.1474 -0.0691  0.2315
   64MOL0     C 8372   6.561   4.547   3.341  0.2482  0.0498  0.1151
   64MOL0     C 8373   6.629   4.671   3.328  0.3144  0.6810  0.9187
   64MOL0     O 8374   6.731   4.688   3.413  0.8575 -0.0853  0.0285
   64MOL0     C 8375   6.770   4.820   3.439 -0.3930  0.6259  0.2454
   64MOL0     C 8376   6.855   4.811   3.569  0.4195 -0.6355 -0.3792
   64MOL0     C 8377   6.990   4.752   3.528  0.0098  0.7882 -0.1969
   64MOL0     C 8378   7.089   4.722   3.644  0.1377  0.7645 -0.2119
   64MOL0     C 8379   7.110   4.843   3.729 -0.0561 -0.3837 -0.5572
   64MOL0     C 8380   7.140   4.946   3.777  0.0884 -0.6247 -0.0617
   64MOL0     C 8381   6.566   4.769   3.258  0.3624  0.7888 -0.0010
   64MOL0     C 8382   6.457   4.748   3.180  1.0161  0.2375 -0.0316
   64MOL0     H 8383   6.130   4.736   2.817 -0.3276  2.6481  1.4203
   64MOL0     H 8384   5.911   4.642   2.726 -1.7417 -0.9312  0.8600
   64MOL0     H 8385   5.725   4.538   2.688 -0.8465 -1.6325  0.4897
   64MOL0     H 8386   5.677   4.711   2.699  1.0640 -0.1374 -0.7689
   64MOL0     H 8387   5.444   4.630   2.788 -0.8502  0.0346 -0.4794
   64MOL0     H 8388   5.490   4.472   2.732  0.6774 -0.7517 -1.3884
   64MOL0     H 8389   5.531   4.575   2.490 -0.5722 -1.0484  0.4818
   64MOL0     H 8390   5.488   4.731   2.575 -0.1463  0.9105  3.5461
   64MOL0     H 8391   5.306   4.602   2.435  1.2423  0.5980 -0.4886
   64MOL0     H 8392   5.309   4.480   2.557  0.8356 -0.0872 -1.4949
   64MOL0     H 8393   5.244   4.791   2.596  3.5738  1.2013  3.2302
   64MOL0     H 8394   5.249   4.680   2.731  0.4090 -0.4282 -1.2770
   64MOL0     H 8395   5.024   4.700   2.680  3.1228  3.8241 -0.0841
   64MOL0     H 8396   5.067   4.540   2.630 -0.7817  0.6440 -1.0698
   64MOL0     H 8397   5.096   4.688   2.385  0.4783 -3.3069 -0.1181
   64MOL0     H 8398   4.938   4.614   2.448 -1.1675  2.4269 -1.2400
   64MOL0     H 8399   5.037   4.882   2.531 -2.0006  3.3550 -1.1979
   64MOL0     H 8400   4.879   4.816   2.563  0.1052 -1.1309 -0.5696
   64MOL0     H 8401   5.088   4.938   2.237  0.2109 -0.0762 -1.6402
   64MOL0     H 8402   5.047   5.027   2.024  0.1025  1.4611 -4.1152
   64MOL0     H 8403   4.893   5.110   2.008 -0.4056 -0.6239 -2.0405
   64MOL0     H 8404   4.785   4.892   1.936  0.8135 -2.3440 -0.6839
   64MOL0     H 8405   4.952   4.822   1.919  1.7163 -0.1331 -5.3266
   64MOL0     H 8406   4.874   4.876   1.714 -1.0913 -0.7178  0.6351
   64MOL0     H 8407   4.801   5.029   1.768 -1.8797 -2.2260 -2.6122
   64MOL0     H 8408   5.105   4.963   1.745  0.6296 -0.3084 -2.2823
   64MOL0     H 8409   5.037   5.122   1.789 -3.4154 -0.2234  0.1390
   64MOL0     H 8410   5.231   5.153   1.635 -0.5969 -0.6792 -0.2163
   64MOL0     H 8411   5.392   5.221   1.469 -0.1691  0.1798 -2.1582
   64MOL0     H 8412   5.609   5.005   1.087  2.4973 -1.0095 -2.2952
   64MOL0     H 8413   5.792   5.047   0.965  0.6085 -0.0753  0.5136
   64MOL0     H 8414   5.930   5.150   0.758  3.2701 -2.6654 -0.9178
   64MOL0     H 8415   6.018   5.111   0.905 -2.4216 -0.2616  0.9394
   64MOL0     H 8416   6.192   5.278   0.858  0.2860 -2.1821  0.4670
   64MOL0     H 8417   6.077   5.363   0.752 -0.6027  0.1295 -1.7566
   64MOL0     H 8418   6.262   5.226   0.624 -0.3782  0.0462 -0.5931
   64MOL0     H 8419   6.105   5.195   0.577  1.9844  0.5195 -1.1463
   64MOL0     H 8420   6.116   4.975   0.704 -2.3455  2.6364 -0.7767
   64MOL0     H 8421   6.253   4.988   0.594  2.8325 -0.9322  1.2100
   64MOL0     H 8422   6.333   4.917   0.819  1.1463  0.5525  0.9389
   64MOL0     H 8423   6.256   5.050   0.895  1.0913  0.7850  0.3342
   64MOL0     H 8424   6.417   5.217   0.812 -0.7565 -0.8667  1.9100
   64MOL0     H 8425   6.476   5.094   0.687  2.3034  3.5075 -0.4695
   64MOL0     H 8426   6.556   4.963   0.883 -2.3658  0.4512  1.6234
   64MOL0     H 8427   6.620   5.126   0.875 -0.7155  0.8560  3.5220
   64MOL0     H 8428   6.405   5.029   1.074 -0.9697 -0.1023 -0.1633
   64MOL0     H 8429   6.444   5.198   1.057  1.3594  0.1374  2.9431
   64MOL0     H 8430   5.780   5.465   1.065 -0.3947  0.6068 -0.1165
   64MOL0     H 8431   5.595   5.422   1.216 -4.7465  0.2679 -2.7852
   64MOL0     H 8432   5.058   5.217   1.176 -0.2644 -0.6101  0.4318
   64MOL0     H 8433   4.920   5.144   1.355 -0.8085  0.3480  0.4403
   64MOL0     H 8434   5.755   4.668   3.134  1.0775 -1.2825  0.4816
   64MOL0     H 8435   5.988   4.706   3.203  1.0258 -3.2835  0.0661
   64MOL0     H 8436   6.379   4.438   3.307  0.2289 -0.4883 -1.1549
   64MOL0     H 8437   6.602   4.476   3.412 -0.3731  0.4336  0.8806
   64MOL0     H 8438   6.687   4.891   3.449 -1.9761 -1.1701  0.3411
   64MOL0     H 8439   6.849   4.856   3.373  0.9060  3.1907  2.9598
   64MOL0     H 8440   6.868   4.914   3.604 -2.4955 -0.8661  1.7904
   64MOL0     H 8441   6.801   4.758   3.648 -2.0375  2.2867  0.0386
   64MOL0     H 8442   7.042   4.813   3.454  1.1426 -0.0774 -0.1450
   64MOL0     H 8443   6.966   4.661   3.472 -0.8985  1.1804 -0.4609
   64MOL0     H 8444   7.053   4.634   3.699  5.2764 -3.0796 -2.1828
   64MOL0     H 8445   7.190   4.701   3.609  0.6927  0.4464  1.5000
   64MOL0     H 8446   7.176   5.035   3.824 -0.6235  0.2719 -1.1761
   64MOL0     H 8447   6.603   4.871   3.268 -0.1707  1.1503 -1.4660
   64MOL0     H 8448   6.430   4.829   3.113 -1.2454 -1.9055 -1.8883
   65MOL0     O 8449   3.015   4.318   3.890 -0.1119  0.2973  0.0719
   65MOL0     C 8450   2.986   4.415   3.952 -0.1988  0.2490 -0.2784
   65MOL0     O 8451   2.872   4.439   4.024 -0.0304  0.3708 -0.4857
   65MOL0     C 8452   2.775   4.341   4.027  0.4977  0.1840  0.8768
   65MOL0     C 8453   2.708   4.309   3.909  0.7582  0.0669 -0.3907
   65MOL0     C 8454   2.596   4.225   3.907 -1.1579  0.5839  0.1317
   65MOL0     C 8455   2.563   4.158   4.022 -0.0695 -0.3008  0.1923
   65MOL0     O 8456   2.474   4.057   4.008  0.4378  0.0577 -0.5337
   65MOL0     C 8457   2.439   3.993   4.130  0.0669  0.5281 -0.8903
   65MOL0     C 8458   2.344   3.878   4.095  0.9430  1.0166  0.1989
   65MOL0     C 8459   2.191   3.907   4.072  1.3732  0.4484 -0.1555
   65MOL0     C 8460   2.122   3.986   4.186  0.6941  0.2490  0.3911
   65MOL0     C 8461   1.968   3.982   4.170 -0.7954 -0.4765  0.6663
   65MOL0     C 8462   1.893   3.947   4.297 -0.1105  0.1165  0.1538
   65MOL0     C 8463   1.906   4.046   4.416 -0.6975  0.3844  0.9999
   65MOL0     C 8464   1.835   4.174   4.393 -0.0543 -0.2052  0.1611
   65MOL0     N 8465   1.694   4.151   4.405  0.2751 -0.1681 -0.5018
   65MOL0     C 8466   1.620   4.135   4.520  0.4881  0.0017  0.2799
   65MOL0     C 8467   1.489   4.125   4.478 -0.1460  0.9687  0.2013
   65MOL0     C 8468   1.368   4.119   4.570 -0.2479 -0.6294  0.0024
   65MOL0     C 8469   1.232   4.068   4.505  0.0739  0.6365  0.2114
   65MOL0     C 8470   1.229   3.920   4.469 -0.0507 -0.1054 -0.7679
   65MOL0     C 8471   1.087   3.874   4.422 -0.6607  0.9502 -0.0934
   65MOL0     O 8472   1.005   3.845   4.540 -0.2426 -0.2463 -0.5066
   65MOL0     C 8473   0.876   3.871   4.524  0.2551 -0.0091 -0.0588
   65MOL0     C 8474   0.788   3.768   4.500 -0.3318  0.0305 -0.7607
   65MOL0     C 8475   0.653   3.786   4.472  0.5368  0.4957 -1.0338
   65MOL0     C 8476   0.590   3.914   4.479 -0.2179 -0.8596 -0.1038
   65MOL0     C 8477   0.444   3.924   4.464  0.5181  0.2794 -0.1176
   65MOL0     O 8478   0.403   4.045   4.493 -0.2673 -0.1464 -0.9557
   65MOL0     C 8479   0.267   4.083   4.497  0.1005 -0.1654 -0.0060
   65MOL0     C 8480   0.161   3.999   4.509  0.1554 -0.4550 -0.8760
   65MOL0     C 8481   0.033   4.057   4.521 -0.1877  0.1150  0.8391
   65MOL0     C 8482   0.018   4.199   4.519  0.6097  0.5535  0.5926
   65MOL0     O 8483  -0.109   4.252   4.549  0.2121  0.1201 -0.1692
   65MOL0     C 8484  -0.122   4.397   4.546  0.6597 -0.3455 -0.8231
   65MOL0     C 8485  -0.269   4.425   4.533 -0.4791 -0.1548 -0.1734
   65MOL0     C 8486  -0.298   4.558   4.601  0.2567  0.4727  0.0420
   65MOL0     C 8487  -0.225   4.688   4.549  0.8765 -0.0982 -0.5665
   65MOL0     C 8488  -0.285   4.815   4.608 -0.3236  0.1869 -0.8912
   65MOL0     C 8489  -0.221   4.927   4.531 -0.1193 -0.3568 -0.2465
   65MOL0     C 8490  -0.065   4.952   4.542  0.4501  0.0221 -0.8998
   65MOL0     C 8491  -0.006   5.039   4.433  0.4121  0.4104 -0.7680
   65MOL0    Cl 8492   0.116   5.145   4.489  0.1169 -0.0181  0.1955
   65MOL0     C 8493   0.125   4.278   4.494 -0.3833 -0.6697  0.4384
   65MOL0     C 8494   0.253   4.218   4.492 -1.3005 -0.1259  0.3997
   65MOL0     O 8495   0.376   3.829   4.422 -0.3647 -0.0505 -0.1692
   65MOL0     C 8496   0.674   4.021   4.501  0.0847 -0.8591 -0.3483
   65MOL0     C 8497   0.813   3.996   4.518 -0.2651 -0.4834  0.1450
   65MOL0     N 8498   1.487   4.122   4.345 -1.0384 -0.2103  0.3963
   65MOL0     N 8499   1.609   4.139   4.303  0.3161 -0.2711 -0.1384
   65MOL0     C 8500   2.635   4.181   4.142  0.1458  0.3352 -0.5113
   65MOL0     C 8501   2.741   4.280   4.142  0.7668  0.5350  0.4804
   65MOL0     C 8502   3.092   4.509   3.981 -0.7429 -0.6416  0.3628
   65MOL0     C 8503   3.221   4.513   3.919  0.3144 -0.2350 -0.0403
   65MOL0     C 8504   3.310   4.623   3.931 -0.6842  0.1684  0.6784
   65MOL0     C 8505   3.273   4.731   4.014 -0.0486 -0.0715 -0.1424
   65MOL0     O 8506   3.373   4.822   4.033 -0.2192  0.2536 -0.5538
   65MOL0     C 8507   3.355   4.940   4.116 -1.1002 -0.5181 -0.6583
   65MOL0     C 8508   3.498   4.980   4.163  0.0248  0.2417 -0.5400
   65MOL0     C 8509   3.490   5.083   4.287  0.6412  0.3567  0.7634
   65MOL0     C 8510   3.629   5.134   4.326 -0.3185 -0.7175  1.0355
   65MOL0     C 8511   3.622   5.277   4.374  0.0675 -0.2299 -0.8655
   65MOL0     C 8512   3.617   5.386   4.426  0.6007 -0.7499 -0.7202
   65MOL0     C 8513   3.159   4.727   4.088 -0.7032 -0.7648  0.0535
   65MOL0     C 8514   3.071   4.621   4.061 -0.5437  0.6379 -1.3083
   65MOL0     H 8515   2.750   4.359   3.823 -0.7154  3.9955  0.9105
   65MOL0     H 8516   2.538   4.207   3.816 -0.7096  3.2378 -0.7906
   65MOL0     H 8517   2.397   4.061   4.205 -1.5560 -0.4924 -0.8143
   65MOL0     H 8518   2.522   3.940   4.178 -1.2253  0.3755  1.3300
   65MOL0     H 8519   2.354   3.796   4.168 -1.5880 -0.2401 -0.7470
   65MOL0     H 8520   2.385   3.844   3.999 -1.0879 -1.3744  0.0718
   65MOL0     H 8521   2.141   3.813   4.049  1.8696  0.0345  0.4323
   65MOL0     H 8522   2.177   3.975   3.987 -0.5787 -0.0037 -0.2530
   65MOL0     H 8523   2.149   3.938   4.280  3.0653  3.5289  1.5568
   65MOL0     H 8524   2.158   4.089   4.191  1.8890 -0.0276 -1.5080
   65MOL0     H 8525   1.944   3.899   4.104 -0.8627 -0.6459  0.9028
   65MOL0     H 8526   1.935   4.070   4.115  1.3086  0.0291  0.1012
   65MOL0     H 8527   1.936   3.851   4.328  1.4532  1.1006  1.1334
   65MOL0     H 8528   1.787   3.924   4.281 -0.8754  2.9699  0.6854
   65MOL0     H 8529   1.877   3.998   4.510  0.2857  1.8435  2.0951
   65MOL0     H 8530   2.014   4.060   4.430 -0.2389 -2.5646  0.9827
   65MOL0     H 8531   1.856   4.196   4.288  0.1197 -1.7204 -0.1445
   65MOL0     H 8532   1.865   4.259   4.455 -0.5874 -0.9626  1.4978
   65MOL0     H 8533   1.649   4.144   4.625  1.0925 -0.0563  0.1214
   65MOL0     H 8534   1.351   4.220   4.608  0.5157 -0.1526 -0.8735
   65MOL0     H 8535   1.399   4.068   4.662  1.3311 -0.4299 -0.3869
   65MOL0     H 8536   1.201   4.124   4.416  1.1308 -0.5272 -0.9281
   65MOL0     H 8537   1.155   4.096   4.578  1.3575  1.0186  1.4638
   65MOL0     H 8538   1.304   3.896   4.393  0.8272 -3.8908  1.0765
   65MOL0     H 8539   1.265   3.865   4.556  1.4418  1.1299 -0.5728
   65MOL0     H 8540   1.107   3.779   4.372  1.9398 -0.2744  2.8713
   65MOL0     H 8541   1.045   3.948   4.355  1.1712  0.9414 -1.3337
   65MOL0     H 8542   0.813   3.663   4.506 -5.0765 -1.2486  2.0160
   65MOL0     H 8543   0.590   3.700   4.448  0.1276 -0.2335  2.1829
   65MOL0     H 8544   0.169   3.891   4.513  2.4611 -0.3287 -0.6132
   65MOL0     H 8545  -0.055   3.996   4.535 -0.9759  0.9428 -0.3883
   65MOL0     H 8546  -0.074   4.450   4.463 -2.6716  0.4582 -2.4244
   65MOL0     H 8547  -0.078   4.444   4.634  1.1633  0.4062 -1.4680
   65MOL0     H 8548  -0.338   4.351   4.576 -0.6926  0.2994  0.2682
   65MOL0     H 8549  -0.284   4.431   4.425  1.3486  0.1954 -0.4410
   65MOL0     H 8550  -0.273   4.550   4.707 -1.3176 -0.7765  0.3721
   65MOL0     H 8551  -0.405   4.579   4.592  0.5095  1.3279 -1.1530
   65MOL0     H 8552  -0.120   4.666   4.572  0.2837 -0.4825  2.1436
   65MOL0     H 8553  -0.221   4.700   4.441  3.2747  0.9555 -0.4405
   65MOL0     H 8554  -0.267   4.818   4.716  1.3506 -0.1757 -1.1241
   65MOL0     H 8555  -0.391   4.837   4.592 -0.4371 -0.9589 -1.8710
   65MOL0     H 8556  -0.267   5.013   4.582  1.2559 -0.6011  1.5100
   65MOL0     H 8557  -0.249   4.917   4.426 -1.8980  0.0404  0.1547
   65MOL0     H 8558  -0.044   4.992   4.642 -2.1383  1.1745 -0.7430
   65MOL0     H 8559  -0.022   4.851   4.539 -0.1840 -0.3794  1.4598
   65MOL0     H 8560  -0.088   5.104   4.403 -0.7700  0.3374  2.0213
   65MOL0     H 8561   0.034   4.966   4.361  0.4862 -2.0534  1.6060
   65MOL0     H 8562   0.129   4.385   4.512  0.4470 -0.7152  0.5425
   65MOL0     H 8563   0.334   4.290   4.486 -0.8278 -0.6161  0.8042
   65MOL0     H 8564   0.636   4.123   4.498  1.7881 -0.2245 -2.2893
   65MOL0     H 8565   0.880   4.080   4.536 -0.2203  0.7580 -4.6520
   65MOL0     H 8566   2.599   4.131   4.231 -1.3954 -3.1578 -2.8697
   65MOL0     H 8567   2.780   4.294   4.242 -0.7647 -1.3421  1.4211
   65MOL0     H 8568   3.257   4.427   3.863  3.2887 -0.2143  1.7004
   65MOL0     H 8569   3.399   4.628   3.869 -2.1058  1.9700 -1.3561
   65MOL0     H 8570   3.292   4.925   4.204 -2.4496 -2.7498 -1.9010
   65MOL0     H 8571   3.311   5.027   4.065 -0.4883  0.4222  0.3818
   65MOL0     H 8572   3.549   4.891   4.201 -2.6898 -1.6456 -1.0583
   65MOL0     H 8573   3.550   5.029   4.081 -0.1019 -1.3518 -1.6081
   65MOL0     H 8574   3.452   5.018   4.367 -3.0615  2.2908  0.8277
   65MOL0     H 8575   3.407   5.149   4.260 -0.3785 -1.5519 -1.0957
   65MOL0     H 8576   3.663   5.079   4.414 -0.0495  1.4295  2.3482
   65MOL0     H 8577   3.698   5.134   4.241 -2.0877  1.2410 -0.5322
   65MOL0     H 8578   3.606   5.478   4.479 -0.0570 -2.1782  1.7618
   65MOL0     H 8579   3.140   4.800   4.165 -0.5042 -1.0600  0.3871
   65MOL0     H 8580   2.971   4.630   4.101 -0.0920  1.4333 -0.3136
   66MOL0     O 8581  11.097   9.573   1.143 -0.4133  0.2490 -0.1389
   66MOL0     C 8582  11.123   9.639   1.040  0.0909  0.1174  0.5862
   66MOL0     O 8583  11.062   9.634   0.917 -0.0769  0.1334  0.0511
   66MOL0     C 8584  10.957   9.543   0.881 -0.4600 -0.9965  0.3084
   66MOL0     C 8585  10.893   9.464   0.971 -0.5298  0.3356  0.2401
   66MOL0     C 8586  10.776   9.387   0.941 -0.5985 -0.7607  0.5648
   66MOL0     C 8587  10.735   9.383   0.809  0.8733 -1.1475 -0.5758
   66MOL0     O 8588  10.620   9.314   0.770 -1.1157  0.1266  0.1869
   66MOL0     C 8589  10.500   9.334   0.840  0.4697  0.4037 -0.3620
   66MOL0     C 8590  10.373   9.295   0.761  0.2350  1.0366  0.0237
   66MOL0     C 8591  10.327   9.419   0.687  0.7101  0.1111  0.8430
   66MOL0     C 8592  10.211   9.375   0.596 -0.3144 -0.3313 -0.4575
   66MOL0     C 8593  10.173   9.492   0.503  0.5799  0.2443 -0.0169
   66MOL0     C 8594  10.077   9.453   0.388 -0.2198 -0.3679 -0.6245
   66MOL0     C 8595   9.932   9.423   0.437  0.7981  0.3469  1.0518
   66MOL0     C 8596   9.854   9.548   0.477 -0.5588  0.3522  0.3451
   66MOL0     N 8597   9.712   9.511   0.462 -0.1446 -0.5061  0.2432
   66MOL0     C 8598   9.627   9.478   0.559  0.2380 -1.4824  0.2084
   66MOL0     C 8599   9.503   9.468   0.499 -0.4655 -0.1679  0.5306
   66MOL0     C 8600   9.376   9.439   0.568  0.3746  0.0788  0.3579
   66MOL0     C 8601   9.312   9.305   0.524  0.3325  0.1636  0.7083
   66MOL0     C 8602   9.400   9.186   0.571 -0.0477 -0.6771  0.4759
   66MOL0     C 8603   9.329   9.057   0.637  0.4227  0.5229 -0.2224
   66MOL0     O 8604   9.400   9.006   0.743 -0.2621  0.7236 -0.5374
   66MOL0     C 8605   9.505   8.926   0.708  0.3206 -0.1951 -0.0621
   66MOL0     C 8606   9.571   8.865   0.816  0.2354 -0.1367 -0.4211
   66MOL0     C 8607   9.676   8.769   0.793 -1.1917 -0.5177 -1.1740
   66MOL0     C 8608   9.730   8.751   0.670  0.2898  0.6038  0.3348
   66MOL0     C 8609   9.835   8.647   0.636 -2.0530 -0.4663  0.1513
   66MOL0     O 8610   9.894   8.591   0.745  0.8613 -0.3237  0.1737
   66MOL0     C 8611   9.981   8.488   0.727 -0.8121 -1.0476 -0.1111
   66MOL0     C 8612  10.095   8.485   0.812  0.8233 -0.2510 -0.5130
   66MOL0     C 8613  10.181   8.377   0.799 -0.0337 -0.3972  0.7686
   66MOL0     C 8614  10.168   8.275   0.708  1.0545  0.4991  0.0952
   66MOL0     O 8615  10.256   8.180   0.700 -0.2340  0.4393 -0.1623
   66MOL0     C 8616  10.220   8.046   0.664  0.4615 -0.0854 -0.5295
   66MOL0     C 8617  10.327   7.941   0.677 -0.0904 -0.0625 -0.6227
   66MOL0     C 8618  10.446   7.983   0.589 -0.4521 -0.7489 -0.9610
   66MOL0     C 8619  10.545   7.871   0.591 -0.4445  0.7149  0.8335
   66MOL0     C 8620  10.662   7.907   0.491 -0.9880  0.2154 -0.5005
   66MOL0     C 8621  10.772   7.998   0.549 -0.4308 -0.0959 -1.2323
   66MOL0     C 8622  10.890   8.018   0.454 -0.3554  0.2202 -0.2225
   66MOL0     C 8623  11.001   8.101   0.510  0.1002  0.6478  0.6766
   66MOL0    Cl 8624  11.046   8.246   0.423  0.1264  0.3527  0.1188
   66MOL0     C 8625  10.051   8.286   0.622 -0.7123  0.3094 -0.4587
   66MOL0     C 8626   9.954   8.386   0.635 -1.3169  0.9646  0.7174
   66MOL0     O 8627   9.857   8.615   0.521  0.6012 -0.3770  0.3255
   66MOL0     C 8628   9.662   8.819   0.561 -0.7128 -0.5307 -0.0090
   66MOL0     C 8629   9.553   8.905   0.580  1.1934  0.0219  0.3964
   66MOL0     N 8630   9.530   9.471   0.362  0.1464  0.5091 -0.0573
   66MOL0     N 8631   9.645   9.511   0.340  0.3255 -0.1821  0.0766
   66MOL0     C 8632  10.792   9.467   0.714  0.0388  0.3454 -0.4988
   66MOL0     C 8633  10.900   9.548   0.753 -0.2214 -0.4528  0.7714
   66MOL0     C 8634  11.213   9.745   1.055 -0.4112 -0.8277 -0.4508
   66MOL0     C 8635  11.256   9.792   1.178 -0.9672 -0.1550 -0.0574
   66MOL0     C 8636  11.350   9.896   1.190  0.0175  0.3401  0.1046
   66MOL0     C 8637  11.403   9.955   1.077  0.3478 -0.6093 -0.1722
   66MOL0     O 8638  11.506  10.051   1.099  0.0077 -0.2660  0.3130
   66MOL0     C 8639  11.611  10.068   1.008 -0.2999  0.7363  0.0520
   66MOL0     C 8640  11.715   9.956   0.990  0.4365  0.1266  0.0882
   66MOL0     C 8641  11.748   9.869   1.116  0.6496  1.0901  0.9738
   66MOL0     C 8642  11.849   9.920   1.209 -0.4823  0.4021  0.2439
   66MOL0     C 8643  11.977   9.965   1.145 -0.7066 -0.6205  0.3726
   66MOL0     C 8644  12.080   9.981   1.083 -0.2904  0.4097  0.1860
   66MOL0     C 8645  11.354   9.914   0.955 -0.6807  0.4114  0.2822
   66MOL0     C 8646  11.260   9.813   0.944 -0.5206 -0.7931 -0.0340
   66MOL0     H 8647  10.913   9.457   1.077 -1.9300 -2.9058  0.4314
   66MOL0     H 8648  10.728   9.330   1.019 -0.8706 -0.7044  0.4383
   66MOL0     H 8649  10.489   9.438   0.870  0.7128  0.4239 -0.3379
   66MOL0     H 8650  10.510   9.280   0.935  1.7191  2.8821  1.0205
   66MOL0     H 8651  10.296   9.256   0.828 -0.8300 -1.4873 -2.4562
   66MOL0     H 8652  10.391   9.212   0.691 -1.1577 -1.8797  2.8399
   66MOL0     H 8653  10.411   9.451   0.625 -0.7960  0.3293 -1.1790
   66MOL0     H 8654  10.297   9.502   0.752  2.3606  0.2729  1.4527
   66MOL0     H 8655  10.245   9.281   0.553  1.2197 -0.9961  1.9734
   66MOL0     H 8656  10.127   9.353   0.663  0.0464  1.1011  0.5067
   66MOL0     H 8657  10.270   9.528   0.466  0.5173 -0.8444 -1.2908
   66MOL0     H 8658  10.128   9.571   0.565  0.9899 -0.2440  0.9342
   66MOL0     H 8659  10.114   9.370   0.327 -0.5661  1.4449 -3.5056
   66MOL0     H 8660  10.065   9.535   0.316  2.1917  1.6058  1.0285
   66MOL0     H 8661   9.886   9.378   0.348  1.9790 -0.8190  1.0088
   66MOL0     H 8662   9.947   9.349   0.515  2.8484  0.8294  1.1874
   66MOL0     H 8663   9.879   9.635   0.416  1.1223  1.3475  2.3728
   66MOL0     H 8664   9.870   9.568   0.583 -0.6064  1.1069  0.2155
   66MOL0     H 8665   9.644   9.478   0.666  3.9083  1.6944 -0.1465
   66MOL0     H 8666   9.309   9.524   0.548  0.0954 -0.1014  0.5218
   66MOL0     H 8667   9.399   9.430   0.674  2.0397 -0.9773 -0.0575
   66MOL0     H 8668   9.284   9.296   0.418  0.8281 -0.1390  0.6008
   66MOL0     H 8669   9.216   9.293   0.575  0.1350 -0.2262  0.2494
   66MOL0     H 8670   9.453   9.149   0.483 -0.1434 -2.5638  1.1707
   66MOL0     H 8671   9.471   9.220   0.647  2.0626 -1.9514 -0.8394
   66MOL0     H 8672   9.293   8.982   0.565  0.3911  0.9970 -0.7090
   66MOL0     H 8673   9.238   9.103   0.678  1.3298  0.5622  1.8819
   66MOL0     H 8674   9.527   8.876   0.915 -0.7247  1.5392 -0.9924
   66MOL0     H 8675   9.718   8.714   0.877 -0.8218  3.8249  1.8276
   66MOL0     H 8676  10.119   8.560   0.887  2.5896 -1.3563  0.0864
   66MOL0     H 8677  10.264   8.376   0.869 -2.3399  0.0721  3.7232
   66MOL0     H 8678  10.181   8.041   0.562 -4.2099 -0.9184  1.0617
   66MOL0     H 8679  10.144   8.008   0.732 -0.9155  2.1176 -0.7684
   66MOL0     H 8680  10.275   7.848   0.654 -1.9891  1.0556 -1.1191
   66MOL0     H 8681  10.352   7.942   0.784  1.0779 -2.5666 -0.8040
   66MOL0     H 8682  10.489   8.066   0.645  0.2260 -0.8907 -1.2570
   66MOL0     H 8683  10.419   8.006   0.485 -2.5165  0.8211 -0.1487
   66MOL0     H 8684  10.579   7.844   0.691 -0.3043  0.1065  0.6256
   66MOL0     H 8685  10.496   7.786   0.542 -0.6706  0.9935  0.5650
   66MOL0     H 8686  10.621   7.936   0.394  0.8356 -1.4089 -1.8529
   66MOL0     H 8687  10.727   7.820   0.477  2.9094  2.8645 -0.6463
   66MOL0     H 8688  10.808   7.960   0.646 -3.4467  0.1172  0.0881
   66MOL0     H 8689  10.721   8.093   0.567 -0.2574 -0.1170 -0.5834
   66MOL0     H 8690  10.922   7.922   0.413 -0.9051  0.4076 -1.1136
   66MOL0     H 8691  10.850   8.081   0.373  0.8797  1.1630 -0.1344
   66MOL0     H 8692  11.089   8.039   0.525 -0.4021  0.1643  1.7189
   66MOL0     H 8693  10.974   8.149   0.605 -2.2141  1.3745 -0.2619
   66MOL0     H 8694  10.037   8.201   0.556 -2.2732 -0.1943  0.4653
   66MOL0     H 8695   9.858   8.386   0.584  0.5416  2.5665 -3.2152
   66MOL0     H 8696   9.697   8.796   0.461  2.1947  1.0871  0.5363
   66MOL0     H 8697   9.505   8.938   0.489  1.7724 -1.9789 -0.7170
   66MOL0     H 8698  10.755   9.470   0.612  0.3899  1.4478 -0.6142
   66MOL0     H 8699  10.938   9.610   0.672 -0.1901  0.3248  1.3743
   66MOL0     H 8700  11.202   9.757   1.265  0.6159 -0.8529  0.6823
   66MOL0     H 8701  11.389   9.940   1.281  0.3893  2.2995 -0.9566
   66MOL0     H 8702  11.661  10.158   1.044  1.9578 -0.0706 -0.8874
   66MOL0     H 8703  11.576  10.092   0.908  1.0931 -1.8002 -1.1475
   66MOL0     H 8704  11.681   9.891   0.909  1.4085  0.1577 -0.3644
   66MOL0     H 8705  11.805  10.003   0.948 -0.9313  1.0011 -2.0537
   66MOL0     H 8706  11.764   9.765   1.086 -2.4350  0.2292  1.9199
   66MOL0     H 8707  11.655   9.849   1.170 -0.1254 -2.5727 -1.4178
   66MOL0     H 8708  11.809   9.999   1.274  0.9820  1.5875 -0.2422
   66MOL0     H 8709  11.874   9.835   1.273  0.9822 -0.3197 -1.1940
   66MOL0     H 8710  12.173  10.007   1.038  0.1016  2.3271  1.9210
   66MOL0     H 8711  11.385   9.973   0.869 -1.1165  0.4087  0.1197
   66MOL0     H 8712  11.228   9.779   0.846 -1.0558 -2.7959  0.7854
   67MOL0     O 8713  10.847   0.382   4.811  0.1668  0.1546 -0.6896
   67MOL0     C 8714  10.849   0.504   4.816 -0.2916  0.9924  0.7258
   67MOL0     O 8715  10.735   0.582   4.811  0.5319 -0.0598  0.7006
   67MOL0     C 8716  10.601   0.538   4.810  0.7239 -0.1021  0.1315
   67MOL0     C 8717  10.545   0.460   4.909 -0.3781  0.0565 -0.8247
   67MOL0     C 8718  10.425   0.389   4.907  0.0810  0.5241  0.2338
   67MOL0     C 8719  10.357   0.398   4.785  0.3927 -0.7026  0.6397
   67MOL0     O 8720  10.233   0.371   4.752 -0.1522 -0.4416 -0.4395
   67MOL0     C 8721  10.170   0.267   4.831  0.2323 -0.5961 -1.2414
   67MOL0     C 8722  10.069   0.182   4.748  0.1981  0.3562  0.9155
   67MOL0     C 8723   9.915   0.182   4.791 -0.0101 -1.1927  0.1912
   67MOL0     C 8724   9.859   0.329   4.818  0.5708  0.5947  0.5566
   67MOL0     C 8725   9.703   0.332   4.837 -1.1904  0.0120 -0.2088
   67MOL0     C 8726   9.677   0.242   4.963 -0.2128  1.0484  0.1894
   67MOL0     C 8727   9.535   0.255   5.026  0.3556 -0.1330 -0.4275
   67MOL0     C 8728   9.521   0.168   5.150  0.5278 -0.8957  0.8251
   67MOL0     N 8729   9.505   0.030   5.096  0.6318  0.5475  0.1095
   67MOL0     C 8730   9.385  -0.032   5.072 -0.2280  0.1872 -0.2628
   67MOL0     C 8731   9.414  -0.157   5.024  0.4204  1.1772 -0.2605
   67MOL0     C 8732   9.330  -0.281   5.009  1.0861 -0.6549 -0.1610
   67MOL0     C 8733   9.338  -0.366   5.147  0.3991 -0.6563 -0.0116
   67MOL0     C 8734   9.248  -0.496   5.133 -0.6931  0.0175  0.9726
   67MOL0     C 8735   9.164  -0.516   5.255 -0.6685 -0.6786  0.2412
   67MOL0     O 8736   9.064  -0.419   5.244  0.2198  1.1470  0.8048
   67MOL0     C 8737   8.939  -0.470   5.217  0.5331 -0.9181  0.3027
   67MOL0     C 8738   8.901  -0.498   5.088  0.2537  0.4181 -0.1798
   67MOL0     C 8739   8.762  -0.507   5.052 -0.1074  0.3053  0.4974
   67MOL0     C 8740   8.662  -0.489   5.146 -0.2424 -0.6089 -0.7671
   67MOL0     C 8741   8.517  -0.502   5.116 -0.4485  0.5066  0.4042
   67MOL0     O 8742   8.421  -0.494   5.213  0.4778 -0.1224  0.8233
   67MOL0     C 8743   8.300  -0.540   5.173 -0.2924 -0.0481  0.0742
   67MOL0     C 8744   8.190  -0.453   5.170  0.4888  0.6875  0.0131
   67MOL0     C 8745   8.065  -0.491   5.129  0.1149 -0.3330  0.4434
   67MOL0     C 8746   8.034  -0.622   5.096 -0.4628  0.2933 -0.7150
   67MOL0     O 8747   7.915  -0.672   5.060 -0.1135 -0.1489 -0.1332
   67MOL0     C 8748   7.805  -0.581   5.042  0.3755 -1.0509  0.6740
   67MOL0     C 8749   7.721  -0.572   5.172  0.6906  0.4574  0.3112
   67MOL0     C 8750   7.604  -0.671   5.182  0.2575  0.3481 -0.3979
   67MOL0     C 8751   7.512  -0.652   5.308 -0.7717 -0.0083 -0.4361
   67MOL0     C 8752   7.406  -0.547   5.281  0.1318 -0.6210  0.8389
   67MOL0     C 8753   7.327  -0.518   5.405  0.5711 -1.0676  0.2791
   67MOL0     C 8754   7.230  -0.405   5.371 -0.0125  0.1096 -0.0327
   67MOL0     C 8755   7.168  -0.346   5.499 -0.5954 -0.0178 -0.5606
   67MOL0    Cl 8756   7.076  -0.198   5.476 -0.1460 -0.1687 -0.3374
   67MOL0     C 8757   8.139  -0.711   5.111 -0.4497  0.0677  0.7320
   67MOL0     C 8758   8.271  -0.671   5.136  0.7336 -0.1610 -0.1305
   67MOL0     O 8759   8.491  -0.514   4.992  0.1763 -0.0652 -0.2239
   67MOL0     C 8760   8.708  -0.472   5.275  0.1875 -0.8391  0.5446
   67MOL0     C 8761   8.839  -0.456   5.312  0.3334  0.5789 -1.0143
   67MOL0     N 8762   9.551  -0.162   5.026 -0.3292  0.0145  0.2938
   67MOL0     N 8763   9.606  -0.051   5.053  0.4680 -0.0522 -0.4166
   67MOL0     C 8764  10.409   0.482   4.686  0.6442  0.8614  0.2646
   67MOL0     C 8765  10.517   0.559   4.697 -0.5542  0.2044  0.1518
   67MOL0     C 8766  10.976   0.562   4.870  1.6660 -0.2525  0.5954
   67MOL0     C 8767  11.098   0.492   4.850  0.4554 -0.2976  0.5317
   67MOL0     C 8768  11.218   0.554   4.885  0.0830 -1.1787  0.6190
   67MOL0     C 8769  11.226   0.691   4.932 -0.0033  1.3729 -0.4435
   67MOL0     O 8770  11.335   0.755   4.979 -0.1540  0.1127 -0.7223
   67MOL0     C 8771  11.463   0.695   4.955 -0.1447  0.2131 -0.6280
   67MOL0     C 8772  11.511   0.695   4.807 -0.1047  0.6553 -0.6080
   67MOL0     C 8773  11.643   0.615   4.780  0.5909 -0.5095 -1.1646
   67MOL0     C 8774  11.755   0.648   4.883  0.5155 -0.1407  0.3638
   67MOL0     C 8775  11.892   0.597   4.858  0.9682  0.0176  0.3470
   67MOL0     C 8776  12.003   0.555   4.845 -0.0029  0.5130 -0.8209
   67MOL0     C 8777  11.101   0.755   4.938 -0.3654 -0.9077 -0.3228
   67MOL0     C 8778  10.980   0.695   4.913  0.2408 -1.0893  0.0982
   67MOL0     H 8779  10.600   0.453   5.003 -2.2943  3.9409  0.8174
   67MOL0     H 8780  10.383   0.329   4.987  2.5891 -0.0984  1.1760
   67MOL0     H 8781  10.111   0.307   4.915  1.7416 -2.5316  0.8698
   67MOL0     H 8782  10.235   0.202   4.891 -1.1142  2.4207  4.2322
   67MOL0     H 8783  10.112   0.082   4.755 -0.3953  0.2297  4.4739
   67MOL0     H 8784  10.067   0.222   4.646  3.3000  0.5435  0.8282
   67MOL0     H 8785   9.910   0.136   4.891 -2.1023  0.6035  1.0035
   67MOL0     H 8786   9.848   0.127   4.724  1.5475 -3.4042  0.3181
   67MOL0     H 8787   9.904   0.371   4.909 -0.2213  2.8310 -0.0176
   67MOL0     H 8788   9.870   0.400   4.735 -3.1595  1.0319  0.2727
   67MOL0     H 8789   9.647   0.291   4.753  0.2108 -1.2196 -0.5955
   67MOL0     H 8790   9.673   0.435   4.856  2.7649  1.1037  1.1570
   67MOL0     H 8791   9.754   0.262   5.038 -0.0300  0.0396  0.2826
   67MOL0     H 8792   9.690   0.138   4.932 -2.8476  0.9767 -0.9883
   67MOL0     H 8793   9.503   0.359   5.030  0.5520 -0.0509 -0.9012
   67MOL0     H 8794   9.467   0.215   4.950 -0.4481 -1.0278  0.7267
   67MOL0     H 8795   9.443   0.209   5.215 -0.6827 -0.2829 -0.9241
   67MOL0     H 8796   9.606   0.175   5.218 -1.3955 -0.9302  3.4024
   67MOL0     H 8797   9.286   0.007   5.095  0.5499  1.6999  0.7640
   67MOL0     H 8798   9.354  -0.342   4.922  2.1094  1.0778 -1.1565
   67MOL0     H 8799   9.224  -0.257   4.995  1.2695  0.2202 -0.1247
   67MOL0     H 8800   9.304  -0.309   5.234 -0.7046 -1.4797  0.1205
   67MOL0     H 8801   9.438  -0.394   5.183  0.4958 -0.1727  0.1049
   67MOL0     H 8802   9.197  -0.491   5.036  0.6529 -0.6842  0.1944
   67MOL0     H 8803   9.323  -0.575   5.128  1.6976  2.2210 -0.6268
   67MOL0     H 8804   9.220  -0.501   5.347  1.4647  2.1381 -1.3502
   67MOL0     H 8805   9.128  -0.619   5.263 -2.2949 -0.1059  0.6944
   67MOL0     H 8806   8.982  -0.501   5.017  0.5145 -4.4378 -0.0310
   67MOL0     H 8807   8.733  -0.528   4.950 -4.0005  2.3525  0.9829
   67MOL0     H 8808   8.213  -0.349   5.191  3.7961 -0.2412  1.6111
   67MOL0     H 8809   7.991  -0.413   5.137  1.2239  0.7086  0.9102
   67MOL0     H 8810   7.736  -0.625   4.969  2.7365 -2.6816 -0.7264
   67MOL0     H 8811   7.830  -0.480   5.010 -1.3369 -0.5531  0.8335
   67MOL0     H 8812   7.677  -0.471   5.175 -0.0334  0.2797 -2.3073
   67MOL0     H 8813   7.786  -0.591   5.258  0.0378 -0.2322  0.6709
   67MOL0     H 8814   7.647  -0.771   5.182 -0.9234 -0.1782 -0.4453
   67MOL0     H 8815   7.551  -0.660   5.087  0.2166  1.1421 -0.2902
   67MOL0     H 8816   7.475  -0.752   5.335 -0.2191 -0.2136 -0.4332
   67MOL0     H 8817   7.575  -0.633   5.395  0.1083 -0.8679 -0.8616
   67MOL0     H 8818   7.352  -0.596   5.199  3.0591 -3.3599  0.3323
   67MOL0     H 8819   7.455  -0.456   5.248  1.6279 -1.1689  1.4399
   67MOL0     H 8820   7.397  -0.505   5.488  1.2594 -0.1804 -0.4149
   67MOL0     H 8821   7.266  -0.605   5.431  0.2915 -0.8033  0.5267
   67MOL0     H 8822   7.285  -0.320   5.331 -3.1049  1.4587 -1.6851
   67MOL0     H 8823   7.152  -0.432   5.299 -0.2482 -0.3879  0.3974
   67MOL0     H 8824   7.257  -0.329   5.559  0.8587 -0.1855 -2.5426
   67MOL0     H 8825   7.112  -0.428   5.545 -0.1364 -0.7749 -1.2946
   67MOL0     H 8826   8.137  -0.809   5.065 -0.7225 -0.3853  1.6867
   67MOL0     H 8827   8.354  -0.739   5.119  1.7657  1.1077 -0.3395
   67MOL0     H 8828   8.640  -0.467   5.359  2.3820  1.3324  2.3657
   67MOL0     H 8829   8.861  -0.429   5.415 -3.2931  0.3931 -0.0245
   67MOL0     H 8830  10.343   0.512   4.606  1.2149 -0.2060 -0.6233
   67MOL0     H 8831  10.544   0.627   4.617  3.3719 -1.5491 -0.2521
   67MOL0     H 8832  11.104   0.405   4.786 -0.1957  0.6959 -0.9177
   67MOL0     H 8833  11.307   0.497   4.861 -0.3922 -1.3390 -0.8411
   67MOL0     H 8834  11.474   0.596   5.000  3.2517  0.1678 -1.2928
   67MOL0     H 8835  11.540   0.749   5.010  1.9215  0.0665 -3.1821
   67MOL0     H 8836  11.430   0.663   4.742 -0.7199 -1.2956  1.0281
   67MOL0     H 8837  11.529   0.799   4.777  2.2548  0.4090 -0.2895
   67MOL0     H 8838  11.680   0.635   4.679  2.5802  1.0202 -0.2105
   67MOL0     H 8839  11.628   0.507   4.773 -1.1403 -0.3604 -0.2190
   67MOL0     H 8840  11.761   0.757   4.891  3.3786 -0.3094  1.3002
   67MOL0     H 8841  11.721   0.605   4.977 -1.1288 -3.9187 -1.7497
   67MOL0     H 8842  12.093   0.498   4.850 -0.6379 -0.3851  1.0045
   67MOL0     H 8843  11.096   0.859   4.968 -3.3251 -0.6318 -1.3618
   67MOL0     H 8844  10.897   0.765   4.910  2.4210  1.6779  0.0617
   68MOL0     O 8845   8.618  10.615   0.879  0.3318 -0.0755 -0.3314
   68MOL0     C 8846   8.545  10.716   0.880 -0.6481 -0.7090 -1.0974
   68MOL0     O 8847   8.587  10.833   0.823 -0.6638 -0.4403 -0.1504
   68MOL0     C 8848   8.688  10.821   0.739 -0.0873 -0.4907 -0.1372
   68MOL0     C 8849   8.675  10.767   0.616  0.0932  0.1960 -0.1327
   68MOL0     C 8850   8.788  10.761   0.525 -0.2535  0.0365  0.3032
   68MOL0     C 8851   8.920  10.793   0.569 -0.2356  0.2044  0.1848
   68MOL0     O 8852   9.020  10.778   0.473 -0.2379 -0.4432 -0.3246
   68MOL0     C 8853   9.130  10.873   0.473  0.6474  0.0615 -0.5216
   68MOL0     C 8854   9.184  10.897   0.331  0.0052 -0.4784  0.4583
   68MOL0     C 8855   9.101  11.008   0.259  0.6363  0.2231 -0.1962
   68MOL0     C 8856   9.139  11.022   0.108  0.3130 -0.2187  1.0776
   68MOL0     C 8857   9.075  11.146   0.032 -0.0001  0.4308 -1.2901
   68MOL0     C 8858   9.117  11.152  -0.118 -0.6306 -0.3036 -0.9804
   68MOL0     C 8859   9.264  11.192  -0.151 -0.5967 -0.5699  1.5688
   68MOL0     C 8860   9.284  11.194  -0.305  0.5354 -0.5082 -0.3626
   68MOL0     N 8861   9.418  11.248  -0.337  0.0530  0.1569  0.2444
   68MOL0     C 8862   9.456  11.386  -0.327  0.2151  0.4766  0.6143
   68MOL0     C 8863   9.592  11.399  -0.300 -0.0129  0.6743  0.5689
   68MOL0     C 8864   9.673  11.517  -0.280 -1.3682 -0.4011 -1.0453
   68MOL0     C 8865   9.629  11.638  -0.371  0.2697 -0.4732  0.0549
   68MOL0     C 8866   9.705  11.764  -0.330  0.2094 -0.8497 -0.6030
   68MOL0     C 8867   9.736  11.841  -0.463  0.0452  0.2419  0.4369
   68MOL0     O 8868   9.806  11.963  -0.442 -0.3626 -0.5409  0.0193
   68MOL0     C 8869   9.934  11.976  -0.419 -0.0390 -1.2160 -0.3989
   68MOL0     C 8870  10.024  11.864  -0.411  0.3816 -0.4779  0.0475
   68MOL0     C 8871  10.166  11.893  -0.399 -0.4239  0.9242 -0.1982
   68MOL0     C 8872  10.219  12.024  -0.379 -0.3566  0.0876 -0.0017
   68MOL0     C 8873  10.358  12.052  -0.352 -0.1739 -0.1128 -0.3979
   68MOL0     O 8874  10.387  12.186  -0.342 -0.8651  0.7128  0.4549
   68MOL0     C 8875  10.514  12.220  -0.293  0.4366  0.3562  0.9388
   68MOL0     C 8876  10.611  12.298  -0.363 -0.2350  0.8980  0.5558
   68MOL0     C 8877  10.732  12.323  -0.309 -0.1130 -0.1034 -0.9031
   68MOL0     C 8878  10.755  12.289  -0.183 -0.4425 -0.3275 -0.4581
   68MOL0     O 8879  10.873  12.324  -0.119  0.1963  0.4640 -0.0283
   68MOL0     C 8880  10.986  12.256  -0.152 -0.4394 -1.3087  0.2713
   68MOL0     C 8881  11.078  12.357  -0.215 -0.5781 -0.0429 -0.4943
   68MOL0     C 8882  11.230  12.330  -0.230 -0.1006  0.5436 -0.0122
   68MOL0     C 8883  11.254  12.182  -0.269 -0.2288  0.1727  0.5464
   68MOL0     C 8884  11.383  12.170  -0.353  0.0786 -0.0221 -0.0233
   68MOL0     C 8885  11.517  12.194  -0.289 -0.0551  0.5795  0.2106
   68MOL0     C 8886  11.625  12.129  -0.393 -1.1140 -0.3999 -0.0816
   68MOL0     C 8887  11.774  12.156  -0.367 -0.8551 -0.6800 -0.3121
   68MOL0    Cl 8888  11.803  12.327  -0.407  0.6868 -0.5380  0.1889
   68MOL0     C 8889  10.662  12.218  -0.107  0.2185 -0.0000 -0.4938
   68MOL0     C 8890  10.549  12.177  -0.163  0.5885 -0.1054  0.0915
   68MOL0     O 8891  10.430  11.958  -0.326  0.1269 -0.2622  0.4345
   68MOL0     C 8892  10.126  12.127  -0.377  0.2508  0.2190 -0.1404
   68MOL0     C 8893   9.990  12.107  -0.410 -0.5979  0.1388  0.0362
   68MOL0     N 8894   9.634  11.262  -0.310 -0.7163 -0.4757 -0.4203
   68MOL0     N 8895   9.538  11.177  -0.313 -0.2050 -1.0168  0.1135
   68MOL0     C 8896   8.927  10.833   0.702 -0.5787 -0.2113  1.8088
   68MOL0     C 8897   8.813  10.852   0.790 -0.3570 -0.2180  0.8911
   68MOL0     C 8898   8.435  10.723   0.979 -1.2989 -0.2354  0.3725
   68MOL0     C 8899   8.383  10.853   1.001  0.4881 -0.1643 -0.0676
   68MOL0     C 8900   8.267  10.855   1.080  0.3073 -0.6234  0.7794
   68MOL0     C 8901   8.215  10.745   1.141  0.2248  0.5420 -0.2231
   68MOL0     O 8902   8.106  10.774   1.222  0.0581  0.2490  0.4067
   68MOL0     C 8903   8.101  10.717   1.347  0.3314 -0.6342 -0.9190
   68MOL0     C 8904   8.212  10.750   1.440 -0.9205  0.7962  0.7010
   68MOL0     C 8905   8.188  10.710   1.583 -0.1326  0.2671 -1.7225
   68MOL0     C 8906   8.055  10.741   1.645  0.8276 -0.5404 -0.0093
   68MOL0     C 8907   8.066  10.767   1.785 -0.1693 -0.9069 -1.1081
   68MOL0     C 8908   8.051  10.793   1.906 -0.1590  0.4904 -0.3999
   68MOL0     C 8909   8.291  10.624   1.144  0.4111 -0.4415  0.6905
   68MOL0     C 8910   8.403  10.611   1.060 -0.1566 -0.5961  0.1640
   68MOL0     H 8911   8.585  10.719   0.579  1.5697 -0.2072 -3.5008
   68MOL0     H 8912   8.771  10.718   0.427 -3.3783  1.7630 -0.0436
   68MOL0     H 8913   9.212  10.838   0.537  0.4488  0.2009 -0.1872
   68MOL0     H 8914   9.085  10.964   0.514 -2.0262 -1.8981  1.1569
   68MOL0     H 8915   9.186  10.806   0.271 -2.0078 -1.5290  1.8838
   68MOL0     H 8916   9.289  10.928   0.340  0.2646 -0.0848 -2.7361
   68MOL0     H 8917   9.114  11.094   0.324  2.1373  0.3705 -0.6360
   68MOL0     H 8918   8.996  10.982   0.276  0.7598  0.5305  1.0934
   68MOL0     H 8919   9.246  11.039   0.095  0.4912 -0.7624  1.8140
   68MOL0     H 8920   9.122  10.930   0.051  4.4139  0.8651 -2.3334
   68MOL0     H 8921   9.072  11.241   0.086 -0.1182 -0.2756 -0.0057
   68MOL0     H 8922   8.967  11.129   0.027 -0.1794  1.6647 -2.1251
   68MOL0     H 8923   9.050  11.226  -0.161 -0.9114  0.1719  0.2271
   68MOL0     H 8924   9.104  11.056  -0.170  1.2282 -0.7529 -0.6850
   68MOL0     H 8925   9.289  11.293  -0.116  1.4655 -0.3258 -0.4219
   68MOL0     H 8926   9.345  11.130  -0.113  1.1062  0.7419  0.2667
   68MOL0     H 8927   9.207  11.252  -0.357  0.5367  0.7063  0.9212
   68MOL0     H 8928   9.274  11.091  -0.340  0.0218  0.1792 -2.3662
   68MOL0     H 8929   9.392  11.473  -0.336 -0.6489 -0.2514 -0.7054
   68MOL0     H 8930   9.779  11.495  -0.292 -0.2228  1.3364  3.6434
   68MOL0     H 8931   9.661  11.532  -0.172 -0.6493 -0.1540 -0.9935
   68MOL0     H 8932   9.523  11.642  -0.341  0.0982 -1.6429 -0.3333
   68MOL0     H 8933   9.638  11.623  -0.479 -0.9303  1.3184 -0.3377
   68MOL0     H 8934   9.647  11.816  -0.253 -1.1678 -0.7164 -1.6827
   68MOL0     H 8935   9.797  11.730  -0.280  1.4159  3.7345  0.7656
   68MOL0     H 8936   9.635  11.863  -0.499 -0.2276 -0.9507  0.4413
   68MOL0     H 8937   9.780  11.787  -0.547 -1.6461 -2.7710  1.3337
   68MOL0     H 8938   9.982  11.765  -0.428  0.1081 -0.6545  1.6052
   68MOL0     H 8939  10.234  11.808  -0.399 -1.2989  0.1773  1.2616
   68MOL0     H 8940  10.591  12.327  -0.466 -0.6035  1.5488  0.8036
   68MOL0     H 8941  10.801  12.385  -0.366  0.8763  0.2849  0.6596
   68MOL0     H 8942  10.980  12.167  -0.214  1.5563 -0.0424 -1.8944
   68MOL0     H 8943  11.033  12.222  -0.059  1.4603  3.4320  1.3720
   68MOL0     H 8944  11.060  12.461  -0.183 -0.3772 -0.5294  1.3323
   68MOL0     H 8945  11.045  12.370  -0.318 -0.5412  1.0871 -0.3837
   68MOL0     H 8946  11.298  12.357  -0.149  1.5969 -1.2567 -0.7605
   68MOL0     H 8947  11.252  12.401  -0.311  1.4951  0.5122  0.3741
   68MOL0     H 8948  11.252  12.115  -0.183  1.3278  0.9132  1.1838
   68MOL0     H 8949  11.161  12.149  -0.316 -0.8180  1.5708  0.6688
   68MOL0     H 8950  11.384  12.233  -0.443 -1.5398 -0.1636 -0.1686
   68MOL0     H 8951  11.387  12.066  -0.387  3.1980 -0.4282  1.2341
   68MOL0     H 8952  11.520  12.149  -0.190  2.1702 -1.3138 -0.6352
   68MOL0     H 8953  11.541  12.300  -0.276  0.9644  0.3156  0.5480
   68MOL0     H 8954  11.605  12.022  -0.392 -1.3414 -0.3639  1.6171
   68MOL0     H 8955  11.613  12.158  -0.498  3.8044  1.2915 -0.4430
   68MOL0     H 8956  11.836  12.091  -0.429  0.6908  0.6168 -0.2061
   68MOL0     H 8957  11.790  12.122  -0.264 -1.4922 -1.0780 -0.3413
   68MOL0     H 8958  10.698  12.188  -0.009  1.4273  0.4588 -0.7832
   68MOL0     H 8959  10.488  12.105  -0.110 -1.6872 -0.5590 -2.9298
   68MOL0     H 8960  10.154  12.232  -0.384 -2.8717  1.0236 -2.3603
   68MOL0     H 8961   9.936  12.198  -0.435 -0.7229  0.1886  0.4704
   68MOL0     H 8962   9.028  10.847   0.738  0.4195  0.1060 -0.9011
   68MOL0     H 8963   8.837  10.899   0.885  5.8174  1.6073 -1.0920
   68MOL0     H 8964   8.402  10.941   0.941  0.9530  0.3290  0.7929
   68MOL0     H 8965   8.214  10.950   1.076 -0.8483 -1.2758 -2.2652
   68MOL0     H 8966   8.064  10.614   1.340 -3.1229  0.1896  1.9399
   68MOL0     H 8967   8.017  10.764   1.398  1.5363 -0.1797  0.7075
   68MOL0     H 8968   8.304  10.696   1.416  0.1182  0.3822  4.7957
   68MOL0     H 8969   8.230  10.856   1.422 -0.3874  0.4729 -0.8419
   68MOL0     H 8970   8.278  10.742   1.637  0.1873 -1.7342 -0.9844
   68MOL0     H 8971   8.187  10.601   1.594  0.8374  0.2313 -1.9045
   68MOL0     H 8972   8.020  10.833   1.598  0.0701 -1.7483 -1.9068
   68MOL0     H 8973   7.976  10.667   1.631  0.3419 -0.3076  1.3373
   68MOL0     H 8974   8.040  10.794   2.012 -0.5771 -1.2549 -0.3939
   68MOL0     H 8975   8.259  10.533   1.194 -2.5851  0.8280  1.3496
   68MOL0     H 8976   8.442  10.514   1.032  1.4432 -0.4723  1.7810
   69MOL0     O 8977   5.828   8.331   8.672  0.4913  0.8692 -0.7224
   69MOL0     C 8978   5.842   8.418   8.586  0.2934 -0.5457 -0.0574
   69MOL0     O 8979   5.947   8.503   8.578  0.2103 -1.0121  0.1455
   69MOL0     C 8980   6.047   8.491   8.673 -0.0871 -0.3683  0.3504
   69MOL0     C 8981   6.083   8.599   8.755  0.3984 -0.1019  0.0129
   69MOL0     C 8982   6.181   8.594   8.846 -0.2565 -0.1894 -0.7448
   69MOL0     C 8983   6.252   8.476   8.866 -0.2597  0.4784 -0.2034
   69MOL0     O 8984   6.355   8.446   8.962 -0.4290 -0.0578  0.4837
   69MOL0     C 8985   6.417   8.562   9.024 -0.0017  0.1406 -0.3407
   69MOL0     C 8986   6.527   8.513   9.119  0.1920 -0.3097  0.1872
   69MOL0     C 8987   6.481   8.424   9.238  0.5064 -0.9913 -0.0887
   69MOL0     C 8988   6.448   8.515   9.356  0.8881 -0.2871  0.4829
   69MOL0     C 8989   6.366   8.435   9.454  0.3373 -0.1979 -0.2201
   69MOL0     C 8990   6.302   8.539   9.551  0.2280 -0.4526 -0.2529
   69MOL0     C 8991   6.190   8.471   9.642  0.5283 -0.1943  0.3355
   69MOL0     C 8992   6.243   8.416   9.771  0.0541  0.8315 -0.4800
   69MOL0     N 8993   6.140   8.370   9.870  0.1197  0.6157  0.2063
   69MOL0     C 8994   6.056   8.260   9.842  1.6346 -0.4472 -0.3495
   69MOL0     C 8995   6.018   8.224   9.965  0.1850 -0.1901 -0.2704
   69MOL0     C 8996   5.952   8.098   9.993  0.8541 -0.5023 -0.4118
   69MOL0     C 8997   5.837   8.086  10.112 -1.3412  0.3069 -0.1497
   69MOL0     C 8998   5.728   8.184  10.093  0.8290 -0.4907  0.8807
   69MOL0     C 8999   5.639   8.223  10.209  0.6522 -0.1758  0.4444
   69MOL0     O 9000   5.575   8.100  10.248  0.6605 -0.3060 -0.6140
   69MOL0     C 9001   5.468   8.103  10.338 -0.4461  0.3349 -0.2824
   69MOL0     C 9002   5.407   8.219  10.371  0.6442  0.3507  0.4747
   69MOL0     C 9003   5.282   8.215  10.427 -0.2520 -0.9203 -0.3444
   69MOL0     C 9004   5.220   8.096  10.472  0.2408 -0.9857  0.6950
   69MOL0     C 9005   5.089   8.093  10.546  0.7734  1.1091  0.6783
   69MOL0     O 9006   5.022   8.209  10.562  0.4550 -0.2522  0.5560
   69MOL0     C 9007   4.900   8.204  10.628 -0.8479 -0.0481  0.6167
   69MOL0     C 9008   4.893   8.158  10.758  1.0497  0.3215 -0.4967
   69MOL0     C 9009   4.770   8.155  10.817  0.6237 -0.2819  0.1580
   69MOL0     C 9010   4.662   8.215  10.750 -0.2597 -0.2495  0.9491
   69MOL0     O 9011   4.536   8.198  10.790  0.8780  0.8839  0.0646
   69MOL0     C 9012   4.519   8.173  10.931  0.0559  0.0116 -0.1416
   69MOL0     C 9013   4.362   8.164  10.948 -0.3027 -0.3987 -0.3989
   69MOL0     C 9014   4.331   8.274  11.060  0.1244 -0.7046 -0.1130
   69MOL0     C 9015   4.350   8.421  11.028  0.0448 -0.6383 -0.1430
   69MOL0     C 9016   4.324   8.517  11.143  0.0737 -0.6217 -0.1460
   69MOL0     C 9017   4.424   8.488  11.258 -0.3425 -0.0348 -0.3993
   69MOL0     C 9018   4.415   8.609  11.358 -0.5775 -0.2318  0.2636
   69MOL0     C 9019   4.493   8.578  11.483 -0.0066 -0.3247  0.1731
   69MOL0    Cl 9020   4.656   8.529  11.454  0.2750  0.2424 -0.1340
   69MOL0     C 9021   4.675   8.276  10.626 -1.1091 -0.3783  0.0630
   69MOL0     C 9022   4.803   8.275  10.563  0.3102  0.8811 -0.3199
   69MOL0     O 9023   5.054   7.983  10.567  0.5315  0.7115 -0.2260
   69MOL0     C 9024   5.296   7.976  10.445  0.7904 -0.6211 -0.4557
   69MOL0     C 9025   5.417   7.984  10.385 -0.2798 -0.0394 -0.0444
   69MOL0     N 9026   6.059   8.307  10.064 -0.5825  0.1090 -0.2869
   69MOL0     N 9027   6.141   8.389  10.007  0.2904 -0.7510  0.0341
   69MOL0     C 9028   6.220   8.358   8.790 -0.3369 -0.6034 -0.3663
   69MOL0     C 9029   6.119   8.376   8.694  0.3584  0.2356  0.9646
   69MOL0     C 9030   5.733   8.443   8.487  1.0460 -0.0569 -0.1040
   69MOL0     C 9031   5.597   8.407   8.505  0.2555  0.5801  0.2975
   69MOL0     C 9032   5.507   8.421   8.401 -0.3058 -0.1014  0.2816
   69MOL0     C 9033   5.544   8.471   8.277 -1.2994 -0.5286  0.7479
   69MOL0     O 9034   5.457   8.497   8.170  0.2398  0.1445  0.2817
   69MOL0     C 9035   5.334   8.425   8.168  0.3905  0.4579 -0.7075
   69MOL0     C 9036   5.261   8.424   8.026  0.7363  0.1624  0.7236
   69MOL0     C 9037   5.114   8.384   8.021 -0.1101  0.1143 -0.2361
   69MOL0     C 9038   5.058   8.280   8.119  0.1175  0.0296 -0.3101
   69MOL0     C 9039   4.915   8.244   8.083 -0.2221  0.7825 -0.4750
   69MOL0     C 9040   4.803   8.215   8.063 -0.7914  0.2547 -0.0006
   69MOL0     C 9041   5.677   8.521   8.268  0.9905 -0.2481 -0.0477
   69MOL0     C 9042   5.767   8.504   8.370  0.0368  0.3278 -0.7665
   69MOL0     H 9043   6.022   8.688   8.757 -0.0572 -0.4180  0.3649
   69MOL0     H 9044   6.219   8.677   8.904  1.1584 -1.5276  0.3344
   69MOL0     H 9045   6.341   8.624   9.073  1.4190  0.9813  0.8680
   69MOL0     H 9046   6.471   8.617   8.946  0.1741  1.0172  0.3843
   69MOL0     H 9047   6.591   8.595   9.152 -1.6411  0.6884  1.4630
   69MOL0     H 9048   6.603   8.456   9.065  0.8201  2.5415 -2.1608
   69MOL0     H 9049   6.558   8.356   9.275  0.8172  0.2285  1.6050
   69MOL0     H 9050   6.398   8.363   9.202 -2.4214  1.2725  2.2595
   69MOL0     H 9051   6.541   8.554   9.397 -0.3573  2.7456  0.6691
   69MOL0     H 9052   6.387   8.597   9.318  2.7376  0.1743 -1.6798
   69MOL0     H 9053   6.427   8.359   9.503  0.9471 -0.7119 -1.6945
   69MOL0     H 9054   6.286   8.381   9.403  0.5761 -1.9806  1.2155
   69MOL0     H 9055   6.264   8.618   9.486  1.3895 -1.2178 -1.9110
   69MOL0     H 9056   6.380   8.588   9.611  0.2064  0.0621 -0.6394
   69MOL0     H 9057   6.114   8.545   9.670 -0.8597 -1.9193  1.3074
   69MOL0     H 9058   6.144   8.392   9.583  0.9078 -0.0916 -0.1031
   69MOL0     H 9059   6.318   8.486   9.810 -0.7062  0.0871  2.4997
   69MOL0     H 9060   6.309   8.332   9.747  1.2752  1.5445  0.2713
   69MOL0     H 9061   6.032   8.211   9.748  0.7303 -0.6725 -0.0118
   69MOL0     H 9062   6.037   8.033  10.013 -0.0021 -0.9773  2.0512
   69MOL0     H 9063   5.896   8.065   9.905 -0.6883  0.1474  0.2881
   69MOL0     H 9064   5.898   8.107  10.200 -2.6110 -0.3368  0.9131
   69MOL0     H 9065   5.794   7.987  10.128  3.0370 -1.4925  2.2678
   69MOL0     H 9066   5.766   8.277  10.052 -2.8075  1.3300  1.1870
   69MOL0     H 9067   5.665   8.130  10.022 -1.7824 -0.7386  3.2162
   69MOL0     H 9068   5.575   8.306  10.177 -0.7107 -2.0968 -2.1711
   69MOL0     H 9069   5.689   8.268  10.295 -1.4867  0.8140  1.2540
   69MOL0     H 9070   5.456   8.312  10.342 -1.3132  0.5928 -2.5372
   69MOL0     H 9071   5.224   8.299  10.463  1.2268  0.7097 -1.6006
   69MOL0     H 9072   4.980   8.110  10.802  1.3727  0.9539 -0.4170
   69MOL0     H 9073   4.766   8.108  10.915  1.0439 -1.7287 -0.5053
   69MOL0     H 9074   4.572   8.246  10.993  0.2799 -1.6762  1.7990
   69MOL0     H 9075   4.551   8.072  10.957  0.7803 -0.0001 -1.0278
   69MOL0     H 9076   4.328   8.072  10.996 -2.4183  0.9078  0.8161
   69MOL0     H 9077   4.304   8.189  10.858 -2.1367 -1.4639  0.4365
   69MOL0     H 9078   4.389   8.238  11.146 -0.9381 -1.9869  0.0935
   69MOL0     H 9079   4.226   8.263  11.087 -0.8629 -1.1459 -3.6579
   69MOL0     H 9080   4.451   8.436  10.989 -0.3138  0.3426 -0.7186
   69MOL0     H 9081   4.286   8.450  10.944 -0.0110  2.8911  0.9569
   69MOL0     H 9082   4.227   8.510  11.193  1.6276  0.2092  3.2242
   69MOL0     H 9083   4.354   8.617  11.110  1.8512  0.0950  3.2043
   69MOL0     H 9084   4.522   8.471  11.212 -1.1681  0.4332 -2.4303
   69MOL0     H 9085   4.400   8.398  11.314 -1.8027  1.1013  0.8946
   69MOL0     H 9086   4.453   8.705  11.322  1.2774  0.0615  2.7707
   69MOL0     H 9087   4.312   8.636  11.382  0.1851  1.1479  2.2133
   69MOL0     H 9088   4.441   8.496  11.533 -0.2325  0.1314  0.7045
   69MOL0     H 9089   4.501   8.672  11.539  0.1954  0.3894 -1.0155
   69MOL0     H 9090   4.591   8.334  10.588 -1.1789  0.5957  1.6257
   69MOL0     H 9091   4.818   8.320  10.466  0.0794 -0.3107 -0.9215
   69MOL0     H 9092   5.260   7.878  10.474  0.2740 -0.5354 -0.7937
   69MOL0     H 9093   5.461   7.893  10.347 -3.6333 -0.0687 -4.6947
   69MOL0     H 9094   6.267   8.260   8.791 -2.4084 -1.6592 -1.4936
   69MOL0     H 9095   6.105   8.283   8.639  1.3882  1.8399 -2.2289
   69MOL0     H 9096   5.562   8.370   8.600 -1.7227 -1.5841 -1.1546
   69MOL0     H 9097   5.409   8.374   8.415  0.4506 -1.7437  0.3515
   69MOL0     H 9098   5.266   8.468   8.242  1.2330  1.8233 -0.6955
   69MOL0     H 9099   5.343   8.319   8.192 -0.3286  0.7148  0.8315
   69MOL0     H 9100   5.286   8.519   7.978  1.7112 -0.4143  0.0418
   69MOL0     H 9101   5.317   8.352   7.965  0.1114 -0.3512  0.7439
   69MOL0     H 9102   5.089   8.361   7.918  0.9954 -1.8900 -0.1079
   69MOL0     H 9103   5.054   8.468   8.058  0.5374 -0.2415  1.7798
   69MOL0     H 9104   5.127   8.198   8.099  2.0941  1.5457  0.0721
   69MOL0     H 9105   5.061   8.325   8.218 -0.7932  1.5749 -0.9474
   69MOL0     H 9106   4.700   8.186   8.053 -0.4962 -0.5746 -0.8243
   69MOL0     H 9107   5.714   8.573   8.180  2.6158 -1.6046 -0.2143
   69MOL0     H 9108   5.872   8.525   8.353  1.0798 -1.4599  2.5256
   70MOL0     O 9109   8.218   3.926   4.611  0.4887  1.0190  0.9996
   70MOL0     C 9110   8.294   4.010   4.568 -0.4364  0.1278  0.5862
   70MOL0     O 9111   8.257   4.119   4.485  0.8929  0.5706  0.2089
   70MOL0     C 9112   8.129   4.122   4.428 -0.0472  0.6028 -0.2633
   70MOL0     C 9113   8.037   4.219   4.450  0.9503  0.9531 -0.3566
   70MOL0     C 9114   7.917   4.224   4.393  1.2046  0.6016 -0.2069
   70MOL0     C 9115   7.874   4.120   4.304  0.3922 -0.6992  0.2599
   70MOL0     O 9116   7.754   4.106   4.241  0.1137  0.4051 -0.0034
   70MOL0     C 9117   7.652   4.199   4.263 -0.2727  0.5608 -0.1738
   70MOL0     C 9118   7.519   4.183   4.186  0.7849  0.5582 -1.2901
   70MOL0     C 9119   7.399   4.209   4.275 -0.1862  0.2639  0.2012
   70MOL0     C 9120   7.274   4.233   4.186 -0.0439 -0.0473  0.5921
   70MOL0     C 9121   7.142   4.250   4.262 -0.3771 -1.0320 -0.3787
   70MOL0     C 9122   7.039   4.285   4.164 -0.4530 -0.4052 -0.4790
   70MOL0     C 9123   6.908   4.320   4.244 -0.5813  0.2991 -0.4970
   70MOL0     C 9124   6.788   4.342   4.155 -0.9164  0.1804  0.5679
   70MOL0     N 9125   6.785   4.469   4.081 -0.9159 -0.0170  0.4265
   70MOL0     C 9126   6.795   4.589   4.131  0.4260  0.1694 -0.0133
   70MOL0     C 9127   6.748   4.674   4.038 -0.1990  0.4111  0.6951
   70MOL0     C 9128   6.728   4.826   4.045 -0.2922  0.0691  0.0593
   70MOL0     C 9129   6.815   4.920   3.946 -0.9261  0.2108 -0.0323
   70MOL0     C 9130   6.815   5.077   3.983  0.3571 -0.7855 -1.3162
   70MOL0     C 9131   6.675   5.146   4.018 -0.1450  0.0782 -0.1162
   70MOL0     O 9132   6.692   5.271   4.088 -0.3549 -0.4063 -0.0848
   70MOL0     C 9133   6.590   5.357   4.097 -0.0672 -0.9022  0.3843
   70MOL0     C 9134   6.472   5.355   4.020  0.1832 -0.0038  0.5448
   70MOL0     C 9135   6.379   5.461   4.027  0.5191  0.5014 -0.6204
   70MOL0     C 9136   6.393   5.567   4.115 -0.3085  0.3879 -0.2996
   70MOL0     C 9137   6.282   5.672   4.136 -0.5606 -0.3587  0.5171
   70MOL0     O 9138   6.302   5.783   4.209 -0.0431 -0.4808 -0.6616
   70MOL0     C 9139   6.202   5.880   4.212 -0.1408  0.2682 -0.5224
   70MOL0     C 9140   6.072   5.841   4.260 -0.0199  0.4797  1.0648
   70MOL0     C 9141   5.977   5.939   4.271 -0.3521 -0.1661  0.5805
   70MOL0     C 9142   6.008   6.073   4.234 -0.2608 -0.5404 -0.1021
   70MOL0     O 9143   5.916   6.175   4.237  0.2469  0.2988  0.1247
   70MOL0     C 9144   5.942   6.268   4.343 -1.5772 -0.6183 -0.2767
   70MOL0     C 9145   5.808   6.278   4.412  0.7542 -0.4750  0.1122
   70MOL0     C 9146   5.818   6.402   4.495  0.4743  0.0458  0.1433
   70MOL0     C 9147   5.677   6.445   4.549 -0.2307  0.8158  0.0056
   70MOL0     C 9148   5.700   6.584   4.618 -0.5457 -0.2267 -0.3512
   70MOL0     C 9149   5.577   6.629   4.689  0.7441 -0.4202 -0.4741
   70MOL0     C 9150   5.615   6.746   4.791 -0.1942  0.0278  0.7622
   70MOL0     C 9151   5.487   6.752   4.890  0.1301 -1.2570  0.3809
   70MOL0    Cl 9152   5.339   6.805   4.799 -0.5222  0.0996  0.2791
   70MOL0     C 9153   6.136   6.109   4.186 -0.4770  0.4396  0.0203
   70MOL0     C 9154   6.231   6.011   4.175  0.1617 -0.7816  0.0046
   70MOL0     O 9155   6.184   5.658   4.060  0.0952 -0.3628  0.0370
   70MOL0     C 9156   6.515   5.570   4.186  0.1688  0.3716 -0.2388
   70MOL0     C 9157   6.612   5.462   4.175 -0.0340  0.0371 -0.4378
   70MOL0     N 9158   6.733   4.590   3.927  0.5066 -0.7625  0.3488
   70MOL0     N 9159   6.770   4.476   3.950  0.2771 -0.1612 -0.6078
   70MOL0     C 9160   7.969   4.018   4.277 -0.2117  0.2586 -0.5322
   70MOL0     C 9161   8.095   4.015   4.339 -0.1057 -0.1144  0.3971
   70MOL0     C 9162   8.435   4.001   4.600 -0.6919 -0.2363  1.2507
   70MOL0     C 9163   8.484   3.942   4.723  0.6688 -1.2443  0.0036
   70MOL0     C 9164   8.627   3.930   4.739  0.2064 -0.3286 -0.1392
   70MOL0     C 9165   8.727   3.974   4.641  0.1975 -0.2404 -0.4942
   70MOL0     O 9166   8.861   3.956   4.642 -0.2928  0.0026 -0.5605
   70MOL0     C 9167   8.919   3.864   4.743 -0.0908 -0.0457 -0.2483
   70MOL0     C 9168   9.028   3.787   4.674 -0.7860 -0.8674  0.7665
   70MOL0     C 9169   9.118   3.713   4.772  0.4191  1.1794 -0.0066
   70MOL0     C 9170   9.217   3.783   4.859  0.3498  0.1873 -0.7748
   70MOL0     C 9171   9.322   3.690   4.909 -0.3166  0.3987  0.8754
   70MOL0     C 9172   9.411   3.619   4.942  0.4964 -0.0193 -0.9189
   70MOL0     C 9173   8.671   4.036   4.526 -0.0408  0.1229 -0.5306
   70MOL0     C 9174   8.528   4.047   4.504 -1.1041 -0.4330  0.4725
   70MOL0     H 9175   8.042   4.301   4.522 -0.7527  1.5924 -0.9176
   70MOL0     H 9176   7.850   4.301   4.429 -0.2202 -0.3006 -0.8241
   70MOL0     H 9177   7.694   4.297   4.240  0.4426 -0.0381 -1.5120
   70MOL0     H 9178   7.630   4.189   4.370 -0.7107  0.9112 -0.2243
   70MOL0     H 9179   7.510   4.080   4.150 -1.3842  0.0011  0.6736
   70MOL0     H 9180   7.514   4.251   4.101 -2.1753  0.9668 -0.8859
   70MOL0     H 9181   7.410   4.287   4.350  1.6152 -0.5012  0.7919
   70MOL0     H 9182   7.379   4.115   4.328 -0.3723  0.6525  0.8365
   70MOL0     H 9183   7.284   4.326   4.130 -3.1617 -0.4248 -0.7764
   70MOL0     H 9184   7.264   4.147   4.119 -2.9259 -0.5953  1.6036
   70MOL0     H 9185   7.137   4.328   4.338 -3.0283 -2.0801  0.6336
   70MOL0     H 9186   7.128   4.162   4.327 -0.0337 -1.0359 -0.3106
   70MOL0     H 9187   7.032   4.198   4.099  1.1648 -1.5712  0.8049
   70MOL0     H 9188   7.078   4.370   4.106  1.1747 -0.4202  0.5085
   70MOL0     H 9189   6.880   4.236   4.308 -0.2743  1.2505  0.9197
   70MOL0     H 9190   6.917   4.408   4.308 -3.8632 -0.3341  1.0708
   70MOL0     H 9191   6.699   4.349   4.218  1.3822 -2.0862  4.4775
   70MOL0     H 9192   6.790   4.266   4.077 -0.0955 -0.5379  1.2676
   70MOL0     H 9193   6.813   4.601   4.238  0.5203  0.9967 -0.1206
   70MOL0     H 9194   6.742   4.855   4.150  0.5232 -4.0800  1.2655
   70MOL0     H 9195   6.622   4.852   4.029 -1.0151 -2.1707  0.8476
   70MOL0     H 9196   6.784   4.916   3.841 -0.6196  0.8289 -0.1536
   70MOL0     H 9197   6.918   4.884   3.934 -0.7178  0.8739 -0.2959
   70MOL0     H 9198   6.870   5.087   4.077  1.0117  0.2337 -1.7816
   70MOL0     H 9199   6.861   5.145   3.910 -0.4337  1.7452  0.4237
   70MOL0     H 9200   6.620   5.082   4.088 -1.9068  2.1979  0.5385
   70MOL0     H 9201   6.616   5.155   3.926  2.3369  1.0719 -1.7319
   70MOL0     H 9202   6.437   5.271   3.961 -1.5087  0.8871  0.2298
   70MOL0     H 9203   6.281   5.443   3.982  1.5711  1.1596 -3.3871
   70MOL0     H 9204   6.041   5.737   4.268 -1.0546  0.8745  2.7936
   70MOL0     H 9205   5.872   5.919   4.292 -0.5012  0.7464  0.7687
   70MOL0     H 9206   5.980   6.358   4.294  0.0468 -1.8116 -1.3020
   70MOL0     H 9207   6.022   6.247   4.415 -2.1083 -0.1888  0.4524
   70MOL0     H 9208   5.792   6.181   4.460 -0.5892 -1.2948 -1.8168
   70MOL0     H 9209   5.734   6.293   4.332  2.0155  0.7221 -0.8784
   70MOL0     H 9210   5.852   6.481   4.427 -1.6273 -0.0230 -1.0645
   70MOL0     H 9211   5.890   6.383   4.575  0.6349 -0.9407 -0.2190
   70MOL0     H 9212   5.605   6.445   4.467  2.7163 -4.2281 -3.1763
   70MOL0     H 9213   5.647   6.371   4.624 -2.4937  3.5102  1.9297
   70MOL0     H 9214   5.728   6.654   4.539 -0.8625  1.4771  0.9954
   70MOL0     H 9215   5.791   6.569   4.677 -1.7676  0.2813  1.7542
   70MOL0     H 9216   5.529   6.549   4.748  0.2045 -0.0472 -0.3937
   70MOL0     H 9217   5.503   6.664   4.616 -1.4954 -0.9169  1.4189
   70MOL0     H 9218   5.707   6.731   4.847  0.5425 -2.7044 -0.9692
   70MOL0     H 9219   5.639   6.840   4.741 -1.8218 -0.0210 -0.2033
   70MOL0     H 9220   5.501   6.825   4.971  0.1091  0.0167 -0.7334
   70MOL0     H 9221   5.475   6.652   4.933 -2.0451 -1.1585  0.1270
   70MOL0     H 9222   6.186   6.201   4.157 -0.5906  0.4372 -0.1879
   70MOL0     H 9223   6.328   6.031   4.130  0.0438 -0.4424 -0.1063
   70MOL0     H 9224   6.523   5.658   4.248 -1.7151  0.6102 -0.2882
   70MOL0     H 9225   6.704   5.471   4.232 -0.2886  1.0533 -0.1714
   70MOL0     H 9226   7.942   3.939   4.208  0.0207 -1.6078  1.4118
   70MOL0     H 9227   8.174   3.949   4.304  0.1466  0.9837 -1.2919
   70MOL0     H 9228   8.407   3.914   4.795  1.6051 -1.7040  0.8512
   70MOL0     H 9229   8.651   3.884   4.835 -0.0158  0.2068  0.1815
   70MOL0     H 9230   8.857   3.790   4.795 -0.2193 -1.2542 -2.0243
   70MOL0     H 9231   8.964   3.924   4.823 -2.9068 -0.3564  1.7097
   70MOL0     H 9232   8.985   3.719   4.601 -4.0465  3.0069 -1.3435
   70MOL0     H 9233   9.086   3.855   4.611 -4.4804 -1.2358 -3.4981
   70MOL0     H 9234   9.171   3.637   4.713 -0.6614  2.0467 -2.1882
   70MOL0     H 9235   9.051   3.649   4.829 -0.3536  0.3640 -1.7724
   70MOL0     H 9236   9.258   3.867   4.803  0.8580  1.1578  0.9704
   70MOL0     H 9237   9.164   3.830   4.942  1.5167 -0.6171  0.4592
   70MOL0     H 9238   9.481   3.544   4.975 -0.7904 -1.3441 -1.0987
   70MOL0     H 9239   8.737   4.070   4.447 -2.6160  3.0229 -1.6321
   70MOL0     H 9240   8.508   4.085   4.404  3.2266  1.8102  0.2375
   71MOL0     O 9241   9.346   7.803   8.927  0.0925 -0.0214  0.4148
   71MOL0     C 9242   9.255   7.848   8.992  0.8770  0.1803 -0.2689
   71MOL0     O 9243   9.240   7.978   9.032  0.7975 -0.3349  0.8270
   71MOL0     C 9244   9.329   8.073   8.984  0.3092  0.2193 -0.1155
   71MOL0     C 9245   9.451   8.104   9.043  0.0955  0.0468 -0.1794
   71MOL0     C 9246   9.541   8.189   8.994  0.0820  0.9469 -0.3801
   71MOL0     C 9247   9.513   8.251   8.871 -0.4106 -0.3220 -0.1782
   71MOL0     O 9248   9.598   8.351   8.824  0.6366  0.3478  0.1098
   71MOL0     C 9249   9.628   8.333   8.680 -0.1543 -0.2471 -0.9670
   71MOL0     C 9250   9.736   8.433   8.643 -0.9452  0.1096  0.7950
   71MOL0     C 9251   9.878   8.422   8.710 -0.1266 -0.3759  1.0427
   71MOL0     C 9252   9.994   8.483   8.626  1.3597 -0.2813 -0.7073
   71MOL0     C 9253  10.127   8.451   8.705  0.4376 -0.1153 -0.1914
   71MOL0     C 9254  10.257   8.469   8.625 -0.2460 -0.3598  0.1982
   71MOL0     C 9255  10.289   8.377   8.517  0.0982  0.4256  0.2545
   71MOL0     C 9256  10.431   8.401   8.476  0.4627  0.1574 -0.2667
   71MOL0     N 9257  10.451   8.336   8.344  0.0731  0.9220  0.0119
   71MOL0     C 9258  10.430   8.206   8.312 -0.8230  0.4658  0.6532
   71MOL0     C 9259  10.421   8.197   8.179  0.2026 -0.3221  0.7704
   71MOL0     C 9260  10.395   8.063   8.115 -0.7843 -0.6840  0.4220
   71MOL0     C 9261  10.268   7.997   8.166 -0.5912  0.0233  0.2900
   71MOL0     C 9262  10.131   8.067   8.134 -0.0178  0.0921  0.7423
   71MOL0     C 9263  10.005   7.987   8.167 -0.1385 -0.1129 -0.2814
   71MOL0     O 9264  10.006   7.861   8.097  0.8187  0.0780 -0.8057
   71MOL0     C 9265   9.905   7.774   8.108  0.8280 -0.5642  0.0208
   71MOL0     C 9266   9.900   7.662   8.018 -0.1108 -0.2962  0.4807
   71MOL0     C 9267   9.797   7.574   8.013  0.5497  1.5074 -0.7976
   71MOL0     C 9268   9.684   7.594   8.097  0.2057  0.0618 -0.6093
   71MOL0     C 9269   9.556   7.523   8.087 -0.1034 -0.0299 -0.6535
   71MOL0     O 9270   9.454   7.556   8.177 -0.0311 -0.3798  0.2407
   71MOL0     C 9271   9.332   7.492   8.173  0.4977 -0.7033  0.2620
   71MOL0     C 9272   9.259   7.483   8.293 -0.1766 -0.6585  0.7289
   71MOL0     C 9273   9.139   7.418   8.293 -0.1709 -0.8787 -0.1615
   71MOL0     C 9274   9.092   7.362   8.179 -0.0265  0.5478  0.4190
   71MOL0     O 9275   8.971   7.293   8.186  0.0859 -0.1613  0.0056
   71MOL0     C 9276   8.891   7.284   8.067  1.0518  0.0418  0.6246
   71MOL0     C 9277   8.747   7.263   8.107 -0.6202 -0.2874 -0.3228
   71MOL0     C 9278   8.718   7.172   8.223  0.3924  0.0291 -0.0778
   71MOL0     C 9279   8.793   7.043   8.208  0.1354  0.1939 -0.6696
   71MOL0     C 9280   8.718   6.923   8.278  0.0781 -0.5253  0.1516
   71MOL0     C 9281   8.796   6.793   8.257  0.2090 -0.1615 -0.1185
   71MOL0     C 9282   8.728   6.674   8.327  0.0184  0.1389 -0.8449
   71MOL0     C 9283   8.574   6.658   8.289 -0.4644 -0.1112 -0.3978
   71MOL0    Cl 9284   8.453   6.759   8.383 -0.0163  0.0449 -0.2426
   71MOL0     C 9285   9.165   7.359   8.057 -0.4491 -0.2274  0.4072
   71MOL0     C 9286   9.285   7.429   8.061 -0.6393  0.2685 -0.3863
   71MOL0     O 9287   9.561   7.421   8.022  0.8268 -0.3825  0.4841
   71MOL0     C 9288   9.689   7.702   8.192  0.4490 -0.2228  0.1902
   71MOL0     C 9289   9.792   7.791   8.189  0.9645  0.0991 -0.6295
   71MOL0     N 9290  10.435   8.322   8.125  0.4666  0.5859 -0.5987
   71MOL0     N 9291  10.454   8.412   8.225 -0.2250  0.5822  0.0983
   71MOL0     C 9292   9.394   8.226   8.805  0.1277  0.0274 -0.2399
   71MOL0     C 9293   9.298   8.133   8.860  0.2184  0.4997  0.1610
   71MOL0     C 9294   9.130   7.760   9.010 -0.9000  0.0283  0.6871
   71MOL0     C 9295   9.151   7.623   9.010 -0.8928  1.1258  0.9486
   71MOL0     C 9296   9.051   7.528   9.031 -0.0728  0.2963 -0.1313
   71MOL0     C 9297   8.919   7.572   9.057 -0.7028 -0.4590 -0.1235
   71MOL0     O 9298   8.818   7.486   9.071 -0.0527  0.0594 -0.2832
   71MOL0     C 9299   8.844   7.363   9.137 -0.0210 -0.9823  0.3530
   71MOL0     C 9300   8.723   7.300   9.208 -0.5373 -0.3131 -0.6655
   71MOL0     C 9301   8.627   7.245   9.107  0.0633 -0.3276  0.6477
   71MOL0     C 9302   8.482   7.233   9.157  0.0884  0.8880 -0.5830
   71MOL0     C 9303   8.464   7.152   9.284 -0.7113 -1.1268 -0.0723
   71MOL0     C 9304   8.444   7.091   9.388  0.4751  0.9498  0.0389
   71MOL0     C 9305   8.895   7.708   9.056 -0.0262 -0.1097 -0.1161
   71MOL0     C 9306   9.000   7.807   9.021 -0.3605  0.0883  0.5323
   71MOL0     H 9307   9.464   8.057   9.140 -0.3517  1.0931  0.4179
   71MOL0     H 9308   9.626   8.224   9.052  0.3957  2.4176 -1.6503
   71MOL0     H 9309   9.540   8.341   8.615  0.7921 -1.7288 -2.5210
   71MOL0     H 9310   9.671   8.234   8.665  1.5021  0.5588 -1.7259
   71MOL0     H 9311   9.682   8.527   8.657  0.3497  1.1460 -0.7517
   71MOL0     H 9312   9.755   8.424   8.536  2.5566  0.3377  1.2717
   71MOL0     H 9313   9.909   8.317   8.722 -3.4590 -1.8254 -1.5211
   71MOL0     H 9314   9.873   8.479   8.803 -1.0049  2.2784 -0.5143
   71MOL0     H 9315  10.004   8.440   8.526 -0.1426 -2.1079 -0.1287
   71MOL0     H 9316   9.986   8.592   8.628 -3.1463 -0.4234  0.7779
   71MOL0     H 9317  10.130   8.354   8.756  0.9681  1.0038  2.0166
   71MOL0     H 9318  10.118   8.520   8.789 -1.5791 -2.8165  2.0520
   71MOL0     H 9319  10.332   8.456   8.704 -2.7694 -1.2503  2.6534
   71MOL0     H 9320  10.262   8.571   8.586  1.4687  0.4205  2.2369
   71MOL0     H 9321  10.272   8.275   8.551  1.2557 -0.4228 -1.6176
   71MOL0     H 9322  10.222   8.405   8.436  0.3821  1.8222  0.4739
   71MOL0     H 9323  10.501   8.364   8.552  0.0608  0.9656  0.5253
   71MOL0     H 9324  10.442   8.510   8.469 -0.7011  0.3472  0.4777
   71MOL0     H 9325  10.419   8.126   8.385 -2.8497 -2.1205 -2.2141
   71MOL0     H 9326  10.492   8.011   8.115  0.1754  0.9742 -0.7240
   71MOL0     H 9327  10.403   8.074   8.006 -1.8400 -4.1707 -0.1389
   71MOL0     H 9328  10.250   7.986   8.273 -0.9333  0.8862  0.3339
   71MOL0     H 9329  10.257   7.903   8.110  1.1309  0.7571 -1.3857
   71MOL0     H 9330  10.121   8.158   8.194  3.0994  1.3243 -0.4106
   71MOL0     H 9331  10.135   8.102   8.030  2.9991 -1.4555  0.2475
   71MOL0     H 9332   9.916   8.041   8.133  1.5375  0.7235 -3.7842
   71MOL0     H 9333  10.003   7.956   8.272 -0.5499  0.9798  0.0569
   71MOL0     H 9334   9.984   7.663   7.949 -1.1795 -0.3095 -0.8597
   71MOL0     H 9335   9.796   7.490   7.944  1.8362 -1.2219  2.2129
   71MOL0     H 9336   9.289   7.515   8.392 -1.2774 -1.8136  1.4716
   71MOL0     H 9337   9.084   7.413   8.386 -1.8738  0.8844 -1.0133
   71MOL0     H 9338   8.921   7.213   7.989 -0.4989  0.0885 -0.0471
   71MOL0     H 9339   8.881   7.377   8.010 -3.6751 -1.1612 -1.0173
   71MOL0     H 9340   8.696   7.216   8.022  1.4342  0.6295 -2.1439
   71MOL0     H 9341   8.717   7.366   8.129  3.9459  1.4261 -1.0294
   71MOL0     H 9342   8.609   7.160   8.232  0.1495  1.3573 -0.9842
   71MOL0     H 9343   8.738   7.219   8.320 -0.5895 -1.9445  1.1336
   71MOL0     H 9344   8.808   7.012   8.104  3.0894 -1.0742  0.0275
   71MOL0     H 9345   8.893   7.050   8.252  0.9981 -0.8703 -2.3652
   71MOL0     H 9346   8.621   6.911   8.229 -1.6118  3.9678  1.8702
   71MOL0     H 9347   8.693   6.952   8.380  0.7016  2.6069 -0.4739
   71MOL0     H 9348   8.896   6.819   8.293 -0.6324  0.5239  1.8503
   71MOL0     H 9349   8.793   6.763   8.151 -0.0081  0.7439 -0.3767
   71MOL0     H 9350   8.779   6.579   8.310  0.6695  0.2149  0.4921
   71MOL0     H 9351   8.725   6.693   8.435  2.0981 -0.7749 -0.5796
   71MOL0     H 9352   8.541   6.557   8.311 -2.5310  0.8250  1.0859
   71MOL0     H 9353   8.567   6.665   8.180  0.1350  0.4122 -0.4111
   71MOL0     H 9354   9.126   7.306   7.971  0.1078  0.0243 -0.0098
   71MOL0     H 9355   9.339   7.435   7.967  0.8696 -1.9728  0.2599
   71MOL0     H 9356   9.611   7.718   8.265 -0.7916 -2.3566 -0.5952
   71MOL0     H 9357   9.778   7.877   8.254 -2.4501 -1.1090  0.4814
   71MOL0     H 9358   9.362   8.287   8.721 -0.2326  1.6197  1.0113
   71MOL0     H 9359   9.209   8.115   8.801  1.7020 -0.4626 -1.8614
   71MOL0     H 9360   9.246   7.570   9.000 -1.5255  0.0725  0.3624
   71MOL0     H 9361   9.069   7.422   9.023  0.9442  0.5596 -1.7638
   71MOL0     H 9362   8.929   7.390   9.201  0.5108  0.4482 -0.8799
   71MOL0     H 9363   8.875   7.286   9.066  2.1352 -2.0685  2.3522
   71MOL0     H 9364   8.761   7.215   9.265 -0.4938 -1.5470 -2.4614
   71MOL0     H 9365   8.682   7.374   9.277  3.1486  0.1309  1.3274
   71MOL0     H 9366   8.653   7.147   9.067  0.4474 -0.2165  0.6276
   71MOL0     H 9367   8.620   7.310   9.020  2.1624 -2.0088 -0.8553
   71MOL0     H 9368   8.419   7.322   9.161 -0.0706  0.8415 -1.5903
   71MOL0     H 9369   8.426   7.191   9.072 -2.3500  2.6917  0.0150
   71MOL0     H 9370   8.425   7.025   9.471  0.1799 -2.2268 -2.3692
   71MOL0     H 9371   8.794   7.735   9.086 -0.5708  1.1927 -2.7627
   71MOL0     H 9372   8.996   7.915   9.027  2.6933  0.2357  1.9124
   72MOL0     O 9373  11.348   8.366   9.968 -0.3352  0.3201 -0.2685
   72MOL0     C 9374  11.312   8.483   9.944  0.2177  0.4827  0.6670
   72MOL0     O 9375  11.191   8.522   9.881  0.1016 -0.5578  0.4967
   72MOL0     C 9376  11.091   8.425   9.862 -0.5523 -0.0691  0.4940
   72MOL0     C 9377  11.109   8.334   9.752 -0.7599  0.5957 -1.1272
   72MOL0     C 9378  11.027   8.219   9.747 -0.1194  0.0791 -0.0875
   72MOL0     C 9379  10.911   8.209   9.825  1.4784 -0.0876  0.1902
   72MOL0     O 9380  10.819   8.106   9.804  0.2342 -0.1617  0.4923
   72MOL0     C 9381  10.675   8.151   9.802 -0.5307  0.0867  0.0564
   72MOL0     C 9382  10.597   8.067   9.699  0.6408 -0.4169  0.7148
   72MOL0     C 9383  10.452   8.120   9.685  0.0416  0.9132  0.1068
   72MOL0     C 9384  10.360   8.012   9.627  0.6887  0.2146 -0.0196
   72MOL0     C 9385  10.212   8.066   9.625 -0.3292  1.2241 -0.1663
   72MOL0     C 9386  10.157   8.058   9.483  0.1030  0.5775 -0.0141
   72MOL0     C 9387  10.005   8.080   9.471  0.5776 -0.2643 -0.2930
   72MOL0     C 9388   9.967   8.229   9.501  0.1510 -0.3478  0.3884
   72MOL0     N 9389   9.830   8.245   9.447  0.0410 -0.7075 -0.1103
   72MOL0     C 9390   9.719   8.175   9.487  0.6672  1.3247 -0.3290
   72MOL0     C 9391   9.607   8.233   9.426  0.3656 -0.9018  0.0254
   72MOL0     C 9392   9.467   8.196   9.416 -0.1162  0.5678 -0.2295
   72MOL0     C 9393   9.450   8.046   9.437  0.4994  0.3355 -0.9807
   72MOL0     C 9394   9.314   7.998   9.391  0.9049  0.4764 -0.2954
   72MOL0     C 9395   9.292   7.850   9.358 -0.8236 -0.0592  0.1346
   72MOL0     O 9396   9.366   7.762   9.439  0.2473  0.1837  0.3346
   72MOL0     C 9397   9.383   7.643   9.377  1.0700 -0.1735  0.2882
   72MOL0     C 9398   9.276   7.565   9.341  0.3896  1.1279 -0.4789
   72MOL0     C 9399   9.300   7.441   9.284  1.2669 -0.0451  0.1714
   72MOL0     C 9400   9.424   7.396   9.254 -0.8238 -0.1588  0.4882
   72MOL0     C 9401   9.445   7.274   9.183  1.0046 -0.1619 -0.2641
   72MOL0     O 9402   9.569   7.256   9.125  0.0744 -0.7180 -0.6800
   72MOL0     C 9403   9.597   7.139   9.056  0.5428  0.3351 -0.0445
   72MOL0     C 9404   9.715   7.075   9.089  0.6976  0.1416  0.0101
   72MOL0     C 9405   9.749   6.951   9.037 -0.7813  1.2361  0.6445
   72MOL0     C 9406   9.664   6.900   8.939 -1.1426  0.4312 -0.6878
   72MOL0     O 9407   9.695   6.774   8.889 -0.7792  0.3620  0.3980
   72MOL0     C 9408   9.631   6.734   8.766  0.0417 -0.1818  0.1094
   72MOL0     C 9409   9.669   6.593   8.739 -0.1115 -0.0540  0.7532
   72MOL0     C 9410   9.823   6.572   8.716  0.0811 -0.0097 -0.0263
   72MOL0     C 9411   9.844   6.419   8.730 -0.8510  0.2170  0.5167
   72MOL0     C 9412   9.980   6.370   8.682 -0.5828 -0.6035  0.1470
   72MOL0     C 9413   9.973   6.320   8.536  0.3160  0.1558  0.2125
   72MOL0     C 9414  10.109   6.260   8.503  0.1295  0.9783  0.3797
   72MOL0     C 9415  10.194   6.357   8.414 -0.0441 -0.8973 -0.0110
   72MOL0    Cl 9416  10.365   6.291   8.396  0.4277 -0.4982 -0.1540
   72MOL0     C 9417   9.557   6.971   8.887  0.2707 -0.7182 -0.4438
   72MOL0     C 9418   9.517   7.089   8.952 -0.1372  0.9434 -0.1310
   72MOL0     O 9419   9.353   7.190   9.185 -0.7507 -0.2318 -0.0805
   72MOL0     C 9420   9.533   7.472   9.294  0.0303  0.5921  0.1911
   72MOL0     C 9421   9.510   7.596   9.353  0.0981 -0.1397 -0.9170
   72MOL0     N 9422   9.665   8.333   9.341  0.0398  0.3539  0.6174
   72MOL0     N 9423   9.790   8.339   9.358 -1.1347  0.6001 -0.2622
   72MOL0     C 9424  10.889   8.304   9.919 -0.1435  0.6346  0.6407
   72MOL0     C 9425  10.978   8.410   9.940 -1.3036  0.2374  0.2916
   72MOL0     C 9426  11.431   8.585   9.947  0.3236 -0.4944 -0.4691
   72MOL0     C 9427  11.415   8.712   9.892 -0.1795 -0.3304 -0.9324
   72MOL0     C 9428  11.520   8.802   9.902  0.8032 -0.6851 -0.0152
   72MOL0     C 9429  11.645   8.777   9.963 -0.1183  0.6305  0.1474
   72MOL0     O 9430  11.740   8.873   9.945 -0.2336 -0.2495  0.0615
   72MOL0     C 9431  11.853   8.873  10.035  0.6485 -0.2174  0.8106
   72MOL0     C 9432  11.846   8.970  10.158  0.5943  0.5252  1.1219
   72MOL0     C 9433  11.836   9.115  10.115 -0.3465 -0.4585 -0.5163
   72MOL0     C 9434  11.828   9.201  10.242 -0.0420 -0.1021  1.3667
   72MOL0     C 9435  11.781   9.331  10.201  0.2646  0.6190 -0.5677
   72MOL0     C 9436  11.756   9.438  10.156 -0.5474 -0.7889  0.0719
   72MOL0     C 9437  11.663   8.645  10.017 -1.1928 -0.4237  0.9848
   72MOL0     C 9438  11.551   8.550  10.014 -0.0398  0.2618  0.6811
   72MOL0     H 9439  11.197   8.360   9.694 -0.8155  1.9659 -0.6397
   72MOL0     H 9440  11.043   8.148   9.666 -0.5626 -0.2384  0.1002
   72MOL0     H 9441  10.670   8.259   9.786  1.8780  0.3659  0.7896
   72MOL0     H 9442  10.634   8.142   9.904 -1.2762  1.7191 -0.0692
   72MOL0     H 9443  10.588   7.970   9.749  0.7169 -0.9415 -0.2630
   72MOL0     H 9444  10.641   8.065   9.599  1.5421 -2.7516  1.0886
   72MOL0     H 9445  10.459   8.194   9.604 -1.6610 -1.6976 -2.6416
   72MOL0     H 9446  10.416   8.164   9.779  0.5565  0.9136  0.3065
   72MOL0     H 9447  10.401   7.979   9.531  0.5543  0.1559 -0.0577
   72MOL0     H 9448  10.362   7.920   9.686 -1.2996 -2.7417 -4.0698
   72MOL0     H 9449  10.199   8.152   9.692  0.1133  0.6192  0.7144
   72MOL0     H 9450  10.157   7.987   9.677 -2.5338 -0.5973 -4.6817
   72MOL0     H 9451  10.177   7.958   9.445  1.4653  0.0780  1.8710
   72MOL0     H 9452  10.207   8.134   9.422  0.5269  2.4783  2.5389
   72MOL0     H 9453   9.960   8.049   9.376 -0.9515 -0.0245  0.3366
   72MOL0     H 9454   9.953   8.013   9.540 -0.9570  3.1253  2.0657
   72MOL0     H 9455  10.032   8.297   9.444 -1.8964  1.9133  0.6001
   72MOL0     H 9456   9.970   8.252   9.608 -1.3857 -1.4764  0.7084
   72MOL0     H 9457   9.723   8.095   9.561  0.4776  0.9994 -0.6648
   72MOL0     H 9458   9.445   8.219   9.312  2.1834 -0.5328 -1.0222
   72MOL0     H 9459   9.409   8.260   9.483  1.0788  1.6143 -0.1519
   72MOL0     H 9460   9.463   8.014   9.540  0.1332  3.0441 -0.0042
   72MOL0     H 9461   9.519   7.991   9.372 -0.9734  0.7791 -3.0532
   72MOL0     H 9462   9.238   8.036   9.461  0.7562  1.7339 -1.1071
   72MOL0     H 9463   9.292   8.057   9.302 -2.9102  2.3846  1.6435
   72MOL0     H 9464   9.325   7.832   9.255 -0.2632  0.3042  0.2478
   72MOL0     H 9465   9.185   7.826   9.362 -1.3767  2.2662  0.8537
   72MOL0     H 9466   9.169   7.583   9.338  0.2919  0.5033 -0.9513
   72MOL0     H 9467   9.215   7.381   9.253 -1.2251  2.8481  0.8907
   72MOL0     H 9468   9.767   7.127   9.168  0.2522  2.7437 -1.2927
   72MOL0     H 9469   9.839   6.895   9.059  0.0519  1.3125 -2.1758
   72MOL0     H 9470   9.651   6.799   8.680 -1.6132  2.3049  1.5028
   72MOL0     H 9471   9.524   6.740   8.786  0.3386  3.9077  1.5270
   72MOL0     H 9472   9.604   6.549   8.664 -0.2506  0.1939  0.7250
   72MOL0     H 9473   9.636   6.538   8.827 -3.5892  0.1246 -0.3261
   72MOL0     H 9474   9.888   6.633   8.780  0.6826  0.1545 -0.7881
   72MOL0     H 9475   9.842   6.594   8.611  0.3537 -1.2006 -0.2302
   72MOL0     H 9476   9.831   6.393   8.835  0.4051  0.7679  0.8306
   72MOL0     H 9477   9.758   6.370   8.683  0.5838 -0.8664 -1.1000
   72MOL0     H 9478  10.009   6.286   8.747 -3.0186 -0.3016  1.7890
   72MOL0     H 9479  10.053   6.451   8.681  2.5278 -3.1784 -2.0020
   72MOL0     H 9480   9.942   6.404   8.473 -0.1054 -1.5412 -1.9930
   72MOL0     H 9481   9.898   6.241   8.526 -1.6166  1.7843  1.1854
   72MOL0     H 9482  10.169   6.214   8.582 -1.8073 -4.6244 -0.9345
   72MOL0     H 9483  10.077   6.176   8.441 -0.7744 -2.5709  5.1324
   72MOL0     H 9484  10.197   6.460   8.450  1.4605 -2.0353  3.6524
   72MOL0     H 9485  10.159   6.372   8.312 -0.4687 -1.8389 -0.0195
   72MOL0     H 9486   9.496   6.945   8.801 -1.4127 -1.9304  1.0301
   72MOL0     H 9487   9.428   7.144   8.924 -1.4178 -0.3424  1.1886
   72MOL0     H 9488   9.636   7.443   9.280  0.4600  1.8914  0.4991
   72MOL0     H 9489   9.599   7.653   9.380 -0.3069 -1.1821  3.4754
   72MOL0     H 9490  10.799   8.303   9.980 -0.9160 -0.4003 -0.4884
   72MOL0     H 9491  10.939   8.458  10.029 -0.7301 -2.0185  1.8537
   72MOL0     H 9492  11.320   8.748   9.853 -1.6249 -0.3037  2.3158
   72MOL0     H 9493  11.504   8.902   9.864 -1.7508 -1.2381 -0.5823
   72MOL0     H 9494  11.936   8.902   9.969  1.7209 -0.4304  2.0215
   72MOL0     H 9495  11.881   8.774  10.073 -1.0853 -0.6089  1.1267
   72MOL0     H 9496  11.757   8.943  10.215 -0.6221  1.2747 -0.3376
   72MOL0     H 9497  11.931   8.953  10.224  0.4636 -1.0903  0.9222
   72MOL0     H 9498  11.745   9.126  10.055  0.3350  4.9242 -1.0396
   72MOL0     H 9499  11.926   9.145  10.060 -0.3813  3.6619  1.3711
   72MOL0     H 9500  11.751   9.152  10.303 -1.4528 -1.6250 -1.4463
   72MOL0     H 9501  11.923   9.207  10.298  2.0587 -0.1342 -1.9276
   72MOL0     H 9502  11.730   9.524  10.099  1.5709  0.3908  0.7623
   72MOL0     H 9503  11.759   8.627  10.064  0.5868  1.3632 -1.6351
   72MOL0     H 9504  11.552   8.454  10.065 -0.7940  0.3888  0.9504
   73MOL0     O 9505   6.394   9.126   2.677  0.6522 -0.0420  0.3832
   73MOL0     C 9506   6.454   9.181   2.764 -0.7843 -0.0850  0.3835
   73MOL0     O 9507   6.591   9.214   2.765  0.7960 -0.4554  0.1442
   73MOL0     C 9508   6.624   9.303   2.671 -1.1085 -0.3906  1.2557
   73MOL0     C 9509   6.540   9.372   2.589  0.1838 -0.3296  0.7034
   73MOL0     C 9510   6.590   9.465   2.497 -0.5466 -0.7664  0.6277
   73MOL0     C 9511   6.732   9.494   2.481  0.8795 -0.0456 -0.4343
   73MOL0     O 9512   6.786   9.580   2.388  0.0907  0.3125  0.7165
   73MOL0     C 9513   6.813   9.535   2.251  0.5726  0.7677 -0.6868
   73MOL0     C 9514   6.906   9.623   2.175 -0.0378 -0.3509 -0.2405
   73MOL0     C 9515   6.855   9.771   2.172 -0.0587  0.1124 -0.8855
   73MOL0     C 9516   6.919   9.854   2.059  0.2008 -0.0285  0.3435
   73MOL0     C 9517   7.073   9.837   2.050  0.7315 -0.4146  0.1534
   73MOL0     C 9518   7.142   9.934   1.952  0.1961 -0.7193 -0.7025
   73MOL0     C 9519   7.091   9.916   1.812 -0.3620 -0.7562 -0.6451
   73MOL0     C 9520   7.107   9.768   1.753 -0.5938 -0.0904  0.0015
   73MOL0     N 9521   7.244   9.712   1.767  0.1803  0.0357 -0.6183
   73MOL0     C 9522   7.341   9.729   1.674  0.0559 -0.5431  0.1493
   73MOL0     C 9523   7.446   9.653   1.718 -0.2635  0.2472 -0.3686
   73MOL0     C 9524   7.592   9.643   1.663  1.1793 -0.6417 -0.4345
   73MOL0     C 9525   7.633   9.781   1.605 -0.5281 -0.5047 -0.4205
   73MOL0     C 9526   7.632   9.900   1.696  0.3596 -0.3129  0.6393
   73MOL0     C 9527   7.732   9.894   1.816  0.1189 -0.1007 -0.7128
   73MOL0     O 9528   7.696   9.994   1.911 -0.1254 -0.4847 -0.2131
   73MOL0     C 9529   7.604   9.967   2.019 -0.0371 -0.2513  0.8370
   73MOL0     C 9530   7.562  10.075   2.095 -0.3313 -0.0455 -0.9163
   73MOL0     C 9531   7.479  10.051   2.195  0.6620  0.5019 -0.3266
   73MOL0     C 9532   7.428   9.922   2.223  0.2933 -0.1094  0.5359
   73MOL0     C 9533   7.337   9.902   2.330  0.7552  0.3329  0.2396
   73MOL0     O 9534   7.350   9.778   2.376  0.0577  0.3940 -0.5957
   73MOL0     C 9535   7.264   9.722   2.469  0.3916  0.2184 -0.3029
   73MOL0     C 9536   7.125   9.739   2.460  0.3211  0.7941 -0.1095
   73MOL0     C 9537   7.036   9.691   2.558 -0.0501 -0.1034 -0.0698
   73MOL0     C 9538   7.090   9.623   2.667 -1.0217  0.7730  0.4685
   73MOL0     O 9539   7.009   9.585   2.774  0.0462 -0.6586 -0.3558
   73MOL0     C 9540   6.880   9.655   2.808 -0.4428  0.9294  0.8820
   73MOL0     C 9541   6.846   9.638   2.954 -0.1965  0.1705 -0.4585
   73MOL0     C 9542   6.858   9.497   3.002 -0.1073  0.4956  0.0387
   73MOL0     C 9543   6.858   9.504   3.159  0.4374 -0.3624  0.6330
   73MOL0     C 9544   6.884   9.370   3.219 -0.7455  0.1339 -0.3601
   73MOL0     C 9545   6.758   9.275   3.216  0.2414  1.0015  0.0201
   73MOL0     C 9546   6.811   9.140   3.273  0.9744 -0.2264  0.1424
   73MOL0     C 9547   6.699   9.035   3.319 -1.1216  0.6556  0.4025
   73MOL0    Cl 9548   6.603   9.113   3.443  0.1268 -0.2468  0.4507
   73MOL0     C 9549   7.229   9.603   2.677 -0.0882 -0.3284  1.2462
   73MOL0     C 9550   7.316   9.656   2.582  0.0366 -0.7551 -0.3975
   73MOL0     O 9551   7.263   9.984   2.372 -0.0942  0.4603 -0.2733
   73MOL0     C 9552   7.453   9.821   2.129  0.5833 -0.1737 -1.1728
   73MOL0     C 9553   7.541   9.837   2.036  0.1099 -0.5087  0.5863
   73MOL0     N 9554   7.398   9.582   1.836  0.2621 -0.2395 -0.1377
   73MOL0     N 9555   7.274   9.624   1.863 -0.2191 -0.3229 -0.3876
   73MOL0     C 9556   6.818   9.419   2.563  0.6695 -0.4299  0.0402
   73MOL0     C 9557   6.767   9.329   2.649 -0.0638 -0.2518  0.1161
   73MOL0     C 9558   6.384   9.223   2.887  0.9020 -0.1928 -0.9149
   73MOL0     C 9559   6.251   9.200   2.896  0.3392 -0.7023 -0.1855
   73MOL0     C 9560   6.190   9.231   3.020  1.0579 -0.4920  0.0713
   73MOL0     C 9561   6.260   9.278   3.140 -0.0043 -0.1421  0.1257
   73MOL0     O 9562   6.205   9.293   3.267 -0.3149 -0.5644 -0.1722
   73MOL0     C 9563   6.090   9.374   3.263  0.0272 -0.3812 -0.7093
   73MOL0     C 9564   6.090   9.468   3.380  0.3195  0.2447 -0.1956
   73MOL0     C 9565   5.969   9.561   3.374 -0.5642 -0.1245 -0.3850
   73MOL0     C 9566   5.974   9.646   3.500 -0.1707 -0.4858  0.5155
   73MOL0     C 9567   5.858   9.726   3.498 -1.0259  0.5586  0.0704
   73MOL0     C 9568   5.778   9.817   3.499 -0.1934  0.3099  0.1118
   73MOL0     C 9569   6.394   9.292   3.122 -0.4058  0.2001  0.6278
   73MOL0     C 9570   6.454   9.271   2.997 -0.0270 -0.2709  0.6062
   73MOL0     H 9571   6.432   9.361   2.588  0.2969 -1.8673 -1.2076
   73MOL0     H 9572   6.525   9.537   2.448 -0.0089 -0.4050  0.4404
   73MOL0     H 9573   6.717   9.511   2.204  0.8002 -0.8322 -0.3940
   73MOL0     H 9574   6.855   9.435   2.260 -1.5338 -0.1427 -0.3564
   73MOL0     H 9575   6.933   9.587   2.075  2.0522  0.9097 -0.2050
   73MOL0     H 9576   7.001   9.634   2.229 -0.6584 -0.6330  0.9359
   73MOL0     H 9577   6.861   9.816   2.272 -4.0442 -2.5211  0.7711
   73MOL0     H 9578   6.750   9.770   2.143  0.6697 -0.9181 -3.7666
   73MOL0     H 9579   6.865   9.816   1.971 -3.4144  1.0351  1.9334
   73MOL0     H 9580   6.895   9.959   2.079 -0.4728 -0.0847 -0.0985
   73MOL0     H 9581   7.087   9.729   2.033  0.0710 -0.1232 -3.0507
   73MOL0     H 9582   7.118   9.861   2.146 -0.4894  0.0504  0.6163
   73MOL0     H 9583   7.246   9.900   1.946 -0.1947 -1.8585 -1.5849
   73MOL0     H 9584   7.135  10.038   1.984  2.4427 -0.6701 -0.1372
   73MOL0     H 9585   6.986   9.944   1.815  0.3469  2.2759  2.3033
   73MOL0     H 9586   7.145   9.989   1.751  2.4007 -0.1434  2.2538
   73MOL0     H 9587   7.073   9.774   1.649 -1.2754 -3.8288 -0.1312
   73MOL0     H 9588   7.037   9.703   1.806 -3.0781  2.8928  0.6702
   73MOL0     H 9589   7.341   9.788   1.583  0.2856 -1.9090 -0.7709
   73MOL0     H 9590   7.597   9.562   1.590 -0.7872  0.8568 -2.3827
   73MOL0     H 9591   7.654   9.625   1.751  3.0542  1.7796 -1.1631
   73MOL0     H 9592   7.563   9.798   1.523 -2.3805 -0.4782  1.0816
   73MOL0     H 9593   7.730   9.783   1.555  0.0198  0.7154  0.6198
   73MOL0     H 9594   7.668   9.978   1.627  0.3287 -0.6345  0.2601
   73MOL0     H 9595   7.528   9.912   1.726 -0.0148 -0.8054 -0.4282
   73MOL0     H 9596   7.835   9.920   1.791  0.0773 -1.8234 -3.0420
   73MOL0     H 9597   7.731   9.794   1.862  0.4066  0.9771  1.7967
   73MOL0     H 9598   7.594  10.177   2.076 -1.4219  0.8826  1.8048
   73MOL0     H 9599   7.448  10.123   2.269  0.3730 -1.5697  1.6550
   73MOL0     H 9600   7.091   9.821   2.399 -0.4483  0.1508 -0.5791
   73MOL0     H 9601   6.934   9.726   2.557  0.5786  1.8572 -0.4818
   73MOL0     H 9602   6.796   9.612   2.753 -0.7690 -1.4007  3.0324
   73MOL0     H 9603   6.878   9.762   2.787  3.9775  0.8941 -0.6778
   73MOL0     H 9604   6.740   9.665   2.957 -1.0414 -2.4332 -2.6535
   73MOL0     H 9605   6.913   9.700   3.016  0.1494 -0.8622  0.2201
   73MOL0     H 9606   6.950   9.447   2.970 -1.3978 -1.5201 -0.7145
   73MOL0     H 9607   6.775   9.447   2.952 -0.1164  1.1132 -0.5667
   73MOL0     H 9608   6.942   9.571   3.182  1.5456 -1.4439 -0.1604
   73MOL0     H 9609   6.767   9.551   3.199 -1.1789 -2.1434 -0.7913
   73MOL0     H 9610   6.913   9.389   3.323  4.0699  0.5667 -1.5386
   73MOL0     H 9611   6.967   9.317   3.172  0.8084  2.1367 -0.0184
   73MOL0     H 9612   6.715   9.257   3.117 -2.1013 -1.1802  1.3014
   73MOL0     H 9613   6.684   9.318   3.284 -1.0173  1.2432 -1.4608
   73MOL0     H 9614   6.866   9.093   3.191  0.5113  2.8240 -2.0936
   73MOL0     H 9615   6.869   9.143   3.366 -1.7250 -0.2281  1.9342
   73MOL0     H 9616   6.750   8.948   3.362 -1.1362 -0.3894 -1.5836
   73MOL0     H 9617   6.640   9.002   3.234 -1.0857  1.9478 -0.1373
   73MOL0     H 9618   7.269   9.563   2.770 -2.7407 -1.6416  1.9215
   73MOL0     H 9619   7.423   9.640   2.590 -0.0085 -0.3266  1.8949
   73MOL0     H 9620   7.400   9.727   2.148  0.9876  0.1407  2.2074
   73MOL0     H 9621   7.568   9.754   1.971  0.3097 -2.6175  3.1826
   73MOL0     H 9622   6.927   9.419   2.565  0.6589 -0.0711  1.1393
   73MOL0     H 9623   6.841   9.268   2.701 -0.5078 -0.7779  0.1357
   73MOL0     H 9624   6.195   9.158   2.813 -0.7797 -0.2707  0.3327
   73MOL0     H 9625   6.086   9.204   3.036  1.1372 -1.5051 -1.0142
   73MOL0     H 9626   6.007   9.304   3.271 -1.0540  0.9943  0.5900
   73MOL0     H 9627   6.074   9.428   3.170 -0.1245  0.2922 -0.2972
   73MOL0     H 9628   6.087   9.405   3.469  1.8047  1.8251  1.0624
   73MOL0     H 9629   6.186   9.518   3.396  0.6442 -0.6832  0.8755
   73MOL0     H 9630   5.875   9.505   3.378 -3.8291  4.7539  1.3519
   73MOL0     H 9631   5.958   9.625   3.286  1.1983  1.2860  0.3676
   73MOL0     H 9632   5.958   9.594   3.595 -0.0852 -1.0833  0.2083
   73MOL0     H 9633   6.062   9.710   3.501  1.0830 -2.1533  1.3845
   73MOL0     H 9634   5.732   9.913   3.506  2.0689  1.4493  0.2107
   73MOL0     H 9635   6.453   9.333   3.203  1.5871  1.0799 -1.1762
   73MOL0     H 9636   6.558   9.295   2.979 -0.6524  0.0994 -3.5952
   74MOL0     O 9637   9.819   9.477   2.988 -0.0231  0.0903  0.4444
   74MOL0     C 9638   9.799   9.352   2.991 -0.0794  0.3425  0.6217
   74MOL0     O 9639   9.719   9.288   3.085 -0.1094 -0.3367 -0.5877
   74MOL0     C 9640   9.682   9.361   3.196 -1.1322 -0.1449 -0.5295
   74MOL0     C 9641   9.547   9.397   3.210 -0.5322  0.4017 -0.4487
   74MOL0     C 9642   9.509   9.472   3.320  0.4496  0.8921  0.1306
   74MOL0     C 9643   9.596   9.493   3.434 -0.1716 -0.3639  0.7883
   74MOL0     O 9644   9.554   9.561   3.550 -0.3979  0.2545 -0.1763
   74MOL0     C 9645   9.643   9.628   3.639 -0.5148  0.2181  0.2263
   74MOL0     C 9646   9.565   9.740   3.712 -0.9179 -0.4988 -0.3515
   74MOL0     C 9647   9.528   9.850   3.609  0.0024  0.2028  0.6639
   74MOL0     C 9648   9.397   9.923   3.649 -0.7618  0.5687 -0.3572
   74MOL0     C 9649   9.267   9.851   3.654 -0.4796 -0.5384 -0.6040
   74MOL0     C 9650   9.217   9.747   3.549 -0.8721  0.5570 -0.0800
   74MOL0     C 9651   9.226   9.813   3.408 -0.6366  0.3082 -0.2203
   74MOL0     C 9652   9.159   9.735   3.287 -0.2938  0.0499 -1.0085
   74MOL0     N 9653   9.019   9.779   3.288  0.1440 -0.2042  0.7423
   74MOL0     C 9654   8.983   9.897   3.236 -0.9238  0.1906 -1.2044
   74MOL0     C 9655   8.850   9.910   3.234 -0.1840 -0.3201  0.3685
   74MOL0     C 9656   8.774  10.016   3.155  0.6807  0.2305  0.4627
   74MOL0     C 9657   8.826  10.028   3.010  0.5730 -0.3817 -0.3961
   74MOL0     C 9658   8.788   9.913   2.920  0.1987  0.0074  0.2070
   74MOL0     C 9659   8.892   9.897   2.810  0.5993  0.6619  0.5791
   74MOL0     O 9660   8.903  10.008   2.723 -0.1575 -0.6039  0.0875
   74MOL0     C 9661   8.977   9.997   2.605 -0.0064 -0.4798  0.8238
   74MOL0     C 9662   8.977  10.100   2.520 -0.1655 -0.2233  0.8597
   74MOL0     C 9663   9.055  10.104   2.407  0.3773 -0.4553  0.5319
   74MOL0     C 9664   9.136   9.991   2.371 -0.6643  0.5381  0.2407
   74MOL0     C 9665   9.217   9.999   2.244 -0.0661  0.5192  0.5749
   74MOL0     O 9666   9.197  10.110   2.166 -0.2243  0.0693 -0.2582
   74MOL0     C 9667   9.299  10.140   2.079 -0.2000 -1.1548 -0.9067
   74MOL0     C 9668   9.422  10.150   2.126 -0.1582  0.4622  0.2834
   74MOL0     C 9669   9.538  10.180   2.047  0.3834 -0.7141 -0.2914
   74MOL0     C 9670   9.510  10.190   1.913 -0.0840  0.1972  0.2420
   74MOL0     O 9671   9.622  10.208   1.840 -0.2924 -0.2809 -0.6281
   74MOL0     C 9672   9.618  10.295   1.737 -0.0199 -0.7948  0.4775
   74MOL0     C 9673   9.749  10.368   1.737 -0.4816 -0.4692 -0.4982
   74MOL0     C 9674   9.773  10.453   1.617  0.0148 -0.0301 -1.1102
   74MOL0     C 9675   9.927  10.465   1.581 -0.2911 -0.0833 -1.5102
   74MOL0     C 9676   9.930  10.514   1.434  0.5077  0.7738  0.6329
   74MOL0     C 9677  10.070  10.567   1.386  0.0950 -0.3252  0.0251
   74MOL0     C 9678  10.054  10.628   1.247 -0.6734  0.9749  0.3389
   74MOL0     C 9679  10.079  10.514   1.141  0.2102  0.4056  0.0764
   74MOL0    Cl 9680  10.093  10.583   0.990  0.7088 -0.2788  0.1329
   74MOL0     C 9681   9.383  10.171   1.853  0.5848 -0.7248  0.0813
   74MOL0     C 9682   9.271  10.153   1.937  0.2416  0.4217  0.2849
   74MOL0     O 9683   9.289   9.902   2.216 -0.2409 -0.0004 -0.5349
   74MOL0     C 9684   9.137   9.879   2.458  0.5940 -0.6006  0.4713
   74MOL0     C 9685   9.048   9.880   2.571  0.1579  0.0353  0.1138
   74MOL0     N 9686   8.802   9.786   3.278 -0.2866 -0.3086 -0.4353
   74MOL0     N 9687   8.904   9.708   3.298  0.5845  0.1597  0.6738
   74MOL0     C 9688   9.734   9.448   3.420  0.0118 -0.3680  0.9543
   74MOL0     C 9689   9.773   9.391   3.296 -0.4944 -0.8089  0.2020
   74MOL0     C 9690   9.836   9.276   2.874 -0.4658  0.3160 -0.2021
   74MOL0     C 9691   9.870   9.324   2.748  0.5488 -0.7120 -0.1713
   74MOL0     C 9692   9.892   9.231   2.640 -0.5412 -0.3240 -0.2531
   74MOL0     C 9693   9.863   9.096   2.651  0.2896 -0.0356 -0.1946
   74MOL0     O 9694   9.877   9.009   2.546  0.4720  0.2511 -0.5605
   74MOL0     C 9695   9.822   8.874   2.570  0.1972  0.0292 -0.6677
   74MOL0     C 9696   9.809   8.809   2.432  0.3642  0.4054  0.3543
   74MOL0     C 9697   9.945   8.782   2.356  1.1440  0.2765 -1.2592
   74MOL0     C 9698   9.972   8.860   2.242  0.6200 -0.5628  1.2198
   74MOL0     C 9699   9.896   8.802   2.130  0.2820 -0.1943  0.1412
   74MOL0     C 9700   9.830   8.761   2.032  0.2108  0.5061  0.5183
   74MOL0     C 9701   9.831   9.044   2.778 -0.0573 -1.3568  0.7386
   74MOL0     C 9702   9.819   9.134   2.887 -0.3331 -0.4282  0.0063
   74MOL0     H 9703   9.482   9.357   3.132 -1.2091  3.8277 -1.8186
   74MOL0     H 9704   9.401   9.482   3.322  0.1266 -1.0682 -2.1796
   74MOL0     H 9705   9.723   9.682   3.588 -0.5882 -1.5754 -1.9286
   74MOL0     H 9706   9.686   9.560   3.714 -0.7051 -0.5317 -0.3331
   74MOL0     H 9707   9.642   9.769   3.785  0.6955  0.6010 -2.3827
   74MOL0     H 9708   9.475   9.698   3.759 -0.8785 -0.0495  0.1383
   74MOL0     H 9709   9.502   9.798   3.517 -0.9664 -0.0845  1.0914
   74MOL0     H 9710   9.607   9.925   3.593  1.1082 -0.8778  0.9202
   74MOL0     H 9711   9.416   9.989   3.735 -1.1369  2.0980 -1.4035
   74MOL0     H 9712   9.376   9.995   3.570 -0.0485 -0.1199 -1.1917
   74MOL0     H 9713   9.197   9.935   3.663  1.4111  1.2920 -2.0795
   74MOL0     H 9714   9.264   9.797   3.749  0.8634  2.6386  1.4179
   74MOL0     H 9715   9.120   9.700   3.567 -1.5741  1.5401 -1.1525
   74MOL0     H 9716   9.290   9.665   3.548  0.8890  2.0451  0.7138
   74MOL0     H 9717   9.195   9.917   3.420 -0.4314  0.5771 -1.8595
   74MOL0     H 9718   9.334   9.810   3.390 -0.4123  2.1102  0.5768
   74MOL0     H 9719   9.165   9.627   3.304 -0.8107 -0.0458 -1.4052
   74MOL0     H 9720   9.205   9.749   3.189 -0.4904 -1.6704 -1.3756
   74MOL0     H 9721   9.059   9.960   3.192  0.2498  1.3713  2.2006
   74MOL0     H 9722   8.777  10.113   3.205  1.4039  0.7064 -0.4710
   74MOL0     H 9723   8.668   9.991   3.143  1.0689 -0.7506 -1.2571
   74MOL0     H 9724   8.934  10.039   3.020  0.3388 -0.1898  4.2064
   74MOL0     H 9725   8.789  10.118   2.961 -0.6961 -0.6228  0.0727
   74MOL0     H 9726   8.785   9.820   2.978 -1.2330  1.0123  1.8676
   74MOL0     H 9727   8.691   9.926   2.871 -0.4544  1.7635  1.8174
   74MOL0     H 9728   8.853   9.818   2.745 -1.1063  1.2033  0.8894
   74MOL0     H 9729   8.989   9.883   2.860 -0.3755  2.2515  3.1577
   74MOL0     H 9730   8.932  10.192   2.557  1.8759  0.2003  2.4848
   74MOL0     H 9731   9.034  10.187   2.340 -2.2185  0.1836  2.0067
   74MOL0     H 9732   9.448  10.132   2.230  2.8807 -1.5870 -0.6849
   74MOL0     H 9733   9.636  10.188   2.092  0.3497 -1.7096 -0.0130
   74MOL0     H 9734   9.535  10.365   1.747  2.0411  1.7572  0.8327
   74MOL0     H 9735   9.602  10.240   1.644  0.5261  0.4924 -0.4117
   74MOL0     H 9736   9.820  10.284   1.733 -0.6934 -0.7041  0.4440
   74MOL0     H 9737   9.764  10.423   1.830 -0.8380  1.4209 -1.5007
   74MOL0     H 9738   9.730  10.550   1.646  1.5713  0.4330 -0.2636
   74MOL0     H 9739   9.713  10.406   1.538  0.7283 -1.2471 -0.9494
   74MOL0     H 9740   9.977  10.535   1.649 -0.0474 -1.7054  0.0541
   74MOL0     H 9741   9.967  10.366   1.600 -0.7391  0.0306  0.2834
   74MOL0     H 9742   9.866  10.602   1.422 -0.5218 -0.2843 -2.6221
   74MOL0     H 9743   9.901  10.432   1.368  0.2142  2.2550 -1.1601
   74MOL0     H 9744  10.130  10.476   1.385  0.4574 -0.2157 -3.9098
   74MOL0     H 9745  10.104  10.642   1.458 -0.2450 -0.3902  0.2588
   74MOL0     H 9746   9.955  10.675   1.247 -1.0097  0.2947 -0.7989
   74MOL0     H 9747  10.133  10.699   1.224 -0.2741 -0.3455 -2.8876
   74MOL0     H 9748  10.002  10.437   1.135 -1.2059  1.7692  0.1917
   74MOL0     H 9749  10.168  10.456   1.167  1.0205  1.0597 -1.1283
   74MOL0     H 9750   9.345  10.169   1.751  2.7153  0.7638 -0.7994
   74MOL0     H 9751   9.168  10.151   1.903  1.2216 -0.1413 -2.9396
   74MOL0     H 9752   9.186   9.785   2.435 -1.0927 -1.0467 -1.5716
   74MOL0     H 9753   9.045   9.798   2.642 -0.5728  0.0553  0.1150
   74MOL0     H 9754   9.807   9.454   3.501  1.9237 -3.7059 -0.3130
   74MOL0     H 9755   9.876   9.356   3.288 -0.8633 -2.0741  0.7218
   74MOL0     H 9756   9.886   9.430   2.734  0.3320 -0.9015 -2.1364
   74MOL0     H 9757   9.925   9.273   2.546 -1.5217  0.2219 -0.3749
   74MOL0     H 9758   9.726   8.865   2.622  0.0635  0.5955 -0.8171
   74MOL0     H 9759   9.900   8.813   2.618  0.2812 -1.7517 -2.8622
   74MOL0     H 9760   9.754   8.715   2.441 -2.5969  1.9019 -0.7196
   74MOL0     H 9761   9.750   8.872   2.364  0.4193 -0.9133 -0.9755
   74MOL0     H 9762   9.958   8.676   2.332  0.3515  0.5828 -3.2457
   74MOL0     H 9763  10.023   8.799   2.430 -2.1403 -0.5997  2.8047
   74MOL0     H 9764   9.952   8.968   2.249  0.0476 -0.6169  0.5496
   74MOL0     H 9765  10.077   8.839   2.223  0.6789  0.7312 -0.0836
   74MOL0     H 9766   9.781   8.726   1.943  1.9239  1.2741 -0.7972
   74MOL0     H 9767   9.820   8.939   2.802 -0.3400 -1.1455  1.5851
   74MOL0     H 9768   9.796   9.093   2.984  0.5903  0.0317  0.4379
   75MOL0     O 9769  11.147   7.583   4.940  0.5609  0.1862 -0.6913
   75MOL0     C 9770  11.151   7.674   4.859  0.4365 -0.0169 -0.7717
   75MOL0     O 9771  11.045   7.732   4.783 -0.0165  0.1441 -0.2822
   75MOL0     C 9772  10.924   7.664   4.770  0.1751 -1.0083  0.7129
   75MOL0     C 9773  10.809   7.744   4.771  1.1373 -0.8918 -0.3526
   75MOL0     C 9774  10.680   7.678   4.769 -0.1648  0.0024  0.6772
   75MOL0     C 9775  10.670   7.543   4.752  0.8782  0.2385  0.5969
   75MOL0     O 9776  10.537   7.487   4.741  0.4938 -0.7947  0.0002
   75MOL0     C 9777  10.517   7.347   4.743  0.2534  0.5020  0.4225
   75MOL0     C 9778  10.367   7.321   4.722 -0.9662 -1.1186 -0.1164
   75MOL0     C 9779  10.342   7.170   4.674  0.2860 -0.4337  0.4242
   75MOL0     C 9780  10.218   7.155   4.592 -0.2148 -0.7852  0.3235
   75MOL0     C 9781  10.112   7.052   4.633 -0.4836 -0.8267 -0.6603
   75MOL0     C 9782   9.989   7.048   4.546 -0.4754  0.7062 -0.2206
   75MOL0     C 9783  10.029   7.057   4.400  1.2340 -0.0527  0.6268
   75MOL0     C 9784   9.912   7.036   4.313 -0.3541  0.2390 -0.8565
   75MOL0     N 9785   9.834   7.157   4.281 -0.0885  0.1960  1.2205
   75MOL0     C 9786   9.869   7.258   4.189 -0.3290  0.0606  0.1200
   75MOL0     C 9787   9.755   7.327   4.170 -0.0730 -0.0662 -0.7926
   75MOL0     C 9788   9.729   7.432   4.062  0.3923  0.2243 -0.2979
   75MOL0     C 9789   9.763   7.573   4.099 -0.5410 -0.4520 -0.1430
   75MOL0     C 9790   9.738   7.661   3.977  0.6576  0.2499 -0.0409
   75MOL0     C 9791   9.766   7.809   3.978  1.7193  0.0138  1.0690
   75MOL0     O 9792   9.713   7.871   4.099 -0.0570 -0.4221 -0.8747
   75MOL0     C 9793   9.583   7.901   4.108 -1.0168  0.7704 -0.0806
   75MOL0     C 9794   9.532   7.944   4.231  0.3040  0.0413 -0.8034
   75MOL0     C 9795   9.400   7.985   4.244  0.3081  0.6196  0.3746
   75MOL0     C 9796   9.317   7.982   4.134  0.4547  0.7684  0.4162
   75MOL0     C 9797   9.173   8.025   4.150  0.0252  0.5223  0.1092
   75MOL0     O 9798   9.099   8.064   4.035 -0.3361  0.8936  0.3498
   75MOL0     C 9799   8.990   8.146   4.062 -0.2387  0.7029  0.1762
   75MOL0     C 9800   9.003   8.278   4.102 -0.2943 -0.8772  0.0783
   75MOL0     C 9801   8.887   8.358   4.128 -0.7434 -0.0220 -1.0621
   75MOL0     C 9802   8.765   8.295   4.104  0.5390 -0.6748 -0.3862
   75MOL0     O 9803   8.651   8.373   4.132  0.1725 -0.5218 -0.6214
   75MOL0     C 9804   8.647   8.510   4.089  1.0463 -0.4214  0.3296
   75MOL0     C 9805   8.504   8.537   4.039  0.5224  0.0151  0.4084
   75MOL0     C 9806   8.443   8.443   3.938  0.3457 -0.1753 -0.4606
   75MOL0     C 9807   8.294   8.471   3.909 -0.0603  0.4992  0.6355
   75MOL0     C 9808   8.251   8.359   3.811  1.2456 -0.0906 -0.0447
   75MOL0     C 9809   8.096   8.357   3.773  0.5513  0.2446 -0.6806
   75MOL0     C 9810   8.059   8.258   3.660  0.9083  0.0028  0.3409
   75MOL0     C 9811   8.053   8.113   3.700 -1.0377  1.2906 -0.8884
   75MOL0    Cl 9812   7.942   8.082   3.837 -0.4578  0.3991  0.5944
   75MOL0     C 9813   8.755   8.163   4.075 -1.1076 -0.2826 -0.0394
   75MOL0     C 9814   8.866   8.086   4.037 -0.2852 -0.3999 -0.4420
   75MOL0     O 9815   9.125   8.017   4.267  0.3820 -0.4780  0.1504
   75MOL0     C 9816   9.357   7.923   4.017  0.2342  0.5287  0.7369
   75MOL0     C 9817   9.496   7.890   3.995  1.2415 -0.4997 -0.4815
   75MOL0     N 9818   9.659   7.281   4.258 -0.7872 -0.5480 -0.7142
   75MOL0     N 9819   9.706   7.182   4.327  0.4528  0.0933 -0.1212
   75MOL0     C 9820  10.784   7.466   4.729 -0.3601  0.2338 -0.2209
   75MOL0     C 9821  10.907   7.523   4.736  0.6204 -0.3553 -0.2570
   75MOL0     C 9822  11.277   7.743   4.837  0.3431 -0.2792 -0.3214
   75MOL0     C 9823  11.283   7.843   4.735 -0.0077  1.2540 -0.6315
   75MOL0     C 9824  11.409   7.899   4.708  0.6503  0.3019 -1.2269
   75MOL0     C 9825  11.526   7.844   4.762 -0.0591 -0.4053  0.1432
   75MOL0     O 9826  11.634   7.918   4.729  0.1508  0.0404 -0.4036
   75MOL0     C 9827  11.768   7.871   4.764 -0.3030  0.1067  0.5405
   75MOL0     C 9828  11.868   7.973   4.716  0.2417  0.0128 -0.3947
   75MOL0     C 9829  11.850   8.102   4.804  0.9336  1.0099 -0.6722
   75MOL0     C 9830  11.904   8.230   4.728 -0.6064  0.3368  0.9950
   75MOL0     C 9831  11.812   8.271   4.619 -0.1508  0.9143  1.1614
   75MOL0     C 9832  11.733   8.309   4.539 -0.0684 -0.0844  0.3584
   75MOL0     C 9833  11.525   7.734   4.843  0.6227 -0.0798 -0.7165
   75MOL0     C 9834  11.397   7.688   4.888 -0.6071 -0.2949 -0.1179
   75MOL0     H 9835  10.798   7.852   4.777 -1.7217 -1.2004  3.2698
   75MOL0     H 9836  10.591   7.741   4.769  0.5383  1.0798 -1.4232
   75MOL0     H 9837  10.554   7.315   4.841 -0.8714 -0.2812  0.6003
   75MOL0     H 9838  10.584   7.297   4.673 -0.6795 -1.9443  1.1911
   75MOL0     H 9839  10.334   7.390   4.643 -3.1219  1.9406  3.1397
   75MOL0     H 9840  10.312   7.335   4.815 -0.8060  1.3318 -0.3179
   75MOL0     H 9841  10.335   7.108   4.763 -1.5575 -0.0851  0.5672
   75MOL0     H 9842  10.427   7.130   4.618 -2.2665 -2.4227 -2.3784
   75MOL0     H 9843  10.171   7.251   4.572  4.4654  1.3343 -2.1536
   75MOL0     H 9844  10.258   7.120   4.496 -1.8691 -0.7508 -0.4084
   75MOL0     H 9845  10.093   7.069   4.739  2.3794 -1.6973  0.0821
   75MOL0     H 9846  10.167   6.957   4.626 -0.9659 -1.1647  0.0794
   75MOL0     H 9847   9.917   7.126   4.575 -0.0191  0.3239  2.1371
   75MOL0     H 9848   9.944   6.951   4.565 -1.7728  1.0052 -1.5527
   75MOL0     H 9849  10.068   7.154   4.368  0.5517 -0.4185 -1.5296
   75MOL0     H 9850  10.098   6.976   4.372 -0.4989 -1.6082  0.6195
   75MOL0     H 9851   9.850   6.958   4.357  2.6360 -1.0869  1.2919
   75MOL0     H 9852   9.950   6.994   4.219  0.0089 -0.3103 -0.4666
   75MOL0     H 9853   9.965   7.268   4.141 -0.0780 -0.4258  0.5139
   75MOL0     H 9854   9.622   7.416   4.042  0.4784  0.4107 -0.9398
   75MOL0     H 9855   9.769   7.401   3.965 -3.9308 -0.5843 -2.0734
   75MOL0     H 9856   9.870   7.572   4.123 -0.6601 -2.3860  0.4386
   75MOL0     H 9857   9.698   7.615   4.176 -1.3748  1.9912 -2.0216
   75MOL0     H 9858   9.775   7.608   3.888 -2.5532 -0.2673 -1.1979
   75MOL0     H 9859   9.631   7.653   3.958  0.8417  1.6228 -1.9128
   75MOL0     H 9860   9.735   7.849   3.881  0.5400 -1.3042  0.8676
   75MOL0     H 9861   9.873   7.832   3.977  1.6684  0.3547  2.0638
   75MOL0     H 9862   9.585   7.957   4.325  1.0339 -3.4325 -0.6320
   75MOL0     H 9863   9.356   8.032   4.331 -1.7016  0.4068 -0.4672
   75MOL0     H 9864   9.105   8.304   4.129 -1.2645  1.2739  1.9633
   75MOL0     H 9865   8.893   8.457   4.171  2.1245 -0.9510  1.0429
   75MOL0     H 9866   8.716   8.529   4.006  0.4230  0.0045 -0.1032
   75MOL0     H 9867   8.684   8.572   4.171 -1.8683  2.4541 -0.3345
   75MOL0     H 9868   8.503   8.634   3.989 -1.1548 -0.8049 -1.2872
   75MOL0     H 9869   8.436   8.551   4.123  1.4309  0.9651  1.0147
   75MOL0     H 9870   8.449   8.344   3.985 -2.0373  0.9200  2.4445
   75MOL0     H 9871   8.492   8.450   3.840 -1.7622  3.2683 -1.4440
   75MOL0     H 9872   8.237   8.469   4.003 -1.2512 -1.6805 -0.0665
   75MOL0     H 9873   8.274   8.571   3.869  0.1831  0.4146  0.3035
   75MOL0     H 9874   8.266   8.256   3.845  0.9286 -0.6239 -1.4412
   75MOL0     H 9875   8.309   8.374   3.720  0.6523 -0.8433 -0.5610
   75MOL0     H 9876   8.060   8.458   3.751 -1.4870  0.8498  4.1498
   75MOL0     H 9877   8.031   8.333   3.858 -0.2095 -0.7600 -1.5146
   75MOL0     H 9878   7.960   8.287   3.623  2.2030  2.6427 -1.3628
   75MOL0     H 9879   8.123   8.278   3.573  3.1068  3.2988  2.4982
   75MOL0     H 9880   8.155   8.079   3.719 -1.6290  0.2377  0.6559
   75MOL0     H 9881   8.020   8.049   3.618  0.9258 -1.5000  0.3125
   75MOL0     H 9882   8.651   8.132   4.074 -1.4529  0.8090  0.7668
   75MOL0     H 9883   8.869   7.980   4.015  1.7799 -0.7004  1.0567
   75MOL0     H 9884   9.282   7.910   3.940 -0.3054  0.0367  1.3375
   75MOL0     H 9885   9.529   7.852   3.899 -0.8633  0.3936 -1.6191
   75MOL0     H 9886  10.766   7.360   4.715 -3.4828  0.3647  1.7722
   75MOL0     H 9887  11.004   7.474   4.732  1.2795  0.9565 -1.5704
   75MOL0     H 9888  11.190   7.873   4.686  1.1918  3.9276 -1.4638
   75MOL0     H 9889  11.425   7.976   4.633  0.3323 -1.2145 -2.9174
   75MOL0     H 9890  11.788   7.777   4.712 -2.2616 -0.6032  0.9957
   75MOL0     H 9891  11.778   7.855   4.872  0.5346  1.3724  0.6741
   75MOL0     H 9892  11.972   7.940   4.715 -0.6887 -3.3806  0.5655
   75MOL0     H 9893  11.829   8.002   4.618 -2.9612 -0.4814  0.6108
   75MOL0     H 9894  11.905   8.088   4.898 -3.0300  0.6091  1.8305
   75MOL0     H 9895  11.749   8.121   4.841 -0.4191 -1.1429 -3.0077
   75MOL0     H 9896  11.931   8.309   4.799  1.5871  1.2468 -0.7266
   75MOL0     H 9897  11.997   8.198   4.680 -1.6339 -0.0181 -0.8313
   75MOL0     H 9898  11.653   8.323   4.469 -1.0552  2.0257  1.8159
   75MOL0     H 9899  11.618   7.696   4.885  0.2967  0.8919  0.9535
   75MOL0     H 9900  11.418   7.602   4.952 -1.7849  1.2572  2.5524
   76MOL0     O 9901   4.641   0.861   6.781 -0.2113 -0.6573  0.1996
   76MOL0     C 9902   4.653   0.805   6.895  0.5643 -0.7056 -0.5267
   76MOL0     O 9903   4.689   0.677   6.909 -0.1872 -0.3382 -0.0264
   76MOL0     C 9904   4.690   0.583   6.806  0.2378 -0.7294  0.1520
   76MOL0     C 9905   4.620   0.599   6.687 -0.4583  0.7621  0.4749
   76MOL0     C 9906   4.619   0.503   6.587  0.8470 -0.4322 -0.3571
   76MOL0     C 9907   4.696   0.384   6.595  0.4727 -0.4996  0.5637
   76MOL0     O 9908   4.705   0.284   6.504  0.5481  0.6608 -0.2508
   76MOL0     C 9909   4.663   0.315   6.371 -0.8041  0.1721 -0.6382
   76MOL0     C 9910   4.704   0.194   6.283 -0.1831  0.1334 -0.6614
   76MOL0     C 9911   4.667   0.226   6.141 -0.3889 -0.1520  1.3466
   76MOL0     C 9912   4.690   0.112   6.040 -0.5973 -0.2456 -0.1262
   76MOL0     C 9913   4.683   0.161   5.900  0.3083 -0.1715 -0.7868
   76MOL0     C 9914   4.699   0.050   5.794 -0.0087  0.1727  0.5665
   76MOL0     C 9915   4.586  -0.055   5.780 -0.1550 -0.6953 -0.7221
   76MOL0     C 9916   4.454  -0.004   5.709 -0.5773  0.4011 -0.8199
   76MOL0     N 9917   4.386  -0.115   5.641  0.4846 -0.2198 -0.6518
   76MOL0     C 9918   4.285  -0.173   5.714 -0.0552  0.0497  0.0435
   76MOL0     C 9919   4.273  -0.301   5.663  0.3084  0.2224  0.4693
   76MOL0     C 9920   4.183  -0.407   5.723  0.5160 -0.6417  0.1513
   76MOL0     C 9921   4.077  -0.447   5.631  0.8062 -0.0731  0.9080
   76MOL0     C 9922   3.998  -0.570   5.685 -0.2616 -0.3209  0.7409
   76MOL0     C 9923   3.881  -0.541   5.776  0.3516 -0.2181 -0.3316
   76MOL0     O 9924   3.795  -0.654   5.815 -0.2626  0.8402  0.7299
   76MOL0     C 9925   3.689  -0.644   5.891  0.0903 -0.5245  0.4198
   76MOL0     C 9926   3.643  -0.775   5.941 -0.0218 -0.3907  0.2301
   76MOL0     C 9927   3.538  -0.777   6.030 -0.2227  0.5178 -0.5943
   76MOL0     C 9928   3.465  -0.664   6.060 -0.0362 -0.1056  0.8669
   76MOL0     C 9929   3.351  -0.668   6.152 -0.9816 -0.5119 -0.0324
   76MOL0     O 9930   3.324  -0.777   6.225 -1.3934  0.5008  0.0597
   76MOL0     C 9931   3.245  -0.752   6.339  0.2777 -0.2770  1.0724
   76MOL0     C 9932   3.296  -0.693   6.458  1.0421  0.7676  1.4178
   76MOL0     C 9933   3.210  -0.668   6.565  0.1915  0.8584 -0.1793
   76MOL0     C 9934   3.066  -0.696   6.556  0.2378  0.7264  0.1303
   76MOL0     O 9935   2.966  -0.666   6.642  0.4396  1.4318  0.8721
   76MOL0     C 9936   2.994  -0.565   6.726 -0.5426 -0.2288  0.5440
   76MOL0     C 9937   2.866  -0.537   6.803  0.5217 -0.7232  0.6528
   76MOL0     C 9938   2.802  -0.653   6.877 -0.4839  0.0591  0.9038
   76MOL0     C 9939   2.869  -0.705   7.001  0.4314  0.8174 -0.9249
   76MOL0     C 9940   2.788  -0.821   7.061 -0.0234  0.2518  0.4992
   76MOL0     C 9941   2.861  -0.879   7.181 -0.4210  0.6102  0.3564
   76MOL0     C 9942   2.770  -0.999   7.213 -0.1730  0.4422 -0.5053
   76MOL0     C 9943   2.840  -1.101   7.317  0.6809  0.4734 -0.0560
   76MOL0    Cl 9944   2.868  -1.003   7.460 -0.0281  0.2578  0.3450
   76MOL0     C 9945   3.019  -0.745   6.434  0.0240 -0.4114  0.0482
   76MOL0     C 9946   3.111  -0.779   6.328  0.7763  0.5312  0.3034
   76MOL0     O 9947   3.286  -0.559   6.170 -0.7860  0.4867  0.0698
   76MOL0     C 9948   3.507  -0.538   6.008  0.3523 -0.5429 -0.6023
   76MOL0     C 9949   3.618  -0.534   5.922 -0.4417 -0.1858  0.7300
   76MOL0     N 9950   4.357  -0.305   5.555  0.6061 -0.6889 -0.3480
   76MOL0     N 9951   4.429  -0.196   5.542  0.1463 -0.3408 -0.9503
   76MOL0     C 9952   4.751   0.364   6.723  0.3180  0.2512 -0.7362
   76MOL0     C 9953   4.744   0.453   6.827  0.1121 -0.1006 -0.7519
   76MOL0     C 9954   4.598   0.865   7.016 -0.3552 -0.5540 -0.5324
   76MOL0     C 9955   4.559   0.999   7.010  0.2830 -0.0431 -0.1711
   76MOL0     C 9956   4.505   1.066   7.119 -0.2370  0.8906  0.2740
   76MOL0     C 9957   4.500   1.000   7.239 -0.5995 -0.4664 -0.3624
   76MOL0     O 9958   4.451   1.054   7.355 -0.0521 -0.3899  0.2446
   76MOL0     C 9959   4.403   1.190   7.364 -0.2941  0.5619  0.4624
   76MOL0     C 9960   4.256   1.197   7.313 -0.6727 -0.1245  0.1529
   76MOL0     C 9961   4.206   1.341   7.358 -0.6526  0.3224  0.1262
   76MOL0     C 9962   4.070   1.373   7.285 -0.1206  0.9075  0.7845
   76MOL0     C 9963   3.955   1.355   7.380  0.0187  0.7723 -0.2608
   76MOL0     C 9964   3.852   1.345   7.450  0.2477  0.1821  0.1615
   76MOL0     C 9965   4.546   0.871   7.251  0.6949 -0.1454  0.0351
   76MOL0     C 9966   4.592   0.801   7.144  0.6001 -0.5080  0.3979
   76MOL0     H 9967   4.566   0.693   6.672  0.2675  1.1646  0.3411
   76MOL0     H 9968   4.561   0.527   6.499  2.1869 -2.2619 -1.8005
   76MOL0     H 9969   4.707   0.406   6.329 -1.2294  0.5518 -0.2668
   76MOL0     H 9970   4.556   0.336   6.378 -0.8254 -0.3558  1.1693
   76MOL0     H 9971   4.659   0.101   6.319 -1.0893  0.3762 -1.1332
   76MOL0     H 9972   4.813   0.193   6.295 -0.3831 -0.0909  1.5908
   76MOL0     H 9973   4.722   0.311   6.100 -1.3710 -0.5764 -1.0485
   76MOL0     H 9974   4.559   0.245   6.147 -1.3053 -2.0615 -3.4836
   76MOL0     H 9975   4.794   0.080   6.053 -0.3598  0.0982 -1.1050
   76MOL0     H 9976   4.625   0.025   6.058 -0.8771  0.2067  1.1617
   76MOL0     H 9977   4.753   0.245   5.890 -1.3033  1.5898  1.6029
   76MOL0     H 9978   4.582   0.202   5.886  0.0045 -1.3868 -2.4695
   76MOL0     H 9979   4.795   0.002   5.815  0.8095  1.5156  0.0198
   76MOL0     H 9980   4.709   0.111   5.703 -2.0586  1.0317  0.8795
   76MOL0     H 9981   4.628  -0.136   5.721 -0.8765 -2.6626  1.3458
   76MOL0     H 9982   4.559  -0.090   5.880  0.3064 -0.0238 -0.3521
   76MOL0     H 9983   4.489   0.067   5.633 -0.6973  1.9017  0.4688
   76MOL0     H 9984   4.378   0.036   5.777  0.3647  0.2291  0.3820
   76MOL0     H 9985   4.238  -0.127   5.800  2.7096  3.0432  0.1635
   76MOL0     H 9986   4.146  -0.369   5.819  2.7164  0.8258  0.4822
   76MOL0     H 9987   4.243  -0.492   5.757 -0.9839 -1.9069 -0.2018
   76MOL0     H 9988   4.136  -0.470   5.542  1.9328  0.5387  1.4604
   76MOL0     H 9989   4.016  -0.359   5.610  0.0793 -1.1345 -1.7333
   76MOL0     H 9990   3.952  -0.623   5.601 -1.6854  0.7934  0.7783
   76MOL0     H 9991   4.071  -0.628   5.744  1.3341  2.7243  1.9929
   76MOL0     H 9992   3.817  -0.477   5.715 -1.0859 -0.1869  1.1349
   76MOL0     H 9993   3.910  -0.493   5.870 -0.2633 -0.6390  0.0836
   76MOL0     H 9994   3.690  -0.868   5.912 -0.1056 -0.0660 -0.9808
   76MOL0     H 9995   3.487  -0.866   6.064 -3.7879  1.4524 -2.9067
   76MOL0     H 9996   3.402  -0.670   6.461  1.9805 -2.7115  0.2676
   76MOL0     H 9997   3.243  -0.622   6.658 -3.3941 -0.4847  1.9810
   76MOL0     H 9998   3.037  -0.477   6.676 -2.7629  0.4538 -0.2940
   76MOL0     H 9999   3.060  -0.608   6.801 -1.3986 -0.5394  1.1286
   76MOL0     H10000   2.794  -0.492   6.734 -0.3822  2.1948  3.2328
   76MOL0     H10001   2.889  -0.456   6.873  1.4396  0.5452 -1.0243
   76MOL0     H10002   2.775  -0.732   6.807  1.6143 -2.3765  2.6938
   76MOL0     H10003   2.701  -0.627   6.912 -0.7856 -2.7534  2.3599
   76MOL0     H10004   2.974  -0.726   6.977  0.9873  0.6888  1.4083
   76MOL0     H10005   2.870  -0.632   7.082  1.2885 -1.0773  0.8314
   76MOL0     H10006   2.769  -0.896   6.983 -1.2034 -1.8268  2.6501
   76MOL0     H10007   2.690  -0.781   7.089  1.0449  6.9318 -3.1031
   76MOL0     H10008   2.855  -0.810   7.266  0.9396 -0.0476  1.0078
   76MOL0     H10009   2.964  -0.905   7.158  0.4583  0.4448  3.9319
   76MOL0     H10010   2.679  -0.962   7.261  3.1476  4.4049  3.5830
   76MOL0     H10011   2.753  -1.061   7.124 -0.0796 -1.0084  0.4581
   76MOL0     H10012   2.940  -1.128   7.282  1.8015  1.5487  2.1606
   76MOL0     H10013   2.783  -1.189   7.345 -1.2850  0.8292 -2.5559
   76MOL0     H10014   2.919  -0.781   6.415  0.3003 -0.8659 -0.5725
   76MOL0     H10015   3.076  -0.829   6.238  1.9021  1.0248 -0.4185
   76MOL0     H10016   3.456  -0.446   6.038 -0.2184 -0.6496 -1.2368
   76MOL0     H10017   3.650  -0.439   5.881 -4.0187  0.9818  0.3341
   76MOL0     H10018   4.816   0.279   6.744  1.2601  1.5778  2.2873
   76MOL0     H10019   4.786   0.419   6.921 -0.6628  0.0767 -0.3349
   76MOL0     H10020   4.561   1.049   6.914  0.4372  0.6525  0.1868
   76MOL0     H10021   4.462   1.162   7.092  1.2814  1.7859  0.9375
   76MOL0     H10022   4.466   1.245   7.293  3.2143 -0.9265  2.1449
   76MOL0     H10023   4.422   1.230   7.464  1.2273 -1.6288  1.1339
   76MOL0     H10024   4.261   1.182   7.205 -3.5003 -1.1189  0.0695
   76MOL0     H10025   4.198   1.120   7.365  0.3407  0.4521  2.2447
   76MOL0     H10026   4.282   1.414   7.327 -1.6148  1.5274  0.5146
   76MOL0     H10027   4.199   1.352   7.467 -0.0206  0.2833  0.1793
   76MOL0     H10028   4.071   1.481   7.273 -0.1707  0.9689  1.3250
   76MOL0     H10029   4.056   1.314   7.194 -1.1924  5.1051 -2.0798
   76MOL0     H10030   3.770   1.352   7.518  0.7109  0.9745  0.6604
   76MOL0     H10031   4.547   0.817   7.345  3.2360 -1.0491 -0.4262
   76MOL0     H10032   4.628   0.699   7.156  3.0802  0.6139  3.7474
   77MOL0     O10033   8.979   4.909   6.173  0.0068  0.9242 -0.7024
   77MOL0     C10034   8.907   4.982   6.108 -0.1483  0.6642  0.4313
   77MOL0     O10035   8.956   5.093   6.034 -0.3881  0.2156  0.0810
   77MOL0     C10036   9.081   5.127   6.026  0.5600 -0.7248 -0.2209
   77MOL0     C10037   9.140   5.178   6.137 -0.7413 -1.2700 -0.2530
   77MOL0     C10038   9.278   5.227   6.129  1.3694 -0.4682 -1.1030
   77MOL0     C10039   9.351   5.221   6.009  0.5523 -0.3910  0.1216
   77MOL0     O10040   9.482   5.280   6.006  0.3825 -0.2976  0.8082
   77MOL0     C10041   9.571   5.224   5.908  0.2597  0.2849 -0.3325
   77MOL0     C10042   9.723   5.262   5.939 -0.2252 -0.3442  0.2715
   77MOL0     C10043   9.769   5.244   6.091  0.1868  0.1636 -0.1280
   77MOL0     C10044   9.927   5.271   6.120 -0.3374 -0.1780  0.2359
   77MOL0     C10045   9.941   5.293   6.278 -0.1597 -0.7551  1.1901
   77MOL0     C10046  10.088   5.328   6.305 -0.2835 -0.4692 -0.2341
   77MOL0     C10047  10.125   5.339   6.458 -0.2630 -0.4742  0.4825
   77MOL0     C10048  10.111   5.483   6.508 -0.3853  0.2739 -0.1204
   77MOL0     N10049  10.210   5.575   6.436 -0.4463  0.3420 -0.1940
   77MOL0     C10050  10.343   5.565   6.444  0.8783  0.6608 -0.2971
   77MOL0     C10051  10.374   5.663   6.353 -0.6508 -0.5159 -0.4929
   77MOL0     C10052  10.523   5.694   6.313  0.3379 -0.7645  0.2309
   77MOL0     C10053  10.568   5.847   6.335 -0.2397  0.9826  0.6274
   77MOL0     C10054  10.704   5.869   6.275  0.5364  0.2205  0.2364
   77MOL0     C10055  10.734   6.022   6.251  0.3511  0.2216  0.4054
   77MOL0     O10056  10.666   6.109   6.339  0.4090  0.3981 -0.8682
   77MOL0     C10057  10.718   6.128   6.462  0.3164 -0.9925 -0.2554
   77MOL0     C10058  10.809   6.042   6.527  0.5028  0.3093  0.5125
   77MOL0     C10059  10.859   6.078   6.654 -0.8017  0.2119  0.1336
   77MOL0     C10060  10.830   6.207   6.714 -0.1147  0.1458 -0.6109
   77MOL0     C10061  10.903   6.260   6.840 -0.7167  0.0199 -0.0883
   77MOL0     O10062  10.894   6.383   6.880  0.4017 -0.1526 -0.0609
   77MOL0     C10063  10.938   6.422   7.006 -0.5647 -0.1958 -0.7301
   77MOL0     C10064  10.969   6.344   7.122 -0.2858  0.1456 -0.0518
   77MOL0     C10065  11.032   6.402   7.228 -0.2126 -0.1002 -1.1015
   77MOL0     C10066  11.080   6.533   7.227 -0.0025  0.0760  0.2552
   77MOL0     O10067  11.146   6.581   7.333  0.0059 -0.0385 -0.7258
   77MOL0     C10068  11.273   6.624   7.290 -0.0463  0.2312  0.2528
   77MOL0     C10069  11.373   6.629   7.407 -0.2726  0.2941  0.1867
   77MOL0     C10070  11.411   6.494   7.465  0.2673 -0.5816  1.0021
   77MOL0     C10071  11.519   6.493   7.572 -1.2331  0.0327 -1.1418
   77MOL0     C10072  11.521   6.365   7.661  0.2151  0.5030 -0.3706
   77MOL0     C10073  11.641   6.366   7.760  0.9059  0.2090  0.6598
   77MOL0     C10074  11.769   6.309   7.705  0.2501 -0.8130  0.8400
   77MOL0     C10075  11.902   6.377   7.741 -0.1066 -0.3500 -0.2084
   77MOL0    Cl10076  11.936   6.378   7.920  0.1177 -0.2837  0.0922
   77MOL0     C10077  11.049   6.613   7.114 -1.1141  0.1550 -0.5141
   77MOL0     C10078  10.985   6.557   7.007  0.4391  0.3597  0.1723
   77MOL0     O10079  10.977   6.177   6.892  0.1153 -0.1009 -0.0358
   77MOL0     C10080  10.735   6.291   6.647  0.2533 -0.2768  0.2757
   77MOL0     C10081  10.674   6.245   6.528 -0.9580  0.9309 -0.9842
   77MOL0     N10082  10.271   5.729   6.301 -0.4082 -0.4561 -0.6514
   77MOL0     N10083  10.166   5.678   6.358 -0.0925 -0.3058 -0.0359
   77MOL0     C10084   9.284   5.166   5.896 -0.6694 -0.0554 -0.8158
   77MOL0     C10085   9.146   5.131   5.900 -0.0440 -0.0076 -0.1186
   77MOL0     C10086   8.767   4.943   6.093  0.2192 -0.4762 -0.4296
   77MOL0     C10087   8.702   4.846   6.176  0.0287  1.2992 -0.3016
   77MOL0     C10088   8.568   4.822   6.185 -0.0317  0.0779  0.4782
   77MOL0     C10089   8.483   4.878   6.083  0.5008 -0.3783  0.4604
   77MOL0     O10090   8.343   4.869   6.078  0.1394  0.8415 -0.6882
   77MOL0     C10091   8.282   4.763   6.147  0.7816 -0.6764  0.1890
   77MOL0     C10092   8.247   4.781   6.294  1.1588  0.1648 -0.6967
   77MOL0     C10093   8.148   4.687   6.356  0.6691 -0.0494 -0.9237
   77MOL0     C10094   8.212   4.554   6.407  0.8481  0.4185 -0.5614
   77MOL0     C10095   8.131   4.482   6.500 -0.2866  0.3195 -0.4946
   77MOL0     C10096   8.055   4.420   6.573 -0.1944 -0.6139 -0.0997
   77MOL0     C10097   8.542   4.980   6.001  0.0599  0.1158  1.0269
   77MOL0     C10098   8.685   5.009   6.002 -1.1899 -0.2922  0.4261
   77MOL0     H10099   9.104   5.188   6.239 -0.0254  1.7972 -0.1938
   77MOL0     H10100   9.322   5.270   6.218  1.3610 -2.0911 -0.2824
   77MOL0     H10101   9.545   5.254   5.806  1.3014 -0.9608 -0.9931
   77MOL0     H10102   9.545   5.118   5.913 -1.5677  0.7343  2.6686
   77MOL0     H10103   9.738   5.369   5.921  2.1325 -0.1713  2.7305
   77MOL0     H10104   9.786   5.206   5.870  1.2250  2.0035 -0.4506
   77MOL0     H10105   9.733   5.143   6.115 -0.5508  0.4925  0.1667
   77MOL0     H10106   9.726   5.314   6.164  1.4710 -0.6376  1.4595
   77MOL0     H10107   9.986   5.192   6.073  0.1299  0.9628 -1.1798
   77MOL0     H10108   9.958   5.370   6.083 -0.0689 -0.2056  0.3851
   77MOL0     H10109   9.898   5.206   6.327 -2.8899  1.3017  2.7386
   77MOL0     H10110   9.887   5.381   6.314 -3.0488 -1.1438 -1.6493
   77MOL0     H10111  10.134   5.414   6.255  0.8437  0.8023  2.7299
   77MOL0     H10112  10.139   5.240   6.265  0.2565  0.2884 -1.2455
   77MOL0     H10113  10.057   5.272   6.511  2.3249 -1.8773  2.2368
   77MOL0     H10114  10.223   5.292   6.469  0.3983  0.7201 -0.1172
   77MOL0     H10115  10.129   5.496   6.615 -0.3508  3.9092 -0.4593
   77MOL0     H10116  10.012   5.525   6.486 -0.0398  2.4470  2.1137
   77MOL0     H10117  10.405   5.491   6.492  1.6988  0.1301 -2.1005
   77MOL0     H10118  10.537   5.669   6.208  2.5390 -0.6765  0.4702
   77MOL0     H10119  10.590   5.625   6.365  1.8113  0.5288  0.1021
   77MOL0     H10120  10.567   5.862   6.444 -2.1652 -0.1452  0.8151
   77MOL0     H10121  10.489   5.912   6.296 -1.7349 -1.1301 -0.0220
   77MOL0     H10122  10.793   5.823   6.319  1.2381  0.4775 -0.8916
   77MOL0     H10123  10.703   5.827   6.175 -0.6338  2.0269 -0.5691
   77MOL0     H10124  10.708   6.051   6.149 -3.7809  1.0298  1.5138
   77MOL0     H10125  10.841   6.038   6.268  0.3139  2.2049 -0.9311
   77MOL0     H10126  10.847   5.945   6.496 -0.0048  1.0259 -2.7555
   77MOL0     H10127  10.926   6.004   6.696  0.0008 -0.1684 -1.6997
   77MOL0     H10128  10.943   6.239   7.122 -0.7190  0.2238 -1.5544
   77MOL0     H10129  11.064   6.347   7.316  2.3779 -0.7687 -2.3412
   77MOL0     H10130  11.277   6.724   7.247 -0.3634  1.0149  1.9436
   77MOL0     H10131  11.305   6.542   7.225 -2.6573 -3.3737  3.0273
   77MOL0     H10132  11.335   6.698   7.483  1.4064  2.4702 -0.8308
   77MOL0     H10133  11.464   6.678   7.371  0.1869 -0.3284  0.4989
   77MOL0     H10134  11.444   6.438   7.377 -0.9959  2.8881 -1.9778
   77MOL0     H10135  11.323   6.434   7.492 -0.1386 -1.2182 -1.5008
   77MOL0     H10136  11.615   6.502   7.520  1.5145  0.1845  3.3931
   77MOL0     H10137  11.501   6.583   7.632 -0.4570 -0.7345  0.2725
   77MOL0     H10138  11.535   6.279   7.595 -0.5949 -0.4664  0.6778
   77MOL0     H10139  11.428   6.364   7.719  0.0109 -3.2144 -0.5742
   77MOL0     H10140  11.624   6.320   7.858  3.6007 -1.3691  0.4853
   77MOL0     H10141  11.663   6.470   7.785 -0.9985  0.3569  1.9665
   77MOL0     H10142  11.783   6.203   7.728  3.3541  0.2175  4.6930
   77MOL0     H10143  11.761   6.324   7.596 -0.5615 -0.6766  0.9089
   77MOL0     H10144  11.907   6.479   7.705  1.5023  0.2032  1.4065
   77MOL0     H10145  11.983   6.319   7.696 -0.8425 -1.7626  0.2261
   77MOL0     H10146  11.096   6.708   7.092  0.3227 -0.6687 -1.1721
   77MOL0     H10147  10.978   6.625   6.922  0.8898 -0.0183 -0.1720
   77MOL0     H10148  10.698   6.382   6.692 -0.5876 -0.9317  0.9444
   77MOL0     H10149  10.589   6.306   6.497  0.5631  3.0004 -1.2671
   77MOL0     H10150   9.323   5.151   5.795 -2.9383  1.5286 -2.0214
   77MOL0     H10151   9.091   5.085   5.819 -0.8319  0.2218  0.2765
   77MOL0     H10152   8.759   4.783   6.242  0.1750  1.8709  0.1310
   77MOL0     H10153   8.531   4.753   6.260 -0.4851 -0.2526 -0.0456
   77MOL0     H10154   8.348   4.675   6.143  1.7715  0.0593 -0.0864
   77MOL0     H10155   8.186   4.763   6.094  0.7306  3.4546  0.0107
   77MOL0     H10156   8.340   4.774   6.350 -0.4114  1.4915  2.3218
   77MOL0     H10157   8.223   4.887   6.307  4.1024  1.0595 -1.7738
   77MOL0     H10158   8.068   4.665   6.285 -0.9959 -0.0673  0.8753
   77MOL0     H10159   8.096   4.735   6.440 -1.0968  2.9890 -3.5540
   77MOL0     H10160   8.234   4.481   6.328  0.9387 -1.0430  0.7589
   77MOL0     H10161   8.307   4.570   6.460  0.6476  0.8523 -0.3299
   77MOL0     H10162   7.991   4.354   6.628  1.3708 -3.4781 -1.4738
   77MOL0     H10163   8.477   5.049   5.947 -0.9939 -2.2547 -0.9402
   77MOL0     H10164   8.720   5.084   5.933 -0.6347 -0.2511  0.7455
   78MOL0     O10165   2.206   5.838  10.890 -0.4368 -1.1092  0.1216
   78MOL0     C10166   2.263   5.930  10.819 -0.4159  1.3666  0.2345
   78MOL0     O10167   2.208   6.040  10.775  0.1984 -0.3187 -0.2505
   78MOL0     C10168   2.070   6.044  10.763 -0.3089  0.4728  0.3887
   78MOL0     C10169   2.023   6.173  10.773  0.5349 -0.5708 -0.4260
   78MOL0     C10170   1.883   6.205  10.757  0.1291  0.6615  0.0144
   78MOL0     C10171   1.800   6.098  10.726 -0.1053  0.3259 -1.2459
   78MOL0     O10172   1.663   6.117  10.716 -0.0463 -0.6752  0.1358
   78MOL0     C10173   1.604   6.205  10.818  0.6444 -0.6992 -0.1586
   78MOL0     C10174   1.453   6.196  10.803  1.0295 -0.2863  1.1762
   78MOL0     C10175   1.386   6.254  10.683 -0.7337 -0.2560 -0.6710
   78MOL0     C10176   1.269   6.341  10.719  0.7190 -1.1453 -1.5791
   78MOL0     C10177   1.154   6.253  10.766  0.4693 -0.6078 -0.6530
   78MOL0     C10178   1.052   6.328  10.848 -0.0964 -0.4108  0.6387
   78MOL0     C10179   0.983   6.441  10.773  0.4614 -0.1741 -0.5118
   78MOL0     C10180   0.854   6.492  10.842  0.4592  0.2993  0.2720
   78MOL0     N10181   0.826   6.631  10.811  0.0947  0.0421 -0.1402
   78MOL0     C10182   0.827   6.683  10.686 -0.0117 -0.0376 -0.1915
   78MOL0     C10183   0.839   6.819  10.710 -0.3688 -0.1532 -0.0321
   78MOL0     C10184   0.859   6.923  10.598  0.4783  1.7853 -0.3472
   78MOL0     C10185   0.936   7.037  10.651 -0.8235 -0.0446  0.3774
   78MOL0     C10186   1.039   7.113  10.567  0.0930 -0.3957 -0.4014
   78MOL0     C10187   0.975   7.191  10.454  0.7261  0.1040  0.3110
   78MOL0     O10188   0.868   7.268  10.511 -0.5199 -0.2652 -0.4483
   78MOL0     C10189   0.892   7.390  10.567 -0.7034 -0.0789 -0.7847
   78MOL0     C10190   0.778   7.460  10.603 -0.1622 -0.5322 -0.4052
   78MOL0     C10191   0.779   7.579  10.670  0.0353  0.2819  0.0022
   78MOL0     C10192   0.900   7.627  10.728  0.4421 -0.3947 -0.2380
   78MOL0     C10193   0.891   7.750  10.810 -0.3529 -0.8329  0.3882
   78MOL0     O10194   0.773   7.788  10.866 -0.5258 -0.0107 -0.2201
   78MOL0     C10195   0.778   7.900  10.943 -0.8205  0.6140 -0.6791
   78MOL0     C10196   0.783   8.032  10.897  1.2430  0.0290  0.3314
   78MOL0     C10197   0.792   8.138  10.986 -0.5391 -0.0465  0.7119
   78MOL0     C10198   0.807   8.110  11.121 -0.1375 -0.0092 -0.2287
   78MOL0     O10199   0.821   8.208  11.223 -0.6622  0.1254 -0.3867
   78MOL0     C10200   0.824   8.348  11.180 -0.0727  0.3978 -0.3655
   78MOL0     C10201   0.881   8.436  11.287 -0.3017 -0.2223 -0.4993
   78MOL0     C10202   1.014   8.384  11.343 -0.3666  0.1428 -0.4253
   78MOL0     C10203   1.068   8.480  11.446  1.2547 -0.4541  0.8441
   78MOL0     C10204   1.122   8.615  11.388 -0.0513  0.5115  0.0772
   78MOL0     C10205   1.264   8.604  11.333  0.8910  0.0834  0.1931
   78MOL0     C10206   1.319   8.729  11.275 -0.0162  0.5145 -0.4996
   78MOL0     C10207   1.311   8.731  11.119  0.1789  0.0639  0.0813
   78MOL0    Cl10208   1.364   8.895  11.063 -0.4097 -0.0074 -0.0910
   78MOL0     C10209   0.802   7.975  11.164 -0.5727  0.4391  0.4306
   78MOL0     C10210   0.777   7.872  11.077 -0.5385 -0.6955 -0.2631
   78MOL0     O10211   0.996   7.807  10.832 -0.4380  0.1891 -0.1349
   78MOL0     C10212   1.022   7.561  10.694  0.6087 -0.9165  0.1897
   78MOL0     C10213   1.018   7.448  10.619  0.4472  0.1386 -0.1729
   78MOL0     N10214   0.818   6.841  10.844 -0.4007  0.0858 -1.3977
   78MOL0     N10215   0.808   6.728  10.908 -0.1033  0.9080  0.2713
   78MOL0     C10216   1.845   5.964  10.726 -0.1739  1.2234  0.2582
   78MOL0     C10217   1.985   5.934  10.742  0.4049 -0.2820  0.2891
   78MOL0     C10218   2.392   5.893  10.773 -0.1108  0.1669  0.3411
   78MOL0     C10219   2.444   5.932  10.645 -0.2815  0.1917 -0.8993
   78MOL0     C10220   2.567   5.889  10.606 -1.2347 -0.4003 -0.0784
   78MOL0     C10221   2.662   5.831  10.689 -0.4740  0.8562  0.0392
   78MOL0     O10222   2.789   5.802  10.657 -0.5293  0.8253 -0.3156
   78MOL0     C10223   2.869   5.904  10.595  0.7143 -0.6363 -0.2959
   78MOL0     C10224   3.008   5.856  10.540  0.4256  0.8562  0.2571
   78MOL0     C10225   2.997   5.762  10.419  0.0593 -0.2029 -0.4551
   78MOL0     C10226   3.134   5.721  10.385  0.1663  1.0611  0.0089
   78MOL0     C10227   3.150   5.642  10.270  0.2253  0.8966  0.6880
   78MOL0     C10228   3.180   5.581  10.174 -0.3049  0.4256  0.3131
   78MOL0     C10229   2.614   5.781  10.811  0.6606 -0.1259  0.3362
   78MOL0     C10230   2.481   5.808  10.848  0.0210 -0.4416 -0.0461
   78MOL0     H10231   2.102   6.241  10.801  1.4314 -1.8630  0.2905
   78MOL0     H10232   1.852   6.305  10.788  0.1528  0.1769  1.6886
   78MOL0     H10233   1.629   6.309  10.796  1.8513 -1.4936 -3.0744
   78MOL0     H10234   1.636   6.181  10.919 -1.2244 -1.8459  0.2214
   78MOL0     H10235   1.430   6.252  10.895  2.7251 -0.5128  1.7654
   78MOL0     H10236   1.417   6.096  10.830  2.0142 -0.5843  1.4018
   78MOL0     H10237   1.351   6.167  10.627 -0.6126 -0.6571 -0.1350
   78MOL0     H10238   1.450   6.314  10.618  1.9854  0.6948  2.5985
   78MOL0     H10239   1.291   6.399  10.809 -4.0347 -2.6013  0.8429
   78MOL0     H10240   1.246   6.408  10.635 -1.0337 -0.2383 -0.4325
   78MOL0     H10241   1.189   6.179  10.838  2.3949  1.2821  0.4910
   78MOL0     H10242   1.105   6.209  10.678  0.0609 -0.3525 -0.5570
   78MOL0     H10243   1.098   6.352  10.945  2.7172 -2.7464  0.0205
   78MOL0     H10244   0.978   6.254  10.879 -2.7128  2.1668  1.0880
   78MOL0     H10245   1.052   6.525  10.760  1.2486 -0.3653  1.9298
   78MOL0     H10246   0.954   6.405  10.675 -1.1492  3.4508 -1.5451
   78MOL0     H10247   0.846   6.470  10.949 -0.0768 -1.7197 -0.1333
   78MOL0     H10248   0.771   6.433  10.801  0.8180 -0.1247  0.1545
   78MOL0     H10249   0.836   6.628  10.593  0.1920 -0.3073 -0.0119
   78MOL0     H10250   0.771   6.954  10.541  1.1934  0.4958 -2.2446
   78MOL0     H10251   0.928   6.867  10.533  0.1446 -1.5846  1.9426
   78MOL0     H10252   0.998   7.001  10.734 -1.3240 -0.6479  0.5054
   78MOL0     H10253   0.869   7.106  10.703 -1.2603 -0.6504  0.6375
   78MOL0     H10254   1.115   7.165  10.626  1.9215 -3.0428 -0.2182
   78MOL0     H10255   1.102   7.038  10.518  1.3600  1.7733 -2.2380
   78MOL0     H10256   0.940   7.124  10.375 -2.0921  1.2182  0.4853
   78MOL0     H10257   1.046   7.252  10.399  1.4847 -1.3028 -0.3406
   78MOL0     H10258   0.678   7.426  10.577 -0.5242 -0.3904  0.7574
   78MOL0     H10259   0.686   7.636  10.669  0.5245  1.2137 -2.7500
   78MOL0     H10260   0.779   8.060  10.792 -0.5981  2.0241  0.8666
   78MOL0     H10261   0.780   8.233  10.936 -2.3302 -0.4105  0.3765
   78MOL0     H10262   0.721   8.378  11.157 -0.8848 -1.3096  0.7876
   78MOL0     H10263   0.891   8.360  11.094  0.9565 -0.9635  0.2217
   78MOL0     H10264   0.806   8.441  11.367  3.0503 -0.5214  2.9866
   78MOL0     H10265   0.900   8.535  11.245 -0.0727 -0.6905 -1.5199
   78MOL0     H10266   1.090   8.371  11.266 -0.9560 -0.1156 -0.9716
   78MOL0     H10267   0.993   8.286  11.386 -1.9729  1.2635  1.5657
   78MOL0     H10268   0.987   8.503  11.516 -0.4579 -0.6152 -0.9831
   78MOL0     H10269   1.146   8.423  11.497  0.7574 -2.5175 -0.5592
   78MOL0     H10270   1.121   8.685  11.472 -1.5230 -3.3483  3.6648
   78MOL0     H10271   1.052   8.666  11.321  0.4100  0.6804 -0.2797
   78MOL0     H10272   1.255   8.528  11.255  0.5005 -1.0252  1.2830
   78MOL0     H10273   1.331   8.575  11.415  0.5891 -0.4451  0.2613
   78MOL0     H10274   1.262   8.805  11.329 -0.9811 -0.7063  0.2547
   78MOL0     H10275   1.424   8.751  11.295  0.7045  1.4686 -4.4301
   78MOL0     H10276   1.218   8.706  11.066  0.3259 -0.7038  0.1742
   78MOL0     H10277   1.391   8.660  11.097  0.1946 -0.6076  2.1057
   78MOL0     H10278   0.811   7.947  11.268  4.0791 -1.3311 -0.2328
   78MOL0     H10279   0.750   7.774  11.116 -0.9997 -0.1438  0.8490
   78MOL0     H10280   1.109   7.596  10.749  0.0289 -0.6635  0.9574
   78MOL0     H10281   1.107   7.389  10.601 -0.0295 -0.4422 -0.6743
   78MOL0     H10282   1.755   5.904  10.712  0.2188  0.2813  1.5989
   78MOL0     H10283   2.031   5.835  10.740 -2.4593 -1.7430  1.1733
   78MOL0     H10284   2.389   5.988  10.570  3.3748  3.3691 -1.4734
   78MOL0     H10285   2.595   5.923  10.506 -1.7170 -3.1639 -1.2596
   78MOL0     H10286   2.886   5.985  10.667 -0.3617  0.2605 -1.0236
   78MOL0     H10287   2.822   5.947  10.506  1.7587  2.4263  0.5003
   78MOL0     H10288   3.046   5.951  10.503 -1.0020  0.9915 -0.9660
   78MOL0     H10289   3.072   5.816  10.620 -1.6424 -2.9378  0.2607
   78MOL0     H10290   2.948   5.809  10.333  1.5300  0.0577 -1.1786
   78MOL0     H10291   2.935   5.681  10.460 -1.3914  0.8768 -0.4457
   78MOL0     H10292   3.197   5.809  10.373 -0.3526  1.3910 -0.3544
   78MOL0     H10293   3.182   5.671  10.470 -2.0202  1.8572  1.8514
   78MOL0     H10294   3.223   5.517  10.100  1.5498  1.4454  0.4591
   78MOL0     H10295   2.672   5.716  10.876 -0.6535 -2.6218 -0.8409
   78MOL0     H10296   2.446   5.788  10.948 -0.5901 -0.3153 -0.2264
   79MOL0     O10297   1.187   8.444   2.317  0.3570 -0.3706 -0.1771
   79MOL0     C10298   1.205   8.417   2.204  0.8418 -0.7132  0.5387
   79MOL0     O10299   1.327   8.411   2.147  1.0820  0.6159  0.7883
   79MOL0     C10300   1.436   8.446   2.221 -0.2382  0.6535 -0.0681
   79MOL0     C10301   1.547   8.357   2.225  0.3112 -0.1256  0.2909
   79MOL0     C10302   1.667   8.395   2.288  0.9448  0.0268 -0.2410
   79MOL0     C10303   1.683   8.518   2.344  0.5603  0.2341 -0.1951
   79MOL0     O10304   1.810   8.557   2.380  0.2876  0.6816  0.1585
   79MOL0     C10305   1.822   8.660   2.476  0.0735  0.3280  0.2338
   79MOL0     C10306   1.963   8.666   2.543  0.2853 -0.1462  0.1357
   79MOL0     C10307   1.993   8.531   2.615  0.0082  0.5302 -0.4704
   79MOL0     C10308   2.118   8.539   2.708 -0.2824 -0.2585 -1.0181
   79MOL0     C10309   2.133   8.426   2.800 -0.6687 -0.6486  0.5923
   79MOL0     C10310   2.164   8.463   2.946  0.3228 -1.2910  0.5759
   79MOL0     C10311   2.297   8.539   2.955 -0.1769 -0.4392 -0.3056
   79MOL0     C10312   2.320   8.608   3.091 -0.3316 -0.5274  0.7101
   79MOL0     N10313   2.292   8.753   3.091  0.0630  0.4811  0.6548
   79MOL0     C10314   2.165   8.794   3.060  1.2131  0.6643  0.6998
   79MOL0     C10315   2.175   8.926   3.059  0.4747 -0.6079 -0.2509
   79MOL0     C10316   2.065   9.023   3.012  0.3801  0.6967 -0.2960
   79MOL0     C10317   2.026   9.008   2.859 -0.0012 -1.1572  0.1398
   79MOL0     C10318   1.973   9.130   2.793  0.4309 -0.6372  0.4451
   79MOL0     C10319   1.846   9.187   2.866 -0.9532  0.6444 -0.2273
   79MOL0     O10320   1.766   9.272   2.782  0.0820  0.5104  1.2972
   79MOL0     C10321   1.668   9.348   2.852 -0.5137 -0.6741 -0.0700
   79MOL0     C10322   1.617   9.455   2.785  0.7034  0.1701  0.3552
   79MOL0     C10323   1.506   9.523   2.843 -0.5796  0.0999  0.0807
   79MOL0     C10324   1.452   9.496   2.968  0.0140 -0.1414 -0.2993
   79MOL0     C10325   1.339   9.565   3.033  1.3605 -0.9723 -0.3640
   79MOL0     O10326   1.277   9.526   3.154 -0.0933 -0.0196  0.1699
   79MOL0     C10327   1.167   9.578   3.206  0.9158  0.5160  0.2072
   79MOL0     C10328   1.124   9.529   3.332  0.1076  0.2159  0.3659
   79MOL0     C10329   1.006   9.573   3.389 -0.7565 -0.1248 -0.3700
   79MOL0     C10330   0.926   9.658   3.323  1.0664  0.3304  0.5490
   79MOL0     O10331   0.813   9.682   3.394  0.6028 -0.1286  0.2436
   79MOL0     C10332   0.738   9.800   3.367  0.3838  0.0659 -0.0903
   79MOL0     C10333   0.642   9.829   3.482  0.3836  0.6559 -0.0482
   79MOL0     C10334   0.571   9.713   3.562 -1.1793  0.5272 -0.1439
   79MOL0     C10335   0.466   9.753   3.662 -0.5295 -0.2353 -0.0545
   79MOL0     C10336   0.501   9.871   3.756 -0.6412  0.8097 -0.4253
   79MOL0     C10337   0.403   9.869   3.869  0.2088  0.3225  0.0730
   79MOL0     C10338   0.427   9.969   3.978 -0.8202  0.0309  0.5196
   79MOL0     C10339   0.309  10.010   4.064  0.8248 -0.5881  0.0494
   79MOL0    Cl10340   0.362  10.166   4.135  0.1591  0.0572 -0.0911
   79MOL0     C10341   0.950   9.712   3.200  0.7483  0.1213 -0.3170
   79MOL0     C10342   1.076   9.674   3.142 -1.0404  0.7521 -0.7979
   79MOL0     O10343   1.304   9.672   2.976 -0.2870 -0.5673 -0.5540
   79MOL0     C10344   1.511   9.390   3.040  0.1692 -0.3471  0.1541
   79MOL0     C10345   1.623   9.319   2.983 -0.9729  0.3417  0.4764
   79MOL0     N10346   2.310   8.958   3.092 -0.3646 -0.2236 -0.6069
   79MOL0     N10347   2.380   8.853   3.114 -0.7921 -0.6962  0.1284
   79MOL0     C10348   1.580   8.606   2.324 -0.2662 -0.1546  0.2509
   79MOL0     C10349   1.455   8.569   2.281  0.8936 -0.9601  0.1517
   79MOL0     C10350   1.077   8.381   2.124  0.3755 -0.0161  0.0354
   79MOL0     C10351   0.965   8.311   2.190 -0.4995  0.6595  0.1990
   79MOL0     C10352   0.857   8.263   2.106 -0.4380  0.5326  0.1865
   79MOL0     C10353   0.863   8.285   1.971 -0.4298 -0.0894 -0.0707
   79MOL0     O10354   0.763   8.247   1.883 -0.3943  0.2698  0.0530
   79MOL0     C10355   0.657   8.160   1.934 -0.3039  0.8129  0.5442
   79MOL0     C10356   0.583   8.089   1.822  0.2984  0.5549  0.3670
   79MOL0     C10357   0.669   7.979   1.758 -0.1736  0.2535  0.2316
   79MOL0     C10358   0.656   7.846   1.828 -0.2379  0.4727  0.6686
   79MOL0     C10359   0.759   7.838   1.934  0.0988  0.0967 -0.4594
   79MOL0     C10360   0.846   7.850   2.023  1.5307 -0.6930 -0.1504
   79MOL0     C10361   0.970   8.351   1.909 -0.3159  0.0175  0.1917
   79MOL0     C10362   1.067   8.402   1.988  0.2011  0.5408 -0.3458
   79MOL0     H10363   1.534   8.261   2.177  1.2239 -0.8589  1.4582
   79MOL0     H10364   1.745   8.320   2.297  1.5431  0.7526  0.8627
   79MOL0     H10365   1.749   8.633   2.552  2.2986  0.0393  2.4141
   79MOL0     H10366   1.807   8.763   2.440  1.4265  0.8859  1.1836
   79MOL0     H10367   1.969   8.742   2.621 -1.0535  0.4426 -0.3105
   79MOL0     H10368   2.033   8.684   2.461 -0.8271  0.9216 -0.6179
   79MOL0     H10369   2.008   8.450   2.542 -0.7496  0.2035 -0.2693
   79MOL0     H10370   1.907   8.501   2.676  2.5624 -0.4927  2.9272
   79MOL0     H10371   2.208   8.553   2.647  0.6481  2.0928  0.6970
   79MOL0     H10372   2.114   8.630   2.769 -0.9748 -1.4635  0.8097
   79MOL0     H10373   2.220   8.371   2.762 -0.7254 -1.4520  1.5888
   79MOL0     H10374   2.050   8.355   2.789  0.5780 -2.2046  0.8392
   79MOL0     H10375   2.176   8.369   3.001  4.4892 -0.4253  1.5139
   79MOL0     H10376   2.077   8.519   2.981  0.1241 -1.2220 -0.0245
   79MOL0     H10377   2.381   8.475   2.927 -1.6945 -2.2318 -0.9857
   79MOL0     H10378   2.294   8.625   2.887  0.1397  0.7170  1.1131
   79MOL0     H10379   2.425   8.601   3.122  0.0020 -0.5751 -0.3843
   79MOL0     H10380   2.248   8.559   3.157 -2.0284  0.0873 -0.5967
   79MOL0     H10381   2.079   8.735   3.032  0.3544  0.7823  2.8623
   79MOL0     H10382   2.111   9.121   3.026  1.0420  0.1412  1.8631
   79MOL0     H10383   1.973   9.014   3.070 -0.3451  0.6344 -1.4368
   79MOL0     H10384   1.966   8.919   2.841  1.8343 -2.1364 -1.5056
   79MOL0     H10385   2.119   8.984   2.807  0.2754  2.1632 -1.1829
   79MOL0     H10386   2.051   9.206   2.784  1.7540 -2.1840 -2.5084
   79MOL0     H10387   1.949   9.107   2.689 -3.7066  0.2092  1.0323
   79MOL0     H10388   1.873   9.249   2.952 -2.0220 -1.3034  1.6095
   79MOL0     H10389   1.791   9.097   2.894  3.2505 -2.9031 -2.2064
   79MOL0     H10390   1.657   9.475   2.686 -1.3621 -3.4404 -1.4093
   79MOL0     H10391   1.465   9.617   2.810  2.2680  1.4196 -0.0146
   79MOL0     H10392   1.189   9.456   3.379  0.2431  0.5486  0.6906
   79MOL0     H10393   0.977   9.540   3.488  1.1532  0.0006  0.2645
   79MOL0     H10394   0.679   9.793   3.275 -0.5206  0.0786  0.4755
   79MOL0     H10395   0.797   9.890   3.350 -1.8900  2.0971  1.9564
   79MOL0     H10396   0.564   9.897   3.448 -1.2498 -2.2896 -2.7016
   79MOL0     H10397   0.700   9.887   3.555 -0.0393  0.3494  0.5363
   79MOL0     H10398   0.646   9.654   3.617  1.5049  2.3760 -1.5732
   79MOL0     H10399   0.535   9.642   3.486  0.9411 -2.6640  1.5924
   79MOL0     H10400   0.374   9.775   3.606 -1.9708 -3.0976  0.9659
   79MOL0     H10401   0.446   9.667   3.728 -0.3115  0.4038  0.8566
   79MOL0     H10402   0.485   9.966   3.705 -0.5244  0.5845 -0.8878
   79MOL0     H10403   0.606   9.863   3.786 -0.6796 -0.4681 -0.5739
   79MOL0     H10404   0.402   9.771   3.919 -1.9862 -0.5819 -1.5973
   79MOL0     H10405   0.302   9.875   3.829  0.5271  3.6928 -0.5490
   79MOL0     H10406   0.501   9.934   4.050 -1.7447  1.0408  2.0033
   79MOL0     H10407   0.474  10.055   3.929  1.3392 -0.6461  1.2812
   79MOL0     H10408   0.283   9.933   4.137  0.2529  1.4270  2.1223
   79MOL0     H10409   0.221  10.026   4.001  0.6758  0.2352  0.4476
   79MOL0     H10410   0.881   9.771   3.140  0.9114 -1.2456 -1.9094
   79MOL0     H10411   1.106   9.719   3.048  2.4124  0.2609 -0.0448
   79MOL0     H10412   1.483   9.363   3.141  2.5662  1.0151  1.2823
   79MOL0     H10413   1.659   9.241   3.049 -0.3318  0.3009  0.0914
   79MOL0     H10414   1.591   8.707   2.361  2.3311  0.4140 -1.7855
   79MOL0     H10415   1.392   8.656   2.271 -1.2691 -2.6969 -3.6453
   79MOL0     H10416   0.955   8.293   2.297 -2.4791 -0.3321 -0.1219
   79MOL0     H10417   0.764   8.224   2.146 -0.1716 -0.5155 -0.1772
   79MOL0     H10418   0.580   8.209   1.995 -1.0864  0.9313 -0.5200
   79MOL0     H10419   0.698   8.080   1.996  0.0290 -0.5706 -1.3711
   79MOL0     H10420   0.490   8.046   1.861  0.1075  0.2555 -0.4120
   79MOL0     H10421   0.541   8.164   1.755 -0.1991  1.5635  1.7542
   79MOL0     H10422   0.774   8.003   1.740  0.0638 -1.5782 -1.1443
   79MOL0     H10423   0.640   7.952   1.656 -0.9168  0.8152  0.2851
   79MOL0     H10424   0.555   7.827   1.865 -1.0191 -2.9952 -2.5559
   79MOL0     H10425   0.680   7.759   1.765 -0.2363 -0.3501  1.7743
   79MOL0     H10426   0.919   7.873   2.098  2.7082 -0.5891 -1.2962
   79MOL0     H10427   0.972   8.384   1.806  1.2570 -3.8283 -1.1584
   79MOL0     H10428   1.153   8.443   1.936  1.3821 -1.6956 -0.3154
   80MOL0     O10429   8.183   1.376   1.471  0.3935 -0.3227 -0.1720
   80MOL0     C10430   8.239   1.327   1.367  0.4732  0.1899 -1.0380
   80MOL0     O10431   8.185   1.233   1.286  0.1123 -0.3159 -0.3793
   80MOL0     C10432   8.052   1.199   1.292  0.1426  0.0546 -0.3808
   80MOL0     C10433   7.960   1.226   1.192  0.6069 -0.3822  0.7899
   80MOL0     C10434   7.825   1.185   1.197 -0.8952 -0.3181 -0.9553
   80MOL0     C10435   7.776   1.118   1.315  0.0930 -1.0430  0.2336
   80MOL0     O10436   7.643   1.093   1.352 -0.0519 -0.6304  0.5659
   80MOL0     C10437   7.551   1.119   1.247 -0.0250  0.1452 -0.0080
   80MOL0     C10438   7.410   1.080   1.285  1.0101  0.2216  0.0100
   80MOL0     C10439   7.392   0.945   1.365  0.2899 -0.8197  0.1190
   80MOL0     C10440   7.249   0.920   1.413  0.4627  0.3128 -0.5546
   80MOL0     C10441   7.231   0.771   1.456  0.4684 -0.8113  0.7091
   80MOL0     C10442   7.207   0.684   1.325 -0.2457 -0.7369 -0.4176
   80MOL0     C10443   7.151   0.536   1.349 -0.3221 -0.4147 -0.0943
   80MOL0     C10444   7.065   0.500   1.229 -0.2153 -0.4076  0.0335
   80MOL0     N10445   6.995   0.375   1.251 -0.3788  0.5905  0.2336
   80MOL0     C10446   7.007   0.252   1.181 -0.6159 -1.0152 -0.0651
   80MOL0     C10447   6.896   0.178   1.213 -0.7513 -0.1264  0.3922
   80MOL0     C10448   6.852   0.036   1.160  0.1748 -0.9740  0.5119
   80MOL0     C10449   6.863  -0.058   1.285  1.7089 -0.6074 -0.2375
   80MOL0     C10450   6.819  -0.202   1.255 -0.4519  0.2614  0.3073
   80MOL0     C10451   6.701  -0.204   1.163  1.4523  0.6713 -0.0104
   80MOL0     O10452   6.655  -0.349   1.176  0.1054 -0.2185 -0.7570
   80MOL0     C10453   6.525  -0.379   1.154  0.2298 -1.0282 -0.7188
   80MOL0     C10454   6.479  -0.494   1.217  0.2502 -0.3042  0.1772
   80MOL0     C10455   6.338  -0.518   1.211 -0.0978  0.3220  0.2256
   80MOL0     C10456   6.253  -0.443   1.132 -0.3572 -0.6235 -0.0275
   80MOL0     C10457   6.113  -0.487   1.116  0.4733  0.2614 -0.2517
   80MOL0     O10458   6.052  -0.441   0.998 -0.3394  0.1037 -0.1322
   80MOL0     C10459   5.949  -0.508   0.933  0.6531 -0.4655 -0.8105
   80MOL0     C10460   5.828  -0.537   0.990  0.5767  0.0319 -0.0758
   80MOL0     C10461   5.726  -0.599   0.919  0.1729 -0.5958 -0.5135
   80MOL0     C10462   5.750  -0.633   0.781 -0.2677  0.8945 -0.3575
   80MOL0     O10463   5.663  -0.688   0.690 -0.2995  0.5464  0.1229
   80MOL0     C10464   5.531  -0.627   0.679 -0.9766  0.7038  0.3046
   80MOL0     C10465   5.432  -0.716   0.741  0.1523 -0.0143  0.2093
   80MOL0     C10466   5.297  -0.643   0.747 -0.4943  0.0358 -0.4959
   80MOL0     C10467   5.185  -0.728   0.800  0.3296 -0.1069 -0.3868
   80MOL0     C10468   5.062  -0.645   0.833  0.4032  0.5519 -0.7632
   80MOL0     C10469   4.953  -0.745   0.878  0.2793  0.2495 -0.6932
   80MOL0     C10470   4.873  -0.804   0.764 -0.6451  0.3013  0.0758
   80MOL0     C10471   4.736  -0.856   0.831 -0.4227 -0.2072  0.0191
   80MOL0    Cl10472   4.622  -0.873   0.696 -0.1926 -0.0322 -0.0593
   80MOL0     C10473   5.873  -0.612   0.720 -1.2226 -0.8223  0.2729
   80MOL0     C10474   5.967  -0.541   0.794  0.4636  0.0248 -0.1392
   80MOL0     O10475   6.070  -0.572   1.190 -0.1911  0.2661  0.1805
   80MOL0     C10476   6.306  -0.328   1.065  0.0801  0.1503 -0.1538
   80MOL0     C10477   6.444  -0.297   1.074 -0.0194 -0.4001 -0.9071
   80MOL0     N10478   6.813   0.256   1.295  1.1093 -0.5559 -0.7411
   80MOL0     N10479   6.875   0.369   1.318 -0.2252  0.5104 -0.4093
   80MOL0     C10480   7.863   1.107   1.425 -1.1233 -0.4688 -0.8554
   80MOL0     C10481   8.002   1.148   1.412 -0.1047 -0.2006 -0.3107
   80MOL0     C10482   8.373   1.367   1.329  0.5293 -0.1307  0.2844
   80MOL0     C10483   8.421   1.494   1.372 -0.3286 -0.3445  0.4176
   80MOL0     C10484   8.557   1.533   1.341  0.1717 -0.8744  0.1675
   80MOL0     C10485   8.634   1.455   1.256  0.4801  0.3714 -0.1539
   80MOL0     O10486   8.759   1.483   1.214 -0.5786 -0.6761 -0.1136
   80MOL0     C10487   8.837   1.583   1.288  0.5614  0.8943  0.2133
   80MOL0     C10488   8.989   1.583   1.254  0.1974 -0.1870 -0.8579
   80MOL0     C10489   9.066   1.713   1.301  0.0286 -0.0731 -0.0768
   80MOL0     C10490   9.214   1.724   1.250  0.6699 -0.0322 -0.2929
   80MOL0     C10491   9.286   1.652   1.349 -0.0274 -0.0636 -0.1548
   80MOL0     C10492   9.349   1.598   1.439 -0.1710  0.6765 -0.2081
   80MOL0     C10493   8.578   1.336   1.209 -0.2022  0.0440  0.4514
   80MOL0     C10494   8.456   1.290   1.249  0.8717 -0.4549  1.3852
   80MOL0     H10495   7.985   1.268   1.096 -1.1294  1.7813  1.2075
   80MOL0     H10496   7.763   1.214   1.113 -0.0096  3.5399 -0.4641
   80MOL0     H10497   7.578   1.066   1.155  0.0959 -1.2299  0.7952
   80MOL0     H10498   7.556   1.224   1.216 -0.7199 -0.2484 -1.5515
   80MOL0     H10499   7.344   1.073   1.199  0.8965 -3.6664  0.2169
   80MOL0     H10500   7.362   1.172   1.320 -0.7183 -0.3028 -0.8882
   80MOL0     H10501   7.459   0.931   1.451 -1.0264  1.0188  1.5508
   80MOL0     H10502   7.415   0.870   1.289 -1.3822 -0.6752 -0.5505
   80MOL0     H10503   7.215   0.993   1.487  1.2984  2.3274 -2.0343
   80MOL0     H10504   7.185   0.945   1.328  0.1472  4.1904  0.6139
   80MOL0     H10505   7.142   0.775   1.520 -0.1328  2.1960 -0.1643
   80MOL0     H10506   7.320   0.736   1.510  0.8498 -0.7077  0.1581
   80MOL0     H10507   7.300   0.668   1.271 -0.3352 -0.8919 -0.5246
   80MOL0     H10508   7.132   0.741   1.269 -0.2384 -0.1779  0.1255
   80MOL0     H10509   7.233   0.467   1.366  0.8557  1.2105  1.1535
   80MOL0     H10510   7.090   0.542   1.440  1.0596 -1.7159  0.9566
   80MOL0     H10511   7.114   0.482   1.133  0.7550  1.6955  0.0871
   80MOL0     H10512   6.990   0.577   1.213 -0.5078 -0.5942  0.4880
   80MOL0     H10513   7.080   0.221   1.107 -1.7274 -2.5788 -0.5486
   80MOL0     H10514   6.927   0.009   1.086  2.0642  1.0699  1.5404
   80MOL0     H10515   6.754   0.051   1.114  1.9867 -1.0718 -3.8286
   80MOL0     H10516   6.793  -0.034   1.365  0.6472  0.8432 -1.5261
   80MOL0     H10517   6.965  -0.048   1.324  1.2566  1.4873  0.5352
   80MOL0     H10518   6.903  -0.258   1.214 -0.6631 -1.5544  2.1792
   80MOL0     H10519   6.802  -0.255   1.349 -3.3662  0.7338  0.1542
   80MOL0     H10520   6.730  -0.183   1.059 -0.5879  4.3477  0.0035
   80MOL0     H10521   6.624  -0.130   1.188  1.2001  0.0023  1.2623
   80MOL0     H10522   6.555  -0.542   1.277  0.9804  0.9548  0.2995
   80MOL0     H10523   6.296  -0.605   1.260 -0.3083  0.0188 -0.4680
   80MOL0     H10524   5.816  -0.509   1.094 -0.4047 -0.7599  0.0372
   80MOL0     H10525   5.630  -0.613   0.968 -0.4140 -0.7670 -1.6823
   80MOL0     H10526   5.511  -0.598   0.576 -4.7613  1.6578  1.1618
   80MOL0     H10527   5.528  -0.533   0.736  0.4621  0.9791 -0.0311
   80MOL0     H10528   5.470  -0.757   0.835  2.1988 -0.6202 -0.8354
   80MOL0     H10529   5.411  -0.801   0.674 -1.6505  1.7598 -1.6145
   80MOL0     H10530   5.277  -0.621   0.642  1.4272  1.1326 -0.6817
   80MOL0     H10531   5.302  -0.554   0.809 -2.8943  0.5504 -0.9337
   80MOL0     H10532   5.165  -0.805   0.725 -1.8049 -0.4063  0.4088
   80MOL0     H10533   5.219  -0.780   0.890  1.2535 -1.3938 -1.4438
   80MOL0     H10534   5.023  -0.576   0.757  0.6230 -0.8713 -2.2102
   80MOL0     H10535   5.097  -0.572   0.907 -0.9775  0.7215 -0.2424
   80MOL0     H10536   4.886  -0.695   0.948  2.1550  2.1886 -0.1880
   80MOL0     H10537   4.995  -0.812   0.953 -0.6416 -0.1245 -0.4919
   80MOL0     H10538   4.861  -0.726   0.688  0.6590  0.6067  0.1682
   80MOL0     H10539   4.929  -0.888   0.722 -1.3740 -1.0257  1.6233
   80MOL0     H10540   4.683  -0.786   0.897 -2.4247 -1.9353  0.3790
   80MOL0     H10541   4.751  -0.948   0.888 -1.5757  0.2493  1.1254
   80MOL0     H10542   5.898  -0.636   0.617  0.3639 -2.7043  1.0264
   80MOL0     H10543   6.056  -0.509   0.742  0.5504 -0.9511 -0.6272
   80MOL0     H10544   6.237  -0.266   1.008 -2.3080 -0.5032  1.8282
   80MOL0     H10545   6.476  -0.211   1.016 -0.6036 -1.9997 -3.8224
   80MOL0     H10546   7.825   1.069   1.519  1.1823 -1.1172 -0.1139
   80MOL0     H10547   8.068   1.117   1.492 -1.8249  0.0022  1.2488
   80MOL0     H10548   8.365   1.552   1.445  0.8500 -0.0932  1.1291
   80MOL0     H10549   8.595   1.631   1.368 -0.4131 -0.7957  0.7406
   80MOL0     H10550   8.816   1.569   1.394  0.7894  2.0880  0.4403
   80MOL0     H10551   8.791   1.679   1.263 -0.6120 -0.4634 -3.5149
   80MOL0     H10552   9.041   1.492   1.284  0.9442  0.5554  0.2073
   80MOL0     H10553   8.987   1.580   1.145 -0.3394  1.4700 -0.9305
   80MOL0     H10554   9.059   1.712   1.410 -0.5454 -3.1777 -0.0447
   80MOL0     H10555   9.015   1.798   1.255  1.7363  0.3965 -1.2390
   80MOL0     H10556   9.223   1.683   1.149 -2.6690 -0.4478 -0.5202
   80MOL0     H10557   9.243   1.830   1.251  2.0980 -0.3670  2.4694
   80MOL0     H10558   9.399   1.540   1.514 -3.9147 -2.9573 -0.1745
   80MOL0     H10559   8.645   1.271   1.153  0.2130  1.9557 -1.3941
   80MOL0     H10560   8.437   1.193   1.204 -0.2437 -0.7201  2.3558
   81MOL0     O10561   1.997   7.454   3.096 -0.6045 -0.8325 -0.1897
   81MOL0     C10562   2.034   7.466   3.209  0.1654 -0.1900  0.2543
   81MOL0     O10563   1.962   7.447   3.317  0.4919 -0.0151 -0.0821
   81MOL0     C10564   1.828   7.412   3.316 -0.8202  0.4669 -0.6443
   81MOL0     C10565   1.740   7.461   3.220 -0.6967 -0.2980  0.3400
   81MOL0     C10566   1.613   7.403   3.214 -0.0733  0.1724 -0.7190
   81MOL0     C10567   1.562   7.323   3.316  0.8821  0.9532  0.0321
   81MOL0     O10568   1.430   7.272   3.311 -0.4157 -0.0273  0.5452
   81MOL0     C10569   1.328   7.329   3.221  1.2905  0.0042 -0.3785
   81MOL0     C10570   1.203   7.286   3.306  0.2611 -1.0840  0.3199
   81MOL0     C10571   1.073   7.302   3.214 -0.0836  0.1479 -0.8423
   81MOL0     C10572   0.969   7.214   3.292 -0.6136 -0.3080  0.3898
   81MOL0     C10573   0.841   7.203   3.212 -0.0310 -0.7206  0.8776
   81MOL0     C10574   0.740   7.115   3.292 -0.1373 -0.2023 -0.3099
   81MOL0     C10575   0.603   7.101   3.226 -0.7590 -0.4568 -0.0678
   81MOL0     C10576   0.505   7.224   3.263 -0.3537  0.6307 -0.6969
   81MOL0     N10577   0.372   7.187   3.240  0.2856  0.9669 -0.4545
   81MOL0     C10578   0.315   7.180   3.116  0.2991  0.2919  0.9452
   81MOL0     C10579   0.191   7.135   3.138  0.2838 -0.6575  0.8865
   81MOL0     C10580   0.085   7.092   3.035 -0.5432 -0.4725  0.0811
   81MOL0     C10581  -0.050   7.163   3.076  0.8129  1.0564  0.8659
   81MOL0     C10582  -0.154   7.174   2.962  0.2128 -0.9161  0.0211
   81MOL0     C10583  -0.214   7.040   2.916 -0.9608  0.4108  0.5131
   81MOL0     O10584  -0.340   7.033   2.852  0.1200 -0.3043  1.3918
   81MOL0     C10585  -0.462   7.052   2.919 -1.0931 -0.7172 -0.0931
   81MOL0     C10586  -0.468   7.107   3.054 -0.5777  0.5775  0.3815
   81MOL0     C10587  -0.593   7.119   3.117  0.3236 -0.4676 -0.7401
   81MOL0     C10588  -0.711   7.088   3.058 -1.0168 -0.3118 -0.2181
   81MOL0     C10589  -0.828   7.099   3.147  0.6202  0.7331 -0.9870
   81MOL0     O10590  -0.949   7.109   3.086 -0.0570  0.2352  0.3136
   81MOL0     C10591  -1.069   7.106   3.158  0.9375 -0.6838  0.4797
   81MOL0     C10592  -1.170   7.035   3.095  0.0392  0.1854 -0.1990
   81MOL0     C10593  -1.289   7.017   3.167  0.4704 -0.2324 -0.3998
   81MOL0     C10594  -1.312   7.070   3.295  0.2253 -0.6053 -0.7459
   81MOL0     O10595  -1.434   7.029   3.351  0.4736 -0.0015 -0.0415
   81MOL0     C10596  -1.448   7.048   3.492 -0.2577 -0.3362  0.1248
   81MOL0     C10597  -1.552   6.951   3.546 -0.2568 -0.6473  0.2756
   81MOL0     C10598  -1.488   6.834   3.617 -0.0845 -0.2700  0.1204
   81MOL0     C10599  -1.397   6.752   3.531 -0.4839 -0.1115 -0.4980
   81MOL0     C10600  -1.394   6.606   3.566  0.1463 -0.9982  0.4573
   81MOL0     C10601  -1.335   6.576   3.702 -0.4918  1.0759 -0.6151
   81MOL0     C10602  -1.182   6.615   3.727  0.0286 -0.7815  0.1098
   81MOL0     C10603  -1.113   6.512   3.811 -0.2080  0.3888 -0.4153
   81MOL0    Cl10604  -0.981   6.582   3.895 -0.1369  0.0501 -0.3097
   81MOL0     C10605  -1.209   7.153   3.347 -0.0588  0.0353  0.2181
   81MOL0     C10606  -1.087   7.170   3.277  1.3569 -1.0131 -0.0549
   81MOL0     O10607  -0.808   7.092   3.274  0.2262  0.7305  0.8304
   81MOL0     C10608  -0.703   7.046   2.929  0.4777 -0.3315  0.2798
   81MOL0     C10609  -0.584   7.033   2.856 -0.6779  0.3853  0.3417
   81MOL0     N10610   0.176   7.103   3.270 -0.6667 -0.5352  0.0655
   81MOL0     N10611   0.285   7.136   3.332 -0.3873 -1.0891 -0.4257
   81MOL0     C10612   1.644   7.286   3.420 -1.0152  0.0832 -0.2408
   81MOL0     C10613   1.779   7.326   3.420 -0.2810  0.5383  0.6408
   81MOL0     C10614   2.174   7.509   3.229  0.2060 -0.0294 -0.3620
   81MOL0     C10615   2.236   7.510   3.354 -0.8927 -0.8567 -0.0633
   81MOL0     C10616   2.368   7.566   3.377  0.5426  0.6972 -0.4788
   81MOL0     C10617   2.419   7.637   3.274 -0.7453 -0.5249 -0.3827
   81MOL0     O10618   2.548   7.702   3.276 -0.0860  0.7643  0.1535
   81MOL0     C10619   2.621   7.693   3.397  0.3919 -0.0256 -0.5811
   81MOL0     C10620   2.759   7.735   3.369  0.2358  0.0972 -0.2645
   81MOL0     C10621   2.779   7.889   3.367 -0.1287  0.6525 -0.1751
   81MOL0     C10622   2.929   7.927   3.372  0.7538  0.0965 -0.0037
   81MOL0     C10623   2.939   8.069   3.391 -0.4147  0.1119 -0.0669
   81MOL0     C10624   2.944   8.191   3.396  0.5836  0.3394  0.1461
   81MOL0     C10625   2.362   7.648   3.153 -0.1427  0.6859 -0.1781
   81MOL0     C10626   2.239   7.579   3.123 -0.0537  0.2391 -0.4064
   81MOL0     H10627   1.773   7.531   3.144  1.3239 -2.0843 -0.5305
   81MOL0     H10628   1.537   7.433   3.143 -2.4842 -0.2336  1.5119
   81MOL0     H10629   1.324   7.285   3.121 -0.3898  0.7545 -0.6721
   81MOL0     H10630   1.311   7.437   3.211  0.8831 -0.0457 -0.2546
   81MOL0     H10631   1.203   7.348   3.396  0.3791 -0.5799 -0.0278
   81MOL0     H10632   1.208   7.183   3.343 -1.1788 -0.5129  2.2725
   81MOL0     H10633   1.079   7.267   3.110  1.2553  0.0875 -0.7556
   81MOL0     H10634   1.043   7.407   3.209  1.5523  0.6834  0.1255
   81MOL0     H10635   1.012   7.117   3.317  0.4549 -0.0075 -0.2242
   81MOL0     H10636   0.940   7.257   3.389 -1.9197 -2.7751  1.1627
   81MOL0     H10637   0.859   7.157   3.115 -0.9415 -1.2704  0.9537
   81MOL0     H10638   0.797   7.302   3.197 -2.2587 -1.8791 -0.7187
   81MOL0     H10639   0.729   7.147   3.396 -1.9425 -2.1097  0.1690
   81MOL0     H10640   0.779   7.013   3.285 -1.4691 -0.6728 -1.4433
   81MOL0     H10641   0.626   7.097   3.119  0.2096 -1.8793  0.1647
   81MOL0     H10642   0.558   7.012   3.270 -0.0449 -0.2295  1.1692
   81MOL0     H10643   0.543   7.300   3.194  3.4848  0.9563  1.4649
   81MOL0     H10644   0.518   7.272   3.361 -1.0413 -1.5838  0.5571
   81MOL0     H10645   0.374   7.194   3.026 -0.5879 -0.2037  0.2757
   81MOL0     H10646   0.072   6.984   3.039 -1.2904 -0.3864  0.1513
   81MOL0     H10647   0.119   7.125   2.937  0.4113 -0.4118  0.4286
   81MOL0     H10648  -0.025   7.266   3.102  2.3015  1.1693 -0.8292
   81MOL0     H10649  -0.086   7.114   3.167  1.0728 -1.9700 -0.5597
   81MOL0     H10650  -0.230   7.246   2.994 -0.2614 -1.1488 -0.5532
   81MOL0     H10651  -0.118   7.225   2.872 -1.3283 -1.3596 -0.8844
   81MOL0     H10652  -0.204   6.958   2.988  0.9248 -2.6271 -2.8869
   81MOL0     H10653  -0.144   7.014   2.837 -2.9197  0.1201 -1.2103
   81MOL0     H10654  -0.381   7.112   3.119 -1.1015 -1.0984  1.2878
   81MOL0     H10655  -0.588   7.146   3.222  1.8131 -3.1255 -0.0467
   81MOL0     H10656  -1.145   6.988   3.000  0.2806 -1.6816  0.7465
   81MOL0     H10657  -1.370   6.955   3.127  1.0855 -2.1279  1.1332
   81MOL0     H10658  -1.485   7.150   3.502  0.8483  0.0884 -0.0016
   81MOL0     H10659  -1.350   7.046   3.540 -0.9599 -1.4736  1.5809
   81MOL0     H10660  -1.631   6.922   3.476 -0.5583  0.1233  0.2912
   81MOL0     H10661  -1.601   7.000   3.630 -1.0270 -0.6682 -0.1507
   81MOL0     H10662  -1.577   6.779   3.649 -1.1743  0.7407 -1.0161
   81MOL0     H10663  -1.431   6.882   3.697  0.0628  1.5981 -1.0396
   81MOL0     H10664  -1.421   6.759   3.424 -2.6705 -0.9957 -0.1141
   81MOL0     H10665  -1.302   6.798   3.561 -0.7461 -1.2378  2.3661
   81MOL0     H10666  -1.321   6.568   3.494  0.7254  0.1718  0.4015
   81MOL0     H10667  -1.492   6.563   3.547  0.6405 -1.4938 -1.1429
   81MOL0     H10668  -1.338   6.468   3.714  0.4971  0.3154 -5.3996
   81MOL0     H10669  -1.397   6.623   3.780 -0.8155  1.2670 -0.9833
   81MOL0     H10670  -1.131   6.631   3.631 -0.3500  1.8818  0.2817
   81MOL0     H10671  -1.173   6.710   3.781  0.2755 -1.8543  2.0145
   81MOL0     H10672  -1.079   6.425   3.754  0.2441 -0.4533  1.0620
   81MOL0     H10673  -1.183   6.472   3.885 -1.8525  4.0432  0.2191
   81MOL0     H10674  -1.221   7.203   3.443  1.3295  3.1463 -1.0696
   81MOL0     H10675  -1.007   7.236   3.308  0.3298 -0.0787  0.6512
   81MOL0     H10676  -0.794   7.028   2.873  1.3626  0.8742 -1.6446
   81MOL0     H10677  -0.586   6.982   2.760  2.7664 -1.2653  1.0076
   81MOL0     H10678   1.613   7.223   3.503 -0.8683 -0.3270 -0.4937
   81MOL0     H10679   1.831   7.292   3.508  2.1308 -0.5658 -1.0875
   81MOL0     H10680   2.195   7.458   3.441 -1.2657  1.3176  1.1376
   81MOL0     H10681   2.419   7.556   3.472  0.1949 -1.1839 -0.4496
   81MOL0     H10682   2.618   7.590   3.434  1.7501  0.6327  1.5461
   81MOL0     H10683   2.583   7.758   3.476 -0.4311  0.2884 -1.2166
   81MOL0     H10684   2.821   7.686   3.445  0.2117 -0.3463 -0.5299
   81MOL0     H10685   2.784   7.705   3.267 -2.0874 -0.8609 -0.6218
   81MOL0     H10686   2.719   7.933   3.447  0.5203  0.5995  0.3487
   81MOL0     H10687   2.742   7.926   3.271  1.7038  1.1112 -0.7413
   81MOL0     H10688   2.980   7.884   3.459  3.6054  2.6367 -0.2309
   81MOL0     H10689   2.981   7.898   3.280 -0.1037 -0.4017 -0.3399
   81MOL0     H10690   2.949   8.297   3.411  2.0660  0.4767 -1.0684
   81MOL0     H10691   2.398   7.702   3.066  0.2707  1.7103  0.6286
   81MOL0     H10692   2.198   7.590   3.023  2.1733 -0.0355 -1.4199
   82MOL0     O10693   7.898   5.840   6.412 -1.2859 -0.1396  0.4058
   82MOL0     C10694   7.857   5.725   6.374  0.9142  0.1990 -0.6290
   82MOL0     O10695   7.930   5.624   6.306  1.0536 -0.2715  0.6285
   82MOL0     C10696   8.064   5.644   6.269 -0.1290 -0.2758 -0.0454
   82MOL0     C10697   8.152   5.714   6.352 -0.1987 -0.1903  0.2144
   82MOL0     C10698   8.281   5.750   6.311  0.1252 -1.2838 -0.6106
   82MOL0     C10699   8.322   5.729   6.181  0.6241 -0.6099 -0.3950
   82MOL0     O10700   8.440   5.771   6.124  0.1826  0.1462  0.0862
   82MOL0     C10701   8.542   5.840   6.203 -0.1077  0.0002 -0.7600
   82MOL0     C10702   8.667   5.831   6.114  0.0488 -0.0639 -1.0143
   82MOL0     C10703   8.771   5.932   6.142  0.0446  0.6681  0.1652
   82MOL0     C10704   8.906   5.883   6.101 -0.9823 -0.4183  0.0144
   82MOL0     C10705   9.022   5.983   6.101  0.4389 -0.2712  0.3390
   82MOL0     C10706   9.146   5.925   6.031  0.3393 -0.6722  0.3922
   82MOL0     C10707   9.236   6.045   6.017 -1.2164 -0.0057  0.7206
   82MOL0     C10708   9.363   6.014   5.931  0.8808  0.7146 -0.5027
   82MOL0     N10709   9.459   6.120   5.896 -0.2798 -0.5457 -0.5627
   82MOL0     C10710   9.516   6.125   5.777  0.1432 -0.1477 -1.0044
   82MOL0     C10711   9.625   6.205   5.797  1.1382 -0.5848 -0.1055
   82MOL0     C10712   9.710   6.239   5.675  0.7865 -0.3557 -0.4490
   82MOL0     C10713   9.635   6.341   5.594  1.2718 -0.1380  0.3805
   82MOL0     C10714   9.678   6.348   5.447  0.2640 -0.2631  0.5467
   82MOL0     C10715   9.812   6.405   5.427 -0.8079 -0.4666 -0.3245
   82MOL0     O10716   9.913   6.328   5.488 -0.5564 -0.3620 -0.3897
   82MOL0     C10717  10.042   6.375   5.514  0.1502  0.7972  0.4466
   82MOL0     C10718  10.096   6.497   5.472 -0.0360 -0.3693 -1.2280
   82MOL0     C10719  10.219   6.537   5.524 -0.4577 -1.2340 -0.3388
   82MOL0     C10720  10.288   6.456   5.615 -0.3223 -0.5062  0.8384
   82MOL0     C10721  10.414   6.513   5.682  0.2272  0.6975 -0.8563
   82MOL0     O10722  10.446   6.649   5.650 -0.2622 -0.6376 -0.6665
   82MOL0     C10723  10.547   6.714   5.718 -0.7670 -0.3836  0.4293
   82MOL0     C10724  10.537   6.852   5.739  0.4797  0.3507  0.5520
   82MOL0     C10725  10.650   6.918   5.803  0.4364  0.3176  0.4842
   82MOL0     C10726  10.758   6.843   5.848 -0.4232 -0.1971  0.3215
   82MOL0     O10727  10.882   6.887   5.905  0.2133 -0.6866 -0.1869
   82MOL0     C10728  10.895   7.010   5.975  0.3744 -1.5205  0.8775
   82MOL0     C10729  10.833   7.016   6.119  0.5820  0.6786 -0.0548
   82MOL0     C10730  10.678   7.037   6.120  0.3054 -0.1315  0.3217
   82MOL0     C10731  10.641   7.070   6.263 -0.8746  0.8995 -0.2324
   82MOL0     C10732  10.500   7.109   6.277  0.3983  0.0330  0.2334
   82MOL0     C10733  10.454   7.100   6.421  0.4538  0.9566 -0.0734
   82MOL0     C10734  10.352   7.212   6.462 -0.6770  0.1041  0.6622
   82MOL0     C10735  10.280   7.196   6.596 -0.0527 -0.1506  0.3051
   82MOL0    Cl10736  10.387   7.223   6.732  0.0005 -0.2561 -0.1047
   82MOL0     C10737  10.770   6.705   5.819  0.0762  1.1867 -0.7296
   82MOL0     C10738  10.669   6.641   5.748 -0.4965 -0.1606 -0.2261
   82MOL0     O10739  10.466   6.444   5.764 -0.9548  0.3940  0.3873
   82MOL0     C10740  10.237   6.336   5.655  0.7483  0.2704 -0.2951
   82MOL0     C10741  10.121   6.292   5.597  0.3964  0.4751 -0.4400
   82MOL0     N10742   9.624   6.244   5.923 -1.0916 -0.3906 -0.3650
   82MOL0     N10743   9.527   6.197   5.987  0.9147  0.1603  0.0858
   82MOL0     C10744   8.237   5.657   6.100  0.1088 -0.7543  0.3018
   82MOL0     C10745   8.106   5.618   6.141 -0.1054 -0.0849  0.6570
   82MOL0     C10746   7.716   5.704   6.417  0.2603  0.0259  0.5162
   82MOL0     C10747   7.671   5.570   6.433 -0.0517  0.6482 -0.4147
   82MOL0     C10748   7.543   5.549   6.484  0.5346  0.4151  0.9527
   82MOL0     C10749   7.469   5.648   6.541 -1.2249 -0.4128 -0.2572
   82MOL0     O10750   7.362   5.608   6.619  0.4573  0.5857  0.0322
   82MOL0     C10751   7.342   5.648   6.757 -0.3015 -1.0341 -0.9990
   82MOL0     C10752   7.465   5.675   6.841  0.4010 -0.8364 -0.2155
   82MOL0     C10753   7.550   5.551   6.867  0.9873 -0.3126  0.1958
   82MOL0     C10754   7.668   5.590   6.956 -0.1423 -0.1674 -0.9342
   82MOL0     C10755   7.745   5.475   7.013  0.2227  0.1532  0.4139
   82MOL0     C10756   7.806   5.390   7.066 -0.6805 -0.1277  0.6709
   82MOL0     C10757   7.518   5.781   6.534 -0.4024  1.4212  0.2643
   82MOL0     C10758   7.631   5.809   6.458  0.0648  1.0275  0.8034
   82MOL0     H10759   8.121   5.722   6.455  3.0652  0.5667  1.2663
   82MOL0     H10760   8.344   5.789   6.390 -0.9681 -1.7687  0.5463
   82MOL0     H10761   8.547   5.795   6.303  2.6143 -0.0498 -0.8382
   82MOL0     H10762   8.505   5.943   6.209  0.2105  0.0988 -0.3743
   82MOL0     H10763   8.639   5.833   6.009  0.5419  1.1684 -1.1487
   82MOL0     H10764   8.701   5.730   6.138 -0.1885 -0.4418 -2.2467
   82MOL0     H10765   8.775   5.936   6.251  0.2248  0.7128  0.1575
   82MOL0     H10766   8.748   6.031   6.100  2.9905  1.5379  0.3587
   82MOL0     H10767   8.926   5.805   6.175 -1.2520  0.0765  0.6190
   82MOL0     H10768   8.909   5.826   6.008  0.1810 -0.1471 -0.1280
   82MOL0     H10769   9.039   6.025   6.201  2.6363  1.2747 -0.5975
   82MOL0     H10770   8.986   6.067   6.040 -2.3716 -1.2661  0.5018
   82MOL0     H10771   9.114   5.889   5.933  0.5754 -1.5865  0.6474
   82MOL0     H10772   9.181   5.844   6.096 -2.5449 -2.5432 -0.1951
   82MOL0     H10773   9.190   6.135   5.976  0.6932  1.2471  1.1705
   82MOL0     H10774   9.275   6.072   6.115 -1.5200 -1.4238  1.2564
   82MOL0     H10775   9.317   5.986   5.836 -1.3771  0.0268  0.7098
   82MOL0     H10776   9.410   5.918   5.956 -0.3781 -0.7363 -3.3099
   82MOL0     H10777   9.486   6.072   5.688 -2.9839  0.2269 -0.2951
   82MOL0     H10778   9.727   6.145   5.622  2.1704 -1.1061  1.2247
   82MOL0     H10779   9.806   6.274   5.713 -0.1152  0.1303  1.5339
   82MOL0     H10780   9.662   6.438   5.636 -2.2211  0.6101  1.1902
   82MOL0     H10781   9.527   6.327   5.593  1.0180  1.6612 -0.3304
   82MOL0     H10782   9.689   6.248   5.405  0.6623 -0.8851  2.0621
   82MOL0     H10783   9.611   6.416   5.393  0.5332 -0.2243  0.2583
   82MOL0     H10784   9.818   6.507   5.465  0.0573  0.4820 -2.8046
   82MOL0     H10785   9.832   6.431   5.323  2.9416  3.5742  1.0635
   82MOL0     H10786  10.030   6.570   5.425 -3.0434 -0.1448  2.7622
   82MOL0     H10787  10.263   6.632   5.495  1.6391 -2.0617  0.0017
   82MOL0     H10788  10.451   6.909   5.706  0.1883 -0.0202  0.6645
   82MOL0     H10789  10.664   7.026   5.807 -0.5963  0.4869 -0.0788
   82MOL0     H10790  10.836   7.080   5.917  0.3131 -3.3799 -1.4373
   82MOL0     H10791  10.999   7.044   5.979 -0.7608  2.6406 -0.3695
   82MOL0     H10792  10.883   7.090   6.181  2.8379 -0.7163 -0.0982
   82MOL0     H10793  10.864   6.932   6.183  0.5449 -0.3631 -1.3525
   82MOL0     H10794  10.615   6.951   6.093  0.4024  0.0857 -0.6315
   82MOL0     H10795  10.668   7.124   6.054  2.0386 -0.4366 -0.3823
   82MOL0     H10796  10.677   6.991   6.329 -2.9855  0.1387  0.0938
   82MOL0     H10797  10.694   7.162   6.290  0.1835  0.5375 -0.9914
   82MOL0     H10798  10.436   7.051   6.209 -0.5350  0.7195  0.4984
   82MOL0     H10799  10.479   7.209   6.239 -1.4194  0.6443  2.6292
   82MOL0     H10800  10.539   7.115   6.488  0.8524 -0.9009 -0.1010
   82MOL0     H10801  10.408   7.001   6.437  1.2697  0.9467  2.7730
   82MOL0     H10802  10.408   7.305   6.473 -0.6844  0.1565  0.2653
   82MOL0     H10803  10.269   7.208   6.391  1.2027  0.2488 -1.6616
   82MOL0     H10804  10.234   7.097   6.599 -1.0796  0.3092  0.4082
   82MOL0     H10805  10.193   7.263   6.597 -2.7122 -3.2695 -1.3418
   82MOL0     H10806  10.860   6.647   5.837 -2.3283 -3.8857 -2.9785
   82MOL0     H10807  10.694   6.541   5.714  4.2175  0.2341  1.4054
   82MOL0     H10808  10.296   6.271   5.719 -1.0319 -0.3686  0.7645
   82MOL0     H10809  10.072   6.196   5.609 -3.9896  2.2916 -1.6475
   82MOL0     H10810   8.265   5.624   6.000 -1.8712 -2.4002  0.2112
   82MOL0     H10811   8.039   5.560   6.079  0.8026  0.5282 -0.9815
   82MOL0     H10812   7.739   5.485   6.429  1.9763  2.2230 -1.6965
   82MOL0     H10813   7.509   5.454   6.524  0.9866 -0.6686 -1.0786
   82MOL0     H10814   7.288   5.568   6.810  2.9094  0.3407  5.4229
   82MOL0     H10815   7.279   5.736   6.767 -1.0042 -1.5145 -1.1431
   82MOL0     H10816   7.523   5.756   6.797 -0.3851  0.4152  0.9455
   82MOL0     H10817   7.416   5.722   6.927 -1.6785 -2.8119 -0.2215
   82MOL0     H10818   7.598   5.508   6.778  3.2371  3.1965 -0.4818
   82MOL0     H10819   7.495   5.476   6.925  3.0670 -0.7657  1.7025
   82MOL0     H10820   7.736   5.653   6.899 -2.4104  2.2173 -1.1931
   82MOL0     H10821   7.635   5.649   7.041 -0.4026 -1.6435  0.0288
   82MOL0     H10822   7.858   5.318   7.127  1.9963 -0.1110 -1.3641
   82MOL0     H10823   7.457   5.855   6.585  1.1617  2.9241  0.0221
   82MOL0     H10824   7.673   5.908   6.443  0.0416  0.6590 -2.3703
   83MOL0     O10825   3.402   9.258   1.585  0.5271  0.2273  0.1600
   83MOL0     C10826   3.456   9.166   1.649  0.6334 -1.4896 -0.1401
   83MOL0     O10827   3.577   9.171   1.720  0.6045  0.1530 -0.2656
   83MOL0     C10828   3.618   9.304   1.741  0.7378  1.6032 -0.6435
   83MOL0     C10829   3.528   9.400   1.810  0.9109  0.0347  0.2118
   83MOL0     C10830   3.567   9.527   1.844  0.2108 -0.2479 -0.4732
   83MOL0     C10831   3.705   9.564   1.814 -0.9224  0.0379 -0.0272
   83MOL0     O10832   3.767   9.687   1.851  0.4293 -0.4679  0.2342
   83MOL0     C10833   3.680   9.771   1.933 -0.4157  0.3621  0.8982
   83MOL0     C10834   3.755   9.883   1.977  0.8862  0.5541 -0.6641
   83MOL0     C10835   3.712   9.952   2.114  0.6127  1.0938 -0.1415
   83MOL0     C10836   3.828  10.041   2.161  0.3294 -0.7309 -0.2083
   83MOL0     C10837   3.817  10.143   2.277 -0.1436 -0.3182  0.0764
   83MOL0     C10838   3.733  10.081   2.382  0.0939 -0.7156  0.1916
   83MOL0     C10839   3.682  10.178   2.503 -0.2826  1.1383 -0.7518
   83MOL0     C10840   3.615  10.095   2.625  0.0047 -0.1168 -0.4176
   83MOL0     N10841   3.557  10.187   2.733 -0.1678  0.7497  0.3074
   83MOL0     C10842   3.503  10.137   2.850 -0.6205  0.3171 -0.0683
   83MOL0     C10843   3.472  10.241   2.932  0.3786  0.6359  0.8501
   83MOL0     C10844   3.418  10.222   3.080 -1.2781  0.4564  0.0353
   83MOL0     C10845   3.271  10.235   3.082 -0.1074 -0.1449  0.1276
   83MOL0     C10846   3.232  10.263   3.228  1.1224 -0.0332 -0.0439
   83MOL0     C10847   3.092  10.279   3.270  0.4736  0.8945  0.2166
   83MOL0     O10848   3.059  10.420   3.287  0.3047 -0.5507  0.0538
   83MOL0     C10849   2.925  10.444   3.301  0.8371 -0.2477  0.0182
   83MOL0     C10850   2.819  10.361   3.269  0.3299  0.9432  0.1204
   83MOL0     C10851   2.685  10.396   3.273  0.3543 -1.1548  0.1239
   83MOL0     C10852   2.656  10.528   3.313  0.3786 -0.1569  0.4089
   83MOL0     C10853   2.519  10.570   3.361  0.7627  0.7398 -1.1672
   83MOL0     O10854   2.491  10.703   3.381  0.0101 -0.1987  0.3952
   83MOL0     C10855   2.369  10.741   3.424 -0.1939 -0.1334  0.5072
   83MOL0     C10856   2.373  10.827   3.533 -0.4132 -0.0240 -0.7628
   83MOL0     C10857   2.249  10.875   3.585 -0.7810 -0.4581 -0.4034
   83MOL0     C10858   2.127  10.849   3.526  0.3817  1.2507  1.0030
   83MOL0     O10859   2.015  10.897   3.587  0.1393 -0.6068 -0.4440
   83MOL0     C10860   1.885  10.879   3.533 -0.5140  0.4022  0.4980
   83MOL0     C10861   1.856  10.973   3.420  0.1717 -0.3425  1.1548
   83MOL0     C10862   1.846  11.121   3.467 -0.8301  1.3785 -0.3968
   83MOL0     C10863   1.767  11.205   3.376 -0.2085 -0.1783  0.4576
   83MOL0     C10864   1.844  11.301   3.281  0.1520  0.7582 -0.7322
   83MOL0     C10865   1.908  11.223   3.159 -0.5571 -0.4449 -0.6648
   83MOL0     C10866   1.959  11.311   3.038 -1.0450  0.4953  0.3663
   83MOL0     C10867   2.039  11.229   2.941  0.3077  0.6563 -1.1048
   83MOL0    Cl10868   2.189  11.168   3.019 -0.4064  0.1969 -0.1264
   83MOL0     C10869   2.130  10.758   3.416  0.4066  0.2710 -0.2404
   83MOL0     C10870   2.248  10.715   3.361  0.4301 -0.1337 -0.0209
   83MOL0     O10871   2.437  10.471   3.378  0.0367 -0.6637 -0.4357
   83MOL0     C10872   2.759  10.614   3.330 -0.4774  0.1318 -0.5687
   83MOL0     C10873   2.890  10.574   3.327 -0.6021  0.2873 -0.7907
   83MOL0     N10874   3.507  10.356   2.867 -0.7366  0.5639 -0.4824
   83MOL0     N10875   3.567  10.316   2.753 -0.3879 -0.1162 -0.3007
   83MOL0     C10876   3.789   9.474   1.752 -0.7108 -0.1386 -0.4476
   83MOL0     C10877   3.746   9.345   1.723  0.2801  0.0853  0.0890
   83MOL0     C10878   3.377   9.044   1.655  0.0805  0.3594  0.6393
   83MOL0     C10879   3.415   8.929   1.724  0.3882  0.1657  0.5872
   83MOL0     C10880   3.334   8.819   1.733 -0.0950  0.7103 -0.2767
   83MOL0     C10881   3.209   8.812   1.658  0.5587 -0.1811 -1.2884
   83MOL0     O10882   3.115   8.716   1.663  0.1454  0.1844  0.1196
   83MOL0     C10883   3.079   8.652   1.788  0.0834  0.4254  0.7791
   83MOL0     C10884   2.958   8.550   1.766  0.9397 -0.6658 -0.1151
   83MOL0     C10885   2.989   8.454   1.648 -0.6206  0.9709 -0.2500
   83MOL0     C10886   2.869   8.435   1.560  1.0134  0.5831 -0.2230
   83MOL0     C10887   2.871   8.320   1.472  0.1680 -0.1307 -0.5923
   83MOL0     C10888   2.901   8.241   1.390 -0.1396 -0.4228 -0.1118
   83MOL0     C10889   3.171   8.915   1.583 -0.5652 -0.5262  0.5239
   83MOL0     C10890   3.251   9.034   1.581  0.5480  0.2445 -0.7795
   83MOL0     H10891   3.420   9.387   1.807  0.8745  0.4565 -1.0927
   83MOL0     H10892   3.499   9.605   1.876  0.2068 -0.3645 -0.1990
   83MOL0     H10893   3.666   9.703   2.018  3.5429 -3.5499 -1.2088
   83MOL0     H10894   3.595   9.799   1.871  1.5230 -0.5193 -2.3512
   83MOL0     H10895   3.764   9.963   1.903  1.8903 -0.3186 -1.5270
   83MOL0     H10896   3.854   9.839   1.989 -0.1461 -1.5714  0.5606
   83MOL0     H10897   3.696   9.879   2.194 -7.3990  2.7167  0.5725
   83MOL0     H10898   3.617  10.003   2.094 -0.5740 -1.8530 -2.9198
   83MOL0     H10899   3.916   9.980   2.181 -0.1859 -1.3160  0.3029
   83MOL0     H10900   3.856  10.100   2.072  1.1601 -0.0254  0.4950
   83MOL0     H10901   3.772  10.226   2.222  2.1474  0.7866 -0.2682
   83MOL0     H10902   3.915  10.181   2.309 -1.2692  4.2916 -1.2176
   83MOL0     H10903   3.786   9.994   2.421  2.1650  0.0621 -0.7700
   83MOL0     H10904   3.639  10.059   2.331 -0.9929  4.1040 -0.3868
   83MOL0     H10905   3.765  10.238   2.543 -0.2825 -0.5796  2.0943
   83MOL0     H10906   3.599  10.236   2.462 -2.3819 -0.2015  1.3600
   83MOL0     H10907   3.689  10.031   2.675  2.3961  1.7537 -1.3686
   83MOL0     H10908   3.538  10.031   2.582 -0.0939 -0.8543  0.7920
   83MOL0     H10909   3.479  10.032   2.863  0.7917 -0.0947 -0.5683
   83MOL0     H10910   3.452  10.307   3.140  0.1060 -1.0180  1.4451
   83MOL0     H10911   3.458  10.130   3.125 -0.1947  0.2876 -1.2126
   83MOL0     H10912   3.223  10.152   3.030 -0.3577  1.3957 -2.2439
   83MOL0     H10913   3.239  10.323   3.027 -1.5111 -0.4255  0.4465
   83MOL0     H10914   3.276  10.188   3.294  2.2963 -0.6613 -1.4872
   83MOL0     H10915   3.274  10.358   3.262 -0.8948  0.4125  1.4133
   83MOL0     H10916   3.066  10.233   3.366 -1.5878 -1.3891 -1.3319
   83MOL0     H10917   3.046  10.209   3.200  0.1921 -0.1430  1.4052
   83MOL0     H10918   2.843  10.262   3.232  2.4136  1.5022 -0.1112
   83MOL0     H10919   2.596  10.340   3.245 -2.5573  3.1412 -0.2090
   83MOL0     H10920   2.463  10.836   3.593 -1.2954 -0.0309  0.6283
   83MOL0     H10921   2.257  10.938   3.673  3.6677  1.0656 -1.6035
   83MOL0     H10922   1.806  10.901   3.606 -4.3041  3.5891 -3.8751
   83MOL0     H10923   1.882  10.773   3.507 -0.2196  0.5856 -0.3146
   83MOL0     H10924   1.770  10.929   3.368  1.3462 -1.7156  0.2962
   83MOL0     H10925   1.937  10.952   3.349 -0.5278  0.1426  0.1839
   83MOL0     H10926   1.943  11.172   3.465  0.5209 -0.9092  1.5104
   83MOL0     H10927   1.801  11.121   3.567 -2.2800 -4.6315 -0.6838
   83MOL0     H10928   1.700  11.148   3.312 -2.3534  0.3041  2.1364
   83MOL0     H10929   1.707  11.272   3.438  0.3021  3.3342 -2.5113
   83MOL0     H10930   1.925  11.340   3.344 -0.9955 -1.8406  2.7241
   83MOL0     H10931   1.782  11.380   3.239  1.3480  2.2130  0.1236
   83MOL0     H10932   1.832  11.157   3.113  1.8506 -4.1623  0.2326
   83MOL0     H10933   1.986  11.159   3.201  0.8804  0.5674 -1.7463
   83MOL0     H10934   1.877  11.352   2.977 -0.1386  0.2521 -1.0673
   83MOL0     H10935   2.018  11.393   3.079  0.0337 -0.3654  0.5689
   83MOL0     H10936   2.068  11.295   2.858  2.0905  1.7806  0.3431
   83MOL0     H10937   1.977  11.145   2.910 -1.3842  0.6193  2.0338
   83MOL0     H10938   2.040  10.719   3.370  1.3299 -1.2787 -0.7789
   83MOL0     H10939   2.253  10.662   3.266 -0.9147 -1.2607  0.5076
   83MOL0     H10940   2.727  10.717   3.349 -1.9144 -0.4254  0.2363
   83MOL0     H10941   2.971  10.644   3.343 -1.0760  0.9412 -1.1934
   83MOL0     H10942   3.889   9.500   1.719 -1.2600  0.4055 -1.7602
   83MOL0     H10943   3.819   9.270   1.692 -1.3772 -1.7132  0.3709
   83MOL0     H10944   3.512   8.919   1.772  0.4620 -4.4481 -0.0175
   83MOL0     H10945   3.358   8.729   1.790 -1.9220  0.7279  0.5892
   83MOL0     H10946   3.059   8.733   1.859 -1.2468  2.3640 -1.6638
   83MOL0     H10947   3.163   8.594   1.827  1.1962  0.8802 -0.8346
   83MOL0     H10948   2.937   8.496   1.859  0.6919 -0.9830 -0.3500
   83MOL0     H10949   2.868   8.608   1.742 -0.0928 -1.4002  1.7480
   83MOL0     H10950   3.026   8.360   1.691  1.9558  2.4658  1.0218
   83MOL0     H10951   3.073   8.489   1.589  0.3225  1.4092  1.2905
   83MOL0     H10952   2.782   8.414   1.623  1.2726  0.8015  0.2103
   83MOL0     H10953   2.846   8.523   1.500  0.1801  0.0689 -0.6650
   83MOL0     H10954   2.928   8.182   1.304  0.9316  3.4353 -2.7133
   83MOL0     H10955   3.078   8.898   1.531 -0.7458  1.7334 -0.0072
   83MOL0     H10956   3.222   9.117   1.518 -0.8709 -0.5397 -1.1997
   84MOL0     O10957   5.184   4.561   3.341 -0.2900  0.9716  0.6337
   84MOL0     C10958   5.110   4.481   3.281  0.3531  0.4532  0.6747
   84MOL0     O10959   5.148   4.368   3.227  0.0447  0.3632 -0.7896
   84MOL0     C10960   5.280   4.346   3.210  0.2143  0.2198 -0.1633
   84MOL0     C10961   5.337   4.234   3.279  0.2015 -0.8352 -0.2459
   84MOL0     C10962   5.471   4.201   3.253 -0.2167  0.9969 -0.5181
   84MOL0     C10963   5.542   4.276   3.161  0.2492 -0.3056 -0.5450
   84MOL0     O10964   5.672   4.237   3.143  0.0524  0.2385  0.4338
   84MOL0     C10965   5.721   4.234   3.008 -0.0199  0.2588  0.0833
   84MOL0     C10966   5.834   4.121   3.016 -0.4400 -0.6645  0.3766
   84MOL0     C10967   5.958   4.189   3.076  0.9245 -0.0454  0.8382
   84MOL0     C10968   6.063   4.077   3.092  0.2076  0.2236  1.0917
   84MOL0     C10969   6.198   4.144   3.117 -0.1068 -0.8418  0.0317
   84MOL0     C10970   6.299   4.053   3.194  0.7391 -0.0473 -0.3219
   84MOL0     C10971   6.395   4.128   3.284 -0.6083  0.6841 -1.2043
   84MOL0     C10972   6.486   4.027   3.362 -0.7013  0.5589 -0.0276
   84MOL0     N10973   6.547   3.925   3.277 -0.7072  0.0219  0.2248
   84MOL0     C10974   6.501   3.797   3.244  0.5845 -1.4850  0.1567
   84MOL0     C10975   6.590   3.751   3.157  0.2133  0.0288  0.3194
   84MOL0     C10976   6.585   3.609   3.100  0.0535 -0.4009  0.0332
   84MOL0     C10977   6.657   3.526   3.207  0.7975 -0.1478  0.5617
   84MOL0     C10978   6.685   3.384   3.150 -0.6046 -0.8685 -0.2173
   84MOL0     C10979   6.571   3.307   3.086  0.5965 -0.2012  0.1499
   84MOL0     O10980   6.475   3.301   3.190 -0.6760  0.0612 -0.0260
   84MOL0     C10981   6.361   3.226   3.171 -1.1967 -1.1762 -0.0688
   84MOL0     C10982   6.285   3.210   3.283  0.1812  0.4346  0.2973
   84MOL0     C10983   6.167   3.123   3.288 -0.0453  0.7805  0.2229
   84MOL0     C10984   6.136   3.050   3.173  0.3227  0.5091 -0.4624
   84MOL0     C10985   6.007   2.983   3.164 -0.5481 -0.1131 -0.0200
   84MOL0     O10986   5.984   2.908   3.279  0.0686  0.5295  0.0377
   84MOL0     C10987   5.863   2.847   3.308  0.5122 -0.5777 -0.0779
   84MOL0     C10988   5.868   2.775   3.420  0.1932 -0.6372 -0.7912
   84MOL0     C10989   5.746   2.738   3.481  0.1807 -0.2466 -0.0791
   84MOL0     C10990   5.620   2.757   3.421  0.2342  0.5897  0.9691
   84MOL0     O10991   5.503   2.732   3.503  0.1484 -0.0523  0.8630
   84MOL0     C10992   5.374   2.724   3.434 -0.0138  0.4874 -0.3927
   84MOL0     C10993   5.361   2.596   3.356 -0.6131 -0.8120  0.8588
   84MOL0     C10994   5.403   2.472   3.448  0.6387 -0.5575 -0.6618
   84MOL0     C10995   5.405   2.348   3.356  0.1119 -0.7903 -0.1159
   84MOL0     C10996   5.452   2.224   3.420 -0.3690 -0.2568 -0.0337
   84MOL0     C10997   5.348   2.163   3.513 -0.1749  0.4822  1.8418
   84MOL0     C10998   5.405   2.034   3.560  0.0768  0.0840 -0.6523
   84MOL0     C10999   5.313   1.980   3.677 -0.2954 -0.1094 -0.0270
   84MOL0    Cl11000   5.353   2.080   3.821 -0.2272  0.3906 -0.3820
   84MOL0     C11001   5.620   2.823   3.294  0.3771  0.0933 -0.8188
   84MOL0     C11002   5.740   2.869   3.243 -0.3937 -0.0203  0.2308
   84MOL0     O11003   5.942   2.982   3.058 -0.3030 -0.0899 -0.0453
   84MOL0     C11004   6.213   3.054   3.056  0.0935  0.4435 -0.2617
   84MOL0     C11005   6.328   3.143   3.060 -0.5956 -0.2357  0.2796
   84MOL0     N11006   6.688   3.846   3.128 -0.3415  0.4310  0.2358
   84MOL0     N11007   6.660   3.946   3.206  0.3867 -0.4615  0.1904
   84MOL0     C11008   5.487   4.387   3.096  0.7266  0.2912  0.5648
   84MOL0     C11009   5.352   4.415   3.110  0.6095  0.2364  0.5819
   84MOL0     C11010   4.958   4.505   3.287 -0.5350 -0.6504 -1.1045
   84MOL0     C11011   4.873   4.440   3.217 -0.0368  0.2409 -0.1545
   84MOL0     C11012   4.739   4.442   3.247 -0.1396 -0.0450 -0.5154
   84MOL0     C11013   4.690   4.516   3.360 -0.4810 -0.9664 -0.2142
   84MOL0     O11014   4.565   4.507   3.400  0.0637  0.3194  0.1518
   84MOL0     C11015   4.514   4.559   3.527  0.5258 -0.2383 -0.8288
   84MOL0     C11016   4.369   4.544   3.553 -0.6261 -0.3521  0.1647
   84MOL0     C11017   4.360   4.610   3.695 -0.0527 -0.2203  0.1450
   84MOL0     C11018   4.224   4.580   3.756 -0.4098 -0.1311 -0.4166
   84MOL0     C11019   4.221   4.606   3.898 -0.1607 -0.0381 -0.7706
   84MOL0     C11020   4.218   4.623   4.019 -0.6976  0.5068 -0.6200
   84MOL0     C11021   4.782   4.599   3.427 -0.0756  0.1460 -0.4136
   84MOL0     C11022   4.914   4.585   3.394 -0.3075 -0.3240  1.1969
   84MOL0     H11023   5.282   4.183   3.358  0.4730 -0.4620  0.1911
   84MOL0     H11024   5.511   4.111   3.298 -1.1462  1.9625  2.4280
   84MOL0     H11025   5.753   4.335   2.982 -3.0515  1.2922 -0.0538
   84MOL0     H11026   5.643   4.210   2.935  1.2413  1.9652 -1.9239
   84MOL0     H11027   5.860   4.090   2.915  0.4714 -1.0331  0.7144
   84MOL0     H11028   5.803   4.030   3.067 -1.4351 -0.6340 -0.1385
   84MOL0     H11029   5.943   4.236   3.174  0.8073 -0.2639  0.9268
   84MOL0     H11030   6.004   4.264   3.011  1.8724 -3.0643 -2.2420
   84MOL0     H11031   6.030   4.008   3.169  3.1084 -2.9387 -0.2389
   84MOL0     H11032   6.078   4.015   3.003  0.0239 -0.5150  1.5740
   84MOL0     H11033   6.187   4.238   3.173 -0.8243  0.8813 -2.8055
   84MOL0     H11034   6.239   4.182   3.023 -1.1370 -1.6248 -0.7551
   84MOL0     H11035   6.350   3.991   3.120 -4.0906 -3.4554 -1.1850
   84MOL0     H11036   6.249   3.974   3.250  5.8421 -3.2232  0.4417
   84MOL0     H11037   6.471   4.194   3.241  1.8289 -0.3623  1.2152
   84MOL0     H11038   6.340   4.187   3.358  0.4359  0.4892 -0.2444
   84MOL0     H11039   6.426   3.985   3.444 -0.3209 -0.1460 -0.0990
   84MOL0     H11040   6.565   4.082   3.415  0.8849 -3.1434  1.8176
   84MOL0     H11041   6.408   3.748   3.271 -0.2339 -0.0470  0.0873
   84MOL0     H11042   6.626   3.603   2.999 -1.6111 -1.3850 -0.6190
   84MOL0     H11043   6.481   3.575   3.100 -0.6596  1.5387  1.9584
   84MOL0     H11044   6.610   3.516   3.306  1.7080 -1.8610  0.8692
   84MOL0     H11045   6.753   3.574   3.224  0.2311  0.2482  2.9730
   84MOL0     H11046   6.760   3.386   3.071 -0.7566 -1.5731 -0.3833
   84MOL0     H11047   6.723   3.319   3.229 -0.8891 -1.9097 -0.9276
   84MOL0     H11048   6.606   3.210   3.048  1.7356 -0.3337  1.4829
   84MOL0     H11049   6.535   3.363   2.999  0.9217 -1.4909 -0.8409
   84MOL0     H11050   6.320   3.278   3.359 -3.9010  2.5840  0.5580
   84MOL0     H11051   6.102   3.117   3.374 -1.2417 -0.6113 -0.7380
   84MOL0     H11052   5.957   2.729   3.463  1.1873  2.6478  1.0957
   84MOL0     H11053   5.732   2.674   3.567  0.3004 -0.2092 -0.0324
   84MOL0     H11054   5.365   2.812   3.370  2.5898 -0.9092 -2.9474
   84MOL0     H11055   5.286   2.727   3.499  0.5769 -1.7017  0.6064
   84MOL0     H11056   5.431   2.600   3.272 -0.0095 -2.0532  1.2862
   84MOL0     H11057   5.260   2.591   3.316 -1.0000  0.8406  1.5448
   84MOL0     H11058   5.326   2.476   3.525 -0.8926  0.6246 -2.1905
   84MOL0     H11059   5.506   2.485   3.483  1.9018 -2.2106 -3.3606
   84MOL0     H11060   5.306   2.331   3.312  1.7172 -1.7595 -3.7387
   84MOL0     H11061   5.482   2.362   3.280  0.7857 -3.7647 -0.0965
   84MOL0     H11062   5.544   2.240   3.477 -0.4282 -1.3645  0.4098
   84MOL0     H11063   5.473   2.151   3.342  2.7503 -1.7400  1.9966
   84MOL0     H11064   5.252   2.144   3.465  1.7610 -2.3117 -1.4280
   84MOL0     H11065   5.328   2.231   3.596  1.3343 -0.0179  2.6469
   84MOL0     H11066   5.406   1.968   3.472  1.7562  0.9894 -1.3688
   84MOL0     H11067   5.514   2.045   3.567  0.2799  0.5633 -3.3093
   84MOL0     H11068   5.338   1.878   3.708 -0.1608  0.8114  3.2472
   84MOL0     H11069   5.208   1.988   3.647 -0.1173  4.1148 -0.1191
   84MOL0     H11070   5.534   2.850   3.234  0.7805 -0.8462 -1.8557
   84MOL0     H11071   5.736   2.928   3.152  0.5842  0.3129  0.3868
   84MOL0     H11072   6.179   2.996   2.970  1.6466 -0.7609 -0.0950
   84MOL0     H11073   6.390   3.166   2.974  1.6438  1.0645  2.1278
   84MOL0     H11074   5.531   4.437   3.010  0.0864 -0.1599 -0.0366
   84MOL0     H11075   5.302   4.476   3.036 -0.9417 -2.6517 -0.9335
   84MOL0     H11076   4.911   4.366   3.147  1.1147 -0.6400  1.3498
   84MOL0     H11077   4.664   4.386   3.193 -0.2863  1.8730 -2.4309
   84MOL0     H11078   4.527   4.667   3.538 -0.9065 -0.2613  1.7735
   84MOL0     H11079   4.567   4.515   3.612 -2.6881  1.7306  2.4588
   84MOL0     H11080   4.300   4.586   3.480 -0.5157 -2.4613 -1.2344
   84MOL0     H11081   4.342   4.439   3.539  0.5898 -0.5662 -0.7821
   84MOL0     H11082   4.388   4.716   3.697 -3.5809  0.8384  1.0509
   84MOL0     H11083   4.431   4.555   3.758  0.9751  1.9141  0.9716
   84MOL0     H11084   4.150   4.646   3.709 -0.6224  1.3183  1.7906
   84MOL0     H11085   4.190   4.478   3.740 -1.0580 -0.0752  0.5460
   84MOL0     H11086   4.203   4.626   4.125 -0.5996  1.5111 -0.6243
   84MOL0     H11087   4.763   4.654   3.519  3.1538 -1.9586  1.7104
   84MOL0     H11088   4.988   4.636   3.456 -0.2662  1.7410 -0.4446
   85MOL0     O11089   2.854   9.531   8.110 -0.7135  0.1965  0.8757
   85MOL0     C11090   2.837   9.411   8.125  0.5892 -0.1567 -0.4476
   85MOL0     O11091   2.719   9.343   8.112 -0.3632 -0.1536 -0.0594
   85MOL0     C11092   2.624   9.415   8.051 -0.2938  0.0785  0.0447
   85MOL0     C11093   2.503   9.451   8.122  0.6980  0.5995  0.0842
   85MOL0     C11094   2.405   9.535   8.071 -0.0858  0.4069 -1.2640
   85MOL0     C11095   2.411   9.581   7.944 -0.5318 -0.3387  0.0599
   85MOL0     O11096   2.304   9.633   7.875 -0.3516 -0.9449  0.1033
   85MOL0     C11097   2.196   9.541   7.863  0.0878 -0.0436  0.0064
   85MOL0     C11098   2.070   9.616   7.866 -0.4216 -0.7841  0.4239
   85MOL0     C11099   2.059   9.716   7.751 -0.2228  0.4402 -0.3569
   85MOL0     C11100   1.915   9.786   7.758  0.5935  0.8578 -0.3990
   85MOL0     C11101   1.916   9.908   7.668  0.1439 -1.0229 -0.1176
   85MOL0     C11102   1.780   9.986   7.662  0.5342  0.4357 -0.0072
   85MOL0     C11103   1.724  10.038   7.797 -0.8572  0.5580  1.2420
   85MOL0     C11104   1.804  10.163   7.839  0.2307 -0.0576 -0.2399
   85MOL0     N11105   1.948  10.145   7.885  0.1637 -0.0030  0.3788
   85MOL0     C11106   1.983  10.048   7.982  0.2315 -0.2598  0.7722
   85MOL0     C11107   2.115  10.067   7.993 -0.7808  0.3634 -0.6044
   85MOL0     C11108   2.208   9.980   8.079  0.7376 -1.6677 -0.0189
   85MOL0     C11109   2.186   9.987   8.230 -0.7092  0.2908  0.1891
   85MOL0     C11110   2.150   9.850   8.292  0.5756 -0.3503  0.1541
   85MOL0     C11111   2.280   9.774   8.340 -0.6271  0.1854  0.2688
   85MOL0     O11112   2.395   9.790   8.251 -0.5065  0.6306  0.0618
   85MOL0     C11113   2.521   9.768   8.307 -0.8906 -1.2687 -0.1352
   85MOL0     C11114   2.565   9.707   8.426  1.1008 -0.2287  1.2584
   85MOL0     C11115   2.696   9.700   8.458 -0.1714  0.0828  0.1081
   85MOL0     C11116   2.798   9.755   8.373  0.3393  0.0688  0.5822
   85MOL0     C11117   2.935   9.746   8.412 -0.1696  0.3654  0.7819
   85MOL0     O11118   3.021   9.803   8.316 -0.5900  0.3231 -1.0318
   85MOL0     C11119   3.154   9.808   8.328 -0.7900  1.0918 -0.1359
   85MOL0     C11120   3.233   9.851   8.444  0.3189 -1.7900  0.4498
   85MOL0     C11121   3.375   9.854   8.448  0.2379 -0.6951  0.5350
   85MOL0     C11122   3.442   9.817   8.331  0.2190  0.1142 -0.4769
   85MOL0     O11123   3.578   9.813   8.332 -0.0206  0.0127  0.4716
   85MOL0     C11124   3.648   9.842   8.211 -0.2516 -0.2727 -0.1013
   85MOL0     C11125   3.795   9.853   8.257  0.4893 -0.5377  0.3577
   85MOL0     C11126   3.898   9.904   8.144 -0.2382 -0.2305 -0.1935
   85MOL0     C11127   4.044   9.902   8.200 -0.7910  0.6792 -0.4974
   85MOL0     C11128   4.156   9.930   8.093  0.2239 -0.3330 -0.0513
   85MOL0     C11129   4.298   9.914   8.162  0.3224  0.7905  0.0647
   85MOL0     C11130   4.400   9.969   8.070 -0.0477  0.3520 -0.0537
   85MOL0     C11131   4.543   9.964   8.135 -0.1978  0.5505 -0.1888
   85MOL0    Cl11132   4.554  10.044   8.291  0.2951 -0.1583 -0.2263
   85MOL0     C11133   3.365   9.791   8.210 -0.3847 -0.0544 -0.9113
   85MOL0     C11134   3.225   9.788   8.205  0.6512 -0.7113 -0.1665
   85MOL0     O11135   2.970   9.696   8.518 -0.1255 -0.1611 -0.0845
   85MOL0     C11136   2.757   9.796   8.240  0.2863 -0.0198  0.3374
   85MOL0     C11137   2.620   9.809   8.213  0.4381  0.3901  0.5623
   85MOL0     N11138   2.166  10.176   7.914  0.0938 -0.3454 -0.0693
   85MOL0     N11139   2.062  10.208   7.835 -0.3088  0.5751 -0.0790
   85MOL0     C11140   2.525   9.544   7.869 -0.0929 -0.1546  0.4620
   85MOL0     C11141   2.628   9.460   7.919  0.5853 -0.7549 -0.2461
   85MOL0     C11142   2.945   9.323   8.187 -1.2670 -0.6392  0.2713
   85MOL0     C11143   3.085   9.354   8.193 -0.5014 -1.2710  0.2598
   85MOL0     C11144   3.182   9.262   8.221 -0.6965 -0.1166  0.5271
   85MOL0     C11145   3.150   9.133   8.255  0.2772  0.9074 -0.4888
   85MOL0     O11146   3.230   9.028   8.303  0.7945  0.9147  0.2960
   85MOL0     C11147   3.369   9.038   8.329  0.1829 -0.4227 -0.5527
   85MOL0     C11148   3.452   8.990   8.207 -0.2274 -0.5710 -0.8476
   85MOL0     C11149   3.601   8.993   8.241 -0.1974 -0.3051 -0.8381
   85MOL0     C11150   3.680   8.993   8.105  1.3544 -0.7896  0.1748
   85MOL0     C11151   3.823   8.978   8.117 -0.5403  0.1257 -0.1660
   85MOL0     C11152   3.940   8.949   8.117  0.2471  0.2198 -0.8371
   85MOL0     C11153   3.018   9.100   8.269 -0.4519 -0.0220  0.5507
   85MOL0     C11154   2.914   9.186   8.218  0.1158  0.1866 -0.5955
   85MOL0     H11155   2.487   9.411   8.222 -0.9479  0.8421 -0.0484
   85MOL0     H11156   2.317   9.550   8.132 -0.0844 -2.2792 -0.4841
   85MOL0     H11157   2.186   9.476   7.951 -2.4880  0.9669  0.5580
   85MOL0     H11158   2.203   9.474   7.777  1.6141  0.6229 -0.4158
   85MOL0     H11159   2.055   9.674   7.958  0.9470 -0.9664  0.7909
   85MOL0     H11160   1.983   9.551   7.877 -3.0002  2.4628  0.8448
   85MOL0     H11161   2.076   9.678   7.650  0.8547  1.7884 -0.7164
   85MOL0     H11162   2.141   9.785   7.772 -0.5738  0.5015  0.9294
   85MOL0     H11163   1.849   9.707   7.723  0.8664  0.1814  0.5716
   85MOL0     H11164   1.892   9.808   7.863 -3.5814 -0.6007 -0.8357
   85MOL0     H11165   1.939   9.885   7.563 -0.2772  4.6222 -1.7745
   85MOL0     H11166   1.990   9.977   7.708 -0.1709 -0.5760 -0.2973
   85MOL0     H11167   1.705   9.918   7.621 -1.0184  2.0891 -0.0377
   85MOL0     H11168   1.789  10.074   7.597  0.6399  1.2659  1.0859
   85MOL0     H11169   1.620  10.070   7.787 -0.0639  2.4882 -2.3517
   85MOL0     H11170   1.727   9.953   7.867 -0.6012  0.4634  1.1180
   85MOL0     H11171   1.752  10.216   7.920  0.9470  2.2107 -1.1710
   85MOL0     H11172   1.813  10.239   7.761  0.5963  1.7474  1.4712
   85MOL0     H11173   1.922   9.973   8.030  0.6065 -0.3377  1.1293
   85MOL0     H11174   2.309  10.015   8.058  0.9869 -1.5838  1.2200
   85MOL0     H11175   2.197   9.877   8.045 -0.3487 -1.8771  0.8813
   85MOL0     H11176   2.104  10.059   8.236 -0.8136  0.4872 -2.6662
   85MOL0     H11177   2.267  10.028   8.290 -0.3389 -0.3548  0.1431
   85MOL0     H11178   2.068   9.860   8.363  0.4399  0.1589 -0.0705
   85MOL0     H11179   2.108   9.779   8.220 -0.8249 -0.5349  1.1122
   85MOL0     H11180   2.264   9.666   8.333  0.5965 -0.0687  1.0014
   85MOL0     H11181   2.308   9.804   8.442 -0.7060 -0.9450  0.6321
   85MOL0     H11182   2.495   9.679   8.504  0.6467 -0.2980  0.8293
   85MOL0     H11183   2.721   9.647   8.549 -2.2503 -0.5895  0.3367
   85MOL0     H11184   3.183   9.879   8.536  0.0925  1.8686 -0.6200
   85MOL0     H11185   3.418   9.878   8.545 -0.4827  3.3381  0.0196
   85MOL0     H11186   3.615   9.933   8.160 -2.0749 -0.2677  0.9936
   85MOL0     H11187   3.650   9.753   8.148 -0.7342 -1.1635  1.0994
   85MOL0     H11188   3.834   9.761   8.300  1.3120  0.3363  1.5528
   85MOL0     H11189   3.804   9.934   8.330 -1.1356 -1.0824  1.2040
   85MOL0     H11190   3.864  10.007   8.130 -3.9280 -0.9410  2.0922
   85MOL0     H11191   3.890   9.843   8.054  0.4998  0.1941 -0.5585
   85MOL0     H11192   4.047   9.967   8.288 -0.3764 -0.9782  0.7673
   85MOL0     H11193   4.057   9.804   8.248 -3.3546  1.0660  1.1867
   85MOL0     H11194   4.154  10.035   8.061  0.3844 -0.3462 -0.1002
   85MOL0     H11195   4.143   9.866   8.005 -0.7667 -2.9131  1.8425
   85MOL0     H11196   4.326   9.809   8.171  1.0085  1.1143  2.7797
   85MOL0     H11197   4.293   9.958   8.262 -0.1479 -0.1752  0.4741
   85MOL0     H11198   4.410   9.905   7.982  1.1237 -3.1670  2.4545
   85MOL0     H11199   4.368  10.071   8.046 -2.1271  0.8202  3.8455
   85MOL0     H11200   4.606  10.007   8.057 -1.2183  0.1736 -1.2516
   85MOL0     H11201   4.582   9.863   8.148  2.7203  1.9302  4.1798
   85MOL0     H11202   3.422   9.771   8.119  3.7585  0.1375  1.3818
   85MOL0     H11203   3.170   9.778   8.113 -0.5581  3.8041 -0.1735
   85MOL0     H11204   2.824   9.801   8.155 -1.8176 -2.7727 -1.6935
   85MOL0     H11205   2.590   9.851   8.117 -0.7092  2.4003  1.7244
   85MOL0     H11206   2.545   9.579   7.769 -0.3222  0.5873  0.6711
   85MOL0     H11207   2.714   9.454   7.853 -0.6368  3.5563 -2.5888
   85MOL0     H11208   3.115   9.455   8.165  1.3622 -2.5561 -2.9352
   85MOL0     H11209   3.280   9.306   8.211 -0.9669  0.0521 -2.0119
   85MOL0     H11210   3.387   8.978   8.418  2.8127  1.9322  0.6574
   85MOL0     H11211   3.394   9.143   8.347 -0.4214 -0.6062  1.7170
   85MOL0     H11212   3.413   8.889   8.191 -3.4536  0.2311  0.9333
   85MOL0     H11213   3.419   9.048   8.120 -0.1855 -2.4360 -2.1589
   85MOL0     H11214   3.624   8.901   8.295  0.2650  0.6774  0.7132
   85MOL0     H11215   3.629   9.079   8.304  0.5538 -0.1963 -1.3113
   85MOL0     H11216   3.641   8.910   8.046 -7.0178 -1.1628  4.7177
   85MOL0     H11217   3.652   9.091   8.064 -0.1405 -0.6689  1.3895
   85MOL0     H11218   4.046   8.934   8.111  0.2320  0.5223 -2.6008
   85MOL0     H11219   2.993   8.999   8.301  0.7051 -1.2117 -2.0078
   85MOL0     H11220   2.817   9.139   8.212  0.2509  0.0234 -1.7414
   86MOL0     O11221   3.258   0.094   7.143 -0.4353 -0.2857  0.7300
   86MOL0     C11222   3.233   0.159   7.038  0.6464  1.1302 -0.1153
   86MOL0     O11223   3.249   0.287   7.025  0.1144  0.5050 -0.0479
   86MOL0     C11224   3.234   0.386   7.126  0.4363 -0.3779 -0.4163
   86MOL0     C11225   3.164   0.359   7.246 -0.5203  1.0028  0.3441
   86MOL0     C11226   3.136   0.465   7.331  0.6145 -0.5126  0.1140
   86MOL0     C11227   3.176   0.598   7.308  0.0580 -0.9027  0.0005
   86MOL0     O11228   3.147   0.691   7.399  0.8292 -0.4436 -0.3790
   86MOL0     C11229   3.237   0.807   7.407  0.4313 -0.9643  0.1312
   86MOL0     C11230   3.199   0.867   7.544 -0.9691 -0.4947 -0.0019
   86MOL0     C11231   3.287   0.992   7.570 -0.2158 -0.2312  0.6419
   86MOL0     C11232   3.236   1.073   7.699  0.3571  0.4957  0.8107
   86MOL0     C11233   3.349   1.178   7.743 -0.2251 -0.2973 -0.2523
   86MOL0     C11234   3.485   1.129   7.776 -1.4467  0.8092  0.0610
   86MOL0     C11235   3.578   1.213   7.865 -0.5245  0.8321 -0.1956
   86MOL0     C11236   3.556   1.166   8.010 -0.3694 -0.2022  0.2346
   86MOL0     N11237   3.659   1.211   8.096 -0.9081 -0.5095 -0.3131
   86MOL0     C11238   3.800   1.228   8.067  0.4402 -0.0829  0.4698
   86MOL0     C11239   3.847   1.305   8.165  0.1493  0.9781  0.6518
   86MOL0     C11240   3.994   1.363   8.162 -0.5557  0.3432 -0.7335
   86MOL0     C11241   4.009   1.502   8.214 -1.0299  0.8440  0.1495
   86MOL0     C11242   4.156   1.545   8.248 -0.5360  0.8436 -0.2238
   86MOL0     C11243   4.148   1.685   8.312  0.5775 -0.5079 -0.4233
   86MOL0     O11244   4.087   1.685   8.441  0.9594 -0.2954 -0.6907
   86MOL0     C11245   4.031   1.807   8.478  0.5723  0.1631  0.1006
   86MOL0     C11246   4.125   1.916   8.494  0.5587  0.2565 -0.8635
   86MOL0     C11247   4.067   2.038   8.517  0.5282 -0.4839 -0.7948
   86MOL0     C11248   3.931   2.058   8.548 -0.3026  0.9736 -0.2020
   86MOL0     C11249   3.876   2.192   8.579 -0.4428 -0.1246  0.3686
   86MOL0     O11250   3.741   2.227   8.562  0.1328 -0.0646 -0.3720
   86MOL0     C11251   3.694   2.346   8.545 -0.4504 -0.3402  0.1279
   86MOL0     C11252   3.564   2.375   8.584  0.0250 -0.5254 -0.3815
   86MOL0     C11253   3.510   2.503   8.570  0.8807  0.3324 -0.2364
   86MOL0     C11254   3.573   2.597   8.490  0.1984 -0.7735  1.4043
   86MOL0     O11255   3.509   2.716   8.464  0.8541 -0.5799  0.3375
   86MOL0     C11256   3.546   2.790   8.344 -0.0320 -0.1828 -0.8499
   86MOL0     C11257   3.484   2.926   8.359 -0.0985  0.1454 -0.5098
   86MOL0     C11258   3.498   2.986   8.498 -0.5195  0.1167 -0.3563
   86MOL0     C11259   3.459   3.134   8.508 -0.1794 -0.3834 -0.1959
   86MOL0     C11260   3.518   3.217   8.625 -0.3939  0.2710  0.3338
   86MOL0     C11261   3.670   3.214   8.652 -0.2128 -0.3605  0.4838
   86MOL0     C11262   3.743   3.225   8.523  0.0461 -0.4012 -0.7266
   86MOL0     C11263   3.893   3.182   8.536 -0.1970  0.0515  0.2690
   86MOL0    Cl11264   3.987   3.276   8.413 -0.2902 -0.1821  0.2079
   86MOL0     C11265   3.709   2.568   8.459 -0.4306 -0.5977  0.5800
   86MOL0     C11266   3.769   2.446   8.479 -0.0992 -0.7262 -0.4216
   86MOL0     O11267   3.970   2.268   8.613  0.1230  0.1585 -0.5442
   86MOL0     C11268   3.845   1.945   8.552  0.0752 -0.8000  0.6339
   86MOL0     C11269   3.890   1.819   8.506  0.2010  0.8034  0.5690
   86MOL0     N11270   3.743   1.318   8.263 -0.1705 -0.9210 -0.5406
   86MOL0     N11271   3.633   1.258   8.223  0.2850  0.6377  0.0409
   86MOL0     C11272   3.241   0.615   7.183  0.4104 -0.5708  0.3232
   86MOL0     C11273   3.270   0.511   7.096 -0.0334 -0.7063 -0.4117
   86MOL0     C11274   3.228   0.072   6.922  0.3229 -0.5484 -0.4571
   86MOL0     C11275   3.241   0.135   6.794 -0.1388  0.7340  0.6947
   86MOL0     C11276   3.230   0.066   6.675  0.2592  0.7452  0.1997
   86MOL0     C11277   3.187  -0.065   6.676  0.4102  0.8108  0.3822
   86MOL0     O11278   3.177  -0.115   6.551  0.3285 -0.4818 -0.4800
   86MOL0     C11279   3.204  -0.257   6.554  0.9394 -0.1147  0.7224
   86MOL0     C11280   3.241  -0.298   6.408  0.1095 -0.0798  0.0366
   86MOL0     C11281   3.359  -0.235   6.347 -0.6927  0.0112 -0.4050
   86MOL0     C11282   3.490  -0.273   6.414  0.7502  1.1155  1.0424
   86MOL0     C11283   3.541  -0.407   6.379  0.0412  0.0423  0.3550
   86MOL0     C11284   3.599  -0.516   6.345  0.4603  0.3599  0.6379
   86MOL0     C11285   3.176  -0.134   6.799 -0.1029  0.0121  0.5567
   86MOL0     C11286   3.206  -0.070   6.924 -0.2217 -0.4399  0.6145
   86MOL0     H11287   3.136   0.259   7.277  0.7253  0.4323 -0.3001
   86MOL0     H11288   3.086   0.446   7.425  2.9173  1.4212  1.8409
   86MOL0     H11289   3.225   0.871   7.320 -1.5863  0.1864  1.1972
   86MOL0     H11290   3.340   0.769   7.397  0.8393  0.5482 -2.1228
   86MOL0     H11291   3.219   0.788   7.617 -0.2674 -0.9129 -0.6347
   86MOL0     H11292   3.093   0.894   7.541 -0.8810  0.2033  1.7579
   86MOL0     H11293   3.271   1.061   7.486 -0.9282 -0.8149  0.2839
   86MOL0     H11294   3.394   0.970   7.572  0.0081  0.8362  1.6909
   86MOL0     H11295   3.141   1.122   7.678  3.2182  6.6676  0.0079
   86MOL0     H11296   3.224   1.012   7.789 -0.0468 -0.1843  0.3035
   86MOL0     H11297   3.309   1.244   7.819 -0.1412 -0.4848 -0.0451
   86MOL0     H11298   3.370   1.233   7.650 -1.5021 -1.0388 -1.0154
   86MOL0     H11299   3.532   1.123   7.678  0.1733  0.4814  0.8294
   86MOL0     H11300   3.484   1.027   7.815 -0.6528  0.5760 -0.5084
   86MOL0     H11301   3.680   1.190   7.832 -0.2215  1.4387  0.2819
   86MOL0     H11302   3.553   1.320   7.861 -0.3925  0.8297 -3.0564
   86MOL0     H11303   3.557   1.057   8.020  2.5744 -0.1696  1.1705
   86MOL0     H11304   3.456   1.192   8.047 -0.6890  1.1158 -1.3844
   86MOL0     H11305   3.859   1.194   7.983  0.2578 -0.4831  0.5022
   86MOL0     H11306   4.033   1.366   8.060 -1.1514  1.7501 -0.9423
   86MOL0     H11307   4.068   1.299   8.210 -1.3782 -0.0002  0.1074
   86MOL0     H11308   3.939   1.512   8.297 -0.0220 -1.2290  1.3229
   86MOL0     H11309   3.979   1.576   8.139 -0.9053  0.4175 -0.3297
   86MOL0     H11310   4.205   1.477   8.318 -0.4245  1.0162 -0.1333
   86MOL0     H11311   4.206   1.552   8.151  0.4674 -1.5501  0.0542
   86MOL0     H11312   4.085   1.742   8.243 -1.1796 -2.0577 -0.2080
   86MOL0     H11313   4.250   1.723   8.316  0.5540  0.0481 -3.0969
   86MOL0     H11314   4.232   1.912   8.477  1.0753  3.7352  0.6844
   86MOL0     H11315   4.127   2.124   8.491 -0.1438  0.0019 -0.7911
   86MOL0     H11316   3.508   2.287   8.613  2.6533 -1.5895  1.9971
   86MOL0     H11317   3.416   2.538   8.612  2.1406  1.8344  1.5570
   86MOL0     H11318   3.490   2.748   8.260 -1.2649  2.7623 -1.6589
   86MOL0     H11319   3.654   2.795   8.326 -0.1548 -1.5160 -2.1128
   86MOL0     H11320   3.377   2.906   8.346 -0.3023  1.7344 -1.4517
   86MOL0     H11321   3.514   2.986   8.273  2.3660  0.5977  0.5616
   86MOL0     H11322   3.603   2.969   8.522  0.2305  3.1875 -1.1415
   86MOL0     H11323   3.437   2.926   8.567  3.4275 -4.8524 -0.6364
   86MOL0     H11324   3.496   3.182   8.417  1.2210 -2.2286 -0.6616
   86MOL0     H11325   3.350   3.142   8.512 -0.2516 -0.8577 -0.9493
   86MOL0     H11326   3.469   3.183   8.717 -1.4530  0.6953 -0.0571
   86MOL0     H11327   3.496   3.322   8.608  3.9288  1.2071 -0.7262
   86MOL0     H11328   3.701   3.126   8.709  3.1966 -1.6582 -2.9153
   86MOL0     H11329   3.687   3.304   8.712 -1.9271  0.9254 -0.8620
   86MOL0     H11330   3.697   3.161   8.447  0.6097  0.8251 -2.1684
   86MOL0     H11331   3.736   3.332   8.499 -1.9076 -1.0009 -3.2412
   86MOL0     H11332   3.900   3.073   8.526  2.4758  0.3099 -2.1543
   86MOL0     H11333   3.927   3.214   8.635 -0.1303 -0.1894  0.3247
   86MOL0     H11334   3.765   2.644   8.404  0.6132 -1.1646  0.8493
   86MOL0     H11335   3.871   2.427   8.447 -0.5191 -0.5194 -2.0127
   86MOL0     H11336   3.744   1.953   8.592  0.7927  4.2385  2.0268
   86MOL0     H11337   3.823   1.735   8.490  0.0531  0.1527  3.9009
   86MOL0     H11338   3.292   0.707   7.157 -1.7877 -0.0891 -2.8902
   86MOL0     H11339   3.326   0.530   7.004  2.7846  1.2588  1.5275
   86MOL0     H11340   3.271   0.239   6.784  0.4375  0.4225 -1.1555
   86MOL0     H11341   3.243   0.120   6.582  1.2608  1.3264  0.6722
   86MOL0     H11342   3.120  -0.317   6.590  0.7108 -0.2816 -0.0644
   86MOL0     H11343   3.285  -0.281   6.623  0.0699  1.1675  2.2445
   86MOL0     H11344   3.237  -0.408   6.406 -0.2921 -0.1503  2.3206
   86MOL0     H11345   3.158  -0.271   6.342 -1.6167 -0.3449  2.0087
   86MOL0     H11346   3.352  -0.126   6.348 -3.3327 -0.1175 -0.0385
   86MOL0     H11347   3.363  -0.264   6.241 -2.3010 -1.8008 -0.0208
   86MOL0     H11348   3.560  -0.206   6.363  2.5363 -1.3124  0.1392
   86MOL0     H11349   3.492  -0.265   6.523  0.6358  1.3593  1.0294
   86MOL0     H11350   3.659  -0.605   6.336  0.4598  0.5955 -4.7438
   86MOL0     H11351   3.147  -0.238   6.809  1.2998 -0.5449 -0.8066
   86MOL0     H11352   3.190  -0.124   7.017 -1.7704  1.1862  1.3539
   87MOL0     O11353   9.255   5.431   0.941 -0.3170  0.0584 -0.2588
   87MOL0     C11354   9.308   5.350   0.863  0.2506  0.5986  0.2073
   87MOL0     O11355   9.252   5.228   0.830  0.2082 -0.0967  0.2329
   87MOL0     C11356   9.116   5.198   0.846 -0.3586 -0.2384  0.2640
   87MOL0     C11357   9.054   5.129   0.745 -0.0831 -0.4566  0.1056
   87MOL0     C11358   8.919   5.098   0.745  0.2826  0.2496  0.9162
   87MOL0     C11359   8.848   5.141   0.855  0.0052  0.6524 -0.6500
   87MOL0     O11360   8.710   5.110   0.869  1.2425 -0.0172  0.1393
   87MOL0     C11361   8.682   4.974   0.908 -0.3247  0.8177 -0.1886
   87MOL0     C11362   8.534   4.949   0.881  0.0573 -0.5433  0.6474
   87MOL0     C11363   8.524   4.852   0.766 -0.2923  0.1722  0.7698
   87MOL0     C11364   8.378   4.801   0.744 -1.0195  0.1310  0.2658
   87MOL0     C11365   8.343   4.699   0.632  0.7358  0.0811 -0.0146
   87MOL0     C11366   8.200   4.709   0.592  0.6312 -0.2935  0.4368
   87MOL0     C11367   8.162   4.614   0.482 -0.2444  0.2158  1.3306
   87MOL0     C11368   8.022   4.632   0.427  0.3528 -0.2991 -0.1070
   87MOL0     N11369   7.926   4.550   0.504  0.2338  0.3299 -0.2177
   87MOL0     C11370   7.890   4.426   0.464 -0.8594 -0.5783  0.2897
   87MOL0     C11371   7.816   4.392   0.571 -0.6883  1.0615  0.2642
   87MOL0     C11372   7.723   4.267   0.569 -0.1521  0.6250 -0.9549
   87MOL0     C11373   7.578   4.291   0.532 -0.7203 -0.2755 -0.2147
   87MOL0     C11374   7.481   4.172   0.548  0.0157  0.0413 -0.7539
   87MOL0     C11375   7.503   4.072   0.439 -0.6840  0.0071 -0.0169
   87MOL0     O11376   7.446   3.940   0.455 -0.0941 -0.8784 -0.3258
   87MOL0     C11377   7.320   3.923   0.429  0.0719  0.3219  0.8822
   87MOL0     C11378   7.227   4.019   0.392 -0.0602  0.0540 -0.4187
   87MOL0     C11379   7.097   3.983   0.371 -0.2669  0.9038 -0.2640
   87MOL0     C11380   7.053   3.848   0.362  1.1838  0.3992  0.1883
   87MOL0     C11381   6.914   3.805   0.335  0.3562 -0.3948  1.7100
   87MOL0     O11382   6.882   3.669   0.327 -0.3402  0.5758 -0.5111
   87MOL0     C11383   6.754   3.640   0.279 -0.3144  1.0523 -0.1879
   87MOL0     C11384   6.710   3.689   0.155 -0.8420  0.4483 -0.3936
   87MOL0     C11385   6.586   3.651   0.107  0.4023  0.5555  0.3791
   87MOL0     C11386   6.502   3.565   0.174 -0.3796  0.5983  0.7683
   87MOL0     O11387   6.384   3.518   0.119 -0.5432  0.4138  0.7145
   87MOL0     C11388   6.311   3.613   0.044 -0.1202 -0.0120 -1.1177
   87MOL0     C11389   6.163   3.566   0.013  0.3204  0.2833 -0.4394
   87MOL0     C11390   6.168   3.435  -0.058  1.3766  0.5094 -0.5823
   87MOL0     C11391   6.253   3.444  -0.193 -0.1431  0.4520 -0.4897
   87MOL0     C11392   6.212   3.344  -0.305 -0.6432 -0.5695 -1.1800
   87MOL0     C11393   6.061   3.342  -0.339  0.4734 -0.2740  0.3449
   87MOL0     C11394   6.043   3.265  -0.471  0.0895 -0.2276 -0.6681
   87MOL0     C11395   6.057   3.117  -0.460  0.3620 -0.2135  0.5255
   87MOL0    Cl11396   6.014   3.051  -0.626  0.7908 -0.6821 -0.5030
   87MOL0     C11397   6.547   3.512   0.297 -0.0470 -0.0330 -0.6780
   87MOL0     C11398   6.666   3.559   0.350 -0.1751  1.0222  0.2036
   87MOL0     O11399   6.828   3.894   0.326 -0.3670  0.2232  0.0432
   87MOL0     C11400   7.152   3.752   0.384  0.3352 -0.5596  0.6882
   87MOL0     C11401   7.282   3.786   0.419 -0.2492 -0.8181  0.1973
   87MOL0     N11402   7.830   4.484   0.670 -0.3485 -0.6658 -0.5260
   87MOL0     N11403   7.895   4.582   0.637 -0.8231  0.6277  0.0778
   87MOL0     C11404   8.910   5.207   0.962 -0.3478 -0.7850  0.5267
   87MOL0     C11405   9.046   5.224   0.956  0.3410 -0.2872 -0.0610
   87MOL0     C11406   9.448   5.379   0.807  0.0627  0.4511 -0.8152
   87MOL0     C11407   9.504   5.506   0.805  0.0568 -0.5848  0.0605
   87MOL0     C11408   9.645   5.519   0.782  0.2501  1.1199  0.5225
   87MOL0     C11409   9.718   5.402   0.735 -0.3555  0.0343  0.4664
   87MOL0     O11410   9.849   5.405   0.683  0.0082  0.5859 -0.5107
   87MOL0     C11411   9.935   5.522   0.701  0.4311  0.3483  1.1190
   87MOL0     C11412  10.084   5.494   0.675 -0.4556 -0.7547 -1.2083
   87MOL0     C11413  10.152   5.411   0.783 -0.6304 -0.1780 -0.8831
   87MOL0     C11414  10.118   5.255   0.760  0.6562 -0.4403 -0.0014
   87MOL0     C11415  10.222   5.169   0.825  0.0061 -0.1114  0.9069
   87MOL0     C11416  10.316   5.117   0.875 -0.3056 -0.2450  0.0611
   87MOL0     C11417   9.660   5.276   0.734 -1.2165  0.6482  0.5731
   87MOL0     C11418   9.529   5.266   0.775 -0.1584 -0.0805  0.7282
   87MOL0     H11419   9.115   5.108   0.658 -0.6460 -1.8934  0.0271
   87MOL0     H11420   8.870   5.043   0.665  1.4868  1.8221 -1.0123
   87MOL0     H11421   8.709   4.950   1.011 -3.5974 -2.0345  0.1677
   87MOL0     H11422   8.746   4.905   0.851  2.1804  0.4951  2.7493
   87MOL0     H11423   8.478   5.040   0.857 -2.1903 -1.3832  2.3603
   87MOL0     H11424   8.490   4.917   0.976 -2.2519  0.4244 -0.0242
   87MOL0     H11425   8.594   4.768   0.774 -3.2633 -2.4299  1.2184
   87MOL0     H11426   8.544   4.912   0.677 -1.3254 -2.2249 -1.1999
   87MOL0     H11427   8.348   4.753   0.837 -1.5695  0.1440  0.0961
   87MOL0     H11428   8.313   4.888   0.751  0.8986  1.7552 -0.9116
   87MOL0     H11429   8.379   4.598   0.655  2.7766  1.0419  1.3585
   87MOL0     H11430   8.410   4.723   0.549 -1.5387 -1.9108 -2.5827
   87MOL0     H11431   8.166   4.807   0.557 -2.3930 -1.0831  0.8934
   87MOL0     H11432   8.139   4.684   0.679 -0.1344 -0.4240 -0.1278
   87MOL0     H11433   8.230   4.636   0.399  0.4881  0.1028  1.8907
   87MOL0     H11434   8.172   4.510   0.516 -1.8414 -0.3271  0.2712
   87MOL0     H11435   8.017   4.620   0.319 -3.3453 -4.2663  0.2633
   87MOL0     H11436   7.986   4.733   0.448  2.0905  0.0625  1.4369
   87MOL0     H11437   7.908   4.382   0.366 -0.1932  1.3444 -0.5045
   87MOL0     H11438   7.721   4.212   0.663 -1.7293 -0.4593 -1.5888
   87MOL0     H11439   7.750   4.187   0.500 -2.1821 -0.1298 -0.9144
   87MOL0     H11440   7.584   4.329   0.429  1.1385  3.0529  0.9569
   87MOL0     H11441   7.527   4.372   0.586 -2.0485 -0.6723 -0.8278
   87MOL0     H11442   7.500   4.127   0.646  1.8998 -0.9367 -1.5141
   87MOL0     H11443   7.377   4.206   0.544  0.7127  2.3476 -0.8831
   87MOL0     H11444   7.610   4.055   0.425 -0.4301 -1.5877  2.9817
   87MOL0     H11445   7.471   4.116   0.344  0.5747  0.0490 -0.4378
   87MOL0     H11446   7.248   4.124   0.406  0.5981 -0.1801  0.4476
   87MOL0     H11447   7.023   4.063   0.378 -1.7381 -0.5109  1.4456
   87MOL0     H11448   6.760   3.756   0.086 -2.1750  0.6145 -1.2415
   87MOL0     H11449   6.563   3.687   0.007  1.7753 -1.0178 -0.5432
   87MOL0     H11450   6.370   3.620  -0.047  1.7011  0.0320  0.0272
   87MOL0     H11451   6.308   3.707   0.101  2.8351  1.4054 -3.0943
   87MOL0     H11452   6.104   3.642  -0.039  0.0025 -1.2068 -2.3629
   87MOL0     H11453   6.105   3.546   0.103 -1.4502 -0.1556 -1.6302
   87MOL0     H11454   6.064   3.418  -0.086  2.0256 -0.6327 -2.5056
   87MOL0     H11455   6.203   3.364   0.018  1.0607 -0.4765 -1.3528
   87MOL0     H11456   6.241   3.546  -0.231 -2.4002  0.2239 -0.5453
   87MOL0     H11457   6.359   3.426  -0.172 -0.6401  0.1033  2.0110
   87MOL0     H11458   6.231   3.247  -0.257  4.1933  1.4243  1.6602
   87MOL0     H11459   6.280   3.353  -0.391  4.0202 -3.8060  1.7263
   87MOL0     H11460   6.032   3.445  -0.362 -1.9696 -1.0758 -0.5190
   87MOL0     H11461   5.994   3.301  -0.263 -1.7758  1.7421 -0.4131
   87MOL0     H11462   5.944   3.285  -0.512 -0.4149  0.2491  0.7220
   87MOL0     H11463   6.123   3.300  -0.537 -0.2547 -0.9335 -1.4735
   87MOL0     H11464   5.996   3.079  -0.378 -0.6631  0.8390  0.2797
   87MOL0     H11465   6.157   3.086  -0.432 -0.6853 -1.7303  2.8261
   87MOL0     H11466   6.492   3.446   0.363  0.7533 -0.5117 -0.4705
   87MOL0     H11467   6.689   3.526   0.451  2.2219  0.3318 -0.5035
   87MOL0     H11468   7.133   3.645   0.383  0.3959 -0.5962  2.0022
   87MOL0     H11469   7.359   3.714   0.442  0.5614 -0.4954 -1.3522
   87MOL0     H11470   8.847   5.251   1.039 -0.3992  1.6888 -0.8063
   87MOL0     H11471   9.085   5.274   1.044 -2.0418 -0.5968  1.2479
   87MOL0     H11472   9.444   5.593   0.830  1.4360  0.2642  0.5835
   87MOL0     H11473   9.693   5.616   0.779  0.3800  1.0391 -0.3659
   87MOL0     H11474   9.922   5.546   0.807 -3.7191 -0.6660  1.0215
   87MOL0     H11475   9.896   5.607   0.644  1.6687 -1.3939 -2.7021
   87MOL0     H11476  10.101   5.453   0.575 -1.9295 -0.7464 -1.4837
   87MOL0     H11477  10.143   5.586   0.682 -0.6442 -0.6893 -0.4324
   87MOL0     H11478  10.118   5.438   0.883  4.2007  0.7248  0.7804
   87MOL0     H11479  10.258   5.437   0.780 -0.3109 -0.7049  2.3850
   87MOL0     H11480  10.020   5.227   0.801  1.7057 -2.5434  1.2389
   87MOL0     H11481  10.114   5.222   0.656  3.4568  1.1415 -0.7102
   87MOL0     H11482  10.388   5.059   0.930  1.6736  0.2454 -1.8820
   87MOL0     H11483   9.722   5.205   0.681 -2.1304  0.6102 -0.4772
   87MOL0     H11484   9.476   5.171   0.774  0.0354 -0.1893  0.4787
   88MOL0     O11485   8.602   8.238   8.645  1.1560 -0.6859  0.5757
   88MOL0     C11486   8.683   8.229   8.733 -0.1142 -0.4631  0.4722
   88MOL0     O11487   8.719   8.117   8.796  0.2077  0.1453 -0.1258
   88MOL0     C11488   8.647   8.000   8.795  0.3738 -0.3896 -0.7250
   88MOL0     C11489   8.503   7.996   8.783  1.2142  0.2133 -0.2482
   88MOL0     C11490   8.442   7.869   8.789  0.4109 -0.4991  0.1469
   88MOL0     C11491   8.514   7.759   8.788  0.3113 -0.1979  0.9941
   88MOL0     O11492   8.462   7.635   8.770 -1.0130  0.0140 -0.4764
   88MOL0     C11493   8.329   7.606   8.812  0.7513  0.0147  0.0342
   88MOL0     C11494   8.306   7.465   8.881 -0.3102 -1.5582  0.3584
   88MOL0     C11495   8.159   7.433   8.900  0.1866  0.3257 -0.5265
   88MOL0     C11496   8.138   7.303   8.988 -0.1140 -0.3640 -0.5720
   88MOL0     C11497   8.082   7.337   9.125 -0.0474 -1.0176 -0.1271
   88MOL0     C11498   8.041   7.211   9.186 -0.0234 -0.4581  0.3690
   88MOL0     C11499   8.060   7.226   9.339 -0.1520 -0.3920  0.3676
   88MOL0     C11500   7.992   7.354   9.400  0.0198  0.3930 -0.1383
   88MOL0     N11501   8.019   7.363   9.540 -0.8664 -0.4926  0.2831
   88MOL0     C11502   8.147   7.387   9.584 -0.0908  0.2943 -0.0146
   88MOL0     C11503   8.135   7.427   9.715 -0.0711  0.1122 -0.4208
   88MOL0     C11504   8.239   7.443   9.816  0.0748  0.4711  0.1956
   88MOL0     C11505   8.339   7.562   9.801  0.5816 -0.4494  0.5548
   88MOL0     C11506   8.286   7.685   9.876  0.5377 -0.3014 -1.0775
   88MOL0     C11507   8.355   7.812   9.839  0.8079  0.0495 -0.0273
   88MOL0     O11508   8.485   7.809   9.877 -0.2266 -0.2015 -0.8604
   88MOL0     C11509   8.567   7.908   9.815 -0.1210 -0.4822 -0.5758
   88MOL0     C11510   8.704   7.900   9.830  1.0775  1.2045  0.1300
   88MOL0     C11511   8.785   7.991   9.778 -0.3321 -0.5672 -0.2878
   88MOL0     C11512   8.740   8.104   9.704 -0.8219 -0.0381  0.3798
   88MOL0     C11513   8.828   8.215   9.671 -0.5869 -0.0452  0.4974
   88MOL0     O11514   8.960   8.210   9.703 -0.4219  0.1405  0.2893
   88MOL0     C11515   9.034   8.325   9.718 -0.8828 -0.5144 -0.6699
   88MOL0     C11516   9.141   8.352   9.637  0.4932  0.5724  0.5892
   88MOL0     C11517   9.226   8.465   9.646  0.6141  0.2846  0.0453
   88MOL0     C11518   9.198   8.563   9.737 -0.0074 -0.9858 -0.7699
   88MOL0     O11519   9.301   8.656   9.756  0.0133  0.0594 -0.0689
   88MOL0     C11520   9.296   8.743   9.863  0.8614 -0.3172 -0.1837
   88MOL0     C11521   9.432   8.810   9.858 -0.0157 -0.9720 -0.9989
   88MOL0     C11522   9.484   8.827  10.006 -0.7821 -0.0638  0.0133
   88MOL0     C11523   9.609   8.915  10.004  0.7331  0.0476 -1.1224
   88MOL0     C11524   9.640   8.959  10.147 -0.4269 -0.4626  0.6928
   88MOL0     C11525   9.758   9.047  10.166 -0.0777 -0.0969  0.1477
   88MOL0     C11526   9.825   9.069  10.297 -0.2339  0.1161  0.7913
   88MOL0     C11527   9.734   9.110  10.413 -0.0127  0.4125 -0.6584
   88MOL0    Cl11528   9.631   9.250  10.362 -0.0616 -0.2087  0.1773
   88MOL0     C11529   9.086   8.547   9.816 -0.1593 -0.4364  0.0150
   88MOL0     C11530   9.004   8.431   9.808  0.6300  0.1093  0.0396
   88MOL0     O11531   8.770   8.321   9.636 -0.1257 -0.1062  0.4706
   88MOL0     C11532   8.604   8.114   9.681  0.2589  0.1788  0.4114
   88MOL0     C11533   8.521   8.013   9.734 -0.2086 -1.3113 -0.3678
   88MOL0     N11534   7.999   7.421   9.743 -0.8011  0.2112 -0.5260
   88MOL0     N11535   7.930   7.397   9.632  0.8434 -0.3953 -0.1108
   88MOL0     C11536   8.652   7.758   8.800 -0.3358 -0.3440  0.1057
   88MOL0     C11537   8.724   7.882   8.811 -0.2585  0.7422 -0.3348
   88MOL0     C11538   8.765   8.357   8.762 -0.1587  0.0404 -0.5816
   88MOL0     C11539   8.882   8.348   8.826 -0.1694 -0.4696 -0.4436
   88MOL0     C11540   8.972   8.456   8.834  0.6287 -0.3810  0.4746
   88MOL0     C11541   8.942   8.578   8.766 -0.3624 -0.2532  0.5214
   88MOL0     O11542   9.028   8.687   8.780  0.0610  0.3972 -0.3993
   88MOL0     C11543   8.991   8.809   8.718 -0.7061 -0.2838  0.1635
   88MOL0     C11544   9.097   8.917   8.759  0.2114  0.1060 -0.7019
   88MOL0     C11545   9.075   8.963   8.908 -0.1228  0.0983  0.3511
   88MOL0     C11546   9.163   9.085   8.955  0.1228 -0.3454 -0.1487
   88MOL0     C11547   9.305   9.070   8.960  0.9834  0.7580  1.4030
   88MOL0     C11548   9.412   9.018   8.974  0.7466  1.0634  0.8465
   88MOL0     C11549   8.811   8.584   8.706  0.6139 -0.2656 -0.5538
   88MOL0     C11550   8.724   8.479   8.709  0.6747 -0.4823  0.2042
   88MOL0     H11551   8.445   8.087   8.798  0.9151 -0.1685  1.1085
   88MOL0     H11552   8.334   7.859   8.783 -0.1123  0.1674  4.7277
   88MOL0     H11553   8.262   7.596   8.727  0.0075 -2.8778  0.8647
   88MOL0     H11554   8.301   7.685   8.883 -2.1666 -1.8118  1.0954
   88MOL0     H11555   8.357   7.467   8.977  1.9172 -2.7289 -0.7175
   88MOL0     H11556   8.353   7.389   8.818  0.0915 -1.5924  0.6997
   88MOL0     H11557   8.106   7.426   8.805  0.8084 -1.6106 -0.7674
   88MOL0     H11558   8.100   7.510   8.950 -0.0600 -0.1441 -0.0875
   88MOL0     H11559   8.071   7.253   8.918  0.5568  3.0160 -3.9443
   88MOL0     H11560   8.238   7.258   8.997  0.4890  0.4554 -2.5988
   88MOL0     H11561   7.993   7.400   9.113  0.9181  0.9686  2.3758
   88MOL0     H11562   8.154   7.397   9.181 -2.5641  0.6941  1.5234
   88MOL0     H11563   8.096   7.126   9.143 -1.9866 -0.0522 -3.2499
   88MOL0     H11564   7.936   7.201   9.158  0.5145  1.2069 -2.5789
   88MOL0     H11565   8.003   7.141   9.377 -2.9160  0.8350 -0.7701
   88MOL0     H11566   8.161   7.210   9.378 -0.2452 -0.8720  0.4243
   88MOL0     H11567   7.883   7.354   9.398 -0.0219 -0.4374  1.1947
   88MOL0     H11568   8.035   7.440   9.347 -2.2378 -0.6488 -4.0559
   88MOL0     H11569   8.241   7.386   9.531  0.1509 -0.7337  0.3986
   88MOL0     H11570   8.289   7.346   9.827  0.0451  0.5870  1.5945
   88MOL0     H11571   8.189   7.450   9.913 -0.0408 -1.1825  0.2872
   88MOL0     H11572   8.343   7.593   9.696  2.4742 -4.6666 -0.8416
   88MOL0     H11573   8.441   7.540   9.833  1.3527 -0.3249 -1.6483
   88MOL0     H11574   8.184   7.705   9.843  1.3216  0.5985 -3.1202
   88MOL0     H11575   8.289   7.663   9.983 -1.4760  0.3888 -0.8353
   88MOL0     H11576   8.312   7.894   9.898 -2.1117 -0.7626 -0.8700
   88MOL0     H11577   8.334   7.825   9.733 -6.5347 -1.9097  0.6211
   88MOL0     H11578   8.736   7.813   9.885 -2.6526 -0.1643  0.4321
   88MOL0     H11579   8.894   7.994   9.774 -0.3154  4.1004 -1.3612
   88MOL0     H11580   9.164   8.281   9.558  1.4167  1.6304 -0.1241
   88MOL0     H11581   9.308   8.473   9.576 -0.5330 -0.0180 -1.3817
   88MOL0     H11582   9.279   8.682   9.952  4.3271 -0.2674  0.6861
   88MOL0     H11583   9.216   8.816   9.847 -0.1012 -0.3912  3.3721
   88MOL0     H11584   9.413   8.909   9.816  1.4718 -0.4803 -0.5836
   88MOL0     H11585   9.502   8.744   9.805  1.0685 -0.6798  0.0236
   88MOL0     H11586   9.512   8.732  10.053  1.6834  0.4950 -0.2150
   88MOL0     H11587   9.406   8.878  10.063 -2.5837 -0.2247 -2.1650
   88MOL0     H11588   9.686   8.865   9.945  2.0367  2.1833 -1.3556
   88MOL0     H11589   9.576   9.000   9.943  0.4683 -0.8348 -2.2332
   88MOL0     H11590   9.635   8.874  10.216  0.6137 -0.1201  1.2220
   88MOL0     H11591   9.556   9.027  10.163 -0.9921 -1.0853  0.4254
   88MOL0     H11592   9.738   9.148  10.130  0.2537  1.4092  3.7001
   88MOL0     H11593   9.832   9.006  10.097 -0.2579  0.4390 -0.3672
   88MOL0     H11594   9.862   8.973  10.334 -3.3841 -1.7941 -0.6258
   88MOL0     H11595   9.899   9.150  10.292  1.6766 -1.5319  0.8192
   88MOL0     H11596   9.787   9.133  10.505 -3.8943  2.2067  1.3646
   88MOL0     H11597   9.669   9.026  10.439 -2.1105  2.4985  1.2452
   88MOL0     H11598   9.057   8.626   9.884  1.1634 -0.1785  0.2974
   88MOL0     H11599   8.938   8.403   9.890 -1.1070  1.2693 -0.8926
   88MOL0     H11600   8.545   8.192   9.635 -2.0586 -0.6229  1.8413
   88MOL0     H11601   8.414   8.018   9.715  0.1456  0.2413 -2.3415
   88MOL0     H11602   8.705   7.664   8.794  0.3596  0.1285 -4.1742
   88MOL0     H11603   8.832   7.875   8.820 -0.4400 -0.6823  1.2788
   88MOL0     H11604   8.914   8.253   8.868  1.3673 -0.4501 -1.5185
   88MOL0     H11605   9.070   8.439   8.877  1.0949 -6.1013 -1.9316
   88MOL0     H11606   8.896   8.834   8.764 -0.8673 -3.1737  1.6399
   88MOL0     H11607   8.982   8.806   8.609  0.9933  1.7103 -0.0977
   88MOL0     H11608   9.202   8.896   8.738  0.7259  0.5387  1.2059
   88MOL0     H11609   9.080   9.008   8.701  2.9934 -0.2088 -2.1537
   88MOL0     H11610   9.094   8.887   8.985  1.0528  1.4708  1.4973
   88MOL0     H11611   8.969   8.988   8.917  0.5138  2.3298  3.5565
   88MOL0     H11612   9.147   9.166   8.883  1.6280 -0.3748 -0.5403
   88MOL0     H11613   9.136   9.107   9.059  0.5704  2.9406 -0.6304
   88MOL0     H11614   9.504   8.964   8.976  1.6540  2.2560 -2.3107
   88MOL0     H11615   8.773   8.680   8.672  2.3103  0.7325  0.2597
   88MOL0     H11616   8.641   8.470   8.640  1.6149 -2.6374 -0.7138
   89MOL0     O11617   6.663   1.149  10.499  0.1091 -0.9595  0.6819
   89MOL0     C11618   6.616   1.095  10.397 -0.0256 -0.0462 -0.4060
   89MOL0     O11619   6.484   1.077  10.370  0.1013  0.5010 -0.4044
   89MOL0     C11620   6.388   1.166  10.424  0.6240 -0.6596  0.6569
   89MOL0     C11621   6.269   1.104  10.458  0.3618 -0.1928  0.0265
   89MOL0     C11622   6.163   1.178  10.504  0.0427 -0.1281 -0.0188
   89MOL0     C11623   6.177   1.314  10.523  0.7359 -0.2621 -0.1753
   89MOL0     O11624   6.079   1.356  10.606  0.1063 -0.1087  0.2840
   89MOL0     C11625   6.078   1.501  10.617 -0.4758  0.2610  0.4810
   89MOL0     C11626   5.943   1.551  10.672  0.2999 -0.6438 -0.0257
   89MOL0     C11627   5.900   1.485  10.801 -0.2940 -0.0957  0.1545
   89MOL0     C11628   5.802   1.567  10.878  0.1723  0.4633 -0.1953
   89MOL0     C11629   5.719   1.488  10.983  1.1273 -0.6099  0.7416
   89MOL0     C11630   5.561   1.476  10.949  0.1311  0.2434 -1.5868
   89MOL0     C11631   5.489   1.371  11.033 -0.0501 -0.5703  0.3538
   89MOL0     C11632   5.462   1.413  11.171  0.7398  0.8562  0.4206
   89MOL0     N11633   5.341   1.481  11.196  0.2474 -0.1690 -0.5899
   89MOL0     C11634   5.215   1.422  11.228  0.7845  0.3976 -0.2581
   89MOL0     C11635   5.125   1.527  11.250  0.3789 -0.8703 -0.1308
   89MOL0     C11636   4.980   1.524  11.299 -0.3182 -0.8537  0.8796
   89MOL0     C11637   4.885   1.559  11.190 -0.1391 -0.2756  0.6266
   89MOL0     C11638   4.852   1.436  11.097 -0.4756 -0.3333  0.7482
   89MOL0     C11639   4.808   1.488  10.961 -0.5761  0.6924  0.2386
   89MOL0     O11640   4.758   1.385  10.868 -0.0634 -0.1832 -0.3262
   89MOL0     C11641   4.841   1.276  10.831 -0.6735  1.4442  0.1568
   89MOL0     C11642   4.792   1.148  10.843  0.3183  0.1086 -0.0366
   89MOL0     C11643   4.869   1.034  10.823  0.4754  0.0506 -0.3445
   89MOL0     C11644   5.004   1.049  10.775  0.2624 -0.1274  0.3135
   89MOL0     C11645   5.091   0.932  10.767  1.4496 -0.0372 -0.0361
   89MOL0     O11646   5.210   0.951  10.708  0.3847  0.1787 -0.5957
   89MOL0     C11647   5.295   0.843  10.694 -0.3157 -0.2721 -0.5263
   89MOL0     C11648   5.368   0.788  10.800  0.7005 -0.6347 -0.5572
   89MOL0     C11649   5.440   0.670  10.792  0.0245 -0.5991  0.2620
   89MOL0     C11650   5.443   0.609  10.663  0.1922 -0.1751  0.1130
   89MOL0     O11651   5.522   0.496  10.649  1.1984  0.1829  0.0031
   89MOL0     C11652   5.593   0.451  10.529 -0.0268 -0.9833  0.4148
   89MOL0     C11653   5.654   0.580  10.468  0.2297 -0.8352  0.1896
   89MOL0     C11654   5.767   0.538  10.375 -0.3526  0.0462 -0.1073
   89MOL0     C11655   5.700   0.511  10.233 -0.7930  0.0130  0.5450
   89MOL0     C11656   5.796   0.462  10.127 -0.4629 -0.6763 -0.4100
   89MOL0     C11657   5.743   0.499   9.991  0.7964 -0.9221 -0.4616
   89MOL0     C11658   5.812   0.424   9.875  0.1332 -0.2410 -0.7262
   89MOL0     C11659   5.838   0.526   9.764  0.6082  0.6246 -0.4974
   89MOL0    Cl11660   5.689   0.601   9.703 -0.3259  0.1650 -0.3815
   89MOL0     C11661   5.368   0.660  10.557 -0.0573  0.7534 -0.1633
   89MOL0     C11662   5.295   0.783  10.571 -0.8613  0.1077  0.1687
   89MOL0     O11663   5.047   0.830  10.811 -0.3496  0.1559 -0.4106
   89MOL0     C11664   5.047   1.174  10.770 -0.8130 -0.8400 -0.3166
   89MOL0     C11665   4.970   1.288  10.786  0.2410 -0.9911 -0.1431
   89MOL0     N11666   5.191   1.645  11.236 -0.1573  0.0982  0.1341
   89MOL0     N11667   5.319   1.615  11.202 -0.0165 -0.2142 -0.4539
   89MOL0     C11668   6.307   1.375  10.495 -0.2897  0.4843 -0.3337
   89MOL0     C11669   6.412   1.298  10.440 -0.1197 -0.5967 -0.3126
   89MOL0     C11670   6.721   1.018  10.316  0.2956 -0.3711  0.0211
   89MOL0     C11671   6.844   0.996  10.362  0.6385  0.1783  0.3442
   89MOL0     C11672   6.931   0.911  10.300 -0.6439  0.4135  0.4729
   89MOL0     C11673   6.889   0.838  10.190 -0.1231  0.4556 -0.1424
   89MOL0     O11674   6.982   0.777  10.107  1.5894 -0.2196 -0.2554
   89MOL0     C11675   7.057   0.670  10.168 -0.3612 -0.9464 -0.3404
   89MOL0     C11676   7.211   0.712  10.168 -0.0553  0.1033  0.2849
   89MOL0     C11677   7.304   0.627  10.245  0.2570  0.2914 -0.2249
   89MOL0     C11678   7.303   0.624  10.401  0.1763  0.6686 -0.1911
   89MOL0     C11679   7.359   0.742  10.468 -0.3556  0.2152  0.7965
   89MOL0     C11680   7.411   0.832  10.524  0.2696 -0.1694 -0.2859
   89MOL0     C11681   6.769   0.864  10.131 -0.1484 -0.3189 -0.0999
   89MOL0     C11682   6.679   0.946  10.194 -0.0948 -1.0462 -1.2189
   89MOL0     H11683   6.253   0.997  10.452 -2.6155  0.1443  0.3662
   89MOL0     H11684   6.065   1.135  10.520 -0.2385  0.7958  0.7801
   89MOL0     H11685   6.096   1.539  10.516  0.4388 -1.0776  0.1084
   89MOL0     H11686   6.157   1.532  10.687  2.8415  2.1026 -3.6736
   89MOL0     H11687   5.862   1.535  10.600  0.1975 -0.3665  0.0291
   89MOL0     H11688   5.970   1.657  10.676 -1.2957 -0.2028  0.0148
   89MOL0     H11689   5.988   1.472  10.865  0.0020 -2.1093 -0.5807
   89MOL0     H11690   5.853   1.389  10.776  1.4120 -0.9799  0.2280
   89MOL0     H11691   5.853   1.648  10.931 -0.5884  1.3863 -0.8323
   89MOL0     H11692   5.727   1.612  10.812 -3.1903 -1.0314  2.3243
   89MOL0     H11693   5.718   1.527  11.086 -2.8253  1.4491  0.1527
   89MOL0     H11694   5.755   1.386  10.996 -0.2631 -1.4103 -1.2314
   89MOL0     H11695   5.546   1.450  10.844 -2.1588  2.2110 -1.8154
   89MOL0     H11696   5.514   1.574  10.961 -1.4350 -0.7519  1.4540
   89MOL0     H11697   5.398   1.348  10.978 -0.7807  1.5508  0.5791
   89MOL0     H11698   5.557   1.286  11.045 -1.2776 -1.2783  3.0632
   89MOL0     H11699   5.538   1.487  11.198  0.3190  1.5429 -0.2604
   89MOL0     H11700   5.484   1.330  11.240  2.3433  0.7109 -0.2094
   89MOL0     H11701   5.194   1.316  11.242  1.7356  0.3701  1.0501
   89MOL0     H11702   4.964   1.600  11.376 -3.2527 -0.2492 -0.2042
   89MOL0     H11703   4.948   1.426  11.335 -3.2643 -0.1968  0.2399
   89MOL0     H11704   4.919   1.647  11.135  1.6486 -3.2139 -3.5374
   89MOL0     H11705   4.789   1.593  11.228 -0.5667 -0.2765 -0.4219
   89MOL0     H11706   4.937   1.369  11.082  1.1434  1.6379  0.6477
   89MOL0     H11707   4.766   1.383  11.137 -0.8123  1.3512  2.3903
   89MOL0     H11708   4.891   1.547  10.919 -0.6845 -1.2332 -2.9820
   89MOL0     H11709   4.730   1.562  10.981  1.2786  2.8188  0.1115
   89MOL0     H11710   4.694   1.135  10.889  0.9185 -1.1271  0.9556
   89MOL0     H11711   4.815   0.940  10.825  2.9984 -1.4939  0.1260
   89MOL0     H11712   5.358   0.832  10.899 -2.2499 -2.7074  0.2017
   89MOL0     H11713   5.484   0.617  10.876  1.0335 -2.4896 -1.3743
   89MOL0     H11714   5.519   0.401  10.465  0.5796 -0.5742 -0.6387
   89MOL0     H11715   5.665   0.372  10.552  0.6026  0.1119  2.4113
   89MOL0     H11716   5.690   0.649  10.544  2.0348 -0.1635 -1.2056
   89MOL0     H11717   5.572   0.631  10.415 -0.3447 -2.0961 -0.1818
   89MOL0     H11718   5.819   0.448  10.410 -2.0193 -0.4627  1.1958
   89MOL0     H11719   5.849   0.610  10.373  1.2869 -1.7531 -1.6815
   89MOL0     H11720   5.613   0.447  10.248  0.7504 -2.1641  0.8705
   89MOL0     H11721   5.673   0.607  10.188  2.6074  1.4944  1.3045
   89MOL0     H11722   5.816   0.354  10.137  0.4509 -0.7458 -2.4293
   89MOL0     H11723   5.888   0.520  10.130 -2.2183  2.4384 -1.8233
   89MOL0     H11724   5.762   0.606   9.980  0.9884 -0.7570  1.2019
   89MOL0     H11725   5.635   0.485   9.977  0.5683  0.0363  0.2717
   89MOL0     H11726   5.904   0.380   9.914  0.0726  2.3287  2.8507
   89MOL0     H11727   5.745   0.347   9.838  0.8369  0.3336 -3.4059
   89MOL0     H11728   5.888   0.468   9.686  0.0341 -2.5344  1.3096
   89MOL0     H11729   5.914   0.599   9.791  2.4453 -2.1424  2.5173
   89MOL0     H11730   5.361   0.618  10.457 -2.0658  0.4508  0.0609
   89MOL0     H11731   5.251   0.825  10.481  0.0890  1.7224  0.4226
   89MOL0     H11732   5.152   1.195  10.752 -1.0034 -0.8010 -1.4485
   89MOL0     H11733   5.017   1.385  10.778 -1.8478  0.1857  1.0122
   89MOL0     H11734   6.333   1.476  10.525  0.1410 -0.0971  1.3838
   89MOL0     H11735   6.506   1.350  10.424 -0.9632  1.0032 -0.2919
   89MOL0     H11736   6.867   1.047  10.454  1.2405  3.8387 -1.6456
   89MOL0     H11737   7.032   0.902  10.338 -1.1602  0.5604  1.9303
   89MOL0     H11738   7.038   0.581  10.108 -0.2351 -0.8730 -0.4898
   89MOL0     H11739   7.031   0.647  10.272  1.0760  0.4175  0.3676
   89MOL0     H11740   7.236   0.728  10.063 -0.4027  1.4384  0.3917
   89MOL0     H11741   7.203   0.813  10.209 -0.0674  0.5763 -0.8555
   89MOL0     H11742   7.404   0.667  10.224  0.1982 -0.8016 -3.0419
   89MOL0     H11743   7.304   0.525  10.207  2.5348  0.5355 -1.0601
   89MOL0     H11744   7.203   0.623  10.445  0.9345  1.2597  1.6452
   89MOL0     H11745   7.353   0.533  10.436  1.0462  1.5610  0.9874
   89MOL0     H11746   7.488   0.895  10.564  0.7217 -0.2115 -1.0670
   89MOL0     H11747   6.752   0.838  10.027  2.0498  3.6332 -1.6508
   89MOL0     H11748   6.582   0.960  10.147 -0.9457 -0.4899  0.6245
   90MOL0     O11749   1.229   7.976   9.979 -0.6891  0.0172 -0.8528
   90MOL0     C11750   1.265   7.953  10.100 -0.1538  0.2748 -0.8393
   90MOL0     O11751   1.213   7.860  10.194 -0.5430 -0.1371 -0.9475
   90MOL0     C11752   1.102   7.790  10.163  1.3395 -0.1291  0.6630
   90MOL0     C11753   1.086   7.661  10.212  0.3914  0.9591 -0.4321
   90MOL0     C11754   0.970   7.593  10.183 -0.3174  0.4613  0.0485
   90MOL0     C11755   0.874   7.648  10.096 -0.3086 -0.4873 -0.1098
   90MOL0     O11756   0.766   7.588  10.044 -0.0511  0.1994  0.0873
   90MOL0     C11757   0.713   7.478  10.129  0.5190  0.0351  0.6943
   90MOL0     C11758   0.557   7.480  10.121  0.1450  0.5031  0.2934
   90MOL0     C11759   0.490   7.343  10.156 -0.2363 -0.1978 -0.6883
   90MOL0     C11760   0.338   7.347  10.131 -0.2838  0.2794 -0.5394
   90MOL0     C11761   0.280   7.210  10.090 -0.0562  0.7771 -0.1930
   90MOL0     C11762   0.282   7.123  10.217  1.4470  0.3946 -0.4001
   90MOL0     C11763   0.250   6.976  10.181  0.0741 -0.0524  0.4071
   90MOL0     C11764   0.096   6.957  10.146  0.0883  0.5611  0.8001
   90MOL0     N11765   0.093   6.851  10.048  0.4267 -0.1529  0.9211
   90MOL0     C11766   0.091   6.715  10.076 -0.0705 -1.2082  0.1432
   90MOL0     C11767   0.108   6.651   9.958 -0.0183 -1.4713 -0.0269
   90MOL0     C11768   0.095   6.494   9.946  0.0339 -0.9039 -0.3258
   90MOL0     C11769   0.234   6.436   9.915 -0.3759 -0.4709 -0.1603
   90MOL0     C11770   0.340   6.470  10.014 -0.7266 -0.1776 -0.5130
   90MOL0     C11771   0.472   6.415   9.959 -0.1613 -0.0961  0.8850
   90MOL0     O11772   0.526   6.506   9.866  0.5024  0.2504  0.7437
   90MOL0     C11773   0.647   6.450   9.814  0.0727 -0.6806 -1.1515
   90MOL0     C11774   0.642   6.357   9.708  0.4312 -0.7915 -0.6898
   90MOL0     C11775   0.759   6.289   9.669 -0.3414  0.5073 -1.2616
   90MOL0     C11776   0.882   6.302   9.744 -0.1773 -0.0975  1.1075
   90MOL0     C11777   1.003   6.222   9.711  0.2965 -0.1698  0.3782
   90MOL0     O11778   1.121   6.266   9.774  0.9384  0.5492 -0.1397
   90MOL0     C11779   1.232   6.185   9.756  0.3399  0.7871  0.7561
   90MOL0     C11780   1.250   6.069   9.842 -0.4826  0.7570 -0.0082
   90MOL0     C11781   1.371   5.992   9.818  0.0319 -0.2169 -0.7967
   90MOL0     C11782   1.473   6.033   9.731 -0.5599 -0.0854 -0.6193
   90MOL0     O11783   1.587   5.958   9.690 -0.1422 -0.2106  0.0399
   90MOL0     C11784   1.648   5.884   9.794 -0.1981  0.4033 -0.8070
   90MOL0     C11785   1.798   5.857   9.763  0.2354 -0.4128  0.3635
   90MOL0     C11786   1.876   5.879   9.888  0.2669  0.1867 -0.0430
   90MOL0     C11787   2.030   5.881   9.860  0.0202 -0.1378 -0.0903
   90MOL0     C11788   2.088   5.737   9.851 -0.5340 -0.9635  1.1095
   90MOL0     C11789   2.225   5.741   9.781 -0.2408  0.2717 -0.4967
   90MOL0     C11790   2.299   5.605   9.792  0.1306 -0.7509  0.1031
   90MOL0     C11791   2.357   5.573   9.931 -0.1861 -0.7050 -0.6399
   90MOL0    Cl11792   2.459   5.709   9.988  0.0700  0.4919 -0.3961
   90MOL0     C11793   1.447   6.136   9.650  0.8995 -0.4102  0.8623
   90MOL0     C11794   1.329   6.205   9.660  0.3990 -0.2613 -0.0516
   90MOL0     O11795   1.000   6.136   9.629 -0.4129  1.1853  0.2964
   90MOL0     C11796   0.883   6.400   9.852  0.4142 -0.3238  1.0091
   90MOL0     C11797   0.773   6.476   9.882  0.0979 -0.4456 -0.0696
   90MOL0     N11798   0.124   6.746   9.855 -0.8927  0.7600 -0.0416
   90MOL0     N11799   0.119   6.867   9.908  0.2259 -0.3292 -0.4821
   90MOL0     C11800   0.891   7.771  10.050  0.1406  0.0512  0.1231
   90MOL0     C11801   1.002   7.845  10.080 -0.3359  0.1735 -1.1078
   90MOL0     C11802   1.377   8.031  10.155  0.1749  0.2405  0.3433
   90MOL0     C11803   1.400   8.052  10.294  0.0048  0.1765 -1.4143
   90MOL0     C11804   1.518   8.125  10.345  0.8553  0.5786  0.7266
   90MOL0     C11805   1.609   8.173  10.248  0.4777 -0.2525 -0.1296
   90MOL0     O11806   1.725   8.228  10.288 -0.3917  0.4926 -0.2331
   90MOL0     C11807   1.842   8.179  10.217 -0.7930  0.0570  0.1387
   90MOL0     C11808   1.967   8.191  10.310  0.2313  1.0513 -0.2875
   90MOL0     C11809   2.097   8.139  10.240  0.0144 -0.4678  0.2010
   90MOL0     C11810   2.206   8.138  10.347 -0.7229 -0.4853  0.3968
   90MOL0     C11811   2.345   8.097  10.297  0.3803  0.7192 -0.3320
   90MOL0     C11812   2.456   8.058  10.252  1.0097 -0.3189  0.6722
   90MOL0     C11813   1.581   8.158  10.108  0.0376 -0.2644 -0.7419
   90MOL0     C11814   1.468   8.092  10.062 -0.1824  0.6422  0.0170
   90MOL0     H11815   1.158   7.610  10.275 -2.5921  0.0362  2.5119
   90MOL0     H11816   0.967   7.493  10.225 -0.5268 -0.0780 -1.1905
   90MOL0     H11817   0.714   7.496  10.237 -0.6711 -1.8648  1.0724
   90MOL0     H11818   0.756   7.380  10.106 -1.4509 -1.6702  3.5324
   90MOL0     H11819   0.532   7.506  10.017 -0.7078  0.2634  0.4290
   90MOL0     H11820   0.520   7.558  10.188 -1.2938  0.3116 -0.2231
   90MOL0     H11821   0.503   7.328  10.263  0.7182  0.0462 -0.7607
   90MOL0     H11822   0.533   7.257  10.103 -0.3478 -1.8639  1.7756
   90MOL0     H11823   0.281   7.386  10.216  0.1667  2.8762 -1.3426
   90MOL0     H11824   0.311   7.419  10.054  1.7756  1.2398 -0.4269
   90MOL0     H11825   0.326   7.163  10.003 -2.4944 -2.1736 -0.0304
   90MOL0     H11826   0.175   7.226  10.064 -0.1418  2.5240  1.0299
   90MOL0     H11827   0.218   7.154  10.300  2.1878 -1.7262  1.0334
   90MOL0     H11828   0.376   7.128  10.273  1.5781 -2.1207 -0.2823
   90MOL0     H11829   0.308   6.943  10.095  0.0869  1.8369 -0.3688
   90MOL0     H11830   0.280   6.917  10.268  1.1200  0.4984  0.4404
   90MOL0     H11831   0.046   7.047  10.108 -3.2290 -1.8435 -1.0621
   90MOL0     H11832   0.048   6.918  10.236  0.3731 -1.8527 -0.0363
   90MOL0     H11833   0.065   6.662  10.167 -1.0364 -0.4728  0.3070
   90MOL0     H11834   0.029   6.479   9.860 -1.5319  1.9462  0.2551
   90MOL0     H11835   0.041   6.447  10.028 -0.5657 -1.6369 -1.1308
   90MOL0     H11836   0.262   6.473   9.816 -1.9025 -0.4304 -0.6051
   90MOL0     H11837   0.219   6.328   9.906 -0.2776 -0.5340  0.4414
   90MOL0     H11838   0.339   6.577  10.039 -4.3691 -0.2997  0.5941
   90MOL0     H11839   0.324   6.410  10.105  0.7777  1.4065  0.8602
   90MOL0     H11840   0.452   6.323   9.903 -2.7868  0.3281  0.9683
   90MOL0     H11841   0.541   6.390  10.040  0.4554  1.9108  1.0243
   90MOL0     H11842   0.548   6.351   9.654  0.6984  1.5448 -1.5002
   90MOL0     H11843   0.750   6.218   9.588 -1.7020  1.0279 -1.5899
   90MOL0     H11844   1.174   6.042   9.915 -1.2338  0.0000 -1.0381
   90MOL0     H11845   1.387   5.895   9.865 -2.3456 -0.0706  0.4640
   90MOL0     H11846   1.601   5.786   9.802  2.3228 -1.2122 -3.5977
   90MOL0     H11847   1.638   5.941   9.887  5.6780 -0.1267  0.5648
   90MOL0     H11848   1.823   5.929   9.685  2.0524  0.1651  1.4442
   90MOL0     H11849   1.806   5.756   9.723 -0.7792 -0.3149 -0.1151
   90MOL0     H11850   1.850   5.801   9.961  1.0639  0.5530  0.6386
   90MOL0     H11851   1.845   5.977   9.924 -1.2690  0.1594 -1.1879
   90MOL0     H11852   2.044   5.941   9.771 -3.4707  1.2960  0.1517
   90MOL0     H11853   2.081   5.928   9.945 -3.3288  3.1442  0.3725
   90MOL0     H11854   2.013   5.676   9.799 -0.2708 -1.6703  1.5480
   90MOL0     H11855   2.117   5.699   9.949  2.9755  0.6721  0.8204
   90MOL0     H11856   2.287   5.817   9.829 -0.8171  0.5494 -0.1718
   90MOL0     H11857   2.226   5.760   9.673  2.5798 -1.1716 -0.8206
   90MOL0     H11858   2.237   5.520   9.762  3.0256 -2.0840 -2.6570
   90MOL0     H11859   2.379   5.598   9.718 -0.9815  1.1644 -1.3577
   90MOL0     H11860   2.411   5.478   9.924  3.1161  1.1709 -3.9609
   90MOL0     H11861   2.275   5.556  10.001  0.2602  1.8085  0.5815
   90MOL0     H11862   1.523   6.170   9.581  0.5743 -0.7891  0.3140
   90MOL0     H11863   1.321   6.284   9.586  1.3879  0.9062  1.0336
   90MOL0     H11864   0.975   6.419   9.906  2.0395 -0.1245 -1.6401
   90MOL0     H11865   0.769   6.542   9.967 -4.0056 -0.2153 -0.2240
   90MOL0     H11866   0.821   7.825   9.988 -1.0467  1.5101  2.6236
   90MOL0     H11867   1.019   7.951  10.064  4.4041 -0.0442  0.9216
   90MOL0     H11868   1.335   8.001  10.365 -0.5523  1.4321 -0.9967
   90MOL0     H11869   1.530   8.124  10.453 -1.9012 -3.4620  1.2366
   90MOL0     H11870   1.866   8.238  10.128  1.8112  1.2869  1.5395
   90MOL0     H11871   1.833   8.076  10.182  0.8685  0.0965 -0.4911
   90MOL0     H11872   1.972   8.297  10.333  3.1834  0.8532  0.3618
   90MOL0     H11873   1.940   8.125  10.393 -0.7366  0.7397 -0.8217
   90MOL0     H11874   2.123   8.215  10.165  0.0453 -1.7515 -1.1248
   90MOL0     H11875   2.095   8.039  10.197 -0.1151  0.1865 -1.4177
   90MOL0     H11876   2.205   8.240  10.386  1.3177 -0.2539 -0.0194
   90MOL0     H11877   2.179   8.083  10.437  1.8143 -1.1488  0.8376
   90MOL0     H11878   2.550   8.031  10.210 -0.2858  0.1516 -2.8717
   90MOL0     H11879   1.657   8.168  10.031 -0.4811  1.1586 -1.0947
   90MOL0     H11880   1.458   8.056   9.960 -0.7114  0.5446  0.0974
   91MOL0     O11881   5.742   4.612   5.428 -0.0220 -0.3573  0.1809
   91MOL0     C11882   5.748   4.489   5.405 -0.0651 -0.2167 -0.4159
   91MOL0     O11883   5.643   4.399   5.399  0.4797  0.4095  0.1792
   91MOL0     C11884   5.513   4.440   5.396 -0.8308 -0.4732 -0.8947
   91MOL0     C11885   5.440   4.435   5.276 -0.3058  0.4147  0.6187
   91MOL0     C11886   5.294   4.451   5.281  1.0033 -0.3628 -0.4146
   91MOL0     C11887   5.234   4.479   5.406 -0.5470 -0.0295 -0.4794
   91MOL0     O11888   5.103   4.501   5.400 -0.9852 -0.1101 -0.2041
   91MOL0     C11889   5.033   4.468   5.517  0.2509  0.0136  0.4508
   91MOL0     C11890   4.892   4.441   5.469  0.0770  1.0855  0.2561
   91MOL0     C11891   4.829   4.530   5.364  0.4172 -0.3007  0.4669
   91MOL0     C11892   4.683   4.493   5.332 -0.9745 -0.7688  0.6940
   91MOL0     C11893   4.572   4.602   5.378 -0.2613 -0.4249  0.6235
   91MOL0     C11894   4.433   4.562   5.340  0.3930  0.0458 -0.4281
   91MOL0     C11895   4.394   4.455   5.442 -0.3790 -0.0379  0.0622
   91MOL0     C11896   4.256   4.405   5.391 -0.2351 -0.5966 -1.0895
   91MOL0     N11897   4.203   4.323   5.497  0.4417 -0.3457  0.1478
   91MOL0     C11898   4.141   4.367   5.609  0.0100  0.5255  0.2191
   91MOL0     C11899   4.143   4.261   5.694  0.4743 -0.0293  0.1523
   91MOL0     C11900   4.088   4.258   5.832 -0.0791 -0.5460 -0.5581
   91MOL0     C11901   4.157   4.357   5.931 -1.5749 -0.6955 -0.0486
   91MOL0     C11902   4.068   4.407   6.047  0.3401 -0.1764 -0.3558
   91MOL0     C11903   4.011   4.296   6.136 -0.7128 -0.3066 -1.0470
   91MOL0     O11904   4.124   4.219   6.188  0.6652  0.1253 -0.1801
   91MOL0     C11905   4.105   4.134   6.297 -0.1255  0.1043  0.4065
   91MOL0     C11906   3.987   4.099   6.368 -0.0156  0.0718  0.2200
   91MOL0     C11907   3.977   3.980   6.445 -0.9155 -1.0784  0.7818
   91MOL0     C11908   4.093   3.909   6.469 -0.2978  0.7288  0.5795
   91MOL0     C11909   4.081   3.773   6.537  0.2398  0.7411  0.1467
   91MOL0     O11910   4.195   3.717   6.596  0.0128  0.4211 -0.2719
   91MOL0     C11911   4.192   3.586   6.630 -0.4148 -0.3326  0.3186
   91MOL0     C11912   4.124   3.539   6.744  0.3772 -0.4144  0.4117
   91MOL0     C11913   4.138   3.399   6.778 -0.0852  0.0835  1.0076
   91MOL0     C11914   4.216   3.309   6.707 -0.0119 -0.4036  1.0775
   91MOL0     O11915   4.235   3.179   6.737  0.8840  0.1737 -0.8424
   91MOL0     C11916   4.195   3.118   6.858  0.0485 -0.4388 -0.9237
   91MOL0     C11917   4.274   2.989   6.854 -0.6280  0.2493  0.1729
   91MOL0     C11918   4.273   2.924   6.986  0.3027  0.6715 -0.2111
   91MOL0     C11919   4.353   2.791   6.973 -0.8802 -0.7378 -0.0170
   91MOL0     C11920   4.387   2.727   7.108 -0.3703 -0.1786  0.3410
   91MOL0     C11921   4.277   2.680   7.179 -0.5175 -0.3421  0.0456
   91MOL0     C11922   4.300   2.617   7.316  0.8193 -0.7433  0.2113
   91MOL0     C11923   4.180   2.540   7.356 -0.5187  0.2417  0.2776
   91MOL0    Cl11924   4.201   2.434   7.500 -0.1171  0.1665 -0.3503
   91MOL0     C11925   4.284   3.365   6.598  0.0133 -0.4335 -1.4093
   91MOL0     C11926   4.271   3.501   6.560 -0.8473 -0.6700  0.8233
   91MOL0     O11927   3.965   3.727   6.539  0.6745 -0.3618  0.2257
   91MOL0     C11928   4.211   3.943   6.406 -0.7365 -0.4537 -0.1815
   91MOL0     C11929   4.213   4.055   6.318  0.2670  0.6262 -0.3817
   91MOL0     N11930   4.201   4.152   5.631  0.4828 -0.5562 -0.2550
   91MOL0     N11931   4.246   4.193   5.515  0.5310 -0.1708  0.1958
   91MOL0     C11932   5.314   4.509   5.515 -0.2647  0.2343  0.6219
   91MOL0     C11933   5.444   4.482   5.512  0.0487  0.2167 -0.1283
   91MOL0     C11934   5.889   4.445   5.363  0.2575 -0.1231 -0.6666
   91MOL0     C11935   5.999   4.518   5.404  0.1969 -0.5866  0.1397
   91MOL0     C11936   6.129   4.477   5.369  0.9900 -0.2036  0.2914
   91MOL0     C11937   6.160   4.362   5.283 -0.9816 -0.2341  0.1069
   91MOL0     O11938   6.279   4.322   5.219 -0.6075 -0.3445  0.1446
   91MOL0     C11939   6.365   4.432   5.184  1.2418  0.0205  0.0314
   91MOL0     C11940   6.509   4.391   5.161 -0.2413 -0.1845  0.0379
   91MOL0     C11941   6.561   4.312   5.276 -0.0620  0.0069 -0.6786
   91MOL0     C11942   6.594   4.389   5.409 -0.6622 -0.6066 -0.6342
   91MOL0     C11943   6.682   4.510   5.396 -0.7482 -0.3007 -0.0527
   91MOL0     C11944   6.746   4.613   5.395  0.0864 -0.2049 -0.0070
   91MOL0     C11945   6.050   4.299   5.239 -0.6072 -0.4070  0.5914
   91MOL0     C11946   5.917   4.336   5.283 -0.3511  0.0359  0.4083
   91MOL0     H11947   5.486   4.395   5.187  1.0441  1.2793  0.9055
   91MOL0     H11948   5.227   4.441   5.196 -0.7239  1.0333  0.7113
   91MOL0     H11949   5.030   4.554   5.584  0.6182 -0.9505  1.7574
   91MOL0     H11950   5.084   4.386   5.570  2.2264  1.7590  1.4140
   91MOL0     H11951   4.826   4.457   5.554 -1.8319  0.2935 -0.9938
   91MOL0     H11952   4.880   4.334   5.449 -0.8376  1.2817 -0.2941
   91MOL0     H11953   4.889   4.527   5.272  1.8370  2.7455  1.1725
   91MOL0     H11954   4.840   4.634   5.397  0.4232 -0.4549  0.9549
   91MOL0     H11955   4.673   4.475   5.225  0.1291  0.1492  0.4076
   91MOL0     H11956   4.661   4.395   5.374 -0.6576 -0.5683  1.3617
   91MOL0     H11957   4.592   4.691   5.318  0.4110 -1.0873 -0.1731
   91MOL0     H11958   4.574   4.623   5.485  2.0785 -0.7539  0.7152
   91MOL0     H11959   4.428   4.528   5.236  0.3883 -1.5798  0.0687
   91MOL0     H11960   4.369   4.650   5.349 -0.6213 -0.8412  2.1335
   91MOL0     H11961   4.458   4.367   5.449  1.1610  1.1623  2.3371
   91MOL0     H11962   4.382   4.502   5.541 -0.6536 -2.2726  1.1649
   91MOL0     H11963   4.281   4.351   5.300 -0.2411 -2.1072 -0.2229
   91MOL0     H11964   4.191   4.491   5.373 -1.5765 -1.5600 -1.0321
   91MOL0     H11965   4.097   4.465   5.628 -1.0136  0.2447 -0.5777
   91MOL0     H11966   4.092   4.155   5.869 -2.0387  0.5723  3.3595
   91MOL0     H11967   3.987   4.295   5.816  1.0478  2.2205 -2.0580
   91MOL0     H11968   4.203   4.444   5.882  2.4491 -3.3419 -1.4777
   91MOL0     H11969   4.239   4.305   5.980 -2.1399  1.0782  3.0810
   91MOL0     H11970   4.130   4.477   6.104  1.4476 -0.8751 -0.6515
   91MOL0     H11971   3.983   4.467   6.015 -1.0836 -1.4326  0.9391
   91MOL0     H11972   3.923   4.244   6.098  0.0469 -2.3613 -0.1259
   91MOL0     H11973   3.974   4.344   6.227  3.0845 -0.3975  0.7348
   91MOL0     H11974   3.907   4.168   6.343  3.2281  3.6871 -1.2226
   91MOL0     H11975   3.882   3.956   6.493 -0.3559 -0.4991  2.2278
   91MOL0     H11976   4.071   3.615   6.801  1.5839  1.6135 -1.0173
   91MOL0     H11977   4.063   3.358   6.845 -1.7619  0.5525 -0.4851
   91MOL0     H11978   4.087   3.105   6.858 -0.6410  3.4928  2.2805
   91MOL0     H11979   4.227   3.177   6.944  0.7947 -3.0927  0.7680
   91MOL0     H11980   4.377   3.020   6.831 -0.5251 -0.6153 -0.6107
   91MOL0     H11981   4.235   2.927   6.773 -2.3950  1.5617 -0.0448
   91MOL0     H11982   4.169   2.893   7.003  0.6079  0.2676  1.0415
   91MOL0     H11983   4.310   2.987   7.067 -1.1450  1.7670 -0.3577
   91MOL0     H11984   4.311   2.718   6.903  1.2321 -1.8234 -0.2309
   91MOL0     H11985   4.451   2.819   6.932 -0.7036  1.3081  1.6138
   91MOL0     H11986   4.434   2.801   7.173 -0.2083 -0.0517  0.0826
   91MOL0     H11987   4.455   2.642   7.095 -0.4098 -0.2929  0.8807
   91MOL0     H11988   4.236   2.602   7.114  0.2086 -2.1272  1.6380
   91MOL0     H11989   4.207   2.759   7.207  0.5268 -0.6874  4.1923
   91MOL0     H11990   4.380   2.545   7.294 -1.1638 -2.5184 -1.5818
   91MOL0     H11991   4.319   2.697   7.389 -1.6837  0.1837 -0.0671
   91MOL0     H11992   4.149   2.485   7.266  0.5091  1.7093 -1.0432
   91MOL0     H11993   4.098   2.610   7.376 -1.3627  0.2281 -2.5878
   91MOL0     H11994   4.363   3.316   6.541  1.6854  0.4131  0.0730
   91MOL0     H11995   4.316   3.546   6.472  1.7618 -1.0866  1.8434
   91MOL0     H11996   4.298   3.879   6.418  0.1760  0.2638 -2.3728
   91MOL0     H11997   4.303   4.080   6.262  0.0772 -1.5244 -1.7530
   91MOL0     H11998   5.268   4.559   5.600  1.3988 -1.4140  2.6234
   91MOL0     H11999   5.515   4.489   5.594 -1.4476 -1.7073  1.4267
   91MOL0     H12000   5.989   4.610   5.460 -2.1570  0.7796 -2.2597
   91MOL0     H12001   6.215   4.538   5.399 -1.3698  1.5141  4.3640
   91MOL0     H12002   6.367   4.507   5.264  0.8322 -1.8218  1.8565
   91MOL0     H12003   6.318   4.469   5.093 -0.5874 -0.5780  0.6933
   91MOL0     H12004   6.525   4.320   5.079  1.3940 -0.0622  0.2147
   91MOL0     H12005   6.572   4.478   5.142  1.6632 -1.4432  0.3211
   91MOL0     H12006   6.653   4.260   5.246  1.1633  0.2232  2.3779
   91MOL0     H12007   6.482   4.241   5.300 -2.2479  1.9975 -1.5610
   91MOL0     H12008   6.498   4.425   5.447 -0.1680 -0.9123  0.9743
   91MOL0     H12009   6.634   4.318   5.482  1.8484  0.6971 -0.6292
   91MOL0     H12010   6.808   4.701   5.391 -0.2780  0.0171 -1.2046
   91MOL0     H12011   6.065   4.210   5.179 -0.5089  1.7346 -2.8571
   91MOL0     H12012   5.846   4.273   5.232  1.4461 -0.2463 -1.8970
   92MOL0     O12013   2.372   3.493   5.242  0.5923  0.5403 -0.1693
   92MOL0     C12014   2.266   3.428   5.236  0.2461  0.1636  0.5390
   92MOL0     O12015   2.135   3.469   5.218  0.4677 -0.2622 -0.0178
   92MOL0     C12016   2.109   3.600   5.192  0.9099  0.6017 -0.3853
   92MOL0     C12017   2.158   3.669   5.083  0.0254 -0.5459  0.0210
   92MOL0     C12018   2.109   3.791   5.040  0.2246  0.4139 -0.1070
   92MOL0     C12019   2.014   3.864   5.109  1.1209  0.2041  0.0757
   92MOL0     O12020   1.966   3.984   5.064  0.8021  0.2067  0.4489
   92MOL0     C12021   2.068   4.064   4.999 -0.0836  1.2220 -0.7089
   92MOL0     C12022   2.009   4.199   4.953 -0.5568 -0.3032  0.3727
   92MOL0     C12023   1.930   4.177   4.822 -0.1239 -0.3263 -0.1369
   92MOL0     C12024   1.849   4.293   4.767 -0.2946 -0.0977  0.1987
   92MOL0     C12025   1.721   4.307   4.857  0.6695  0.5403 -0.4565
   92MOL0     C12026   1.633   4.417   4.805  0.4842  0.2121  0.0309
   92MOL0     C12027   1.513   4.437   4.896  0.2736 -0.6185 -0.0452
   92MOL0     C12028   1.543   4.499   5.032 -0.2941 -0.5295  0.0949
   92MOL0     N12029   1.430   4.509   5.130 -0.4496 -0.3319 -0.3146
   92MOL0     C12030   1.331   4.601   5.124 -0.5616 -0.3090 -0.7100
   92MOL0     C12031   1.246   4.561   5.221 -0.9069 -0.6268  1.0097
   92MOL0     C12032   1.111   4.626   5.232  0.3019  0.8569 -0.0807
   92MOL0     C12033   1.001   4.566   5.159  0.5433  0.9726 -0.1550
   92MOL0     C12034   0.960   4.425   5.192  0.1026 -0.2584  0.8207
   92MOL0     C12035   0.906   4.404   5.333 -1.2431 -0.1532 -0.0207
   92MOL0     O12036   0.891   4.263   5.354  0.3923 -0.7749 -0.6354
   92MOL0     C12037   0.797   4.226   5.445  0.0702 -0.1160  0.1648
   92MOL0     C12038   0.712   4.123   5.418  0.4487 -0.0517  0.1664
   92MOL0     C12039   0.630   4.076   5.513  0.6099 -0.0849  0.4705
   92MOL0     C12040   0.611   4.143   5.629 -0.2599  0.1872  0.4438
   92MOL0     C12041   0.500   4.110   5.723  0.2239  1.2403  0.6308
   92MOL0     O12042   0.402   4.034   5.664  0.3199 -0.5111  0.8554
   92MOL0     C12043   0.290   3.989   5.738  0.1312 -0.1223  0.9734
   92MOL0     C12044   0.210   3.901   5.669 -0.4461 -0.7403 -0.5984
   92MOL0     C12045   0.083   3.867   5.718 -0.0075  0.2063 -0.5773
   92MOL0     C12046   0.033   3.920   5.840 -0.8152  0.2120  0.0219
   92MOL0     O12047  -0.103   3.893   5.873 -0.1179  0.1469 -0.3746
   92MOL0     C12048  -0.107   3.827   6.002  0.3604  0.1874 -0.3127
   92MOL0     C12049  -0.150   3.932   6.110 -0.4633  0.3697 -0.3794
   92MOL0     C12050  -0.194   3.870   6.241 -0.1785 -0.7082 -0.5794
   92MOL0     C12051  -0.347   3.863   6.271 -0.8998  0.1222 -0.0729
   92MOL0     C12052  -0.389   3.801   6.400 -0.6238 -0.0279  0.3028
   92MOL0     C12053  -0.545   3.789   6.416 -0.0175 -0.0032 -0.8941
   92MOL0     C12054  -0.618   3.925   6.408 -0.0523 -0.5382  0.6397
   92MOL0     C12055  -0.555   4.033   6.507 -0.5849  0.7543 -0.0729
   92MOL0    Cl12056  -0.561   3.980   6.678 -0.3050  0.2391  0.1980
   92MOL0     C12057   0.125   3.986   5.919 -0.2914 -0.0786 -0.5734
   92MOL0     C12058   0.247   4.027   5.867 -0.4243  0.1321 -0.2846
   92MOL0     O12059   0.501   4.156   5.834 -0.4586  0.3235 -0.2663
   92MOL0     C12060   0.708   4.237   5.663 -1.0520  0.2095 -0.0214
   92MOL0     C12061   0.796   4.284   5.566  0.3373 -0.2432 -0.8188
   92MOL0     N12062   1.299   4.443   5.279  0.7082  0.1649 -0.0084
   92MOL0     N12063   1.416   4.425   5.228  0.3473 -0.3479 -0.0966
   92MOL0     C12064   1.959   3.798   5.226 -0.2668 -0.1685 -0.1035
   92MOL0     C12065   1.995   3.664   5.246  0.5141 -0.3365 -0.3707
   92MOL0     C12066   2.276   3.286   5.237 -0.4630  0.3747 -0.0163
   92MOL0     C12067   2.397   3.220   5.220 -0.0166 -0.1142  0.7173
   92MOL0     C12068   2.399   3.081   5.238 -0.2785  0.4219 -0.5385
   92MOL0     C12069   2.294   3.000   5.274  0.8527  0.0046 -0.4237
   92MOL0     O12070   2.312   2.862   5.280  0.6913 -0.2852  0.4093
   92MOL0     C12071   2.201   2.770   5.292  0.0488 -0.1880 -0.3318
   92MOL0     C12072   2.255   2.627   5.247  0.2467 -0.5318 -0.2725
   92MOL0     C12073   2.153   2.512   5.268  0.1496  0.5883  1.0171
   92MOL0     C12074   2.139   2.469   5.419 -0.1285  0.5120 -0.0056
   92MOL0     C12075   2.259   2.404   5.472 -0.6209  0.0389 -0.6500
   92MOL0     C12076   2.365   2.361   5.528 -0.0960 -0.5113 -0.6680
   92MOL0     C12077   2.173   3.067   5.295  0.1398 -0.2464  0.1278
   92MOL0     C12078   2.162   3.210   5.272 -0.4696 -0.9153 -0.5331
   92MOL0     H12079   2.224   3.612   5.019  0.4927  0.4870 -0.4450
   92MOL0     H12080   2.157   3.836   4.954  0.3815 -0.4253 -0.4679
   92MOL0     H12081   2.121   4.023   4.912 -0.5342 -1.6949  0.2893
   92MOL0     H12082   2.156   4.086   5.060  0.7358  1.4797 -1.9541
   92MOL0     H12083   2.088   4.268   4.923 -2.2299  1.6925  0.3255
   92MOL0     H12084   1.948   4.250   5.029  0.8263  3.9990 -1.0789
   92MOL0     H12085   1.863   4.090   4.833  2.5884 -2.7942 -1.6300
   92MOL0     H12086   1.995   4.141   4.741 -0.6277 -2.8737  0.4954
   92MOL0     H12087   1.909   4.384   4.769 -0.8045  0.2450  0.0718
   92MOL0     H12088   1.837   4.277   4.660 -0.1098 -0.4940  0.2364
   92MOL0     H12089   1.737   4.330   4.963 -1.3579  2.8917 -0.5576
   92MOL0     H12090   1.661   4.216   4.850 -0.4380  1.2427 -0.5281
   92MOL0     H12091   1.605   4.393   4.702  1.2321  0.9667 -0.3537
   92MOL0     H12092   1.684   4.513   4.804 -0.0501  0.5016 -0.8316
   92MOL0     H12093   1.448   4.512   4.849  1.8449  1.7662  1.3726
   92MOL0     H12094   1.461   4.341   4.905 -1.6318  0.1109 -2.2487
   92MOL0     H12095   1.594   4.595   5.020 -0.0433 -0.7634 -0.7856
   92MOL0     H12096   1.604   4.429   5.090 -0.9449  1.3572  3.2938
   92MOL0     H12097   1.305   4.676   5.050 -0.7330  1.5869  1.1968
   92MOL0     H12098   1.128   4.727   5.196 -1.8702  2.3407  2.6187
   92MOL0     H12099   1.085   4.642   5.337 -2.3937  0.1643 -0.5501
   92MOL0     H12100   1.024   4.573   5.053 -0.7827  2.7045 -0.3847
   92MOL0     H12101   0.917   4.634   5.177 -0.9254 -0.6762 -0.5502
   92MOL0     H12102   0.889   4.385   5.119  1.1553 -2.3628  0.8796
   92MOL0     H12103   1.047   4.360   5.176 -1.9121 -2.4927 -2.0210
   92MOL0     H12104   0.807   4.449   5.337 -1.9878 -1.5407 -1.7619
   92MOL0     H12105   0.969   4.457   5.405 -1.0974  3.7938 -2.7176
   92MOL0     H12106   0.703   4.070   5.324 -1.1904 -1.6155  1.1390
   92MOL0     H12107   0.578   3.987   5.478  2.4060 -0.5429 -1.2240
   92MOL0     H12108   0.248   3.870   5.572 -0.0858 -0.2997 -0.6049
   92MOL0     H12109   0.022   3.815   5.646 -0.1200 -1.4922  0.6764
   92MOL0     H12110  -0.007   3.797   6.033  1.2880  1.9945 -1.3788
   92MOL0     H12111  -0.181   3.747   6.005 -1.4074  0.8895 -7.6224
   92MOL0     H12112  -0.237   3.979   6.065  1.3960 -0.6979 -5.8243
   92MOL0     H12113  -0.077   4.011   6.130 -1.4492  1.2981 -0.3637
   92MOL0     H12114  -0.136   3.916   6.321  1.6586 -1.5057 -1.3777
   92MOL0     H12115  -0.167   3.764   6.246  0.2989 -0.5430  0.8992
   92MOL0     H12116  -0.383   3.967   6.272  1.1223  0.9906 -2.9077
   92MOL0     H12117  -0.391   3.809   6.186 -1.5949  1.1729 -0.4068
   92MOL0     H12118  -0.339   3.856   6.480 -0.4839  1.9929 -1.1028
   92MOL0     H12119  -0.362   3.695   6.400 -3.7828 -0.9504 -0.2158
   92MOL0     H12120  -0.556   3.739   6.513  1.5533 -1.6601 -1.5190
   92MOL0     H12121  -0.589   3.739   6.329  1.5728 -3.7189  0.2526
   92MOL0     H12122  -0.609   3.975   6.312  0.0185  3.7294  2.6247
   92MOL0     H12123  -0.725   3.916   6.433  0.1708  1.0350  2.4249
   92MOL0     H12124  -0.617   4.122   6.495  1.7764  2.5573  0.2269
   92MOL0     H12125  -0.451   4.059   6.483  1.1655 -1.8845  3.5682
   92MOL0     H12126   0.098   4.018   6.019  0.0357 -0.0948 -0.4793
   92MOL0     H12127   0.308   4.095   5.925 -0.2261 -0.4917  0.2418
   92MOL0     H12128   0.697   4.277   5.764  2.4143 -0.2765  0.6764
   92MOL0     H12129   0.875   4.350   5.602 -0.7479  0.8007 -0.2835
   92MOL0     H12130   1.888   3.862   5.277  0.8435 -0.3357  1.7512
   92MOL0     H12131   1.935   3.614   5.322  0.1664  0.1382 -0.3205
   92MOL0     H12132   2.488   3.274   5.197 -0.6340  1.1254  1.0958
   92MOL0     H12133   2.491   3.024   5.227 -0.3079 -0.2409  1.9582
   92MOL0     H12134   2.120   2.791   5.223 -0.6889 -2.7325 -0.3446
   92MOL0     H12135   2.166   2.760   5.395  2.6637 -1.3363  0.5348
   92MOL0     H12136   2.275   2.623   5.140  1.3254 -2.4492 -0.0645
   92MOL0     H12137   2.352   2.604   5.294  3.0549 -0.2621 -5.2694
   92MOL0     H12138   2.167   2.426   5.203 -2.6395  0.8024 -0.0080
   92MOL0     H12139   2.057   2.559   5.246  1.2265  2.1213 -0.6754
   92MOL0     H12140   2.117   2.548   5.492  2.8914 -1.0459  2.8647
   92MOL0     H12141   2.049   2.406   5.417  0.8888 -0.9905  0.2650
   92MOL0     H12142   2.450   2.323   5.580  1.5147  0.3931 -2.5208
   92MOL0     H12143   2.081   3.016   5.320  1.1424 -1.7407  0.8781
   92MOL0     H12144   2.069   3.262   5.296  1.2282  2.2282 -0.2595
   93MOL0     O12145   0.377  11.273   9.580  0.3346  0.5116  0.1632
   93MOL0     C12146   0.271  11.215   9.544  0.4073  0.2895 -0.1227
   93MOL0     O12147   0.175  11.167   9.627 -0.6061 -0.1955 -0.4850
   93MOL0     C12148   0.207  11.103   9.746  0.8560 -0.4153  0.3928
   93MOL0     C12149   0.109  11.100   9.842  0.8687  0.2794 -0.6208
   93MOL0     C12150   0.112  11.010   9.954 -1.2046 -0.6766  0.8289
   93MOL0     C12151   0.219  10.928   9.958 -0.5288 -0.1656 -0.3439
   93MOL0     O12152   0.242  10.836  10.060 -0.1879 -0.5382 -0.1278
   93MOL0     C12153   0.255  10.883  10.190  0.4997  0.9024 -0.9476
   93MOL0     C12154   0.227  10.765  10.294  0.5157 -0.1302  0.4603
   93MOL0     C12155   0.072  10.728  10.287  0.5719 -0.2582  0.4205
   93MOL0     C12156  -0.021  10.851  10.325 -1.4240 -0.6380  0.4214
   93MOL0     C12157  -0.147  10.788  10.381 -0.2037  0.4666 -0.8623
   93MOL0     C12158  -0.134  10.737  10.524 -0.6576 -0.3534 -0.5889
   93MOL0     C12159  -0.265  10.742  10.606  0.0959  1.3371 -0.2716
   93MOL0     C12160  -0.387  10.697  10.528  0.1008 -0.0418 -0.5632
   93MOL0     N12161  -0.489  10.667  10.632  0.0185  0.0851 -0.1981
   93MOL0     C12162  -0.517  10.543  10.695 -1.2356 -0.0557 -0.0670
   93MOL0     C12163  -0.624  10.554  10.766 -0.1596 -0.2295 -1.1483
   93MOL0     C12164  -0.695  10.461  10.844 -0.5012 -0.4671 -0.4565
   93MOL0     C12165  -0.618  10.433  10.982  0.0799  0.3358  0.2445
   93MOL0     C12166  -0.700  10.337  11.075 -0.4372  0.3855 -0.9999
   93MOL0     C12167  -0.629  10.305  11.209 -0.0965 -0.4710 -0.2119
   93MOL0     O12168  -0.688  10.180  11.256  0.2903 -0.5032  0.9343
   93MOL0     C12169  -0.799  10.181  11.338 -0.3487  0.4191  0.0269
   93MOL0     C12170  -0.866  10.294  11.379 -0.2417 -0.1830 -0.4839
   93MOL0     C12171  -0.973  10.296  11.476 -0.1146 -0.6045  0.3401
   93MOL0     C12172  -0.993  10.172  11.551 -0.5939 -0.4460 -0.2052
   93MOL0     C12173  -1.094  10.169  11.656  0.0806  0.0860 -1.4938
   93MOL0     O12174  -1.106  10.055  11.727 -0.3766  0.4791  0.3625
   93MOL0     C12175  -1.229  10.031  11.788 -0.7226  1.3597 -0.4330
   93MOL0     C12176  -1.354  10.067  11.733 -1.3976 -0.3392 -0.6268
   93MOL0     C12177  -1.465  10.007  11.797  0.6509 -0.4611  0.5600
   93MOL0     C12178  -1.465   9.928  11.917  0.3200 -1.1476 -0.1671
   93MOL0     O12179  -1.576   9.865  11.979  0.4096  0.6294  0.3647
   93MOL0     C12180  -1.690   9.950  11.999 -0.6744 -0.2834 -0.1830
   93MOL0     C12181  -1.804   9.868  12.065 -0.7455  0.4096 -0.3959
   93MOL0     C12182  -1.776   9.810  12.202  0.1323  0.3315  0.3618
   93MOL0     C12183  -1.736   9.907  12.311  0.9304 -0.6532 -0.6819
   93MOL0     C12184  -1.684   9.838  12.443  0.7309 -0.6554 -0.2785
   93MOL0     C12185  -1.801   9.788  12.536 -0.3834 -0.4288  0.2090
   93MOL0     C12186  -1.742   9.693  12.642 -0.0672 -0.0778  0.7276
   93MOL0     C12187  -1.849   9.634  12.733  0.2503  0.3485  0.0918
   93MOL0    Cl12188  -1.772   9.568  12.884 -0.0153  0.0312  0.5725
   93MOL0     C12189  -1.336   9.903  11.970 -0.8049  0.4815 -0.3944
   93MOL0     C12190  -1.219   9.941  11.903  1.6093 -0.8485 -0.0954
   93MOL0     O12191  -1.168  10.271  11.657 -0.1248 -0.4786  0.4617
   93MOL0     C12192  -0.924  10.060  11.516  0.1599 -0.1606  0.3280
   93MOL0     C12193  -0.826  10.070  11.413  1.4379 -0.1018 -0.4749
   93MOL0     N12194  -0.657  10.689  10.765 -0.1670  0.4300  0.6269
   93MOL0     N12195  -0.575  10.755  10.683  0.1389  1.0182 -0.5448
   93MOL0     C12196   0.314  10.923   9.851 -0.0033 -0.5784 -1.4900
   93MOL0     C12197   0.316  11.013   9.745  0.2484  0.5095  0.2563
   93MOL0     C12198   0.240  11.208   9.399  0.0568  0.7566  0.6619
   93MOL0     C12199   0.160  11.118   9.339  0.3424  0.4738  0.5138
   93MOL0     C12200   0.123  11.129   9.203  0.5724 -1.0541 -0.7660
   93MOL0     C12201   0.172  11.241   9.132 -0.7018  0.1129  0.5154
   93MOL0     O12202   0.155  11.258   8.994 -0.3041 -0.2249 -0.0206
   93MOL0     C12203   0.085  11.155   8.915  0.7070 -0.3210  1.0955
   93MOL0     C12204   0.080  11.210   8.766 -0.0983  0.7809  0.1925
   93MOL0     C12205   0.014  11.104   8.671 -0.9530  0.2199  1.2341
   93MOL0     C12206  -0.008  11.158   8.528 -0.0476  0.3258 -0.6802
   93MOL0     C12207  -0.133  11.237   8.532  0.6249 -1.3431  0.1788
   93MOL0     C12208  -0.240  11.298   8.536  0.6646  0.5619 -0.3148
   93MOL0     C12209   0.268  11.314   9.189 -0.4198 -0.3088  0.4173
   93MOL0     C12210   0.301  11.303   9.316  0.4907 -0.0972  0.5897
   93MOL0     H12211   0.020  11.162   9.841  1.2358  0.9506  1.7651
   93MOL0     H12212   0.033  11.014  10.029 -3.0073 -1.2413 -0.9424
   93MOL0     H12213   0.171  10.952  10.203 -0.5600  0.0085 -2.7037
   93MOL0     H12214   0.349  10.935  10.210  0.4641  0.7468 -0.3473
   93MOL0     H12215   0.256  10.795  10.395  1.0297  1.7302 -0.1807
   93MOL0     H12216   0.293  10.687  10.257 -1.1578 -0.5580 -1.8469
   93MOL0     H12217   0.050  10.646  10.356 -1.1597 -2.3416 -2.3659
   93MOL0     H12218   0.032  10.702  10.189 -1.0258 -0.5269  1.1133
   93MOL0     H12219   0.038  10.905  10.400 -2.8934  0.7096  0.6617
   93MOL0     H12220  -0.042  10.928  10.251 -3.4446  1.0035  2.5351
   93MOL0     H12221  -0.196  10.724  10.307 -2.7772 -0.4681  1.5074
   93MOL0     H12222  -0.218  10.871  10.392 -0.5698 -0.1047  1.5889
   93MOL0     H12223  -0.056  10.800  10.567  1.1610 -1.5490 -1.9983
   93MOL0     H12224  -0.100  10.634  10.537 -2.1105 -0.8050 -0.1144
   93MOL0     H12225  -0.246  10.671  10.686 -3.3635  0.0556 -0.4278
   93MOL0     H12226  -0.284  10.836  10.660 -1.2920 -0.6517  2.9845
   93MOL0     H12227  -0.370  10.606  10.469  3.8893 -0.1712  0.4886
   93MOL0     H12228  -0.425  10.778  10.465 -1.2282  1.1105  1.5871
   93MOL0     H12229  -0.461  10.451  10.680  1.5760  1.7649 -1.5455
   93MOL0     H12230  -0.713  10.364  10.797  3.3684 -3.2280  2.9893
   93MOL0     H12231  -0.791  10.509  10.860 -0.5374 -1.2025  2.0181
   93MOL0     H12232  -0.588  10.521  11.040  1.1045 -1.0394  1.8981
   93MOL0     H12233  -0.520  10.389  10.966 -0.7092 -1.5594  0.3630
   93MOL0     H12234  -0.795  10.386  11.097 -1.0288 -1.0558 -0.1540
   93MOL0     H12235  -0.723  10.240  11.031  0.7469 -0.4546  0.1418
   93MOL0     H12236  -0.626  10.391  11.277  0.5210  0.2306 -1.1043
   93MOL0     H12237  -0.520  10.293  11.200  0.3609  1.4714  1.8730
   93MOL0     H12238  -0.841  10.388  11.332  1.6377 -0.3659  0.0758
   93MOL0     H12239  -1.035  10.383  11.490  0.6757 -0.0747  0.6203
   93MOL0     H12240  -1.361  10.128  11.643  2.4202  1.1241 -0.1260
   93MOL0     H12241  -1.563  10.033  11.757  0.3105 -5.5920 -2.8179
   93MOL0     H12242  -1.739   9.989  11.910  1.8870  0.6008 -1.3272
   93MOL0     H12243  -1.666  10.033  12.067 -0.2409 -1.6787  1.4433
   93MOL0     H12244  -1.818   9.777  12.005 -2.6480  0.4333 -0.0536
   93MOL0     H12245  -1.892   9.933  12.074 -0.4609  0.8160 -0.5398
   93MOL0     H12246  -1.686   9.751  12.182 -1.3804 -2.1899  0.5604
   93MOL0     H12247  -1.850   9.738  12.237  1.6715 -1.3132  0.4070
   93MOL0     H12248  -1.655   9.966  12.267  0.8168 -1.1445 -1.5699
   93MOL0     H12249  -1.808   9.986  12.331  1.0718 -0.9542  1.2188
   93MOL0     H12250  -1.626   9.910  12.500  0.7331 -1.2410  0.4645
   93MOL0     H12251  -1.618   9.757  12.411 -2.9751 -2.2462 -5.2303
   93MOL0     H12252  -1.878   9.737  12.478 -3.7935  3.5975  0.7171
   93MOL0     H12253  -1.854   9.871  12.583 -2.4177 -2.2690  1.4017
   93MOL0     H12254  -1.703   9.602  12.597 -3.2281 -1.1196 -0.1868
   93MOL0     H12255  -1.666   9.747  12.698  3.3782 -2.8749 -0.8777
   93MOL0     H12256  -1.903   9.555  12.681  0.6513  0.8230 -1.1070
   93MOL0     H12257  -1.912   9.719  12.760  0.9518  1.8996 -2.7030
   93MOL0     H12258  -1.332   9.832  12.052 -2.3385 -0.7122 -1.2954
   93MOL0     H12259  -1.125   9.908  11.946  2.6294  1.1561 -0.6259
   93MOL0     H12260  -0.939   9.958  11.549 -2.1212 -0.1122 -0.3814
   93MOL0     H12261  -0.767   9.982  11.387  2.3036 -0.2908  1.8972
   93MOL0     H12262   0.400  10.861   9.873  0.4001  1.6081  5.5153
   93MOL0     H12263   0.402  11.019   9.679 -0.8708  0.9164 -1.2149
   93MOL0     H12264   0.116  11.033   9.389  0.2086  1.0128  1.3453
   93MOL0     H12265   0.050  11.065   9.154 -4.1877  0.1582  3.7927
   93MOL0     H12266  -0.019  11.131   8.938 -0.2384 -0.7881 -2.8797
   93MOL0     H12267   0.141  11.061   8.915  1.5182  0.0304  4.3892
   93MOL0     H12268   0.021  11.301   8.758  0.9361  1.3979 -0.7239
   93MOL0     H12269   0.181  11.242   8.736  0.3879 -0.6825  0.1599
   93MOL0     H12270  -0.083  11.081   8.715 -0.0418  1.5168  4.1882
   93MOL0     H12271   0.078  11.015   8.678 -0.4496  0.4852  0.2415
   93MOL0     H12272   0.080  11.216   8.501  0.5481 -1.0521 -1.8433
   93MOL0     H12273  -0.012  11.075   8.456  0.8057 -0.5135  0.2134
   93MOL0     H12274  -0.327  11.359   8.530 -0.6344 -0.6631  3.3739
   93MOL0     H12275   0.312  11.386   9.120  2.0703 -1.6500  0.5005
   93MOL0     H12276   0.364  11.378   9.363 -0.6258  2.8528 -2.2276
   94MOL0     O12277  11.090   4.411   2.333  0.1477  0.1778  0.1736
   94MOL0     C12278  11.163   4.346   2.256  0.1115  0.4861  0.3182
   94MOL0     O12279  11.126   4.228   2.190 -0.4886 -0.2234 -0.1303
   94MOL0     C12280  11.021   4.158   2.243  0.5369  0.2385  0.7197
   94MOL0     C12281  11.043   4.061   2.342  0.3023  0.7945  0.4485
   94MOL0     C12282  10.926   3.998   2.397 -0.3507 -0.1128 -0.0978
   94MOL0     C12283  10.798   4.053   2.371 -0.0753  0.4970  0.4865
   94MOL0     O12284  10.698   4.005   2.445  0.3047 -0.4400 -0.8351
   94MOL0     C12285  10.569   4.045   2.404 -1.1608 -0.3006  0.0759
   94MOL0     C12286  10.469   3.974   2.498  0.3721  0.4005 -0.6254
   94MOL0     C12287  10.438   4.056   2.617 -0.7159 -0.1269 -0.0814
   94MOL0     C12288  10.341   4.169   2.585 -0.4368  1.1460 -0.4308
   94MOL0     C12289  10.314   4.248   2.716 -0.3172 -0.2486 -0.4125
   94MOL0     C12290  10.237   4.372   2.681 -0.3325 -0.7368 -0.7207
   94MOL0     C12291  10.206   4.449   2.816  0.2119  0.1987 -0.4395
   94MOL0     C12292  10.307   4.565   2.837 -0.0536  0.9307 -0.0630
   94MOL0     N12293  10.270   4.630   2.964  0.3715 -0.6772  0.7146
   94MOL0     C12294  10.308   4.591   3.089  0.0436  0.2109  0.2884
   94MOL0     C12295  10.234   4.668   3.175  0.1481 -0.1695 -0.4929
   94MOL0     C12296  10.228   4.650   3.323 -0.4248  0.2062 -0.9301
   94MOL0     C12297  10.356   4.713   3.382  0.7246  0.1511 -1.3359
   94MOL0     C12298  10.491   4.651   3.349  1.3428  0.3042 -0.5572
   94MOL0     C12299  10.588   4.701   3.447  0.3938 -0.1558 -0.2762
   94MOL0     O12300  10.717   4.664   3.391  0.8127  0.1737  0.7153
   94MOL0     C12301  10.827   4.698   3.468  0.5753  0.1569 -0.9277
   94MOL0     C12302  10.950   4.690   3.403 -0.5198  1.1811  0.2002
   94MOL0     C12303  11.075   4.735   3.469 -0.0749  0.2049 -0.8800
   94MOL0     C12304  11.067   4.802   3.595  0.5408 -0.2439 -0.2319
   94MOL0     C12305  11.183   4.862   3.653 -0.1091 -0.6457  0.0343
   94MOL0     O12306  11.281   4.905   3.571  0.3303  0.2135  0.2841
   94MOL0     C12307  11.400   4.951   3.616  0.3088  0.7343 -0.6311
   94MOL0     C12308  11.467   5.057   3.553  0.3597 -0.6333 -0.5316
   94MOL0     C12309  11.594   5.095   3.583 -0.2031 -0.2482 -1.2941
   94MOL0     C12310  11.651   5.037   3.693 -0.3840 -0.2508  0.3742
   94MOL0     O12311  11.769   5.083   3.739 -0.4914 -0.5377 -0.9313
   94MOL0     C12312  11.854   5.149   3.654 -0.6770  0.0678  0.4668
   94MOL0     C12313  11.924   5.079   3.536 -0.8247  0.9567  0.0643
   94MOL0     C12314  12.026   5.169   3.468  0.0835 -0.8461  0.2819
   94MOL0     C12315  12.101   5.121   3.347  0.0522  1.0013  0.3433
   94MOL0     C12316  12.139   5.220   3.243 -0.6326 -0.1518  0.0746
   94MOL0     C12317  12.021   5.283   3.161  0.5724  0.7222 -0.1547
   94MOL0     C12318  12.076   5.395   3.075  0.1972  0.2769  0.6170
   94MOL0     C12319  12.113   5.326   2.940 -0.1937 -0.3312 -0.7304
   94MOL0    Cl12320  12.214   5.439   2.854 -0.5495  0.1824 -0.0065
   94MOL0     C12321  11.590   4.930   3.762 -0.2816  0.6672 -0.4487
   94MOL0     C12322  11.469   4.883   3.719  0.7173  0.5519 -0.0762
   94MOL0     O12323  11.188   4.875   3.775  0.6276 -0.7676  0.0754
   94MOL0     C12324  10.944   4.802   3.655  0.0352  0.5370 -0.6095
   94MOL0     C12325  10.824   4.754   3.600 -0.0648  1.0130  0.0575
   94MOL0     N12326  10.167   4.763   3.091  0.3671  0.5763  0.3944
   94MOL0     N12327  10.183   4.735   2.971 -0.0435  0.3620 -0.2227
   94MOL0     C12328  10.781   4.158   2.278  0.1398  0.6979 -0.5126
   94MOL0     C12329  10.896   4.204   2.220  0.0036  0.2754 -0.0959
   94MOL0     C12330  11.303   4.390   2.236 -0.1322  0.6742 -0.2674
   94MOL0     C12331  11.391   4.307   2.166  0.2660  0.3888  0.5622
   94MOL0     C12332  11.526   4.343   2.153  1.0218  0.5704  0.1105
   94MOL0     C12333  11.572   4.463   2.211 -0.0266 -0.1196  0.1725
   94MOL0     O12334  11.700   4.509   2.195 -0.3720 -0.5973  0.0721
   94MOL0     C12335  11.778   4.459   2.090 -0.6099 -1.0534  0.6719
   94MOL0     C12336  11.862   4.570   2.044 -0.6197 -0.5795 -0.5111
   94MOL0     C12337  11.944   4.648   2.140  0.1072 -0.5255 -0.1869
   94MOL0     C12338  12.031   4.758   2.081 -0.1437  0.0189 -0.9983
   94MOL0     C12339  12.139   4.798   2.180 -1.1411 -0.5172  0.4800
   94MOL0     C12340  12.224   4.825   2.258  0.1962 -0.0421  0.5080
   94MOL0     C12341  11.484   4.538   2.292 -0.3629  0.2021 -0.6117
   94MOL0     C12342  11.345   4.504   2.304 -0.4423 -0.1217  0.6193
   94MOL0     H12343  11.143   4.023   2.361  1.4347  2.0398 -2.4053
   94MOL0     H12344  10.932   3.922   2.474 -0.7870  0.6053  0.6665
   94MOL0     H12345  10.552   4.019   2.299 -2.5517  0.7983 -0.0083
   94MOL0     H12346  10.564   4.154   2.406  0.0890 -0.2340 -0.0773
   94MOL0     H12347  10.516   3.877   2.520  1.6597  0.7994 -1.5198
   94MOL0     H12348  10.373   3.952   2.450 -0.1578 -0.0810  0.6187
   94MOL0     H12349  10.528   4.112   2.647 -0.8925  0.7797 -1.1566
   94MOL0     H12350  10.400   3.994   2.699  0.0649  0.5679  0.8341
   94MOL0     H12351  10.382   4.234   2.507  3.7976 -1.3187 -0.5496
   94MOL0     H12352  10.249   4.114   2.563 -2.0455  2.9962  1.2491
   94MOL0     H12353  10.407   4.283   2.764 -0.7976 -0.3886  0.6559
   94MOL0     H12354  10.250   4.191   2.784 -1.5347  1.6290  0.0933
   94MOL0     H12355  10.136   4.347   2.646 -1.0341  1.6109 -0.6166
   94MOL0     H12356  10.289   4.438   2.610 -2.2581 -0.5369 -2.0233
   94MOL0     H12357  10.111   4.501   2.800  1.1539  1.1454 -3.4444
   94MOL0     H12358  10.202   4.377   2.899  1.0120 -2.2908 -2.4553
   94MOL0     H12359  10.296   4.628   2.748  0.6943  0.7363 -0.2983
   94MOL0     H12360  10.409   4.525   2.840 -0.6832 -0.7042  0.7299
   94MOL0     H12361  10.368   4.505   3.117 -1.4162 -1.0807 -0.3950
   94MOL0     H12362  10.231   4.546   3.357  3.5460  1.3540  3.2766
   94MOL0     H12363  10.136   4.690   3.366 -0.7362  0.0461 -1.4394
   94MOL0     H12364  10.344   4.712   3.491  0.2094  1.8362 -1.3420
   94MOL0     H12365  10.354   4.817   3.348 -0.4632  1.2354  1.6759
   94MOL0     H12366  10.482   4.547   3.381  2.8980  0.6843  1.2744
   94MOL0     H12367  10.522   4.663   3.245  3.7129  1.2629  0.2030
   94MOL0     H12368  10.566   4.644   3.538  0.1897  1.3706  0.6694
   94MOL0     H12369  10.588   4.807   3.473 -2.0411 -0.1042 -0.2603
   94MOL0     H12370  10.966   4.637   3.309  1.0679  0.6116  0.7454
   94MOL0     H12371  11.168   4.711   3.419  1.6962 -2.5658  3.1837
   94MOL0     H12372  11.404   5.104   3.478 -1.1877 -0.6289  0.7351
   94MOL0     H12373  11.633   5.182   3.531  1.7164 -1.1536 -1.4289
   94MOL0     H12374  11.939   5.178   3.716  0.0066 -1.3928  0.2703
   94MOL0     H12375  11.803   5.242   3.628 -4.0843 -1.9439 -0.8292
   94MOL0     H12376  11.855   5.038   3.462  1.3507 -0.2765 -1.3987
   94MOL0     H12377  11.974   4.989   3.571  0.0524  0.0092 -3.2366
   94MOL0     H12378  12.104   5.189   3.542 -0.7854 -1.7864  1.4938
   94MOL0     H12379  11.980   5.264   3.438  1.4334 -0.2743 -0.0271
   94MOL0     H12380  12.194   5.077   3.382  0.4940 -0.5105 -2.4593
   94MOL0     H12381  12.040   5.044   3.299 -0.6909  2.0986 -0.5495
   94MOL0     H12382  12.223   5.180   3.186  0.5258 -3.0795  3.4254
   94MOL0     H12383  12.189   5.296   3.304  0.9102 -2.4240  1.8097
   94MOL0     H12384  11.956   5.323   3.239  2.2379  3.2170  0.0705
   94MOL0     H12385  11.970   5.201   3.108  1.6947  1.9448 -3.3731
   94MOL0     H12386  11.993   5.464   3.060 -0.9124 -0.6056  2.3796
   94MOL0     H12387  12.165   5.431   3.128 -1.1327  0.0444  3.1516
   94MOL0     H12388  12.024   5.317   2.877  0.7256 -0.4096 -2.0489
   94MOL0     H12389  12.155   5.226   2.952 -0.1631 -0.2520 -0.1186
   94MOL0     H12390  11.637   4.889   3.851 -2.6784  1.4122  1.2991
   94MOL0     H12391  11.418   4.795   3.757  1.3219  1.1946  2.4061
   94MOL0     H12392  10.942   4.869   3.740 -3.4366  0.8181 -0.7733
   94MOL0     H12393  10.736   4.767   3.661 -1.0692  0.7006 -1.2879
   94MOL0     H12394  10.684   4.197   2.251  0.2746  1.5018  0.1477
   94MOL0     H12395  10.887   4.285   2.149  0.1846  1.9015  1.6594
   94MOL0     H12396  11.354   4.221   2.112 -0.5179  1.5598 -0.8715
   94MOL0     H12397  11.582   4.282   2.083 -2.1180 -0.5145 -1.6305
   94MOL0     H12398  11.712   4.438   2.005 -2.2402  2.2812  0.9313
   94MOL0     H12399  11.835   4.371   2.119  0.5232 -0.2876  0.8012
   94MOL0     H12400  11.923   4.528   1.964 -0.3472  2.0498 -1.7945
   94MOL0     H12401  11.806   4.647   1.990  0.6465  1.3352  0.7704
   94MOL0     H12402  12.003   4.578   2.202 -1.6381 -0.9192  1.0942
   94MOL0     H12403  11.875   4.699   2.207 -2.0703 -0.8338 -2.0933
   94MOL0     H12404  12.069   4.725   1.984 -1.6483  1.6542 -2.2157
   94MOL0     H12405  11.974   4.848   2.055 -1.5656 -1.4495 -3.4688
   94MOL0     H12406  12.302   4.847   2.329  0.0185  1.6795  0.2112
   94MOL0     H12407  11.521   4.632   2.333  0.0167 -0.7495  1.3336
   94MOL0     H12408  11.285   4.569   2.367 -0.5569  1.3160 -0.8989
   95MOL0     O12409   3.192   3.105   6.246 -0.1556 -0.5770 -0.0432
   95MOL0     C12410   3.196   3.202   6.172  0.2773 -0.1925 -0.3343
   95MOL0     O12411   3.249   3.318   6.212 -0.7496 -0.0042 -0.1393
   95MOL0     C12412   3.365   3.372   6.147 -0.1366  0.2605 -0.0202
   95MOL0     C12413   3.389   3.509   6.158 -0.4237 -0.1161  0.3305
   95MOL0     C12414   3.479   3.570   6.069 -0.8906  0.2829  0.1820
   95MOL0     C12415   3.556   3.498   5.985  0.2731  0.0133  1.9032
   95MOL0     O12416   3.642   3.568   5.905 -0.1830 -0.2271 -0.0649
   95MOL0     C12417   3.781   3.531   5.908 -0.2007 -0.1328  0.4515
   95MOL0     C12418   3.845   3.593   5.781 -0.7413 -0.4303 -0.0772
   95MOL0     C12419   3.984   3.524   5.752 -0.3185 -0.7590 -0.3349
   95MOL0     C12420   4.033   3.603   5.623  0.3449 -0.1154  0.9621
   95MOL0     C12421   4.153   3.541   5.549  0.2431 -0.2688  0.5846
   95MOL0     C12422   4.170   3.629   5.421  0.4395  0.1997 -0.2228
   95MOL0     C12423   4.275   3.559   5.326  0.5945  0.6003 -1.1250
   95MOL0     C12424   4.381   3.659   5.278  0.0293 -0.0550  0.4393
   95MOL0     N12425   4.460   3.608   5.165 -0.1953  0.1519  0.1405
   95MOL0     C12426   4.587   3.548   5.182  0.2705  0.3895  0.2231
   95MOL0     C12427   4.629   3.501   5.056 -0.0201  0.4346 -1.0955
   95MOL0     C12428   4.758   3.422   5.028  0.1801 -0.2107 -1.1680
   95MOL0     C12429   4.870   3.495   5.103 -0.0443  0.3052  0.5352
   95MOL0     C12430   4.997   3.423   5.068 -0.2949 -0.1424 -0.7901
   95MOL0     C12431   5.124   3.484   5.107 -1.0029  0.0557  0.0346
   95MOL0     O12432   5.227   3.405   5.038 -0.1485  0.0347 -0.2910
   95MOL0     C12433   5.362   3.430   5.055  0.5275 -0.4932  1.4579
   95MOL0     C12434   5.419   3.543   5.123  0.5915 -0.8750 -0.1153
   95MOL0     C12435   5.555   3.556   5.129 -0.0894  0.1209 -0.1270
   95MOL0     C12436   5.642   3.458   5.075 -0.5104  0.5708  0.4367
   95MOL0     C12437   5.793   3.473   5.086  0.2508 -1.0133 -0.2497
   95MOL0     O12438   5.885   3.402   5.010  1.1679  0.2863 -0.2849
   95MOL0     C12439   6.018   3.419   5.034 -1.2172  0.9593  0.5102
   95MOL0     C12440   6.081   3.549   5.048  0.3573  0.5295 -1.1238
   95MOL0     C12441   6.218   3.563   5.069  0.1771  0.1520  1.0774
   95MOL0     C12442   6.293   3.446   5.062 -0.4755 -0.6658  0.5389
   95MOL0     O12443   6.431   3.455   5.069 -0.1060  0.4153 -0.0079
   95MOL0     C12444   6.484   3.522   4.953 -1.2490 -0.1247 -0.5211
   95MOL0     C12445   6.495   3.437   4.828  0.7550  0.0423  0.7113
   95MOL0     C12446   6.603   3.326   4.837  0.0130  0.5658  0.0099
   95MOL0     C12447   6.740   3.370   4.890 -0.0873  0.5794  0.6477
   95MOL0     C12448   6.799   3.473   4.795  0.4234  0.2060 -0.0487
   95MOL0     C12449   6.937   3.533   4.841  1.1781 -0.1686 -1.5089
   95MOL0     C12450   7.059   3.441   4.832  0.2197  0.1232 -1.0221
   95MOL0     C12451   7.136   3.422   4.959 -0.7721  0.1126 -0.9158
   95MOL0    Cl12452   7.278   3.317   4.926 -0.3352  0.0548 -0.3746
   95MOL0     C12453   6.233   3.322   5.043  0.0813  0.2029 -0.1726
   95MOL0     C12454   6.096   3.307   5.035 -0.7262  0.4499 -0.4066
   95MOL0     O12455   5.819   3.555   5.169  0.4846 -0.4637 -0.3053
   95MOL0     C12456   5.591   3.351   5.000  1.0469 -0.3633 -0.1780
   95MOL0     C12457   5.450   3.334   4.998 -0.4627 -0.2094 -0.6348
   95MOL0     N12458   4.526   3.537   4.973  0.9572  0.1077  0.5868
   95MOL0     N12459   4.435   3.619   5.029  0.2940 -0.2819 -0.2821
   95MOL0     C12460   3.537   3.359   5.971  0.4756  0.2147 -0.1208
   95MOL0     C12461   3.446   3.291   6.060 -0.0340 -0.9661 -1.1162
   95MOL0     C12462   3.143   3.198   6.041  0.2161  0.6364 -1.1171
   95MOL0     C12463   3.127   3.313   5.964  0.2127  0.9664 -0.4721
   95MOL0     C12464   3.079   3.308   5.834 -0.3946 -0.0989  0.7833
   95MOL0     C12465   3.046   3.185   5.774 -0.3726  0.2999 -0.5806
   95MOL0     O12466   2.990   3.203   5.650  0.2875  0.2746  0.3480
   95MOL0     C12467   2.955   3.088   5.582 -0.9734  0.5951  0.0442
   95MOL0     C12468   2.885   3.102   5.440 -0.1883 -0.2168 -0.5842
   95MOL0     C12469   2.942   3.032   5.322 -0.6958  0.2897 -0.1611
   95MOL0     C12470   3.078   3.097   5.298 -1.4532 -0.6723  1.0015
   95MOL0     C12471   3.136   3.050   5.173  0.2626 -0.0817 -0.1498
   95MOL0     C12472   3.169   3.021   5.062  0.1960 -0.4184 -0.3412
   95MOL0     C12473   3.059   3.068   5.850  0.7668 -0.6777 -0.0842
   95MOL0     C12474   3.109   3.082   5.979  0.2018  0.8944  0.5034
   95MOL0     H12475   3.328   3.570   6.223 -1.5137 -0.4793 -0.3279
   95MOL0     H12476   3.481   3.678   6.082  1.6801 -0.0037  3.4254
   95MOL0     H12477   3.794   3.422   5.906 -0.7706 -0.1951 -0.6769
   95MOL0     H12478   3.842   3.566   5.992 -0.2094  0.6810  0.1260
   95MOL0     H12479   3.859   3.701   5.788  3.8442 -0.8973  1.1410
   95MOL0     H12480   3.775   3.564   5.702 -0.7514 -0.7762  0.0556
   95MOL0     H12481   3.965   3.416   5.746  0.0639 -0.7526 -2.4355
   95MOL0     H12482   4.058   3.542   5.831  1.2864  1.3575 -2.1992
   95MOL0     H12483   3.947   3.614   5.556 -0.6247  3.0510  2.5008
   95MOL0     H12484   4.065   3.702   5.659  1.9393  0.8613 -2.7401
   95MOL0     H12485   4.142   3.437   5.518 -1.5892  0.1938 -0.4361
   95MOL0     H12486   4.244   3.564   5.605  0.3582  0.4173  0.1381
   95MOL0     H12487   4.196   3.730   5.451 -0.0478  0.6913 -1.3850
   95MOL0     H12488   4.082   3.624   5.356  1.9541 -2.6304 -2.2970
   95MOL0     H12489   4.310   3.478   5.390 -0.9538  1.3446  0.7928
   95MOL0     H12490   4.222   3.508   5.245 -0.3545  0.2681 -0.3208
   95MOL0     H12491   4.451   3.686   5.358  3.1863  1.4241 -2.5500
   95MOL0     H12492   4.333   3.749   5.240  2.7963  0.2928 -2.6025
   95MOL0     H12493   4.634   3.509   5.272 -1.8551 -5.8621 -0.8943
   95MOL0     H12494   4.780   3.419   4.921 -1.7967 -2.1692 -1.5920
   95MOL0     H12495   4.742   3.323   5.071 -2.4721  0.5122 -0.3259
   95MOL0     H12496   4.857   3.492   5.211  0.0078  0.1806  0.5377
   95MOL0     H12497   4.867   3.599   5.068 -1.6920  0.0552 -0.1487
   95MOL0     H12498   4.987   3.330   5.126  0.2190  0.5276  0.4189
   95MOL0     H12499   4.994   3.403   4.961  3.4265  1.2882 -1.3295
   95MOL0     H12500   5.133   3.502   5.215  0.0124 -2.0795  0.3504
   95MOL0     H12501   5.124   3.584   5.063  2.2476  1.1422  2.1460
   95MOL0     H12502   5.351   3.589   5.193  1.4860  0.6662 -0.2263
   95MOL0     H12503   5.605   3.639   5.176 -0.9303 -0.6878  2.3497
   95MOL0     H12504   6.013   3.631   5.026 -2.3373 -0.8304  1.3986
   95MOL0     H12505   6.261   3.662   5.075 -0.6059  0.5844 -0.1079
   95MOL0     H12506   6.584   3.557   4.980 -1.5166  0.4302 -0.2289
   95MOL0     H12507   6.415   3.604   4.930  0.9207  2.1634  0.7000
   95MOL0     H12508   6.517   3.496   4.738 -0.5397  0.6008  0.7332
   95MOL0     H12509   6.399   3.387   4.812  0.8467 -0.2790  1.1523
   95MOL0     H12510   6.618   3.282   4.739  0.3256  1.3963 -0.3266
   95MOL0     H12511   6.581   3.246   4.908  3.1364 -0.7205 -0.2811
   95MOL0     H12512   6.728   3.407   4.992 -0.4539  1.2040  0.3895
   95MOL0     H12513   6.800   3.280   4.900  1.3354  1.4255  0.0738
   95MOL0     H12514   6.725   3.553   4.783 -3.3634 -2.2511  3.7773
   95MOL0     H12515   6.806   3.426   4.697  2.3973  0.1573  0.0679
   95MOL0     H12516   6.925   3.568   4.944  0.3754  0.0589 -1.6658
   95MOL0     H12517   6.949   3.617   4.771  2.4362 -1.0155 -2.3428
   95MOL0     H12518   7.026   3.338   4.816  1.0048 -1.1627  3.7796
   95MOL0     H12519   7.129   3.479   4.758  1.3259  1.2945  0.5642
   95MOL0     H12520   7.086   3.359   5.033 -0.1772 -1.5208 -1.8527
   95MOL0     H12521   7.173   3.519   4.994  0.9650 -0.0785 -2.0920
   95MOL0     H12522   6.294   3.234   5.024 -2.0914 -1.7642  1.4544
   95MOL0     H12523   6.059   3.205   5.030 -0.7205  0.5075 -2.4918
   95MOL0     H12524   5.654   3.278   4.951 -0.9556 -1.6121 -0.9926
   95MOL0     H12525   5.398   3.250   4.953 -0.1896 -0.9113  0.3132
   95MOL0     H12526   3.587   3.299   5.896 -1.0228 -1.7260  0.3406
   95MOL0     H12527   3.440   3.183   6.065  4.2214 -1.3438  0.6743
   95MOL0     H12528   3.136   3.407   6.016 -1.7486  1.2748 -0.6094
   95MOL0     H12529   3.076   3.394   5.767 -0.9339 -1.8486 -1.5465
   95MOL0     H12530   2.880   3.044   5.648 -1.3029 -0.3263 -0.9149
   95MOL0     H12531   3.037   3.015   5.574 -2.3758 -1.0149 -0.0466
   95MOL0     H12532   2.777   3.081   5.445 -0.0665 -0.5007  1.7132
   95MOL0     H12533   2.883   3.211   5.429 -1.7160 -0.2403 -0.8264
   95MOL0     H12534   2.878   3.038   5.234 -1.8654 -1.8995  0.4827
   95MOL0     H12535   2.946   2.924   5.340 -3.0902  0.3893  1.2831
   95MOL0     H12536   3.071   3.205   5.279  0.4457 -1.0454 -2.8831
   95MOL0     H12537   3.147   3.074   5.380 -1.3476 -1.3790  0.7200
   95MOL0     H12538   3.205   2.983   4.969 -2.7406 -1.0113 -1.3298
   95MOL0     H12539   3.017   2.972   5.823 -2.6813  0.6037  0.1970
   95MOL0     H12540   3.122   2.992   6.040 -1.3562  0.9354  0.9366
   96MOL0     O12541   4.781  11.218   8.834  0.0602  0.3267  0.3028
   96MOL0     C12542   4.676  11.144   8.842  0.6442 -0.9037  0.1501
   96MOL0     O12543   4.671  11.023   8.901  0.4376  0.9410  0.1646
   96MOL0     C12544   4.785  10.957   8.941 -0.6915 -0.1884 -1.5645
   96MOL0     C12545   4.903  11.015   8.988 -0.6838 -0.2268  0.6135
   96MOL0     C12546   5.018  10.938   9.025 -0.1058  0.2094 -0.7398
   96MOL0     C12547   5.011  10.801   9.027  0.0119 -0.2183  0.2645
   96MOL0     O12548   5.108  10.722   9.083 -0.0363  0.3287 -0.8347
   96MOL0     C12549   5.231  10.725   9.012  0.8549 -0.4500 -0.1116
   96MOL0     C12550   5.322  10.618   9.063 -0.5680  1.4052 -0.6268
   96MOL0     C12551   5.442  10.586   8.966  0.6279 -0.4382  0.0387
   96MOL0     C12552   5.412  10.577   8.814  0.1742 -0.3810  0.3732
   96MOL0     C12553   5.552  10.584   8.736 -0.5047 -0.7150  0.1061
   96MOL0     C12554   5.528  10.533   8.600 -0.3555 -0.8464  0.0106
   96MOL0     C12555   5.661  10.550   8.519 -0.1556  0.0225  0.3500
   96MOL0     C12556   5.645  10.463   8.395  0.4477 -1.0262 -0.1338
   96MOL0     N12557   5.534  10.504   8.310  0.3493 -0.8824  0.6695
   96MOL0     C12558   5.517  10.630   8.262  0.4435 -0.0795  0.5744
   96MOL0     C12559   5.390  10.636   8.203  0.2430  0.4272 -0.1452
   96MOL0     C12560   5.324  10.753   8.138 -0.1730  1.0067 -0.5560
   96MOL0     C12561   5.412  10.785   8.014  0.1784  0.1626 -0.9956
   96MOL0     C12562   5.373  10.921   7.953  0.5457 -0.4964 -0.6054
   96MOL0     C12563   5.401  10.949   7.802 -0.6018 -0.0974 -0.6889
   96MOL0     O12564   5.538  10.935   7.769  0.1854 -0.5051  0.0662
   96MOL0     C12565   5.583  10.935   7.637  0.6940  0.5507  0.6917
   96MOL0     C12566   5.715  10.938   7.597  0.0228 -0.1240 -0.4280
   96MOL0     C12567   5.759  10.930   7.467  0.5522 -0.2030  0.5465
   96MOL0     C12568   5.675  10.920   7.359  0.1112  0.3199 -0.6278
   96MOL0     C12569   5.729  10.914   7.228  0.4460  0.1255  1.0266
   96MOL0     O12570   5.864  10.875   7.221 -0.1854 -0.6974  0.4585
   96MOL0     C12571   5.916  10.849   7.094  0.4007 -0.9052  0.2897
   96MOL0     C12572   6.007  10.749   7.087 -1.0130 -0.3415 -0.4280
   96MOL0     C12573   6.085  10.733   6.974  0.4066 -0.1613 -0.1117
   96MOL0     C12574   6.084  10.822   6.865  0.1244  0.5594 -1.0025
   96MOL0     O12575   6.177  10.806   6.765 -0.1402 -0.2894  0.3824
   96MOL0     C12576   6.226  10.917   6.681  0.1581  0.1403  0.4787
   96MOL0     C12577   6.251  11.052   6.757  0.0316 -0.2678 -0.5842
   96MOL0     C12578   6.324  11.025   6.892  0.3312 -0.2752 -1.0109
   96MOL0     C12579   6.410  11.148   6.930 -0.9799  0.0802 -0.1210
   96MOL0     C12580   6.338  11.279   6.964  0.3194  0.0494  0.2345
   96MOL0     C12581   6.230  11.265   7.068  0.7153 -1.4437 -1.1854
   96MOL0     C12582   6.231  11.397   7.141 -0.2306  0.1393 -0.1701
   96MOL0     C12583   6.163  11.512   7.058  0.7834 -0.3009 -0.1556
   96MOL0    Cl12584   6.216  11.678   7.121  0.1723  0.4248 -0.7825
   96MOL0     C12585   5.985  10.912   6.866  0.8649 -0.1308  0.3453
   96MOL0     C12586   5.891  10.926   6.974 -0.0708 -0.8815 -0.3565
   96MOL0     O12587   5.648  10.900   7.137 -0.3588 -0.1874  0.3491
   96MOL0     C12588   5.541  10.916   7.391 -0.4012 -1.2965  0.3144
   96MOL0     C12589   5.496  10.919   7.527  0.1327  0.3498  0.7030
   96MOL0     N12590   5.337  10.510   8.215 -0.4358 -0.1850 -0.6201
   96MOL0     N12591   5.426  10.432   8.282  0.5928  0.7260 -1.4714
   96MOL0     C12592   4.892  10.749   8.990  0.7981  0.2284 -0.3816
   96MOL0     C12593   4.783  10.824   8.942  0.2308 -0.0256 -0.3643
   96MOL0     C12594   4.556  11.192   8.758  0.4716  0.7433  0.2583
   96MOL0     C12595   4.425  11.150   8.779 -0.1220 -0.5794  0.6888
   96MOL0     C12596   4.319  11.192   8.698 -0.3985  0.6903  0.1842
   96MOL0     C12597   4.343  11.272   8.593 -0.3672 -0.1528 -0.6241
   96MOL0     O12598   4.250  11.325   8.505 -0.3735  0.7487  0.2852
   96MOL0     C12599   4.169  11.233   8.444  0.0892 -0.7790  0.4915
   96MOL0     C12600   4.040  11.304   8.408  0.4783  0.9422 -0.1937
   96MOL0     C12601   3.957  11.318   8.543 -0.5674 -0.0783  0.4831
   96MOL0     C12602   3.904  11.457   8.560 -0.2118  0.0692  0.1286
   96MOL0     C12603   3.799  11.479   8.457  0.1395 -0.7096 -0.1413
   96MOL0     C12604   3.723  11.503   8.367  0.1629  0.0289  0.6362
   96MOL0     C12605   4.476  11.311   8.571 -0.1283 -0.2089  0.1422
   96MOL0     C12606   4.583  11.271   8.650  0.0743  1.0047 -0.1935
   96MOL0     H12607   4.900  11.121   9.012  1.5826  0.0432 -0.0149
   96MOL0     H12608   5.106  10.994   9.058 -0.9787  0.3760  1.4728
   96MOL0     H12609   5.270  10.826   9.032  2.2345 -1.1442  0.8654
   96MOL0     H12610   5.204  10.716   8.906 -2.0900  2.8452  0.1688
   96MOL0     H12611   5.258  10.530   9.072 -1.0382  1.8893  1.4625
   96MOL0     H12612   5.352  10.636   9.167  0.7750 -0.2924 -0.6786
   96MOL0     H12613   5.490  10.493   8.997 -1.1645 -1.9530 -1.4495
   96MOL0     H12614   5.504  10.676   8.970 -2.9676  2.3978 -1.6126
   96MOL0     H12615   5.364  10.482   8.789  0.4670 -0.3978 -0.1282
   96MOL0     H12616   5.359  10.664   8.777  1.8895  1.2833  1.6319
   96MOL0     H12617   5.620  10.513   8.785 -0.0169 -1.5536 -1.7163
   96MOL0     H12618   5.596  10.684   8.736 -4.0177  1.0349 -1.5638
   96MOL0     H12619   5.452  10.601   8.560 -1.3126 -0.3939  2.4470
   96MOL0     H12620   5.488  10.431   8.601 -1.6672 -0.3810 -1.1383
   96MOL0     H12621   5.664  10.656   8.494  2.1473 -0.4506 -1.7407
   96MOL0     H12622   5.738  10.519   8.591 -1.3298 -4.2344  0.0696
   96MOL0     H12623   5.620  10.365   8.437 -0.9509  0.4492  2.8716
   96MOL0     H12624   5.741  10.471   8.344  0.3970  2.3929  0.0332
   96MOL0     H12625   5.587  10.713   8.256 -0.5626  1.0761  3.2892
   96MOL0     H12626   5.323  10.825   8.221 -1.7194 -0.2570  0.5942
   96MOL0     H12627   5.221  10.735   8.104 -0.1220  0.0029 -0.2119
   96MOL0     H12628   5.397  10.711   7.934  1.1604 -0.8673 -0.2690
   96MOL0     H12629   5.519  10.793   8.037  0.6491  0.5636 -3.1553
   96MOL0     H12630   5.267  10.927   7.981  0.0006  1.8381 -2.8054
   96MOL0     H12631   5.416  11.001   8.015 -0.8511  2.1565 -2.8490
   96MOL0     H12632   5.365  11.049   7.779 -0.0852  0.2377 -0.0818
   96MOL0     H12633   5.341  10.873   7.751 -1.5234  0.3784 -0.3388
   96MOL0     H12634   5.790  10.933   7.675 -0.1226  0.5258 -0.2372
   96MOL0     H12635   5.864  10.939   7.443 -0.4169  5.1220 -3.6642
   96MOL0     H12636   6.036  10.686   7.171 -1.0691  1.2897  0.8522
   96MOL0     H12637   6.153  10.649   6.960  0.6968 -0.0672  0.6728
   96MOL0     H12638   6.154  10.941   6.601 -0.4798  0.1211  1.0401
   96MOL0     H12639   6.321  10.877   6.644 -0.1571  1.3455 -1.8918
   96MOL0     H12640   6.152  11.098   6.768  1.0381  1.3678  4.0215
   96MOL0     H12641   6.308  11.115   6.688  1.1687 -2.4106 -1.7105
   96MOL0     H12642   6.380  10.932   6.879 -1.7076 -1.9684  1.3075
   96MOL0     H12643   6.248  10.992   6.964  1.3286 -2.1123 -0.7256
   96MOL0     H12644   6.464  11.116   7.019 -0.3172  2.1552  0.2837
   96MOL0     H12645   6.485  11.169   6.853 -0.2389 -1.8009  0.0528
   96MOL0     H12646   6.282  11.318   6.878 -0.6653 -2.5086 -0.3757
   96MOL0     H12647   6.416  11.351   6.989 -1.1993  2.7273 -2.1743
   96MOL0     H12648   6.250  11.182   7.137  1.0329 -0.2264  0.2524
   96MOL0     H12649   6.129  11.245   7.030  1.3955 -3.4550 -2.0667
   96MOL0     H12650   6.189  11.373   7.239 -0.4053 -2.8248 -0.8833
   96MOL0     H12651   6.337  11.423   7.151  1.3775 -4.4159 -2.5761
   96MOL0     H12652   6.057  11.505   7.084  1.4833 -1.0422  2.9924
   96MOL0     H12653   6.177  11.496   6.951  1.4975 -1.1273  0.0442
   96MOL0     H12654   5.973  10.973   6.777 -3.7991 -2.2737 -0.8043
   96MOL0     H12655   5.812  11.000   6.982  0.4937 -0.1911 -0.9668
   96MOL0     H12656   5.473  10.897   7.308  0.0228 -2.0322  0.1345
   96MOL0     H12657   5.388  10.918   7.540  0.1001  0.7715  0.4744
   96MOL0     H12658   4.897  10.641   8.991  0.8576  0.2338 -0.0519
   96MOL0     H12659   4.696  10.770   8.907  0.6541 -1.5561  0.8269
   96MOL0     H12660   4.398  11.090   8.866  3.3061  2.0167  3.8717
   96MOL0     H12661   4.213  11.175   8.717 -1.5836  1.8781 -4.2542
   96MOL0     H12662   4.152  11.143   8.505  3.1363 -1.5587  0.3538
   96MOL0     H12663   4.215  11.201   8.350 -0.2132  0.6952 -0.1756
   96MOL0     H12664   4.049  11.391   8.343  3.0061 -0.1865 -1.4887
   96MOL0     H12665   3.989  11.227   8.349 -0.1843  0.3548  1.0851
   96MOL0     H12666   4.027  11.320   8.627  2.3121  2.3644 -1.7024
   96MOL0     H12667   3.881  11.242   8.562  2.7425 -3.7789  0.0983
   96MOL0     H12668   3.866  11.476   8.661  2.4982 -0.2736  1.2814
   96MOL0     H12669   3.989  11.524   8.546 -1.0455  1.1154 -0.1160
   96MOL0     H12670   3.645  11.537   8.302 -1.1148  0.1970  2.1944
   96MOL0     H12671   4.505  11.382   8.494  1.7909  2.1918  2.8535
   96MOL0     H12672   4.680  11.305   8.613 -0.5199  2.9443 -0.0851
   97MOL0     O12673   9.381   8.497   8.390 -0.8952  0.2105  0.1579
   97MOL0     C12674   9.285   8.501   8.461 -0.6436  0.3738  0.9386
   97MOL0     O12675   9.235   8.618   8.522  0.5053 -0.2752 -0.4203
   97MOL0     C12676   9.309   8.730   8.530 -0.1526 -1.2540  0.5991
   97MOL0     C12677   9.289   8.826   8.433 -0.6611  0.1305 -0.7420
   97MOL0     C12678   9.370   8.939   8.430 -0.7222 -0.1260  0.1894
   97MOL0     C12679   9.476   8.954   8.531 -0.1723  0.0784 -0.1756
   97MOL0     O12680   9.543   9.074   8.526 -0.7967 -0.2788 -0.9719
   97MOL0     C12681   9.589   9.123   8.650 -0.7950  0.4905  0.0592
   97MOL0     C12682   9.613   9.276   8.615 -0.1058  0.7905  0.5470
   97MOL0     C12683   9.767   9.282   8.576 -0.2052 -0.2486  0.8997
   97MOL0     C12684   9.777   9.298   8.426 -0.1061  0.4893 -0.5788
   97MOL0     C12685   9.907   9.369   8.385  0.4132  0.1015  1.6733
   97MOL0     C12686   9.934   9.334   8.236 -1.3776 -0.9457 -0.1066
   97MOL0     C12687  10.066   9.397   8.180  1.1436 -0.3029  0.5016
   97MOL0     C12688  10.177   9.309   8.208 -0.8236 -0.4333  0.6457
   97MOL0     N12689  10.291   9.365   8.132  0.0540 -0.0561  0.3501
   97MOL0     C12690  10.378   9.466   8.173  0.3595 -1.0386 -0.4604
   97MOL0     C12691  10.435   9.508   8.061 -0.2340 -0.3568 -0.6372
   97MOL0     C12692  10.545   9.614   8.063  0.5745  0.5841 -0.6250
   97MOL0     C12693  10.682   9.570   8.014 -0.7564  0.2319  0.5778
   97MOL0     C12694  10.751   9.450   8.079  0.3428  0.9089  0.7288
   97MOL0     C12695  10.809   9.497   8.209  0.5242 -0.6559  0.3522
   97MOL0     O12696  10.949   9.492   8.221  0.1998  0.1707 -0.3768
   97MOL0     C12697  11.018   9.527   8.334 -0.1805 -0.8323  0.1219
   97MOL0     C12698  11.157   9.517   8.319  0.9621 -0.7325 -0.6481
   97MOL0     C12699  11.241   9.538   8.420 -0.3490  0.3325 -0.8005
   97MOL0     C12700  11.195   9.558   8.551 -0.2652 -0.0908  0.1164
   97MOL0     C12701  11.295   9.566   8.660 -0.1222  0.2029  0.6404
   97MOL0     O12702  11.397   9.483   8.657  0.5319  0.1367 -0.1357
   97MOL0     C12703  11.489   9.511   8.758 -0.2560 -0.1958 -0.6594
   97MOL0     C12704  11.595   9.595   8.736  0.3386  1.2463  0.3960
   97MOL0     C12705  11.682   9.615   8.836 -0.3528 -0.4001 -0.6361
   97MOL0     C12706  11.683   9.552   8.966  0.0885  0.1396  1.0116
   97MOL0     O12707  11.774   9.565   9.063  0.1557  0.4673 -0.0184
   97MOL0     C12708  11.881   9.650   9.039 -0.4838 -0.9256 -0.8868
   97MOL0     C12709  11.974   9.662   9.162 -0.1114  0.7078 -0.5979
   97MOL0     C12710  11.927   9.768   9.253 -0.6481  0.5181  0.2438
   97MOL0     C12711  12.016   9.807   9.367  0.1417 -0.3014 -0.2171
   97MOL0     C12712  11.974   9.935   9.448  0.1457 -1.2719 -0.1346
   97MOL0     C12713  11.830   9.937   9.494  0.2601 -0.3973 -0.0059
   97MOL0     C12714  11.801  10.063   9.573  0.6267 -0.0125  0.0671
   97MOL0     C12715  11.649  10.064   9.612  0.2400 -0.0531  0.4786
   97MOL0    Cl12716  11.610  10.004   9.773  0.0403 -0.0655 -0.4268
   97MOL0     C12717  11.583   9.458   8.975 -0.1961 -0.6021 -0.1255
   97MOL0     C12718  11.485   9.442   8.880 -0.4457  1.0864 -0.1649
   97MOL0     O12719  11.275   9.649   8.747  0.0188 -0.6345  0.2780
   97MOL0     C12720  11.060   9.564   8.563  0.8617 -0.8438 -0.2124
   97MOL0     C12721  10.968   9.555   8.461 -0.0116 -0.1314 -0.7762
   97MOL0     N12722  10.388   9.436   7.957 -0.2284  0.0039  1.0603
   97MOL0     N12723  10.290   9.361   7.992 -0.1009  0.3343 -0.0276
   97MOL0     C12724   9.488   8.861   8.636  0.2431 -0.9137 -0.0882
   97MOL0     C12725   9.405   8.745   8.634  0.1199 -0.8403 -0.0312
   97MOL0     C12726   9.216   8.368   8.479 -0.3659 -0.2014  0.3878
   97MOL0     C12727   9.294   8.251   8.476  0.0761  0.0182 -0.6755
   97MOL0     C12728   9.239   8.129   8.518  0.1495 -0.2046 -0.2190
   97MOL0     C12729   9.103   8.122   8.559 -0.5211 -0.0376 -0.1812
   97MOL0     O12730   9.050   8.003   8.605  0.1212 -0.4346 -0.0973
   97MOL0     C12731   9.111   7.879   8.579 -0.0221  0.4473 -0.1568
   97MOL0     C12732   9.020   7.771   8.638 -0.1965  0.1546  0.8227
   97MOL0     C12733   9.058   7.624   8.583  0.1595 -0.5916 -0.5249
   97MOL0     C12734   8.994   7.513   8.660 -0.2633 -0.3328 -0.1680
   97MOL0     C12735   9.087   7.399   8.688  0.3170 -0.4169 -0.1599
   97MOL0     C12736   9.167   7.311   8.719  0.0484 -0.5773 -0.3481
   97MOL0     C12737   9.029   8.244   8.559  0.4393  0.1632 -0.0030
   97MOL0     C12738   9.086   8.360   8.522  0.5768 -0.0225  0.0410
   97MOL0     H12739   9.205   8.820   8.364 -0.1445  2.3945 -1.6659
   97MOL0     H12740   9.344   9.012   8.353 -0.9764 -0.7302 -0.3086
   97MOL0     H12741   9.682   9.077   8.684 -0.1407 -0.0328 -2.2518
   97MOL0     H12742   9.505   9.113   8.720  0.5082  1.5631  1.8613
   97MOL0     H12743   9.597   9.322   8.713  1.5942  0.4156  1.0370
   97MOL0     H12744   9.542   9.313   8.540 -1.8731 -3.1255  0.0066
   97MOL0     H12745   9.829   9.194   8.599  0.4344  0.3264  1.4481
   97MOL0     H12746   9.812   9.367   8.628 -0.3142 -0.2381  0.9752
   97MOL0     H12747   9.781   9.195   8.391  1.5577  0.1327  0.5737
   97MOL0     H12748   9.692   9.352   8.381  1.9000  0.8867 -4.3257
   97MOL0     H12749   9.999   9.342   8.436  1.2259  0.3394  0.3719
   97MOL0     H12750   9.906   9.478   8.392  1.7055  0.1465  1.3441
   97MOL0     H12751   9.850   9.374   8.178 -1.2384  0.1046  0.3977
   97MOL0     H12752   9.931   9.226   8.218 -1.5313 -1.2485  1.5316
   97MOL0     H12753  10.051   9.414   8.073 -1.9733  0.7439  1.0152
   97MOL0     H12754  10.090   9.492   8.228  0.0609  0.7557 -0.9642
   97MOL0     H12755  10.151   9.205   8.187 -2.2168 -0.1534  0.8757
   97MOL0     H12756  10.203   9.323   8.314 -1.9471  1.0201  0.7685
   97MOL0     H12757  10.387   9.495   8.277  1.8462 -0.5182 -0.7140
   97MOL0     H12758  10.555   9.657   8.163  0.2571 -0.8153  0.0255
   97MOL0     H12759  10.500   9.693   8.002 -3.8529  0.8204  2.4765
   97MOL0     H12760  10.750   9.656   8.017  1.2217 -1.2658  0.8822
   97MOL0     H12761  10.666   9.552   7.908 -3.4362  3.0997  0.3422
   97MOL0     H12762  10.669   9.377   8.088  0.6779  0.5698  1.0951
   97MOL0     H12763  10.832   9.411   8.017 -1.7982 -1.2684 -0.9249
   97MOL0     H12764  10.757   9.430   8.279 -1.4516 -2.3948 -2.5188
   97MOL0     H12765  10.771   9.595   8.238 -1.7617 -0.3191 -3.1427
   97MOL0     H12766  11.191   9.502   8.217 -1.2697  2.3821 -2.0333
   97MOL0     H12767  11.349   9.545   8.415 -0.4090  2.7014  0.1819
   97MOL0     H12768  11.604   9.640   8.637  0.2559 -0.4326 -0.4038
   97MOL0     H12769  11.763   9.684   8.817 -0.0420  0.0745  2.0116
   97MOL0     H12770  11.848   9.744   8.993  1.4776  0.2371 -0.0095
   97MOL0     H12771  11.944   9.611   8.959 -2.4825 -2.4315 -1.8391
   97MOL0     H12772  12.070   9.692   9.120  2.2744 -0.5775  3.3620
   97MOL0     H12773  11.977   9.566   9.215  0.0797  1.3651  0.6378
   97MOL0     H12774  11.828   9.745   9.294  0.6186 -0.9834  2.6829
   97MOL0     H12775  11.928   9.858   9.190 -2.6298 -0.8712 -1.9367
   97MOL0     H12776  12.034   9.722   9.434 -1.7932 -1.2395 -0.8002
   97MOL0     H12777  12.116   9.829   9.327  0.5415 -0.9026  0.4319
   97MOL0     H12778  11.988  10.028   9.391  0.1170 -1.3336 -0.2424
   97MOL0     H12779  12.034   9.943   9.539 -0.8648 -2.1637  0.6294
   97MOL0     H12780  11.815   9.848   9.556 -0.5770 -2.0783 -2.4802
   97MOL0     H12781  11.759   9.915   9.414 -0.2088 -4.0162  1.2316
   97MOL0     H12782  11.855  10.074   9.668  0.7578  0.5035 -0.0665
   97MOL0     H12783  11.811  10.150   9.507 -1.0189 -2.0260 -3.0970
   97MOL0     H12784  11.598  10.007   9.535 -0.2178  1.3224 -0.2776
   97MOL0     H12785  11.616  10.168   9.604 -1.4361 -0.4482  1.6046
   97MOL0     H12786  11.579   9.400   9.067  0.8738  0.1605  0.4278
   97MOL0     H12787  11.409   9.365   8.878 -1.2650  1.8093 -3.6122
   97MOL0     H12788  11.022   9.598   8.659 -0.6894  0.2031 -1.1383
   97MOL0     H12789  10.863   9.563   8.488 -0.1038 -1.0653 -0.8250
   97MOL0     H12790   9.554   8.877   8.720  0.4478 -1.6785 -0.0895
   97MOL0     H12791   9.391   8.669   8.711  1.4612 -0.6713  0.3918
   97MOL0     H12792   9.400   8.265   8.458  0.0101  1.6652  0.1331
   97MOL0     H12793   9.307   8.044   8.518 -0.3053 -0.5755 -1.3661
   97MOL0     H12794   9.210   7.858   8.622  1.8268  1.7260 -3.4461
   97MOL0     H12795   9.120   7.873   8.471 -0.9707 -1.4771 -0.1709
   97MOL0     H12796   8.998   7.787   8.744 -1.6203  1.6293  0.3473
   97MOL0     H12797   8.921   7.783   8.593 -0.1923 -0.3595  0.6797
   97MOL0     H12798   9.167   7.615   8.590  0.1020 -2.3858 -1.2078
   97MOL0     H12799   9.034   7.602   8.478  1.8815 -2.8705 -0.5367
   97MOL0     H12800   8.959   7.549   8.757 -1.6357 -0.4199 -0.6054
   97MOL0     H12801   8.906   7.466   8.614 -0.6660 -1.7461  1.8925
   97MOL0     H12802   9.257   7.254   8.725  2.7322  3.3202  0.6070
   97MOL0     H12803   8.923   8.258   8.582  1.0915  2.2666  2.0813
   97MOL0     H12804   9.012   8.440   8.521 -3.5179 -3.4717 -1.0663
   98MOL0     O12805   1.930   7.718   6.780 -0.1121 -0.2653 -0.3414
   98MOL0     C12806   2.025   7.652   6.821  0.4670  0.8988  0.3766
   98MOL0     O12807   2.028   7.515   6.839  0.5682  0.3127 -0.0644
   98MOL0     C12808   1.911   7.442   6.827 -1.3605 -0.4324 -0.3426
   98MOL0     C12809   1.826   7.460   6.721  0.5000  0.6385  0.0690
   98MOL0     C12810   1.701   7.398   6.706  0.2724  0.1195 -0.2286
   98MOL0     C12811   1.651   7.324   6.816  0.1869 -0.9282  0.4470
   98MOL0     O12812   1.518   7.289   6.812 -0.2044 -0.3800  0.5760
   98MOL0     C12813   1.452   7.210   6.905 -0.9660  1.0716 -1.0183
   98MOL0     C12814   1.306   7.180   6.847 -0.7065  0.1021 -0.5163
   98MOL0     C12815   1.229   7.060   6.893  0.7733  0.3742  0.3903
   98MOL0     C12816   1.095   7.033   6.826  0.4675  0.4256  0.1053
   98MOL0     C12817   1.017   6.911   6.886  0.0400 -0.2267  0.0826
   98MOL0     C12818   1.087   6.774   6.869  0.8600 -0.4441 -0.1260
   98MOL0     C12819   1.024   6.657   6.941  0.4872 -0.3182 -0.0446
   98MOL0     C12820   1.124   6.548   6.933 -0.2820 -0.0852 -1.1700
   98MOL0     N12821   1.049   6.425   6.932 -1.2539  1.4984  0.2670
   98MOL0     C12822   1.109   6.310   6.892 -0.6851  0.5045 -0.5478
   98MOL0     C12823   1.010   6.216   6.912  0.9362 -0.1985  0.8080
   98MOL0     C12824   1.012   6.066   6.879  0.4715 -0.8870 -0.0877
   98MOL0     C12825   0.924   6.043   6.762 -0.0415 -0.2870 -0.9413
   98MOL0     C12826   0.918   5.891   6.732  0.5896  0.4147 -0.3714
   98MOL0     C12827   0.836   5.852   6.607 -1.2903  0.2013  0.0350
   98MOL0     O12828   0.891   5.901   6.486  0.2673 -0.4396  0.1466
   98MOL0     C12829   1.010   5.840   6.448  0.2252 -0.7799  0.0958
   98MOL0     C12830   1.077   5.724   6.499 -0.5987 -0.1710  0.6151
   98MOL0     C12831   1.205   5.698   6.444 -0.0027  0.9424 -0.0438
   98MOL0     C12832   1.264   5.766   6.347  0.0332 -0.1555 -0.7574
   98MOL0     C12833   1.390   5.721   6.295 -0.9783 -0.3874  0.2254
   98MOL0     O12834   1.420   5.765   6.163 -1.0200  0.0542 -0.1844
   98MOL0     C12835   1.544   5.743   6.113 -0.2630 -0.3682  0.2278
   98MOL0     C12836   1.654   5.667   6.162  0.7903  0.0478  0.0843
   98MOL0     C12837   1.756   5.625   6.071  0.9492 -0.2281 -0.2619
   98MOL0     C12838   1.764   5.667   5.944  0.1560 -0.2870 -0.3459
   98MOL0     O12839   1.869   5.624   5.863  0.3598 -0.3940  0.2440
   98MOL0     C12840   1.838   5.487   5.822 -0.7381 -1.0530  0.3203
   98MOL0     C12841   1.932   5.456   5.713 -0.0652 -0.3051  0.5265
   98MOL0     C12842   2.081   5.444   5.755 -0.1910  0.0579  0.2495
   98MOL0     C12843   2.157   5.388   5.639 -0.8267 -0.7410 -0.6755
   98MOL0     C12844   2.301   5.375   5.679  0.1049  0.9738 -0.4867
   98MOL0     C12845   2.395   5.299   5.580 -0.1596 -0.5611 -1.1736
   98MOL0     C12846   2.541   5.316   5.617  0.6228 -0.3594  0.3118
   98MOL0     C12847   2.621   5.206   5.538 -0.2604 -0.4432 -0.1087
   98MOL0    Cl12848   2.793   5.285   5.536 -0.1517 -0.3356  0.2494
   98MOL0     C12849   1.661   5.756   5.904 -0.1494  0.6625  0.6306
   98MOL0     C12850   1.554   5.797   5.983 -0.9481  1.2265  0.4801
   98MOL0     O12851   1.455   5.655   6.379  0.0754 -0.2401  0.7469
   98MOL0     C12852   1.197   5.874   6.300  0.7110 -0.4571 -0.1026
   98MOL0     C12853   1.073   5.912   6.356 -0.8680  0.4808  0.8715
   98MOL0     N12854   0.904   6.274   6.968  0.1936  0.3163 -0.5947
   98MOL0     N12855   0.927   6.396   6.977 -0.7915 -0.0134  0.2723
   98MOL0     C12856   1.734   7.295   6.921 -0.9544 -0.9688 -0.5424
   98MOL0     C12857   1.869   7.352   6.923  0.4750 -0.0600 -0.3797
   98MOL0     C12858   2.151   7.715   6.839  0.4006  1.2570  0.1510
   98MOL0     C12859   2.259   7.641   6.784 -0.5098 -0.3222 -0.2773
   98MOL0     C12860   2.382   7.706   6.798 -0.0901 -0.3432  0.0674
   98MOL0     C12861   2.404   7.834   6.854  0.1081  0.4130 -0.3498
   98MOL0     O12862   2.538   7.871   6.851  0.6106 -0.0180 -0.4477
   98MOL0     C12863   2.568   8.008   6.893 -0.6456  0.1075  0.2566
   98MOL0     C12864   2.704   8.056   6.854 -0.2063  0.9126  0.1286
   98MOL0     C12865   2.735   8.200   6.899 -0.2417  0.6623  0.0308
   98MOL0     C12866   2.882   8.241   6.889  0.6461 -1.0416 -0.1054
   98MOL0     C12867   2.954   8.202   6.772  0.9502 -0.7553  1.0243
   98MOL0     C12868   3.016   8.172   6.665 -1.3892  0.1356 -0.6890
   98MOL0     C12869   2.296   7.910   6.889  0.4657 -0.7196 -0.4346
   98MOL0     C12870   2.167   7.847   6.881 -0.1430  0.4815 -0.5159
   98MOL0     H12871   1.877   7.517   6.644 -1.1085  1.6107 -0.3303
   98MOL0     H12872   1.626   7.409   6.628  1.0635 -0.2421 -1.0578
   98MOL0     H12873   1.446   7.265   6.999 -1.8758  0.6299 -0.8147
   98MOL0     H12874   1.503   7.118   6.936  1.5290  3.1183  1.5237
   98MOL0     H12875   1.315   7.182   6.738  0.0831 -2.9287 -0.5914
   98MOL0     H12876   1.256   7.272   6.879 -2.0231  0.2975 -2.9315
   98MOL0     H12877   1.197   7.054   6.998 -2.7630 -2.0501 -0.6513
   98MOL0     H12878   1.294   6.973   6.888 -1.3917 -1.2965 -0.3858
   98MOL0     H12879   1.036   7.123   6.844  0.5595  0.4884  0.0939
   98MOL0     H12880   1.096   7.017   6.718  0.0987  1.6686 -0.0961
   98MOL0     H12881   0.923   6.911   6.831  0.9598  0.5225 -1.5643
   98MOL0     H12882   0.993   6.924   6.992  0.0653 -3.0548  0.5217
   98MOL0     H12883   1.184   6.786   6.919 -0.2541 -0.2115  2.1163
   98MOL0     H12884   1.096   6.754   6.762  0.6940  2.0761 -0.6803
   98MOL0     H12885   1.011   6.699   7.041  0.3333  0.2253 -0.2889
   98MOL0     H12886   0.927   6.635   6.896 -1.1295  1.1444  2.4490
   98MOL0     H12887   1.189   6.574   7.018 -1.1429 -0.6474 -0.3231
   98MOL0     H12888   1.194   6.557   6.849  2.0555 -2.3101  0.3819
   98MOL0     H12889   1.209   6.303   6.849 -0.4522 -1.8920  0.2492
   98MOL0     H12890   0.975   6.002   6.960  1.6242 -2.7608 -0.9886
   98MOL0     H12891   1.112   6.026   6.862 -0.6080 -3.8970  0.1427
   98MOL0     H12892   0.964   6.098   6.676 -2.3861  3.4657  0.1629
   98MOL0     H12893   0.817   6.066   6.765  0.1440  0.8553 -2.0949
   98MOL0     H12894   1.019   5.850   6.719 -0.4341 -2.9182  0.9526
   98MOL0     H12895   0.870   5.837   6.814  0.0755 -0.6435 -1.3234
   98MOL0     H12896   0.741   5.902   6.628 -1.9659 -2.3182  4.1083
   98MOL0     H12897   0.817   5.745   6.616  0.9632 -0.3460 -0.9515
   98MOL0     H12898   1.022   5.642   6.545 -0.3918 -0.4075  0.4493
   98MOL0     H12899   1.248   5.605   6.479 -0.4539  0.9200  0.4573
   98MOL0     H12900   1.653   5.629   6.263 -0.9551 -0.2928 -0.0318
   98MOL0     H12901   1.841   5.566   6.103  1.8862  0.7114 -0.9554
   98MOL0     H12902   1.737   5.480   5.781 -0.5473 -1.1429 -0.1480
   98MOL0     H12903   1.849   5.403   5.892 -0.8525 -2.1777 -0.9716
   98MOL0     H12904   1.925   5.531   5.634 -0.6366 -0.2235  0.6435
   98MOL0     H12905   1.901   5.361   5.668  0.4813  0.6215 -1.9271
   98MOL0     H12906   2.091   5.379   5.842 -3.7206 -0.8577  0.1611
   98MOL0     H12907   2.110   5.547   5.779 -3.2607  1.1420 -0.1709
   98MOL0     H12908   2.128   5.285   5.617  1.1079 -2.1476  2.5692
   98MOL0     H12909   2.145   5.453   5.551 -0.5300 -0.6747 -0.6694
   98MOL0     H12910   2.297   5.323   5.776  0.9399  2.7266  0.5390
   98MOL0     H12911   2.337   5.478   5.691 -1.7866  1.4888  1.4111
   98MOL0     H12912   2.370   5.346   5.484 -3.6277 -0.0036 -0.1193
   98MOL0     H12913   2.355   5.198   5.586 -0.8137 -0.2121  1.7582
   98MOL0     H12914   2.563   5.419   5.585 -3.5781  0.5043 -0.3508
   98MOL0     H12915   2.559   5.321   5.724  0.1896  1.9995  0.3435
   98MOL0     H12916   2.579   5.194   5.437  1.2175  1.3857 -1.0104
   98MOL0     H12917   2.623   5.109   5.588  2.8220 -1.7378 -2.3953
   98MOL0     H12918   1.674   5.795   5.803  4.5897 -1.8369 -0.0447
   98MOL0     H12919   1.482   5.875   5.957 -3.7079 -2.0114 -2.6279
   98MOL0     H12920   1.230   5.945   6.225  0.0566  0.4735  0.4729
   98MOL0     H12921   1.034   6.009   6.326 -0.8420  0.5708  1.1283
   98MOL0     H12922   1.704   7.224   6.997 -0.1655 -1.3843 -0.6149
   98MOL0     H12923   1.926   7.336   7.014 -0.8204 -1.1743  0.2675
   98MOL0     H12924   2.266   7.535   6.761 -0.2934 -1.2879  3.5984
   98MOL0     H12925   2.472   7.660   6.757  1.5232  2.5423  0.1662
   98MOL0     H12926   2.567   8.016   7.002  2.4556  2.2744  0.2582
   98MOL0     H12927   2.508   8.081   6.838  2.5862  1.4926 -1.7165
   98MOL0     H12928   2.769   7.984   6.904 -2.4608 -1.6029 -0.3422
   98MOL0     H12929   2.708   8.059   6.745  1.3571  0.2521  0.1442
   98MOL0     H12930   2.715   8.209   7.006 -2.0901 -2.1479  0.0199
   98MOL0     H12931   2.679   8.263   6.829  2.4277  0.9512 -1.9906
   98MOL0     H12932   2.888   8.350   6.884  0.8106 -1.0431  0.0493
   98MOL0     H12933   2.934   8.203   6.978 -2.5826 -3.3787  0.9999
   98MOL0     H12934   3.065   8.147   6.573  0.7935  1.3774  0.0479
   98MOL0     H12935   2.292   8.011   6.927  1.3444 -0.8401 -0.0130
   98MOL0     H12936   2.082   7.904   6.916 -1.0761 -2.2851  2.1227
   99MOL0     O12937  10.741   3.776  10.937  0.6712 -0.4466 -0.0368
   99MOL0     C12938  10.727   3.898  10.907  0.2969  0.6010 -0.3647
   99MOL0     O12939  10.824   3.996  10.918 -0.3314 -0.8725 -0.6486
   99MOL0     C12940  10.953   3.965  10.954 -0.2696  0.3750  0.4061
   99MOL0     C12941  11.022   3.832  10.930  0.4060 -0.2895 -0.2236
   99MOL0     C12942  11.162   3.826  10.937  1.1556  0.0479  0.0375
   99MOL0     C12943  11.239   3.925  10.981 -0.0808 -0.2455  0.7948
   99MOL0     O12944  11.374   3.915  11.002  0.4641 -0.8855  0.3217
   99MOL0     C12945  11.442   3.816  10.923 -0.4531 -0.0188 -1.1224
   99MOL0     C12946  11.591   3.838  10.907  2.1462  0.0066  0.3546
   99MOL0     C12947  11.661   3.763  11.022 -0.5912  0.3833 -0.0556
   99MOL0     C12948  11.811   3.785  11.030  1.3465 -0.5710 -0.8039
   99MOL0     C12949  11.876   3.697  10.928 -0.5287 -0.4156 -0.3801
   99MOL0     C12950  12.028   3.723  10.922 -0.8166 -0.3207  1.2716
   99MOL0     C12951  12.102   3.612  10.837  0.7358 -0.1613  0.3007
   99MOL0     C12952  12.210   3.665  10.758 -0.0662  0.0801  0.1403
   99MOL0     N12953  12.323   3.718  10.845 -0.3781  0.0260  0.1295
   99MOL0     C12954  12.450   3.658  10.841  0.5885 -0.1903 -0.4148
   99MOL0     C12955  12.528   3.761  10.886  0.7172  0.8118 -0.5584
   99MOL0     C12956  12.677   3.731  10.919 -0.1775 -0.7947  0.1889
   99MOL0     C12957  12.776   3.787  10.826 -0.0887  0.2669  0.1434
   99MOL0     C12958  12.921   3.749  10.834 -0.2805 -0.0005 -0.4486
   99MOL0     C12959  12.956   3.726  10.985 -1.1000 -0.8240 -0.4210
   99MOL0     O12960  13.095   3.724  11.001  0.1640  0.0732 -0.3251
   99MOL0     C12961  13.165   3.619  10.938  0.0987  0.7438  0.1654
   99MOL0     C12962  13.298   3.641  10.911 -0.6040 -0.6475  0.6592
   99MOL0     C12963  13.380   3.543  10.858  0.5495  0.9107 -0.3517
   99MOL0     C12964  13.331   3.417  10.825  0.3628 -0.4825  0.7890
   99MOL0     C12965  13.416   3.306  10.777 -1.3553  0.6040 -0.5920
   99MOL0     O12966  13.554   3.317  10.794 -0.4971 -0.2403  0.5251
   99MOL0     C12967  13.644   3.225  10.744  0.4059 -0.3169  0.4089
   99MOL0     C12968  13.615   3.101  10.690 -0.4579 -0.3105 -0.6346
   99MOL0     C12969  13.718   3.015  10.643  0.2730  0.0637  0.2387
   99MOL0     C12970  13.842   3.069  10.614 -0.4820  0.8644  0.1589
   99MOL0     O12971  13.959   2.995  10.583  0.2297 -0.1287  0.1188
   99MOL0     C12972  13.942   2.861  10.613  0.0231  0.0653  0.0349
   99MOL0     C12973  14.070   2.782  10.589  0.0325 -0.3000  0.2847
   99MOL0     C12974  14.171   2.825  10.695 -0.2047  0.5129 -0.7330
   99MOL0     C12975  14.295   2.736  10.697 -0.0582 -0.7625 -0.0322
   99MOL0     C12976  14.386   2.749  10.827 -0.1795 -0.2860  0.1078
   99MOL0     C12977  14.505   2.637  10.825 -0.4063 -0.6298 -0.2306
   99MOL0     C12978  14.608   2.674  10.715  0.4604  0.0948  0.4822
   99MOL0     C12979  14.717   2.567  10.708 -0.5561 -0.1204 -0.0260
   99MOL0    Cl12980  14.633   2.396  10.698 -0.2409  0.5760 -0.1045
   99MOL0     C12981  13.871   3.198  10.645 -0.4206 -0.3000  0.6585
   99MOL0     C12982  13.771   3.281  10.701  0.3329  0.0762 -0.5505
   99MOL0     O12983  13.364   3.225  10.703  0.1752  0.8948  0.3449
   99MOL0     C12984  13.196   3.396  10.842 -0.1582  0.2440 -0.5732
   99MOL0     C12985  13.118   3.503  10.892  0.0534 -0.6849  0.3539
   99MOL0     N12986  12.451   3.875  10.923  0.4744  0.8004 -0.3214
   99MOL0     N12987  12.336   3.847  10.882  0.4638 -0.2962  0.5488
   99MOL0     C12988  11.173   4.042  11.017  0.8252 -0.1855 -0.5559
   99MOL0     C12989  11.039   4.060  11.015  1.4809 -0.5475  0.8116
   99MOL0     C12990  10.591   3.953  10.869 -0.5457 -1.1358 -0.6189
   99MOL0     C12991  10.485   3.867  10.843 -0.4425 -0.3385  0.4195
   99MOL0     C12992  10.360   3.904  10.798 -1.4349 -0.0661 -0.2957
   99MOL0     C12993  10.329   4.041  10.781  0.7314 -0.0564 -0.2810
   99MOL0     O12994  10.208   4.098  10.730  0.0323 -0.3617  0.2278
   99MOL0     C12995  10.125   4.017  10.634  0.6044  0.2696  0.3912
   99MOL0     C12996   9.998   3.959  10.694 -0.0815 -0.0240 -0.7338
   99MOL0     C12997  10.018   3.839  10.781 -0.1499  0.0751  0.0266
   99MOL0     C12998   9.875   3.769  10.789 -0.7536 -0.1405 -1.0629
   99MOL0     C12999   9.858   3.703  10.656  0.3941 -0.1895 -0.7801
   99MOL0     C13000   9.846   3.651  10.551  0.0808 -1.0307  0.8803
   99MOL0     C13001  10.439   4.133  10.797  0.4912 -0.1959 -0.2718
   99MOL0     C13002  10.567   4.093  10.838 -0.1510  0.3881  0.1378
   99MOL0     H13003  10.975   3.747  10.882 -0.2479 -0.6416  1.0181
   99MOL0     H13004  11.216   3.733  10.918  0.5807 -0.6174  1.5012
   99MOL0     H13005  11.396   3.808  10.825 -0.8940 -1.9549 -0.7931
   99MOL0     H13006  11.420   3.720  10.971  0.0967 -0.0868 -0.9978
   99MOL0     H13007  11.603   3.947  10.908 -2.7704  0.8352 -1.0028
   99MOL0     H13008  11.624   3.791  10.814 -0.4651 -1.6692  0.1576
   99MOL0     H13009  11.640   3.657  11.006 -2.5502  1.2647 -5.4524
   99MOL0     H13010  11.610   3.777  11.118  1.0271 -2.6963  1.3888
   99MOL0     H13011  11.837   3.889  11.009  2.6080 -0.7654 -0.2884
   99MOL0     H13012  11.842   3.755  11.130  2.4145 -0.7358 -1.1698
   99MOL0     H13013  11.840   3.733  10.831 -2.3373  1.4248  0.8667
   99MOL0     H13014  11.849   3.594  10.951 -3.0572  0.1799 -0.3708
   99MOL0     H13015  12.069   3.722  11.024  1.4984  1.0747  0.4368
   99MOL0     H13016  12.047   3.817  10.868  1.5347 -0.5722  1.5748
   99MOL0     H13017  12.154   3.557  10.916  1.6663  2.5926  1.7380
   99MOL0     H13018  12.029   3.552  10.783 -0.3194 -0.3283  1.8534
   99MOL0     H13019  12.179   3.740  10.685  2.2581  1.5573  0.5511
   99MOL0     H13020  12.250   3.580  10.703 -0.8819 -1.5409  1.9305
   99MOL0     H13021  12.472   3.552  10.829  0.5844 -0.3414  0.7539
   99MOL0     H13022  12.701   3.626  10.942 -0.2518 -1.3217 -1.9384
   99MOL0     H13023  12.695   3.775  11.018  1.7165 -1.6488  0.2752
   99MOL0     H13024  12.764   3.894  10.845 -1.0846  0.0657  0.7013
   99MOL0     H13025  12.745   3.767  10.723  0.2416  0.9927 -0.1050
   99MOL0     H13026  12.944   3.665  10.768 -0.8258  1.5449 -2.7302
   99MOL0     H13027  12.986   3.831  10.802  1.3961  0.1795  2.9555
   99MOL0     H13028  12.912   3.637  11.030 -2.3529  0.2405  0.5341
   99MOL0     H13029  12.915   3.812  11.040  1.3055  1.2617 -1.6834
   99MOL0     H13030  13.339   3.731  10.958  1.2818 -0.7017 -0.7382
   99MOL0     H13031  13.486   3.566  10.849  1.9476 -4.4563 -1.2740
   99MOL0     H13032  13.515   3.061  10.706 -0.4475 -0.2001 -0.2672
   99MOL0     H13033  13.686   2.914  10.620 -2.0246  1.0012 -1.0492
   99MOL0     H13034  13.882   2.809  10.538  2.1117 -0.5765 -1.2630
   99MOL0     H13035  13.908   2.845  10.716 -1.3036  1.9652 -0.0573
   99MOL0     H13036  14.090   2.810  10.485  0.4843 -0.4512  0.3316
   99MOL0     H13037  14.049   2.676  10.601 -2.5960 -0.0499 -1.1958
   99MOL0     H13038  14.123   2.830  10.793 -1.0901 -2.1654 -0.9603
   99MOL0     H13039  14.207   2.927  10.676 -0.8973  1.0170  0.5643
   99MOL0     H13040  14.264   2.632  10.679  2.5941 -1.3265 -1.9571
   99MOL0     H13041  14.356   2.766  10.612 -0.9516  1.5253  0.0685
   99MOL0     H13042  14.327   2.734  10.919  0.9458  0.9180  1.0636
   99MOL0     H13043  14.425   2.851  10.825 -1.6382  0.3566 -3.5611
   99MOL0     H13044  14.460   2.538  10.817 -2.6611  0.0780  2.3302
   99MOL0     H13045  14.563   2.632  10.918  2.2667  3.6382 -1.3712
   99MOL0     H13046  14.557   2.666  10.619  2.5540 -2.2720 -0.5452
   99MOL0     H13047  14.641   2.777  10.731 -0.9138  0.3212  2.1020
   99MOL0     H13048  14.783   2.567  10.795  0.0075  1.1704 -0.4254
   99MOL0     H13049  14.776   2.592  10.619 -1.5232  1.2539 -0.3188
   99MOL0     H13050  13.972   3.238  10.637 -0.0295 -1.3901  0.0032
   99MOL0     H13051  13.806   3.382  10.721  0.9282 -0.0829 -0.7847
   99MOL0     H13052  13.152   3.300  10.815 -0.9682  0.1330  1.0241
   99MOL0     H13053  13.010   3.489  10.887 -0.1196  0.4573  0.6808
   99MOL0     H13054  11.237   4.122  11.056 -0.5543  0.3276  0.7490
   99MOL0     H13055  10.991   4.155  11.033  0.7570 -1.0052  1.3512
   99MOL0     H13056  10.501   3.760  10.840  1.4505 -0.0786  0.3873
   99MOL0     H13057  10.288   3.823  10.791 -1.8136  0.3156 -0.9768
   99MOL0     H13058  10.187   3.936  10.596 -1.3054 -1.0303 -0.0822
   99MOL0     H13059  10.089   4.077  10.550  1.2217 -0.2123 -0.2332
   99MOL0     H13060   9.947   4.027  10.762 -0.9587  0.6985 -2.0682
   99MOL0     H13061   9.926   3.947  10.612  1.0190  0.5712 -1.8249
   99MOL0     H13062  10.048   3.871  10.881  0.6900  0.6962 -0.4197
   99MOL0     H13063  10.088   3.767  10.738 -1.8930 -0.4125 -2.1635
   99MOL0     H13064   9.872   3.694  10.869  1.1887  1.6115  0.7861
   99MOL0     H13065   9.803   3.849  10.807  0.8862  2.1497 -3.8299
   99MOL0     H13066   9.840   3.584  10.467  1.2076 -0.6086  0.4458
   99MOL0     H13067  10.410   4.235  10.777 -4.4436 -0.9642  1.5663
   99MOL0     H13068  10.652   4.160  10.846  0.7432 -0.7052 -0.0450
  100MOL0     O13069   5.080  11.350   6.155 -0.4377 -0.1825  0.0972
  100MOL0     C13070   5.066  11.432   6.250  0.1455 -1.0433 -0.7542
  100MOL0     O13071   5.048  11.569   6.244  0.0646 -0.2935 -0.6822
  100MOL0     C13072   5.052  11.652   6.132  0.2052  0.2030  0.3166
  100MOL0     C13073   5.104  11.787   6.148 -0.2339  0.7174  0.2340
  100MOL0     C13074   5.117  11.868   6.029  0.1559 -0.7735  0.4323
  100MOL0     C13075   5.077  11.827   5.904  0.9940  0.4005 -0.6134
  100MOL0     O13076   5.071  11.896   5.783  0.2640 -0.8774 -0.0766
  100MOL0     C13077   5.030  12.034   5.793  0.8298  0.1264 -0.0881
  100MOL0     C13078   4.875  12.046   5.761 -0.4296  0.1153  0.6378
  100MOL0     C13079   4.824  12.179   5.823 -0.2156 -0.0687  0.5271
  100MOL0     C13080   4.679  12.196   5.794 -0.9346 -0.3597  0.2827
  100MOL0     C13081   4.610  12.306   5.886  0.0746 -1.0374  0.7699
  100MOL0     C13082   4.524  12.402   5.798 -0.0233  0.1916 -0.7427
  100MOL0     C13083   4.393  12.341   5.751 -0.4545 -0.6101  0.7370
  100MOL0     C13084   4.333  12.437   5.647  0.1849 -0.2023 -0.3958
  100MOL0     N13085   4.222  12.370   5.583  0.2168 -0.0554  0.1873
  100MOL0     C13086   4.084  12.394   5.619 -0.2138 -0.6855  0.3067
  100MOL0     C13087   4.010  12.295   5.545 -0.1699  0.2526  0.9303
  100MOL0     C13088   3.864  12.284   5.549  0.2434 -1.0469 -0.2219
  100MOL0     C13089   3.801  12.177   5.459  1.0497 -0.3989 -0.3483
  100MOL0     C13090   3.648  12.199   5.466  0.1589 -0.3278  0.1214
  100MOL0     C13091   3.590  12.078   5.389 -0.8077 -0.6589 -1.2492
  100MOL0     O13092   3.452  12.098   5.419 -0.3715  0.5866  0.3766
  100MOL0     C13093   3.376  11.985   5.394  0.9339  0.3335  0.5075
  100MOL0     C13094   3.405  11.885   5.291 -0.2832  0.1610 -0.0546
  100MOL0     C13095   3.319  11.780   5.281  0.2301  0.1786 -0.1863
  100MOL0     C13096   3.193  11.770   5.349  0.9414 -0.9437 -0.9900
  100MOL0     C13097   3.101  11.655   5.344 -0.2904  0.3797  0.0489
  100MOL0     O13098   2.983  11.650   5.420 -0.7429 -0.5848  0.7019
  100MOL0     C13099   2.900  11.545   5.420 -0.3348  1.5440  0.0462
  100MOL0     C13100   2.769  11.546   5.375  0.6802  0.1102  0.0303
  100MOL0     C13101   2.685  11.437   5.378 -0.4413  1.2044 -0.3344
  100MOL0     C13102   2.735  11.310   5.437  0.2285 -0.7000 -0.1596
  100MOL0     O13103   2.665  11.196   5.443 -0.0413  0.3583  0.0069
  100MOL0     C13104   2.546  11.175   5.387 -0.1041 -0.2998  1.1533
  100MOL0     C13105   2.550  11.117   5.243 -0.4543  0.4757  0.1898
  100MOL0     C13106   2.406  11.078   5.194 -0.2890 -0.0545  0.4809
  100MOL0     C13107   2.405  11.014   5.052 -0.4988 -0.4197  0.5267
  100MOL0     C13108   2.270  10.954   5.008 -0.5843  0.0399  0.4052
  100MOL0     C13109   2.155  11.055   4.992  0.4077  0.1523 -0.2145
  100MOL0     C13110   2.171  11.112   4.854 -0.1057 -0.0301  0.3620
  100MOL0     C13111   2.080  11.229   4.808  0.6367  0.0613 -0.3007
  100MOL0    Cl13112   2.063  11.233   4.618  0.3375 -0.1683  0.2465
  100MOL0     C13113   2.855  11.315   5.507  0.4016  0.3827 -0.2391
  100MOL0     C13114   2.940  11.422   5.489 -0.5225  0.2765 -0.8127
  100MOL0     O13115   3.125  11.574   5.256  0.1687 -0.1287  1.0516
  100MOL0     C13116   3.162  11.876   5.432  0.0327 -1.0257  0.3062
  100MOL0     C13117   3.250  11.976   5.459  0.9227  0.0246 -0.2987
  100MOL0     N13118   4.106  12.219   5.478 -0.1310  0.4054  0.9326
  100MOL0     N13119   4.226  12.258   5.506  0.5248  0.0764 -0.4919
  100MOL0     C13120   5.034  11.699   5.896 -0.0133  1.1041  0.6305
  100MOL0     C13121   5.018  11.610   6.005  0.3107  0.2216  0.7494
  100MOL0     C13122   5.056  11.384   6.392  0.0925  0.2650  0.1415
  100MOL0     C13123   5.025  11.475   6.499 -0.4400 -0.7686  0.3044
  100MOL0     C13124   5.021  11.430   6.628 -0.5215 -0.1186 -0.1619
  100MOL0     C13125   5.053  11.295   6.655 -0.6754 -0.0126 -0.2034
  100MOL0     O13126   5.070  11.234   6.775  0.3131  0.5106 -0.4591
  100MOL0     C13127   4.949  11.196   6.844  0.0504  0.0370  0.3966
  100MOL0     C13128   4.911  11.305   6.941 -0.4873 -0.2635  0.3223
  100MOL0     C13129   5.016  11.303   7.058 -0.1488 -0.1724  0.6917
  100MOL0     C13130   4.964  11.402   7.155 -0.0078 -0.3680  1.0647
  100MOL0     C13131   4.971  11.544   7.115  0.4094 -0.7110  0.1711
  100MOL0     C13132   4.989  11.669   7.096 -0.3795  0.6540 -0.1917
  100MOL0     C13133   5.056  11.202   6.552 -0.7425  0.0721 -0.5320
  100MOL0     C13134   5.071  11.248   6.426  0.9027 -0.4971 -0.2359
  100MOL0     H13135   5.161  11.807   6.238  0.5791 -0.2464 -0.0504
  100MOL0     H13136   5.162  11.966   6.023 -0.1522 -0.5544  1.5043
  100MOL0     H13137   5.086  12.083   5.712  2.5352 -0.3999  0.7114
  100MOL0     H13138   5.061  12.073   5.890 -1.2067  1.7597 -0.0255
  100MOL0     H13139   4.826  11.967   5.817 -1.4795 -0.0636 -0.4801
  100MOL0     H13140   4.850  12.024   5.656  2.6444 -1.1085  0.0457
  100MOL0     H13141   4.890  12.258   5.783 -0.0071 -0.7320 -0.4787
  100MOL0     H13142   4.833  12.176   5.932 -0.5501 -1.8589  0.5218
  100MOL0     H13143   4.676  12.223   5.688  2.3093 -3.1444 -0.6842
  100MOL0     H13144   4.629  12.100   5.806  0.1600 -1.0264 -0.3350
  100MOL0     H13145   4.685  12.369   5.934  1.0073 -0.7434 -0.9710
  100MOL0     H13146   4.554  12.266   5.971  0.0919  2.0414  2.3816
  100MOL0     H13147   4.582  12.443   5.715 -1.8659 -0.3648 -2.3830
  100MOL0     H13148   4.496  12.483   5.866 -3.5552 -1.6876  0.2834
  100MOL0     H13149   4.413  12.251   5.691  0.4320  1.2731 -1.9386
  100MOL0     H13150   4.326  12.322   5.836  0.5194  0.3066  1.7488
  100MOL0     H13151   4.391  12.469   5.560  0.5807 -0.0052 -0.0653
  100MOL0     H13152   4.305  12.527   5.702  1.4585 -0.4329  0.7112
  100MOL0     H13153   4.036  12.466   5.685  1.9781  0.0676  1.1644
  100MOL0     H13154   3.834  12.388   5.534  1.5524 -0.3305  1.7293
  100MOL0     H13155   3.834  12.253   5.650  2.6288  1.9714  1.6107
  100MOL0     H13156   3.842  12.078   5.480  1.6572  0.5243  3.4985
  100MOL0     H13157   3.839  12.210   5.362  1.7115  2.3816  0.7778
  100MOL0     H13158   3.622  12.189   5.571  1.0264 -0.3150  0.3487
  100MOL0     H13159   3.610  12.292   5.421 -0.9261 -0.6816  0.2883
  100MOL0     H13160   3.632  11.979   5.410  1.1749  0.2683 -0.6003
  100MOL0     H13161   3.616  12.103   5.286 -2.9121  4.4655 -0.8369
  100MOL0     H13162   3.493  11.895   5.229 -0.7655 -1.1500 -0.9899
  100MOL0     H13163   3.352  11.718   5.198  0.4716 -1.4898  1.0968
  100MOL0     H13164   2.732  11.638   5.331  2.2462  0.4925 -0.5537
  100MOL0     H13165   2.590  11.448   5.325  0.7240  0.2243 -2.8084
  100MOL0     H13166   2.479  11.261   5.390  0.0903 -0.1062  0.2649
  100MOL0     H13167   2.498  11.091   5.439  1.0787 -3.1049 -1.9008
  100MOL0     H13168   2.606  11.023   5.246  1.0196  1.2743 -1.0061
  100MOL0     H13169   2.602  11.170   5.163 -1.8803  1.4236 -0.1420
  100MOL0     H13170   2.336  11.161   5.189  0.0622  0.1760 -1.0647
  100MOL0     H13171   2.381  11.005   5.272  3.3061 -1.9416  0.1222
  100MOL0     H13172   2.417  11.097   4.981  1.5314 -0.7611  0.3957
  100MOL0     H13173   2.481  10.937   5.034 -0.2861  0.1919 -1.3596
  100MOL0     H13174   2.239  10.887   5.089 -1.1132 -1.1165 -0.7251
  100MOL0     H13175   2.288  10.909   4.910 -1.7568 -2.5149  1.2892
  100MOL0     H13176   2.171  11.123   5.077 -1.6913 -3.8131  3.8143
  100MOL0     H13177   2.055  11.010   4.992  0.8421 -0.8304  0.4230
  100MOL0     H13178   2.275  11.133   4.829  0.3559 -0.6883  1.6358
  100MOL0     H13179   2.150  11.033   4.781  2.3510 -0.7666  0.3763
  100MOL0     H13180   2.112  11.319   4.861  0.5887 -1.1691  1.9340
  100MOL0     H13181   1.978  11.217   4.844  0.6849 -4.5690 -1.0603
  100MOL0     H13182   2.873  11.224   5.563 -1.3231 -0.1239 -0.4623
  100MOL0     H13183   3.037  11.419   5.537 -0.9197  1.6844  0.1710
  100MOL0     H13184   3.059  11.872   5.467  0.0262 -1.4220  0.2469
  100MOL0     H13185   3.228  12.074   5.500  2.1218  1.1990 -2.2779
  100MOL0     H13186   5.005  11.677   5.794  0.2431 -1.0207  0.9629
  100MOL0     H13187   4.984  11.515   5.967  1.8567  0.4854 -1.4877
  100MOL0     H13188   4.998  11.580   6.485 -2.2306 -0.8890  2.3610
  100MOL0     H13189   5.008  11.483   6.722  1.4821 -1.1274  0.7642
  100MOL0     H13190   4.953  11.098   6.892 -0.1600 -1.1315 -1.8467
  100MOL0     H13191   4.856  11.192   6.786  1.4026 -1.4141 -1.8348
  100MOL0     H13192   4.899  11.399   6.887  1.4015 -0.3357 -0.2706
  100MOL0     H13193   4.811  11.269   6.968 -0.4243 -2.3050 -1.7845
  100MOL0     H13194   5.123  11.315   7.044  0.6768 -3.2672  3.1719
  100MOL0     H13195   5.024  11.199   7.090  2.6535 -0.9823 -2.1146
  100MOL0     H13196   4.860  11.374   7.172 -0.2601 -0.0722  0.0872
  100MOL0     H13197   5.018  11.392   7.250  0.8071  1.3920  0.8421
  100MOL0     H13198   5.021  11.770   7.110  1.6269 -0.3055  3.2237
  100MOL0     H13199   5.074  11.098   6.577  2.1428  1.1514  2.6216
  100MOL0     H13200   5.089  11.172   6.350 -0.2149 -0.8456 -0.1678
  101MOL0     O13201   0.145  11.005   6.469 -0.4584  1.2868  0.6953
  101MOL0     C13202   0.157  10.975   6.587  1.1812 -0.6123  0.2372
  101MOL0     O13203   0.228  11.039   6.676 -0.8593 -0.4514 -0.1176
  101MOL0     C13204   0.309  11.139   6.625 -0.0941 -1.1370  0.1121
  101MOL0     C13205   0.268  11.273   6.595  0.7537  0.0435 -0.0915
  101MOL0     C13206   0.341  11.372   6.529  0.0113  0.5568  0.3670
  101MOL0     C13207   0.468  11.340   6.487 -0.4903 -0.5569  0.6018
  101MOL0     O13208   0.544  11.422   6.406  0.2612  0.6031 -0.4938
  101MOL0     C13209   0.588  11.379   6.279 -0.1982  0.0675 -0.2164
  101MOL0     C13210   0.673  11.489   6.221  0.2920 -0.2915  0.5892
  101MOL0     C13211   0.809  11.508   6.286  1.3854  0.8199 -0.3395
  101MOL0     C13212   0.853  11.648   6.267 -0.0873 -0.3189 -0.2195
  101MOL0     C13213   0.996  11.658   6.331  0.8169 -0.1013 -0.2729
  101MOL0     C13214   1.092  11.580   6.236 -0.3957  0.8447  0.0107
  101MOL0     C13215   1.234  11.623   6.239 -0.3213 -0.0354  0.5774
  101MOL0     C13216   1.318  11.557   6.344 -0.5486  0.7174  0.3383
  101MOL0     N13217   1.264  11.577   6.477  0.2751 -0.3005 -0.2890
  101MOL0     C13218   1.238  11.697   6.545 -0.1250 -0.6427  0.5111
  101MOL0     C13219   1.186  11.658   6.663 -0.4798  0.6802  0.3483
  101MOL0     C13220   1.134  11.766   6.755  0.2787  0.0623  0.2512
  101MOL0     C13221   1.244  11.861   6.803  0.2771  0.1292  0.3466
  101MOL0     C13222   1.219  11.941   6.934 -0.1749  0.5759  0.5798
  101MOL0     C13223   1.083  12.019   6.945 -0.9316  0.1621  0.4863
  101MOL0     O13224   1.059  12.081   6.818 -0.7087  0.6872 -0.6862
  101MOL0     C13225   0.934  12.126   6.788  1.1342  0.1503  0.1517
  101MOL0     C13226   0.898  12.160   6.648  0.1577  0.6479  0.0906
  101MOL0     C13227   0.767  12.196   6.622  0.6888  0.6689 -0.0892
  101MOL0     C13228   0.674  12.225   6.727 -0.3159  0.3237  0.2312
  101MOL0     C13229   0.536  12.273   6.701 -0.8119 -0.1122  0.2070
  101MOL0     O13230   0.527  12.302   6.571  0.6314 -0.1987  0.0611
  101MOL0     C13231   0.404  12.315   6.517  0.5856  0.1165  0.2391
  101MOL0     C13232   0.383  12.440   6.456 -0.4203  1.0581  0.3336
  101MOL0     C13233   0.257  12.464   6.398  0.2925 -0.4266  0.7369
  101MOL0     C13234   0.164  12.364   6.386 -0.2491 -0.2783 -0.2202
  101MOL0     O13235   0.060  12.379   6.301  1.0146  1.1708  0.3615
  101MOL0     C13236  -0.001  12.512   6.301  0.0366  0.2892 -0.7011
  101MOL0     C13237  -0.139  12.512   6.234 -0.3095 -0.5400  0.7940
  101MOL0     C13238  -0.218  12.643   6.257  0.3943  0.1137 -1.1141
  101MOL0     C13239  -0.357  12.655   6.191  0.5788  0.4180 -0.2472
  101MOL0     C13240  -0.405  12.802   6.209 -0.4845  0.6574 -1.3653
  101MOL0     C13241  -0.555  12.814   6.189  0.3939  0.4521  0.0421
  101MOL0     C13242  -0.608  12.947   6.222 -0.2851 -0.0951 -1.2294
  101MOL0     C13243  -0.744  12.974   6.167  0.3725  0.0800 -0.4255
  101MOL0    Cl13244  -0.768  12.931   5.992  0.1279 -0.4002  0.0455
  101MOL0     C13245   0.195  12.236   6.428  0.7251 -0.1212  0.5218
  101MOL0     C13246   0.310  12.215   6.498 -0.2967  0.4649  0.5833
  101MOL0     O13247   0.447  12.282   6.775  1.1677  0.1134  0.3999
  101MOL0     C13248   0.704  12.178   6.857  0.2701 -0.3063  0.0026
  101MOL0     C13249   0.829  12.129   6.880  0.7440 -0.2769  0.7861
  101MOL0     N13250   1.187  11.522   6.677  0.3836  0.7344 -0.0377
  101MOL0     N13251   1.239  11.471   6.573 -0.5259  0.7513 -0.3843
  101MOL0     C13252   0.513  11.208   6.505  0.0295 -0.0002  0.2592
  101MOL0     C13253   0.441  11.102   6.569  0.7693 -0.6893  0.1575
  101MOL0     C13254   0.081  10.862   6.638  0.0402  0.1837  0.1200
  101MOL0     C13255   0.015  10.779   6.542 -0.8290 -0.0135  0.1161
  101MOL0     C13256  -0.077  10.686   6.576 -1.2615  0.1287  0.6177
  101MOL0     C13257  -0.095  10.662   6.713 -0.1001 -0.3904  1.0022
  101MOL0     O13258  -0.188  10.575   6.762 -0.0946 -0.9306  0.1679
  101MOL0     C13259  -0.292  10.512   6.673  0.0732 -0.0588 -0.5695
  101MOL0     C13260  -0.410  10.606   6.653  0.5345 -0.8712  0.0053
  101MOL0     C13261  -0.527  10.539   6.576  0.5255  0.2433  0.9997
  101MOL0     C13262  -0.654  10.639   6.569 -0.5961  0.8734  0.0994
  101MOL0     C13263  -0.768  10.577   6.508  0.2470  0.6651  0.3747
  101MOL0     C13264  -0.871  10.536   6.446  0.2013 -0.0234 -0.9457
  101MOL0     C13265  -0.016  10.722   6.808  0.2564 -0.2945  0.7393
  101MOL0     C13266   0.083  10.818   6.777 -0.3643 -0.5559  0.9934
  101MOL0     H13267   0.176  11.294   6.649  0.2680  1.3653 -1.4037
  101MOL0     H13268   0.308  11.468   6.491  1.2785  0.3863 -1.3310
  101MOL0     H13269   0.494  11.358   6.226  0.1401 -2.0627 -0.0547
  101MOL0     H13270   0.636  11.281   6.284 -1.9984 -0.8084  0.7055
  101MOL0     H13271   0.608  11.577   6.232 -0.6120 -0.8741  0.0121
  101MOL0     H13272   0.690  11.480   6.113  1.2157  1.0306  0.5912
  101MOL0     H13273   0.878  11.430   6.252 -2.0929 -2.0347 -1.6071
  101MOL0     H13274   0.813  11.477   6.391  3.5161 -2.0011 -1.1295
  101MOL0     H13275   0.859  11.684   6.163 -0.4490 -3.5057 -1.4349
  101MOL0     H13276   0.782  11.714   6.318  0.3412  0.3883 -0.5126
  101MOL0     H13277   1.004  11.601   6.424 -2.3618  2.8699  2.0332
  101MOL0     H13278   1.022  11.763   6.350  1.0680 -0.6132  2.6865
  101MOL0     H13279   1.066  11.581   6.130 -2.5051 -1.1313  0.4355
  101MOL0     H13280   1.091  11.472   6.254 -2.2387  0.7055 -0.6895
  101MOL0     H13281   1.281  11.595   6.144 -1.1999 -0.4352  0.2473
  101MOL0     H13282   1.243  11.731   6.249  3.7520 -0.0339 -1.0216
  101MOL0     H13283   1.419  11.598   6.344 -1.7551  4.0740  1.0522
  101MOL0     H13284   1.329  11.449   6.334  0.2412  0.9145 -1.1137
  101MOL0     H13285   1.259  11.794   6.501  1.5703  0.1265  2.8395
  101MOL0     H13286   1.101  11.713   6.845 -1.1672  1.2187  0.4502
  101MOL0     H13287   1.047  11.814   6.709 -1.6420 -2.1551  1.3421
  101MOL0     H13288   1.264  11.942   6.734 -0.9025  0.6433  0.5810
  101MOL0     H13289   1.332  11.797   6.817 -0.6267 -1.5022 -1.0180
  101MOL0     H13290   1.239  11.876   7.020  0.1946 -1.3088 -0.8679
  101MOL0     H13291   1.294  12.021   6.929 -0.3217  0.6487 -3.6651
  101MOL0     H13292   1.093  12.094   7.024  3.8462  1.0845 -0.7013
  101MOL0     H13293   1.004  11.946   6.968  0.2903 -0.6881  2.2476
  101MOL0     H13294   0.967  12.166   6.565 -3.8717  2.5044 -3.5229
  101MOL0     H13295   0.745  12.201   6.516  3.1117 -0.1822 -0.7013
  101MOL0     H13296   0.455  12.520   6.459 -1.2548  1.8625 -0.3680
  101MOL0     H13297   0.246  12.567   6.367  1.5572 -0.0236  1.5500
  101MOL0     H13298   0.062  12.583   6.247  1.1339 -0.5217 -0.5312
  101MOL0     H13299  -0.031  12.539   6.403 -2.2863 -4.3434  0.1337
  101MOL0     H13300  -0.194  12.422   6.264  1.5187 -1.8093  0.4813
  101MOL0     H13301  -0.122  12.509   6.126  1.2860  0.1128  1.0069
  101MOL0     H13302  -0.158  12.723   6.211  1.8844 -0.2803  0.0567
  101MOL0     H13303  -0.228  12.646   6.365 -0.4878 -0.4185 -1.1762
  101MOL0     H13304  -0.341  12.621   6.088  1.2731 -0.8361  0.2436
  101MOL0     H13305  -0.419  12.582   6.244  1.0470  0.5747  0.5247
  101MOL0     H13306  -0.344  12.854   6.134  0.1874  3.2221  0.8140
  101MOL0     H13307  -0.384  12.823   6.314  0.4261  0.3895 -1.4866
  101MOL0     H13308  -0.611  12.749   6.257 -0.6441  1.9851  0.7245
  101MOL0     H13309  -0.576  12.784   6.086 -5.5832 -1.1210  1.3009
  101MOL0     H13310  -0.610  12.965   6.330 -1.8486 -0.4566 -1.1771
  101MOL0     H13311  -0.548  13.025   6.176 -1.4144  0.7908 -1.2479
  101MOL0     H13312  -0.783  13.075   6.178 -0.3649 -0.1662 -0.6886
  101MOL0     H13313  -0.822  12.913   6.214 -0.2375  1.0468 -0.1617
  101MOL0     H13314   0.124  12.157   6.405 -0.4680  0.9107  0.5453
  101MOL0     H13315   0.341  12.111   6.501 -0.6854  0.3442  0.4367
  101MOL0     H13316   0.622  12.191   6.927 -1.4341  1.1627 -2.1288
  101MOL0     H13317   0.839  12.083   6.978  1.7327  0.1083  0.8841
  101MOL0     H13318   0.609  11.177   6.464 -0.0144  2.9528 -2.4818
  101MOL0     H13319   0.481  11.007   6.601  1.8110 -0.5754 -0.7403
  101MOL0     H13320   0.014  10.810   6.438  0.7512  2.3728  0.7381
  101MOL0     H13321  -0.144  10.635   6.508 -1.2534  1.8043 -0.7082
  101MOL0     H13322  -0.331  10.425   6.727  0.3722 -1.3004 -2.2582
  101MOL0     H13323  -0.235  10.467   6.591  1.3976 -0.8007  0.7099
  101MOL0     H13324  -0.445  10.654   6.745  0.4086  0.0234 -0.4919
  101MOL0     H13325  -0.370  10.687   6.591 -0.8050  0.5737  0.9516
  101MOL0     H13326  -0.553  10.449   6.634  0.8459 -1.0175 -0.7200
  101MOL0     H13327  -0.503  10.506   6.475 -0.4723 -0.0299  0.8371
  101MOL0     H13328  -0.690  10.668   6.668  0.6875  2.4008  0.1706
  101MOL0     H13329  -0.623  10.729   6.514 -1.1090 -0.9881 -3.5275
  101MOL0     H13330  -0.957  10.508   6.389 -1.3077  1.7705  0.3149
  101MOL0     H13331  -0.011  10.695   6.913 -2.0605 -1.1234  0.6876
  101MOL0     H13332   0.139  10.870   6.854 -1.4487  1.7425  0.3111
  102MOL0     O13333   3.440   1.760   2.862  0.7230  0.0106 -0.6415
  102MOL0     C13334   3.350   1.800   2.939 -0.3361 -0.7074 -1.0891
  102MOL0     O13335   3.338   1.925   3.012 -0.3621  0.0287 -0.1082
  102MOL0     C13336   3.452   1.989   3.055  0.1096  0.0807  0.0804
  102MOL0     C13337   3.449   2.022   3.192 -0.0373  0.4323 -0.5928
  102MOL0     C13338   3.562   2.082   3.242  0.0927  0.2727 -0.3408
  102MOL0     C13339   3.665   2.132   3.165 -0.1249  0.0027  0.3829
  102MOL0     O13340   3.777   2.180   3.229  0.4277  0.3105 -0.9034
  102MOL0     C13341   3.806   2.318   3.195  0.0020 -0.0857 -0.2387
  102MOL0     C13342   3.911   2.372   3.298 -0.8188 -0.7383 -0.8228
  102MOL0     C13343   4.054   2.308   3.290  0.5973 -0.7840  0.0922
  102MOL0     C13344   4.147   2.353   3.399  0.3513  0.5978  0.6580
  102MOL0     C13345   4.284   2.292   3.390 -0.0888  0.7506 -0.5317
  102MOL0     C13346   4.388   2.360   3.476 -0.6306  1.0389  0.5781
  102MOL0     C13347   4.513   2.277   3.493  0.4550 -0.6685  0.5373
  102MOL0     C13348   4.582   2.243   3.363 -1.0390  0.1953 -0.2302
  102MOL0     N13349   4.585   2.346   3.253 -1.0392  0.0060 -0.4689
  102MOL0     C13350   4.620   2.482   3.261 -0.4607 -0.6053 -0.2065
  102MOL0     C13351   4.603   2.518   3.131 -0.4713 -0.5571  1.7476
  102MOL0     C13352   4.626   2.662   3.082  0.3330 -0.9043  0.2615
  102MOL0     C13353   4.500   2.742   3.087  0.4498 -0.9785  0.3811
  102MOL0     C13354   4.394   2.719   2.987 -0.0912 -0.1945 -0.0579
  102MOL0     C13355   4.297   2.606   3.035 -0.3019 -0.1906  0.8966
  102MOL0     O13356   4.175   2.624   2.956 -0.2377  0.1200 -0.0404
  102MOL0     C13357   4.068   2.675   3.024 -0.5954 -0.1818  0.6051
  102MOL0     C13358   3.949   2.604   3.008  0.2729 -0.1063  0.0765
  102MOL0     C13359   3.831   2.662   3.059 -0.9093 -0.0183 -0.3644
  102MOL0     C13360   3.833   2.770   3.141  0.0724 -0.6871  0.4721
  102MOL0     C13361   3.713   2.801   3.212  0.1769  0.8602 -0.4016
  102MOL0     O13362   3.625   2.697   3.220  0.4560  0.1646  0.3527
  102MOL0     C13363   3.521   2.717   3.300  0.2717 -0.4900  0.1998
  102MOL0     C13364   3.503   2.647   3.419  0.1035 -0.3585  0.0483
  102MOL0     C13365   3.402   2.685   3.512  0.3871  0.2907  0.0295
  102MOL0     C13366   3.317   2.794   3.488  0.8091  1.1610 -0.3788
  102MOL0     O13367   3.217   2.832   3.568 -0.9330 -0.2677 -0.3475
  102MOL0     C13368   3.228   2.796   3.709 -0.4285  0.6811 -0.1041
  102MOL0     C13369   3.096   2.839   3.781  0.0067 -0.9590  1.1818
  102MOL0     C13370   3.114   2.826   3.928  0.0227 -0.2852 -0.6557
  102MOL0     C13371   2.992   2.879   4.009 -0.0289  0.4860  0.2308
  102MOL0     C13372   2.994   2.856   4.161 -0.3674  0.1665 -0.2844
  102MOL0     C13373   3.072   2.964   4.240 -0.6739  0.2985 -0.0801
  102MOL0     C13374   3.227   2.975   4.227 -0.0958  0.3258 -0.7422
  102MOL0     C13375   3.301   2.996   4.356  0.0257  0.2596 -0.3095
  102MOL0    Cl13376   3.319   2.835   4.431  0.1103  0.0943  0.0344
  102MOL0     C13377   3.329   2.857   3.368  0.1521  0.2166  0.1885
  102MOL0     C13378   3.432   2.814   3.277 -0.0210  0.3869 -0.0107
  102MOL0     O13379   3.709   2.904   3.282  0.4157 -0.1255  0.2481
  102MOL0     C13380   3.957   2.840   3.157 -0.3457 -0.0147 -0.7836
  102MOL0     C13381   4.070   2.789   3.100 -0.2660 -0.8959  1.1103
  102MOL0     N13382   4.576   2.400   3.047  0.2230 -0.7417  0.7288
  102MOL0     N13383   4.587   2.303   3.122 -0.4500 -0.1888 -0.8382
  102MOL0     C13384   3.662   2.105   3.027  0.8096 -0.1941  0.5615
  102MOL0     C13385   3.556   2.027   2.971 -0.4437  0.2173  0.8465
  102MOL0     C13386   3.233   1.713   2.948  0.3906 -0.1553  0.9903
  102MOL0     C13387   3.205   1.613   2.858 -0.1389  0.1059  0.6322
  102MOL0     C13388   3.109   1.517   2.880 -0.3580 -0.4212  0.1686
  102MOL0     C13389   3.016   1.537   2.978  0.5949  0.3007 -0.2366
  102MOL0     O13390   2.926   1.433   2.990 -0.2917 -0.0538 -0.0793
  102MOL0     C13391   2.870   1.399   3.113  1.0317  0.1547  0.2112
  102MOL0     C13392   2.729   1.462   3.112  0.3908 -0.0166 -0.1044
  102MOL0     C13393   2.630   1.397   3.209 -0.7655 -0.1773 -0.4804
  102MOL0     C13394   2.667   1.384   3.358 -0.8282  0.2325 -0.6697
  102MOL0     C13395   2.761   1.266   3.392  1.2498 -0.3496  0.1906
  102MOL0     C13396   2.827   1.165   3.422 -0.1841  0.0275  0.0626
  102MOL0     C13397   3.029   1.646   3.063 -0.1426 -1.1750 -0.5295
  102MOL0     C13398   3.140   1.735   3.051 -0.1677 -0.3985 -0.2455
  102MOL0     H13399   3.364   2.005   3.257  1.1756  0.3091  1.0199
  102MOL0     H13400   3.569   2.086   3.350 -1.6564  0.7331 -0.2160
  102MOL0     H13401   3.717   2.381   3.201  1.4212  1.9150  1.9226
  102MOL0     H13402   3.842   2.323   3.092 -2.3818 -1.6198 -1.2258
  102MOL0     H13403   3.878   2.357   3.401 -1.5723 -1.5180 -1.1682
  102MOL0     H13404   3.927   2.479   3.279  1.5249 -0.7486  0.7395
  102MOL0     H13405   4.099   2.324   3.192 -0.0795 -0.3811 -0.1632
  102MOL0     H13406   4.043   2.199   3.296  0.9013 -0.7527  1.5913
  102MOL0     H13407   4.155   2.461   3.386  0.5497  0.2867 -2.5144
  102MOL0     H13408   4.105   2.322   3.495 -1.5046 -0.8868 -0.5646
  102MOL0     H13409   4.319   2.298   3.286 -1.9844  5.1936 -1.1726
  102MOL0     H13410   4.285   2.185   3.414  2.7568  0.6259 -0.9041
  102MOL0     H13411   4.346   2.364   3.577  1.0439  1.8718  1.2930
  102MOL0     H13412   4.414   2.463   3.450 -1.0907  1.2435  0.9042
  102MOL0     H13413   4.587   2.338   3.544 -2.7711  2.7152  1.6441
  102MOL0     H13414   4.488   2.185   3.547 -0.4808 -0.3192  0.7186
  102MOL0     H13415   4.530   2.156   3.322 -2.4011  0.7741  0.2113
  102MOL0     H13416   4.687   2.230   3.390 -1.6762  1.0804  3.2300
  102MOL0     H13417   4.647   2.535   3.352 -0.0425 -1.6898  0.3072
  102MOL0     H13418   4.674   2.664   2.983 -0.4359 -0.6350 -0.1157
  102MOL0     H13419   4.692   2.723   3.144 -0.9229  0.7107  0.0913
  102MOL0     H13420   4.538   2.844   3.080  2.4488 -1.6277  1.0751
  102MOL0     H13421   4.463   2.732   3.189 -1.3449  3.1515  0.3528
  102MOL0     H13422   4.343   2.815   2.988 -0.0050 -0.1446  1.6376
  102MOL0     H13423   4.429   2.693   2.886 -2.0532 -0.3183 -0.7435
  102MOL0     H13424   4.286   2.614   3.143 -0.8143  2.1688  0.7100
  102MOL0     H13425   4.331   2.506   3.006  0.1045  0.2513 -0.2093
  102MOL0     H13426   3.963   2.515   2.947 -0.6850 -2.1668  2.6565
  102MOL0     H13427   3.742   2.613   3.020  0.5057 -1.7878 -1.5218
  102MOL0     H13428   3.575   2.566   3.426  3.8348  2.4171 -2.4113
  102MOL0     H13429   3.395   2.618   3.597 -1.5188  0.4766  0.0588
  102MOL0     H13430   3.312   2.837   3.765 -1.2913 -0.3494  2.0775
  102MOL0     H13431   3.231   2.687   3.719 -0.7493  0.7663  0.9686
  102MOL0     H13432   3.027   2.767   3.736 -0.7595  0.6325 -0.2871
  102MOL0     H13433   3.065   2.939   3.750 -0.8810 -1.2909  0.9508
  102MOL0     H13434   3.203   2.880   3.963  0.4168 -1.7673  0.7843
  102MOL0     H13435   3.138   2.721   3.947 -0.1520  0.1168  2.2769
  102MOL0     H13436   2.984   2.987   3.991  1.2717  0.4252 -0.8783
  102MOL0     H13437   2.903   2.835   3.964  0.6315 -0.8990  0.2344
  102MOL0     H13438   3.029   2.758   4.195 -0.6873 -0.0571 -0.5905
  102MOL0     H13439   2.888   2.854   4.187 -0.9411  1.5252 -2.2096
  102MOL0     H13440   3.041   2.939   4.342  1.6788 -0.2880  0.5512
  102MOL0     H13441   3.026   3.062   4.223  0.6979  0.8198 -0.9249
  102MOL0     H13442   3.274   2.885   4.184 -0.7564 -0.0482 -0.6944
  102MOL0     H13443   3.255   3.052   4.154  2.0726  0.8427  0.5445
  102MOL0     H13444   3.242   3.050   4.431 -1.4281 -2.8654  0.9546
  102MOL0     H13445   3.398   3.046   4.344 -0.2171  2.0011  3.5773
  102MOL0     H13446   3.272   2.946   3.343  1.0296  1.4201  2.1336
  102MOL0     H13447   3.441   2.877   3.190  0.8801 -1.1703 -1.0987
  102MOL0     H13448   3.946   2.925   3.223  1.2678  0.6892 -1.3513
  102MOL0     H13449   4.164   2.843   3.110 -0.5543 -0.0791 -0.3033
  102MOL0     H13450   3.735   2.160   2.969 -1.3261 -0.1583 -2.3304
  102MOL0     H13451   3.561   1.996   2.868 -3.9066  3.1916 -0.4293
  102MOL0     H13452   3.274   1.595   2.777 -0.8546  1.7540 -0.4083
  102MOL0     H13453   3.110   1.440   2.803  2.4588 -0.8695  0.5602
  102MOL0     H13454   2.938   1.438   3.190 -0.3091  3.1796 -0.0412
  102MOL0     H13455   2.862   1.290   3.120 -4.4825 -0.0130 -2.9815
  102MOL0     H13456   2.741   1.570   3.123  0.3143  0.0220 -0.3904
  102MOL0     H13457   2.695   1.454   3.008  1.0077  2.1544 -0.5183
  102MOL0     H13458   2.625   1.296   3.167 -0.5968 -0.1469 -0.5717
  102MOL0     H13459   2.532   1.445   3.211  0.1789  1.8405 -0.8949
  102MOL0     H13460   2.718   1.480   3.374 -0.4716  0.3147 -2.1968
  102MOL0     H13461   2.582   1.379   3.428 -0.9529  5.2590 -0.0685
  102MOL0     H13462   2.890   1.082   3.449  0.2107  0.1244 -0.5373
  102MOL0     H13463   2.959   1.668   3.143  0.2217 -0.6014 -0.3623
  102MOL0     H13464   3.148   1.822   3.116 -2.7473 -0.3494  0.1296
  103MOL0     O13465   7.681   7.961   0.196  0.4797  0.0488  0.1830
  103MOL0     C13466   7.589   7.883   0.230  0.1714  0.7132  0.2677
  103MOL0     O13467   7.549   7.770   0.161 -1.3820 -0.0855 -0.0698
  103MOL0     C13468   7.619   7.729   0.048  0.4477  0.3020 -0.1340
  103MOL0     C13469   7.655   7.591   0.048  0.5536  0.4452 -0.1901
  103MOL0     C13470   7.713   7.540  -0.076 -0.2134 -0.3505  0.2242
  103MOL0     C13471   7.714   7.610  -0.192 -1.2543 -0.7343  0.5289
  103MOL0     O13472   7.762   7.562  -0.310  0.0062 -0.5682 -0.1643
  103MOL0     C13473   7.887   7.486  -0.315 -0.3195  0.4791 -0.4698
  103MOL0     C13474   7.890   7.407  -0.446  0.1835 -0.3261 -0.2286
  103MOL0     C13475   7.785   7.301  -0.447  0.0758 -0.3881 -0.7616
  103MOL0     C13476   7.800   7.193  -0.561  0.2064 -0.7854  0.1986
  103MOL0     C13477   7.802   7.231  -0.712 -0.0033 -0.5156 -0.0095
  103MOL0     C13478   7.696   7.328  -0.758 -0.5700  0.7236 -0.1278
  103MOL0     C13479   7.568   7.258  -0.771 -0.2409  0.3836 -2.4227
  103MOL0     C13480   7.527   7.225  -0.916 -0.6725 -0.1513  0.3110
  103MOL0     N13481   7.408   7.137  -0.921 -0.9806 -0.2657 -0.8078
  103MOL0     C13482   7.363   7.077  -1.033 -0.7522 -0.0148 -0.5297
  103MOL0     C13483   7.248   7.008  -0.997 -0.2600  0.0108  0.1946
  103MOL0     C13484   7.166   6.919  -1.082  0.7376 -0.1889  0.9346
  103MOL0     C13485   7.251   6.802  -1.128  0.0721 -0.2742  0.3113
  103MOL0     C13486   7.293   6.711  -1.006  0.2465 -0.1832 -0.3408
  103MOL0     C13487   7.188   6.675  -0.903 -0.2238  0.0725 -1.2290
  103MOL0     O13488   7.132   6.573  -0.986 -0.6064  0.6860 -0.2519
  103MOL0     C13489   7.089   6.467  -0.905  0.4537  0.6231  0.0359
  103MOL0     C13490   7.106   6.334  -0.953 -0.0310 -0.0711  0.4153
  103MOL0     C13491   7.078   6.231  -0.874  0.3077 -0.9229 -0.1892
  103MOL0     C13492   7.008   6.244  -0.755  0.4104 -0.1222 -0.1244
  103MOL0     C13493   6.982   6.134  -0.658 -0.7232  0.8649  0.3338
  103MOL0     O13494   6.928   6.165  -0.537 -0.6990 -0.4701 -0.3095
  103MOL0     C13495   6.937   6.065  -0.440  0.6976 -0.4197 -0.3854
  103MOL0     C13496   7.046   5.969  -0.413  0.4680  0.0561 -0.2555
  103MOL0     C13497   7.046   5.884  -0.302 -0.3796  0.3883  0.3122
  103MOL0     C13498   6.958   5.897  -0.204 -0.7437  0.6593  0.2643
  103MOL0     O13499   6.970   5.814  -0.087 -0.3499 -0.0621 -0.4858
  103MOL0     C13500   6.914   5.848   0.038  0.8379  0.5685  0.1104
  103MOL0     C13501   6.768   5.803   0.074 -0.2679  0.5060 -0.1042
  103MOL0     C13502   6.757   5.654   0.120 -0.4195 -0.4765  0.7844
  103MOL0     C13503   6.821   5.630   0.259  0.4331  0.9550  0.3183
  103MOL0     C13504   6.820   5.482   0.288  0.1233  0.7430 -1.4497
  103MOL0     C13505   6.883   5.458   0.429  0.2874 -0.6166  1.0237
  103MOL0     C13506   6.773   5.499   0.541 -0.2697  1.3429  0.6458
  103MOL0     C13507   6.715   5.384   0.624 -0.2131 -0.2203 -0.2605
  103MOL0    Cl13508   6.636   5.461   0.770 -0.0128 -0.0743  0.3820
  103MOL0     C13509   6.847   5.988  -0.232 -0.6621 -0.0593  0.0734
  103MOL0     C13510   6.842   6.077  -0.342 -0.2413  0.4847  0.3688
  103MOL0     O13511   7.029   6.027  -0.696 -0.1225  1.1545 -0.4761
  103MOL0     C13512   6.975   6.375  -0.713 -0.3486  0.9212  0.6815
  103MOL0     C13513   7.017   6.478  -0.787  0.3672 -0.8617 -0.3181
  103MOL0     N13514   7.221   7.042  -0.869  0.4386 -0.4912  0.6569
  103MOL0     N13515   7.316   7.115  -0.824 -0.5162  0.1296 -0.6679
  103MOL0     C13516   7.680   7.746  -0.181 -0.3053 -0.2834 -0.4350
  103MOL0     C13517   7.635   7.803  -0.063  0.1089  0.3435 -0.3807
  103MOL0     C13518   7.512   7.915   0.348  0.4978  0.3254 -0.7696
  103MOL0     C13519   7.387   7.858   0.377  0.5786  0.2886  0.1714
  103MOL0     C13520   7.333   7.875   0.501 -1.1139  1.1754  0.1717
  103MOL0     C13521   7.382   7.960   0.594 -0.8088  0.3174  0.0013
  103MOL0     O13522   7.322   7.985   0.721  0.0782  0.3109 -0.2559
  103MOL0     C13523   7.201   7.915   0.753  0.1080 -0.1580 -0.9941
  103MOL0     C13524   7.133   7.969   0.882 -1.0642  0.8992 -1.3111
  103MOL0     C13525   7.027   8.077   0.854  0.6539 -0.6465 -0.2510
  103MOL0     C13526   6.961   8.144   0.983  0.6152 -0.3181  0.4973
  103MOL0     C13527   6.872   8.047   1.050 -0.5371 -0.3890 -0.2935
  103MOL0     C13528   6.799   7.976   1.108  0.6415  0.2381  0.9221
  103MOL0     C13529   7.499   8.020   0.565  0.0998 -0.1053 -0.0015
  103MOL0     C13530   7.556   8.005   0.441 -0.0701 -1.1709  0.4940
  103MOL0     H13531   7.624   7.529   0.131  0.2864  0.9681  0.1042
  103MOL0     H13532   7.740   7.435  -0.078  0.6248 -0.2581  2.7446
  103MOL0     H13533   7.895   7.423  -0.225  0.4767  2.1660  0.6792
  103MOL0     H13534   7.974   7.550  -0.307  1.6906 -2.1256 -0.0159
  103MOL0     H13535   7.989   7.365  -0.467 -0.2927 -0.6939 -1.8879
  103MOL0     H13536   7.866   7.483  -0.521 -0.1855  3.2100  3.2137
  103MOL0     H13537   7.690   7.354  -0.462  0.1270 -0.1491 -0.2628
  103MOL0     H13538   7.780   7.255  -0.348  1.2762 -1.2288 -1.0741
  103MOL0     H13539   7.889   7.138  -0.529  1.4788  0.6306 -0.7479
  103MOL0     H13540   7.714   7.133  -0.531 -0.5922 -0.6726 -1.7387
  103MOL0     H13541   7.800   7.138  -0.768 -4.2411 -1.4826  1.4238
  103MOL0     H13542   7.899   7.278  -0.732  0.4448 -1.9957 -1.4804
  103MOL0     H13543   7.734   7.364  -0.854  0.8130  1.1146  0.5465
  103MOL0     H13544   7.694   7.417  -0.695 -0.2948 -0.1533  1.1532
  103MOL0     H13545   7.564   7.172  -0.703 -0.9187  1.1269 -1.4766
  103MOL0     H13546   7.494   7.327  -0.728  3.2247  1.6768  2.3320
  103MOL0     H13547   7.605   7.173  -0.972 -0.7688 -2.4967  2.1999
  103MOL0     H13548   7.496   7.314  -0.972 -2.6448 -1.3042 -0.5422
  103MOL0     H13549   7.411   7.075  -1.130  0.7560  0.7235  0.1630
  103MOL0     H13550   7.116   6.970  -1.166  1.2842 -0.2720  0.5533
  103MOL0     H13551   7.074   6.890  -1.030 -0.4348  3.3277  1.0864
  103MOL0     H13552   7.345   6.847  -1.161 -0.4673  2.8502  2.5726
  103MOL0     H13553   7.204   6.742  -1.207 -2.6720 -0.3223  1.8748
  103MOL0     H13554   7.355   6.634  -1.051 -0.7018 -0.3820 -1.3497
  103MOL0     H13555   7.358   6.773  -0.942 -0.5422  1.4051 -1.0189
  103MOL0     H13556   7.121   6.756  -0.871  0.8315  0.6939 -0.5392
  103MOL0     H13557   7.242   6.640  -0.815 -1.8216  3.1034  1.1735
  103MOL0     H13558   7.158   6.311  -1.046 -0.8801 -3.3046  0.6081
  103MOL0     H13559   7.100   6.127  -0.895  1.1479 -0.5562 -1.1950
  103MOL0     H13560   7.116   5.954  -0.494 -1.3619 -2.1872 -1.5742
  103MOL0     H13561   7.128   5.815  -0.287 -1.8124 -0.9849  2.2924
  103MOL0     H13562   6.918   5.957   0.051  1.6167  0.5720 -0.1289
  103MOL0     H13563   6.979   5.804   0.114  1.0479 -2.3110 -1.6205
  103MOL0     H13564   6.708   5.815  -0.017 -0.5640  1.5997  0.2233
  103MOL0     H13565   6.719   5.860   0.153 -1.3694 -0.5151 -0.0124
  103MOL0     H13566   6.819   5.594   0.053  0.2959  0.3229  0.7192
  103MOL0     H13567   6.652   5.624   0.118 -0.2128 -1.2644  1.3351
  103MOL0     H13568   6.925   5.664   0.263  0.5390  0.7211 -0.2915
  103MOL0     H13569   6.760   5.670   0.341 -0.1215 -3.3878  2.2760
  103MOL0     H13570   6.876   5.424   0.214 -0.1017 -1.2127 -0.1935
  103MOL0     H13571   6.716   5.448   0.287 -1.2514  4.2530  1.6050
  103MOL0     H13572   6.974   5.518   0.438  0.5389 -1.2388  3.5287
  103MOL0     H13573   6.913   5.353   0.439  1.2910 -0.3161  1.2795
  103MOL0     H13574   6.828   5.571   0.601  2.5031  1.9058 -2.3300
  103MOL0     H13575   6.684   5.548   0.501 -1.1298 -1.5556 -1.4045
  103MOL0     H13576   6.791   5.309   0.649  1.0602  0.0106 -3.0549
  103MOL0     H13577   6.633   5.336   0.571 -0.4435  2.5984 -2.7069
  103MOL0     H13578   6.762   5.997  -0.165 -2.7522  0.0859 -2.4342
  103MOL0     H13579   6.766   6.151  -0.362 -1.1440 -0.5572 -0.1730
  103MOL0     H13580   6.933   6.390  -0.613 -0.3887  0.9610  0.6591
  103MOL0     H13581   6.990   6.576  -0.749  0.4167 -1.1439  0.4545
  103MOL0     H13582   7.689   7.797  -0.276 -1.6543 -1.8858 -1.4836
  103MOL0     H13583   7.595   7.904  -0.060  0.4714  0.5069 -1.0760
  103MOL0     H13584   7.340   7.794   0.302  1.3264  0.2485 -0.2710
  103MOL0     H13585   7.242   7.817   0.513 -1.1235  0.7524 -1.6794
  103MOL0     H13586   7.225   7.812   0.780 -0.3629  0.4462  1.9948
  103MOL0     H13587   7.137   7.909   0.664  1.9787  1.2553 -2.5124
  103MOL0     H13588   7.090   7.886   0.939  0.7067  1.8252  1.5509
  103MOL0     H13589   7.210   8.018   0.941 -3.9407  3.4419  0.6578
  103MOL0     H13590   6.960   8.037   0.777  1.0664  0.6129 -1.3049
  103MOL0     H13591   7.073   8.158   0.797  1.0236  0.9300  2.1161
  103MOL0     H13592   7.042   8.154   1.056  1.5531 -2.2851 -0.2008
  103MOL0     H13593   6.911   8.235   0.952  1.0873 -1.1161 -3.0791
  103MOL0     H13594   6.724   7.923   1.162  2.8017 -3.6147  0.4787
  103MOL0     H13595   7.528   8.096   0.637 -0.3569 -1.9122  2.2084
  103MOL0     H13596   7.647   8.060   0.419  0.3249 -1.6054  1.0138
  104MOL0     O13597   2.904   6.881   3.627  0.0158  0.6205  0.4446
  104MOL0     C13598   2.918   6.898   3.746 -0.6042 -0.2118  0.4246
  104MOL0     O13599   2.903   6.800   3.841  0.1937 -0.2026 -0.4725
  104MOL0     C13600   2.841   6.683   3.815 -0.3584  0.6195  0.4542
  104MOL0     C13601   2.736   6.651   3.904 -0.2051 -0.2390 -0.4919
  104MOL0     C13602   2.673   6.523   3.889 -0.8890  0.2388  0.2196
  104MOL0     C13603   2.723   6.430   3.800 -0.1008  0.0766  0.1551
  104MOL0     O13604   2.684   6.292   3.801  0.4817 -0.0251 -0.0730
  104MOL0     C13605   2.541   6.270   3.802 -0.4632  0.0413 -0.0035
  104MOL0     C13606   2.490   6.290   3.648 -0.3784 -0.5209  1.2775
  104MOL0     C13607   2.340   6.305   3.654 -0.4252 -0.2067  0.0099
  104MOL0     C13608   2.275   6.170   3.712 -0.2118 -0.6656 -0.7024
  104MOL0     C13609   2.319   6.048   3.621 -0.0333  0.0985 -0.3304
  104MOL0     C13610   2.267   5.914   3.690  0.3989 -0.3594  0.1967
  104MOL0     C13611   2.360   5.802   3.667 -0.1005  0.2855  0.2737
  104MOL0     C13612   2.303   5.661   3.689 -0.0720 -1.1863  0.6154
  104MOL0     N13613   2.206   5.642   3.801  0.4184  0.1744 -0.3603
  104MOL0     C13614   2.237   5.613   3.932 -0.1961  0.0474  0.7641
  104MOL0     C13615   2.116   5.585   3.987 -0.2832 -0.2603  0.5795
  104MOL0     C13616   2.097   5.520   4.127  0.0049  0.3199 -0.4748
  104MOL0     C13617   1.994   5.587   4.217  0.3835 -0.2614 -0.3022
  104MOL0     C13618   1.859   5.535   4.185  0.2604 -0.2622  0.4038
  104MOL0     C13619   1.744   5.629   4.226  0.5392  0.6303 -0.5313
  104MOL0     O13620   1.742   5.677   4.358  0.5734  0.1221  0.2170
  104MOL0     C13621   1.626   5.733   4.412 -0.4371 -0.2404  0.4181
  104MOL0     C13622   1.617   5.755   4.551 -0.2238  0.3877 -0.9764
  104MOL0     C13623   1.511   5.817   4.610  0.0055  1.0208 -0.0429
  104MOL0     C13624   1.395   5.853   4.537 -0.9477 -0.1781 -0.2665
  104MOL0     C13625   1.292   5.924   4.607  0.0531 -0.3449  0.0109
  104MOL0     O13626   1.185   5.953   4.529 -0.6343 -0.0239 -0.0879
  104MOL0     C13627   1.065   5.982   4.595 -0.3585 -0.2748 -0.2425
  104MOL0     C13628   1.031   6.122   4.591 -0.1049 -0.5618 -0.2059
  104MOL0     C13629   0.921   6.164   4.664 -0.0887 -1.1061  0.5522
  104MOL0     C13630   0.844   6.083   4.743 -0.0781 -0.2614 -0.5686
  104MOL0     O13631   0.753   6.139   4.833  0.7419 -0.3152 -0.7783
  104MOL0     C13632   0.658   6.227   4.780  0.3914 -0.0273 -0.7402
  104MOL0     C13633   0.541   6.234   4.882  0.1869  0.5063  0.2189
  104MOL0     C13634   0.431   6.334   4.841 -0.4615 -0.0271  0.8946
  104MOL0     C13635   0.322   6.353   4.956 -0.1208 -0.4749  0.0951
  104MOL0     C13636   0.252   6.491   4.950  0.5848  0.4925  0.1625
  104MOL0     C13637   0.147   6.504   4.858  0.6154 -0.0945  0.3502
  104MOL0     C13638   0.080   6.640   4.850  0.0726 -0.3625 -0.2622
  104MOL0     C13639   0.006   6.665   4.719  0.3460  0.4569  0.0050
  104MOL0    Cl13640  -0.128   6.547   4.727  0.0348 -0.3570  0.3564
  104MOL0     C13641   0.880   5.948   4.751  0.7392 -0.5602 -0.4233
  104MOL0     C13642   0.985   5.893   4.671 -0.1362  0.0922 -0.9719
  104MOL0     O13643   1.308   5.957   4.725 -0.7113  0.8673 -0.3831
  104MOL0     C13644   1.394   5.811   4.400  0.9738 -0.1911  0.1885
  104MOL0     C13645   1.508   5.757   4.344  0.8726  0.3456  0.1278
  104MOL0     N13646   2.020   5.605   3.892  0.1273  0.3278  0.6456
  104MOL0     N13647   2.074   5.635   3.780  0.2485 -0.9189  0.0153
  104MOL0     C13648   2.824   6.470   3.712 -0.3418 -0.1316 -0.6450
  104MOL0     C13649   2.882   6.595   3.719  0.2374  0.1543  0.1847
  104MOL0     C13650   2.961   7.025   3.806 -0.2705 -0.6189  0.0735
  104MOL0     C13651   2.958   7.044   3.949 -1.0392  0.0157  0.3770
  104MOL0     C13652   2.985   7.168   4.004 -0.0854 -0.0022  0.4822
  104MOL0     C13653   3.026   7.268   3.916 -0.2992 -0.2339  0.1189
  104MOL0     O13654   3.065   7.395   3.965  0.5245 -0.0764 -0.1876
  104MOL0     C13655   3.022   7.441   4.096 -0.0951 -0.3226 -0.8063
  104MOL0     C13656   3.074   7.583   4.126  0.0902  0.5946 -0.2138
  104MOL0     C13657   3.036   7.621   4.270 -0.6306 -0.2915 -1.0402
  104MOL0     C13658   2.884   7.625   4.309  0.5294  0.2075 -0.0930
  104MOL0     C13659   2.849   7.703   4.434  0.5095  0.8396  0.1453
  104MOL0     C13660   2.831   7.767   4.538  0.2548 -0.8497  0.0470
  104MOL0     C13661   3.035   7.244   3.780 -0.4010  0.1606  0.0147
  104MOL0     C13662   3.007   7.122   3.723 -0.0695 -0.8079 -1.1067
  104MOL0     H13663   2.680   6.723   3.964 -1.8210 -0.3157 -1.8411
  104MOL0     H13664   2.598   6.495   3.962 -1.1798 -1.8519 -0.8133
  104MOL0     H13665   2.505   6.342   3.876 -0.3683  2.5802 -2.2587
  104MOL0     H13666   2.522   6.166   3.827  0.3815 -0.2255 -0.4352
  104MOL0     H13667   2.519   6.204   3.587  0.1477  0.7212 -0.3153
  104MOL0     H13668   2.533   6.384   3.611 -0.9616 -0.6113  0.3476
  104MOL0     H13669   2.299   6.316   3.553 -0.3526 -3.1949 -0.4304
  104MOL0     H13670   2.318   6.395   3.711  1.8193 -0.2815  1.0874
  104MOL0     H13671   2.301   6.153   3.817 -1.5637 -0.6642 -0.3478
  104MOL0     H13672   2.165   6.170   3.716 -0.2197 -1.5089 -0.6315
  104MOL0     H13673   2.426   6.026   3.615 -0.5481 -3.8845  1.6264
  104MOL0     H13674   2.278   6.066   3.521 -1.8215 -1.0540  0.1503
  104MOL0     H13675   2.171   5.896   3.641  1.7040 -1.5806 -2.0564
  104MOL0     H13676   2.248   5.925   3.797  0.6338  3.0410  0.0131
  104MOL0     H13677   2.399   5.786   3.566  1.3683 -1.8622  1.1111
  104MOL0     H13678   2.443   5.820   3.736 -0.1539  0.0972  0.3860
  104MOL0     H13679   2.380   5.584   3.693  0.8303 -0.4250 -1.1709
  104MOL0     H13680   2.243   5.639   3.601 -0.5597 -2.6577  1.2856
  104MOL0     H13681   2.335   5.605   3.978  0.5067  0.7419 -0.5547
  104MOL0     H13682   2.191   5.527   4.182  0.6976 -0.2341 -1.5593
  104MOL0     H13683   2.077   5.414   4.110 -4.4112  0.6317  1.3889
  104MOL0     H13684   1.994   5.696   4.205  0.0364  0.2072  2.9786
  104MOL0     H13685   2.028   5.565   4.319 -1.8225  0.5117  0.6553
  104MOL0     H13686   1.846   5.513   4.079 -2.2373  1.1285  0.3404
  104MOL0     H13687   1.860   5.441   4.241 -1.8387 -0.2394  0.5765
  104MOL0     H13688   1.650   5.573   4.216 -0.7713  2.1005  2.2510
  104MOL0     H13689   1.743   5.709   4.150  0.6028  1.0301 -0.1131
  104MOL0     H13690   1.700   5.716   4.610  0.6871  0.0221 -2.4540
  104MOL0     H13691   1.510   5.836   4.717 -3.4085  1.7794 -0.0832
  104MOL0     H13692   1.078   6.184   4.516 -2.3446 -0.5007 -1.6701
  104MOL0     H13693   0.897   6.270   4.655  2.0092 -0.6736 -0.5028
  104MOL0     H13694   0.630   6.191   4.680  0.9907  2.0646 -1.7165
  104MOL0     H13695   0.704   6.325   4.763  0.1593 -0.0363 -1.4484
  104MOL0     H13696   0.566   6.261   4.985 -0.1639  1.3754  0.0802
  104MOL0     H13697   0.506   6.130   4.891  2.1448 -0.2620 -0.6626
  104MOL0     H13698   0.381   6.304   4.748 -0.1212 -0.3350  0.8090
  104MOL0     H13699   0.466   6.436   4.822  0.7505  0.4327  4.8182
  104MOL0     H13700   0.249   6.272   4.946  1.4712 -2.2783  2.1091
  104MOL0     H13701   0.378   6.343   5.049  1.2389  0.3628 -0.5900
  104MOL0     H13702   0.325   6.572   4.936  0.1486  1.0149  0.8521
  104MOL0     H13703   0.208   6.518   5.046  2.9600 -1.6637  2.0032
  104MOL0     H13704   0.072   6.427   4.880  0.0646  0.7768  1.6645
  104MOL0     H13705   0.180   6.479   4.757  0.6393 -2.8606  0.9611
  104MOL0     H13706   0.018   6.643   4.940 -0.0994  1.5948 -0.3841
  104MOL0     H13707   0.156   6.720   4.851 -0.3927  0.1117  1.5114
  104MOL0     H13708   0.069   6.653   4.631 -0.7487  0.7684 -0.8597
  104MOL0     H13709  -0.046   6.762   4.722 -1.7709 -0.6390  0.6171
  104MOL0     H13710   0.827   5.891   4.826 -0.4539 -0.6536 -1.3074
  104MOL0     H13711   1.006   5.786   4.666 -2.2117 -0.3492 -0.8349
  104MOL0     H13712   1.312   5.835   4.334  1.0734  0.4513  0.2967
  104MOL0     H13713   1.498   5.738   4.238  1.8965 -0.8412  0.2224
  104MOL0     H13714   2.848   6.394   3.638  1.0862 -1.5045  1.1097
  104MOL0     H13715   2.960   6.621   3.648 -0.5977 -1.4418 -1.3978
  104MOL0     H13716   2.918   6.964   4.011 -1.1360  0.1073  0.4337
  104MOL0     H13717   2.968   7.178   4.111  1.6076  0.0885  0.7696
  104MOL0     H13718   3.045   7.367   4.174 -2.6265 -0.3247  0.0032
  104MOL0     H13719   2.914   7.444   4.106 -0.3507 -0.1907 -3.0758
  104MOL0     H13720   3.182   7.589   4.107  0.1198  0.0258 -0.2422
  104MOL0     H13721   3.034   7.650   4.049  3.1879  1.6039 -1.1158
  104MOL0     H13722   3.085   7.717   4.290  0.2474 -0.8733 -0.3091
  104MOL0     H13723   3.094   7.556   4.336 -1.1130 -0.9677 -1.2638
  104MOL0     H13724   2.831   7.660   4.220  2.8888 -2.9764 -2.9505
  104MOL0     H13725   2.850   7.523   4.328  0.9580  0.3160  1.4363
  104MOL0     H13726   2.818   7.825   4.627  2.8339  1.7526 -1.1174
  104MOL0     H13727   3.068   7.319   3.709  0.0588 -0.6210 -0.6210
  104MOL0     H13728   3.018   7.113   3.615  1.3579  4.4827 -1.6755
  105MOL0     O13729   4.701   2.071   3.803  0.1804  0.3433  1.3577
  105MOL0     C13730   4.698   2.037   3.920  0.2925 -0.1515 -0.1819
  105MOL0     O13731   4.598   2.056   4.012 -0.2579  0.3236 -0.2633
  105MOL0     C13732   4.474   2.112   3.975 -0.2276 -0.0309 -0.4530
  105MOL0     C13733   4.380   2.056   3.893 -0.2329  0.0712 -0.0398
  105MOL0     C13734   4.264   2.125   3.853  1.4327 -0.7578  0.7224
  105MOL0     C13735   4.245   2.257   3.903  0.1936  0.7065  0.1695
  105MOL0     O13736   4.142   2.339   3.865 -0.2228  0.8175  0.3167
  105MOL0     C13737   4.017   2.281   3.825  0.2489  0.0702  0.6497
  105MOL0     C13738   3.911   2.393   3.821 -0.0336  0.5386 -0.2595
  105MOL0     C13739   3.870   2.452   3.950  0.2006 -0.3460 -0.2885
  105MOL0     C13740   3.841   2.353   4.073 -0.4818 -0.9424 -0.1359
  105MOL0     C13741   3.782   2.427   4.196 -0.0147 -0.2897  0.3513
  105MOL0     C13742   3.703   2.325   4.287  0.4782  0.2638 -0.1049
  105MOL0     C13743   3.585   2.246   4.230  0.5551 -0.2302  0.2539
  105MOL0     C13744   3.491   2.180   4.330  0.3444  0.0716 -0.3061
  105MOL0     N13745   3.358   2.155   4.270  0.5660  0.0785  0.5292
  105MOL0     C13746   3.235   2.157   4.332  0.4155 -0.2061 -0.3532
  105MOL0     C13747   3.137   2.123   4.240 -0.1365 -0.0048 -1.0126
  105MOL0     C13748   2.990   2.101   4.270 -1.0188  0.3520  0.5180
  105MOL0     C13749   2.901   2.162   4.154 -0.4211 -0.7275  1.3978
  105MOL0     C13750   2.758   2.213   4.183  1.2761  0.0343 -0.0640
  105MOL0     C13751   2.696   2.273   4.053  0.1463 -0.6624 -0.1299
  105MOL0     O13752   2.583   2.356   4.081 -0.4636 -0.3281  0.0712
  105MOL0     C13753   2.472   2.306   4.144 -0.4301 -0.1450  0.2501
  105MOL0     C13754   2.430   2.170   4.136  0.2432  0.2184  0.1845
  105MOL0     C13755   2.320   2.132   4.218 -0.4726 -0.0819  0.7069
  105MOL0     C13756   2.256   2.229   4.302 -0.4896  0.7242 -0.6962
  105MOL0     C13757   2.130   2.199   4.387 -0.1289 -0.6719 -0.4473
  105MOL0     O13758   2.071   2.307   4.447 -0.6467 -0.4727  0.3121
  105MOL0     C13759   1.939   2.312   4.493  0.3451  0.6013  0.1795
  105MOL0     C13760   1.822   2.263   4.434  0.4013  0.4738 -0.1743
  105MOL0     C13761   1.695   2.274   4.508 -0.3942  0.2011  0.0000
  105MOL0     C13762   1.692   2.339   4.633 -0.1663 -0.1573  0.6493
  105MOL0     O13763   1.572   2.333   4.695  0.0894  0.3412 -0.2066
  105MOL0     C13764   1.571   2.333   4.837  0.3191 -0.0180  0.3858
  105MOL0     C13765   1.577   2.190   4.897  0.0160  0.9435  0.4178
  105MOL0     C13766   1.465   2.091   4.842  1.1205 -0.4773 -0.3783
  105MOL0     C13767   1.332   2.164   4.860 -0.8142  0.0002  0.4068
  105MOL0     C13768   1.214   2.069   4.870 -0.2127  0.3495  0.6760
  105MOL0     C13769   1.076   2.139   4.891 -0.5152  0.1327 -0.0678
  105MOL0     C13770   0.960   2.049   4.934 -0.1076 -0.0215  0.1191
  105MOL0     C13771   0.940   1.945   4.817 -0.5433  1.0308 -0.3816
  105MOL0    Cl13772   0.873   2.025   4.676 -0.2360  0.1146  0.0315
  105MOL0     C13773   1.813   2.399   4.676  0.5786 -0.4421 -0.3803
  105MOL0     C13774   1.931   2.392   4.603 -0.2545  0.0477 -0.8231
  105MOL0     O13775   2.092   2.086   4.397 -0.5843  0.7244 -0.2882
  105MOL0     C13776   2.301   2.362   4.304 -0.1671 -0.3338 -0.0753
  105MOL0     C13777   2.394   2.395   4.215  0.6896 -0.8698  0.3550
  105MOL0     N13778   3.203   2.077   4.127 -0.6567  0.2873 -0.4309
  105MOL0     N13779   3.332   2.089   4.150  0.2578 -0.7167  0.2052
  105MOL0     C13780   4.342   2.302   4.000 -0.2061 -0.6114  0.7224
  105MOL0     C13781   4.441   2.220   4.037 -0.6171  0.1598  0.4016
  105MOL0     C13782   4.798   1.940   3.961  0.0442 -0.2653 -0.0460
  105MOL0     C13783   4.822   1.896   4.099 -1.1280  0.3313 -0.2265
  105MOL0     C13784   4.921   1.804   4.134  0.1961 -0.5581 -0.8854
  105MOL0     C13785   5.001   1.737   4.035  0.0011 -0.2069  0.6152
  105MOL0     O13786   5.090   1.643   4.076  0.9326 -0.5711 -0.1392
  105MOL0     C13787   5.167   1.558   3.981  0.1976 -0.5280 -0.8164
  105MOL0     C13788   5.290   1.638   3.924 -0.4125  0.0995  0.3239
  105MOL0     C13789   5.381   1.675   4.040  0.5887  0.2828 -0.5677
  105MOL0     C13790   5.479   1.795   4.023 -0.6788  0.1416 -0.2856
  105MOL0     C13791   5.539   1.810   4.159  0.2611 -0.5704  0.6328
  105MOL0     C13792   5.568   1.829   4.269 -0.4357 -0.2074  0.3189
  105MOL0     C13793   4.973   1.778   3.895 -0.0372 -0.8859 -0.1952
  105MOL0     C13794   4.870   1.868   3.863  0.0788 -0.5092 -0.1890
  105MOL0     H13795   4.404   1.954   3.867  0.5832 -0.5611  2.8131
  105MOL0     H13796   4.210   2.089   3.767 -0.5434 -0.3916  1.7344
  105MOL0     H13797   3.983   2.206   3.897  0.6569  0.3949  1.1805
  105MOL0     H13798   4.031   2.234   3.727  3.2714 -1.1635  1.5855
  105MOL0     H13799   3.818   2.344   3.792  0.3177 -0.0708 -0.3790
  105MOL0     H13800   3.936   2.466   3.743  0.5544 -3.0135 -3.7168
  105MOL0     H13801   3.773   2.499   3.929  0.2898 -1.5736 -3.9757
  105MOL0     H13802   3.931   2.538   3.980  0.1482 -0.2343 -0.4995
  105MOL0     H13803   3.769   2.276   4.047 -2.1622 -0.2307  2.0786
  105MOL0     H13804   3.927   2.291   4.101 -0.8977 -1.0164  1.0376
  105MOL0     H13805   3.709   2.494   4.149  0.3917  1.4759  2.0928
  105MOL0     H13806   3.859   2.489   4.243  0.7714  1.7137 -3.2034
  105MOL0     H13807   3.664   2.389   4.366 -3.2248  2.5500 -3.4193
  105MOL0     H13808   3.766   2.244   4.326  1.9066  0.6756 -1.4582
  105MOL0     H13809   3.539   2.313   4.157  0.7736  0.5518  0.8262
  105MOL0     H13810   3.619   2.164   4.166 -1.4159 -0.8469 -0.0643
  105MOL0     H13811   3.479   2.236   4.422  0.9703 -3.0817  1.8805
  105MOL0     H13812   3.527   2.085   4.371  1.6440  0.9942  0.7642
  105MOL0     H13813   3.228   2.173   4.439  0.6404 -0.1096 -0.3523
  105MOL0     H13814   2.957   2.156   4.358  0.5414  1.2203  0.6043
  105MOL0     H13815   2.981   1.993   4.285  1.4604  0.1609  0.9466
  105MOL0     H13816   2.902   2.093   4.069 -0.8190 -0.0551  0.8376
  105MOL0     H13817   2.955   2.250   4.119 -2.7009 -0.2489 -1.2273
  105MOL0     H13818   2.691   2.134   4.218 -1.2964  1.0301 -2.3278
  105MOL0     H13819   2.754   2.289   4.261 -0.7756 -0.0823  0.0038
  105MOL0     H13820   2.664   2.191   3.988  0.5224 -1.7108  0.9854
  105MOL0     H13821   2.771   2.327   3.993 -0.7781 -1.5886 -2.2192
  105MOL0     H13822   2.457   2.084   4.075 -1.2145  0.5748 -1.0157
  105MOL0     H13823   2.288   2.031   4.196  1.0153 -0.3360 -0.4586
  105MOL0     H13824   1.842   2.212   4.341  5.5810 -3.3441  2.4905
  105MOL0     H13825   1.614   2.229   4.452 -0.0422  0.1819 -0.5052
  105MOL0     H13826   1.475   2.377   4.869  0.1646 -2.5588  4.0915
  105MOL0     H13827   1.646   2.402   4.876  4.2548 -3.6101 -0.0988
  105MOL0     H13828   1.573   2.196   5.006 -2.6978 -3.1242  0.7636
  105MOL0     H13829   1.675   2.152   4.866  0.7243  3.1188 -0.2295
  105MOL0     H13830   1.471   1.995   4.894 -0.1163 -4.1180 -6.0388
  105MOL0     H13831   1.478   2.068   4.736 -0.0324  3.2329 -1.4775
  105MOL0     H13832   1.339   2.242   4.937  2.3484 -0.8301  1.1141
  105MOL0     H13833   1.311   2.213   4.764 -2.9694 -4.7588 -1.8849
  105MOL0     H13834   1.234   1.988   4.941 -3.4311  1.6151  3.2692
  105MOL0     H13835   1.204   2.012   4.777  0.8756  1.2121  0.0076
  105MOL0     H13836   1.042   2.187   4.799 -1.3832  0.5366  0.4514
  105MOL0     H13837   1.086   2.209   4.974  1.1463  1.6260 -1.4520
  105MOL0     H13838   0.990   1.992   5.023  0.8042  0.4658  0.1296
  105MOL0     H13839   0.872   2.112   4.951  0.8402  1.4865 -0.4080
  105MOL0     H13840   0.866   1.871   4.849  0.9750  0.6955  2.6659
  105MOL0     H13841   1.029   1.887   4.792  0.5368  2.1492  0.7437
  105MOL0     H13842   1.826   2.450   4.771  0.7476 -0.6129 -0.3126
  105MOL0     H13843   2.017   2.442   4.645 -0.7548 -1.2469  1.9406
  105MOL0     H13844   2.262   2.437   4.372 -0.4067  1.0953 -1.7354
  105MOL0     H13845   2.411   2.502   4.209 -5.9871  0.5439 -1.1580
  105MOL0     H13846   4.342   2.403   4.040  2.1541  0.0586 -0.8067
  105MOL0     H13847   4.524   2.261   4.093 -1.9688  2.0815  1.0997
  105MOL0     H13848   4.775   1.955   4.177  1.0775  1.7023  0.1427
  105MOL0     H13849   4.946   1.794   4.239 -1.7013 -1.6864 -0.5056
  105MOL0     H13850   5.106   1.534   3.894 -1.9804  1.6138  0.0106
  105MOL0     H13851   5.197   1.463   4.027  0.5873 -1.4584 -2.8764
  105MOL0     H13852   5.350   1.580   3.853 -0.3021 -0.3106  0.7496
  105MOL0     H13853   5.247   1.724   3.872  2.9794  0.9903 -1.2512
  105MOL0     H13854   5.447   1.596   4.076  3.6114  3.3639  1.2842
  105MOL0     H13855   5.310   1.701   4.119  0.8057  0.0721 -0.3027
  105MOL0     H13856   5.566   1.789   3.958  0.2338  0.5354  0.8498
  105MOL0     H13857   5.425   1.886   3.993 -1.5989 -0.6417 -1.0572
  105MOL0     H13858   5.599   1.864   4.365  2.8837  0.6955 -0.9537
  105MOL0     H13859   5.032   1.719   3.825 -1.0726 -0.0773 -1.7887
  105MOL0     H13860   4.861   1.888   3.757  0.9899  0.1580 -0.1546
  106MOL0     O13861   4.057   1.066   7.758 -0.5720 -0.0987 -0.0849
  106MOL0     C13862   4.078   0.945   7.792  0.7081 -0.4588 -0.1302
  106MOL0     O13863   4.192   0.887   7.852  0.2009 -0.4300 -0.3868
  106MOL0     C13864   4.298   0.969   7.899 -0.1463  0.6138 -0.1462
  106MOL0     C13865   4.269   1.089   7.963  0.5357 -0.0453  0.4445
  106MOL0     C13866   4.368   1.171   8.009 -0.3720  0.6061 -0.2858
  106MOL0     C13867   4.501   1.131   7.991 -0.1404  0.3651 -0.1133
  106MOL0     O13868   4.585   1.232   8.029 -0.1061  0.3477  0.0039
  106MOL0     C13869   4.700   1.187   8.107  0.4378  0.7181  0.7813
  106MOL0     C13870   4.709   1.261   8.235 -0.1186  0.1822 -1.0514
  106MOL0     C13871   4.568   1.307   8.305 -0.5772  0.9337  0.6439
  106MOL0     C13872   4.599   1.372   8.438 -0.5200  0.0017 -0.6742
  106MOL0     C13873   4.465   1.428   8.491  0.6951 -0.1962 -0.6331
  106MOL0     C13874   4.481   1.515   8.622  1.0674  0.8592  0.0179
  106MOL0     C13875   4.345   1.570   8.679  0.1737  0.2301  0.1592
  106MOL0     C13876   4.235   1.467   8.712 -0.5026  0.2556  0.1427
  106MOL0     N13877   4.143   1.521   8.810  0.0918  0.4272  0.3658
  106MOL0     C13878   4.027   1.573   8.764  0.2310 -0.0868  0.3359
  106MOL0     C13879   3.974   1.642   8.868  1.2184 -0.3402  0.2951
  106MOL0     C13880   3.836   1.707   8.883  0.1008 -0.2657  0.8442
  106MOL0     C13881   3.733   1.601   8.853 -0.2976  0.0642  0.2618
  106MOL0     C13882   3.704   1.584   8.702 -0.0256  0.3177 -0.7340
  106MOL0     C13883   3.583   1.489   8.668  0.1865 -0.2695 -0.8364
  106MOL0     O13884   3.480   1.492   8.767 -0.8216  0.1755  0.1341
  106MOL0     C13885   3.354   1.528   8.727  0.5358 -0.2362  0.0540
  106MOL0     C13886   3.328   1.655   8.693  0.5064  0.5233  0.4879
  106MOL0     C13887   3.196   1.695   8.673 -0.1101  0.1885 -0.4179
  106MOL0     C13888   3.097   1.606   8.679 -0.4730  0.2988  0.5713
  106MOL0     C13889   2.958   1.638   8.634 -0.1200  0.4059  0.3393
  106MOL0     O13890   2.946   1.743   8.550 -0.2754  0.1983 -0.5866
  106MOL0     C13891   2.834   1.788   8.487 -0.0350 -0.5846 -0.1357
  106MOL0     C13892   2.829   1.921   8.454 -0.4291 -0.0328 -0.4722
  106MOL0     C13893   2.735   1.968   8.364 -0.8438  1.5453  0.1452
  106MOL0     C13894   2.637   1.886   8.307  0.7030  0.2420 -0.2560
  106MOL0     O13895   2.551   1.940   8.219 -0.4487  0.3109  0.3767
  106MOL0     C13896   2.469   1.862   8.131 -0.0936  0.3529 -1.0030
  106MOL0     C13897   2.401   1.958   8.023  0.4281  0.4704  0.6068
  106MOL0     C13898   2.262   2.010   8.057  0.6384 -0.3335 -0.4665
  106MOL0     C13899   2.217   2.116   7.956 -0.0793 -0.4582  0.1406
  106MOL0     C13900   2.097   2.197   7.997 -0.6274 -0.7465  0.6789
  106MOL0     C13901   1.971   2.112   7.977 -0.2963  0.4940  0.0764
  106MOL0     C13902   1.854   2.164   8.055 -0.2084  0.0540  0.0895
  106MOL0     C13903   1.805   2.307   8.000  0.6610  0.2219  0.4421
  106MOL0    Cl13904   1.657   2.367   8.070 -0.3560 -0.0044  0.0271
  106MOL0     C13905   2.645   1.757   8.338 -0.6697  0.5619 -0.1280
  106MOL0     C13906   2.745   1.698   8.425  0.6199 -0.7004  0.8150
  106MOL0     O13907   2.870   1.557   8.660 -0.3071 -0.2038  0.2789
  106MOL0     C13908   3.123   1.477   8.722 -0.8388  0.6823  0.4168
  106MOL0     C13909   3.252   1.434   8.742 -0.3799 -0.2156 -0.8017
  106MOL0     N13910   4.062   1.622   8.970 -0.3438 -0.9484  0.3361
  106MOL0     N13911   4.159   1.543   8.942 -0.3255  0.3850  0.3954
  106MOL0     C13912   4.543   1.019   7.923  0.1632  0.5133 -0.5473
  106MOL0     C13913   4.436   0.933   7.877  0.0165 -1.1066 -0.2383
  106MOL0     C13914   3.956   0.862   7.794  0.1062 -0.0704 -0.2918
  106MOL0     C13915   3.825   0.913   7.741 -1.1906  0.1828  0.1178
  106MOL0     C13916   3.716   0.821   7.715 -0.9655  0.7534 -0.5010
  106MOL0     C13917   3.719   0.691   7.779 -0.1271 -1.0851  0.4009
  106MOL0     O13918   3.613   0.601   7.776  0.5080  0.6365 -0.0336
  106MOL0     C13919   3.618   0.515   7.659  0.4911 -0.3947  0.0828
  106MOL0     C13920   3.530   0.557   7.538  0.0714 -0.0511  0.1987
  106MOL0     C13921   3.537   0.458   7.425  0.4850 -0.0551 -0.0839
  106MOL0     C13922   3.470   0.320   7.452  0.4391 -0.2305  0.1832
  106MOL0     C13923   3.580   0.224   7.477  0.5043  1.1561 -0.3711
  106MOL0     C13924   3.660   0.134   7.498 -0.9005 -0.5961  0.9026
  106MOL0     C13925   3.840   0.646   7.827  0.5022  0.1545  0.4208
  106MOL0     C13926   3.957   0.723   7.835 -0.2914 -0.6420 -0.5397
  106MOL0     H13927   4.168   1.120   7.987  0.2474  0.6987 -1.5588
  106MOL0     H13928   4.351   1.266   8.059  1.9160  1.6709 -1.3910
  106MOL0     H13929   4.783   1.205   8.038 -0.8305 -0.1981 -1.0665
  106MOL0     H13930   4.693   1.079   8.124  2.8166 -0.3340 -3.5145
  106MOL0     H13931   4.757   1.359   8.230  0.3288 -0.0144 -0.6540
  106MOL0     H13932   4.774   1.212   8.308  0.5664  0.6434 -1.3378
  106MOL0     H13933   4.506   1.219   8.325 -0.3172  0.1151 -1.8494
  106MOL0     H13934   4.509   1.371   8.240  1.2919 -1.6466 -4.0527
  106MOL0     H13935   4.638   1.304   8.514 -1.0141  0.9248  0.4224
  106MOL0     H13936   4.678   1.448   8.428  1.6413 -2.3015 -2.8937
  106MOL0     H13937   4.401   1.340   8.501  0.5982 -0.0701 -0.0754
  106MOL0     H13938   4.428   1.487   8.407 -0.8740 -3.5647 -2.4808
  106MOL0     H13939   4.547   1.598   8.597  1.0584  0.5564 -1.0940
  106MOL0     H13940   4.530   1.460   8.702 -1.6859  1.3520  2.2196
  106MOL0     H13941   4.372   1.608   8.778  0.8718  1.2190 -0.4005
  106MOL0     H13942   4.300   1.621   8.593 -2.0138 -2.4621 -0.4473
  106MOL0     H13943   4.282   1.381   8.761 -2.6753 -2.4657 -2.1944
  106MOL0     H13944   4.178   1.430   8.626 -2.7250 -0.4945  1.8421
  106MOL0     H13945   3.996   1.545   8.664  1.3878  0.2266 -0.1228
  106MOL0     H13946   3.828   1.793   8.816 -0.4453 -0.1567  1.0506
  106MOL0     H13947   3.826   1.738   8.988  0.7023 -0.4373  0.9598
  106MOL0     H13948   3.646   1.630   8.913 -0.6967  1.5077 -0.9495
  106MOL0     H13949   3.768   1.504   8.889 -0.8644  0.0982  0.9355
  106MOL0     H13950   3.683   1.680   8.654  0.9190  0.3697 -1.0785
  106MOL0     H13951   3.787   1.543   8.643 -0.0985 -2.3769  0.9053
  106MOL0     H13952   3.626   1.388   8.672 -1.5719 -1.0241  0.2698
  106MOL0     H13953   3.533   1.516   8.575 -6.2803 -0.2720  2.1183
  106MOL0     H13954   3.416   1.718   8.687  0.1677  0.8971 -0.7097
  106MOL0     H13955   3.184   1.800   8.648 -2.0060 -0.2996 -1.8322
  106MOL0     H13956   2.887   2.000   8.501 -2.8250  1.2468  0.5262
  106MOL0     H13957   2.735   2.074   8.340  2.1272  1.8078  0.8840
  106MOL0     H13958   2.382   1.811   8.174  0.5923 -0.1556 -0.1860
  106MOL0     H13959   2.536   1.790   8.083  1.9270  0.7010  1.1261
  106MOL0     H13960   2.378   1.899   7.934 -1.6675 -0.7412  1.8693
  106MOL0     H13961   2.466   2.038   7.987 -0.4565  1.3837  0.9817
  106MOL0     H13962   2.268   2.061   8.153  1.9933  1.1324 -1.2790
  106MOL0     H13963   2.193   1.925   8.062 -0.8381  0.7038 -1.9652
  106MOL0     H13964   2.300   2.184   7.935 -0.8792  0.1062 -1.3262
  106MOL0     H13965   2.199   2.069   7.859  5.1281 -1.5708 -0.5878
  106MOL0     H13966   2.067   2.286   7.941 -1.0306 -0.6509  1.0410
  106MOL0     H13967   2.123   2.243   8.093  0.8535 -0.5135  0.1996
  106MOL0     H13968   1.993   2.014   8.020 -0.9044  0.3197  0.0081
  106MOL0     H13969   1.954   2.072   7.877 -0.7543  1.1953 -0.1408
  106MOL0     H13970   1.784   2.080   8.060  1.4004 -1.4290 -1.1069
  106MOL0     H13971   1.877   2.184   8.160  1.5310 -2.8697  0.3831
  106MOL0     H13972   1.790   2.294   7.892 -1.5135 -2.5082  0.9609
  106MOL0     H13973   1.885   2.378   8.024  0.8973 -0.7301  2.7425
  106MOL0     H13974   2.565   1.689   8.312  1.7179 -2.5169  0.0209
  106MOL0     H13975   2.758   1.590   8.435 -2.1850 -0.9970  2.4025
  106MOL0     H13976   3.047   1.398   8.721 -0.4381  0.2444 -2.4346
  106MOL0     H13977   3.258   1.333   8.781 -3.2395 -0.3847 -0.6079
  106MOL0     H13978   4.647   0.997   7.903 -0.5828 -2.0538 -2.0953
  106MOL0     H13979   4.456   0.846   7.816 -0.1520 -0.0824 -1.7975
  106MOL0     H13980   3.816   1.018   7.716  0.4310  1.2097  3.3351
  106MOL0     H13981   3.629   0.867   7.668 -0.5654  0.1588 -1.9062
  106MOL0     H13982   3.588   0.418   7.698  2.2633 -0.0747  2.4237
  106MOL0     H13983   3.721   0.499   7.628  0.5450 -1.9856  0.9973
  106MOL0     H13984   3.428   0.569   7.574 -0.0541 -1.0365  0.2206
  106MOL0     H13985   3.558   0.656   7.502  0.2538  1.3297  3.7174
  106MOL0     H13986   3.644   0.453   7.403  0.9822 -0.4053  2.1553
  106MOL0     H13987   3.483   0.496   7.338 -0.4355  0.1283  0.5518
  106MOL0     H13988   3.412   0.318   7.544 -0.0579 -1.5140 -0.1490
  106MOL0     H13989   3.407   0.302   7.364  0.2277  5.9207 -1.4481
  106MOL0     H13990   3.726   0.050   7.503 -2.6066 -2.3733 -2.8344
  106MOL0     H13991   3.836   0.554   7.884  0.5485  1.3037  2.3703
  106MOL0     H13992   4.041   0.679   7.887 -0.0742  1.0884  0.6539
  107MOL0     O13993   8.879   5.191   2.136 -0.4086  0.5673  0.0022
  107MOL0     C13994   8.998   5.155   2.151  0.5541  0.9620 -0.2904
  107MOL0     O13995   9.035   5.048   2.208  0.0759  0.4235 -0.5600
  107MOL0     C13996   8.943   4.945   2.223 -0.1748  0.0979  0.1759
  107MOL0     C13997   8.950   4.834   2.131 -0.0656 -1.0174 -0.1299
  107MOL0     C13998   8.864   4.724   2.140 -0.2202 -0.1593 -0.4630
  107MOL0     C13999   8.772   4.718   2.247 -0.2570 -0.1428 -0.2077
  107MOL0     O14000   8.683   4.617   2.275 -0.0725  0.3736 -0.2861
  107MOL0     C14001   8.636   4.547   2.158  0.9664 -0.3130 -0.1121
  107MOL0     C14002   8.542   4.439   2.208 -0.2249 -0.9706 -0.7525
  107MOL0     C14003   8.619   4.319   2.260 -0.2212 -0.3298 -0.4128
  107MOL0     C14004   8.531   4.193   2.288 -0.3400  0.2253 -0.1287
  107MOL0     C14005   8.429   4.220   2.403  0.5798  0.1502 -1.3141
  107MOL0     C14006   8.340   4.100   2.430 -0.1801  0.5035  0.2509
  107MOL0     C14007   8.255   4.044   2.313  0.6221  0.7439  0.4384
  107MOL0     C14008   8.113   3.980   2.366 -0.0500  0.3906  0.3068
  107MOL0     N14009   8.000   4.075   2.344  0.2407 -0.2548  0.3481
  107MOL0     C14010   7.872   4.062   2.284  1.1379 -0.9149 -1.1074
  107MOL0     C14011   7.819   4.191   2.297 -0.3846  0.6021  0.1590
  107MOL0     C14012   7.682   4.226   2.257 -0.0407  0.0683  1.3605
  107MOL0     C14013   7.596   4.271   2.367  0.8208 -0.8836 -0.6755
  107MOL0     C14014   7.476   4.362   2.329  0.4232  0.1063 -0.3809
  107MOL0     C14015   7.417   4.412   2.461 -0.5014  0.7420 -0.6571
  107MOL0     O14016   7.315   4.509   2.432 -0.1406  0.2352 -0.2693
  107MOL0     C14017   7.186   4.478   2.396 -0.1686  1.4444 -0.8559
  107MOL0     C14018   7.106   4.583   2.385  0.7126  0.1168  0.6323
  107MOL0     C14019   6.970   4.578   2.347 -0.4155 -0.5734 -0.4776
  107MOL0     C14020   6.920   4.453   2.305 -1.3813  0.3396  0.4065
  107MOL0     C14021   6.790   4.434   2.253 -0.6440 -0.1148 -0.0124
  107MOL0     O14022   6.698   4.532   2.280 -0.2419 -0.7290 -0.0808
  107MOL0     C14023   6.561   4.524   2.257  0.3720 -0.6001 -0.8122
  107MOL0     C14024   6.482   4.642   2.238 -0.5186 -0.1802 -0.8715
  107MOL0     C14025   6.345   4.649   2.227  0.3656  0.6354  0.2305
  107MOL0     C14026   6.267   4.533   2.233 -0.3946  0.8735  1.0520
  107MOL0     O14027   6.131   4.527   2.247 -0.0122  0.7462  0.2925
  107MOL0     C14028   6.060   4.651   2.272 -0.4937 -0.6995 -0.3239
  107MOL0     C14029   5.918   4.624   2.316 -0.1768 -0.8888 -0.0807
  107MOL0     C14030   5.831   4.609   2.184 -0.2065  0.1509 -0.2470
  107MOL0     C14031   5.680   4.596   2.214 -0.1375  0.2081  0.2185
  107MOL0     C14032   5.595   4.525   2.108 -0.4385  0.4014 -0.0369
  107MOL0     C14033   5.442   4.532   2.136  0.2679  0.1114  0.4769
  107MOL0     C14034   5.376   4.672   2.120 -0.1120  0.2129  0.0748
  107MOL0     C14035   5.421   4.760   2.005  0.5913  0.3572 -0.6669
  107MOL0    Cl14036   5.307   4.902   2.020  0.0168 -0.6041 -0.2452
  107MOL0     C14037   6.341   4.404   2.240 -0.4352 -0.1627 -0.2205
  107MOL0     C14038   6.482   4.406   2.249 -0.2699  0.2787  0.7778
  107MOL0     O14039   6.766   4.322   2.193 -0.3871  0.6002 -0.0992
  107MOL0     C14040   7.010   4.337   2.319 -0.1394 -0.8872  0.5126
  107MOL0     C14041   7.138   4.347   2.361  0.0389 -0.2311 -0.0562
  107MOL0     N14042   7.912   4.267   2.378  0.0590 -0.0358  1.2115
  107MOL0     N14043   8.015   4.198   2.398 -1.1224  0.3504 -0.1398
  107MOL0     C14044   8.767   4.821   2.339  0.4366 -0.1471 -0.0489
  107MOL0     C14045   8.851   4.933   2.330 -0.7674 -0.8207 -0.5947
  107MOL0     C14046   9.096   5.233   2.081 -0.0199  0.0465  0.3333
  107MOL0     C14047   9.225   5.245   2.142 -0.4516  0.6136  0.6294
  107MOL0     C14048   9.330   5.321   2.088  0.4094  0.0398  1.4531
  107MOL0     C14049   9.311   5.377   1.961 -0.2559 -0.8311  0.0240
  107MOL0     O14050   9.402   5.458   1.896 -0.0165  0.0337  0.1472
  107MOL0     C14051   9.501   5.372   1.826 -0.4415  0.7300 -0.0826
  107MOL0     C14052   9.624   5.465   1.815  0.0363 -0.3712  0.2314
  107MOL0     C14053   9.702   5.478   1.952 -0.2023  0.5325  0.2074
  107MOL0     C14054   9.814   5.582   1.944 -0.5144  0.3425 -0.7571
  107MOL0     C14055   9.927   5.553   1.864 -0.2911 -0.4544  0.1111
  107MOL0     C14056  10.026   5.546   1.792 -0.7444  0.3588 -0.1746
  107MOL0     C14057   9.186   5.367   1.900  0.0904  0.4595  0.7504
  107MOL0     C14058   9.073   5.305   1.963 -0.2314 -0.0257 -0.9071
  107MOL0     H14059   9.020   4.854   2.050 -0.9673 -1.9031 -1.1462
  107MOL0     H14060   8.867   4.646   2.065 -1.7267  1.9515 -2.8758
  107MOL0     H14061   8.710   4.493   2.099  1.3999  0.6046 -0.4175
  107MOL0     H14062   8.589   4.619   2.090  0.2973 -1.0024 -0.3919
  107MOL0     H14063   8.482   4.409   2.121 -0.6150 -0.9899 -0.4833
  107MOL0     H14064   8.477   4.480   2.287  1.3782  1.5367 -0.6294
  107MOL0     H14065   8.661   4.360   2.353  0.2062 -0.6780 -0.4492
  107MOL0     H14066   8.707   4.285   2.204 -1.2231 -1.0224 -1.5859
  107MOL0     H14067   8.481   4.162   2.195  2.3776 -5.4294 -0.0798
  107MOL0     H14068   8.587   4.102   2.310 -0.4111  0.5672  1.5598
  107MOL0     H14069   8.366   4.305   2.377 -1.0887  0.4220  2.8662
  107MOL0     H14070   8.495   4.240   2.488  1.4604  0.4668 -2.0581
  107MOL0     H14071   8.278   4.128   2.516  1.1692  0.6283  1.2249
  107MOL0     H14072   8.416   4.028   2.460 -0.5626  0.2036  0.5083
  107MOL0     H14073   8.239   4.135   2.254  1.3103 -0.5510 -1.8577
  107MOL0     H14074   8.314   3.970   2.260 -1.2819 -3.1364  3.2723
  107MOL0     H14075   8.124   3.950   2.470  1.5640 -0.4617 -0.0825
  107MOL0     H14076   8.094   3.893   2.303  2.4218 -0.5330  0.7639
  107MOL0     H14077   7.830   3.976   2.232  2.5840 -0.6197 -2.8589
  107MOL0     H14078   7.644   4.137   2.206  2.4603  0.8184 -2.1643
  107MOL0     H14079   7.690   4.306   2.183 -2.0193 -0.4545  0.5083
  107MOL0     H14080   7.660   4.319   2.441  0.9634 -2.3429  0.1604
  107MOL0     H14081   7.551   4.183   2.413  2.0249 -1.8020 -1.1916
  107MOL0     H14082   7.518   4.439   2.263 -0.8806  1.7303  0.6217
  107MOL0     H14083   7.403   4.299   2.276  2.3732 -1.8296 -0.9657
  107MOL0     H14084   7.484   4.475   2.521 -3.0955 -0.0132  3.4604
  107MOL0     H14085   7.375   4.326   2.514 -2.0397  0.5763 -2.0890
  107MOL0     H14086   7.148   4.683   2.393  3.9728 -1.0028 -0.6893
  107MOL0     H14087   6.913   4.670   2.340 -3.3633 -2.3323 -1.4718
  107MOL0     H14088   6.534   4.737   2.232 -1.2664  0.4407  1.5020
  107MOL0     H14089   6.288   4.740   2.210 -0.6245  0.2878  1.5526
  107MOL0     H14090   6.057   4.718   2.185 -2.4052  0.7332  0.7588
  107MOL0     H14091   6.103   4.701   2.359 -0.1997 -0.4191 -0.6285
  107MOL0     H14092   5.890   4.705   2.384  2.1691  0.5559 -0.7304
  107MOL0     H14093   5.900   4.536   2.379 -1.7081 -0.7781 -0.3149
  107MOL0     H14094   5.874   4.531   2.120  0.0698  0.6812 -0.7191
  107MOL0     H14095   5.855   4.707   2.142 -0.4172 -0.3906 -1.7040
  107MOL0     H14096   5.662   4.544   2.309 -0.9607 -1.7014 -0.9459
  107MOL0     H14097   5.635   4.694   2.232 -1.6622 -0.9404  3.4742
  107MOL0     H14098   5.639   4.425   2.099  0.3771  0.8351 -1.1307
  107MOL0     H14099   5.609   4.570   2.010  0.6441 -2.6662 -1.4387
  107MOL0     H14100   5.425   4.492   2.236  3.0187 -2.6228 -0.0025
  107MOL0     H14101   5.391   4.472   2.059 -1.0543  2.1387 -0.3119
  107MOL0     H14102   5.267   4.665   2.114 -0.1208 -2.7755  1.5116
  107MOL0     H14103   5.394   4.729   2.211 -0.2878  2.9276 -1.4856
  107MOL0     H14104   5.417   4.703   1.912 -1.6749 -4.0281  1.7747
  107MOL0     H14105   5.526   4.783   2.024  1.8450 -5.0067  0.5552
  107MOL0     H14106   6.288   4.310   2.241  0.7477 -0.8922  1.7942
  107MOL0     H14107   6.537   4.314   2.261 -1.2840 -0.0627  3.8910
  107MOL0     H14108   6.980   4.233   2.307  2.2141 -2.4059  5.1979
  107MOL0     H14109   7.204   4.262   2.361  1.3915  0.7674 -1.3173
  107MOL0     H14110   8.698   4.817   2.423  0.2639 -2.0387 -0.2222
  107MOL0     H14111   8.830   5.027   2.380 -0.8233  0.5416 -2.9821
  107MOL0     H14112   9.233   5.203   2.242 -1.1350 -1.3133 -0.0839
  107MOL0     H14113   9.423   5.326   2.144  2.1843 -0.5148 -1.2656
  107MOL0     H14114   9.475   5.348   1.723  2.2947 -4.0664  0.0360
  107MOL0     H14115   9.514   5.273   1.871  3.7621  0.1688 -2.0090
  107MOL0     H14116   9.689   5.429   1.734  1.8790 -0.8463  1.8441
  107MOL0     H14117   9.589   5.563   1.783  1.0512  1.1394  3.3572
  107MOL0     H14118   9.741   5.385   1.994  0.4355 -1.1890 -3.7551
  107MOL0     H14119   9.629   5.515   2.025 -0.4555  0.0498  0.2042
  107MOL0     H14120   9.764   5.675   1.916 -2.0684 -0.1493  0.2739
  107MOL0     H14121   9.851   5.598   2.046 -2.9680 -1.6870  0.5601
  107MOL0     H14122  10.109   5.552   1.725 -0.0111  1.1374  0.7664
  107MOL0     H14123   9.155   5.407   1.804 -0.0831 -2.9482 -0.7288
  107MOL0     H14124   8.976   5.310   1.913  0.6578 -1.0245 -2.8547
  108MOL0     O14125   6.657   8.268   5.655  0.3176  0.6418 -0.1740
  108MOL0     C14126   6.738   8.188   5.694 -0.2964  0.1695 -0.3488
  108MOL0     O14127   6.757   8.162   5.826 -0.0552  0.5215 -0.3789
  108MOL0     C14128   6.683   8.218   5.924  0.6942  0.4182  0.2255
  108MOL0     C14129   6.749   8.225   6.044  1.1512 -0.0275 -0.1340
  108MOL0     C14130   6.697   8.282   6.156 -0.1517 -0.1082 -0.4615
  108MOL0     C14131   6.565   8.333   6.158  0.2590 -0.1675 -1.1056
  108MOL0     O14132   6.508   8.389   6.274 -0.4518 -0.1347 -0.0745
  108MOL0     C14133   6.408   8.315   6.347 -0.7525 -0.8993  0.7214
  108MOL0     C14134   6.363   8.401   6.468  0.8821  0.7223 -0.3284
  108MOL0     C14135   6.292   8.532   6.433  0.2119 -0.0315 -0.1836
  108MOL0     C14136   6.282   8.639   6.562 -0.7958  0.8402 -0.3248
  108MOL0     C14137   6.188   8.582   6.660  1.0607  0.1846 -0.5596
  108MOL0     C14138   6.099   8.694   6.713  0.1579  0.4750 -0.1202
  108MOL0     C14139   6.157   8.786   6.817  0.5482  0.4799 -0.9380
  108MOL0     C14140   6.088   8.923   6.822  0.1019  0.1221  0.1822
  108MOL0     N14141   5.951   8.921   6.865  0.4764 -0.8033 -0.1980
  108MOL0     C14142   5.857   9.013   6.824 -0.7411  0.4843  0.7862
  108MOL0     C14143   5.753   8.993   6.900  0.3751  0.2914  0.2041
  108MOL0     C14144   5.620   9.071   6.917  0.8849 -0.0530  0.1930
  108MOL0     C14145   5.648   9.182   7.027 -0.9764  0.2056 -0.5537
  108MOL0     C14146   5.654   9.135   7.175  0.2773 -0.2414  0.1613
  108MOL0     C14147   5.506   9.119   7.224  0.6206 -0.7338  0.4162
  108MOL0     O14148   5.429   9.243   7.204 -0.0655 -0.8715  0.9194
  108MOL0     C14149   5.303   9.247   7.260 -0.4416  0.4238 -0.0972
  108MOL0     C14150   5.237   9.135   7.322  0.6700 -0.5213 -0.6422
  108MOL0     C14151   5.106   9.159   7.373  0.4871 -0.2139 -0.2131
  108MOL0     C14152   5.039   9.282   7.360  0.4959 -1.4983 -0.0948
  108MOL0     C14153   4.890   9.288   7.395 -0.1734  0.5001  0.2373
  108MOL0     O14154   4.822   9.176   7.428 -0.1751  0.5879  0.3913
  108MOL0     C14155   4.684   9.195   7.435 -0.1130 -0.2770 -0.1970
  108MOL0     C14156   4.632   9.190   7.563  0.1821 -1.1543 -0.3275
  108MOL0     C14157   4.494   9.184   7.586 -0.0403  0.5458  0.9448
  108MOL0     C14158   4.404   9.190   7.481 -0.3459 -0.0270  1.1955
  108MOL0     O14159   4.268   9.188   7.488 -0.0850 -0.8468  0.0199
  108MOL0     C14160   4.221   9.100   7.591  0.1067  1.1630 -0.5946
  108MOL0     C14161   4.066   9.079   7.569 -0.2552 -0.2088 -0.0168
  108MOL0     C14162   4.009   8.973   7.672  0.5263 -0.3449  0.1109
  108MOL0     C14163   3.856   8.955   7.664 -0.2683  0.3753 -0.0292
  108MOL0     C14164   3.774   9.060   7.733  0.3060 -0.5403 -0.2485
  108MOL0     C14165   3.631   9.005   7.744 -1.3738  0.1362 -0.9289
  108MOL0     C14166   3.537   9.122   7.773 -0.0756  0.7703 -0.0943
  108MOL0     C14167   3.401   9.056   7.806  0.0200 -0.2065 -0.2272
  108MOL0    Cl14168   3.281   9.183   7.809  0.3662 -0.4864 -0.4137
  108MOL0     C14169   4.458   9.194   7.343 -0.2170 -0.4783  0.1253
  108MOL0     C14170   4.597   9.190   7.326 -0.2045 -0.4570  0.3400
  108MOL0     O14171   4.847   9.402   7.379  0.5472  0.1674  0.1712
  108MOL0     C14172   5.097   9.381   7.280  0.3055 -0.0703 -0.4088
  108MOL0     C14173   5.230   9.365   7.241  0.2414 -0.5220 -0.1606
  108MOL0     N14174   5.780   8.884   6.981 -0.4978 -0.9678 -0.1586
  108MOL0     N14175   5.896   8.842   6.957 -0.5650 -0.2063 -0.0704
  108MOL0     C14176   6.489   8.320   6.048 -0.8588  0.1598  0.7952
  108MOL0     C14177   6.547   8.262   5.925  0.6774 -0.5373  0.6594
  108MOL0     C14178   6.819   8.120   5.594  0.5646 -0.3668  1.2023
  108MOL0     C14179   6.903   8.017   5.628 -0.4713  0.2041 -0.4435
  108MOL0     C14180   6.993   7.973   5.527  0.8941 -0.8487 -0.2277
  108MOL0     C14181   6.992   8.016   5.396  0.0250  0.1822 -0.5807
  108MOL0     O14182   7.086   7.958   5.320 -0.5168 -0.1880 -0.1291
  108MOL0     C14183   7.106   8.003   5.184  0.0806 -0.2056  0.2067
  108MOL0     C14184   7.258   8.047   5.184 -0.1380 -1.1178 -0.0647
  108MOL0     C14185   7.294   8.196   5.199 -0.4735 -0.1562 -0.4550
  108MOL0     C14186   7.203   8.303   5.144 -0.7169  0.4419  0.6364
  108MOL0     C14187   7.197   8.297   5.001 -0.4200  0.5239 -0.6115
  108MOL0     C14188   7.168   8.295   4.886 -0.3376 -0.3725  1.0182
  108MOL0     C14189   6.886   8.099   5.357  0.0711  0.3256 -0.5868
  108MOL0     C14190   6.805   8.162   5.459 -0.1722  0.4966 -0.2196
  108MOL0     H14191   6.847   8.179   6.053  0.9819 -0.0675  2.4069
  108MOL0     H14192   6.772   8.301   6.232 -2.1044 -1.0804  1.8193
  108MOL0     H14193   6.447   8.221   6.387  3.2447 -0.7887 -2.2870
  108MOL0     H14194   6.328   8.293   6.276 -0.2088  0.1012 -0.2323
  108MOL0     H14195   6.455   8.420   6.525  0.5345 -3.1158  1.8839
  108MOL0     H14196   6.310   8.335   6.538  0.6158  0.8407 -0.4185
  108MOL0     H14197   6.194   8.527   6.385 -0.6769  0.0853  1.5769
  108MOL0     H14198   6.343   8.570   6.343 -0.3236 -2.6659 -1.6797
  108MOL0     H14199   6.376   8.664   6.611 -0.9090  1.2300 -0.3032
  108MOL0     H14200   6.236   8.732   6.526  1.7834  1.6676 -1.7654
  108MOL0     H14201   6.223   8.510   6.735 -3.4709 -1.3968  0.3628
  108MOL0     H14202   6.113   8.529   6.600 -0.2799  1.3384  0.0355
  108MOL0     H14203   6.028   8.645   6.780  0.6013  0.4320  0.3301
  108MOL0     H14204   6.049   8.749   6.633  1.3089  0.8813 -0.5905
  108MOL0     H14205   6.160   8.721   6.905 -0.1454  0.9478 -0.5589
  108MOL0     H14206   6.260   8.811   6.791  1.2318  0.6983  1.7115
  108MOL0     H14207   6.097   8.966   6.722  0.5015  0.5754  0.4099
  108MOL0     H14208   6.141   8.980   6.899  1.9907 -0.2373 -0.7998
  108MOL0     H14209   5.879   9.084   6.745  0.2427 -2.4087 -1.7374
  108MOL0     H14210   5.540   9.009   6.959  0.6747  0.9283  1.2952
  108MOL0     H14211   5.585   9.117   6.824 -1.7644 -2.3000 -0.0304
  108MOL0     H14212   5.574   9.262   7.022  0.9408  2.2878  1.8134
  108MOL0     H14213   5.737   9.241   7.004  0.0609 -1.4562 -1.0197
  108MOL0     H14214   5.701   9.037   7.187  1.0880  0.2591  1.2643
  108MOL0     H14215   5.707   9.206   7.239 -3.2072  1.1354  1.7810
  108MOL0     H14216   5.510   9.083   7.327 -2.1331 -0.4659  0.6879
  108MOL0     H14217   5.473   9.032   7.166 -1.5417  1.3009 -1.6292
  108MOL0     H14218   5.276   9.034   7.334 -2.6546 -1.6445  2.2083
  108MOL0     H14219   5.056   9.080   7.428 -0.2875  0.2159 -0.2805
  108MOL0     H14220   4.687   9.179   7.655 -1.8778 -2.3537  0.8268
  108MOL0     H14221   4.452   9.171   7.685  0.5044 -0.7829  1.0258
  108MOL0     H14222   4.241   9.144   7.689  0.4549  2.7312 -1.3364
  108MOL0     H14223   4.272   9.003   7.587  0.4263  1.3608 -2.4154
  108MOL0     H14224   4.064   9.048   7.465  2.3396 -2.0541  0.3866
  108MOL0     H14225   4.016   9.172   7.600 -2.6878 -1.4028 -0.1198
  108MOL0     H14226   4.054   8.986   7.771  0.9270 -1.6853  0.1183
  108MOL0     H14227   4.047   8.876   7.639  0.3169 -0.3920  0.0083
  108MOL0     H14228   3.843   8.958   7.555  1.8490 -0.7210 -0.3733
  108MOL0     H14229   3.824   8.855   7.694 -0.1675  1.1368  2.8309
  108MOL0     H14230   3.774   9.158   7.684 -1.5627 -0.7525 -0.7516
  108MOL0     H14231   3.806   9.077   7.836  1.7479  1.0882 -0.9172
  108MOL0     H14232   3.620   8.927   7.819 -0.8256  0.2320 -0.7481
  108MOL0     H14233   3.587   8.960   7.654 -2.6619 -2.5207  0.9096
  108MOL0     H14234   3.573   9.181   7.858 -0.3669 -1.7609  1.9132
  108MOL0     H14235   3.530   9.188   7.686 -0.1509  0.0179 -0.6635
  108MOL0     H14236   3.416   9.014   7.906  2.2315  2.4139  0.6764
  108MOL0     H14237   3.367   8.972   7.744  0.8754 -0.8039  0.0902
  108MOL0     H14238   4.391   9.185   7.259  1.2013  1.8069 -1.3887
  108MOL0     H14239   4.642   9.167   7.230 -2.1799  2.4433 -1.4396
  108MOL0     H14240   5.042   9.472   7.256 -2.0698 -0.1291  3.8289
  108MOL0     H14241   5.271   9.452   7.190 -0.7044  1.3049  1.9963
  108MOL0     H14242   6.389   8.359   6.039 -1.6620 -1.8850  0.3401
  108MOL0     H14243   6.480   8.240   5.842  0.3799 -3.1896  1.5030
  108MOL0     H14244   6.922   7.976   5.727  3.0250  0.1278 -1.0180
  108MOL0     H14245   7.067   7.903   5.563 -2.4186 -4.2377  0.5719
  108MOL0     H14246   7.047   8.091   5.157 -1.3482 -0.3300  2.5843
  108MOL0     H14247   7.092   7.918   5.116  1.0974  0.4202 -0.8106
  108MOL0     H14248   7.309   8.001   5.268 -0.3461 -1.1222  0.0592
  108MOL0     H14249   7.302   8.015   5.089 -0.5706 -1.7151 -0.0725
  108MOL0     H14250   7.395   8.204   5.157  0.0331 -0.5463  0.6525
  108MOL0     H14251   7.309   8.214   5.306  0.5848 -0.0179 -0.6113
  108MOL0     H14252   7.106   8.284   5.191 -0.0509 -0.1121  1.8602
  108MOL0     H14253   7.245   8.398   5.179 -0.4395  0.0278  1.4498
  108MOL0     H14254   7.135   8.286   4.785  2.6771  3.2206 -0.5204
  108MOL0     H14255   6.871   8.125   5.252  2.3952  0.9142 -0.8247
  108MOL0     H14256   6.740   8.242   5.424 -0.4833  0.7983  1.0108
  109MOL0     O14257   9.868   4.850   8.157 -0.0585 -0.1889  0.2492
  109MOL0     C14258   9.942   4.781   8.226  0.5559  0.0253  0.2534
  109MOL0     O14259   9.904   4.699   8.327  0.4118  0.5738  0.4061
  109MOL0     C14260   9.766   4.692   8.347  0.2959  0.5534 -0.4043
  109MOL0     C14261   9.676   4.653   8.246 -0.0190  0.0664  0.2131
  109MOL0     C14262   9.543   4.620   8.280 -1.1930  0.2168 -0.1105
  109MOL0     C14263   9.501   4.624   8.411 -0.0812  0.4016  0.6748
  109MOL0     O14264   9.363   4.601   8.436 -0.7014 -0.8707  0.3797
  109MOL0     C14265   9.278   4.714   8.417  0.3896  0.6096 -0.2026
  109MOL0     C14266   9.153   4.716   8.508  0.5683  0.7389 -0.2648
  109MOL0     C14267   9.191   4.756   8.653 -0.0309 -0.1427 -0.2669
  109MOL0     C14268   9.060   4.773   8.745 -0.0861  0.2088  0.0842
  109MOL0     C14269   9.094   4.763   8.889  0.1443 -0.5281 -0.6068
  109MOL0     C14270   8.967   4.751   8.974 -0.4176  0.3969  0.1584
  109MOL0     C14271   8.852   4.838   8.934 -0.4055 -0.1068 -0.1593
  109MOL0     C14272   8.870   4.986   8.931  0.5181 -0.1812 -0.6092
  109MOL0     N14273   8.913   5.037   9.064 -0.7222 -0.2582 -0.4670
  109MOL0     C14274   8.843   5.078   9.181 -0.1253  0.7569  0.2863
  109MOL0     C14275   8.933   5.132   9.264 -0.7250  0.1628 -0.2700
  109MOL0     C14276   8.922   5.178   9.408  0.1781 -0.5875 -0.3041
  109MOL0     C14277   8.986   5.312   9.436 -0.8200  0.2414 -0.9234
  109MOL0     C14278   8.942   5.367   9.574 -0.7875 -0.5353  0.5461
  109MOL0     C14279   8.996   5.510   9.601 -0.9024  0.8125  0.8727
  109MOL0     O14280   8.895   5.597   9.536 -0.8437  0.7663 -0.2074
  109MOL0     C14281   8.804   5.657   9.618  0.0715  0.5528 -0.7860
  109MOL0     C14282   8.754   5.783   9.588  1.4425 -0.1064  0.3858
  109MOL0     C14283   8.664   5.850   9.668 -1.2673 -0.5406 -0.8955
  109MOL0     C14284   8.627   5.793   9.785  0.0489  0.6400  0.4757
  109MOL0     C14285   8.511   5.851   9.861 -0.1555  1.0373  0.0046
  109MOL0     O14286   8.444   5.966   9.817  0.4371  0.6822  0.6213
  109MOL0     C14287   8.339   6.009   9.895 -0.2688  0.8868  0.4090
  109MOL0     C14288   8.205   5.993   9.858 -0.0825  0.6802  0.9190
  109MOL0     C14289   8.109   6.031   9.950  0.5160 -0.4764  0.6370
  109MOL0     C14290   8.129   6.110  10.061  0.4751 -0.1257  0.0362
  109MOL0     O14291   8.024   6.162  10.132 -0.7679 -0.5847 -0.0341
  109MOL0     C14292   8.055   6.226  10.253  0.1969 -0.6515 -0.7993
  109MOL0     C14293   7.929   6.294  10.293  0.9354 -0.3093 -1.0439
  109MOL0     C14294   7.945   6.415  10.382  1.0157 -0.2674 -0.7164
  109MOL0     C14295   7.946   6.366  10.527 -0.6484 -0.5038  0.3651
  109MOL0     C14296   8.001   6.472  10.627 -0.6289 -0.8054 -0.5551
  109MOL0     C14297   7.940   6.442  10.771  0.6956 -0.2964 -0.7107
  109MOL0     C14298   8.002   6.544  10.862 -1.3819  0.4893  0.7594
  109MOL0     C14299   8.146   6.506  10.918  0.0607 -1.0720  0.2188
  109MOL0    Cl14300   8.236   6.666  10.933  0.3049  0.1809  0.0246
  109MOL0     C14301   8.271   6.133  10.086 -0.0167  0.0032  0.2447
  109MOL0     C14302   8.370   6.089  10.001  0.8149 -0.3066  0.5838
  109MOL0     O14303   8.480   5.784   9.964 -0.2180 -0.5747 -0.5206
  109MOL0     C14304   8.678   5.669   9.824 -1.3302 -0.3865 -1.0588
  109MOL0     C14305   8.767   5.602   9.747  0.0349 -0.6598  0.4280
  109MOL0     N14306   9.057   5.105   9.208  0.5304 -0.2322 -0.2495
  109MOL0     N14307   9.046   5.059   9.093  0.3280 -0.2964  0.1101
  109MOL0     C14308   9.585   4.672   8.509 -0.3789 -0.0534  0.1100
  109MOL0     C14309   9.722   4.707   8.478 -0.2462  0.4313 -0.2091
  109MOL0     C14310  10.085   4.763   8.195 -0.5911 -0.3293  1.1239
  109MOL0     C14311  10.142   4.856   8.108 -0.6544  0.4234  0.1318
  109MOL0     C14312  10.275   4.845   8.060 -0.5807  0.5204  0.1756
  109MOL0     C14313  10.360   4.738   8.103  0.3851  0.1761 -0.9232
  109MOL0     O14314  10.483   4.707   8.075 -0.1294 -0.0944  0.3015
  109MOL0     C14315  10.567   4.814   8.025 -0.2745 -0.5572  0.2867
  109MOL0     C14316  10.710   4.760   8.011 -0.6477  0.4968 -0.0873
  109MOL0     C14317  10.719   4.670   7.885  0.3623  0.7755  0.9423
  109MOL0     C14318  10.862   4.624   7.861  1.0332  0.0793  0.3161
  109MOL0     C14319  10.882   4.552   7.729  0.3970 -0.5501  1.1613
  109MOL0     C14320  10.910   4.502   7.624  0.3739 -0.2850 -0.0544
  109MOL0     C14321  10.299   4.641   8.197 -0.6293 -0.6586 -0.4161
  109MOL0     C14322  10.169   4.657   8.236  0.8138  0.5478  0.3034
  109MOL0     H14323   9.711   4.642   8.143 -0.5084 -1.7404  0.2205
  109MOL0     H14324   9.465   4.603   8.206 -1.2063 -0.7549  0.1181
  109MOL0     H14325   9.235   4.713   8.317  2.8175  2.4456 -1.3595
  109MOL0     H14326   9.345   4.800   8.423  0.2838  0.7315 -0.7512
  109MOL0     H14327   9.116   4.614   8.515 -3.1952  1.6731 -2.9655
  109MOL0     H14328   9.064   4.775   8.481 -1.3501 -1.4852  0.8773
  109MOL0     H14329   9.270   4.830   8.665  2.3048 -2.5484  0.2962
  109MOL0     H14330   9.247   4.663   8.669 -0.6598 -1.5138 -4.6157
  109MOL0     H14331   9.030   4.878   8.735  0.2041  0.6340  2.8671
  109MOL0     H14332   8.981   4.704   8.716  1.0003 -1.0779  0.0793
  109MOL0     H14333   9.156   4.851   8.913  2.1254 -2.3745  1.5016
  109MOL0     H14334   9.152   4.672   8.905 -1.5589 -1.7883 -1.3772
  109MOL0     H14335   9.003   4.780   9.074  0.7991 -0.2195 -0.0809
  109MOL0     H14336   8.933   4.648   8.970  0.0125  0.2780 -0.5227
  109MOL0     H14337   8.813   4.819   8.834  2.4395  2.4886 -1.9638
  109MOL0     H14338   8.769   4.819   9.002  2.9995  0.6959  4.7810
  109MOL0     H14339   8.774   5.035   8.912  0.1088  0.0819  1.7465
  109MOL0     H14340   8.944   5.015   8.856 -0.5547  1.7851 -0.9769
  109MOL0     H14341   8.735   5.081   9.192 -0.2711 -1.0429 -0.3512
  109MOL0     H14342   8.965   5.104   9.476 -1.3889 -1.6811 -0.4587
  109MOL0     H14343   8.818   5.196   9.436  0.5861 -1.4398  1.9693
  109MOL0     H14344   8.967   5.378   9.351 -1.2082 -0.9981 -1.8250
  109MOL0     H14345   9.094   5.296   9.444 -0.6449  1.0735 -1.5165
  109MOL0     H14346   8.833   5.372   9.573 -0.8469 -1.5427 -0.9375
  109MOL0     H14347   8.957   5.296   9.656  1.3686 -2.1463 -1.1342
  109MOL0     H14348   9.092   5.513   9.549 -0.2995  1.0561  1.9701
  109MOL0     H14349   9.018   5.532   9.706 -0.7832  0.6970  0.8708
  109MOL0     H14350   8.786   5.814   9.489  1.7064  1.8341  1.0135
  109MOL0     H14351   8.618   5.941   9.632 -0.4014  0.3402  0.1598
  109MOL0     H14352   8.194   5.942   9.763  2.1337 -0.5860  1.2648
  109MOL0     H14353   8.005   6.017   9.924  0.6196  1.9846 -1.6120
  109MOL0     H14354   8.132   6.303  10.236 -3.6643  3.2263 -2.6374
  109MOL0     H14355   8.097   6.168  10.335  0.5662  0.1317 -0.4255
  109MOL0     H14356   7.852   6.234  10.342  0.2057  0.2981 -1.4142
  109MOL0     H14357   7.871   6.323  10.205  1.7763  1.8879 -0.9301
  109MOL0     H14358   7.856   6.478  10.374  2.8920  2.4200 -1.4661
  109MOL0     H14359   8.034   6.471  10.355  2.0867 -1.3737  0.3936
  109MOL0     H14360   7.838   6.354  10.541 -0.6372 -5.8052 -1.6849
  109MOL0     H14361   7.990   6.267  10.543  3.1360  1.0258  0.5483
  109MOL0     H14362   7.978   6.576  10.602 -0.5094  0.0587  2.5649
  109MOL0     H14363   8.110   6.466  10.638 -0.7036  0.8176  1.7476
  109MOL0     H14364   7.965   6.337  10.789  0.1542  0.0207  2.5188
  109MOL0     H14365   7.832   6.451  10.777  0.5111  0.3592 -3.6074
  109MOL0     H14366   8.021   6.640  10.813 -1.0796  0.3648  0.6336
  109MOL0     H14367   7.935   6.565  10.946  1.1102  0.7560  2.7777
  109MOL0     H14368   8.200   6.439  10.850  1.6116  0.6253 -0.2844
  109MOL0     H14369   8.136   6.451  11.012  0.4338  1.0776  1.5754
  109MOL0     H14370   8.307   6.182  10.175 -1.6443  0.3765  0.7391
  109MOL0     H14371   8.469   6.122  10.031  0.8843  3.3440 -2.8734
  109MOL0     H14372   8.649   5.618   9.915  1.2665 -2.5665 -1.3122
  109MOL0     H14373   8.773   5.495   9.767 -0.4174 -0.8677 -0.4820
  109MOL0     H14374   9.529   4.683   8.602 -1.9793 -2.4884 -0.4693
  109MOL0     H14375   9.793   4.732   8.556  2.2866 -0.8749 -1.9588
  109MOL0     H14376  10.076   4.933   8.068  0.3675  0.7117 -1.0665
  109MOL0     H14377  10.309   4.911   7.980 -0.3255 -1.7295 -1.6805
  109MOL0     H14378  10.564   4.902   8.090  5.1825  0.5928 -0.5662
  109MOL0     H14379  10.542   4.853   7.926 -1.4054 -1.6294  0.1156
  109MOL0     H14380  10.769   4.851   8.000  1.4015 -0.7768 -0.0885
  109MOL0     H14381  10.745   4.710   8.101  0.0515  1.8438  0.4112
  109MOL0     H14382  10.677   4.715   7.795 -0.5074  1.9688  1.9132
  109MOL0     H14383  10.660   4.581   7.911 -2.3380  1.7283 -1.4357
  109MOL0     H14384  10.935   4.705   7.868  2.9982 -1.5783  0.0924
  109MOL0     H14385  10.886   4.553   7.940  0.2434 -0.6182 -0.0545
  109MOL0     H14386  10.933   4.457   7.529  1.5936 -0.0556  0.1105
  109MOL0     H14387  10.365   4.558   8.219  1.8198  0.0340 -4.2986
  109MOL0     H14388  10.138   4.582   8.308 -2.9038  0.4791 -1.1449
  110MOL0     O14389   5.890  10.100   3.885 -0.3751  1.0557 -0.5674
  110MOL0     C14390   5.932  10.043   3.984 -0.2909 -0.4262  0.2228
  110MOL0     O14391   5.856   9.960   4.065  0.4051  0.6204 -0.4207
  110MOL0     C14392   5.733   9.916   4.010  1.8650  0.1056  0.2422
  110MOL0     C14393   5.719   9.876   3.873  0.1307 -0.3282 -0.7677
  110MOL0     C14394   5.595   9.831   3.817  0.6862 -0.2737 -0.0021
  110MOL0     C14395   5.474   9.843   3.886  0.7892 -0.1689  0.3062
  110MOL0     O14396   5.345   9.809   3.849 -0.6444  0.2730  0.0055
  110MOL0     C14397   5.316   9.820   3.708  0.0151  0.1541  0.2123
  110MOL0     C14398   5.195   9.742   3.670 -0.5284 -0.3404 -0.0534
  110MOL0     C14399   5.074   9.768   3.771 -0.4300 -0.4577 -0.4927
  110MOL0     C14400   4.959   9.701   3.698  0.7936 -0.4237  0.6716
  110MOL0     C14401   4.833   9.687   3.799  0.1346 -0.1252 -0.6472
  110MOL0     C14402   4.709   9.635   3.716 -1.3326  0.0470 -0.4977
  110MOL0     C14403   4.587   9.621   3.810 -0.0533 -1.5157  0.5509
  110MOL0     C14404   4.462   9.584   3.731  0.4911 -0.0713  0.4969
  110MOL0     N14405   4.335   9.572   3.807 -0.2292 -0.0431 -0.8328
  110MOL0     C14406   4.311   9.489   3.904 -1.1555 -0.6360 -0.5861
  110MOL0     C14407   4.174   9.489   3.917 -0.4056 -0.4440 -0.6573
  110MOL0     C14408   4.092   9.426   4.027 -1.0729  0.2218  0.6835
  110MOL0     C14409   4.034   9.525   4.126  0.2865  0.2025 -0.2010
  110MOL0     C14410   3.991   9.460   4.256  0.6471 -0.0585 -0.1341
  110MOL0     C14411   4.100   9.374   4.332  0.8681  0.5513 -0.9929
  110MOL0     O14412   4.213   9.460   4.358  0.4914 -0.2353 -0.9033
  110MOL0     C14413   4.344   9.432   4.325 -0.7117  0.0364  0.2497
  110MOL0     C14414   4.430   9.535   4.280 -0.2157  0.7332 -0.2716
  110MOL0     C14415   4.560   9.519   4.252 -0.2693  0.5471  0.0387
  110MOL0     C14416   4.616   9.385   4.264  0.3996  0.2427  0.2267
  110MOL0     C14417   4.760   9.366   4.225  0.3880 -0.0454 -0.7472
  110MOL0     O14418   4.822   9.456   4.135 -0.7514  0.6468 -0.3069
  110MOL0     C14419   4.954   9.439   4.100 -0.4797 -0.0503 -0.1348
  110MOL0     C14420   5.007   9.316   4.051  0.2054 -0.3448  0.1534
  110MOL0     C14421   5.146   9.298   4.015  0.5693  0.9442  0.4092
  110MOL0     C14422   5.230   9.407   4.025  0.2837 -0.0246 -0.2458
  110MOL0     O14423   5.354   9.377   3.969  0.3069  0.6114  0.0143
  110MOL0     C14424   5.461   9.478   3.957  1.2006 -0.4489  0.0245
  110MOL0     C14425   5.549   9.433   3.844 -0.7805  0.6851  0.1743
  110MOL0     C14426   5.483   9.412   3.712  0.0410 -0.1894 -0.1138
  110MOL0     C14427   5.588   9.425   3.601  0.3675  0.7157 -0.7587
  110MOL0     C14428   5.540   9.373   3.463  0.2029  0.1774 -0.4993
  110MOL0     C14429   5.495   9.486   3.378 -0.4666 -0.4980 -0.1618
  110MOL0     C14430   5.528   9.449   3.233 -0.0949  0.3446 -0.0496
  110MOL0     C14431   5.422   9.373   3.157 -0.4088  0.6670  0.1435
  110MOL0    Cl14432   5.317   9.473   3.074  0.0502 -0.1189 -0.6479
  110MOL0     C14433   5.180   9.524   4.079  1.5404 -0.3629 -0.3301
  110MOL0     C14434   5.045   9.547   4.113 -0.0461 -0.0698 -0.1802
  110MOL0     O14435   4.814   9.276   4.287 -0.1181 -0.6670  0.2401
  110MOL0     C14436   4.536   9.283   4.310 -0.1419 -0.3351 -0.1594
  110MOL0     C14437   4.404   9.310   4.343 -0.3513 -0.6242  0.4947
  110MOL0     N14438   4.130   9.579   3.824  0.6249 -0.4709  0.8526
  110MOL0     N14439   4.225   9.632   3.762 -0.4056  0.0624 -0.0971
  110MOL0     C14440   5.483   9.879   4.016  0.4203  0.7610 -0.2141
  110MOL0     C14441   5.609   9.913   4.082  0.2010 -0.8594  0.5526
  110MOL0     C14442   6.076  10.048   4.020  1.5924  0.2142  0.1584
  110MOL0     C14443   6.123   9.974   4.119 -0.2542 -0.4584 -0.1996
  110MOL0     C14444   6.250   9.996   4.161  0.1620  0.5273  0.5290
  110MOL0     C14445   6.333  10.095   4.103 -0.2589 -0.3476  0.3747
  110MOL0     O14446   6.468  10.121   4.146  0.2219  1.0438 -0.6355
  110MOL0     C14447   6.556  10.034   4.226 -0.1974 -0.1459 -0.2000
  110MOL0     C14448   6.611  10.113   4.342  0.2830  0.6360  0.4405
  110MOL0     C14449   6.500  10.182   4.426  0.0710  0.0511  0.8164
  110MOL0     C14450   6.521  10.171   4.574  0.1153 -0.1084 -0.1592
  110MOL0     C14451   6.654  10.221   4.621  0.0703 -0.2597  1.4875
  110MOL0     C14452   6.767  10.263   4.661  0.6085 -0.3223  0.8852
  110MOL0     C14453   6.285  10.175   3.999  0.7956 -0.4968  0.3545
  110MOL0     C14454   6.152  10.149   3.958 -0.2979 -0.8036  0.4138
  110MOL0     H14455   5.809   9.881   3.813  1.3520 -1.6666  0.8627
  110MOL0     H14456   5.604   9.788   3.718  0.3383 -2.6771  0.9352
  110MOL0     H14457   5.404   9.776   3.661 -1.1604 -1.8948 -0.1679
  110MOL0     H14458   5.312   9.928   3.689  2.3396  0.3057  0.3013
  110MOL0     H14459   5.217   9.635   3.673 -1.4597 -0.7464 -3.4536
  110MOL0     H14460   5.172   9.757   3.564 -1.0045 -0.4961  0.0238
  110MOL0     H14461   5.056   9.874   3.786 -0.2159 -0.5339  0.3468
  110MOL0     H14462   5.099   9.724   3.868 -1.0538  1.7119  0.7192
  110MOL0     H14463   4.917   9.766   3.621 -1.1999  1.7266  3.3600
  110MOL0     H14464   4.983   9.601   3.663 -1.7040 -0.1299 -2.3592
  110MOL0     H14465   4.808   9.780   3.851 -2.5030 -1.5962  0.9258
  110MOL0     H14466   4.858   9.623   3.884  1.7679 -0.3853 -1.2846
  110MOL0     H14467   4.730   9.538   3.670  0.0110  0.5005 -0.8998
  110MOL0     H14468   4.675   9.715   3.649  2.1782  2.5700  0.3812
  110MOL0     H14469   4.608   9.551   3.892 -0.8230 -2.5186 -0.0929
  110MOL0     H14470   4.552   9.717   3.848 -1.3293 -1.1038 -1.5677
  110MOL0     H14471   4.471   9.486   3.682 -1.2958  0.9130 -1.9701
  110MOL0     H14472   4.461   9.661   3.653  2.4522  0.3248  0.8126
  110MOL0     H14473   4.383   9.443   3.971 -0.3978  1.7137  0.3052
  110MOL0     H14474   4.164   9.370   4.088 -0.6556 -0.5469 -0.4867
  110MOL0     H14475   4.018   9.359   3.984  0.5519 -1.0563 -0.2641
  110MOL0     H14476   3.950   9.585   4.088  0.6438  0.9465  0.1714
  110MOL0     H14477   4.116   9.590   4.156  2.8768 -1.9934 -2.0793
  110MOL0     H14478   3.951   9.539   4.319  1.3082 -0.2135  0.4802
  110MOL0     H14479   3.906   9.394   4.233  1.8591 -0.8528 -2.7123
  110MOL0     H14480   4.134   9.286   4.277  3.4070  0.5640  0.4377
  110MOL0     H14481   4.057   9.336   4.426  1.4522 -0.2172 -1.0305
  110MOL0     H14482   4.395   9.638   4.285  0.3164  1.0725 -2.4085
  110MOL0     H14483   4.618   9.608   4.229 -2.1491  1.7161 -0.3882
  110MOL0     H14484   4.942   9.230   4.036 -0.9049  0.4427  0.3188
  110MOL0     H14485   5.187   9.206   3.973  0.5408 -0.1794  2.7083
  110MOL0     H14486   5.516   9.495   4.050  1.2710 -0.5086 -0.0058
  110MOL0     H14487   5.411   9.571   3.929  0.9604 -0.2610  1.0373
  110MOL0     H14488   5.604   9.344   3.876  1.4955  1.5150 -1.1682
  110MOL0     H14489   5.626   9.511   3.845  0.5657 -0.5279 -1.6757
  110MOL0     H14490   5.400   9.480   3.691  1.0148  1.2191  0.4348
  110MOL0     H14491   5.440   9.312   3.714  1.0572 -0.6899 -1.6409
  110MOL0     H14492   5.618   9.528   3.581  1.0677  0.1514 -2.8916
  110MOL0     H14493   5.680   9.373   3.630 -0.4388 -0.5367 -0.3696
  110MOL0     H14494   5.456   9.303   3.475 -1.8994  2.3323 -1.7433
  110MOL0     H14495   5.629   9.319   3.430 -0.2567 -0.1499 -1.2417
  110MOL0     H14496   5.552   9.575   3.406 -0.7363 -1.2810  3.3293
  110MOL0     H14497   5.388   9.503   3.396 -0.4438 -1.8801  1.5823
  110MOL0     H14498   5.542   9.546   3.186 -0.5241  2.1093  3.1392
  110MOL0     H14499   5.624   9.397   3.234  0.2448  0.6812  4.1359
  110MOL0     H14500   5.370   9.305   3.226  0.4497  1.0752  1.2220
  110MOL0     H14501   5.465   9.307   3.081 -0.4477 -0.2084  0.8585
  110MOL0     H14502   5.251   9.603   4.101 -0.5423  1.1775  1.3922
  110MOL0     H14503   5.019   9.642   4.159 -1.5445 -1.3157  1.7027
  110MOL0     H14504   4.569   9.180   4.315  2.6998  0.4898 -0.2096
  110MOL0     H14505   4.339   9.236   4.390  1.2022 -1.1734  1.8542
  110MOL0     H14506   5.390   9.898   4.069 -0.9065  1.1728 -2.5675
  110MOL0     H14507   5.618   9.945   4.186 -0.5604 -3.3891  1.4841
  110MOL0     H14508   6.068   9.899   4.175 -0.6547  1.6694  2.4713
  110MOL0     H14509   6.286   9.942   4.248 -0.0529 -0.6005 -0.0635
  110MOL0     H14510   6.641  10.010   4.161  0.5553  0.4722  0.5422
  110MOL0     H14511   6.506   9.942   4.258 -0.9378 -0.5442 -2.3064
  110MOL0     H14512   6.674  10.048   4.402 -0.2357 -2.1265 -1.7962
  110MOL0     H14513   6.682  10.193   4.318  0.0014  0.8235  0.2119
  110MOL0     H14514   6.404  10.131   4.411 -0.6115  1.6984 -0.7220
  110MOL0     H14515   6.497  10.289   4.406 -2.5600 -0.5977 -3.4791
  110MOL0     H14516   6.434  10.209   4.629 -1.0827 -3.7727  0.7546
  110MOL0     H14517   6.521  10.066   4.603  1.9788  0.5781  2.6432
  110MOL0     H14518   6.865  10.298   4.685  0.1975  1.5414  0.0240
  110MOL0     H14519   6.352  10.253   3.966 -0.5846  1.1518  1.2896
  110MOL0     H14520   6.107  10.225   3.895 -1.8468  0.4099  2.7933
  111MOL0     O14521   2.243   7.354   9.058 -0.2050  0.1173 -0.3146
  111MOL0     C14522   2.162   7.338   8.967 -0.2104  0.5076  0.2453
  111MOL0     O14523   2.185   7.269   8.856  0.2866 -0.6316  0.7800
  111MOL0     C14524   2.317   7.232   8.848  0.3606  1.4592  0.2519
  111MOL0     C14525   2.370   7.125   8.919 -0.6533 -0.7226 -0.1761
  111MOL0     C14526   2.510   7.115   8.929  0.4957 -0.0016 -0.1644
  111MOL0     C14527   2.589   7.182   8.836  0.2756 -0.2320 -0.2492
  111MOL0     O14528   2.721   7.161   8.804 -0.5948  0.0310  0.2086
  111MOL0     C14529   2.798   7.055   8.859 -0.0111  0.0051 -0.4455
  111MOL0     C14530   2.919   7.034   8.774 -0.7019 -0.1756  0.4800
  111MOL0     C14531   2.890   7.030   8.631 -0.3069  0.4624  1.4687
  111MOL0     C14532   3.009   6.964   8.562  0.4262  0.2164  0.4325
  111MOL0     C14533   2.992   6.978   8.413  0.4568 -0.0485 -0.7792
  111MOL0     C14534   3.090   6.897   8.334  0.1869 -0.1282 -0.2294
  111MOL0     C14535   3.057   6.926   8.187  0.5869  0.2773  0.3968
  111MOL0     C14536   3.087   6.808   8.093  1.2661  0.5027 -1.0993
  111MOL0     N14537   3.227   6.778   8.072  0.4143  0.0013 -0.1356
  111MOL0     C14538   3.307   6.805   7.958 -0.5161  0.3594 -0.9404
  111MOL0     C14539   3.416   6.711   7.969  1.0768  0.2577 -0.6765
  111MOL0     C14540   3.493   6.677   7.843  0.0344  0.5087 -0.2599
  111MOL0     C14541   3.600   6.771   7.793  0.0607 -0.1506  0.6215
  111MOL0     C14542   3.735   6.741   7.859  0.2648  0.4070 -0.4426
  111MOL0     C14543   3.850   6.802   7.772  0.4710  1.1469 -0.0044
  111MOL0     O14544   3.981   6.767   7.816  0.9373  0.5031 -0.0873
  111MOL0     C14545   4.002   6.763   7.959  0.1163  1.0036  0.1710
  111MOL0     C14546   4.054   6.646   7.999  0.7189  0.6911  0.3534
  111MOL0     C14547   4.105   6.631   8.130  0.1651 -0.0923 -0.4154
  111MOL0     C14548   4.089   6.735   8.227  0.4068  0.2616  0.4201
  111MOL0     C14549   4.118   6.709   8.372 -0.4844 -0.6327  0.7326
  111MOL0     O14550   4.075   6.810   8.460 -0.4629  0.5537 -0.2389
  111MOL0     C14551   4.099   6.793   8.595 -0.1544 -0.1633  0.8979
  111MOL0     C14552   4.201   6.866   8.655  0.0376  0.7952  1.1082
  111MOL0     C14553   4.216   6.865   8.792 -0.2612  0.8394  0.0224
  111MOL0     C14554   4.121   6.792   8.873 -0.9003  0.6366 -0.1818
  111MOL0     O14555   4.133   6.791   9.011 -0.0101 -0.7242  0.8443
  111MOL0     C14556   4.010   6.839   9.075  0.1689  0.1107 -0.1918
  111MOL0     C14557   4.043   6.862   9.222 -1.2836 -0.6594  0.6370
  111MOL0     C14558   4.150   6.961   9.248 -0.7403 -0.3932  0.0728
  111MOL0     C14559   4.121   7.047   9.368  0.1412 -0.5737  0.0417
  111MOL0     C14560   4.240   7.132   9.412 -0.1304 -0.4743 -1.1413
  111MOL0     C14561   4.200   7.186   9.556  0.3364 -0.3702 -1.2467
  111MOL0     C14562   4.158   7.341   9.554  0.3076  0.2240 -0.5250
  111MOL0     C14563   4.194   7.402   9.685  0.4962  0.8770 -0.6458
  111MOL0    Cl14564   4.077   7.363   9.813  0.1631  0.0895  0.0946
  111MOL0     C14565   4.028   6.713   8.808 -0.3921 -0.1366  0.2261
  111MOL0     C14566   4.018   6.719   8.674 -0.6689  1.1738  0.4009
  111MOL0     O14567   4.160   6.594   8.393 -0.2491 -0.3967 -0.7132
  111MOL0     C14568   4.044   6.862   8.184  0.8221 -0.3504  0.6873
  111MOL0     C14569   4.006   6.879   8.044  0.7502  0.1141 -0.4305
  111MOL0     N14570   3.400   6.642   8.094 -0.2231 -0.0256  0.2854
  111MOL0     N14571   3.291   6.684   8.147  0.4034 -0.4501  0.2251
  111MOL0     C14572   2.523   7.288   8.763  0.1465 -0.0352 -0.7881
  111MOL0     C14573   2.393   7.315   8.772  0.2108 -0.4627  1.4070
  111MOL0     C14574   2.022   7.393   8.981  0.6099  0.3462  0.3950
  111MOL0     C14575   1.975   7.472   9.092  0.5693  0.2933 -0.0076
  111MOL0     C14576   1.842   7.500   9.108  0.1924  0.7175  0.1699
  111MOL0     C14577   1.749   7.451   9.024  1.4163 -0.1918 -0.7862
  111MOL0     O14578   1.615   7.468   9.070 -0.1453  0.0405  0.7409
  111MOL0     C14579   1.553   7.582   9.007 -0.4011  0.3964  0.3330
  111MOL0     C14580   1.467   7.546   8.879  0.7711  0.1252  0.5861
  111MOL0     C14581   1.378   7.663   8.815  0.0208  0.2922  0.3337
  111MOL0     C14582   1.338   7.633   8.675 -0.1568  0.0522  0.4377
  111MOL0     C14583   1.213   7.715   8.653  0.1310 -0.9797 -0.1188
  111MOL0     C14584   1.106   7.766   8.622 -0.9156 -1.2641 -0.2193
  111MOL0     C14585   1.787   7.387   8.908  0.0402  0.0571 -0.8820
  111MOL0     C14586   1.923   7.362   8.877 -0.9440  0.1101 -0.6638
  111MOL0     H14587   2.312   7.066   8.990 -1.2151  2.3249  2.1472
  111MOL0     H14588   2.548   7.042   8.999 -1.2328 -2.0775 -1.2959
  111MOL0     H14589   2.740   6.962   8.861 -1.2768  0.7146  3.0218
  111MOL0     H14590   2.816   7.081   8.963  0.0004 -2.5993  0.2669
  111MOL0     H14591   2.979   6.945   8.797  2.3519  1.0825 -1.8245
  111MOL0     H14592   2.987   7.118   8.786  1.0390 -0.7452 -3.5616
  111MOL0     H14593   2.881   7.132   8.591 -0.9754  0.0369  0.5127
  111MOL0     H14594   2.797   6.975   8.615 -0.0679  0.0038  1.6387
  111MOL0     H14595   3.104   7.011   8.589  1.3454  0.6700 -3.1547
  111MOL0     H14596   3.004   6.855   8.577 -0.9503 -0.0293 -1.4639
  111MOL0     H14597   3.003   7.084   8.388 -2.7990  0.6165  0.2289
  111MOL0     H14598   2.887   6.955   8.394  0.5934 -1.7582  0.3555
  111MOL0     H14599   3.080   6.789   8.345 -1.4617 -0.5291 -4.1908
  111MOL0     H14600   3.185   6.947   8.355 -0.9838  3.2907 -2.2237
  111MOL0     H14601   2.953   6.961   8.178  0.5967  0.8238  2.0357
  111MOL0     H14602   3.122   7.008   8.153 -0.9235  0.6083 -1.8995
  111MOL0     H14603   3.035   6.831   7.999  2.1501 -1.3876 -2.1118
  111MOL0     H14604   3.041   6.715   8.129 -0.2730  1.5653 -0.2029
  111MOL0     H14605   3.281   6.855   7.865 -1.4823 -0.4238 -1.1169
  111MOL0     H14606   3.417   6.677   7.764 -0.2730 -1.3307 -0.0062
  111MOL0     H14607   3.535   6.576   7.846  0.2886  0.6359  1.7033
  111MOL0     H14608   3.586   6.878   7.814  3.2376  0.1474  1.6967
  111MOL0     H14609   3.613   6.759   7.686  0.4205 -0.3438  0.6872
  111MOL0     H14610   3.726   6.781   7.960  1.8847 -0.4335  0.0600
  111MOL0     H14611   3.761   6.635   7.860  4.8038  1.2400 -3.1357
  111MOL0     H14612   3.838   6.911   7.763 -0.1703  1.1039  0.2795
  111MOL0     H14613   3.841   6.752   7.675  1.7344 -1.2884  1.0762
  111MOL0     H14614   4.071   6.565   7.928  0.1131 -0.4857  1.5157
  111MOL0     H14615   4.161   6.541   8.152  2.0627  1.2817  0.7771
  111MOL0     H14616   4.271   6.909   8.583 -0.5314 -0.5225 -0.2929
  111MOL0     H14617   4.297   6.921   8.839 -2.1285  3.7999  0.0074
  111MOL0     H14618   3.935   6.761   9.060 -0.4476  0.7040 -0.2010
  111MOL0     H14619   3.975   6.938   9.044  2.2136  0.5012 -1.4221
  111MOL0     H14620   4.074   6.774   9.279 -1.1677  1.4421  4.0719
  111MOL0     H14621   3.947   6.876   9.272 -1.8920 -0.9647 -0.4038
  111MOL0     H14622   4.150   7.027   9.161 -0.0075  3.1913  2.5853
  111MOL0     H14623   4.242   6.902   9.254  0.6514  1.7000  0.5422
  111MOL0     H14624   4.030   7.109   9.369 -0.2503 -0.9111  4.2672
  111MOL0     H14625   4.097   6.977   9.448  0.1679 -1.5445 -0.7861
  111MOL0     H14626   4.274   7.209   9.341  0.7733 -0.6397 -0.8920
  111MOL0     H14627   4.321   7.064   9.436 -1.2795 -0.7147  2.5998
  111MOL0     H14628   4.286   7.174   9.624  0.0594 -2.4151 -1.2110
  111MOL0     H14629   4.116   7.132   9.600  0.7247  0.0085  0.0153
  111MOL0     H14630   4.203   7.403   9.477  1.3002  0.4073  0.1827
  111MOL0     H14631   4.051   7.332   9.536  0.5312 -1.7495 -1.1962
  111MOL0     H14632   4.189   7.512   9.688 -0.1403  0.8915  3.1128
  111MOL0     H14633   4.293   7.381   9.725 -0.5422  0.2932  1.7906
  111MOL0     H14634   3.960   6.647   8.860 -1.1770 -0.6773 -1.4045
  111MOL0     H14635   3.934   6.670   8.625 -0.4533  2.3351 -1.2169
  111MOL0     H14636   4.041   6.942   8.258  1.2881 -2.8792  3.6413
  111MOL0     H14637   3.983   6.978   8.006 -1.5532  0.6259  1.9685
  111MOL0     H14638   2.583   7.353   8.700  1.8053 -1.1559 -0.4340
  111MOL0     H14639   2.353   7.396   8.712  0.9195 -1.6247 -0.7216
  111MOL0     H14640   2.044   7.512   9.166  1.7300 -1.8637  0.1797
  111MOL0     H14641   1.820   7.568   9.190 -2.9750 -1.0871  0.9992
  111MOL0     H14642   1.619   7.667   8.985  1.0433 -0.4658  1.2305
  111MOL0     H14643   1.490   7.618   9.089 -0.3582  1.0437  0.0921
  111MOL0     H14644   1.537   7.502   8.808  0.4552 -1.3071  1.1419
  111MOL0     H14645   1.397   7.468   8.910  2.2974 -1.6919 -0.3305
  111MOL0     H14646   1.425   7.762   8.818 -0.7523  0.7183 -0.7483
  111MOL0     H14647   1.292   7.667   8.882  0.5923 -1.9960  1.3009
  111MOL0     H14648   1.421   7.661   8.610 -0.4277 -1.5568 -0.6680
  111MOL0     H14649   1.334   7.525   8.656 -1.6408  0.0516  0.6130
  111MOL0     H14650   1.024   7.820   8.579 -0.6584 -1.5447 -1.0815
  111MOL0     H14651   1.716   7.353   8.832 -1.1036 -0.9304  0.5766
  111MOL0     H14652   1.954   7.316   8.783 -1.8708 -0.4613 -0.7055
  112MOL0     O14653   8.774   6.145  10.637 -0.4146 -0.2358 -0.0611
  112MOL0     C14654   8.850   6.227  10.586  0.2874 -0.5729  0.3249
  112MOL0     O14655   8.926   6.331  10.654 -0.6411  0.6111 -0.3356
  112MOL0     C14656   8.913   6.333  10.787  0.1175  0.8700  0.2614
  112MOL0     C14657   9.011   6.267  10.862 -0.5331 -0.5849 -0.9432
  112MOL0     C14658   8.991   6.259  10.997  0.0482  0.7745 -0.3276
  112MOL0     C14659   8.876   6.300  11.070 -0.7035  0.0126  0.2038
  112MOL0     O14660   8.857   6.291  11.209  0.9106  0.1941 -0.5850
  112MOL0     C14661   8.936   6.211  11.293  0.4984  0.9520  1.2140
  112MOL0     C14662   8.915   6.055  11.269 -0.1495  0.1824 -0.3214
  112MOL0     C14663   8.763   6.023  11.272  0.7719 -0.5031  0.3901
  112MOL0     C14664   8.732   5.889  11.211 -0.6713  1.8494  0.1272
  112MOL0     C14665   8.584   5.832  11.213 -0.2100 -0.6318 -0.5073
  112MOL0     C14666   8.521   5.833  11.350  0.8844 -0.1318  0.0184
  112MOL0     C14667   8.379   5.773  11.366 -0.2700 -0.2218  0.8828
  112MOL0     C14668   8.364   5.631  11.302 -0.7921 -0.8853  0.2172
  112MOL0     N14669   8.266   5.552  11.381 -1.0046 -1.1635 -0.3991
  112MOL0     C14670   8.141   5.598  11.408 -0.7291 -1.1326  0.0777
  112MOL0     C14671   8.091   5.518  11.500  0.6897  0.9052 -0.0692
  112MOL0     C14672   7.952   5.512  11.557 -0.7444 -0.0409 -0.4225
  112MOL0     C14673   7.905   5.644  11.613  0.4135 -0.1205  0.0630
  112MOL0     C14674   7.771   5.610  11.676  0.3397  0.1007  0.4272
  112MOL0     C14675   7.673   5.557  11.576  0.8918  0.5856 -0.0404
  112MOL0     O14676   7.535   5.541  11.640 -0.3403  0.6695 -0.2452
  112MOL0     C14677   7.462   5.425  11.622  0.0571  0.7527 -0.4148
  112MOL0     C14678   7.331   5.437  11.662  0.2890  0.2840 -0.1969
  112MOL0     C14679   7.252   5.327  11.674  0.7231  0.0319  0.7874
  112MOL0     C14680   7.299   5.196  11.647  0.4479  0.5975 -0.0561
  112MOL0     C14681   7.231   5.076  11.685 -1.0150 -0.2963  0.3477
  112MOL0     O14682   7.131   5.103  11.772 -0.6404 -0.1152  0.1981
  112MOL0     C14683   7.020   5.021  11.791  0.0958 -0.1308 -0.1554
  112MOL0     C14684   6.931   5.062  11.889  0.0172  0.6935  1.3099
  112MOL0     C14685   6.825   4.979  11.944 -0.1928 -0.2595  0.4866
  112MOL0     C14686   6.803   4.853  11.889 -0.0149 -1.0162 -0.5252
  112MOL0     O14687   6.697   4.771  11.922  0.2000 -0.0220 -0.2051
  112MOL0     C14688   6.611   4.815  12.022 -0.8998 -0.2001 -0.4097
  112MOL0     C14689   6.491   4.719  12.020 -0.1695 -0.8873  0.0932
  112MOL0     C14690   6.499   4.642  12.152  0.6667  0.4535 -0.7614
  112MOL0     C14691   6.377   4.556  12.155 -0.0125  0.4191  0.2657
  112MOL0     C14692   6.388   4.478  12.290 -0.7180 -0.2043  0.5609
  112MOL0     C14693   6.271   4.378  12.304 -0.3801 -0.3883  0.5634
  112MOL0     C14694   6.294   4.296  12.431 -0.5106  0.6485 -0.9292
  112MOL0     C14695   6.174   4.194  12.434 -0.8072  0.5851  0.6431
  112MOL0    Cl14696   6.036   4.280  12.509  0.1753 -0.2968  0.1206
  112MOL0     C14697   6.881   4.812  11.792  0.0562  0.0587  0.6649
  112MOL0     C14698   6.989   4.892  11.740  0.2588  0.0962 -0.3147
  112MOL0     O14699   7.257   4.965  11.643  0.1504 -0.3355  0.3981
  112MOL0     C14700   7.428   5.180  11.604 -0.2521  0.1370  0.2435
  112MOL0     C14701   7.512   5.293  11.594  0.5424  0.0048  0.4910
  112MOL0     N14702   8.185   5.434  11.537 -0.2040 -0.1346 -0.1394
  112MOL0     N14703   8.292   5.444  11.461 -0.1135  1.4786  0.3326
  112MOL0     C14704   8.776   6.357  10.989 -0.3042 -0.1044 -0.4209
  112MOL0     C14705   8.801   6.374  10.852  0.4790  0.5343 -0.2845
  112MOL0     C14706   8.871   6.230  10.441  1.0391 -0.4594 -0.1948
  112MOL0     C14707   8.780   6.158  10.355 -0.1418 -0.0026  0.6156
  112MOL0     C14708   8.807   6.160  10.221  0.0732 -1.0088  0.3516
  112MOL0     C14709   8.908   6.234  10.162 -0.6172  0.4312  0.0996
  112MOL0     O14710   8.922   6.219  10.028  0.6961 -1.1297  0.1104
  112MOL0     C14711   8.934   6.346   9.953 -0.1055  0.6050 -1.1758
  112MOL0     C14712   8.892   6.313   9.816  0.0534  0.4227  0.1164
  112MOL0     C14713   8.992   6.220   9.743 -0.6385  0.8402  0.0848
  112MOL0     C14714   8.935   6.180   9.607  0.3298  0.0557  1.1165
  112MOL0     C14715   9.014   6.074   9.554 -0.2574 -0.2073  0.3872
  112MOL0     C14716   9.093   5.991   9.513  0.1291 -0.8003 -0.3182
  112MOL0     C14717   8.992   6.309  10.239 -0.3145  0.4329 -0.5683
  112MOL0     C14718   8.978   6.311  10.379  0.5866 -0.6385  1.2467
  112MOL0     H14719   9.092   6.221  10.805  0.2804 -1.1218  0.5975
  112MOL0     H14720   9.057   6.185  11.042 -0.0514  1.7465  1.5060
  112MOL0     H14721   8.898   6.231  11.394  1.3364 -1.5498  2.1414
  112MOL0     H14722   9.041   6.242  11.298  1.1379 -0.5154 -1.4783
  112MOL0     H14723   8.970   6.011  11.352  0.3170  0.9987 -0.1833
  112MOL0     H14724   8.963   6.032  11.173  1.5140  1.0575  0.2723
  112MOL0     H14725   8.723   6.101  11.207  1.0418 -0.6813  0.0101
  112MOL0     H14726   8.712   6.032  11.369 -0.3696 -0.3962 -0.1975
  112MOL0     H14727   8.764   5.888  11.107 -0.4432  2.2528  0.1904
  112MOL0     H14728   8.794   5.818  11.265 -1.1887 -0.9086 -2.6530
  112MOL0     H14729   8.595   5.738  11.159  3.1592 -1.6861  1.6829
  112MOL0     H14730   8.534   5.899  11.143  2.4259 -0.3059 -2.2368
  112MOL0     H14731   8.520   5.939  11.376  0.6321  0.1586 -1.1159
  112MOL0     H14732   8.580   5.767  11.414  1.7357 -3.6086 -3.9391
  112MOL0     H14733   8.350   5.766  11.471 -0.3170 -4.5562  0.7518
  112MOL0     H14734   8.309   5.839  11.314  2.2852  0.9338 -1.3285
  112MOL0     H14735   8.459   5.579  11.290 -1.8124 -2.4081 -1.9085
  112MOL0     H14736   8.341   5.645  11.196 -0.9475 -0.2269  0.3327
  112MOL0     H14737   8.087   5.684  11.370 -0.9583 -1.9256 -1.4951
  112MOL0     H14738   7.922   5.433  11.626 -2.1692 -0.2008 -1.1851
  112MOL0     H14739   7.890   5.479  11.473 -0.9597 -2.0038  0.4494
  112MOL0     H14740   7.897   5.725  11.541 -1.3976 -3.0400 -3.2962
  112MOL0     H14741   7.966   5.674  11.699  0.9091 -2.9608  0.8130
  112MOL0     H14742   7.781   5.542  11.761 -6.6852 -2.8468 -0.3811
  112MOL0     H14743   7.726   5.697  11.725  1.8463  1.2022 -0.0751
  112MOL0     H14744   7.709   5.455  11.562  2.8684  1.4336 -1.6381
  112MOL0     H14745   7.676   5.607  11.479  1.4100  0.8115  0.0879
  112MOL0     H14746   7.302   5.532  11.703 -0.6518 -0.0402 -0.1010
  112MOL0     H14747   7.151   5.342  11.712  0.7206  0.0174  0.7866
  112MOL0     H14748   6.972   5.147  11.943  1.1695 -0.4748  2.3663
  112MOL0     H14749   6.768   5.022  12.026 -1.4276 -1.4680  0.3115
  112MOL0     H14750   6.568   4.914  12.003 -0.8606  0.0385  0.6658
  112MOL0     H14751   6.666   4.805  12.116  1.1965 -0.1208 -1.5825
  112MOL0     H14752   6.500   4.651  11.935  0.8255 -0.2995 -0.2865
  112MOL0     H14753   6.396   4.773  12.019 -0.1187 -0.7201  1.4805
  112MOL0     H14754   6.506   4.715  12.234 -1.1550 -1.2204  1.0137
  112MOL0     H14755   6.591   4.583  12.159 -0.8196 -1.7947  2.3062
  112MOL0     H14756   6.286   4.617  12.156 -0.7216 -0.2515  5.4610
  112MOL0     H14757   6.376   4.480  12.077  2.2463  1.1686 -0.5644
  112MOL0     H14758   6.381   4.552  12.371  0.2909 -2.7731  3.1568
  112MOL0     H14759   6.487   4.432  12.284  0.4566  2.0292  1.4779
  112MOL0     H14760   6.276   4.309  12.220  0.1881  0.2000  0.1034
  112MOL0     H14761   6.170   4.421  12.304 -0.3231 -0.0537 -2.3272
  112MOL0     H14762   6.397   4.259  12.429 -0.6582 -0.1928  2.2132
  112MOL0     H14763   6.291   4.346  12.529  0.2802 -0.8319 -0.1238
  112MOL0     H14764   6.191   4.097  12.483  0.6770  0.8860  0.7839
  112MOL0     H14765   6.144   4.165  12.333  0.6063 -1.0353  0.6464
  112MOL0     H14766   6.876   4.711  11.751  2.9964  0.8691 -2.1075
  112MOL0     H14767   7.063   4.836  11.684  0.3001 -1.2048  0.9580
  112MOL0     H14768   7.480   5.086  11.587 -0.2164 -0.0732  1.4360
  112MOL0     H14769   7.617   5.271  11.576  0.5869  0.2860  0.4007
  112MOL0     H14770   8.681   6.393  11.027 -0.4545 -0.9166  0.0167
  112MOL0     H14771   8.716   6.417  10.801 -2.6396  0.0071  3.9341
  112MOL0     H14772   8.705   6.093  10.398 -0.3468 -0.0858  0.1477
  112MOL0     H14773   8.740   6.101  10.160 -2.2680  1.7504  0.0489
  112MOL0     H14774   9.037   6.384   9.953  0.5457 -1.0751 -1.0940
  112MOL0     H14775   8.866   6.424   9.986 -0.8869  0.8262 -3.2141
  112MOL0     H14776   8.800   6.255   9.829  1.7139 -2.4675 -0.3404
  112MOL0     H14777   8.883   6.408   9.762  0.9619  1.9586  2.5392
  112MOL0     H14778   9.022   6.129   9.795 -1.2296 -0.5661 -1.9338
  112MOL0     H14779   9.081   6.277   9.716 -0.5357 -0.0237 -1.4727
  112MOL0     H14780   8.831   6.147   9.609  0.5122 -0.8983 -1.6832
  112MOL0     H14781   8.934   6.273   9.550 -2.9401 -0.5873 -0.0964
  112MOL0     H14782   9.165   5.925   9.468  2.1301 -2.2794  4.4533
  112MOL0     H14783   9.066   6.385  10.216  0.1801  1.4166  3.5314
  112MOL0     H14784   9.047   6.374  10.434  0.9314 -1.8740  2.2671
  113MOL0     O14785   8.202   9.135   5.156  0.0529  0.4231 -0.4413
  113MOL0     C14786   8.230   9.215   5.068 -0.0008 -0.4617  0.2572
  113MOL0     O14787   8.188   9.346   5.062  0.4351  0.6237  0.8708
  113MOL0     C14788   8.087   9.386   5.142  0.8615  0.0467 -0.5396
  113MOL0     C14789   7.963   9.405   5.083 -0.1850  0.1006 -0.2882
  113MOL0     C14790   7.852   9.436   5.165 -0.4037 -0.4638 -0.4447
  113MOL0     C14791   7.875   9.440   5.304  0.2077  0.1457 -0.7429
  113MOL0     O14792   7.759   9.463   5.372  0.1764  0.0972  0.0166
  113MOL0     C14793   7.733   9.362   5.471 -0.1773  0.1400  0.3919
  113MOL0     C14794   7.596   9.384   5.547  0.3093  0.0240  0.3098
  113MOL0     C14795   7.471   9.327   5.476 -0.6935 -0.2105 -0.2758
  113MOL0     C14796   7.445   9.389   5.336 -0.7443  0.2942 -0.4368
  113MOL0     C14797   7.310   9.358   5.273  0.2967 -0.8618 -0.6263
  113MOL0     C14798   7.308   9.216   5.220 -0.6541  0.0247  0.3355
  113MOL0     C14799   7.199   9.168   5.134  0.0645  0.0143  0.9269
  113MOL0     C14800   7.060   9.187   5.178  0.8096 -0.2824  0.7572
  113MOL0     N14801   7.043   9.131   5.308  0.5201  0.0762 -0.4486
  113MOL0     C14802   7.011   9.213   5.415 -0.1558 -0.2468  0.3038
  113MOL0     C14803   7.008   9.133   5.521 -0.3915 -0.2150 -0.6396
  113MOL0     C14804   6.988   9.177   5.667 -0.2387 -0.2190  0.3131
  113MOL0     C14805   6.845   9.135   5.721 -0.4054  0.0011  0.3684
  113MOL0     C14806   6.736   9.225   5.650 -0.4256  0.3353 -0.9572
  113MOL0     C14807   6.616   9.226   5.751 -0.5799  0.0160  1.0957
  113MOL0     O14808   6.581   9.101   5.783  0.3852  0.4673 -0.7852
  113MOL0     C14809   6.462   9.084   5.861 -0.5143  0.6155 -0.2868
  113MOL0     C14810   6.449   8.969   5.939 -0.8060  0.5516 -0.6300
  113MOL0     C14811   6.337   8.940   6.019 -0.5626 -0.1745  0.3840
  113MOL0     C14812   6.238   9.036   6.033  0.1472  0.6449 -0.2788
  113MOL0     C14813   6.115   9.000   6.116  0.7008 -0.8916  0.0917
  113MOL0     O14814   6.119   8.898   6.214 -0.0681 -0.0979 -0.1726
  113MOL0     C14815   5.995   8.874   6.279 -1.5269 -0.5319  0.4716
  113MOL0     C14816   5.993   8.909   6.409  0.2175  0.2620 -0.4866
  113MOL0     C14817   5.873   8.902   6.483  0.2034 -0.8603  0.6528
  113MOL0     C14818   5.755   8.855   6.429  0.5418  0.0988 -0.6954
  113MOL0     O14819   5.645   8.860   6.509 -0.9600 -0.3091 -0.0495
  113MOL0     C14820   5.535   8.784   6.461 -0.1906  0.9565 -0.7408
  113MOL0     C14821   5.429   8.754   6.581 -0.5116  0.0436 -1.2552
  113MOL0     C14822   5.379   8.888   6.637 -0.7299 -0.3848 -0.0711
  113MOL0     C14823   5.287   8.866   6.759  0.8263  1.0325 -0.2419
  113MOL0     C14824   5.243   9.005   6.802 -0.4868  0.2183  0.1708
  113MOL0     C14825   5.154   8.984   6.919  0.4107  0.0116 -0.3509
  113MOL0     C14826   5.065   9.108   6.942  0.1660  0.7294  0.4572
  113MOL0     C14827   4.961   9.071   7.045 -0.0894  0.0134 -0.8171
  113MOL0    Cl14828   4.862   9.214   7.062 -0.2534 -0.0615 -0.2088
  113MOL0     C14829   5.767   8.805   6.300  0.3471 -0.8389  0.1214
  113MOL0     C14830   5.879   8.818   6.227 -0.1549 -0.0058  0.0351
  113MOL0     O14831   6.019   9.078   6.098 -0.3883  0.0089 -0.9576
  113MOL0     C14832   6.250   9.163   5.964 -0.7800  1.0948 -0.6428
  113MOL0     C14833   6.361   9.175   5.875  0.4547  0.5252 -0.1186
  113MOL0     N14834   7.018   9.001   5.483 -0.3581  1.0566  0.1633
  113MOL0     N14835   7.035   9.000   5.350  0.1954 -0.1479  0.0117
  113MOL0     C14836   8.008   9.416   5.369  0.4661 -0.2187  0.3454
  113MOL0     C14837   8.113   9.388   5.274 -0.2681  1.4147 -1.1835
  113MOL0     C14838   8.348   9.183   4.983  0.0279 -1.5281  0.8435
  113MOL0     C14839   8.419   9.061   4.996 -0.0003  1.1023  0.6651
  113MOL0     C14840   8.539   9.038   4.928  0.2586  0.4945  0.7625
  113MOL0     C14841   8.585   9.138   4.833 -0.2163  1.1864  0.4950
  113MOL0     O14842   8.699   9.114   4.762 -0.4719  0.1667  0.1185
  113MOL0     C14843   8.708   9.189   4.634 -0.0793 -0.9043 -0.8587
  113MOL0     C14844   8.837   9.148   4.565  0.4261  0.2091  0.3993
  113MOL0     C14845   8.871   9.224   4.444  0.4416  0.2457 -0.3890
  113MOL0     C14846   8.822   9.155   4.315  0.6124  0.5373 -0.1711
  113MOL0     C14847   8.894   9.229   4.205  0.4339  0.8645  0.8938
  113MOL0     C14848   8.968   9.266   4.117 -0.0313  0.2527 -0.1425
  113MOL0     C14849   8.510   9.256   4.817 -0.1457  0.7561 -0.7516
  113MOL0     C14850   8.400   9.281   4.901  1.3374 -1.0012 -0.4530
  113MOL0     H14851   7.933   9.413   4.980 -2.5348  0.6070  0.3768
  113MOL0     H14852   7.754   9.456   5.122  0.2169  0.4415 -1.5132
  113MOL0     H14853   7.813   9.370   5.545  0.7036  1.8216 -0.6740
  113MOL0     H14854   7.734   9.263   5.425 -0.5502  1.1179 -1.8308
  113MOL0     H14855   7.587   9.492   5.566 -0.2022 -0.0947  0.7430
  113MOL0     H14856   7.588   9.337   5.645  1.6353 -1.2288 -0.1472
  113MOL0     H14857   7.390   9.343   5.548  1.0728  0.2548  1.6890
  113MOL0     H14858   7.471   9.218   5.464 -3.7709 -0.5107  1.4260
  113MOL0     H14859   7.461   9.495   5.357 -0.0019 -0.1452  1.4260
  113MOL0     H14860   7.530   9.353   5.277  0.5713  1.3870  0.7229
  113MOL0     H14861   7.296   9.421   5.185 -1.1211  0.4526  0.4921
  113MOL0     H14862   7.222   9.371   5.336 -0.4321 -3.2309 -1.0753
  113MOL0     H14863   7.326   9.143   5.299 -0.3138 -0.8246 -0.5116
  113MOL0     H14864   7.402   9.200   5.167 -0.6480  0.1817  0.2984
  113MOL0     H14865   7.198   9.220   5.038 -1.4571 -1.1150  0.3108
  113MOL0     H14866   7.217   9.063   5.109 -0.0935  0.3494 -0.7256
  113MOL0     H14867   6.994   9.144   5.103  2.7576  0.0806 -1.2795
  113MOL0     H14868   7.028   9.291   5.181  0.5484 -0.3736  1.1106
  113MOL0     H14869   7.002   9.321   5.429  3.3618 -0.0907  2.4631
  113MOL0     H14870   6.987   9.287   5.668 -0.3413 -0.1910 -1.2011
  113MOL0     H14871   7.051   9.131   5.744 -0.3077 -1.6829 -0.4718
  113MOL0     H14872   6.833   9.167   5.824 -1.7959  0.6153  0.0297
  113MOL0     H14873   6.819   9.029   5.721  1.1813 -0.4232  0.0597
  113MOL0     H14874   6.773   9.327   5.631 -1.3118  0.7684 -0.4201
  113MOL0     H14875   6.706   9.188   5.551  0.3953 -1.4212 -0.5790
  113MOL0     H14876   6.545   9.282   5.689 -0.8383 -1.2679  0.1985
  113MOL0     H14877   6.644   9.288   5.837 -0.9475 -1.4327  2.2913
  113MOL0     H14878   6.516   8.886   5.958 -1.5812  0.4876  2.1586
  113MOL0     H14879   6.347   8.838   6.055 -0.1409  0.1007  1.0595
  113MOL0     H14880   6.077   8.946   6.468 -3.2278  3.5322  2.9307
  113MOL0     H14881   5.860   8.932   6.587 -2.2929  0.7313 -0.0405
  113MOL0     H14882   5.566   8.689   6.416 -0.4894  1.8298 -2.9151
  113MOL0     H14883   5.472   8.839   6.391 -1.8805  0.0454  0.0126
  113MOL0     H14884   5.478   8.701   6.663 -1.5090 -1.3869 -1.5509
  113MOL0     H14885   5.340   8.703   6.542 -2.2915  2.0703 -0.0343
  113MOL0     H14886   5.320   8.936   6.559 -2.4661  0.4390  1.6549
  113MOL0     H14887   5.461   8.948   6.678 -3.4419  1.7695  2.7022
  113MOL0     H14888   5.198   8.807   6.738  1.2271 -2.1530  5.0410
  113MOL0     H14889   5.347   8.812   6.833 -0.4460 -3.4776 -2.1352
  113MOL0     H14890   5.199   9.056   6.715 -0.4898  1.9849  1.1662
  113MOL0     H14891   5.328   9.069   6.826 -1.2559  0.7216  1.6602
  113MOL0     H14892   5.203   8.946   7.009  0.2714 -1.3379 -0.8211
  113MOL0     H14893   5.078   8.911   6.890 -0.7890  1.5099 -1.1172
  113MOL0     H14894   5.129   9.190   6.976  0.7911 -1.2011  4.6251
  113MOL0     H14895   5.002   9.136   6.857 -0.4516 -0.3881  0.5193
  113MOL0     H14896   5.008   9.033   7.135  1.1086  0.3646 -1.2806
  113MOL0     H14897   4.903   8.985   7.011  2.8353 -1.6297 -2.0062
  113MOL0     H14898   5.676   8.769   6.252 -1.5343  1.4614  1.7515
  113MOL0     H14899   5.877   8.792   6.121 -1.8717 -2.5244  0.6028
  113MOL0     H14900   6.174   9.239   5.950  0.9847  2.3985 -5.0660
  113MOL0     H14901   6.360   9.263   5.812  0.2658  0.5164 -0.1297
  113MOL0     H14902   8.028   9.425   5.475  0.0180  0.4091  0.3821
  113MOL0     H14903   8.213   9.368   5.311 -0.7324 -0.0258 -0.6337
  113MOL0     H14904   8.381   8.982   5.060 -0.5080  3.1793  3.0970
  113MOL0     H14905   8.604   8.952   4.938  0.3832  0.3019 -1.3048
  113MOL0     H14906   8.721   9.294   4.662 -1.2934 -1.4879  2.3661
  113MOL0     H14907   8.626   9.181   4.562  1.8430  0.1727 -3.2800
  113MOL0     H14908   8.917   9.150   4.639  0.6576 -0.3328  0.1642
  113MOL0     H14909   8.818   9.047   4.528  1.8223  1.0565 -3.0488
  113MOL0     H14910   8.980   9.234   4.439  0.4566 -0.4577 -2.0738
  113MOL0     H14911   8.831   9.323   4.469  1.1885  0.7459 -1.1025
  113MOL0     H14912   8.838   9.047   4.316 -2.2761  0.0081 -0.9801
  113MOL0     H14913   8.717   9.185   4.315  0.5509  0.4051  1.4524
  113MOL0     H14914   9.019   9.327   4.046  0.0180 -0.7649 -1.0018
  113MOL0     H14915   8.561   9.344   4.779 -0.2598  1.4504  0.6661
  113MOL0     H14916   8.364   9.382   4.914  0.1212 -1.8137  4.0886
  114MOL0     O14917  10.903  11.263   7.424 -0.1744  0.1072 -0.5439
  114MOL0     C14918  10.854  11.361   7.480 -0.4506  0.5497  0.7500
  114MOL0     O14919  10.722  11.396   7.476 -0.4052  0.5035 -0.1969
  114MOL0     C14920  10.656  11.331   7.376 -0.1659  0.0945  0.2762
  114MOL0     C14921  10.616  11.200   7.391 -0.4631  0.2182  0.5818
  114MOL0     C14922  10.536  11.145   7.282 -0.8996  0.8045  0.3603
  114MOL0     C14923  10.503  11.232   7.168 -0.6533 -0.3610  0.4980
  114MOL0     O14924  10.432  11.185   7.051  0.7037  0.0344 -0.2380
  114MOL0     C14925  10.302  11.143   7.085  0.1165 -0.5638 -0.0187
  114MOL0     C14926  10.209  11.186   6.974 -0.5146  0.6929  0.1815
  114MOL0     C14927  10.067  11.131   6.979 -0.7148 -0.3568  0.0448
  114MOL0     C14928  10.064  10.978   6.932 -0.3149  0.3115  0.4372
  114MOL0     C14929   9.921  10.922   6.941  0.2146 -0.9306  0.1963
  114MOL0     C14930   9.826  10.992   6.848 -0.1267  1.0874  0.8721
  114MOL0     C14931   9.675  10.946   6.859  0.1285 -0.8794  0.5693
  114MOL0     C14932   9.594  11.051   6.771  0.1853 -0.4699  0.3638
  114MOL0     N14933   9.457  11.002   6.745  0.8006 -0.3894  0.3353
  114MOL0     C14934   9.346  11.014   6.826 -0.0463 -0.1593 -0.2429
  114MOL0     C14935   9.237  10.961   6.743 -0.5491 -0.2228  0.3385
  114MOL0     C14936   9.094  10.936   6.778  1.1697 -0.1815  0.9878
  114MOL0     C14937   9.102  10.804   6.850  0.2910 -0.6641  0.0307
  114MOL0     C14938   8.991  10.778   6.950  0.3542 -0.0873 -0.8994
  114MOL0     C14939   8.848  10.825   6.897 -0.4092 -0.3120  0.0856
  114MOL0     O14940   8.765  10.792   7.006 -0.7889 -0.5872 -0.2130
  114MOL0     C14941   8.641  10.738   6.985 -0.5114 -0.4339  0.4379
  114MOL0     C14942   8.597  10.666   7.098  0.6854  0.0439  0.7299
  114MOL0     C14943   8.469  10.612   7.089  0.0084 -0.2792  0.1999
  114MOL0     C14944   8.387  10.619   6.974  1.5478 -1.1921 -0.7872
  114MOL0     C14945   8.255  10.567   6.968  0.9013  0.8126  0.0190
  114MOL0     O14946   8.171  10.578   7.079  0.5592 -0.5515 -0.2500
  114MOL0     C14947   8.031  10.565   7.062 -0.5573 -0.3661 -0.3725
  114MOL0     C14948   7.941  10.656   7.115 -0.3825  0.3968 -1.5586
  114MOL0     C14949   7.804  10.631   7.123 -0.0697  0.7067 -0.9426
  114MOL0     C14950   7.753  10.507   7.071  0.5437 -0.0738 -0.3121
  114MOL0     O14951   7.617  10.484   7.055 -0.0019 -0.5536  0.5830
  114MOL0     C14952   7.542  10.477   7.174 -0.1556 -0.5118  0.3926
  114MOL0     C14953   7.457  10.611   7.190 -0.3355 -0.1825 -0.6010
  114MOL0     C14954   7.368  10.637   7.072  0.8521 -0.3936  1.3540
  114MOL0     C14955   7.248  10.539   7.070 -0.2694  0.6094  0.1262
  114MOL0     C14956   7.124  10.582   6.992  0.5092  0.8887  0.0239
  114MOL0     C14957   7.007  10.484   6.998  0.1346 -0.5579  0.3901
  114MOL0     C14958   7.035  10.350   6.925  0.1585  0.9554 -0.3113
  114MOL0     C14959   6.897  10.303   6.868 -0.6717 -0.3330  0.4219
  114MOL0    Cl14960   6.783  10.230   6.992  0.0208  0.3136  0.0149
  114MOL0     C14961   7.838  10.415   7.015  0.6539  0.1314 -0.4770
  114MOL0     C14962   7.974  10.443   7.019 -0.6753  0.1348  0.8893
  114MOL0     O14963   8.217  10.520   6.859 -0.5886 -0.7505 -1.1277
  114MOL0     C14964   8.435  10.702   6.865  0.0088  0.5086  0.9646
  114MOL0     C14965   8.557  10.766   6.873 -0.3235 -0.1736 -1.1663
  114MOL0     N14966   9.293  10.929   6.620 -0.1073 -0.8414 -0.2540
  114MOL0     N14967   9.416  10.960   6.623 -0.9278 -0.0277 -0.2041
  114MOL0     C14968  10.566  11.361   7.161  0.4443 -0.5457 -0.7117
  114MOL0     C14969  10.633  11.409   7.270 -1.0133 -0.1937  0.6770
  114MOL0     C14970  10.940  11.419   7.591 -0.2954 -0.3301  0.2258
  114MOL0     C14971  10.888  11.514   7.674 -0.0887  0.0709 -0.2904
  114MOL0     C14972  10.968  11.576   7.769 -0.4466 -0.1898  0.3460
  114MOL0     C14973  11.104  11.547   7.776 -0.2722  0.4673  0.3120
  114MOL0     O14974  11.180  11.619   7.858 -0.7088 -0.0002 -0.1175
  114MOL0     C14975  11.130  11.746   7.899  0.1064 -0.9524  0.0252
  114MOL0     C14976  11.250  11.841   7.936 -0.3607  0.8854  0.4860
  114MOL0     C14977  11.303  11.796   8.074 -0.0251  0.2749  0.1564
  114MOL0     C14978  11.427  11.874   8.108  0.7744 -0.7518 -0.0418
  114MOL0     C14979  11.544  11.813   8.039 -1.2965 -0.7955  0.0451
  114MOL0     C14980  11.632  11.772   7.971  0.8248  0.6761 -0.3354
  114MOL0     C14981  11.150  11.431   7.706  0.7501 -0.8244 -0.4536
  114MOL0     C14982  11.069  11.381   7.607  0.4121  0.2290 -0.4714
  114MOL0     H14983  10.659  11.142   7.471  0.0775 -0.3462 -0.1080
  114MOL0     H14984  10.499  11.045   7.265 -1.6347  1.6270 -3.9360
  114MOL0     H14985  10.266  11.196   7.175 -0.3818 -0.0872 -0.4904
  114MOL0     H14986  10.299  11.036   7.110  1.8474 -0.6387 -0.0033
  114MOL0     H14987  10.258  11.163   6.879 -3.5664 -1.4199 -1.0579
  114MOL0     H14988  10.208  11.295   6.984  1.5149  0.7770 -0.2663
  114MOL0     H14989  10.008  11.186   6.906 -1.6702 -1.2881  0.0936
  114MOL0     H14990  10.013  11.138   7.074 -0.4745 -0.1746  0.1709
  114MOL0     H14991  10.094  10.965   6.828  0.8220  3.0739  0.3348
  114MOL0     H14992  10.136  10.924   6.994 -0.1526  0.6719  0.5666
  114MOL0     H14993   9.891  10.923   7.047 -0.2788  0.9177  0.0656
  114MOL0     H14994   9.924  10.816   6.913  0.3582 -0.7180 -0.5841
  114MOL0     H14995   9.846  10.982   6.741 -1.0398  1.5806  0.6472
  114MOL0     H14996   9.829  11.098   6.874  4.0144  1.4024 -0.1185
  114MOL0     H14997   9.666  10.849   6.809 -3.5416  0.6408 -2.1244
  114MOL0     H14998   9.638  10.928   6.960 -0.2074 -2.9461  0.1170
  114MOL0     H14999   9.639  11.083   6.677  0.0788  0.1209  0.5070
  114MOL0     H15000   9.593  11.145   6.828 -1.0675 -1.2212  1.6283
  114MOL0     H15001   9.340  11.037   6.932 -0.4985 -1.3070 -0.0040
  114MOL0     H15002   9.031  10.926   6.689  3.3005 -0.8357 -0.5239
  114MOL0     H15003   9.058  11.011   6.849  0.5970  0.2376  0.2633
  114MOL0     H15004   9.200  10.789   6.896 -0.0232  0.1075  0.9884
  114MOL0     H15005   9.098  10.732   6.768 -2.9630 -1.3949  0.6972
  114MOL0     H15006   8.989  10.673   6.979 -1.9928  0.4368  1.1503
  114MOL0     H15007   9.001  10.840   7.040 -2.1739 -0.2655 -0.4196
  114MOL0     H15008   8.836  10.765   6.806 -0.2208 -0.1470 -0.0469
  114MOL0     H15009   8.842  10.932   6.878 -0.1659 -0.1366  0.9528
  114MOL0     H15010   8.645  10.660   7.195 -0.4347  0.0609  1.3024
  114MOL0     H15011   8.437  10.557   7.177  1.7505  0.9981  1.7177
  114MOL0     H15012   7.976  10.750   7.156  0.6895 -0.2277 -1.0047
  114MOL0     H15013   7.742  10.711   7.163  0.1935 -0.4447  2.0624
  114MOL0     H15014   7.605  10.453   7.261  0.9839 -1.6071 -0.6837
  114MOL0     H15015   7.473  10.393   7.164  1.4226 -1.9849  1.0880
  114MOL0     H15016   7.519  10.697   7.215 -0.3650 -0.6322  1.1246
  114MOL0     H15017   7.392  10.592   7.276 -1.6857 -2.1927 -1.9732
  114MOL0     H15018   7.420  10.623   6.977 -0.2440  1.6115  0.3911
  114MOL0     H15019   7.329  10.738   7.090  1.0581  0.1126 -0.8014
  114MOL0     H15020   7.280  10.441   7.033  0.7057  0.7189  0.6587
  114MOL0     H15021   7.221  10.510   7.172  1.5659 -3.0292 -0.2306
  114MOL0     H15022   7.149  10.602   6.887  1.8488  1.5753  0.4495
  114MOL0     H15023   7.086  10.673   7.039  0.4994 -0.8492  3.6788
  114MOL0     H15024   6.921  10.539   6.960  0.3400 -1.4859 -1.5514
  114MOL0     H15025   6.990  10.463   7.104  2.4354  2.5704  1.5284
  114MOL0     H15026   7.108  10.360   6.845  0.0091 -1.6883 -0.8811
  114MOL0     H15027   7.080  10.278   6.994  0.0206 -0.8181 -2.0034
  114MOL0     H15028   6.917  10.225   6.794  0.4059 -1.1591  1.5412
  114MOL0     H15029   6.850  10.385   6.813  0.6047 -0.0262 -0.2600
  114MOL0     H15030   7.807  10.324   6.964  0.2280  0.9352 -1.6830
  114MOL0     H15031   8.042  10.362   6.993 -0.3310  0.6668  0.0805
  114MOL0     H15032   8.374  10.715   6.776 -0.1369  2.4645  1.3044
  114MOL0     H15033   8.602  10.830   6.798  1.7460  1.4861  1.3175
  114MOL0     H15034  10.561  11.427   7.075  0.8643 -0.1862 -0.4640
  114MOL0     H15035  10.673  11.510   7.266 -0.8743 -0.1813  1.8556
  114MOL0     H15036  10.786  11.544   7.650 -0.5981 -2.2820 -1.3873
  114MOL0     H15037  10.913  11.657   7.817  2.2972  1.5803  0.7419
  114MOL0     H15038  11.066  11.725   7.985 -1.1081 -1.3708 -0.9534
  114MOL0     H15039  11.079  11.796   7.816  0.5721  2.4773  1.5999
  114MOL0     H15040  11.337  11.817   7.873 -1.5662 -0.2664 -0.8272
  114MOL0     H15041  11.226  11.946   7.919 -2.3415  0.2581 -1.1024
  114MOL0     H15042  11.324  11.692   8.098 -3.4613  0.2410  4.4107
  114MOL0     H15043  11.232  11.824   8.154  0.0530  0.6419  0.1004
  114MOL0     H15044  11.412  11.979   8.079  2.5181 -1.0784 -2.3909
  114MOL0     H15045  11.446  11.880   8.216 -1.3358  2.6355  0.2978
  114MOL0     H15046  11.704  11.712   7.918  2.0380  0.0494  1.8739
  114MOL0     H15047  11.252  11.398   7.719  0.9596  0.5839  2.0541
  114MOL0     H15048  11.104  11.310   7.532 -2.7487  0.2189 -2.0960
  115MOL0     O15049   5.941   6.775   9.248  0.7167 -0.2195  0.1812
  115MOL0     C15050   5.911   6.823   9.352  0.5852  0.2323 -0.4912
  115MOL0     O15051   5.791   6.797   9.420  0.1221  0.1836 -0.5047
  115MOL0     C15052   5.715   6.688   9.363  0.0150  0.0468  1.0658
  115MOL0     C15053   5.707   6.569   9.443  0.7782 -0.0669 -0.5828
  115MOL0     C15054   5.655   6.448   9.386  1.2736 -0.0041 -0.6136
  115MOL0     C15055   5.581   6.459   9.268  0.2636  0.3722  0.3864
  115MOL0     O15056   5.514   6.342   9.225 -0.0932 -0.1752 -0.2894
  115MOL0     C15057   5.467   6.329   9.088  0.3209 -0.4003  0.5827
  115MOL0     C15058   5.320   6.373   9.090 -0.4181  0.8516 -0.3563
  115MOL0     C15059   5.232   6.303   8.980 -0.0755 -1.4993  0.4297
  115MOL0     C15060   5.084   6.369   8.978  0.4173 -0.9544 -0.2518
  115MOL0     C15061   4.987   6.309   8.871  0.6913  0.4459  0.5209
  115MOL0     C15062   5.045   6.281   8.741 -0.5446 -0.2742  0.2120
  115MOL0     C15063   4.936   6.276   8.631 -0.4443  0.3129  0.4930
  115MOL0     C15064   4.834   6.151   8.637 -0.5577 -0.1785  0.1805
  115MOL0     N15065   4.751   6.133   8.527  0.5654 -0.4350 -0.2266
  115MOL0     C15066   4.667   6.224   8.474 -0.4165 -0.7466 -0.6215
  115MOL0     C15067   4.602   6.166   8.370  0.5443  0.6106  0.9537
  115MOL0     C15068   4.494   6.220   8.281 -0.0313  0.3043  1.7780
  115MOL0     C15069   4.509   6.371   8.240  0.4463  0.6649 -0.3424
  115MOL0     C15070   4.638   6.408   8.149 -1.0196  1.1890  0.1066
  115MOL0     C15071   4.591   6.475   8.022 -1.2123 -0.3341  0.4119
  115MOL0     O15072   4.530   6.588   8.062 -0.0963  0.1399  0.9013
  115MOL0     C15073   4.463   6.668   7.971 -0.6616  1.0019  0.3770
  115MOL0     C15074   4.420   6.631   7.843  0.5255  0.0920  0.3652
  115MOL0     C15075   4.333   6.724   7.771  0.4627  0.1867 -0.6729
  115MOL0     C15076   4.306   6.849   7.818 -0.1970  0.4559 -0.0056
  115MOL0     C15077   4.221   6.944   7.738 -0.1049  0.1729 -0.6731
  115MOL0     O15078   4.184   7.056   7.799 -0.6497 -0.3397 -0.4209
  115MOL0     C15079   4.135   7.160   7.727 -0.3407 -0.4910 -0.6204
  115MOL0     C15080   4.218   7.250   7.655 -0.1213  0.2838  0.6727
  115MOL0     C15081   4.163   7.369   7.604  0.3073  1.2876 -0.2889
  115MOL0     C15082   4.022   7.400   7.610 -0.6677 -0.1995 -0.4519
  115MOL0     O15083   3.975   7.519   7.559  0.6643  0.5466 -0.6387
  115MOL0     C15084   3.829   7.541   7.524 -0.1383  0.4181 -1.0344
  115MOL0     C15085   3.830   7.613   7.387 -0.2098 -0.3597  0.2118
  115MOL0     C15086   3.710   7.706   7.367  1.2229  0.7890 -0.7932
  115MOL0     C15087   3.711   7.773   7.231 -0.7854 -0.6264  0.3288
  115MOL0     C15088   3.585   7.855   7.204 -0.1364 -0.0691  0.1993
  115MOL0     C15089   3.604   7.930   7.063  0.1843 -0.4897 -0.1886
  115MOL0     C15090   3.644   7.828   6.943 -0.5082  0.7344 -0.4462
  115MOL0     C15091   3.598   7.900   6.811  0.3673  0.0317 -0.0664
  115MOL0    Cl15092   3.638   7.788   6.667 -0.3734  0.3239 -0.1010
  115MOL0     C15093   3.943   7.307   7.679 -0.1410  0.3655  0.3539
  115MOL0     C15094   4.004   7.200   7.735 -0.5712  0.0610 -0.7026
  115MOL0     O15095   4.175   6.911   7.629 -0.6730 -0.1171 -0.5054
  115MOL0     C15096   4.357   6.883   7.941 -0.3717 -0.3173  0.2352
  115MOL0     C15097   4.424   6.790   8.021 -0.8571  0.2879  0.5202
  115MOL0     N15098   4.659   6.036   8.353 -0.4058 -1.0262 -0.3436
  115MOL0     N15099   4.747   6.021   8.446 -0.5304 -1.0416 -0.0256
  115MOL0     C15100   5.563   6.582   9.207 -0.4288  0.0888  0.9856
  115MOL0     C15101   5.634   6.692   9.257  0.2428 -0.5047  0.2087
  115MOL0     C15102   5.991   6.932   9.420  0.1538  0.1438  0.7068
  115MOL0     C15103   5.961   6.989   9.544  0.4265  0.5207  0.1131
  115MOL0     C15104   6.048   7.092   9.595 -0.5925 -1.0132 -0.0736
  115MOL0     C15105   6.169   7.123   9.527  0.0724 -0.1326 -0.2399
  115MOL0     O15106   6.261   7.211   9.579 -0.9546  1.0385  0.1570
  115MOL0     C15107   6.317   7.174   9.707 -0.4326  0.7401  0.1099
  115MOL0     C15108   6.463   7.217   9.716 -0.5900  0.1660 -0.0804
  115MOL0     C15109   6.545   7.174   9.590 -0.6880 -0.2258 -0.1639
  115MOL0     C15110   6.692   7.180   9.628  0.0138  0.5055 -1.0817
  115MOL0     C15111   6.734   7.057   9.711 -0.1673  0.1546 -0.3824
  115MOL0     C15112   6.764   6.948   9.760  0.7882  0.4076  0.8139
  115MOL0     C15113   6.196   7.082   9.403  0.1691 -0.2194 -0.7878
  115MOL0     C15114   6.113   6.972   9.356  0.6503 -0.0713 -0.1003
  115MOL0     H15115   5.759   6.543   9.534  1.6614 -1.7008 -1.5065
  115MOL0     H15116   5.662   6.351   9.435 -1.3483  0.4710  0.9193
  115MOL0     H15117   5.473   6.221   9.074 -0.4479 -0.3773  0.0445
  115MOL0     H15118   5.534   6.373   9.014  0.9955  0.0004  1.4075
  115MOL0     H15119   5.304   6.480   9.081 -5.0042  0.3435 -0.8231
  115MOL0     H15120   5.283   6.339   9.188 -1.6289  0.4195 -0.9451
  115MOL0     H15121   5.230   6.196   9.004  0.2606 -1.2131  1.7947
  115MOL0     H15122   5.285   6.306   8.884 -0.0529 -2.9393  0.3763
  115MOL0     H15123   5.046   6.361   9.080  0.2622 -1.5082 -0.3503
  115MOL0     H15124   5.098   6.476   8.960 -1.2180 -0.5394  0.7801
  115MOL0     H15125   4.912   6.386   8.852  2.0720  1.4487 -1.1717
  115MOL0     H15126   4.943   6.213   8.900  2.7951 -0.6842  0.2175
  115MOL0     H15127   5.113   6.195   8.736 -2.2938 -1.6560 -1.4637
  115MOL0     H15128   5.103   6.372   8.724 -3.5262  1.2658 -2.8390
  115MOL0     H15129   4.872   6.365   8.626 -1.9655 -0.7842 -0.6352
  115MOL0     H15130   4.992   6.259   8.539 -2.1669 -0.8337 -0.4157
  115MOL0     H15131   4.770   6.182   8.720 -0.7499  2.8281 -0.9800
  115MOL0     H15132   4.891   6.060   8.660  0.2385 -0.1017 -1.3845
  115MOL0     H15133   4.660   6.324   8.514 -1.1406 -0.7023 -0.8436
  115MOL0     H15134   4.395   6.213   8.328 -2.0419 -0.9503 -2.1590
  115MOL0     H15135   4.488   6.159   8.190 -1.5678  1.9419  0.7286
  115MOL0     H15136   4.510   6.422   8.337 -2.4859 -0.3042  0.2836
  115MOL0     H15137   4.415   6.394   8.189 -0.7947 -0.7284  1.2303
  115MOL0     H15138   4.719   6.465   8.196 -0.9659  0.6725  0.6520
  115MOL0     H15139   4.685   6.319   8.106  1.3464  2.1754  0.4657
  115MOL0     H15140   4.532   6.409   7.959  1.3407 -1.0321 -1.3935
  115MOL0     H15141   4.679   6.504   7.963  0.1693  1.3548  3.0994
  115MOL0     H15142   4.431   6.533   7.798 -1.5200  0.7277 -1.7390
  115MOL0     H15143   4.288   6.684   7.681 -0.1889  2.2130 -1.2941
  115MOL0     H15144   4.325   7.234   7.647 -0.1481  0.5657 -0.3236
  115MOL0     H15145   4.230   7.437   7.553 -0.6978  2.8963  0.4699
  115MOL0     H15146   3.784   7.603   7.602  1.4230  1.6710 -1.0889
  115MOL0     H15147   3.756   7.459   7.524 -0.2734  0.5038 -2.6220
  115MOL0     H15148   3.825   7.546   7.301 -1.1070 -0.1161  0.0687
  115MOL0     H15149   3.918   7.677   7.376 -0.1483 -0.3769  0.5985
  115MOL0     H15150   3.692   7.775   7.450 -4.5817  1.3260 -2.0459
  115MOL0     H15151   3.619   7.645   7.367  1.6830  0.0485  0.8925
  115MOL0     H15152   3.795   7.843   7.225 -0.7324 -0.7824 -1.4040
  115MOL0     H15153   3.724   7.689   7.162 -0.7811  1.6564 -2.6586
  115MOL0     H15154   3.573   7.923   7.288  3.1099 -3.1628  3.5119
  115MOL0     H15155   3.505   7.781   7.200  0.3184 -0.5300 -0.6653
  115MOL0     H15156   3.681   8.006   7.082  0.8324 -0.4560 -2.6840
  115MOL0     H15157   3.511   7.977   7.030 -0.7874 -0.1762  2.6824
  115MOL0     H15158   3.752   7.813   6.950 -0.5695 -1.0018 -2.3499
  115MOL0     H15159   3.593   7.731   6.951  2.9399 -1.2737 -0.6698
  115MOL0     H15160   3.646   7.998   6.801 -0.5834  0.5641  0.4916
  115MOL0     H15161   3.490   7.919   6.816 -0.5136 -3.5890 -2.0906
  115MOL0     H15162   3.836   7.311   7.697 -0.2668 -0.7072 -0.0451
  115MOL0     H15163   3.944   7.136   7.799  0.3652  0.8848  1.0629
  115MOL0     H15164   4.336   6.981   7.983 -0.4386 -0.5010  0.6272
  115MOL0     H15165   4.457   6.826   8.118  1.1679  1.4331 -0.5372
  115MOL0     H15166   5.486   6.580   9.131  0.6171 -1.6818 -0.0923
  115MOL0     H15167   5.611   6.784   9.204  1.0315 -0.4443 -0.0423
  115MOL0     H15168   5.882   6.940   9.601  0.4621  1.1022  0.6868
  115MOL0     H15169   6.048   7.128   9.698  5.3772  1.6295 -0.5993
  115MOL0     H15170   6.312   7.066   9.725 -2.3327  0.7535 -0.1546
  115MOL0     H15171   6.253   7.213   9.787  0.3273  1.6071  0.3061
  115MOL0     H15172   6.467   7.326   9.720 -1.8786  0.2088  0.2271
  115MOL0     H15173   6.509   7.169   9.803 -4.3317 -2.9376  0.4526
  115MOL0     H15174   6.530   7.256   9.519  1.2624  2.9061  2.7731
  115MOL0     H15175   6.517   7.081   9.538 -0.6228  1.1783 -2.9280
  115MOL0     H15176   6.739   7.176   9.529 -1.5933 -2.4652 -1.8350
  115MOL0     H15177   6.724   7.267   9.687 -1.9785 -0.2799  1.3354
  115MOL0     H15178   6.782   6.850   9.799  0.5702 -0.1858 -0.5358
  115MOL0     H15179   6.283   7.116   9.348  0.6726  0.6425  0.4888
  115MOL0     H15180   6.136   6.934   9.257  2.0591  0.4219  0.0087
  116MOL0     O15181   2.639   4.777   8.050  0.1042  0.3195 -1.2935
  116MOL0     C15182   2.620   4.690   7.969 -0.1887  0.7071  0.2045
  116MOL0     O15183   2.720   4.641   7.881  0.1810 -0.4193 -0.6208
  116MOL0     C15184   2.835   4.718   7.866  0.3137 -0.5712 -0.3230
  116MOL0     C15185   2.950   4.648   7.825  0.3836  0.3501 -0.1923
  116MOL0     C15186   3.076   4.705   7.801  0.5600  0.7304 -0.1649
  116MOL0     C15187   3.079   4.844   7.816 -0.1216  0.1171  0.0166
  116MOL0     O15188   3.196   4.895   7.801 -0.1769 -0.6911  1.0972
  116MOL0     C15189   3.223   5.035   7.797 -0.5765 -0.0277 -0.8268
  116MOL0     C15190   3.367   5.062   7.766  0.2206 -0.0626  0.4581
  116MOL0     C15191   3.464   4.988   7.863 -0.0795 -0.1058  1.1683
  116MOL0     C15192   3.546   5.085   7.950  0.5168  0.0754  0.2160
  116MOL0     C15193   3.642   5.016   8.042 -0.1633 -0.0641 -0.7978
  116MOL0     C15194   3.727   5.121   8.111  0.2656  0.5276 -0.1269
  116MOL0     C15195   3.835   5.056   8.209  0.3031 -0.3095 -0.7442
  116MOL0     C15196   3.944   5.159   8.251 -0.1876 -0.6933 -0.4604
  116MOL0     N15197   4.062   5.180   8.160  0.3194 -0.0138  0.2399
  116MOL0     C15198   4.050   5.267   8.052  0.1601  0.4311  0.3434
  116MOL0     C15199   4.159   5.263   7.974  0.3287  0.0176 -0.0686
  116MOL0     C15200   4.192   5.347   7.851  0.1572 -0.2622  0.1672
  116MOL0     C15201   4.159   5.498   7.847  0.1455 -0.0830  0.7243
  116MOL0     C15202   4.033   5.524   7.777 -0.6691 -0.0254  0.3793
  116MOL0     C15203   3.974   5.670   7.797 -0.0778  0.7638  0.2733
  116MOL0     O15204   3.857   5.688   7.720  0.2946 -0.0869  0.5228
  116MOL0     C15205   3.733   5.624   7.745 -0.5543 -0.1670  0.2546
  116MOL0     C15206   3.620   5.635   7.664  0.4988  0.4679  0.0676
  116MOL0     C15207   3.496   5.571   7.694  0.6126  0.8081  0.2938
  116MOL0     C15208   3.483   5.505   7.819  0.6889  0.3900  0.2736
  116MOL0     C15209   3.357   5.468   7.876 -0.7721  0.1138  0.5781
  116MOL0     O15210   3.264   5.453   7.777  0.0064 -0.6106  0.2168
  116MOL0     C15211   3.143   5.399   7.807  0.8017  0.5130 -0.3996
  116MOL0     C15212   3.071   5.413   7.937 -0.2021 -0.1636 -0.7939
  116MOL0     C15213   2.948   5.348   7.950  0.4159  0.0316  0.7881
  116MOL0     C15214   2.888   5.282   7.846  0.4016 -0.4625 -0.6075
  116MOL0     O15215   2.760   5.237   7.876  0.0173  0.0060  0.1634
  116MOL0     C15216   2.657   5.275   7.782  0.7140  0.2646 -0.1463
  116MOL0     C15217   2.522   5.252   7.853  0.0028 -0.1466  0.2713
  116MOL0     C15218   2.477   5.110   7.857  0.3623  0.8350 -0.3788
  116MOL0     C15219   2.430   5.065   7.719 -0.2432  0.1652 -0.6700
  116MOL0     C15220   2.352   4.933   7.721  0.4855  0.0649 -0.7996
  116MOL0     C15221   2.339   4.859   7.590  0.2587  0.3134  0.0697
  116MOL0     C15222   2.417   4.723   7.575  0.4088 -0.2666 -0.2996
  116MOL0     C15223   2.564   4.747   7.572 -0.8008  0.4550  1.1870
  116MOL0    Cl15224   2.630   4.578   7.572  0.2916  0.6604 -0.1532
  116MOL0     C15225   2.954   5.271   7.724 -0.6675  0.7693 -0.2439
  116MOL0     C15226   3.080   5.331   7.703 -0.5607 -0.0398  0.5307
  116MOL0     O15227   3.343   5.447   8.002  0.3938 -1.3229 -0.0022
  116MOL0     C15228   3.600   5.487   7.892 -0.1865 -0.6253 -0.5793
  116MOL0     C15229   3.719   5.549   7.857 -0.5164  1.1983 -0.3620
  116MOL0     N15230   4.233   5.159   8.034 -0.1811  0.4164  0.1566
  116MOL0     N15231   4.172   5.102   8.134  0.5103 -0.0740  0.0993
  116MOL0     C15232   2.964   4.920   7.844 -0.5642  0.2875  0.4911
  116MOL0     C15233   2.845   4.852   7.874  1.0067 -0.1027 -0.3581
  116MOL0     C15234   2.487   4.623   7.984  0.1020  0.4997  0.7640
  116MOL0     C15235   2.376   4.684   8.054  0.4927  0.2186  0.1294
  116MOL0     C15236   2.251   4.624   8.061 -0.3103 -0.1588  0.7386
  116MOL0     C15237   2.223   4.509   7.987  0.5864 -0.0792 -0.4053
  116MOL0     O15238   2.106   4.439   8.008  0.2324  0.6670  0.2800
  116MOL0     C15239   1.988   4.516   8.030 -1.0481  0.0025  0.6216
  116MOL0     C15240   1.855   4.441   7.990 -0.1244 -0.4327  0.0116
  116MOL0     C15241   1.857   4.406   7.844  0.4676 -0.5820  0.4297
  116MOL0     C15242   1.736   4.330   7.787  0.6484 -0.3189  1.2474
  116MOL0     C15243   1.712   4.208   7.851  0.3497  0.3943  0.0563
  116MOL0     C15244   1.701   4.112   7.922 -0.7479  0.5183 -1.4646
  116MOL0     C15245   2.328   4.450   7.914  0.0860  0.8643  0.7821
  116MOL0     C15246   2.456   4.502   7.918 -0.1871 -0.2427  0.8021
  116MOL0     H15247   2.940   4.541   7.808  0.0149  0.0898  1.4791
  116MOL0     H15248   3.155   4.640   7.766 -0.5809 -1.5775  1.2729
  116MOL0     H15249   3.195   5.078   7.894  0.9856  0.2357 -0.4548
  116MOL0     H15250   3.165   5.085   7.719  1.4315  0.5206 -2.0645
  116MOL0     H15251   3.387   5.168   7.748  2.6261 -0.6768 -0.9960
  116MOL0     H15252   3.371   5.020   7.665 -1.5250 -1.7769  1.0414
  116MOL0     H15253   3.529   4.928   7.799 -0.2955 -1.0340  1.8162
  116MOL0     H15254   3.411   4.918   7.928 -1.2028  0.2080  0.6133
  116MOL0     H15255   3.594   5.160   7.886  1.5238  0.0340  0.9087
  116MOL0     H15256   3.472   5.141   8.009 -1.4898 -2.4672  0.2819
  116MOL0     H15257   3.709   4.945   7.992  0.0360  0.7114 -1.6478
  116MOL0     H15258   3.593   4.972   8.129  2.1882  1.7701  1.6429
  116MOL0     H15259   3.660   5.196   8.154 -2.1933 -1.1962 -0.7023
  116MOL0     H15260   3.775   5.173   8.029 -0.9278  0.6493 -0.7708
  116MOL0     H15261   3.789   5.021   8.301  2.9705  1.4537  1.4566
  116MOL0     H15262   3.879   4.970   8.159 -0.9906 -2.3188  1.4110
  116MOL0     H15263   3.985   5.119   8.344  1.4975 -1.0849 -1.3305
  116MOL0     H15264   3.905   5.257   8.280  0.3232 -0.5459 -0.2576
  116MOL0     H15265   3.964   5.330   8.031 -0.9516 -1.5410 -1.4537
  116MOL0     H15266   4.149   5.302   7.762 -0.2038  2.5060 -1.1742
  116MOL0     H15267   4.300   5.326   7.849 -0.2939 -2.7793  0.0623
  116MOL0     H15268   4.244   5.548   7.800 -0.9368  0.1033 -1.1396
  116MOL0     H15269   4.141   5.541   7.946  0.3967  2.2801 -0.1983
  116MOL0     H15270   4.064   5.508   7.674  1.8134 -0.5036  1.1216
  116MOL0     H15271   3.961   5.446   7.802  1.9137 -2.3380  1.1574
  116MOL0     H15272   4.051   5.742   7.768  0.8108 -1.2829 -3.0119
  116MOL0     H15273   3.934   5.696   7.895  1.5864  1.8149  0.7129
  116MOL0     H15274   3.625   5.696   7.574  0.7446  2.1019  1.1451
  116MOL0     H15275   3.411   5.582   7.628  0.8044  3.5281  0.3779
  116MOL0     H15276   3.103   5.484   8.011 -2.2210 -0.3842  0.3720
  116MOL0     H15277   2.877   5.370   8.030 -1.5650 -2.3024 -0.2079
  116MOL0     H15278   2.658   5.214   7.691  2.7636 -1.5439  1.0148
  116MOL0     H15279   2.664   5.378   7.743 -1.1874 -0.3203 -2.3107
  116MOL0     H15280   2.448   5.315   7.801  0.6577 -0.7770 -1.5109
  116MOL0     H15281   2.530   5.289   7.955  1.1298 -1.3106  0.6249
  116MOL0     H15282   2.392   5.098   7.924 -0.6306 -1.6204 -1.9218
  116MOL0     H15283   2.562   5.049   7.890 -0.1817  0.7191  0.8453
  116MOL0     H15284   2.367   5.133   7.660 -1.3006 -0.7732 -0.6438
  116MOL0     H15285   2.529   5.060   7.671  1.4532 -0.1077  2.5499
  116MOL0     H15286   2.249   4.956   7.747 -0.2946 -1.5029 -2.2673
  116MOL0     H15287   2.391   4.867   7.799 -0.4163  0.0535 -0.3501
  116MOL0     H15288   2.368   4.936   7.517 -1.6191  3.9060  2.8135
  116MOL0     H15289   2.235   4.836   7.567  0.0597  3.1987 -2.4678
  116MOL0     H15290   2.392   4.652   7.654 -0.2855  0.6713  0.3496
  116MOL0     H15291   2.378   4.679   7.483 -2.9497 -0.8165  1.2413
  116MOL0     H15292   2.608   4.804   7.654  1.3277 -1.9588  1.8701
  116MOL0     H15293   2.594   4.792   7.476 -0.8984 -0.5829  0.6518
  116MOL0     H15294   2.892   5.227   7.646  0.9691  0.4165 -1.3924
  116MOL0     H15295   3.123   5.326   7.603  2.9050  1.9487  1.7612
  116MOL0     H15296   3.586   5.449   7.993 -1.8886  0.1650 -0.4880
  116MOL0     H15297   3.805   5.519   7.915  0.2240  0.6547 -1.7192
  116MOL0     H15298   2.962   5.028   7.859 -0.8048  0.8310 -2.8224
  116MOL0     H15299   2.759   4.916   7.889  0.9224  0.2802 -2.2111
  116MOL0     H15300   2.386   4.775   8.111  0.2707 -0.8077  1.8803
  116MOL0     H15301   2.183   4.678   8.126  0.5096  0.1530  1.3598
  116MOL0     H15302   2.000   4.612   7.978 -0.9708 -1.0510 -1.3727
  116MOL0     H15303   1.976   4.547   8.135 -1.1616  0.6561  0.4235
  116MOL0     H15304   1.854   4.352   8.054 -4.0595  0.0096  0.8477
  116MOL0     H15305   1.770   4.500   8.026  0.1458 -0.6191  0.9864
  116MOL0     H15306   1.947   4.351   7.818  0.5721 -0.0686 -0.3402
  116MOL0     H15307   1.859   4.500   7.788  2.1492  0.2309  1.7573
  116MOL0     H15308   1.647   4.392   7.800  1.5908  0.8959  2.2036
  116MOL0     H15309   1.752   4.317   7.680  0.9555  0.9124  1.1330
  116MOL0     H15310   1.684   4.022   7.979  0.1326  0.4510 -1.2929
  116MOL0     H15311   2.306   4.367   7.848 -1.7389  2.0101 -0.1323
  116MOL0     H15312   2.527   4.449   7.855 -0.2987 -1.1078  1.3785
  117MOL0     O15313   8.136   3.184   6.858 -0.9980 -0.6195 -0.7400
  117MOL0     C15314   8.225   3.100   6.850 -0.3542 -0.8724 -0.6758
  117MOL0     O15315   8.228   2.974   6.906 -0.5574  0.6317 -0.1584
  117MOL0     C15316   8.111   2.929   6.937  0.2025  0.6398 -0.4374
  117MOL0     C15317   8.021   2.908   6.841  0.5088  0.4108  0.2296
  117MOL0     C15318   7.903   2.826   6.854 -0.2556 -0.6860  0.3287
  117MOL0     C15319   7.873   2.777   6.974  0.1373  1.2672 -0.2204
  117MOL0     O15320   7.757   2.714   7.001  0.3645 -0.5546  0.2454
  117MOL0     C15321   7.737   2.586   6.949 -0.0453 -0.2437  0.6933
  117MOL0     C15322   7.612   2.521   6.993 -0.4452 -0.1430 -0.2603
  117MOL0     C15323   7.556   2.429   6.875  0.0686  0.0996  0.3552
  117MOL0     C15324   7.422   2.367   6.928 -0.6274 -0.3005 -0.2085
  117MOL0     C15325   7.333   2.338   6.809 -0.0464  0.1864  0.6849
  117MOL0     C15326   7.190   2.314   6.858  0.5915 -0.2030  0.3632
  117MOL0     C15327   7.168   2.173   6.902  0.0234  0.3242  0.4320
  117MOL0     C15328   7.027   2.160   6.949  0.6563  1.3232 -0.5092
  117MOL0     N15329   6.925   2.144   6.844 -0.0468 -0.1081 -0.1089
  117MOL0     C15330   6.832   2.228   6.799 -0.3778  0.1303  0.0920
  117MOL0     C15331   6.771   2.156   6.704  0.4832  0.9991  0.3955
  117MOL0     C15332   6.670   2.206   6.613 -0.2991  0.1587 -0.1429
  117MOL0     C15333   6.718   2.200   6.471 -0.2587  0.4133  0.2627
  117MOL0     C15334   6.608   2.261   6.381  0.0131  0.0983 -0.0438
  117MOL0     C15335   6.494   2.166   6.357  0.4692  0.1972  0.3524
  117MOL0     O15336   6.408   2.187   6.470  0.1659  0.0715 -0.2976
  117MOL0     C15337   6.292   2.253   6.443  0.2518  0.3794 -0.5578
  117MOL0     C15338   6.197   2.222   6.539  0.3416  0.1134  0.7617
  117MOL0     C15339   6.076   2.285   6.531  0.8846 -1.1808 -0.8551
  117MOL0     C15340   6.049   2.386   6.433 -0.3729 -0.0093 -0.0705
  117MOL0     C15341   5.931   2.461   6.430  0.4206  0.2258  1.4894
  117MOL0     O15342   5.919   2.571   6.341  0.2953  0.4196  0.3194
  117MOL0     C15343   5.807   2.642   6.313  1.1710 -0.2496 -0.0495
  117MOL0     C15344   5.673   2.619   6.362  0.4725  0.2386 -0.5643
  117MOL0     C15345   5.557   2.675   6.314 -0.9928 -0.6860 -0.3795
  117MOL0     C15346   5.563   2.772   6.213  0.4188 -0.4077  0.5089
  117MOL0     O15347   5.457   2.831   6.149 -0.2913  1.1752 -0.6805
  117MOL0     C15348   5.318   2.820   6.213 -0.2162 -0.3363 -0.2739
  117MOL0     C15349   5.238   2.933   6.171 -0.0286 -0.3291  0.2658
  117MOL0     C15350   5.272   3.079   6.228  0.1058 -0.2174 -0.9299
  117MOL0     C15351   5.149   3.170   6.221  0.0647  0.0159 -0.2849
  117MOL0     C15352   5.164   3.317   6.262  0.1237 -0.0656  0.3096
  117MOL0     C15353   5.182   3.332   6.411  0.3803  0.1002  0.0385
  117MOL0     C15354   5.207   3.478   6.458  0.7004 -0.4124  1.0494
  117MOL0     C15355   5.259   3.486   6.606 -0.4262 -0.5157  1.4969
  117MOL0    Cl15356   5.229   3.356   6.723 -0.1051  0.0791 -0.1973
  117MOL0     C15357   5.695   2.805   6.174  0.2192 -0.4483  0.9300
  117MOL0     C15358   5.813   2.741   6.219 -0.1612  0.2523  0.5749
  117MOL0     O15359   5.845   2.427   6.502  0.4255 -0.0706  0.2933
  117MOL0     C15360   6.154   2.425   6.352 -0.3979 -0.8259  0.9187
  117MOL0     C15361   6.274   2.358   6.348  0.0675  0.0802 -0.1155
  117MOL0     N15362   6.824   2.027   6.689  1.2126  0.5814 -0.2447
  117MOL0     N15363   6.908   2.022   6.787 -0.0499 -0.8659  0.9966
  117MOL0     C15364   7.962   2.801   7.079  0.4631 -0.1711  0.3583
  117MOL0     C15365   8.080   2.873   7.060 -0.1283 -0.0249  0.6442
  117MOL0     C15366   8.356   3.158   6.802 -0.7215  0.1656 -0.1393
  117MOL0     C15367   8.471   3.074   6.804  0.3380  0.1228 -0.2525
  117MOL0     C15368   8.600   3.113   6.768 -0.8884 -0.2676 -0.9082
  117MOL0     C15369   8.615   3.241   6.706  0.5713 -0.2081  0.1377
  117MOL0     O15370   8.727   3.275   6.639 -0.5141 -0.4456  0.8013
  117MOL0     C15371   8.830   3.313   6.735  0.3904  0.2258  0.5334
  117MOL0     C15372   8.928   3.401   6.673  0.0934  0.3991 -0.1143
  117MOL0     C15373   9.021   3.336   6.568 -0.3601  0.3595 -0.1372
  117MOL0     C15374   9.129   3.238   6.615 -0.1360  1.5249 -0.5708
  117MOL0     C15375   9.222   3.195   6.508 -0.2719  0.3177  1.1248
  117MOL0     C15376   9.290   3.158   6.419 -0.3159  0.0391  0.2223
  117MOL0     C15377   8.501   3.325   6.704 -0.6259  0.0618  0.0270
  117MOL0     C15378   8.375   3.286   6.756 -0.2185 -0.3117 -0.4800
  117MOL0     H15379   8.045   2.960   6.749 -0.1895  2.8846  1.3448
  117MOL0     H15380   7.826   2.823   6.777  1.0886  0.5910 -1.1412
  117MOL0     H15381   7.817   2.511   6.956 -0.9849 -2.2127 -4.5719
  117MOL0     H15382   7.726   2.602   6.841  4.0421 -1.3715 -0.0904
  117MOL0     H15383   7.530   2.593   6.998  0.1585  0.5458 -0.0192
  117MOL0     H15384   7.614   2.468   7.089 -0.0038  1.2943  0.5565
  117MOL0     H15385   7.633   2.353   6.856  0.5161 -0.0580  2.4485
  117MOL0     H15386   7.543   2.494   6.789  1.6181 -0.2558 -0.1810
  117MOL0     H15387   7.438   2.272   6.979  3.3775  1.1065  1.5762
  117MOL0     H15388   7.375   2.444   6.990  1.3717  0.4224  0.4688
  117MOL0     H15389   7.370   2.246   6.762  1.5305  0.3366  1.5730
  117MOL0     H15390   7.335   2.421   6.739  1.0841  0.6413  1.2269
  117MOL0     H15391   7.122   2.323   6.772  0.6181 -2.6671  0.0156
  117MOL0     H15392   7.168   2.391   6.932  1.6348 -0.8853  1.4220
  117MOL0     H15393   7.185   2.098   6.824  0.4218 -0.6201  1.4022
  117MOL0     H15394   7.238   2.163   6.985  1.0898  5.7551  0.5331
  117MOL0     H15395   7.004   2.242   7.018 -0.9000  0.9177 -0.5265
  117MOL0     H15396   7.016   2.068   7.006  1.7754  2.9922  2.6200
  117MOL0     H15397   6.813   2.327   6.839 -1.0738  0.1004 -0.1595
  117MOL0     H15398   6.639   2.305   6.648 -0.1952  0.3967 -0.7142
  117MOL0     H15399   6.581   2.147   6.635 -0.4222 -0.1129 -1.3082
  117MOL0     H15400   6.738   2.094   6.449  1.3021  0.2192  2.2482
  117MOL0     H15401   6.806   2.266   6.466 -1.9785  3.0510  2.1927
  117MOL0     H15402   6.586   2.367   6.397  0.9686  0.7187 -2.3894
  117MOL0     H15403   6.650   2.276   6.281 -1.1660  2.4818 -0.2365
  117MOL0     H15404   6.526   2.062   6.360  0.9305  0.3412  2.8677
  117MOL0     H15405   6.453   2.178   6.257  1.6248  1.7039  0.0142
  117MOL0     H15406   6.213   2.144   6.612  2.0149  1.9442  2.4819
  117MOL0     H15407   5.999   2.280   6.607  0.8422  1.0492 -0.6712
  117MOL0     H15408   5.658   2.553   6.447  0.0885 -0.0167 -0.8266
  117MOL0     H15409   5.463   2.662   6.366 -0.9439 -0.7877 -0.3171
  117MOL0     H15410   5.331   2.820   6.322 -1.5489  2.1370 -0.0567
  117MOL0     H15411   5.272   2.724   6.187  0.7051 -1.7036  2.7111
  117MOL0     H15412   5.136   2.903   6.192  1.0672 -4.1968  0.8557
  117MOL0     H15413   5.248   2.944   6.062  2.8348  0.9970  0.5613
  117MOL0     H15414   5.353   3.129   6.173 -0.9597  0.4851 -1.8962
  117MOL0     H15415   5.310   3.080   6.331  2.7709  0.6515 -1.8184
  117MOL0     H15416   5.116   3.162   6.118  4.6798 -2.2733 -1.8765
  117MOL0     H15417   5.070   3.131   6.287  2.0698 -0.3100  2.1000
  117MOL0     H15418   5.077   3.373   6.228 -1.4448 -1.2462  2.1335
  117MOL0     H15419   5.258   3.348   6.214  0.9483  0.6340  2.2568
  117MOL0     H15420   5.268   3.268   6.432  0.0050 -0.3331  0.2654
  117MOL0     H15421   5.091   3.294   6.459  0.8964  0.5050  1.4020
  117MOL0     H15422   5.278   3.517   6.386 -0.7830 -0.8142 -0.7168
  117MOL0     H15423   5.123   3.547   6.449  2.9781  2.6054  1.5943
  117MOL0     H15424   5.221   3.576   6.655  0.7637 -0.1113  1.6929
  117MOL0     H15425   5.368   3.491   6.605 -0.4451  0.6655 -0.7660
  117MOL0     H15426   5.716   2.894   6.115  1.5728  0.8436  3.2023
  117MOL0     H15427   5.909   2.778   6.185 -1.4087  1.6483 -1.6615
  117MOL0     H15428   6.138   2.518   6.298 -3.5909 -0.5049  2.1926
  117MOL0     H15429   6.352   2.393   6.280  1.8342  1.1296  2.3026
  117MOL0     H15430   7.935   2.766   7.179 -2.8768 -0.0049 -0.3686
  117MOL0     H15431   8.147   2.881   7.145  1.8677  0.7906 -0.9454
  117MOL0     H15432   8.457   2.976   6.849 -2.5203  1.1937  1.4664
  117MOL0     H15433   8.685   3.047   6.775 -0.1038  0.8957  1.6782
  117MOL0     H15434   8.884   3.221   6.758 -0.5101 -0.3495  0.4002
  117MOL0     H15435   8.796   3.349   6.833  0.9270 -1.7732  1.5073
  117MOL0     H15436   8.870   3.482   6.629 -2.1034 -0.1262  1.5791
  117MOL0     H15437   8.991   3.446   6.750 -0.5970  1.3198 -0.0695
  117MOL0     H15438   9.062   3.409   6.499  1.0890 -0.4474 -0.1699
  117MOL0     H15439   8.969   3.269   6.498  1.2008 -3.0435  1.7096
  117MOL0     H15440   9.192   3.277   6.696  1.0461 -1.9928  0.4224
  117MOL0     H15441   9.074   3.148   6.645 -0.2339  2.8806  4.0972
  117MOL0     H15442   9.342   3.124   6.331 -1.4170 -1.1856  0.0085
  117MOL0     H15443   8.513   3.423   6.659 -1.3823 -0.2829 -0.9773
  117MOL0     H15444   8.297   3.360   6.742  0.5335  0.9716  1.5918
  118MOL0     O15445   2.515   4.002   7.253 -0.5268 -0.4765  0.6129
  118MOL0     C15446   2.576   3.900   7.268 -0.1453 -0.2070  0.1747
  118MOL0     O15447   2.513   3.782   7.287 -0.2452 -0.8518 -0.7942
  118MOL0     C15448   2.380   3.768   7.295  0.1964 -0.2266  0.4515
  118MOL0     C15449   2.277   3.856   7.335  0.5143 -0.3421 -0.1597
  118MOL0     C15450   2.138   3.818   7.321  0.3273 -0.7238  0.1314
  118MOL0     C15451   2.098   3.706   7.253 -0.1722  0.2295 -0.3691
  118MOL0     O15452   1.970   3.670   7.242 -0.3035  0.3193  0.0893
  118MOL0     C15453   1.861   3.755   7.287  0.0465  0.0951  0.3065
  118MOL0     C15454   1.731   3.693   7.228  0.9638  0.2379 -0.7621
  118MOL0     C15455   1.691   3.546   7.267  0.6251 -0.0771  0.2774
  118MOL0     C15456   1.565   3.492   7.200 -0.8526  0.0528  0.4032
  118MOL0     C15457   1.589   3.426   7.056 -0.0408 -0.4095 -0.1016
  118MOL0     C15458   1.466   3.390   6.985  1.1948  0.0287 -0.5516
  118MOL0     C15459   1.339   3.342   7.067  0.3648  0.0022  0.3820
  118MOL0     C15460   1.369   3.212   7.145 -0.2174 -0.5590 -0.0066
  118MOL0     N15461   1.265   3.185   7.256 -0.2653 -0.4986  1.0852
  118MOL0     C15462   1.145   3.131   7.226  1.5428 -0.5804 -1.2753
  118MOL0     C15463   1.086   3.093   7.345 -0.1828  0.1398  1.0380
  118MOL0     C15464   0.952   3.039   7.365 -0.5116  1.2982  0.7661
  118MOL0     C15465   0.846   3.148   7.369 -0.1443  0.4935 -0.3500
  118MOL0     C15466   0.847   3.245   7.252  0.0217 -0.1342 -0.2687
  118MOL0     C15467   0.736   3.348   7.244 -1.0715 -0.1368  0.3525
  118MOL0     O15468   0.621   3.300   7.177  0.0799 -0.2502  0.0802
  118MOL0     C15469   0.504   3.288   7.247  0.1834  0.5865  0.8566
  118MOL0     C15470   0.428   3.169   7.254 -0.1798  0.3385  0.8339
  118MOL0     C15471   0.309   3.154   7.330 -0.2083  0.3548  1.0805
  118MOL0     C15472   0.261   3.273   7.403 -0.7354  0.3977  0.1675
  118MOL0     C15473   0.154   3.272   7.502 -0.0077  0.6278  0.2254
  118MOL0     O15474   0.085   3.153   7.508 -0.7792 -0.0634 -0.2774
  118MOL0     C15475   0.003   3.133   7.617 -0.6751 -0.0593  0.5112
  118MOL0     C15476   0.038   3.042   7.717 -0.7012  0.0141 -0.0927
  118MOL0     C15477  -0.053   3.016   7.817 -0.3903 -0.0689 -0.4925
  118MOL0     C15478  -0.176   3.076   7.818  0.5536  0.2384  0.4228
  118MOL0     O15479  -0.266   3.044   7.915 -0.4571  0.0475 -0.1636
  118MOL0     C15480  -0.386   3.122   7.939  0.2685 -0.6444  0.3788
  118MOL0     C15481  -0.508   3.051   7.866 -0.6992 -0.7865  0.0139
  118MOL0     C15482  -0.651   3.106   7.903  0.4117  0.6925  0.4101
  118MOL0     C15483  -0.764   3.045   7.824 -0.5592  0.5512 -0.8355
  118MOL0     C15484  -0.894   3.113   7.863  0.9396  0.9257  0.4909
  118MOL0     C15485  -0.991   3.098   7.751  1.3288 -0.6797  0.0567
  118MOL0     C15486  -1.126   3.165   7.771 -0.3731  0.2286  0.1189
  118MOL0     C15487  -1.229   3.122   7.653 -0.4233  0.1839 -0.0873
  118MOL0    Cl15488  -1.297   2.958   7.693 -0.4600  0.1292  0.2877
  118MOL0     C15489  -0.213   3.170   7.719 -0.6673  0.1808  0.0611
  118MOL0     C15490  -0.119   3.194   7.617  0.0419 -0.5882  0.6046
  118MOL0     O15491   0.152   3.370   7.580 -0.3630 -0.1164 -1.0309
  118MOL0     C15492   0.340   3.395   7.393  0.6107  0.1548 -0.0535
  118MOL0     C15493   0.458   3.405   7.317  0.4274  0.0055  0.6805
  118MOL0     N15494   1.178   3.129   7.434 -0.1730  0.5945 -0.0604
  118MOL0     N15495   1.281   3.193   7.389 -0.6682  1.0090  0.6034
  118MOL0     C15496   2.207   3.622   7.210  1.1180 -0.0518 -0.1471
  118MOL0     C15497   2.341   3.647   7.233  0.7786 -0.4295 -0.9691
  118MOL0     C15498   2.724   3.896   7.271  0.7433 -0.4473  0.6066
  118MOL0     C15499   2.786   3.781   7.317 -0.3822 -0.2211  0.8482
  118MOL0     C15500   2.921   3.770   7.311 -0.1685  0.1172  0.0101
  118MOL0     C15501   2.996   3.873   7.260 -0.3770  0.0754  0.2121
  118MOL0     O15502   3.135   3.850   7.265  0.2249 -1.1677 -0.4470
  118MOL0     C15503   3.228   3.953   7.225 -0.3840  0.9973 -0.5527
  118MOL0     C15504   3.258   3.954   7.072 -0.4745  0.5971  0.0499
  118MOL0     C15505   3.362   4.062   7.035  0.5585 -0.2331  0.2020
  118MOL0     C15506   3.296   4.165   6.948  0.5175  0.5731 -0.1665
  118MOL0     C15507   3.182   4.237   7.015 -0.5571 -0.4201  1.1134
  118MOL0     C15508   3.087   4.289   7.076 -0.4507  0.0584 -0.1985
  118MOL0     C15509   2.929   3.992   7.203  0.0581 -0.8462 -1.2998
  118MOL0     C15510   2.791   4.005   7.228  0.3465  0.4972 -0.2308
  118MOL0     H15511   2.307   3.947   7.386  0.3800 -1.5459  2.1593
  118MOL0     H15512   2.068   3.879   7.377  1.6919 -0.5806  1.7238
  118MOL0     H15513   1.878   3.858   7.256 -1.8117  1.6204  3.8093
  118MOL0     H15514   1.856   3.746   7.396 -0.2135 -2.7961  0.1549
  118MOL0     H15515   1.738   3.692   7.119  0.0593 -2.4706 -0.8445
  118MOL0     H15516   1.652   3.757   7.269  1.0309 -2.0158  3.3601
  118MOL0     H15517   1.681   3.538   7.376 -0.3319 -2.6464  0.0684
  118MOL0     H15518   1.781   3.492   7.238  0.6475  0.8249 -1.4469
  118MOL0     H15519   1.523   3.419   7.269 -2.8400 -0.6073 -1.3853
  118MOL0     H15520   1.497   3.577   7.195 -0.1250  0.5867 -3.1885
  118MOL0     H15521   1.651   3.336   7.059  2.1927  1.0070 -1.3732
  118MOL0     H15522   1.649   3.488   6.989 -1.6491  0.3432 -0.9150
  118MOL0     H15523   1.498   3.320   6.908 -0.3790  0.0935 -1.3057
  118MOL0     H15524   1.431   3.472   6.922  2.5421  0.7896 -0.3357
  118MOL0     H15525   1.303   3.422   7.133 -0.5572  2.4767 -2.8285
  118MOL0     H15526   1.256   3.312   7.003 -0.0458 -0.0951  0.9582
  118MOL0     H15527   1.465   3.221   7.197 -0.1533  1.7125 -0.4011
  118MOL0     H15528   1.370   3.136   7.067  1.7706 -0.1709 -0.4315
  118MOL0     H15529   1.094   3.117   7.132 -0.3018 -3.4621  0.0067
  118MOL0     H15530   0.959   2.985   7.460 -0.1786  0.4956  0.2946
  118MOL0     H15531   0.921   2.977   7.281 -1.5255  0.4332  1.7642
  118MOL0     H15532   0.864   3.197   7.465 -0.5626  2.8819 -1.4067
  118MOL0     H15533   0.745   3.107   7.366  0.1665 -0.3237 -0.0316
  118MOL0     H15534   0.938   3.304   7.239  1.3531 -2.5235 -2.8034
  118MOL0     H15535   0.846   3.182   7.162 -0.3295  0.8885 -0.9923
  118MOL0     H15536   0.778   3.427   7.181  0.6537 -2.5426 -1.6967
  118MOL0     H15537   0.710   3.386   7.343  2.3994  2.3704  0.4857
  118MOL0     H15538   0.444   3.085   7.187  0.4373  1.1976 -0.1256
  118MOL0     H15539   0.243   3.069   7.317 -0.8747  0.8711  1.0098
  118MOL0     H15540   0.139   3.003   7.712  1.2501  4.2596  1.1891
  118MOL0     H15541  -0.025   2.949   7.898  0.2301 -1.6200 -1.9229
  118MOL0     H15542  -0.371   3.224   7.903 -0.6306 -0.1137  1.4277
  118MOL0     H15543  -0.408   3.133   8.046  0.1784  0.7264  0.2401
  118MOL0     H15544  -0.492   2.948   7.901  0.5495 -0.2980  0.9768
  118MOL0     H15545  -0.499   3.056   7.757 -0.2726  1.0969  0.0982
  118MOL0     H15546  -0.646   3.214   7.882 -2.5453  0.7138 -0.6079
  118MOL0     H15547  -0.666   3.108   8.011  0.5864  3.4028  0.4617
  118MOL0     H15548  -0.737   3.084   7.726  3.2640  0.8074  0.1634
  118MOL0     H15549  -0.767   2.936   7.815 -0.7394  0.3933  0.7517
  118MOL0     H15550  -0.880   3.221   7.868  2.2147  0.8058 -0.0343
  118MOL0     H15551  -0.942   3.079   7.955 -2.2605  0.5166 -1.1719
  118MOL0     H15552  -1.011   2.992   7.735 -1.9346 -0.4387  1.7971
  118MOL0     H15553  -0.948   3.138   7.659 -0.5088 -3.1420 -2.0065
  118MOL0     H15554  -1.159   3.132   7.869  3.1649 -1.2462  0.9955
  118MOL0     H15555  -1.124   3.275   7.774  0.9286  0.5308 -4.0363
  118MOL0     H15556  -1.183   3.125   7.554 -1.5226  2.7425 -0.6219
  118MOL0     H15557  -1.307   3.197   7.635  1.0072  1.1678 -2.6879
  118MOL0     H15558  -0.310   3.215   7.700  0.0496  1.0760 -1.8050
  118MOL0     H15559  -0.150   3.256   7.534  0.5979 -1.9180 -0.6310
  118MOL0     H15560   0.317   3.475   7.464 -1.1904 -1.9186  1.8600
  118MOL0     H15561   0.519   3.495   7.314  2.3541 -1.2522  0.7355
  118MOL0     H15562   2.166   3.536   7.158 -0.0049  0.5009 -0.2178
  118MOL0     H15563   2.416   3.581   7.192  0.3818 -3.4403  2.6043
  118MOL0     H15564   2.730   3.694   7.348  1.1665 -1.1560  1.1286
  118MOL0     H15565   2.979   3.683   7.340 -2.1424 -1.7179 -1.2417
  118MOL0     H15566   3.323   3.931   7.274  0.0171  0.2780 -1.6197
  118MOL0     H15567   3.188   4.050   7.256  1.8595  1.2218  1.9026
  118MOL0     H15568   3.307   3.860   7.047 -0.2728 -0.0711  2.6342
  118MOL0     H15569   3.161   3.969   7.024 -0.2545 -0.5200 -0.7691
  118MOL0     H15570   3.433   4.007   6.973 -1.7454 -4.3546  0.8614
  118MOL0     H15571   3.419   4.105   7.118  0.9568  0.6377 -0.5034
  118MOL0     H15572   3.376   4.232   6.913 -0.4224  0.8210 -1.9906
  118MOL0     H15573   3.272   4.098   6.864 -0.6123  0.0191  0.5725
  118MOL0     H15574   2.997   4.317   7.126  2.0067  1.0121  4.2811
  118MOL0     H15575   2.987   4.069   7.153 -0.7440  1.2432  0.8159
  118MOL0     H15576   2.754   4.098   7.187 -1.3990  0.6133  1.4982
  119MOL0     O15577   9.788   8.105   0.280 -0.2368  0.5819  0.1022
  119MOL0     C15578   9.783   8.218   0.227 -0.5743  0.2065  0.0008
  119MOL0     O15579   9.681   8.266   0.157 -0.6603 -0.2319  0.1944
  119MOL0     C15580   9.571   8.201   0.111 -1.2371  0.2752  1.1633
  119MOL0     C15581   9.474   8.294   0.069 -0.7366 -0.8266 -0.7476
  119MOL0     C15582   9.363   8.251   0.016  0.6653  0.5723 -0.2183
  119MOL0     C15583   9.334   8.115  -0.001 -0.2643  0.1649  0.1441
  119MOL0     O15584   9.206   8.092  -0.050 -0.4731  0.3107  0.0279
  119MOL0     C15585   9.147   7.959  -0.033 -0.9673  0.2240 -0.6758
  119MOL0     C15586   9.097   7.940   0.112 -0.3640 -0.9789  0.2125
  119MOL0     C15587   9.039   7.799   0.116 -0.2005 -0.2880  0.6477
  119MOL0     C15588   8.994   7.759   0.256 -0.9145 -0.0377 -0.4347
  119MOL0     C15589   8.932   7.618   0.275 -0.0957  0.9420 -0.8531
  119MOL0     C15590   8.824   7.579   0.178  0.0951 -0.1581 -0.3085
  119MOL0     C15591   8.714   7.686   0.190 -0.3614 -0.4414 -0.9124
  119MOL0     C15592   8.592   7.650   0.094  0.1569  0.1359 -0.2809
  119MOL0     N15593   8.529   7.512   0.116  0.0185 -0.1656  1.2128
  119MOL0     C15594   8.539   7.435   0.223  0.3585  0.0666  0.4283
  119MOL0     C15595   8.482   7.319   0.189  0.5747  0.0951  0.6758
  119MOL0     C15596   8.476   7.194   0.280 -0.1122  0.0869 -0.1009
  119MOL0     C15597   8.366   7.178   0.376  0.2544 -0.0754 -0.1094
  119MOL0     C15598   8.353   7.036   0.433 -0.1113 -0.3732  0.0780
  119MOL0     C15599   8.255   7.041   0.544 -0.1629 -0.6084  0.2410
  119MOL0     O15600   8.133   6.973   0.515 -0.3357  0.4593  0.9286
  119MOL0     C15601   8.120   6.844   0.565 -0.4847  0.5529 -0.0734
  119MOL0     C15602   8.081   6.746   0.478  0.2067 -0.8110 -0.3236
  119MOL0     C15603   8.048   6.621   0.521  0.0579 -0.1895  0.2174
  119MOL0     C15604   8.046   6.595   0.657  0.4722 -0.6223 -0.4178
  119MOL0     C15605   7.985   6.465   0.702  0.1474  0.0614 -0.6129
  119MOL0     O15606   7.997   6.445   0.841 -0.2274 -0.1984 -1.1411
  119MOL0     C15607   7.975   6.310   0.882 -0.2119  0.1158  0.2087
  119MOL0     C15608   7.871   6.225   0.840 -0.1938 -0.1946 -0.2377
  119MOL0     C15609   7.853   6.103   0.900  0.8788  0.5937  0.4218
  119MOL0     C15610   7.928   6.057   1.007  0.6795  0.0062 -0.4358
  119MOL0     O15611   7.881   5.956   1.081  0.8179 -0.7227 -0.3819
  119MOL0     C15612   7.975   5.886   1.156 -0.0060 -0.2194 -0.0196
  119MOL0     C15613   7.912   5.760   1.204 -0.6125  0.4106  0.1953
  119MOL0     C15614   7.835   5.790   1.328  0.5796  0.2753  0.0445
  119MOL0     C15615   7.725   5.687   1.368 -0.6049 -0.0819 -0.6801
  119MOL0     C15616   7.789   5.547   1.390  0.4288 -0.1191  0.6610
  119MOL0     C15617   7.679   5.457   1.450 -0.1994  0.5593 -0.6582
  119MOL0     C15618   7.728   5.315   1.491  0.4071  0.7214  0.0923
  119MOL0     C15619   7.829   5.255   1.394 -0.1550 -0.1243 -0.9736
  119MOL0    Cl15620   7.886   5.092   1.466  0.0247 -0.2579 -0.1757
  119MOL0     C15621   8.038   6.141   1.048 -0.3945  0.0488 -0.1932
  119MOL0     C15622   8.059   6.268   0.989  0.0216  0.0769  0.5780
  119MOL0     O15623   7.945   6.375   0.623  0.1444  0.3432  0.5657
  119MOL0     C15624   8.090   6.691   0.749  0.2304 -0.0274  0.3500
  119MOL0     C15625   8.122   6.818   0.706  0.1599 -0.1516 -0.2197
  119MOL0     N15626   8.443   7.317   0.054 -0.8417  0.5357 -0.1878
  119MOL0     N15627   8.473   7.438   0.017  0.7754  1.0082 -0.3966
  119MOL0     C15628   9.425   8.022   0.043 -1.0178  0.5545  1.0185
  119MOL0     C15629   9.548   8.066   0.094 -0.0675  0.0305  0.6534
  119MOL0     C15630   9.902   8.300   0.240  0.0611 -0.4966 -0.5304
  119MOL0     C15631  10.022   8.240   0.273  0.1314  0.6314 -0.6916
  119MOL0     C15632  10.136   8.318   0.302  0.1663  0.0007 -0.5987
  119MOL0     C15633  10.137   8.458   0.296  1.1427 -0.2074 -0.8112
  119MOL0     O15634  10.257   8.532   0.325 -0.5536  0.0305 -0.4665
  119MOL0     C15635  10.279   8.530   0.468  1.0762 -0.1764 -0.4302
  119MOL0     C15636  10.395   8.616   0.497 -0.2977 -0.6060 -0.1016
  119MOL0     C15637  10.459   8.612   0.634 -0.1496  0.9521 -0.0499
  119MOL0     C15638  10.521   8.479   0.671 -0.3044 -0.1052 -0.7807
  119MOL0     C15639  10.618   8.442   0.571  0.3168 -0.6157 -0.1675
  119MOL0     C15640  10.696   8.393   0.493 -0.8746 -0.4228 -0.3687
  119MOL0     C15641  10.010   8.511   0.261  0.1732 -0.6769 -0.2505
  119MOL0     C15642   9.901   8.438   0.230 -1.0231 -0.8456  0.1704
  119MOL0     H15643   9.503   8.398   0.069 -0.8651 -0.7907 -1.1493
  119MOL0     H15644   9.282   8.318  -0.011  0.3865  0.3369  0.0267
  119MOL0     H15645   9.217   7.877  -0.052 -0.6005 -0.8094  3.9819
  119MOL0     H15646   9.061   7.948  -0.100 -0.3944 -0.6327 -1.2941
  119MOL0     H15647   9.026   8.022   0.123  1.3211  0.8097 -1.4637
  119MOL0     H15648   9.172   7.956   0.190 -0.5635  4.4397 -0.3418
  119MOL0     H15649   9.111   7.727   0.077  1.1337  1.9775 -1.3254
  119MOL0     H15650   8.947   7.812   0.059 -0.0283  1.6484  0.7362
  119MOL0     H15651   9.088   7.751   0.310 -2.1475  0.6060  1.9636
  119MOL0     H15652   8.930   7.836   0.301 -2.2829 -0.0836 -2.1614
  119MOL0     H15653   8.901   7.598   0.378  3.7194 -2.3442 -0.1008
  119MOL0     H15654   9.011   7.542   0.276 -0.2636  0.7536  0.8068
  119MOL0     H15655   8.780   7.480   0.195 -1.7641 -0.2403 -4.5251
  119MOL0     H15656   8.858   7.589   0.075 -0.0018  0.6098 -0.2680
  119MOL0     H15657   8.678   7.682   0.293  1.1393  0.2802 -0.3339
  119MOL0     H15658   8.749   7.789   0.176 -0.5321  0.0146  1.6014
  119MOL0     H15659   8.638   7.632  -0.003 -1.3895 -4.1731 -0.4150
  119MOL0     H15660   8.516   7.729   0.089 -2.3271 -2.2213 -2.5847
  119MOL0     H15661   8.585   7.469   0.315  0.6948 -0.9909  0.6619
  119MOL0     H15662   8.571   7.195   0.333 -0.5887  0.1152  0.7740
  119MOL0     H15663   8.470   7.103   0.220 -1.0548 -1.0613  1.6485
  119MOL0     H15664   8.272   7.212   0.331 -0.2843 -2.1233 -0.6309
  119MOL0     H15665   8.379   7.250   0.457  3.6852  0.0821 -0.6470
  119MOL0     H15666   8.309   6.963   0.364 -1.8987 -2.1565  2.8978
  119MOL0     H15667   8.446   6.989   0.466  0.9281 -0.1459 -2.3594
  119MOL0     H15668   8.230   7.142   0.576 -1.8837 -0.2253 -2.0201
  119MOL0     H15669   8.295   6.988   0.631 -0.8394  0.3769  1.1828
  119MOL0     H15670   8.060   6.788   0.380 -0.2794 -1.8881 -0.6916
  119MOL0     H15671   8.010   6.539   0.460 -1.8773  1.1267 -0.4457
  119MOL0     H15672   7.804   6.243   0.757  1.2015  0.9097 -1.1664
  119MOL0     H15673   7.773   6.038   0.866  0.6133  2.2420 -2.4002
  119MOL0     H15674   8.000   5.947   1.244 -0.6674  0.2020 -0.1130
  119MOL0     H15675   8.067   5.860   1.105  0.2575  1.6778 -0.5858
  119MOL0     H15676   7.987   5.683   1.226 -3.1133 -2.1632  0.3678
  119MOL0     H15677   7.852   5.721   1.121  0.9083 -0.9562 -0.3083
  119MOL0     H15678   7.783   5.887   1.323  0.8112  0.5654  2.1105
  119MOL0     H15679   7.904   5.790   1.413  0.8510  1.2730 -0.1657
  119MOL0     H15680   7.684   5.717   1.465  0.4770 -1.2579  0.1750
  119MOL0     H15681   7.651   5.690   1.288  0.4343 -1.5176 -1.7381
  119MOL0     H15682   7.866   5.564   1.465  1.7347 -3.7258  0.3070
  119MOL0     H15683   7.834   5.510   1.297 -0.2221 -0.7396  0.5776
  119MOL0     H15684   7.613   5.437   1.365 -1.3810  1.9058 -0.0984
  119MOL0     H15685   7.623   5.499   1.533 -0.8575 -1.5500  0.0243
  119MOL0     H15686   7.779   5.318   1.587  1.7075  1.0227 -0.5860
  119MOL0     H15687   7.650   5.238   1.494  2.9826 -2.2798 -2.4695
  119MOL0     H15688   7.916   5.320   1.381 -1.8385  2.1441 -1.4404
  119MOL0     H15689   7.789   5.236   1.293  0.0693 -2.0724 -0.7437
  119MOL0     H15690   8.080   6.130   1.148  1.1741  0.4038 -0.7875
  119MOL0     H15691   8.133   6.340   1.024 -1.9218  1.1941  2.6422
  119MOL0     H15692   8.087   6.671   0.856  0.8301 -1.1551  0.1803
  119MOL0     H15693   8.162   6.893   0.772  1.2712 -0.2428 -0.7597
  119MOL0     H15694   9.416   7.914   0.041  1.1915  0.3204  1.2058
  119MOL0     H15695   9.615   7.986   0.121 -1.9811 -1.1926  1.9617
  119MOL0     H15696  10.022   8.132   0.275 -2.0971  0.5191 -2.3849
  119MOL0     H15697  10.234   8.277   0.324  0.8912  2.5944  1.4967
  119MOL0     H15698  10.310   8.430   0.501  4.1947  1.5433  2.5237
  119MOL0     H15699  10.191   8.568   0.519  2.3287  3.0566 -0.4036
  119MOL0     H15700  10.479   8.604   0.427  1.4301  4.7248  0.5424
  119MOL0     H15701  10.362   8.717   0.470  2.6054  0.4374 -0.0650
  119MOL0     H15702  10.388   8.654   0.706 -1.4791 -0.8376 -0.2360
  119MOL0     H15703  10.537   8.688   0.630  1.2180 -0.3603  0.5772
  119MOL0     H15704  10.574   8.490   0.766  0.1982  0.2099 -1.0881
  119MOL0     H15705  10.455   8.396   0.695  0.5738 -0.2391  1.3153
  119MOL0     H15706  10.775   8.354   0.432  0.6849 -2.3928  2.6353
  119MOL0     H15707  10.006   8.619   0.260  0.7632 -0.6415 -1.7239
  119MOL0     H15708   9.808   8.482   0.195 -2.6990 -4.3753 -0.3079
  120MOL0     O15709   8.655   0.781   5.953 -0.4667 -0.1064  0.3589
  120MOL0     C15710   8.703   0.812   5.848  0.1162 -0.1050  0.1667
  120MOL0     O15711   8.632   0.836   5.733 -0.3824 -0.2689  0.5379
  120MOL0     C15712   8.496   0.841   5.729  0.0466 -0.8553  0.1014
  120MOL0     C15713   8.449   0.941   5.647 -0.0825 -0.1362 -0.0891
  120MOL0     C15714   8.313   0.952   5.630  0.6430  0.8246 -0.0001
  120MOL0     C15715   8.222   0.858   5.681 -0.1704 -0.0520  0.4364
  120MOL0     O15716   8.085   0.879   5.668 -0.5962 -0.0143  0.5907
  120MOL0     C15717   7.989   0.867   5.778 -0.7515  0.2111  0.0790
  120MOL0     C15718   7.863   0.956   5.764 -0.1388  0.0686 -1.4246
  120MOL0     C15719   7.760   0.908   5.852 -0.2841 -0.6890  0.4761
  120MOL0     C15720   7.636   1.004   5.862  0.1273 -0.1073 -0.8229
  120MOL0     C15721   7.516   0.936   5.945  0.1456  0.0657  0.1617
  120MOL0     C15722   7.466   0.797   5.906 -0.5319 -0.4905  0.0718
  120MOL0     C15723   7.398   0.791   5.771  1.0596 -0.1727 -0.0472
  120MOL0     C15724   7.388   0.662   5.696  0.4255 -0.3633  0.4047
  120MOL0     N15725   7.248   0.637   5.664  0.2807  0.4597 -0.1490
  120MOL0     C15726   7.138   0.636   5.748  0.5296 -0.0066 -0.1622
  120MOL0     C15727   7.031   0.619   5.674 -0.2809 -0.2398 -0.0845
  120MOL0     C15728   6.885   0.618   5.712  0.5044 -0.7441  0.0479
  120MOL0     C15729   6.837   0.767   5.739  0.3138  0.1554 -0.2761
  120MOL0     C15730   6.825   0.866   5.620  0.9943  0.2548 -0.4895
  120MOL0     C15731   6.953   0.942   5.593  0.0481  0.1773  0.3061
  120MOL0     O15732   6.950   1.063   5.665 -0.1403 -0.0402 -0.2677
  120MOL0     C15733   7.066   1.147   5.666 -0.3211  1.5741 -0.1817
  120MOL0     C15734   7.051   1.286   5.694 -0.8824 -0.2322  0.0439
  120MOL0     C15735   7.163   1.368   5.691  0.4541 -0.0560 -0.7338
  120MOL0     C15736   7.299   1.322   5.661  0.2237  0.9998 -0.0711
  120MOL0     C15737   7.411   1.407   5.695  0.1478  0.5878  0.6805
  120MOL0     O15738   7.537   1.352   5.680 -0.7712 -0.5197  0.2119
  120MOL0     C15739   7.653   1.412   5.731  0.3440  0.3511  0.0406
  120MOL0     C15740   7.771   1.362   5.672 -0.5688  0.1746  0.6702
  120MOL0     C15741   7.897   1.415   5.703 -1.1891 -0.2159  0.9472
  120MOL0     C15742   7.912   1.514   5.797 -0.3335 -0.2796 -0.7384
  120MOL0     O15743   8.032   1.570   5.818  0.5616 -0.0064 -0.1781
  120MOL0     C15744   8.090   1.659   5.714  0.4511  0.5495  0.1324
  120MOL0     C15745   8.233   1.690   5.747  0.0997 -1.5259 -0.2830
  120MOL0     C15746   8.335   1.571   5.740  0.5606  0.4298 -0.3525
  120MOL0     C15747   8.339   1.498   5.609 -0.0149  0.1771 -0.4276
  120MOL0     C15748   8.426   1.370   5.624  0.2291 -0.0727 -0.0275
  120MOL0     C15749   8.565   1.386   5.701  0.0438  0.5161 -0.0902
  120MOL0     C15750   8.652   1.261   5.687 -0.0329  1.2212  0.8359
  120MOL0     C15751   8.780   1.267   5.772  0.6513 -0.4722 -0.2556
  120MOL0    Cl15752   8.739   1.258   5.948 -0.3286 -0.4102  0.0223
  120MOL0     C15753   7.793   1.568   5.859 -0.0767 -0.4611  0.6232
  120MOL0     C15754   7.668   1.504   5.832 -0.0499 -0.4518  1.2570
  120MOL0     O15755   7.385   1.510   5.756 -0.8418  0.4564 -0.1724
  120MOL0     C15756   7.303   1.193   5.614  0.0213 -0.2756 -0.6905
  120MOL0     C15757   7.187   1.112   5.609 -0.9909 -0.6694 -0.7805
  120MOL0     N15758   7.067   0.613   5.543 -0.3011  0.4150  1.2542
  120MOL0     N15759   7.194   0.621   5.533  0.9130  0.0714 -0.3156
  120MOL0     C15760   8.276   0.752   5.762  0.3347 -0.8984  0.0851
  120MOL0     C15761   8.411   0.750   5.794  1.0972  0.6211 -0.7772
  120MOL0     C15762   8.852   0.831   5.852 -0.0665  0.2674 -0.5006
  120MOL0     C15763   8.928   0.776   5.961 -0.3008  0.0413  0.3165
  120MOL0     C15764   9.070   0.807   5.968 -0.5878  0.3894  0.0259
  120MOL0     C15765   9.145   0.864   5.857  0.6533 -0.6018  0.2438
  120MOL0     O15766   9.283   0.879   5.852  0.3502  0.1590 -0.9255
  120MOL0     C15767   9.352   0.867   5.976 -0.0544 -0.0318 -0.2103
  120MOL0     C15768   9.500   0.907   5.980  0.0799 -0.4429  0.0391
  120MOL0     C15769   9.536   1.058   5.954 -0.0599 -0.5797  0.2723
  120MOL0     C15770   9.518   1.142   6.081  0.5204 -0.3692 -0.9625
  120MOL0     C15771   9.375   1.174   6.107  0.6108  1.1463  0.6706
  120MOL0     C15772   9.258   1.207   6.118 -0.6337  0.0143  0.0691
  120MOL0     C15773   9.067   0.892   5.742  0.2778 -0.6114 -0.1282
  120MOL0     C15774   8.924   0.879   5.743  0.0471  0.6196 -0.2652
  120MOL0     H15775   8.528   0.998   5.600  0.1811 -0.1424  0.3527
  120MOL0     H15776   8.277   1.035   5.570  1.5808  2.0196  1.0372
  120MOL0     H15777   8.047   0.879   5.869  1.7534 -3.0378 -0.8925
  120MOL0     H15778   7.951   0.764   5.776 -4.3250  1.3813 -0.2294
  120MOL0     H15779   7.831   0.952   5.659 -0.4310 -0.1176 -1.3268
  120MOL0     H15780   7.895   1.060   5.773  1.7113 -0.5447 -0.3578
  120MOL0     H15781   7.789   0.903   5.958 -2.0558 -0.8573  0.9941
  120MOL0     H15782   7.735   0.810   5.812 -0.9044 -0.2802 -0.1618
  120MOL0     H15783   7.677   1.098   5.900  0.5132 -0.3392 -0.6585
  120MOL0     H15784   7.605   1.021   5.759  0.3280  5.7389 -0.2241
  120MOL0     H15785   7.427   0.999   5.933  0.1227  0.0491  0.2455
  120MOL0     H15786   7.529   0.935   6.053 -4.5852  0.1595  0.9473
  120MOL0     H15787   7.395   0.765   5.983 -0.0955  1.0979  1.1976
  120MOL0     H15788   7.547   0.724   5.908 -1.0100 -1.1846 -2.5215
  120MOL0     H15789   7.304   0.845   5.787  1.5080  0.6534 -0.1379
  120MOL0     H15790   7.467   0.851   5.711  2.4325  0.8864  2.4774
  120MOL0     H15791   7.413   0.572   5.752 -1.7119 -0.3020  1.5493
  120MOL0     H15792   7.448   0.656   5.604  0.5405  0.0254  0.4513
  120MOL0     H15793   7.140   0.658   5.854  4.1344 -0.4404 -0.0102
  120MOL0     H15794   6.870   0.562   5.805  3.0866  1.9130  2.2915
  120MOL0     H15795   6.834   0.577   5.624 -0.5876 -1.7478  1.1065
  120MOL0     H15796   6.901   0.821   5.810  1.5010 -1.1987 -0.2849
  120MOL0     H15797   6.737   0.759   5.782  1.6282 -1.7728  2.7833
  120MOL0     H15798   6.799   0.818   5.525  0.1697  2.2174 -1.3157
  120MOL0     H15799   6.743   0.938   5.628 -0.8166 -1.8857  3.3588
  120MOL0     H15800   6.975   0.955   5.487 -2.9077 -1.1818 -0.5856
  120MOL0     H15801   7.036   0.876   5.618  3.2244  3.3241 -1.1400
  120MOL0     H15802   6.954   1.327   5.718 -2.2517 -2.2912 -1.5108
  120MOL0     H15803   7.128   1.467   5.717 -3.6068 -1.9015  1.7747
  120MOL0     H15804   7.765   1.280   5.601  1.9187  0.1054  0.4541
  120MOL0     H15805   7.983   1.395   5.640 -3.7290 -4.6361 -1.6270
  120MOL0     H15806   8.039   1.756   5.717  0.9441  0.8722 -1.0897
  120MOL0     H15807   8.071   1.635   5.609 -4.3883  0.8256  0.7327
  120MOL0     H15808   8.247   1.732   5.847  2.0198 -2.3284 -0.1636
  120MOL0     H15809   8.273   1.764   5.676  2.2811 -3.3394 -1.0499
  120MOL0     H15810   8.316   1.503   5.824  1.9270  0.0859 -0.2972
  120MOL0     H15811   8.440   1.599   5.755  1.2442 -1.6622 -0.9734
  120MOL0     H15812   8.234   1.473   5.587 -0.7111  2.0627  0.5359
  120MOL0     H15813   8.381   1.558   5.527  2.0687 -0.9790 -0.2666
  120MOL0     H15814   8.442   1.330   5.523 -3.6219 -1.4264 -0.2666
  120MOL0     H15815   8.363   1.295   5.674 -4.4609  3.3174 -0.2203
  120MOL0     H15816   8.539   1.421   5.801  0.0098  0.7369 -0.1757
  120MOL0     H15817   8.618   1.471   5.655 -3.0161  0.8600 -3.4501
  120MOL0     H15818   8.599   1.169   5.716  1.3033  0.6348  1.4821
  120MOL0     H15819   8.678   1.251   5.581 -1.8830 -4.3060  0.5629
  120MOL0     H15820   8.829   1.363   5.753 -1.1882  0.3025 -1.3829
  120MOL0     H15821   8.841   1.181   5.746  1.8337 -0.2087  1.4678
  120MOL0     H15822   7.795   1.658   5.919  1.0275  0.4263 -0.6853
  120MOL0     H15823   7.584   1.520   5.900 -0.5353  0.5849  0.4428
  120MOL0     H15824   7.396   1.144   5.589 -0.1589 -1.2972  0.5410
  120MOL0     H15825   7.203   1.013   5.569  0.0583 -0.1485 -1.7178
  120MOL0     H15826   8.207   0.677   5.798  1.5750 -2.4479 -0.5855
  120MOL0     H15827   8.460   0.688   5.869  2.8110  2.3883 -0.3537
  120MOL0     H15828   8.898   0.690   6.020  2.0685 -1.9919 -1.1955
  120MOL0     H15829   9.126   0.771   6.054  0.5396 -0.7712 -1.1654
  120MOL0     H15830   9.355   0.762   6.004 -1.7383 -0.7522 -2.4420
  120MOL0     H15831   9.299   0.920   6.056  1.0564  0.9023 -0.0594
  120MOL0     H15832   9.548   0.871   6.072  1.8797  1.4264 -0.1177
  120MOL0     H15833   9.557   0.858   5.900 -3.9032  0.2085 -3.5723
  120MOL0     H15834   9.485   1.106   5.869  2.6024 -0.8546 -1.5984
  120MOL0     H15835   9.640   1.065   5.921 -0.4856  0.7630 -0.9075
  120MOL0     H15836   9.545   1.079   6.166  2.0814  0.3279 -0.9026
  120MOL0     H15837   9.575   1.235   6.064  0.1098 -0.0012 -0.3483
  120MOL0     H15838   9.155   1.236   6.123 -0.8037 -0.3598 -0.9804
  120MOL0     H15839   9.109   0.915   5.645  1.9975 -0.4399  0.6123
  120MOL0     H15840   8.858   0.916   5.665  0.6155  2.1477 -0.0578
  121MOL0     O15841   6.999   8.893  10.571  0.7627  0.1694  0.2724
  121MOL0     C15842   6.905   8.964  10.525  0.5241 -0.5245  0.1723
  121MOL0     O15843   6.767   8.943  10.547  0.7895  0.8254  0.8217
  121MOL0     C15844   6.747   8.831  10.623  0.1521 -0.4648  1.7430
  121MOL0     C15845   6.709   8.835  10.754  0.3411 -0.1771  0.1179
  121MOL0     C15846   6.668   8.721  10.825  0.5854 -0.4466 -0.3554
  121MOL0     C15847   6.647   8.601  10.758  0.4847 -0.0332  0.8085
  121MOL0     O15848   6.586   8.491  10.808  0.3175 -0.5263 -0.3937
  121MOL0     C15849   6.493   8.492  10.911  0.2176  0.3716 -0.0651
  121MOL0     C15850   6.392   8.377  10.885  0.3576 -0.9362  1.0242
  121MOL0     C15851   6.332   8.299  10.997  0.5146 -1.0906 -0.6814
  121MOL0     C15852   6.249   8.183  10.950 -1.1693 -0.2447  1.2717
  121MOL0     C15853   6.176   8.117  11.062  0.6448  0.0256  0.6970
  121MOL0     C15854   6.055   8.195  11.123  0.3070  0.1810 -0.1945
  121MOL0     C15855   5.965   8.101  11.201  0.0825  0.1485  0.1336
  121MOL0     C15856   5.876   8.183  11.296  0.0087  1.0126 -0.6138
  121MOL0     N15857   5.789   8.276  11.219  0.2817  0.1207  0.7953
  121MOL0     C15858   5.715   8.255  11.099 -0.5183  0.7455 -0.3332
  121MOL0     C15859   5.641   8.369  11.078 -0.5021 -0.6658 -0.9164
  121MOL0     C15860   5.541   8.412  10.974  0.0565  0.2873  0.5053
  121MOL0     C15861   5.461   8.288  10.944  0.5117 -0.5212  0.1361
  121MOL0     C15862   5.317   8.315  10.886 -0.9969 -0.2222  0.0955
  121MOL0     C15863   5.313   8.375  10.737 -0.1054 -0.5896  0.6849
  121MOL0     O15864   5.343   8.517  10.724  0.1284 -1.0634 -0.7561
  121MOL0     C15865   5.385   8.550  10.599  0.0927 -0.4566  0.2274
  121MOL0     C15866   5.516   8.595  10.597 -0.3613 -1.1365  0.9824
  121MOL0     C15867   5.569   8.642  10.482  0.5358 -0.2549  0.4023
  121MOL0     C15868   5.504   8.619  10.355 -0.1331 -0.1470  0.0341
  121MOL0     C15869   5.564   8.625  10.222  0.4164  0.2899 -0.1769
  121MOL0     O15870   5.697   8.630  10.216 -0.2746  0.0682 -0.8344
  121MOL0     C15871   5.761   8.669  10.106 -0.5961  0.2913 -1.0842
  121MOL0     C15872   5.902   8.651  10.092 -0.2288 -0.2975 -0.4575
  121MOL0     C15873   5.963   8.688   9.970  0.0782  0.4714  0.0274
  121MOL0     C15874   5.891   8.746   9.864  0.0452 -0.6812 -1.1245
  121MOL0     O15875   5.955   8.781   9.756  0.1477  0.1890 -0.3111
  121MOL0     C15876   5.879   8.806   9.635 -0.1599 -0.1048  0.0583
  121MOL0     C15877   5.982   8.793   9.518 -0.1035 -0.3566 -0.3873
  121MOL0     C15878   5.922   8.883   9.408  0.1988 -0.2427 -0.9082
  121MOL0     C15879   5.779   8.859   9.355  0.2308  0.7127  0.2788
  121MOL0     C15880   5.739   8.954   9.237  0.3601 -0.5634 -0.2447
  121MOL0     C15881   5.847   8.949   9.121  0.7512  0.3795  0.3554
  121MOL0     C15882   5.798   8.997   8.981 -0.8480  0.1100  1.0727
  121MOL0     C15883   5.896   8.969   8.860 -0.1806  1.0253 -0.6749
  121MOL0    Cl15884   6.067   9.029   8.889 -0.5654  0.2283 -0.3950
  121MOL0     C15885   5.755   8.778   9.880 -0.1501  1.0181  0.1604
  121MOL0     C15886   5.697   8.747  10.007 -0.1937  0.2419  0.0688
  121MOL0     O15887   5.494   8.605  10.127 -0.1954 -1.0941  0.7719
  121MOL0     C15888   5.368   8.577  10.361  0.1821 -0.2809  0.5089
  121MOL0     C15889   5.309   8.544  10.480 -0.4213 -0.5600 -0.0551
  121MOL0     N15890   5.677   8.459  11.181  0.3688  0.2105  0.6294
  121MOL0     N15891   5.754   8.393  11.268  0.0157  0.6906 -0.6758
  121MOL0     C15892   6.688   8.593  10.623  0.8355 -0.2676 -0.4250
  121MOL0     C15893   6.730   8.710  10.557  0.2507 -0.8182  0.0500
  121MOL0     C15894   6.948   9.073  10.430  0.2163  0.7093 -0.7049
  121MOL0     C15895   6.851   9.158  10.375 -0.1705 -0.3632  0.1832
  121MOL0     C15896   6.885   9.259  10.286 -0.5844  0.2146 -0.4685
  121MOL0     C15897   7.019   9.269  10.244 -1.1437  0.8440 -0.3184
  121MOL0     O15898   7.065   9.366  10.159  0.1638  0.9800 -0.1979
  121MOL0     C15899   6.984   9.397  10.052  0.3721 -0.1074 -0.1386
  121MOL0     C15900   6.961   9.292   9.949  0.2050 -0.5337  0.2416
  121MOL0     C15901   6.871   9.336   9.840 -0.3433 -0.7177 -0.2443
  121MOL0     C15902   6.884   9.246   9.716 -0.2736 -0.1920 -0.0565
  121MOL0     C15903   6.774   9.281   9.623 -0.5394 -0.7320 -0.2024
  121MOL0     C15904   6.692   9.302   9.538 -0.7147 -0.1804  1.0299
  121MOL0     C15905   7.112   9.176  10.282 -0.4245  0.2327 -0.4432
  121MOL0     C15906   7.080   9.078  10.383  0.0169  0.4257  0.0234
  121MOL0     H15907   6.717   8.911  10.832  0.1200 -2.3631  2.4179
  121MOL0     H15908   6.622   8.742  10.921 -1.2065  0.3897 -1.3438
  121MOL0     H15909   6.451   8.593  10.924  1.2471  0.8364 -0.2473
  121MOL0     H15910   6.550   8.462  10.999 -1.9362 -4.6126 -0.0494
  121MOL0     H15911   6.449   8.303  10.828 -0.3539 -2.2656  2.0117
  121MOL0     H15912   6.312   8.416  10.822  2.3126 -1.3385 -1.9080
  121MOL0     H15913   6.270   8.366  11.058 -1.1686 -2.6846 -0.5852
  121MOL0     H15914   6.416   8.266  11.060  1.9453  1.2547 -1.2253
  121MOL0     H15915   6.174   8.204  10.873 -1.4404 -1.8927  1.0476
  121MOL0     H15916   6.317   8.112  10.902 -1.3683  1.2694 -1.5093
  121MOL0     H15917   6.247   8.109  11.145  1.8230  2.0251 -0.0498
  121MOL0     H15918   6.146   8.017  11.029 -1.4501  1.3928 -2.0365
  121MOL0     H15919   5.999   8.241  11.041 -2.5023 -1.2204  0.7940
  121MOL0     H15920   6.101   8.272  11.185  2.0805 -1.1709  0.2556
  121MOL0     H15921   5.905   8.039  11.134  1.5424 -1.0118 -0.1490
  121MOL0     H15922   6.020   8.036  11.270 -1.8143 -0.6527  0.9915
  121MOL0     H15923   5.923   8.227  11.384 -0.6048 -0.7488  0.6522
  121MOL0     H15924   5.813   8.119  11.358  0.9387  0.9557  0.3090
  121MOL0     H15925   5.727   8.175  11.027  0.0401  0.6065 -0.0950
  121MOL0     H15926   5.578   8.437  10.874 -2.3502  0.1176 -0.4952
  121MOL0     H15927   5.469   8.491  10.996  2.0628  1.7571  2.2537
  121MOL0     H15928   5.437   8.239  11.039  0.0242  0.0722  0.3227
  121MOL0     H15929   5.511   8.214  10.880  0.3366  1.9664 -3.1603
  121MOL0     H15930   5.264   8.220  10.896  1.3445 -1.4462  1.9454
  121MOL0     H15931   5.269   8.385  10.954 -2.2462 -4.4032  3.9463
  121MOL0     H15932   5.210   8.357  10.706  0.0103 -0.8297  0.4267
  121MOL0     H15933   5.374   8.315  10.668 -0.4458  2.2040 -2.3066
  121MOL0     H15934   5.567   8.603  10.693  0.3874 -1.5508  0.6276
  121MOL0     H15935   5.669   8.682  10.498  1.1856 -0.3996 -2.6634
  121MOL0     H15936   5.971   8.595  10.154 -0.4713  1.6716  1.7216
  121MOL0     H15937   6.072   8.683   9.965  0.0786 -1.1427  1.0068
  121MOL0     H15938   5.834   8.905   9.636 -1.0811 -0.5188  0.4567
  121MOL0     H15939   5.788   8.748   9.620  0.0729 -0.5212  0.2154
  121MOL0     H15940   6.005   8.696   9.474  1.0354 -0.6385  0.7658
  121MOL0     H15941   6.083   8.816   9.555 -0.2720 -1.5635  0.8997
  121MOL0     H15942   5.991   8.867   9.325  2.2031  0.2844  0.5728
  121MOL0     H15943   5.930   8.987   9.439  1.6837 -0.6933  0.3779
  121MOL0     H15944   5.762   8.757   9.318 -1.5076  1.5090 -1.2395
  121MOL0     H15945   5.701   8.874   9.431 -0.6730 -1.9495  0.0004
  121MOL0     H15946   5.711   9.055   9.269 -1.2194 -1.2601  0.7147
  121MOL0     H15947   5.649   8.921   9.184 -0.9240  3.3086 -0.8257
  121MOL0     H15948   5.883   8.846   9.119 -1.2848 -0.4000  0.6416
  121MOL0     H15949   5.930   9.010   9.158  1.5153  1.1467 -2.4197
  121MOL0     H15950   5.712   8.931   8.965  1.3384 -2.6797 -0.1860
  121MOL0     H15951   5.765   9.101   8.989 -3.6037 -0.6261  0.6297
  121MOL0     H15952   5.853   9.019   8.774  0.4824 -0.6787 -2.0542
  121MOL0     H15953   5.896   8.863   8.831  0.8040  1.6774 -3.2976
  121MOL0     H15954   5.694   8.829   9.806 -2.8958 -0.1325  1.5009
  121MOL0     H15955   5.593   8.776  10.019  0.1294  2.2772 -1.4034
  121MOL0     H15956   5.310   8.560  10.271 -0.2366  1.5495  0.3951
  121MOL0     H15957   5.203   8.522  10.484 -0.5089 -0.0447  1.0530
  121MOL0     H15958   6.672   8.504  10.563 -0.0429  1.4000 -2.8262
  121MOL0     H15959   6.756   8.710  10.452  2.1331  2.0484  0.3795
  121MOL0     H15960   6.747   9.142  10.400 -0.1829  0.8405  1.0026
  121MOL0     H15961   6.812   9.338  10.271 -1.3664 -0.5695 -0.9043
  121MOL0     H15962   7.040   9.477  10.003 -5.4641  5.3301  0.7607
  121MOL0     H15963   6.889   9.444  10.080 -0.0218  0.9589 -2.9081
  121MOL0     H15964   7.063   9.273   9.916  0.8900  1.7909  0.8302
  121MOL0     H15965   6.925   9.197   9.990 -1.2470 -0.2525 -0.3397
  121MOL0     H15966   6.902   9.439   9.816  3.5524 -1.3034  1.5774
  121MOL0     H15967   6.769   9.352   9.874  0.5209 -0.2505  2.3749
  121MOL0     H15968   6.980   9.258   9.666  0.3604 -0.6361  1.0363
  121MOL0     H15969   6.871   9.143   9.749  0.2375 -1.0304 -2.3147
  121MOL0     H15970   6.619   9.315   9.461 -1.5213 -0.9096  1.6614
  121MOL0     H15971   7.212   9.193  10.244 -0.1176 -0.0337  0.2221
  121MOL0     H15972   7.148   9.006  10.427  1.2578  1.4106 -0.2215
  122MOL0     O15973   0.066   3.533   8.955  0.2553 -0.4293  0.8857
  122MOL0     C15974   0.082   3.424   8.891  0.1902  0.2169  0.4063
  122MOL0     O15975   0.103   3.417   8.759 -0.0725  0.6078 -0.3684
  122MOL0     C15976   0.127   3.518   8.665 -0.0952 -0.4814 -0.6845
  122MOL0     C15977   0.056   3.637   8.654 -0.4931  0.7800  0.3005
  122MOL0     C15978   0.096   3.732   8.559  0.5417  0.0007 -0.0734
  122MOL0     C15979   0.192   3.705   8.456  0.2309 -0.2150  0.5047
  122MOL0     O15980   0.212   3.805   8.359 -0.4352  0.3773  0.0113
  122MOL0     C15981   0.315   3.779   8.263 -1.0003 -0.3725 -0.6256
  122MOL0     C15982   0.448   3.814   8.327  0.4239 -0.0791  0.3681
  122MOL0     C15983   0.483   3.953   8.310 -0.6237 -0.7343 -0.4710
  122MOL0     C15984   0.597   4.005   8.399  0.7587  0.5505 -0.0895
  122MOL0     C15985   0.721   3.927   8.359  0.2713  0.4130  1.2724
  122MOL0     C15986   0.839   3.990   8.419 -0.7941  0.1278  1.3278
  122MOL0     C15987   0.864   3.938   8.562 -0.0050 -0.5078 -0.4284
  122MOL0     C15988   0.903   4.037   8.665  0.4728  0.2327 -1.4022
  122MOL0     N15989   0.911   3.965   8.794 -0.4820  0.0028 -0.4262
  122MOL0     C15990   0.861   4.017   8.912  0.4791  0.2984  0.4349
  122MOL0     C15991   0.906   3.939   9.017  0.2349  0.5135  0.6039
  122MOL0     C15992   0.870   3.945   9.164  1.1291 -0.4653 -1.0631
  122MOL0     C15993   0.867   4.090   9.223 -0.1664  0.0214 -0.0673
  122MOL0     C15994   0.822   4.094   9.374 -0.9477 -0.6577 -0.1741
  122MOL0     C15995   0.695   4.023   9.409  0.5230  0.6025 -0.0617
  122MOL0     O15996   0.650   4.072   9.538 -0.1087 -0.3795  0.2746
  122MOL0     C15997   0.524   4.116   9.561 -0.1148 -0.3762  0.7552
  122MOL0     C15998   0.499   4.163   9.689 -0.6068 -0.2501 -0.0840
  122MOL0     C15999   0.371   4.206   9.727 -0.1780 -0.0418  0.1531
  122MOL0     C16000   0.260   4.194   9.636  0.4326 -0.5506  0.1961
  122MOL0     C16001   0.118   4.239   9.662 -0.4111 -0.6071 -1.8626
  122MOL0     O16002   0.033   4.221   9.564 -0.3592  0.1133 -0.1679
  122MOL0     C16003  -0.106   4.210   9.575 -0.2164  0.6408 -0.5367
  122MOL0     C16004  -0.176   4.209   9.449  0.0795  0.8457 -0.4683
  122MOL0     C16005  -0.317   4.217   9.442 -1.1787 -0.0970 -0.5864
  122MOL0     C16006  -0.382   4.214   9.571  0.3570 -0.2723  0.0690
  122MOL0     O16007  -0.520   4.217   9.583 -0.1941  0.0010  0.7899
  122MOL0     C16008  -0.597   4.233   9.466 -0.5181 -0.0535  0.6580
  122MOL0     C16009  -0.747   4.204   9.501 -0.5459  0.1780 -0.9996
  122MOL0     C16010  -0.830   4.336   9.484 -0.0953  0.1653  0.0094
  122MOL0     C16011  -0.975   4.286   9.489 -0.2743 -1.7194  0.4045
  122MOL0     C16012  -1.050   4.199   9.378 -0.0695  0.7064 -0.2663
  122MOL0     C16013  -1.201   4.189   9.411 -0.3812 -0.2174 -0.6104
  122MOL0     C16014  -1.276   4.078   9.336 -1.0201 -0.3542 -0.4743
  122MOL0     C16015  -1.310   4.116   9.193  0.4527 -0.4869  0.3890
  122MOL0    Cl16016  -1.158   4.136   9.094  0.1658 -0.2674 -0.6357
  122MOL0     C16017  -0.307   4.194   9.686  0.1103 -0.3269 -0.5750
  122MOL0     C16018  -0.171   4.198   9.687 -1.0570 -0.1495  1.3413
  122MOL0     O16019   0.090   4.276   9.779  0.3576  0.0192 -0.1682
  122MOL0     C16020   0.292   4.147   9.500  0.7659  0.1188  0.9160
  122MOL0     C16021   0.418   4.100   9.470 -0.3970 -0.8019 -0.4894
  122MOL0     N16022   0.976   3.841   8.957 -1.2646 -0.3996  0.3663
  122MOL0     N16023   0.979   3.852   8.826  0.5352  0.6357 -0.2772
  122MOL0     C16024   0.242   3.571   8.459 -0.1413  0.3382  0.0384
  122MOL0     C16025   0.210   3.488   8.566  0.1413 -0.4762  0.7456
  122MOL0     C16026   0.047   3.302   8.965 -0.0692  0.8018 -1.0390
  122MOL0     C16027   0.063   3.173   8.914 -1.2097  0.1573 -0.1299
  122MOL0     C16028   0.051   3.063   8.997  0.9995  0.8635  0.3185
  122MOL0     C16029   0.014   3.075   9.136  0.3771 -0.7600  0.7633
  122MOL0     O16030   0.006   2.973   9.224 -0.2322 -0.4721 -0.2092
  122MOL0     C16031   0.037   2.842   9.189 -0.6042  0.0732  0.5567
  122MOL0     C16032   0.040   2.758   9.318 -0.4535  0.1465  0.6683
  122MOL0     C16033   0.062   2.612   9.298 -0.8068 -0.4387 -0.2428
  122MOL0     C16034  -0.058   2.544   9.234  0.7670  0.9506  0.6815
  122MOL0     C16035  -0.045   2.413   9.176 -0.6247 -0.1788  0.5695
  122MOL0     C16036  -0.032   2.299   9.131 -0.2053 -1.0386 -0.1189
  122MOL0     C16037  -0.019   3.200   9.179 -1.7274 -0.1060 -0.0290
  122MOL0     C16038  -0.004   3.311   9.101  0.1854 -0.4834  0.8201
  122MOL0     H16039  -0.025   3.649   8.725 -2.8393 -0.1530 -2.0385
  122MOL0     H16040   0.046   3.828   8.572 -0.7947 -0.8362  1.1624
  122MOL0     H16041   0.313   3.832   8.167  4.1328  0.5309 -0.5327
  122MOL0     H16042   0.320   3.678   8.221  1.9930 -1.7396  2.5468
  122MOL0     H16043   0.527   3.755   8.280  1.9916  1.4599  0.9571
  122MOL0     H16044   0.454   3.789   8.433  2.0545 -1.6287 -0.0389
  122MOL0     H16045   0.402   4.020   8.339  1.5738  0.6774  3.1430
  122MOL0     H16046   0.518   3.974   8.209  2.1141  3.5867  1.0850
  122MOL0     H16047   0.617   4.111   8.383  3.0970  0.4149  1.3385
  122MOL0     H16048   0.583   4.004   8.508  0.3611 -0.2836 -0.1382
  122MOL0     H16049   0.733   3.941   8.251  2.4087  2.3803  1.6930
  122MOL0     H16050   0.710   3.821   8.383 -1.1333 -0.0209 -0.9797
  122MOL0     H16051   0.833   4.100   8.420 -1.9858  0.0912  0.5882
  122MOL0     H16052   0.926   3.976   8.355 -1.6598  1.6661 -0.2875
  122MOL0     H16053   0.771   3.896   8.603 -0.8457  2.1482  0.5916
  122MOL0     H16054   0.950   3.871   8.550 -0.7281 -1.4302 -0.5787
  122MOL0     H16055   0.818   4.106   8.664 -1.2594 -1.6710  1.1441
  122MOL0     H16056   0.997   4.085   8.636  1.4779 -1.8392 -1.8020
  122MOL0     H16057   0.785   4.093   8.924  1.6252  1.4288  0.8026
  122MOL0     H16058   0.943   3.885   9.219 -0.2227 -0.6353  0.6454
  122MOL0     H16059   0.778   3.890   9.187  0.7494  0.0108 -1.4278
  122MOL0     H16060   0.787   4.129   9.158 -0.3976 -2.4103 -1.3719
  122MOL0     H16061   0.961   4.144   9.209 -0.8374  1.7203  1.6249
  122MOL0     H16062   0.906   4.047   9.426 -0.5915  0.1989  0.0441
  122MOL0     H16063   0.811   4.202   9.390 -2.3402 -0.4060 -2.3081
  122MOL0     H16064   0.712   3.916   9.420  0.6437  0.7341  1.0623
  122MOL0     H16065   0.623   4.045   9.330 -0.0266  2.3764  0.8808
  122MOL0     H16066   0.576   4.169   9.765  1.2103 -0.7341 -1.7972
  122MOL0     H16067   0.353   4.248   9.825 -0.1358  2.1740 -0.7421
  122MOL0     H16068  -0.107   4.191   9.368  2.6213  0.3710  1.6508
  122MOL0     H16069  -0.373   4.230   9.350  1.0946  1.3573 -1.8717
  122MOL0     H16070  -0.554   4.166   9.392  1.2094  0.8192  0.8276
  122MOL0     H16071  -0.583   4.329   9.415  0.7703 -0.9117 -0.6675
  122MOL0     H16072  -0.750   4.167   9.604  0.5236 -0.9148 -1.3420
  122MOL0     H16073  -0.782   4.132   9.426  2.4923  0.4842 -2.8635
  122MOL0     H16074  -0.810   4.379   9.385 -0.7994 -2.9419 -1.6207
  122MOL0     H16075  -0.808   4.405   9.566 -2.8057 -0.7785  1.6386
  122MOL0     H16076  -0.988   4.248   9.591  2.7860  1.0411  2.0132
  122MOL0     H16077  -1.029   4.381   9.500  1.4477 -0.6771  0.1356
  122MOL0     H16078  -1.020   4.094   9.372 -1.6936  0.3188 -3.4282
  122MOL0     H16079  -1.036   4.245   9.280  0.0832  2.4378  0.5199
  122MOL0     H16080  -1.256   4.281   9.390 -1.3595 -0.6943 -0.1973
  122MOL0     H16081  -1.214   4.162   9.516  0.3082  1.0953 -0.1655
  122MOL0     H16082  -1.209   3.994   9.315  0.4988  1.1000 -1.7552
  122MOL0     H16083  -1.362   4.051   9.397  0.3969 -0.0231  1.8106
  122MOL0     H16084  -1.368   4.208   9.198 -1.2281 -1.4788 -0.1702
  122MOL0     H16085  -1.373   4.040   9.146 -0.3746 -0.4881  1.4650
  122MOL0     H16086  -0.344   4.196   9.788 -0.9998  0.7793 -0.9685
  122MOL0     H16087  -0.124   4.190   9.785 -2.4157 -1.1920  1.9568
  122MOL0     H16088   0.218   4.126   9.423 -0.2538  0.0502  1.8954
  122MOL0     H16089   0.434   4.060   9.370 -1.0169 -0.4890 -0.7263
  122MOL0     H16090   0.315   3.529   8.390  0.2964 -1.9223  1.7836
  122MOL0     H16091   0.261   3.392   8.568  0.3124 -0.3812  2.7140
  122MOL0     H16092   0.085   3.171   8.807 -1.3278  0.5409 -0.1602
  122MOL0     H16093   0.061   2.961   8.963  1.5478  0.8241  0.5876
  122MOL0     H16094   0.138   2.834   9.150 -0.1757 -1.5175  1.8707
  122MOL0     H16095  -0.039   2.806   9.119  1.1791 -1.2127 -0.7940
  122MOL0     H16096   0.125   2.798   9.374  0.1774 -1.1264  0.6568
  122MOL0     H16097  -0.041   2.773   9.389 -0.7934 -0.2516  0.3618
  122MOL0     H16098   0.084   2.570   9.397  0.0484  0.3359 -0.0914
  122MOL0     H16099   0.153   2.605   9.238 -1.8702 -0.8981 -1.8595
  122MOL0     H16100  -0.141   2.535   9.305  0.2221  1.4918  0.1302
  122MOL0     H16101  -0.102   2.615   9.163  1.0901  2.3549  1.8391
  122MOL0     H16102  -0.028   2.196   9.102  6.0527 -0.2655 -3.8938
  122MOL0     H16103  -0.054   3.200   9.282 -3.5440  2.1820 -0.5515
  122MOL0     H16104  -0.019   3.413   9.134  0.2649  1.1275 -3.3965
  123MOL0     O16105   9.893   6.765   6.749 -0.1842  0.6424  0.2810
  123MOL0     C16106   9.974   6.823   6.683 -0.0561 -0.8315 -0.0137
  123MOL0     O16107  10.021   6.945   6.716 -0.5346  0.5729 -0.0604
  123MOL0     C16108  10.050   6.985   6.848  0.0406  0.3171 -0.4644
  123MOL0     C16109  10.066   7.122   6.864  0.3141  0.0022 -0.2331
  123MOL0     C16110  10.122   7.170   6.988  0.4785 -0.2242  0.9249
  123MOL0     C16111  10.157   7.084   7.095  0.3843  0.8006  0.2632
  123MOL0     O16112  10.199   7.118   7.219 -0.7784  0.4449  0.1078
  123MOL0     C16113  10.227   7.258   7.239  0.7614 -0.1732  0.4572
  123MOL0     C16114  10.294   7.266   7.379  0.0415  0.2350  0.1114
  123MOL0     C16115  10.311   7.408   7.427  0.6975 -0.6637  0.6066
  123MOL0     C16116  10.370   7.411   7.572 -0.5145  0.5788 -0.3770
  123MOL0     C16117  10.334   7.544   7.650 -0.0030  1.0652  0.9190
  123MOL0     C16118  10.359   7.509   7.801  0.4522  0.4207  0.1439
  123MOL0     C16119  10.499   7.465   7.840 -0.5639 -0.8020  0.2370
  123MOL0     C16120  10.505   7.463   7.991  0.1932 -0.0923 -0.2459
  123MOL0     N16121  10.647   7.443   8.031  0.2644  0.9014  0.0985
  123MOL0     C16122  10.752   7.516   7.987 -0.5001 -0.4234 -1.2068
  123MOL0     C16123  10.857   7.465   8.053 -0.1313  0.3383  0.3422
  123MOL0     C16124  10.992   7.532   8.066 -0.2479 -0.5244 -0.0644
  123MOL0     C16125  11.102   7.473   7.978  0.3035 -0.2997  0.1659
  123MOL0     C16126  11.230   7.550   8.020  0.7396  0.9442  0.4751
  123MOL0     C16127  11.357   7.471   7.970 -0.5352 -0.5970  0.5865
  123MOL0     O16128  11.473   7.553   8.008  0.9474 -0.3544 -0.4501
  123MOL0     C16129  11.584   7.477   8.015 -0.6488  0.6694  0.4381
  123MOL0     C16130  11.691   7.533   7.945 -0.4725  0.3601 -0.0090
  123MOL0     C16131  11.821   7.481   7.968  0.0779  0.7584  0.6368
  123MOL0     C16132  11.844   7.367   8.050  0.3084 -0.3817 -0.1155
  123MOL0     C16133  11.976   7.308   8.078 -0.1864  0.7580 -0.0813
  123MOL0     O16134  12.076   7.374   8.031 -0.3819  0.0354  0.4410
  123MOL0     C16135  12.197   7.316   8.053  0.1369 -0.2805  0.5747
  123MOL0     C16136  12.264   7.238   7.948 -0.0076  0.3079  0.0146
  123MOL0     C16137  12.395   7.203   7.973  0.4796 -0.2831  0.5456
  123MOL0     C16138  12.471   7.255   8.083  0.5546 -0.3469 -0.2013
  123MOL0     O16139  12.608   7.252   8.087 -1.0225  0.2496 -0.4612
  123MOL0     C16140  12.678   7.138   8.046 -0.0975  0.6077  0.6482
  123MOL0     C16141  12.830   7.172   8.052 -0.4872 -0.5599  0.1948
  123MOL0     C16142  12.929   7.075   7.992 -0.0508 -0.0436 -0.2088
  123MOL0     C16143  13.069   7.134   8.004  0.2552  0.5632  0.0043
  123MOL0     C16144  13.169   7.034   8.055 -0.2699 -0.1965 -0.6487
  123MOL0     C16145  13.309   7.096   8.065 -0.4287  0.3721 -0.5259
  123MOL0     C16146  13.403   6.995   8.127 -0.3560  0.9496 -0.9358
  123MOL0     C16147  13.538   7.056   8.148 -0.2960 -0.8548  0.0663
  123MOL0    Cl16148  13.670   6.943   8.202  0.3813  0.2095  0.0355
  123MOL0     C16149  12.400   7.313   8.185  0.7756 -0.6421 -0.7778
  123MOL0     C16150  12.256   7.341   8.172 -0.0747  0.5369  0.8862
  123MOL0     O16151  11.988   7.210   8.154  0.4502  0.0250  0.0023
  123MOL0     C16152  11.730   7.311   8.109 -0.9567 -0.8450 -0.3849
  123MOL0     C16153  11.606   7.375   8.098 -0.9603  0.5491 -0.2180
  123MOL0     N16154  10.824   7.343   8.115 -0.0206  0.0626  0.6840
  123MOL0     N16155  10.689   7.337   8.109 -0.4710  0.1061  0.9412
  123MOL0     C16156  10.139   6.943   7.082 -0.0888  1.1719  0.2655
  123MOL0     C16157  10.082   6.905   6.956 -0.5274  0.0896 -0.5438
  123MOL0     C16158  10.001   6.762   6.552  0.9016 -0.5989 -0.0118
  123MOL0     C16159  10.108   6.810   6.487 -0.2537 -0.7651  0.0089
  123MOL0     C16160  10.140   6.764   6.359  0.6475  0.4542 -0.1050
  123MOL0     C16161  10.073   6.653   6.299  0.1963 -0.1727  0.8215
  123MOL0     O16162  10.102   6.603   6.173 -0.2690  0.0140 -0.0921
  123MOL0     C16163  10.052   6.682   6.063  0.1508  0.2497  0.0644
  123MOL0     C16164  10.157   6.697   5.943  0.7545 -0.6043 -0.1214
  123MOL0     C16165  10.291   6.764   5.981  0.0400 -0.1246  0.4506
  123MOL0     C16166  10.291   6.915   5.953 -0.3078 -0.5671  1.0404
  123MOL0     C16167  10.205   6.994   6.046  0.6749  0.0966  0.2033
  123MOL0     C16168  10.145   7.050   6.135  0.0181  1.3980 -0.1949
  123MOL0     C16169   9.966   6.598   6.370 -0.3703  0.5189 -1.0501
  123MOL0     C16170   9.925   6.655   6.496 -0.5665 -0.9614  0.4244
  123MOL0     H16171  10.030   7.190   6.787 -1.2850 -0.6954 -0.1510
  123MOL0     H16172  10.130   7.278   6.984 -4.1179  0.3387  1.5149
  123MOL0     H16173  10.131   7.310   7.241  0.4610 -0.6917 -0.2800
  123MOL0     H16174  10.293   7.296   7.160 -2.7609  1.2492 -2.0447
  123MOL0     H16175  10.390   7.214   7.382 -0.5064 -0.8157  3.1591
  123MOL0     H16176  10.229   7.203   7.441  0.7323 -1.9475 -1.2723
  123MOL0     H16177  10.215   7.460   7.421  1.8438  1.4546 -0.6684
  123MOL0     H16178  10.362   7.478   7.360  2.6774  0.5311  3.1828
  123MOL0     H16179  10.344   7.323   7.632 -0.0871  1.0475  0.5056
  123MOL0     H16180  10.478   7.418   7.557 -0.7318 -0.3718 -2.9102
  123MOL0     H16181  10.231   7.568   7.624  0.2649 -0.4206 -2.0028
  123MOL0     H16182  10.404   7.621   7.618  0.5120  0.2803  0.0990
  123MOL0     H16183  10.295   7.422   7.817  1.1705 -0.2842 -0.6816
  123MOL0     H16184  10.328   7.588   7.869  1.0029 -0.1492  1.0743
  123MOL0     H16185  10.545   7.374   7.799  2.1945 -0.3516  2.0523
  123MOL0     H16186  10.560   7.548   7.802 -3.9149  1.2891 -0.9743
  123MOL0     H16187  10.440   7.389   8.038  0.0942 -0.9570 -1.6794
  123MOL0     H16188  10.480   7.563   8.028  1.9974  1.1568 -2.1465
  123MOL0     H16189  10.756   7.614   7.941  1.0937  0.2898  0.3120
  123MOL0     H16190  11.019   7.529   8.172  0.1067  2.0510 -0.0070
  123MOL0     H16191  10.975   7.638   8.042  2.5858  0.1946  0.7205
  123MOL0     H16192  11.083   7.506   7.876 -0.0581  2.3526  1.0094
  123MOL0     H16193  11.116   7.366   7.998 -1.4120 -0.4517  0.7077
  123MOL0     H16194  11.239   7.637   7.954  1.5761 -0.2944 -1.1198
  123MOL0     H16195  11.245   7.575   8.125  2.2141  2.0004  0.0530
  123MOL0     H16196  11.351   7.460   7.862 -0.2808  0.4211  0.4612
  123MOL0     H16197  11.347   7.369   8.008  1.1135 -2.3637 -3.2507
  123MOL0     H16198  11.673   7.615   7.876 -1.3299  0.5275  0.3992
  123MOL0     H16199  11.901   7.509   7.901 -0.1972 -2.0040 -0.9860
  123MOL0     H16200  12.202   7.215   7.862 -0.6441 -0.8594  0.7584
  123MOL0     H16201  12.434   7.141   7.893  1.3599 -0.8278  1.3780
  123MOL0     H16202  12.655   7.115   7.942  0.9535  1.0977  0.2962
  123MOL0     H16203  12.660   7.070   8.131 -0.2451  1.2561  1.1471
  123MOL0     H16204  12.857   7.186   8.157  0.3348  2.6777 -0.3498
  123MOL0     H16205  12.842   7.272   8.010 -2.1263 -1.2387 -2.0767
  123MOL0     H16206  12.907   7.060   7.886 -0.6222  0.7562 -0.2108
  123MOL0     H16207  12.910   6.976   8.034 -1.0384  0.6178  0.9455
  123MOL0     H16208  13.095   7.169   7.903  2.4251  0.7087  0.5635
  123MOL0     H16209  13.071   7.218   8.074 -1.4299  0.6495 -0.0244
  123MOL0     H16210  13.175   6.940   8.000  1.1972 -0.2159 -0.5185
  123MOL0     H16211  13.150   7.010   8.160  2.6002 -0.9705 -0.2146
  123MOL0     H16212  13.307   7.191   8.119 -0.9757 -0.6171  1.2943
  123MOL0     H16213  13.326   7.122   7.961  0.1983  0.3690 -0.4253
  123MOL0     H16214  13.363   6.963   8.224 -0.9408  0.8096 -1.2171
  123MOL0     H16215  13.419   6.906   8.066 -1.1168  0.4890 -0.4785
  123MOL0     H16216  13.537   7.144   8.212  1.4576  0.5429 -1.6915
  123MOL0     H16217  13.572   7.097   8.052  2.3053 -1.1936  0.7671
  123MOL0     H16218  12.449   7.339   8.279  0.8876  2.5945 -1.6129
  123MOL0     H16219  12.193   7.385   8.248 -0.5479  2.1942 -0.4007
  123MOL0     H16220  11.743   7.227   8.177  1.8272  1.8583  2.8607
  123MOL0     H16221  11.522   7.327   8.147  0.2691 -0.0504  1.4046
  123MOL0     H16222  10.168   6.878   7.163  1.0569  0.9018 -0.3395
  123MOL0     H16223  10.089   6.797   6.952 -0.5440  0.0193  0.8450
  123MOL0     H16224  10.172   6.882   6.538 -1.2103 -0.7171  1.2022
  123MOL0     H16225  10.220   6.817   6.308  1.1869  0.8493  1.1308
  123MOL0     H16226  10.026   6.784   6.093  3.0266  1.3786 -0.8565
  123MOL0     H16227   9.961   6.630   6.033  1.7273 -2.7260  0.0457
  123MOL0     H16228  10.180   6.595   5.909 -2.5690 -1.1352 -1.1201
  123MOL0     H16229  10.115   6.766   5.869  2.0844  1.0531  0.6248
  123MOL0     H16230  10.383   6.716   5.945  1.3108 -0.5308  3.8494
  123MOL0     H16231  10.308   6.743   6.087 -1.2045 -0.3903  0.6069
  123MOL0     H16232  10.390   6.954   5.977 -0.9274 -0.3637  3.5649
  123MOL0     H16233  10.262   6.935   5.849 -1.5454  0.9464  1.6353
  123MOL0     H16234  10.099   7.101   6.216  3.6358  0.1812  2.9120
  123MOL0     H16235   9.917   6.515   6.320  2.2900 -1.0060 -1.3064
  123MOL0     H16236   9.833   6.625   6.545 -0.6331  0.7061  1.4095
  124MOL0     O16237   2.288   3.704   0.404  0.5328 -0.2527 -0.0365
  124MOL0     C16238   2.388   3.760   0.428 -0.2323 -0.4413  0.0826
  124MOL0     O16239   2.448   3.766   0.557  0.6053  0.2233 -0.2679
  124MOL0     C16240   2.379   3.720   0.666  1.0770  0.2261  0.5652
  124MOL0     C16241   2.430   3.641   0.769  0.3930  0.0587  0.8075
  124MOL0     C16242   2.357   3.598   0.879  0.1664 -0.5590  0.6340
  124MOL0     C16243   2.225   3.640   0.893  0.0247  1.0715 -2.4543
  124MOL0     O16244   2.160   3.593   1.011 -0.6729 -0.3364  0.2892
  124MOL0     C16245   2.053   3.668   1.062  0.6107  0.4510  0.4211
  124MOL0     C16246   1.971   3.586   1.164  0.0386 -0.2103  0.5273
  124MOL0     C16247   1.886   3.476   1.114 -0.1950 -0.5004 -0.1106
  124MOL0     C16248   1.787   3.436   1.217 -0.4435 -0.3430  0.0578
  124MOL0     C16249   1.698   3.308   1.186 -0.1882 -0.6695 -0.0992
  124MOL0     C16250   1.649   3.235   1.308  0.0688  0.2290  0.6326
  124MOL0     C16251   1.608   3.094   1.281 -0.3483 -0.9794 -0.2263
  124MOL0     C16252   1.595   3.019   1.412  0.6277 -0.3791 -0.3254
  124MOL0     N16253   1.570   2.873   1.407  0.5661 -0.4871  0.2415
  124MOL0     C16254   1.463   2.817   1.461 -0.1604  0.0220 -0.1795
  124MOL0     C16255   1.475   2.685   1.425 -0.6282  0.0445 -0.3812
  124MOL0     C16256   1.374   2.575   1.453 -0.5070  0.2209  0.1719
  124MOL0     C16257   1.337   2.493   1.329  0.6729  0.1714 -0.2486
  124MOL0     C16258   1.233   2.559   1.246 -0.2641 -0.0521  0.8516
  124MOL0     C16259   1.092   2.522   1.292 -0.1000 -0.5581 -0.1454
  124MOL0     O16260   1.055   2.382   1.287 -0.6044  0.6639 -0.3198
  124MOL0     C16261   0.923   2.341   1.300  0.2452  0.2825  0.1836
  124MOL0     C16262   0.896   2.214   1.256  0.8197 -0.1870 -0.0591
  124MOL0     C16263   0.770   2.157   1.271 -0.4406 -1.1014  0.1907
  124MOL0     C16264   0.671   2.232   1.332 -0.4611  0.5359 -0.1870
  124MOL0     C16265   0.537   2.177   1.337 -1.2146  0.1597  0.6739
  124MOL0     O16266   0.530   2.044   1.339  0.2140  0.2487  0.9553
  124MOL0     C16267   0.403   1.982   1.327  0.6414  0.9086  0.0554
  124MOL0     C16268   0.374   1.936   1.201 -0.0639 -0.2690  0.0288
  124MOL0     C16269   0.259   1.872   1.172 -0.6635  0.3672 -0.7636
  124MOL0     C16270   0.164   1.840   1.269  0.1090  0.6519  0.3645
  124MOL0     O16271   0.056   1.771   1.235  0.7645  0.3566 -0.4964
  124MOL0     C16272  -0.061   1.771   1.326 -0.6057 -0.2028  0.1391
  124MOL0     C16273  -0.135   1.904   1.293 -0.0449 -0.9483 -0.8740
  124MOL0     C16274  -0.269   1.911   1.359  0.3883 -0.2299 -0.4307
  124MOL0     C16275  -0.322   2.052   1.380  0.1281  0.5215  0.3392
  124MOL0     C16276  -0.457   2.034   1.449  0.4897 -0.8631 -0.3508
  124MOL0     C16277  -0.541   2.153   1.463  0.2781 -0.3196  0.8410
  124MOL0     C16278  -0.681   2.130   1.525 -0.6406 -0.0056 -0.9272
  124MOL0     C16279  -0.772   2.248   1.545 -0.2528 -0.2043  0.5699
  124MOL0    Cl16280  -0.684   2.383   1.638 -0.0128 -0.0206  0.1698
  124MOL0     C16281   0.193   1.884   1.406  0.2758 -0.3448 -0.2283
  124MOL0     C16282   0.320   1.942   1.434  0.5088  0.1387  1.3058
  124MOL0     O16283   0.440   2.251   1.336  0.4405 -0.3906 -0.4105
  124MOL0     C16284   0.698   2.364   1.378  0.4002 -0.0082  0.1389
  124MOL0     C16285   0.819   2.422   1.358 -0.6689 -0.0840 -0.8119
  124MOL0     N16286   1.605   2.670   1.370  0.2333  0.3731 -0.1968
  124MOL0     N16287   1.653   2.778   1.362  0.5312 -0.8977  0.2698
  124MOL0     C16288   2.178   3.732   0.804 -0.4102 -0.3360  0.1331
  124MOL0     C16289   2.251   3.759   0.687  0.4769 -1.1230 -0.2068
  124MOL0     C16290   2.452   3.826   0.309 -1.1784 -0.2230 -0.0503
  124MOL0     C16291   2.413   3.787   0.181  0.5387  0.4846 -1.5015
  124MOL0     C16292   2.482   3.826   0.070 -0.5697  0.3526 -0.2814
  124MOL0     C16293   2.587   3.920   0.088 -0.4817 -0.4834 -0.0766
  124MOL0     O16294   2.655   3.986  -0.009 -0.0478  0.1411 -0.0035
  124MOL0     C16295   2.597   4.000  -0.140 -0.1404  0.8811  0.9661
  124MOL0     C16296   2.715   4.004  -0.247 -0.3386  0.3075  0.1873
  124MOL0     C16297   2.821   3.900  -0.231  0.5151  1.0044 -0.0309
  124MOL0     C16298   2.783   3.749  -0.261  0.2292  0.4548 -1.0298
  124MOL0     C16299   2.727   3.741  -0.399 -0.3059 -0.4052  0.8052
  124MOL0     C16300   2.684   3.723  -0.512  0.8381  0.8271 -0.4565
  124MOL0     C16301   2.615   3.966   0.212 -0.0184  0.1427  0.0812
  124MOL0     C16302   2.555   3.924   0.327 -0.1729 -0.4938 -0.3193
  124MOL0     H16303   2.535   3.615   0.767  0.3438 -0.3650 -3.0840
  124MOL0     H16304   2.398   3.529   0.952  2.2932 -0.1044 -0.0663
  124MOL0     H16305   1.978   3.691   0.986 -1.6156 -0.7057  2.1313
  124MOL0     H16306   2.088   3.763   1.103  0.2384 -0.1933  2.3153
  124MOL0     H16307   1.920   3.640   1.244  0.1116 -0.5171  0.7818
  124MOL0     H16308   2.043   3.526   1.221 -1.3245 -2.4476 -0.0034
  124MOL0     H16309   1.958   3.397   1.092 -0.8303 -0.7078 -1.5312
  124MOL0     H16310   1.845   3.502   1.016 -2.7066  0.0925  1.0148
  124MOL0     H16311   1.846   3.415   1.307 -1.0273 -0.9745  0.3022
  124MOL0     H16312   1.722   3.525   1.217 -2.4526 -1.7326 -0.4578
  124MOL0     H16313   1.760   3.242   1.124  1.7697  2.3909 -1.6573
  124MOL0     H16314   1.610   3.342   1.132  0.0328 -0.2440 -0.1962
  124MOL0     H16315   1.559   3.277   1.353 -0.4020  1.1058 -1.0390
  124MOL0     H16316   1.735   3.237   1.376  2.2222 -2.0432 -1.7743
  124MOL0     H16317   1.527   3.106   1.208  0.4843  0.7908 -0.9207
  124MOL0     H16318   1.681   3.037   1.222 -1.1768 -2.1495 -0.1638
  124MOL0     H16319   1.510   3.063   1.464 -0.1052  1.7497 -3.0724
  124MOL0     H16320   1.686   3.042   1.468  0.8364  2.0202 -1.5287
  124MOL0     H16321   1.385   2.854   1.528 -0.3493  0.8119 -0.8188
  124MOL0     H16322   1.283   2.618   1.495 -1.1254 -1.0131  0.1343
  124MOL0     H16323   1.408   2.500   1.525 -0.1980 -1.2700 -1.4510
  124MOL0     H16324   1.309   2.394   1.365 -0.1100  1.2955  2.5552
  124MOL0     H16325   1.419   2.499   1.257  1.0997  1.2914  0.3016
  124MOL0     H16326   1.235   2.669   1.240  0.6339 -0.1166 -0.9696
  124MOL0     H16327   1.244   2.521   1.144 -0.9897 -0.0207  0.7573
  124MOL0     H16328   1.026   2.569   1.219 -1.8601 -3.9535 -0.9465
  124MOL0     H16329   1.080   2.569   1.390  0.8866  0.7989 -0.6580
  124MOL0     H16330   0.979   2.170   1.201  0.8005  1.4860 -1.5158
  124MOL0     H16331   0.736   2.059   1.238  0.7170 -1.8845  1.2339
  124MOL0     H16332   0.450   1.955   1.126 -1.0112 -0.4050 -0.9750
  124MOL0     H16333   0.227   1.843   1.073  0.3280 -3.1146 -0.2035
  124MOL0     H16334  -0.043   1.761   1.433 -1.3654 -2.3611  0.1167
  124MOL0     H16335  -0.114   1.677   1.308 -0.7284 -0.0179 -0.4877
  124MOL0     H16336  -0.140   1.925   1.186 -0.4175  1.7917 -0.3827
  124MOL0     H16337  -0.067   1.978   1.337  1.4940 -3.1931  0.8204
  124MOL0     H16338  -0.259   1.859   1.455 -0.7600  1.0737  0.4327
  124MOL0     H16339  -0.343   1.850   1.307 -0.4608  0.2564  0.1783
  124MOL0     H16340  -0.247   2.117   1.425 -2.8222  3.1720  1.7796
  124MOL0     H16341  -0.332   2.086   1.277  1.7912 -1.2477 -0.4760
  124MOL0     H16342  -0.449   1.990   1.549 -0.5919 -1.1150 -0.3595
  124MOL0     H16343  -0.521   1.969   1.388 -0.4729  1.2941 -1.7702
  124MOL0     H16344  -0.557   2.189   1.361 -2.4033  0.2323  1.3777
  124MOL0     H16345  -0.478   2.227   1.512 -0.4963  0.1871  1.0980
  124MOL0     H16346  -0.724   2.048   1.467 -0.0685  0.3943 -1.9548
  124MOL0     H16347  -0.661   2.079   1.619 -0.4871  1.7441  0.0271
  124MOL0     H16348  -0.860   2.218   1.603 -1.7222 -1.4166 -2.1153
  124MOL0     H16349  -0.806   2.278   1.446 -0.5505 -0.4531  0.5975
  124MOL0     H16350   0.125   1.878   1.491  0.3258 -1.1474 -0.2355
  124MOL0     H16351   0.350   1.960   1.536  0.0525  1.3555  1.2458
  124MOL0     H16352   0.611   2.421   1.410 -1.7492 -1.1300 -3.1873
  124MOL0     H16353   0.825   2.525   1.390  0.6088  0.0045 -1.2852
  124MOL0     H16354   2.072   3.752   0.795 -0.1788  1.0610  0.2541
  124MOL0     H16355   2.206   3.832   0.620  1.1176 -0.2120  0.3383
  124MOL0     H16356   2.343   3.706   0.168  2.0251 -2.3662  4.7483
  124MOL0     H16357   2.472   3.797  -0.034  0.5246  1.3931 -0.7016
  124MOL0     H16358   2.535   4.089  -0.151 -1.2682 -0.1318 -1.8582
  124MOL0     H16359   2.535   3.917  -0.176  4.6313 -2.4347 -0.6335
  124MOL0     H16360   2.676   3.996  -0.349  0.4310 -1.2663 -0.0115
  124MOL0     H16361   2.765   4.100  -0.227  2.0091 -1.1404  1.7510
  124MOL0     H16362   2.868   3.900  -0.132  1.8022  0.0071 -0.6236
  124MOL0     H16363   2.898   3.924  -0.304  1.7176  0.8293  1.1481
  124MOL0     H16364   2.867   3.681  -0.243  0.1501  0.0239 -2.1833
  124MOL0     H16365   2.706   3.726  -0.188  2.3291 -0.0273  1.1629
  124MOL0     H16366   2.642   3.716  -0.611 -0.0303  0.1110 -0.0545
  124MOL0     H16367   2.671   4.059   0.222  0.5115 -0.0697 -0.8279
  124MOL0     H16368   2.582   3.954   0.427  0.1335 -4.1769  0.8512
  125MOL0     O16369   0.429   3.158   4.102 -0.4901 -0.1503  0.1843
  125MOL0     C16370   0.442   3.133   4.224  0.8129 -0.3996  0.7981
  125MOL0     O16371   0.530   3.050   4.279 -0.4904 -0.5915  0.3893
  125MOL0     C16372   0.633   3.012   4.203  1.2068  0.5919  0.0741
  125MOL0     C16373   0.720   3.099   4.136 -0.3904  0.3715  0.4415
  125MOL0     C16374   0.822   3.052   4.049 -0.0697 -0.1813  0.1521
  125MOL0     C16375   0.841   2.919   4.031  0.0714 -0.5679 -0.1469
  125MOL0     O16376   0.951   2.871   3.966 -0.2773 -0.0967  0.0897
  125MOL0     C16377   0.929   2.777   3.858 -0.8263  0.4886 -0.0703
  125MOL0     C16378   0.854   2.848   3.746  0.5234  0.6495  0.8860
  125MOL0     C16379   0.818   2.764   3.622 -0.1424  0.0856 -0.3521
  125MOL0     C16380   0.743   2.636   3.650 -0.1578  0.1822  0.1088
  125MOL0     C16381   0.715   2.547   3.534  0.2975  0.2290 -1.1413
  125MOL0     C16382   0.845   2.489   3.474 -0.9781  0.1383  0.3139
  125MOL0     C16383   0.823   2.412   3.339  0.2939 -0.6298 -0.6681
  125MOL0     C16384   0.740   2.283   3.338 -0.3493 -0.1992  0.2406
  125MOL0     N16385   0.595   2.304   3.355  0.9000 -0.5428  0.0660
  125MOL0     C16386   0.512   2.393   3.287 -0.3186  0.8305  0.6493
  125MOL0     C16387   0.386   2.340   3.304 -0.0952 -0.3317 -0.7865
  125MOL0     C16388   0.263   2.388   3.240  0.9424  0.4436 -0.9543
  125MOL0     C16389   0.154   2.407   3.348 -0.2208  0.2207 -0.2209
  125MOL0     C16390   0.024   2.473   3.298  0.1890  0.2006  0.7282
  125MOL0     C16391  -0.077   2.480   3.406 -0.1328  0.0934 -0.9690
  125MOL0     O16392  -0.203   2.515   3.357  0.0501  0.5025 -0.2919
  125MOL0     C16393  -0.321   2.502   3.425  0.2790  0.3895 -0.2944
  125MOL0     C16394  -0.324   2.463   3.556 -0.5985 -0.6412 -1.0058
  125MOL0     C16395  -0.442   2.438   3.631 -0.5415 -0.1916  0.8082
  125MOL0     C16396  -0.565   2.452   3.563 -0.1430 -0.5159 -0.3898
  125MOL0     C16397  -0.698   2.429   3.627  0.2171  0.8554 -0.4457
  125MOL0     O16398  -0.815   2.474   3.575 -0.1169 -0.3049  0.2979
  125MOL0     C16399  -0.920   2.438   3.652  0.5282  0.6598 -0.4823
  125MOL0     C16400  -0.975   2.499   3.769  0.1892 -0.2879  0.4419
  125MOL0     C16401  -1.101   2.459   3.820  0.1263  0.3518  1.0732
  125MOL0     C16402  -1.172   2.355   3.760  0.3202 -0.6165 -0.1604
  125MOL0     O16403  -1.291   2.329   3.822  0.0987 -0.3524 -0.5342
  125MOL0     C16404  -1.381   2.220   3.788 -0.3963  0.6909  0.6461
  125MOL0     C16405  -1.517   2.212   3.863 -1.1716 -0.0035  0.9520
  125MOL0     C16406  -1.498   2.224   4.015 -0.2416 -0.6815 -0.8779
  125MOL0     C16407  -1.450   2.099   4.082  0.5789  0.0085 -0.8428
  125MOL0     C16408  -1.417   2.120   4.232  0.4022 -0.2589 -0.6038
  125MOL0     C16409  -1.306   2.026   4.282 -0.9242  0.0851 -0.5286
  125MOL0     C16410  -1.352   1.886   4.283 -0.1166  0.8559 -0.0259
  125MOL0     C16411  -1.467   1.867   4.381  0.1116  1.0446  0.3424
  125MOL0    Cl16412  -1.475   1.699   4.426 -0.1172  0.4823  0.5538
  125MOL0     C16413  -1.129   2.297   3.641  0.0317 -0.5985 -0.0823
  125MOL0     C16414  -1.008   2.342   3.587 -0.8414 -0.0531 -1.5069
  125MOL0     O16415  -0.681   2.380   3.737 -0.0205 -0.1587  0.4051
  125MOL0     C16416  -0.557   2.501   3.431  0.0290 -0.0488  0.6802
  125MOL0     C16417  -0.436   2.523   3.359  0.5225  0.0249 -0.8488
  125MOL0     N16418   0.393   2.222   3.381 -0.3691 -0.0004 -0.5986
  125MOL0     N16419   0.514   2.198   3.408 -0.1315  0.4247 -0.3989
  125MOL0     C16420   0.749   2.827   4.098  0.3926 -0.1352  0.1863
  125MOL0     C16421   0.647   2.873   4.172  0.0120 -0.8203 -0.1519
  125MOL0     C16422   0.327   3.171   4.304 -0.7163  0.5963  1.2079
  125MOL0     C16423   0.206   3.205   4.256  0.7836  0.9712 -0.1508
  125MOL0     C16424   0.090   3.243   4.333  0.9668  0.1117 -0.1603
  125MOL0     C16425   0.094   3.252   4.471 -1.0472  0.5526 -0.4057
  125MOL0     O16426  -0.011   3.298   4.547 -0.4391 -0.0752  0.3024
  125MOL0     C16427  -0.005   3.296   4.695  0.0379  0.2941 -0.1884
  125MOL0     C16428  -0.123   3.374   4.749  0.6290 -0.1580  0.5283
  125MOL0     C16429  -0.099   3.524   4.715  0.8429 -0.4976  0.2256
  125MOL0     C16430  -0.207   3.609   4.771 -0.1598  0.2820 -0.8678
  125MOL0     C16431  -0.174   3.661   4.907 -0.0809  0.1230  0.7825
  125MOL0     C16432  -0.130   3.719   5.002 -0.5535  0.0050  0.4116
  125MOL0     C16433   0.226   3.223   4.527 -0.1120  0.6429 -0.4432
  125MOL0     C16434   0.337   3.187   4.446  1.0932 -0.1053  0.1970
  125MOL0     H16435   0.706   3.206   4.151 -1.6069  0.0324  2.0261
  125MOL0     H16436   0.905   3.110   4.011 -0.1563  1.9833  2.9539
  125MOL0     H16437   0.868   2.691   3.890 -0.1918  0.4060  0.9535
  125MOL0     H16438   1.023   2.733   3.825 -1.2953 -1.8245  1.4285
  125MOL0     H16439   0.926   2.926   3.720 -1.1530  2.6742  1.9856
  125MOL0     H16440   0.762   2.894   3.783  1.9159  2.4740  2.2942
  125MOL0     H16441   0.914   2.746   3.572 -1.4523  0.9037 -3.3867
  125MOL0     H16442   0.764   2.824   3.549  0.4386  0.2920 -0.6151
  125MOL0     H16443   0.798   2.574   3.721  1.8733 -0.2821 -1.7728
  125MOL0     H16444   0.650   2.670   3.697 -1.2863 -2.7338  0.2296
  125MOL0     H16445   0.641   2.591   3.466  0.5728  1.8279 -0.4500
  125MOL0     H16446   0.672   2.454   3.572  0.8644  0.0700 -0.8739
  125MOL0     H16447   0.904   2.424   3.539 -0.7767  0.0260  0.0199
  125MOL0     H16448   0.911   2.572   3.446 -1.1361  0.1415 -0.0476
  125MOL0     H16449   0.787   2.485   3.265  1.7257  0.6339 -0.1590
  125MOL0     H16450   0.925   2.383   3.314  1.6015  2.5065  0.4281
  125MOL0     H16451   0.785   2.218   3.413 -2.3836 -1.8312  0.1281
  125MOL0     H16452   0.741   2.250   3.233 -0.3035 -3.4050  1.1681
  125MOL0     H16453   0.536   2.480   3.227 -0.7612 -0.5274 -1.6038
  125MOL0     H16454   0.226   2.324   3.159  3.3682 -1.3599 -0.7752
  125MOL0     H16455   0.280   2.491   3.209 -2.1742  1.0313 -1.0122
  125MOL0     H16456   0.190   2.446   3.444 -0.2093 -2.2543  0.8497
  125MOL0     H16457   0.125   2.305   3.375  1.6159 -0.1692  0.4050
  125MOL0     H16458   0.053   2.570   3.254  0.8305  0.6483  2.0988
  125MOL0     H16459  -0.019   2.414   3.217 -1.0625  1.7038  0.2288
  125MOL0     H16460  -0.030   2.537   3.487 -1.7996 -0.6471  0.6019
  125MOL0     H16461  -0.091   2.379   3.446  0.7183  0.4519  0.3096
  125MOL0     H16462  -0.227   2.444   3.602 -0.9098  1.0318  0.4842
  125MOL0     H16463  -0.429   2.424   3.738 -0.7918 -0.0580  0.8568
  125MOL0     H16464  -0.909   2.570   3.818  2.9184 -1.4372 -1.3136
  125MOL0     H16465  -1.145   2.513   3.904 -1.8860  2.1246 -0.9563
  125MOL0     H16466  -1.331   2.123   3.803 -3.3293 -0.7842  1.7565
  125MOL0     H16467  -1.401   2.231   3.681 -0.3671  2.2610  0.7880
  125MOL0     H16468  -1.576   2.124   3.836  0.3401 -0.2860 -1.8198
  125MOL0     H16469  -1.571   2.292   3.811 -1.9642 -0.3284  1.2520
  125MOL0     H16470  -1.593   2.263   4.055  1.0076  1.6410 -0.0067
  125MOL0     H16471  -1.420   2.298   4.034  0.3447 -1.9800  2.3423
  125MOL0     H16472  -1.513   2.011   4.066  1.4070 -1.4686  2.9027
  125MOL0     H16473  -1.362   2.076   4.020  0.3640  0.5225 -1.3424
  125MOL0     H16474  -1.508   2.114   4.292 -0.7534 -1.5170 -2.3704
  125MOL0     H16475  -1.380   2.223   4.240 -1.7261  0.4684  0.4845
  125MOL0     H16476  -1.282   2.052   4.386  1.3055 -2.6058 -0.2285
  125MOL0     H16477  -1.219   2.027   4.215 -1.0504  1.3282 -0.7026
  125MOL0     H16478  -1.387   1.857   4.184  0.3638  1.3845 -0.3511
  125MOL0     H16479  -1.272   1.817   4.312 -1.3177 -1.7139 -2.3746
  125MOL0     H16480  -1.556   1.897   4.325  0.9830 -0.5252 -2.0309
  125MOL0     H16481  -1.456   1.919   4.477 -2.0725 -0.8073  1.6946
  125MOL0     H16482  -1.171   2.211   3.588  2.5308 -1.4283 -0.8746
  125MOL0     H16483  -0.978   2.291   3.496 -1.9255  0.0394 -1.9340
  125MOL0     H16484  -0.650   2.521   3.378 -0.2983 -0.3591  1.1331
  125MOL0     H16485  -0.453   2.540   3.253  2.5694 -0.9634 -1.3791
  125MOL0     H16486   0.755   2.720   4.085 -0.1117 -0.0114 -1.1941
  125MOL0     H16487   0.572   2.805   4.210  0.8371 -1.6774 -0.0241
  125MOL0     H16488   0.196   3.222   4.149 -0.1689  4.2736  0.3280
  125MOL0     H16489   0.005   3.286   4.281  2.2586  1.0314 -1.5930
  125MOL0     H16490   0.085   3.350   4.725  0.0177  0.3188 -0.1732
  125MOL0     H16491  -0.003   3.194   4.735 -3.1405  1.0998  2.4136
  125MOL0     H16492  -0.217   3.344   4.702 -0.8812 -0.4047  3.4563
  125MOL0     H16493  -0.124   3.361   4.858 -3.8657  1.3898  0.8832
  125MOL0     H16494  -0.082   3.542   4.609 -0.8215 -0.9888 -0.1443
  125MOL0     H16495  -0.006   3.549   4.768  0.6203 -0.5321  0.6352
  125MOL0     H16496  -0.240   3.682   4.696 -2.2178  2.0841  1.5904
  125MOL0     H16497  -0.293   3.543   4.787  0.4706  0.0643  2.2782
  125MOL0     H16498  -0.107   3.778   5.088 -1.5570  0.7712  0.1626
  125MOL0     H16499   0.248   3.237   4.633  0.1225 -2.3371 -0.0209
  125MOL0     H16500   0.434   3.167   4.491  1.0451  1.0786  0.8681
  126MOL0     O16501   2.778   5.165   0.008  0.3637 -0.2174 -0.1704
  126MOL0     C16502   2.835   5.147   0.117  0.7337  0.3783 -0.1450
  126MOL0     O16503   2.780   5.149   0.241 -0.1383 -0.9358 -0.5456
  126MOL0     C16504   2.641   5.171   0.264 -0.0356  0.9026 -0.5686
  126MOL0     C16505   2.580   5.093   0.369 -0.6074 -1.2312  1.1842
  126MOL0     C16506   2.460   5.123   0.417 -0.6061 -0.0638 -0.3492
  126MOL0     C16507   2.384   5.233   0.359  0.2701  0.1556 -0.5224
  126MOL0     O16508   2.258   5.269   0.400  0.4960  0.5030  0.1283
  126MOL0     C16509   2.197   5.203   0.521 -0.7438 -0.6690 -0.4632
  126MOL0     C16510   2.059   5.261   0.554 -0.7435 -0.1022  0.1920
  126MOL0     C16511   1.944   5.257   0.449 -0.9581 -0.1652  0.0120
  126MOL0     C16512   1.813   5.322   0.479 -0.4683 -0.5452  0.3717
  126MOL0     C16513   1.701   5.239   0.550 -0.4379  0.0416 -1.4004
  126MOL0     C16514   1.566   5.302   0.557 -0.0211  0.0033  0.0060
  126MOL0     C16515   1.491   5.231   0.664  0.5003  0.0901  0.2183
  126MOL0     C16516   1.373   5.309   0.708 -0.0492 -0.1776  0.1305
  126MOL0     N16517   1.303   5.242   0.822 -0.1238 -0.0119 -0.3011
  126MOL0     C16518   1.350   5.245   0.957 -0.1569  0.8531 -1.0542
  126MOL0     C16519   1.256   5.184   1.026  0.8280  0.5498 -0.8343
  126MOL0     C16520   1.243   5.153   1.175  0.6111  0.1806  0.2283
  126MOL0     C16521   1.268   5.010   1.222  0.2716 -0.9118  0.5336
  126MOL0     C16522   1.309   5.003   1.371  0.2015  0.4032 -0.8644
  126MOL0     C16523   1.218   5.055   1.481  0.0298  0.3564  0.3112
  126MOL0     O16524   1.085   4.986   1.473 -0.1896  0.1061  0.0339
  126MOL0     C16525   0.973   5.056   1.487  0.0856 -1.1125  0.1193
  126MOL0     C16526   0.873   5.049   1.390 -0.3640  0.7792 -0.4076
  126MOL0     C16527   0.749   5.101   1.403 -0.0067 -0.3220 -0.9451
  126MOL0     C16528   0.724   5.162   1.531  1.2963  0.8166 -0.5402
  126MOL0     C16529   0.591   5.212   1.563 -0.1567  0.4149 -0.6314
  126MOL0     O16530   0.463   5.159   1.513 -0.1355  0.4227  0.0621
  126MOL0     C16531   0.344   5.205   1.560 -0.1446 -0.6484  1.2092
  126MOL0     C16532   0.240   5.109   1.542  0.2465 -0.1399  0.3363
  126MOL0     C16533   0.110   5.124   1.592  0.1334 -0.1101 -0.0155
  126MOL0     C16534   0.066   5.242   1.651  0.3180 -0.8121 -0.4217
  126MOL0     O16535  -0.066   5.264   1.683 -0.3462 -0.7805 -0.1016
  126MOL0     C16536  -0.113   5.398   1.710  0.6341  1.4430 -0.2511
  126MOL0     C16537  -0.267   5.387   1.733 -0.4385  0.3191 -0.5071
  126MOL0     C16538  -0.308   5.287   1.840  0.6646 -0.2647 -0.7084
  126MOL0     C16539  -0.276   5.324   1.984 -0.0810  1.0692  1.3978
  126MOL0     C16540  -0.362   5.239   2.078  0.0065 -0.2152  0.0123
  126MOL0     C16541  -0.297   5.198   2.216 -0.4533 -0.1511 -0.2314
  126MOL0     C16542  -0.381   5.083   2.280 -0.9380  0.1199  0.6172
  126MOL0     C16543  -0.326   4.996   2.402 -0.6858 -0.7125 -0.6153
  126MOL0    Cl16544  -0.182   4.892   2.384  0.2045  0.2504 -0.4817
  126MOL0     C16545   0.166   5.339   1.677  0.1187  0.0001 -0.5020
  126MOL0     C16546   0.301   5.323   1.632  0.2271 -0.5030 -0.2472
  126MOL0     O16547   0.596   5.305   1.643 -0.2628 -0.0776  0.2078
  126MOL0     C16548   0.819   5.170   1.626  0.0071  0.1376 -0.1293
  126MOL0     C16549   0.949   5.122   1.604  0.5303 -0.1302  0.0170
  126MOL0     N16550   1.150   5.158   0.940  0.1616  0.5194 -0.3169
  126MOL0     N16551   1.177   5.189   0.813  0.2263 -0.7208 -0.1785
  126MOL0     C16552   2.438   5.303   0.251 -0.7829 -1.0591 -0.1264
  126MOL0     C16553   2.570   5.276   0.211  0.8092 -0.6154 -0.3760
  126MOL0     C16554   2.972   5.103   0.116 -0.8686  0.2767 -0.2133
  126MOL0     C16555   3.042   5.088  -0.009  0.7442 -0.8131 -0.0637
  126MOL0     C16556   3.173   5.058  -0.002  0.0620  1.0168 -0.2424
  126MOL0     C16557   3.244   5.041   0.118 -0.1992  0.3195  0.6984
  126MOL0     O16558   3.378   5.017   0.125  0.2912  0.1295  0.1625
  126MOL0     C16559   3.465   5.107   0.043 -0.3725  0.0532 -0.3875
  126MOL0     C16560   3.591   5.024   0.010 -0.4087  0.5388 -0.0604
  126MOL0     C16561   3.662   4.950   0.120 -0.8268 -0.5446 -0.1503
  126MOL0     C16562   3.811   4.955   0.088 -0.3823  1.0862  1.2649
  126MOL0     C16563   3.890   4.885   0.183 -0.5802  0.0831 -0.8411
  126MOL0     C16564   3.953   4.830   0.267 -0.1955  0.4133  0.5141
  126MOL0     C16565   3.165   5.058   0.231 -0.3157  0.0034 -0.3545
  126MOL0     C16566   3.031   5.076   0.236  0.0149 -0.1012  0.1812
  126MOL0     H16567   2.630   5.008   0.414  1.7503  0.1040  1.2566
  126MOL0     H16568   2.422   5.061   0.498  4.3130  0.5642  2.8866
  126MOL0     H16569   2.264   5.208   0.608  1.7067 -1.8293 -2.1507
  126MOL0     H16570   2.178   5.098   0.497  0.9496 -0.6672 -2.0521
  126MOL0     H16571   2.071   5.369   0.569  2.7730 -0.2136 -0.9889
  126MOL0     H16572   2.006   5.208   0.633 -2.6946 -1.9923 -2.2078
  126MOL0     H16573   1.931   5.150   0.430 -0.8837 -0.2830  0.6082
  126MOL0     H16574   1.994   5.305   0.365  0.7874  0.8583  1.5734
  126MOL0     H16575   1.827   5.418   0.530 -0.3468 -0.1523 -0.3826
  126MOL0     H16576   1.761   5.334   0.384 -0.4967 -1.6494  0.2361
  126MOL0     H16577   1.738   5.220   0.652 -2.7518 -1.6624 -0.8035
  126MOL0     H16578   1.692   5.137   0.511  0.4446 -0.3762 -0.5657
  126MOL0     H16579   1.507   5.293   0.465 -1.9799  0.1834  1.1716
  126MOL0     H16580   1.576   5.405   0.592 -0.3095  0.0388 -0.0093
  126MOL0     H16581   1.466   5.140   0.609 -1.9464 -0.8870  2.6961
  126MOL0     H16582   1.539   5.192   0.754  0.4152 -0.8581 -0.1320
  126MOL0     H16583   1.310   5.331   0.621  1.3225  2.9632 -0.2258
  126MOL0     H16584   1.400   5.412   0.736  2.2148 -0.9084  0.8398
  126MOL0     H16585   1.449   5.277   0.988  0.3022 -2.4516  1.3841
  126MOL0     H16586   1.140   5.173   1.206  1.0328  1.6993  0.7669
  126MOL0     H16587   1.302   5.226   1.233  3.1522  0.1299 -2.0421
  126MOL0     H16588   1.354   4.983   1.160 -0.0547  2.5766 -1.7853
  126MOL0     H16589   1.178   4.950   1.205 -0.1774 -0.0387 -0.3470
  126MOL0     H16590   1.306   4.896   1.396 -1.9817 -0.4848 -4.2002
  126MOL0     H16591   1.408   5.047   1.377  0.0137  0.6680  0.6890
  126MOL0     H16592   1.217   5.163   1.466 -0.8457  0.2458 -0.5266
  126MOL0     H16593   1.247   5.038   1.585 -1.6999  0.6914  0.8910
  126MOL0     H16594   0.908   5.002   1.299  0.7933 -1.0877  0.9369
  126MOL0     H16595   0.679   5.095   1.320 -0.2021  2.0005 -1.0174
  126MOL0     H16596   0.267   5.010   1.509  0.1696 -0.0790  0.0908
  126MOL0     H16597   0.034   5.050   1.571  1.6406 -1.0419 -2.6740
  126MOL0     H16598  -0.091   5.465   1.627  0.2794 -1.4211 -2.8741
  126MOL0     H16599  -0.060   5.436   1.798  0.3198 -1.0637  1.1360
  126MOL0     H16600  -0.300   5.345   1.637 -1.1603 -2.3916  0.8361
  126MOL0     H16601  -0.319   5.480   1.756 -0.4214  0.6092 -1.5633
  126MOL0     H16602  -0.258   5.192   1.817  1.4551 -0.0536  0.0758
  126MOL0     H16603  -0.415   5.272   1.824  0.5281 -3.7692  2.1763
  126MOL0     H16604  -0.169   5.306   1.996  1.0614  1.2076 -4.9139
  126MOL0     H16605  -0.281   5.430   2.011 -0.9639  0.7516  2.5479
  126MOL0     H16606  -0.380   5.151   2.016 -5.5413  2.6273 -3.2173
  126MOL0     H16607  -0.453   5.299   2.092 -0.3647 -0.0492 -2.6250
  126MOL0     H16608  -0.278   5.281   2.284  0.0475 -0.0078 -0.5455
  126MOL0     H16609  -0.202   5.147   2.200 -1.5971 -2.4120 -0.2709
  126MOL0     H16610  -0.479   5.126   2.303 -1.8827 -0.0129 -2.6529
  126MOL0     H16611  -0.397   5.009   2.200  0.5876  2.6192 -2.2054
  126MOL0     H16612  -0.406   4.929   2.434  1.3110 -3.1824 -0.4376
  126MOL0     H16613  -0.314   5.055   2.493  1.5063  0.1328 -1.3765
  126MOL0     H16614   0.141   5.428   1.733  3.2005  0.0095  1.1085
  126MOL0     H16615   0.370   5.406   1.637 -0.0867 -0.2587  0.0769
  126MOL0     H16616   0.804   5.225   1.718  1.7247  0.7478 -0.1741
  126MOL0     H16617   1.025   5.125   1.682 -0.0335  2.7177  0.5759
  126MOL0     H16618   2.385   5.380   0.196 -0.6902 -0.5221  0.5229
  126MOL0     H16619   2.609   5.347   0.138  0.4857 -3.2167 -3.3059
  126MOL0     H16620   2.997   5.099  -0.107 -0.2098 -0.0924  0.4411
  126MOL0     H16621   3.225   5.038  -0.095  2.6573  0.4320  1.2339
  126MOL0     H16622   3.492   5.200   0.095  1.2867 -0.8464  0.4480
  126MOL0     H16623   3.416   5.137  -0.050  0.0798 -3.5231 -1.9163
  126MOL0     H16624   3.554   4.952  -0.064  0.2260  0.4650 -0.3060
  126MOL0     H16625   3.665   5.089  -0.037  1.3626 -1.9554 -0.9035
  126MOL0     H16626   3.621   4.848   0.117 -1.5312 -0.2982  0.7568
  126MOL0     H16627   3.640   5.003   0.213  1.1427  3.4491 -1.7061
  126MOL0     H16628   3.826   4.905  -0.008 -0.0853 -0.7500  2.2377
  126MOL0     H16629   3.847   5.058   0.075 -2.7414  1.7805 -0.6680
  126MOL0     H16630   4.011   4.787   0.347 -1.3452  4.3704  3.8304
  126MOL0     H16631   3.224   5.072   0.321  1.0447  2.1598 -1.4913
  126MOL0     H16632   2.986   5.074   0.335 -0.5859  1.1923 -0.0410
  127MOL0     O16633  11.034  10.124   0.094  0.5394 -0.1212  0.1154
  127MOL0     C16634  11.082  10.241   0.084  0.4986  0.5646 -0.3227
  127MOL0     O16635  11.046  10.350   0.161  0.4125  0.5571  0.5945
  127MOL0     C16636  10.944  10.358   0.249  0.6612 -0.2187  0.6265
  127MOL0     C16637  10.825  10.276   0.247 -0.5477  0.2715  0.5485
  127MOL0     C16638  10.723  10.295   0.339  0.3686 -0.2177  0.2770
  127MOL0     C16639  10.732  10.401   0.439 -0.5196  0.7106 -0.0756
  127MOL0     O16640  10.628  10.434   0.518  0.1458 -0.0748  0.7359
  127MOL0     C16641  10.603  10.347   0.631  0.3640  0.6874  0.0988
  127MOL0     C16642  10.473  10.380   0.712  0.4035  0.1674  0.3108
  127MOL0     C16643  10.349  10.334   0.635  0.5830 -0.4529 -0.0964
  127MOL0     C16644  10.221  10.348   0.716 -0.0817 -0.3439 -0.2123
  127MOL0     C16645  10.095  10.299   0.639  0.3249  0.0502  0.1076
  127MOL0     C16646   9.966  10.382   0.668  0.1109  0.0260 -0.3116
  127MOL0     C16647   9.920  10.341   0.809 -0.2674 -0.7300 -0.1823
  127MOL0     C16648   9.774  10.399   0.841 -0.0355 -0.4869  0.3171
  127MOL0     N16649   9.760  10.439   0.981  0.2125  0.5298  0.5400
  127MOL0     C16650   9.754  10.570   1.009  0.6366 -0.0753 -0.2206
  127MOL0     C16651   9.691  10.571   1.133  1.0029 -0.5416  0.5668
  127MOL0     C16652   9.646  10.706   1.183 -0.4484  0.5159 -0.5739
  127MOL0     C16653   9.521  10.689   1.268  0.6840 -0.0929 -0.0242
  127MOL0     C16654   9.547  10.626   1.401 -0.2787 -0.4681 -0.8491
  127MOL0     C16655   9.419  10.665   1.483  0.4982  0.6917 -0.1019
  127MOL0     O16656   9.302  10.598   1.436  0.2136 -0.4221 -0.1195
  127MOL0     C16657   9.209  10.550   1.521  0.7262  0.2667 -0.2180
  127MOL0     C16658   9.225  10.509   1.650  0.5887  1.1807 -0.0245
  127MOL0     C16659   9.119  10.446   1.726 -0.0791 -0.1197 -0.5082
  127MOL0     C16660   8.995  10.428   1.666  0.2693  0.7449 -0.4241
  127MOL0     C16661   8.897  10.357   1.740  0.4349  0.4667 -0.7641
  127MOL0     O16662   8.920  10.318   1.870  0.2991 -0.4100 -0.3341
  127MOL0     C16663   8.837  10.229   1.939  0.7779 -0.3583 -0.4617
  127MOL0     C16664   8.740  10.136   1.881  0.0853 -0.3109 -0.8116
  127MOL0     C16665   8.658  10.066   1.968 -0.3329 -0.8565  0.1382
  127MOL0     C16666   8.656  10.096   2.103  0.3845  0.5640  0.5824
  127MOL0     O16667   8.546  10.050   2.186 -0.5734 -0.0657  0.1093
  127MOL0     C16668   8.437   9.974   2.138 -0.8182 -1.1614 -0.6976
  127MOL0     C16669   8.330   9.968   2.250 -0.0479  0.0085  0.1281
  127MOL0     C16670   8.198   9.934   2.192  0.3988  0.6467  0.8395
  127MOL0     C16671   8.096   9.929   2.309  0.1481  0.2084  0.2268
  127MOL0     C16672   7.982   9.830   2.283  0.7949 -0.1849  1.1192
  127MOL0     C16673   7.893   9.831   2.410  0.4875  0.2783  0.1920
  127MOL0     C16674   7.749   9.794   2.388  0.0507 -0.0632  0.9114
  127MOL0     C16675   7.650   9.848   2.490 -0.0367 -1.0867  0.1524
  127MOL0    Cl16676   7.713   9.882   2.658  0.5731  0.3479  0.1383
  127MOL0     C16677   8.754  10.176   2.157  0.2896 -0.5177  0.1013
  127MOL0     C16678   8.851  10.231   2.075 -0.7703 -0.2093  0.4020
  127MOL0     O16679   8.797  10.342   1.678 -1.0111  0.3430 -0.0121
  127MOL0     C16680   8.981  10.481   1.535  0.9739  0.4996 -0.5773
  127MOL0     C16681   9.083  10.542   1.463 -0.3995 -0.0463 -0.2374
  127MOL0     N16682   9.669  10.447   1.176  0.0663  0.5144  0.1473
  127MOL0     N16683   9.697  10.365   1.080 -0.4444 -1.0737  0.5855
  127MOL0     C16684  10.852  10.479   0.442  0.1099  0.8275 -0.7067
  127MOL0     C16685  10.958  10.450   0.349 -0.9462 -0.4018  0.1917
  127MOL0     C16686  11.207  10.248  -0.005  0.0985  0.3745 -0.2411
  127MOL0     C16687  11.256  10.125  -0.050 -1.4524 -0.7297 -0.0827
  127MOL0     C16688  11.375  10.136  -0.133  0.2527  0.4558 -0.2938
  127MOL0     C16689  11.439  10.260  -0.154 -0.0213  0.3020  0.5653
  127MOL0     O16690  11.541  10.267  -0.239  0.0781 -0.1045  0.7540
  127MOL0     C16691  11.658  10.315  -0.175 -0.0499 -0.7617 -1.0016
  127MOL0     C16692  11.788  10.243  -0.230 -0.2440  0.1768 -0.1621
  127MOL0     C16693  11.829  10.268  -0.369 -0.4413  0.5479  0.2128
  127MOL0     C16694  11.966  10.214  -0.406  0.4576  0.6209 -0.5461
  127MOL0     C16695  11.968  10.180  -0.553 -0.2665 -0.5420 -0.3508
  127MOL0     C16696  11.979  10.171  -0.668 -0.1104  1.2004  0.4196
  127MOL0     C16697  11.380  10.377  -0.104 -1.2302 -0.6670 -0.1135
  127MOL0     C16698  11.267  10.378  -0.023  0.7914  0.9854 -0.1200
  127MOL0     H16699  10.817  10.218   0.156  0.2066  0.8132  0.1228
  127MOL0     H16700  10.630  10.240   0.323  0.4667  0.0704 -1.4032
  127MOL0     H16701  10.689  10.343   0.698  0.2541 -1.7242  0.1713
  127MOL0     H16702  10.609  10.245   0.593  1.1123  0.7482  0.0451
  127MOL0     H16703  10.467  10.483   0.748 -3.5583  0.2874 -0.2848
  127MOL0     H16704  10.484  10.317   0.802  1.1406  1.7121  1.3366
  127MOL0     H16705  10.362  10.234   0.593  2.5858 -0.7375  1.0595
  127MOL0     H16706  10.329  10.397   0.549 -3.0872 -1.7782 -0.3737
  127MOL0     H16707  10.237  10.304   0.815  0.4808 -0.8132 -0.5036
  127MOL0     H16708  10.208  10.455   0.738 -0.9646 -0.6514  0.8489
  127MOL0     H16709  10.085  10.193   0.665 -0.2306 -0.0742 -0.5922
  127MOL0     H16710  10.106  10.313   0.531  4.3742  0.3990  0.4080
  127MOL0     H16711   9.883  10.359   0.601 -1.9123 -0.9305  2.3098
  127MOL0     H16712   9.985  10.490   0.666  0.7886 -0.0195  1.6105
  127MOL0     H16713   9.910  10.234   0.827 -0.6026 -0.5635  0.6596
  127MOL0     H16714   9.983  10.392   0.882 -0.5921  1.5646 -1.3938
  127MOL0     H16715   9.696  10.324   0.822  1.1917 -2.7081  3.2227
  127MOL0     H16716   9.748  10.487   0.782 -3.2757 -2.2612 -1.1690
  127MOL0     H16717   9.780  10.658   0.950 -3.3914  1.9360  0.6690
  127MOL0     H16718   9.638  10.781   1.104  1.4055  2.5016  1.0103
  127MOL0     H16719   9.725  10.751   1.244 -0.3544  0.1527 -0.4208
  127MOL0     H16720   9.450  10.621   1.220 -0.5202 -0.6059  2.3053
  127MOL0     H16721   9.480  10.790   1.268 -0.5102 -0.5385 -1.7715
  127MOL0     H16722   9.556  10.517   1.414  2.1574 -0.1935  0.2895
  127MOL0     H16723   9.625  10.674   1.461 -0.8308 -1.1081  0.4453
  127MOL0     H16724   9.394  10.772   1.475 -2.0326  0.0943 -1.3144
  127MOL0     H16725   9.444  10.633   1.585  1.1152 -0.8942 -0.7178
  127MOL0     H16726   9.318  10.510   1.708  1.4149 -1.3452 -1.1708
  127MOL0     H16727   9.139  10.416   1.828 -0.6864  1.8667  0.2442
  127MOL0     H16728   8.726  10.118   1.775 -0.3700 -0.3719 -0.7435
  127MOL0     H16729   8.589   9.989   1.935 -1.9700 -0.0482  1.5139
  127MOL0     H16730   8.476   9.875   2.112  0.8201 -0.8623  0.4879
  127MOL0     H16731   8.403  10.019   2.044 -1.2493  1.3621  0.5802
  127MOL0     H16732   8.323  10.065   2.299  3.2793  0.2807  0.2681
  127MOL0     H16733   8.364   9.893   2.322  0.1466 -0.5306 -0.5127
  127MOL0     H16734   8.206   9.835   2.145 -1.3578  0.3102  1.1763
  127MOL0     H16735   8.157  10.008   2.122  0.0064 -0.0966  0.2620
  127MOL0     H16736   8.139   9.905   2.407 -0.6169 -2.7875 -0.0730
  127MOL0     H16737   8.046  10.026   2.319  2.4434  1.8532 -2.7139
  127MOL0     H16738   8.018   9.732   2.251 -6.9452 -3.6391  0.6702
  127MOL0     H16739   7.926   9.867   2.196  1.1031 -0.2995  0.8701
  127MOL0     H16740   7.891   9.929   2.460 -2.9444  1.2763 -1.6197
  127MOL0     H16741   7.942   9.754   2.470  2.9138 -0.1551 -2.1526
  127MOL0     H16742   7.707   9.838   2.297 -0.2172 -0.8843  0.6268
  127MOL0     H16743   7.729   9.687   2.380 -0.2687 -0.2932  3.7698
  127MOL0     H16744   7.559   9.787   2.489 -0.0051 -1.3470  3.0736
  127MOL0     H16745   7.619   9.944   2.448 -1.0295 -1.0846  0.8656
  127MOL0     H16746   8.765  10.191   2.264 -0.6425  3.3207 -0.2065
  127MOL0     H16747   8.931  10.289   2.119 -0.2590 -1.7145  1.5490
  127MOL0     H16748   8.885  10.485   1.484  1.7253 -1.1288 -2.1973
  127MOL0     H16749   9.077  10.588   1.365  2.0304  0.0059 -0.3982
  127MOL0     H16750  10.861  10.547   0.525  0.9156  0.5869 -0.5858
  127MOL0     H16751  11.052  10.504   0.358 -0.1098 -1.8192  0.2434
  127MOL0     H16752  11.217  10.029  -0.021 -1.7913 -0.2297  1.1567
  127MOL0     H16753  11.402  10.041  -0.177 -2.0620  0.0466 -0.9534
  127MOL0     H16754  11.654  10.325  -0.066 -0.8757 -0.4608 -1.0552
  127MOL0     H16755  11.673  10.421  -0.195  0.2100 -0.9247 -1.6954
  127MOL0     H16756  11.875  10.269  -0.168 -1.6064  2.2772  1.0077
  127MOL0     H16757  11.777  10.135  -0.224  1.3452 -0.1411 -1.9222
  127MOL0     H16758  11.837  10.377  -0.383 -0.6627  0.6257  0.6812
  127MOL0     H16759  11.744  10.225  -0.423  0.7821 -0.9059 -0.6338
  127MOL0     H16760  12.051  10.278  -0.381  3.1655 -2.6627 -0.5086
  127MOL0     H16761  11.981  10.119  -0.352 -0.6895  0.6816 -0.0913
  127MOL0     H16762  11.997  10.163  -0.774  2.7960  0.6772  0.8424
  127MOL0     H16763  11.403  10.481  -0.123 -0.5987 -0.4129  1.8652
  127MOL0     H16764  11.225  10.472   0.009  4.3740  2.3469  1.1587
  128MOL0     O16765   0.554   4.551   6.026 -0.2987  0.8121 -0.7546
  128MOL0     C16766   0.512   4.465   6.106 -0.2910  0.1782 -0.7099
  128MOL0     O16767   0.589   4.401   6.203  0.3020 -0.4642  0.4210
  128MOL0     C16768   0.728   4.424   6.203  0.2697 -0.2241  0.3194
  128MOL0     C16769   0.797   4.493   6.302 -0.3236  0.3026  0.4819
  128MOL0     C16770   0.938   4.488   6.306 -0.1405 -0.1573  0.1704
  128MOL0     C16771   1.012   4.420   6.207 -0.5092  0.1046 -0.6462
  128MOL0     O16772   1.146   4.419   6.199  0.0485  0.1363 -0.1091
  128MOL0     C16773   1.204   4.388   6.333  0.6112 -0.9258  0.4195
  128MOL0     C16774   1.339   4.322   6.305  0.2975 -0.4917  0.2369
  128MOL0     C16775   1.404   4.371   6.172  0.2543  0.2872  0.3547
  128MOL0     C16776   1.555   4.355   6.160 -0.9241  0.2520 -0.3642
  128MOL0     C16777   1.577   4.301   6.012 -0.3327 -0.5401 -0.4725
  128MOL0     C16778   1.728   4.272   6.000  0.1457 -0.4076 -0.7393
  128MOL0     C16779   1.768   4.197   5.871  0.4147  0.0567 -0.5439
  128MOL0     C16780   1.917   4.202   5.837 -0.3832 -0.1818 -0.4296
  128MOL0     N16781   1.951   4.139   5.707  0.0963 -0.1791 -1.1963
  128MOL0     C16782   2.052   4.047   5.691 -0.5200  0.2049 -0.2661
  128MOL0     C16783   2.066   4.038   5.555  0.1999  0.8601 -0.5689
  128MOL0     C16784   2.161   3.953   5.491 -0.2326  0.0842  0.2776
  128MOL0     C16785   2.285   3.929   5.574 -0.5814 -0.6785 -0.4460
  128MOL0     C16786   2.375   3.817   5.533  0.6814  0.6271 -0.0266
  128MOL0     C16787   2.400   3.809   5.383 -0.2938  0.0560 -0.4148
  128MOL0     O16788   2.477   3.925   5.351  0.3636 -0.6074  0.2808
  128MOL0     C16789   2.500   3.948   5.218 -0.4787 -0.4785  1.0496
  128MOL0     C16790   2.507   3.861   5.114  0.0584  0.7639 -0.9805
  128MOL0     C16791   2.530   3.894   4.980 -0.1666  0.0587 -1.0547
  128MOL0     C16792   2.551   4.025   4.942  0.7286 -1.1283  0.3440
  128MOL0     C16793   2.576   4.056   4.803  0.6887 -0.1906  0.2377
  128MOL0     O16794   2.585   4.185   4.771  0.3382  1.0349  0.0099
  128MOL0     C16795   2.521   4.229   4.657  0.4935 -0.4796 -0.4371
  128MOL0     C16796   2.573   4.334   4.581  0.8923 -0.8577 -0.4409
  128MOL0     C16797   2.501   4.377   4.472 -0.2145 -0.3477  0.0401
  128MOL0     C16798   2.371   4.341   4.435  0.3433 -0.2887 -0.3803
  128MOL0     O16799   2.300   4.393   4.333  0.1273 -0.3169  0.1432
  128MOL0     C16800   2.373   4.425   4.210 -0.2656  0.1067  0.0324
  128MOL0     C16801   2.282   4.482   4.103 -0.3564 -0.6107 -0.2787
  128MOL0     C16802   2.158   4.398   4.092 -0.1962  0.4678 -0.2375
  128MOL0     C16803   2.039   4.478   4.026 -0.8779 -0.3415  0.2690
  128MOL0     C16804   1.981   4.575   4.129 -0.4244  0.0851  0.8675
  128MOL0     C16805   1.831   4.586   4.120  0.4374  0.5499 -0.5858
  128MOL0     C16806   1.785   4.705   4.208 -0.8524 -0.6398 -0.6723
  128MOL0     C16807   1.688   4.677   4.324 -0.6412 -0.1173 -0.0578
  128MOL0    Cl16808   1.764   4.566   4.449  0.2745 -0.2716 -0.0691
  128MOL0     C16809   2.310   4.257   4.529 -0.0479  0.4055 -0.4308
  128MOL0     C16810   2.381   4.197   4.635 -0.2327 -0.2013  0.1549
  128MOL0     O16811   2.576   3.971   4.722  0.5066  0.3327  0.2249
  128MOL0     C16812   2.550   4.121   5.047 -0.1698  0.0148  0.2624
  128MOL0     C16813   2.524   4.079   5.175 -0.4080  0.2566 -0.6921
  128MOL0     N16814   1.968   4.124   5.500  0.5194  0.3707  1.1020
  128MOL0     N16815   1.896   4.182   5.590  0.2862  0.6995 -0.0868
  128MOL0     C16816   0.948   4.356   6.104  0.3982  0.0065  0.0931
  128MOL0     C16817   0.808   4.358   6.095  0.7538  0.4270 -0.7668
  128MOL0     C16818   0.370   4.423   6.083  0.8789 -0.0380  0.2192
  128MOL0     C16819   0.284   4.498   6.006 -0.6254  0.3699 -0.3533
  128MOL0     C16820   0.149   4.465   6.013  0.7818 -0.8977 -0.5625
  128MOL0     C16821   0.089   4.360   6.088  1.0650  0.2616 -0.5416
  128MOL0     O16822  -0.043   4.323   6.094  0.1855 -0.3224  0.4744
  128MOL0     C16823  -0.141   4.419   6.048 -0.2177  0.0961  0.7008
  128MOL0     C16824  -0.277   4.356   6.084  0.2417 -0.1927 -0.7664
  128MOL0     C16825  -0.307   4.354   6.232  0.2143 -0.5074 -0.6575
  128MOL0     C16826  -0.455   4.390   6.263  0.6903 -0.1613 -0.0606
  128MOL0     C16827  -0.548   4.287   6.212  0.5138 -0.6927  0.4946
  128MOL0     C16828  -0.621   4.199   6.168 -0.2659  0.3636 -0.3116
  128MOL0     C16829   0.182   4.270   6.148 -0.7915 -0.7785 -0.5517
  128MOL0     C16830   0.319   4.306   6.152  0.8642 -0.4488 -0.5185
  128MOL0     H16831   0.750   4.537   6.389 -0.7451  0.3915  0.2136
  128MOL0     H16832   0.984   4.543   6.388  1.1338  2.1209 -1.9276
  128MOL0     H16833   1.152   4.302   6.376  1.7284 -2.5642 -1.3693
  128MOL0     H16834   1.210   4.477   6.397 -0.5487 -0.3147 -0.2945
  128MOL0     H16835   1.326   4.213   6.310  2.1790 -0.9413 -2.5148
  128MOL0     H16836   1.406   4.350   6.387 -1.1306  0.1465  1.2260
  128MOL0     H16837   1.390   4.480   6.180 -1.4330 -0.0015  2.3338
  128MOL0     H16838   1.348   4.339   6.084  2.8672  0.9004 -1.6525
  128MOL0     H16839   1.609   4.448   6.178 -1.3916 -0.0116  3.0044
  128MOL0     H16840   1.600   4.290   6.236 -1.8034 -1.5370 -1.3002
  128MOL0     H16841   1.536   4.382   5.951 -2.6092 -0.7703  0.6640
  128MOL0     H16842   1.525   4.207   5.992  0.3351 -0.4700 -2.8604
  128MOL0     H16843   1.770   4.222   6.088  0.9399  3.9620  1.6481
  128MOL0     H16844   1.775   4.370   5.987 -1.3345  0.0869 -2.7348
  128MOL0     H16845   1.733   4.095   5.857 -1.6625  0.3802  1.7621
  128MOL0     H16846   1.715   4.258   5.797 -0.6847  1.8566  1.6421
  128MOL0     H16847   1.964   4.155   5.924  0.1326 -0.1402 -0.6869
  128MOL0     H16848   1.956   4.304   5.834 -1.7319  0.3613 -0.3049
  128MOL0     H16849   2.101   3.997   5.774  2.4326 -0.6757 -2.3581
  128MOL0     H16850   2.186   3.995   5.393 -1.3099 -1.5260 -0.7358
  128MOL0     H16851   2.122   3.853   5.471 -0.1219  0.6085 -3.1378
  128MOL0     H16852   2.261   3.924   5.680  1.8096  2.1013  0.3783
  128MOL0     H16853   2.338   4.025   5.572 -1.2290 -0.3153 -0.5053
  128MOL0     H16854   2.467   3.836   5.590  0.8501 -0.8915  0.2348
  128MOL0     H16855   2.332   3.719   5.554  3.4395 -0.2076  2.4077
  128MOL0     H16856   2.302   3.801   5.334 -0.4016 -1.4159 -0.0050
  128MOL0     H16857   2.453   3.721   5.345  0.2662  1.5960 -3.5829
  128MOL0     H16858   2.502   3.754   5.132 -1.1132  0.7337 -1.4405
  128MOL0     H16859   2.550   3.806   4.920  0.5488 -0.1615 -0.4960
  128MOL0     H16860   2.664   4.379   4.619 -0.2041  1.2677 -0.1936
  128MOL0     H16861   2.556   4.442   4.405 -4.8808  2.0428 -1.9379
  128MOL0     H16862   2.414   4.325   4.189 -3.0413 -1.7269  2.4485
  128MOL0     H16863   2.451   4.495   4.238 -1.5202  1.1724  1.0199
  128MOL0     H16864   2.332   4.475   4.006  2.1794 -2.1604  1.0464
  128MOL0     H16865   2.263   4.586   4.133  0.6073 -0.9798  1.7534
  128MOL0     H16866   2.119   4.352   4.183  1.0663 -0.3096 -0.0645
  128MOL0     H16867   2.180   4.311   4.029  0.3773 -1.1379  2.0523
  128MOL0     H16868   2.076   4.523   3.933  0.8764  0.2380  1.1930
  128MOL0     H16869   1.965   4.404   3.997 -0.9528  0.3771 -1.5197
  128MOL0     H16870   2.020   4.673   4.099 -2.3055  0.2917 -1.0735
  128MOL0     H16871   2.027   4.575   4.229  1.7801  1.4662 -0.0750
  128MOL0     H16872   1.785   4.494   4.157  1.4126  0.4386  0.3954
  128MOL0     H16873   1.796   4.596   4.017  1.0804  0.1946 -0.8411
  128MOL0     H16874   1.872   4.753   4.253 -1.5749  1.4875 -1.4281
  128MOL0     H16875   1.749   4.784   4.141 -0.9146 -0.9330 -0.9920
  128MOL0     H16876   1.605   4.623   4.278 -0.5666 -0.5366  0.2965
  128MOL0     H16877   1.653   4.764   4.381 -3.7534 -0.3422 -1.3781
  128MOL0     H16878   2.203   4.240   4.521 -0.9085  4.5144 -0.2805
  128MOL0     H16879   2.327   4.126   4.697 -1.9346 -0.5916 -1.7008
  128MOL0     H16880   2.574   4.225   5.027  1.9745 -1.1192 -4.4241
  128MOL0     H16881   2.520   4.153   5.254  2.1408 -0.3684  0.1169
  128MOL0     H16882   1.003   4.309   6.024 -2.1760  1.5256 -2.7622
  128MOL0     H16883   0.756   4.305   6.016 -0.1528  1.2030 -0.7120
  128MOL0     H16884   0.310   4.590   5.954 -0.6067  1.2147  1.1133
  128MOL0     H16885   0.082   4.511   5.942  1.8377 -3.6423 -3.5382
  128MOL0     H16886  -0.151   4.443   5.942  2.5456  1.9807  0.7623
  128MOL0     H16887  -0.112   4.508   6.104  0.6368 -0.4334  1.1421
  128MOL0     H16888  -0.355   4.407   6.027 -0.2322  0.5780  0.5442
  128MOL0     H16889  -0.276   4.252   6.047  0.4792  0.2747 -2.1582
  128MOL0     H16890  -0.238   4.415   6.290  0.1045 -1.2282  0.2676
  128MOL0     H16891  -0.287   4.253   6.271 -2.8081 -0.4912  1.3024
  128MOL0     H16892  -0.455   4.416   6.369  2.0383  0.5907 -0.2214
  128MOL0     H16893  -0.471   4.481   6.205  2.7005  1.3283  1.5466
  128MOL0     H16894  -0.682   4.138   6.105 -2.2896  3.3963 -1.5005
  128MOL0     H16895   0.160   4.180   6.205  1.1204  0.5333  2.5801
  128MOL0     H16896   0.389   4.251   6.215  1.4924 -2.3174 -2.7017
  129MOL0     O16897  10.687  10.764   0.690 -0.6846 -0.8973  0.5067
  129MOL0     C16898  10.748  10.803   0.790  0.6583 -0.2285  0.1440
  129MOL0     O16899  10.764  10.934   0.829  0.6225  0.3000 -0.4572
  129MOL0     C16900  10.686  11.027   0.775  0.8560 -0.1565  0.5589
  129MOL0     C16901  10.727  11.106   0.665 -0.0525 -0.2078 -0.2747
  129MOL0     C16902  10.630  11.176   0.597 -0.1069  0.2992  0.5763
  129MOL0     C16903  10.493  11.166   0.613  0.1255 -0.1502  0.2585
  129MOL0     O16904  10.418  11.228   0.512  0.4633  0.2859 -0.4278
  129MOL0     C16905  10.311  11.155   0.438  0.3130  0.0543  0.7265
  129MOL0     C16906  10.325  11.201   0.294  0.8201 -0.6901  0.3759
  129MOL0     C16907  10.226  11.123   0.202 -1.4301 -0.1182  0.0721
  129MOL0     C16908  10.285  11.139   0.062 -0.3211 -0.0258 -0.0172
  129MOL0     C16909  10.240  11.270   0.009 -0.0854 -0.8954  0.5808
  129MOL0     C16910  10.274  11.292  -0.137 -0.5802  0.0316 -0.0935
  129MOL0     C16911  10.204  11.420  -0.190  1.0262 -0.4730 -0.5527
  129MOL0     C16912  10.186  11.435  -0.338 -0.5318  0.5822 -0.1141
  129MOL0     N16913  10.129  11.317  -0.407 -0.4228 -0.0504  0.2904
  129MOL0     C16914  10.000  11.271  -0.411  0.3449  0.7408  0.0341
  129MOL0     C16915  10.001  11.155  -0.487  0.2226  0.0690 -0.6582
  129MOL0     C16916   9.893  11.056  -0.508  0.1942  0.6615  0.7306
  129MOL0     C16917   9.910  10.984  -0.645 -0.8219 -0.3492  0.6282
  129MOL0     C16918   9.776  10.927  -0.693 -0.6005 -0.6676 -0.2653
  129MOL0     C16919   9.719  10.823  -0.599 -0.0372  0.2735 -0.2588
  129MOL0     O16920   9.647  10.861  -0.478  0.0220 -0.7341 -0.0709
  129MOL0     C16921   9.609  10.756  -0.392 -0.1243  0.5250  0.5678
  129MOL0     C16922   9.675  10.634  -0.366 -0.1890  0.2740 -0.6901
  129MOL0     C16923   9.633  10.537  -0.283  0.8987 -0.4865 -0.6551
  129MOL0     C16924   9.508  10.563  -0.215  0.2185  0.3530 -0.2169
  129MOL0     C16925   9.468  10.470  -0.097 -0.8205 -0.0781  0.0018
  129MOL0     O16926   9.353  10.504  -0.050 -0.0634 -0.4570  0.4819
  129MOL0     C16927   9.314  10.461   0.073  1.4640  0.5273  0.0487
  129MOL0     C16928   9.300  10.546   0.188 -0.4698  0.3066  0.7710
  129MOL0     C16929   9.252  10.503   0.306  1.1672  0.7985 -0.6952
  129MOL0     C16930   9.227  10.371   0.320 -0.1429 -0.1787 -0.0656
  129MOL0     O16931   9.182  10.327   0.442 -0.2501  0.1330 -0.1200
  129MOL0     C16932   9.088  10.405   0.511 -0.7650 -0.5969 -0.1966
  129MOL0     C16933   9.046  10.326   0.639 -0.4213 -0.1058  0.5333
  129MOL0     C16934   8.984  10.198   0.596  0.6093  0.4854  0.4335
  129MOL0     C16935   8.940  10.098   0.707 -0.7174 -0.6051 -0.2022
  129MOL0     C16936   8.887  10.152   0.840 -0.3198  0.7440  0.3128
  129MOL0     C16937   8.853  10.039   0.937  1.2333  0.1662  0.2119
  129MOL0     C16938   8.753   9.932   0.894  0.7618 -0.1830  0.1126
  129MOL0     C16939   8.724   9.834   1.008  0.4469  0.0237  0.0932
  129MOL0    Cl16940   8.868   9.749   1.067 -0.1231 -0.0422 -0.1853
  129MOL0     C16941   9.241  10.276   0.216 -0.9642  0.2550  0.1064
  129MOL0     C16942   9.284  10.326   0.090 -0.1240 -0.7178 -0.2698
  129MOL0     O16943   9.527  10.365  -0.075 -0.2374  0.1637 -0.0380
  129MOL0     C16944   9.442  10.683  -0.239 -0.1115  0.2659 -0.8166
  129MOL0     C16945   9.489  10.782  -0.322 -0.2849 -0.2006 -0.5492
  129MOL0     N16946  10.132  11.137  -0.528 -0.2818  0.6797 -0.0855
  129MOL0     N16947  10.206  11.241  -0.485  0.0292 -0.1297 -0.6663
  129MOL0     C16948  10.454  11.080   0.723 -0.0258 -0.2587 -1.0091
  129MOL0     C16949  10.547  11.017   0.804 -0.1070 -0.8305  0.1894
  129MOL0     C16950  10.828  10.703   0.858 -0.8161  0.3917 -0.3009
  129MOL0     C16951  10.925  10.742   0.949  0.3761  0.1070  0.2166
  129MOL0     C16952  10.990  10.650   1.022 -0.8141 -0.2172  0.0909
  129MOL0     C16953  10.986  10.511   0.994 -1.0265 -0.3102  0.0408
  129MOL0     O16954  11.062  10.416   1.065  0.3454 -0.4898 -0.2832
  129MOL0     C16955  10.995  10.292   1.109  0.0166 -0.6955  0.9840
  129MOL0     C16956  11.055  10.255   1.235 -0.8957  0.6310 -0.6266
  129MOL0     C16957  10.968  10.126   1.281 -0.7709  0.1648  0.2741
  129MOL0     C16958  11.027  10.071   1.411 -0.9473  0.1942  1.0367
  129MOL0     C16959  10.927  10.016   1.502 -0.2678  0.2090 -1.4410
  129MOL0     C16960  10.830   9.976   1.563  0.4946 -1.1904 -0.7736
  129MOL0     C16961  10.898  10.467   0.897  0.7321  1.1681 -0.7786
  129MOL0     C16962  10.810  10.565   0.840  0.0147  0.3936 -0.8037
  129MOL0     H16963  10.827  11.113   0.625 -0.2439  2.8811 -0.4551
  129MOL0     H16964  10.652  11.219   0.500 -1.1249 -1.7390 -0.6258
  129MOL0     H16965  10.214  11.186   0.477  0.5726  2.6679 -0.5041
  129MOL0     H16966  10.323  11.046   0.442  0.2617 -0.1471 -2.4192
  129MOL0     H16967  10.429  11.204   0.260  1.1137  0.9003  1.3349
  129MOL0     H16968  10.288  11.304   0.292  0.5585 -0.7191  2.1670
  129MOL0     H16969  10.124  11.160   0.215 -1.9453 -1.2544 -0.6122
  129MOL0     H16970  10.229  11.019   0.235  0.0463  0.6368  2.6376
  129MOL0     H16971  10.390  11.111   0.049 -0.4485  0.4027 -2.4871
  129MOL0     H16972  10.232  11.061   0.007 -0.3126  0.0125 -0.0791
  129MOL0     H16973  10.278  11.357   0.063  0.5741  0.7855 -2.3810
  129MOL0     H16974  10.132  11.264   0.027 -0.0551  1.7504  2.1559
  129MOL0     H16975  10.241  11.202  -0.189  3.2341 -0.8086 -1.3954
  129MOL0     H16976  10.382  11.304  -0.149 -0.8555  2.7794 -0.5575
  129MOL0     H16977  10.099  11.421  -0.160  0.3021 -0.9350 -2.8734
  129MOL0     H16978  10.256  11.511  -0.155  0.6455  0.1863 -1.6529
  129MOL0     H16979  10.284  11.470  -0.373  1.0065 -0.8077  2.5038
  129MOL0     H16980  10.111  11.513  -0.352 -0.5084  0.1862 -3.2555
  129MOL0     H16981   9.920  11.314  -0.352 -1.8821 -1.9117 -0.8516
  129MOL0     H16982   9.798  11.110  -0.512  1.1175  2.3296  0.5465
  129MOL0     H16983   9.888  11.002  -0.414  3.0830  0.0122  0.5978
  129MOL0     H16984   9.986  10.906  -0.633  0.2386  0.0666 -2.4128
  129MOL0     H16985   9.945  11.054  -0.721 -0.5235 -0.1138  0.9768
  129MOL0     H16986   9.706  11.008  -0.715 -0.7214 -0.2168  1.5901
  129MOL0     H16987   9.793  10.874  -0.787 -0.0844 -0.4035 -0.3267
  129MOL0     H16988   9.795  10.748  -0.575  0.4910  0.3266 -1.7161
  129MOL0     H16989   9.643  10.767  -0.655  0.4798 -0.3021 -0.3946
  129MOL0     H16990   9.772  10.602  -0.402 -0.5307 -1.9665  0.2065
  129MOL0     H16991   9.684  10.446  -0.254 -0.8226 -1.5681 -0.8933
  129MOL0     H16992   9.342  10.647   0.187  3.4910 -1.1329 -0.4741
  129MOL0     H16993   9.248  10.578   0.385  2.3195  0.0295  0.1288
  129MOL0     H16994   9.005  10.423   0.442  1.0854  2.0069 -1.9157
  129MOL0     H16995   9.132  10.500   0.541 -1.0044 -0.9711  1.5020
  129MOL0     H16996   8.979  10.387   0.702  2.1351 -1.1469  4.6837
  129MOL0     H16997   9.133  10.302   0.701  1.1008 -1.0043 -1.8415
  129MOL0     H16998   9.050  10.144   0.528  1.1480  0.9058  0.6184
  129MOL0     H16999   8.892  10.221   0.541  1.7551  1.9673 -0.9472
  129MOL0     H17000   8.864  10.031   0.664 -1.1769  0.1353 -0.5638
  129MOL0     H17001   9.020  10.025   0.724 -1.0444 -0.9515 -0.1308
  129MOL0     H17002   8.796  10.207   0.816  0.7697  1.8286 -1.5302
  129MOL0     H17003   8.951  10.222   0.894  2.7304  0.6105 -2.7758
  129MOL0     H17004   8.798  10.083   1.020  0.7529 -1.3022  0.6992
  129MOL0     H17005   8.943   9.994   0.980  2.4358  1.2438 -1.0253
  129MOL0     H17006   8.660   9.976   0.859  0.3603 -0.6658  0.5587
  129MOL0     H17007   8.794   9.871   0.813  0.5214  2.4482 -2.1514
  129MOL0     H17008   8.656   9.763   0.960 -0.0804  1.2692 -1.0775
  129MOL0     H17009   8.668   9.888   1.084  1.4195 -1.0952  1.6794
  129MOL0     H17010   9.237  10.168   0.215 -3.2738  0.3014 -0.1749
  129MOL0     H17011   9.294  10.269  -0.001 -0.5801 -3.4056  1.2592
  129MOL0     H17012   9.358  10.719  -0.179 -0.1267  0.6371 -1.0618
  129MOL0     H17013   9.431  10.873  -0.318  1.6482  1.0393  1.8366
  129MOL0     H17014  10.347  11.068   0.735 -0.5204  0.9620 -3.5106
  129MOL0     H17015  10.517  10.946   0.880 -1.8563  0.2741  0.6048
  129MOL0     H17016  10.941  10.846   0.978 -0.8766  1.3809 -3.2226
  129MOL0     H17017  11.060  10.680   1.100  2.6043 -2.8307 -1.6788
  129MOL0     H17018  11.021  10.211   1.041  1.9128  0.5456  0.1476
  129MOL0     H17019  10.889  10.290   1.135  0.0050  1.7229  1.3329
  129MOL0     H17020  11.163  10.241   1.224 -0.4873  2.3898  0.6382
  129MOL0     H17021  11.039  10.337   1.306  0.2865  0.3842 -0.0404
  129MOL0     H17022  10.977  10.045   1.208  3.1487  0.6026  0.0450
  129MOL0     H17023  10.868  10.166   1.299  0.2929  3.6554 -0.7791
  129MOL0     H17024  11.110  10.007   1.380 -1.2155  1.0205 -1.7243
  129MOL0     H17025  11.075  10.154   1.465 -3.2470  0.2983  3.0793
  129MOL0     H17026  10.742   9.946   1.615 -2.0808  1.9666 -2.9309
  129MOL0     H17027  10.894  10.363   0.865 -0.6740  1.1112 -0.4786
  129MOL0     H17028  10.729  10.526   0.780  1.5468 -1.6235 -1.6576
  130MOL0     O17029   6.483   4.387   7.911 -1.1747  0.1073 -0.3420
  130MOL0     C17030   6.506   4.297   7.835 -0.1640  0.4067 -0.2055
  130MOL0     O17031   6.402   4.214   7.783 -0.6811 -0.5967 -0.6744
  130MOL0     C17032   6.287   4.209   7.858  0.2873  0.2191  0.1084
  130MOL0     C17033   6.201   4.318   7.869  0.3425  0.5209 -0.7817
  130MOL0     C17034   6.070   4.302   7.934  0.7671 -0.0072  0.4839
  130MOL0     C17035   6.018   4.174   7.956 -0.6431  0.2219 -0.5602
  130MOL0     O17036   5.891   4.169   8.021 -0.3841 -0.1030  0.0775
  130MOL0     C17037   5.820   4.054   7.998  0.4549 -0.0160  0.0403
  130MOL0     C17038   5.680   4.079   8.060 -0.5457  1.1489 -0.7146
  130MOL0     C17039   5.590   3.952   8.082  0.1819 -0.1173  0.0499
  130MOL0     C17040   5.654   3.876   8.199  0.1523 -0.1745  0.3146
  130MOL0     C17041   5.574   3.741   8.219 -0.7093 -0.3021  0.1299
  130MOL0     C17042   5.627   3.659   8.341  0.2005  0.1272  0.9725
  130MOL0     C17043   5.521   3.568   8.401  0.0021 -0.4136  0.2195
  130MOL0     C17044   5.580   3.484   8.513 -0.2241  1.1688 -1.0111
  130MOL0     N17045   5.683   3.555   8.597  0.3835  1.1726  0.1608
  130MOL0     C17046   5.818   3.553   8.556  0.6018 -0.4665 -0.2389
  130MOL0     C17047   5.871   3.629   8.650  0.0294  0.3976  0.0528
  130MOL0     C17048   6.018   3.655   8.654 -0.3176  0.0964  0.0430
  130MOL0     C17049   6.092   3.553   8.740 -0.1965  0.1369  0.1428
  130MOL0     C17050   6.041   3.562   8.886  0.5420  0.0312  0.5418
  130MOL0     C17051   6.130   3.501   8.996 -0.6651 -0.3747  0.1271
  130MOL0     O17052   6.269   3.507   8.967  0.0671 -0.0092  0.3311
  130MOL0     C17053   6.355   3.441   9.053  0.3063 -0.0273  0.3450
  130MOL0     C17054   6.306   3.382   9.168  0.1548  0.3519 -0.0307
  130MOL0     C17055   6.390   3.323   9.260 -0.5384 -0.0044  0.2946
  130MOL0     C17056   6.532   3.343   9.239  0.2066  0.7753 -0.4888
  130MOL0     C17057   6.625   3.288   9.329 -0.0824  0.4782  0.5366
  130MOL0     O17058   6.755   3.274   9.282 -0.1449 -0.3667  0.3878
  130MOL0     C17059   6.858   3.281   9.375  0.2154 -0.4712 -0.5577
  130MOL0     C17060   6.969   3.219   9.328  0.3297 -0.2090 -1.1310
  130MOL0     C17061   7.083   3.203   9.409  0.6336 -0.0898  0.0261
  130MOL0     C17062   7.089   3.250   9.541 -0.0205 -0.2518  0.3719
  130MOL0     O17063   7.191   3.233   9.626 -0.1879  0.5543 -0.0471
  130MOL0     C17064   7.315   3.177   9.590  0.7001  0.8604 -0.7491
  130MOL0     C17065   7.418   3.286   9.597  0.1648 -0.4616 -0.7462
  130MOL0     C17066   7.560   3.240   9.649 -0.7151 -0.4758  0.2508
  130MOL0     C17067   7.662   3.354   9.628 -0.0447 -0.6472 -0.0313
  130MOL0     C17068   7.809   3.305   9.667 -0.2632  0.4174  0.8144
  130MOL0     C17069   7.888   3.258   9.552  0.3839  1.2013 -0.7398
  130MOL0     C17070   8.005   3.156   9.591  0.5623  0.2874 -0.9164
  130MOL0     C17071   8.094   3.210   9.699 -0.5926 -0.0599 -0.3580
  130MOL0    Cl17072   8.158   3.366   9.662  0.2855 -0.2691 -0.5706
  130MOL0     C17073   6.982   3.323   9.581  1.4614 -0.4791  0.3499
  130MOL0     C17074   6.854   3.336   9.506 -0.7903 -0.3197 -1.1774
  130MOL0     O17075   6.583   3.265   9.444  1.3643  0.7734  0.1598
  130MOL0     C17076   6.581   3.416   9.132 -0.1503 -0.5223 -0.6938
  130MOL0     C17077   6.489   3.455   9.036 -0.0662 -0.3858  0.0467
  130MOL0     N17078   5.779   3.692   8.730  0.0350  0.3943 -0.4501
  130MOL0     N17079   5.665   3.642   8.699  0.4551  0.1399 -0.2335
  130MOL0     C17080   6.096   4.060   7.927 -0.0633 -0.9708 -0.8587
  130MOL0     C17081   6.224   4.084   7.878 -0.5660 -0.9651  0.3991
  130MOL0     C17082   6.641   4.274   7.787 -0.0833 -0.1009  0.8769
  130MOL0     C17083   6.659   4.202   7.664  0.4213  0.7840 -0.1822
  130MOL0     C17084   6.793   4.162   7.625 -0.2624  0.2756 -0.5908
  130MOL0     C17085   6.906   4.218   7.693 -0.1002 -0.0959 -0.4078
  130MOL0     O17086   7.039   4.201   7.674  0.2244  0.4944 -0.3149
  130MOL0     C17087   7.077   4.125   7.561 -0.5587 -0.5523 -0.6349
  130MOL0     C17088   7.110   3.984   7.603 -0.2954 -0.2319 -0.6609
  130MOL0     C17089   7.210   3.916   7.509 -0.2697 -0.1875  0.2770
  130MOL0     C17090   7.355   3.957   7.546  0.2320  0.2687  0.6133
  130MOL0     C17091   7.427   3.985   7.422 -0.2331 -0.4876 -0.1256
  130MOL0     C17092   7.483   4.011   7.321 -0.2824 -0.1800 -0.3555
  130MOL0     C17093   6.880   4.312   7.802 -0.8679  0.0569  0.2505
  130MOL0     C17094   6.757   4.326   7.856  0.8009 -0.4391  0.4354
  130MOL0     H17095   6.238   4.414   7.836  0.2369  1.2157  0.9908
  130MOL0     H17096   6.018   4.390   7.971  3.1651  1.6421  0.1755
  130MOL0     H17097   5.862   3.960   8.035 -0.2414 -0.2927  0.1378
  130MOL0     H17098   5.802   4.045   7.891  0.8831 -0.1123 -0.0278
  130MOL0     H17099   5.631   4.142   7.985 -0.4766 -0.2862 -2.0187
  130MOL0     H17100   5.687   4.139   8.152  2.1284  2.0996 -1.4457
  130MOL0     H17101   5.594   3.902   7.985  2.6839  0.0992 -0.0276
  130MOL0     H17102   5.486   3.972   8.111 -0.5009  0.0780 -2.3296
  130MOL0     H17103   5.757   3.854   8.169 -0.2607 -2.0651  0.2014
  130MOL0     H17104   5.660   3.930   8.294  1.6862  1.8686 -0.8524
  130MOL0     H17105   5.581   3.680   8.129  3.9765  1.1392 -0.7350
  130MOL0     H17106   5.469   3.767   8.234  0.1962  2.5729  2.5989
  130MOL0     H17107   5.676   3.726   8.413  2.0408  0.8819 -0.8665
  130MOL0     H17108   5.701   3.591   8.296 -1.6495  0.1716 -2.4930
  130MOL0     H17109   5.432   3.626   8.427 -2.1099 -2.1980 -2.4524
  130MOL0     H17110   5.473   3.511   8.321 -3.7441  0.0572  1.8726
  130MOL0     H17111   5.637   3.401   8.471  3.2313  0.7171  3.7740
  130MOL0     H17112   5.489   3.455   8.567  1.0897 -1.7165 -0.1517
  130MOL0     H17113   5.858   3.495   8.473  0.7150  1.5870 -1.7094
  130MOL0     H17114   6.044   3.754   8.694 -1.4950  0.8083 -0.8896
  130MOL0     H17115   6.047   3.661   8.549 -1.3208  0.1304 -0.2378
  130MOL0     H17116   6.195   3.585   8.758  0.9109 -4.3824  3.7877
  130MOL0     H17117   6.088   3.456   8.691  1.2509  0.0643  0.1385
  130MOL0     H17118   6.010   3.663   8.913 -0.3201  0.5621 -2.1333
  130MOL0     H17119   5.947   3.505   8.888  1.0744 -0.8814  2.2148
  130MOL0     H17120   6.098   3.396   8.995 -3.4228  0.3792  0.0429
  130MOL0     H17121   6.103   3.550   9.090 -3.0359  1.3177 -1.3316
  130MOL0     H17122   6.202   3.377   9.197 -0.4570 -0.2166 -2.1064
  130MOL0     H17123   6.353   3.264   9.343  0.6819 -1.0753  0.1066
  130MOL0     H17124   6.955   3.169   9.232 -2.6040 -3.7165  0.8847
  130MOL0     H17125   7.169   3.150   9.371  0.7247  0.4484 -0.5242
  130MOL0     H17126   7.316   3.123   9.494 -0.9075  0.4441 -0.5571
  130MOL0     H17127   7.340   3.114   9.676 -1.0582  2.0258  0.6907
  130MOL0     H17128   7.380   3.374   9.649 -3.4591  0.8564 -4.9958
  130MOL0     H17129   7.440   3.324   9.497 -3.1076  1.3907 -0.8890
  130MOL0     H17130   7.604   3.155   9.595  0.0831  0.3138 -0.3751
  130MOL0     H17131   7.559   3.203   9.752  0.6488  1.9723  1.2384
  130MOL0     H17132   7.667   3.385   9.523 -1.4831 -4.2231 -1.3203
  130MOL0     H17133   7.635   3.439   9.692  0.1944 -0.7409  0.1903
  130MOL0     H17134   7.798   3.229   9.745  1.0220  0.3964  0.9957
  130MOL0     H17135   7.860   3.383   9.724  1.4980 -1.0105  1.2743
  130MOL0     H17136   7.936   3.346   9.509  4.9961 -1.6090 -2.0372
  130MOL0     H17137   7.835   3.212   9.468  0.7607 -4.0927  1.5441
  130MOL0     H17138   7.970   3.060   9.632  3.0520 -0.7432 -1.0609
  130MOL0     H17139   8.066   3.138   9.502  0.5394  0.8808 -1.0556
  130MOL0     H17140   8.180   3.143   9.698 -1.3511 -1.0673 -1.3887
  130MOL0     H17141   8.038   3.203   9.793 -2.7286  1.2567 -1.4585
  130MOL0     H17142   6.992   3.372   9.678 -2.5635  0.6481  0.3926
  130MOL0     H17143   6.769   3.381   9.555  1.3962  0.3044  2.3560
  130MOL0     H17144   6.686   3.424   9.105  0.2486  2.2186  1.3155
  130MOL0     H17145   6.516   3.528   8.960  1.2389  0.3104  1.1331
  130MOL0     H17146   6.077   3.959   7.960 -2.1134 -0.8812 -1.5746
  130MOL0     H17147   6.288   3.997   7.866  1.3585  0.6373 -2.0362
  130MOL0     H17148   6.578   4.147   7.619 -0.7982 -0.7158  3.4394
  130MOL0     H17149   6.810   4.083   7.552  0.0266 -0.6838  0.5037
  130MOL0     H17150   7.170   4.170   7.526 -0.4054  0.0398  0.4964
  130MOL0     H17151   7.007   4.126   7.477  0.1503 -0.1861 -1.2369
  130MOL0     H17152   7.154   3.985   7.703 -0.6088 -0.4637 -0.5196
  130MOL0     H17153   7.014   3.932   7.608 -0.0839 -0.4912  1.5128
  130MOL0     H17154   7.182   3.946   7.407 -0.9753  2.6286  1.2312
  130MOL0     H17155   7.190   3.810   7.526 -0.9369 -0.1057  0.0439
  130MOL0     H17156   7.353   4.038   7.620 -1.1956  0.4798  0.3723
  130MOL0     H17157   7.409   3.870   7.587  0.3098 -0.6012 -1.2438
  130MOL0     H17158   7.518   4.030   7.222 -1.8345  0.2381 -0.8332
  130MOL0     H17159   6.964   4.373   7.834 -1.5020  1.5966 -0.8860
  130MOL0     H17160   6.733   4.396   7.936  0.4302 -1.5765  1.3635
  131MOL0     O17161   8.581   7.237   3.446 -1.0368 -0.3539  0.0971
  131MOL0     C17162   8.661   7.219   3.535 -0.0425  1.2316 -0.6466
  131MOL0     O17163   8.636   7.203   3.675  0.0105  0.0463 -0.0578
  131MOL0     C17164   8.499   7.217   3.701 -0.3093 -0.4777  0.0701
  131MOL0     C17165   8.404   7.127   3.651  0.3346  0.4613 -0.6928
  131MOL0     C17166   8.269   7.138   3.689 -0.0399  0.1213  0.5242
  131MOL0     C17167   8.228   7.247   3.777  0.3069 -1.1362  0.7145
  131MOL0     O17168   8.097   7.275   3.804 -0.1805 -0.2323 -0.7155
  131MOL0     C17169   7.990   7.198   3.756  0.2880 -0.3902  0.3659
  131MOL0     C17170   7.869   7.236   3.834 -1.0547 -0.7426 -0.0734
  131MOL0     C17171   7.892   7.182   3.981 -0.4303  0.0598 -0.2485
  131MOL0     C17172   7.828   7.268   4.095 -0.2270 -0.5639 -0.6178
  131MOL0     C17173   7.780   7.194   4.224 -0.0595 -1.1865 -0.2365
  131MOL0     C17174   7.664   7.097   4.204  0.7884 -0.0756 -1.1799
  131MOL0     C17175   7.603   7.060   4.338  0.3511  0.3249 -0.4138
  131MOL0     C17176   7.508   7.163   4.403 -0.0300 -0.7485  0.0230
  131MOL0     N17177   7.377   7.161   4.330 -0.0436 -0.0189  0.0811
  131MOL0     C17178   7.333   7.249   4.239 -0.9083 -0.6331  0.3945
  131MOL0     C17179   7.211   7.214   4.198  0.4114  0.4597  0.1066
  131MOL0     C17180   7.129   7.280   4.087 -0.7549 -0.3834  0.3408
  131MOL0     C17181   6.988   7.297   4.136 -0.1147 -0.1148  0.5850
  131MOL0     C17182   6.901   7.163   4.137 -0.0412 -1.0020  0.1257
  131MOL0     C17183   6.771   7.164   4.059  0.2277 -0.2131 -0.0811
  131MOL0     O17184   6.709   7.037   4.071 -0.2573  0.9361  0.0684
  131MOL0     C17185   6.602   7.001   3.988  0.4337 -0.6995  0.1801
  131MOL0     C17186   6.519   7.086   3.908  0.4001 -1.2882 -0.7805
  131MOL0     C17187   6.422   7.029   3.825 -0.4293 -0.0819  0.0954
  131MOL0     C17188   6.413   6.892   3.800  0.2243 -0.0946  0.1965
  131MOL0     C17189   6.321   6.844   3.692  0.0533  0.0095 -0.6732
  131MOL0     O17190   6.247   6.926   3.621  0.1469 -0.5701  0.0770
  131MOL0     C17191   6.145   6.889   3.542  0.1454  0.6730  0.3447
  131MOL0     C17192   6.119   6.962   3.425  0.3412  0.0416 -0.3677
  131MOL0     C17193   6.002   6.933   3.352 -0.1557 -0.7642 -1.1200
  131MOL0     C17194   5.919   6.827   3.391 -0.2384 -0.8096  0.4060
  131MOL0     O17195   5.810   6.809   3.309 -0.5178  0.3808  0.1421
  131MOL0     C17196   5.725   6.695   3.324  0.5891  0.7203  0.5244
  131MOL0     C17197   5.613   6.715   3.219 -0.3100  0.6406  0.3740
  131MOL0     C17198   5.535   6.856   3.234 -0.2025  0.4345 -0.3467
  131MOL0     C17199   5.412   6.875   3.137 -0.5399  0.6223  0.1591
  131MOL0     C17200   5.333   7.005   3.161  1.0646 -0.3424  0.7771
  131MOL0     C17201   5.198   7.002   3.079  0.5186  0.1879  0.2389
  131MOL0     C17202   5.110   7.127   3.102 -1.0888 -0.2404 -0.2616
  131MOL0     C17203   4.977   7.124   3.023  0.6429  0.2797  0.6082
  131MOL0    Cl17204   4.986   7.077   2.848  0.2527  0.5276 -0.1010
  131MOL0     C17205   5.942   6.769   3.514 -0.1939 -1.1010 -0.4097
  131MOL0     C17206   6.057   6.795   3.588  0.2399 -0.8420 -0.7955
  131MOL0     O17207   6.312   6.718   3.681 -0.1506  0.4952 -0.6525
  131MOL0     C17208   6.485   6.810   3.896  0.4543  0.6595 -0.1496
  131MOL0     C17209   6.579   6.862   3.986  0.1304  1.3160  0.8679
  131MOL0     N17210   7.177   7.105   4.280 -0.7346 -0.0823 -0.7828
  131MOL0     N17211   7.278   7.066   4.355  1.0214  0.1247 -0.1559
  131MOL0     C17212   8.327   7.333   3.818  0.2412 -0.7650 -0.0766
  131MOL0     C17213   8.467   7.314   3.794 -0.4416  0.3567  1.1306
  131MOL0     C17214   8.806   7.193   3.499 -0.9060 -0.3963  0.9554
  131MOL0     C17215   8.860   7.263   3.385 -0.0976 -0.7996 -0.4400
  131MOL0     C17216   8.992   7.245   3.360  0.5851  0.5748 -0.7510
  131MOL0     C17217   9.079   7.153   3.434 -0.0125  0.2257  0.1354
  131MOL0     O17218   9.218   7.119   3.412 -0.4109 -1.0800 -0.0322
  131MOL0     C17219   9.271   7.165   3.286  0.1929  0.3459  0.7088
  131MOL0     C17220   9.417   7.184   3.280  0.6996  0.0864 -0.7035
  131MOL0     C17221   9.495   7.055   3.309 -0.2035  0.1803  0.5963
  131MOL0     C17222   9.639   7.058   3.251 -0.1300  0.5511 -0.3856
  131MOL0     C17223   9.650   7.066   3.112 -0.5097  0.2700  0.2729
  131MOL0     C17224   9.670   7.063   2.991  0.6122  0.5982 -0.6831
  131MOL0     C17225   9.019   7.094   3.539 -0.6805  1.4646  0.2238
  131MOL0     C17226   8.881   7.107   3.566 -1.0559 -0.6812  0.6643
  131MOL0     H17227   8.441   7.049   3.585 -1.9264  0.1183 -1.6451
  131MOL0     H17228   8.195   7.062   3.664  1.3837 -1.2194  0.2041
  131MOL0     H17229   8.010   7.091   3.767 -1.6592 -0.9473 -1.0829
  131MOL0     H17230   7.972   7.223   3.651  0.4951  0.3045  0.4871
  131MOL0     H17231   7.782   7.202   3.777 -0.9109 -1.9873  0.4117
  131MOL0     H17232   7.866   7.343   3.853  0.7657 -0.7907  0.7635
  131MOL0     H17233   7.999   7.177   4.001  0.5217  3.6613 -3.1950
  131MOL0     H17234   7.852   7.082   3.997  1.1101 -0.6207 -0.5235
  131MOL0     H17235   7.896   7.349   4.121 -0.6532 -0.4824  0.2675
  131MOL0     H17236   7.739   7.319   4.056 -0.5750  0.8786  1.8628
  131MOL0     H17237   7.752   7.267   4.301 -1.1150 -0.9319 -0.8383
  131MOL0     H17238   7.864   7.131   4.256  0.2296 -0.7974 -0.2123
  131MOL0     H17239   7.700   7.004   4.159  1.7083  0.1412 -0.9020
  131MOL0     H17240   7.584   7.140   4.142  0.0547 -1.1723 -1.0332
  131MOL0     H17241   7.552   6.964   4.325 -1.9096  1.4833 -0.6746
  131MOL0     H17242   7.685   7.048   4.409 -1.5858  2.3614  2.4628
  131MOL0     H17243   7.553   7.263   4.410  1.6912 -1.5638  1.4595
  131MOL0     H17244   7.495   7.135   4.508  0.8461 -0.8894  0.1055
  131MOL0     H17245   7.384   7.336   4.198  1.2298 -2.5237 -1.2482
  131MOL0     H17246   7.130   7.215   3.998  0.7138 -2.4093  1.7362
  131MOL0     H17247   7.183   7.371   4.058  2.2904 -0.9915  3.3910
  131MOL0     H17248   6.925   7.366   4.080  1.3095  1.8681  1.3228
  131MOL0     H17249   6.982   7.334   4.239 -0.5061 -0.7338  0.7908
  131MOL0     H17250   6.971   7.092   4.093  2.4742  3.0439 -3.1919
  131MOL0     H17251   6.882   7.137   4.241  1.3923  0.3517  0.7601
  131MOL0     H17252   6.795   7.192   3.956  0.7680  2.8706  0.7987
  131MOL0     H17253   6.710   7.246   4.098  2.3760  1.8531 -0.8511
  131MOL0     H17254   6.534   7.194   3.911 -2.3474 -0.7918 -1.9097
  131MOL0     H17255   6.364   7.080   3.749  0.7350 -2.7699 -2.8237
  131MOL0     H17256   6.200   7.028   3.399  2.2042 -1.3221  1.6221
  131MOL0     H17257   5.958   6.982   3.266 -0.0106  1.4024 -0.0048
  131MOL0     H17258   5.684   6.684   3.425  1.7286  0.8035  1.0104
  131MOL0     H17259   5.773   6.601   3.296  0.2759  1.1460 -1.5754
  131MOL0     H17260   5.534   6.640   3.222 -1.7147  1.9465 -1.3976
  131MOL0     H17261   5.657   6.701   3.120  2.1412  0.5646  1.3939
  131MOL0     H17262   5.615   6.930   3.223  1.0745 -0.4922  1.9952
  131MOL0     H17263   5.498   6.859   3.337  1.9465  0.2482  0.4730
  131MOL0     H17264   5.464   6.879   3.041  1.3500 -0.9289  1.0636
  131MOL0     H17265   5.342   6.791   3.142 -2.3619  2.1303  1.4412
  131MOL0     H17266   5.391   7.095   3.135 -0.1291  1.0735  2.7288
  131MOL0     H17267   5.294   7.009   3.263 -0.6927 -1.5757  0.1976
  131MOL0     H17268   5.134   6.916   3.100  0.8239 -0.3732 -1.0173
  131MOL0     H17269   5.214   6.997   2.970 -2.7187  0.3329 -0.3573
  131MOL0     H17270   5.086   7.128   3.209 -1.9432 -2.7975 -0.3639
  131MOL0     H17271   5.171   7.214   3.077  0.6223 -0.8746  1.4273
  131MOL0     H17272   4.924   7.219   3.030 -0.9963 -0.4775 -0.8462
  131MOL0     H17273   4.910   7.056   3.077 -1.5450  1.3026 -0.6860
  131MOL0     H17274   5.863   6.712   3.561  0.5775 -0.0533  2.4190
  131MOL0     H17275   6.069   6.753   3.687  2.2890 -1.9551 -1.4548
  131MOL0     H17276   6.486   6.704   3.873  2.5871  0.9993 -2.0629
  131MOL0     H17277   6.638   6.801   4.055  1.7063  1.4496 -0.3212
  131MOL0     H17278   8.300   7.414   3.886 -2.2025 -0.2797 -1.5047
  131MOL0     H17279   8.544   7.371   3.845  1.4039 -0.5729 -0.4782
  131MOL0     H17280   8.799   7.326   3.320 -1.1005 -0.1088  1.1056
  131MOL0     H17281   9.025   7.300   3.272 -1.9546  0.7730 -1.6651
  131MOL0     H17282   9.223   7.256   3.250  2.7638  2.3041  1.9490
  131MOL0     H17283   9.243   7.095   3.206  0.4848  0.5494  0.4271
  131MOL0     H17284   9.452   7.237   3.191  0.2568  0.7673 -0.4780
  131MOL0     H17285   9.445   7.256   3.357 -0.3474 -0.6521  0.4110
  131MOL0     H17286   9.451   6.965   3.263  2.3926 -0.9283  0.0944
  131MOL0     H17287   9.507   7.043   3.417 -1.3499 -2.8641  0.4840
  131MOL0     H17288   9.690   7.143   3.299  0.1577  2.0014 -3.0369
  131MOL0     H17289   9.693   6.964   3.265 -0.8386 -0.3656 -3.1677
  131MOL0     H17290   9.686   7.048   2.887 -0.4432  1.1113 -0.9343
  131MOL0     H17291   9.072   7.022   3.600 -1.8321  0.7910  0.4691
  131MOL0     H17292   8.828   7.052   3.643 -1.7730 -0.5526  0.2689
  132MOL0     O17293   5.659   2.589   3.031  0.6943 -0.6013 -0.0173
  132MOL0     C17294   5.724   2.485   3.039 -0.2388 -0.7102 -0.2310
  132MOL0     O17295   5.680   2.370   3.095  1.5186 -0.1142 -0.4515
  132MOL0     C17296   5.754   2.327   3.200 -0.3486  0.1132  0.3796
  132MOL0     C17297   5.820   2.420   3.291  0.2745  0.7215  0.3875
  132MOL0     C17298   5.883   2.380   3.405  0.4576  0.2559 -0.8172
  132MOL0     C17299   5.894   2.254   3.444 -1.1782  1.0416  0.0750
  132MOL0     O17300   5.937   2.233   3.577 -0.3701  0.3382 -0.4416
  132MOL0     C17301   5.921   2.098   3.626  0.1134 -0.1489 -0.3498
  132MOL0     C17302   5.976   2.101   3.768  0.2875  0.8968  0.0279
  132MOL0     C17303   5.879   2.160   3.870 -0.1006 -0.2831 -0.4551
  132MOL0     C17304   5.948   2.186   4.002 -0.7873 -1.1138 -0.2412
  132MOL0     C17305   6.019   2.329   4.001 -1.0743 -0.0669 -0.6993
  132MOL0     C17306   6.131   2.335   4.105  0.1821 -0.1190 -0.6319
  132MOL0     C17307   6.232   2.432   4.053  0.6050  0.2412 -0.6480
  132MOL0     C17308   6.352   2.375   3.979  0.2740 -0.1879  0.7966
  132MOL0     N17309   6.450   2.311   4.069  0.6533 -0.1011  0.7850
  132MOL0     C17310   6.523   2.369   4.158 -0.9501  0.4429 -0.7824
  132MOL0     C17311   6.566   2.267   4.226 -0.7180 -0.0435 -0.3072
  132MOL0     C17312   6.650   2.280   4.345 -0.0255 -0.0976  0.5169
  132MOL0     C17313   6.589   2.366   4.454  0.5640 -0.0112 -0.1690
  132MOL0     C17314   6.472   2.291   4.509 -0.3501 -0.3223 -1.0858
  132MOL0     C17315   6.434   2.354   4.644 -0.5004 -0.6081 -0.0167
  132MOL0     O17316   6.397   2.497   4.641  0.4800 -0.8090 -0.4002
  132MOL0     C17317   6.272   2.523   4.697 -0.1492 -0.0463 -0.6310
  132MOL0     C17318   6.269   2.628   4.788  0.4578  0.9253 -0.0361
  132MOL0     C17319   6.151   2.644   4.862  0.5747 -0.4042 -0.1471
  132MOL0     C17320   6.026   2.570   4.848  0.1480  0.2951  1.3662
  132MOL0     C17321   5.900   2.579   4.928 -1.3695 -0.5758 -0.3955
  132MOL0     O17322   5.895   2.681   5.022 -0.4870  0.6069  0.0141
  132MOL0     C17323   5.801   2.676   5.122  0.2356  0.0563  0.5383
  132MOL0     C17324   5.664   2.700   5.091  1.0032  0.0892  0.0179
  132MOL0     C17325   5.565   2.691   5.187  0.1148  0.6304  0.1826
  132MOL0     C17326   5.601   2.654   5.317 -0.8014 -0.0206 -0.6147
  132MOL0     O17327   5.495   2.629   5.396  0.3198  0.1240  0.9070
  132MOL0     C17328   5.502   2.630   5.543  0.2186  0.5516 -0.0664
  132MOL0     C17329   5.401   2.734   5.603 -0.1098 -0.7064  0.2447
  132MOL0     C17330   5.261   2.725   5.547  0.6197 -0.2401 -0.6948
  132MOL0     C17331   5.163   2.838   5.593 -0.4031 -0.2696 -0.2703
  132MOL0     C17332   5.116   2.826   5.750  0.9165  0.3063 -0.4295
  132MOL0     C17333   5.062   2.952   5.814 -0.1940  0.4613  0.7720
  132MOL0     C17334   4.960   2.996   5.710  1.0884 -0.4655  0.3209
  132MOL0     C17335   4.895   3.112   5.765 -0.7110 -0.4142  0.3242
  132MOL0    Cl17336   4.771   3.053   5.881 -0.0759 -0.0826  0.4126
  132MOL0     C17337   5.740   2.647   5.353 -0.7262 -0.0395 -0.0328
  132MOL0     C17338   5.837   2.659   5.258  1.0805  0.0675  0.7623
  132MOL0     O17339   5.812   2.507   4.900  0.0967 -0.6974  0.7452
  132MOL0     C17340   6.036   2.475   4.749  0.2838  0.5006  0.8143
  132MOL0     C17341   6.153   2.449   4.676 -0.4218 -0.0127  0.0093
  132MOL0     N17342   6.519   2.145   4.178  0.7948  0.4904  0.1964
  132MOL0     N17343   6.448   2.175   4.079 -0.1168  0.3762  0.2673
  132MOL0     C17344   5.848   2.156   3.349 -0.7736  0.3413  0.9338
  132MOL0     C17345   5.793   2.196   3.221  0.3255  0.0276 -0.6206
  132MOL0     C17346   5.861   2.501   2.979  0.6341  0.5503  0.2236
  132MOL0     C17347   5.937   2.618   2.985 -0.3234  0.4103 -1.2644
  132MOL0     C17348   6.068   2.628   2.931  1.1617  0.1351 -0.1466
  132MOL0     C17349   6.132   2.515   2.877 -0.9784 -0.2720  0.2227
  132MOL0     O17350   6.261   2.510   2.820 -0.5924 -0.2018  0.2393
  132MOL0     C17351   6.360   2.606   2.861  0.3365 -0.2565 -1.0947
  132MOL0     C17352   6.392   2.694   2.737  0.6089 -0.0838 -0.3395
  132MOL0     C17353   6.513   2.779   2.764 -0.1223  0.3933 -0.2815
  132MOL0     C17354   6.490   2.886   2.865 -0.3324 -0.5268 -0.1922
  132MOL0     C17355   6.614   2.963   2.889  0.5571 -0.2941  0.3307
  132MOL0     C17356   6.720   3.015   2.923  0.2003 -0.2514 -0.4805
  132MOL0     C17357   6.048   2.397   2.864 -0.1219  0.3179  0.0733
  132MOL0     C17358   5.917   2.387   2.923 -0.4590 -0.6669 -0.2828
  132MOL0     H17359   5.819   2.529   3.290  0.6630  0.7420  1.3172
  132MOL0     H17360   5.917   2.447   3.483 -2.8508 -0.0065  1.0174
  132MOL0     H17361   5.979   2.020   3.576 -3.2822 -3.0283 -0.2061
  132MOL0     H17362   5.818   2.061   3.633 -0.1129  0.4642 -0.3914
  132MOL0     H17363   6.071   2.154   3.761 -0.1551  1.5907 -0.8844
  132MOL0     H17364   5.996   1.995   3.788 -0.3533  0.9017  0.7393
  132MOL0     H17365   5.796   2.090   3.888  0.6017 -0.2425  3.7865
  132MOL0     H17366   5.832   2.253   3.836 -3.1225 -1.1320  1.0511
  132MOL0     H17367   5.875   2.182   4.083  0.7827  2.4251  1.5518
  132MOL0     H17368   6.023   2.107   4.017  0.5260  0.1781  0.1975
  132MOL0     H17369   5.937   2.400   4.017 -0.6610 -0.3628  3.8496
  132MOL0     H17370   6.065   2.347   3.903  0.3871  0.9582  0.1475
  132MOL0     H17371   6.178   2.241   4.135  1.4545  0.5717 -0.3950
  132MOL0     H17372   6.096   2.384   4.197  0.5719  1.3266 -1.2262
  132MOL0     H17373   6.191   2.512   3.991 -0.5368 -0.2786 -0.5889
  132MOL0     H17374   6.275   2.481   4.140  0.2224 -0.8259  0.1654
  132MOL0     H17375   6.390   2.456   3.916 -3.6228  0.2771 -1.2694
  132MOL0     H17376   6.320   2.301   3.904 -1.0723 -0.1534  1.3152
  132MOL0     H17377   6.555   2.473   4.168  3.6105 -0.7791 -0.0476
  132MOL0     H17378   6.746   2.320   4.313 -0.2622 -0.3651 -0.5490
  132MOL0     H17379   6.666   2.177   4.379 -1.6886 -0.4228  0.3842
  132MOL0     H17380   6.573   2.467   4.414 -0.4230 -0.5772 -1.2478
  132MOL0     H17381   6.660   2.388   4.534  0.6300 -1.9133  0.3470
  132MOL0     H17382   6.381   2.306   4.451 -1.4945 -0.6230  0.5613
  132MOL0     H17383   6.492   2.184   4.523  0.8358  0.2076  2.2452
  132MOL0     H17384   6.516   2.343   4.716 -1.3121  1.2017  1.2820
  132MOL0     H17385   6.356   2.290   4.686  0.0547 -2.4701 -1.7357
  132MOL0     H17386   6.365   2.680   4.793  2.3634 -2.1410 -1.6327
  132MOL0     H17387   6.151   2.714   4.945 -0.8617 -1.2828  0.6383
  132MOL0     H17388   5.641   2.714   4.986 -0.4815 -0.8190  0.1915
  132MOL0     H17389   5.459   2.687   5.164 -0.1127 -1.7636  1.3165
  132MOL0     H17390   5.606   2.639   5.577  1.7542 -1.5492 -3.6344
  132MOL0     H17391   5.471   2.537   5.590 -1.9884  0.8869 -0.7295
  132MOL0     H17392   5.436   2.834   5.577 -0.6570  0.5243  3.7875
  132MOL0     H17393   5.412   2.738   5.711  0.6467  2.2957  0.1274
  132MOL0     H17394   5.216   2.628   5.572 -2.2639  2.1125  5.0634
  132MOL0     H17395   5.275   2.724   5.438  0.3510 -0.3871 -0.7297
  132MOL0     H17396   5.226   2.927   5.585  2.0329 -1.5608  2.3443
  132MOL0     H17397   5.075   2.832   5.529 -0.5096  1.4281 -0.3344
  132MOL0     H17398   5.210   2.794   5.795  1.9278  0.7472 -2.1386
  132MOL0     H17399   5.048   2.743   5.771  3.0561 -1.2696  0.6775
  132MOL0     H17400   5.134   3.031   5.833 -0.6444  1.3801 -1.0650
  132MOL0     H17401   5.027   2.910   5.909 -0.8404  0.5927  0.5970
  132MOL0     H17402   5.011   3.028   5.619  1.4058 -2.5950 -0.3200
  132MOL0     H17403   4.878   2.926   5.689 -0.3201  1.4806 -1.0794
  132MOL0     H17404   4.853   3.178   5.688  3.1354  1.5260 -0.3131
  132MOL0     H17405   4.958   3.179   5.824 -0.3943  0.2569 -0.7393
  132MOL0     H17406   5.782   2.625   5.451  0.8713 -2.9747 -1.2478
  132MOL0     H17407   5.941   2.646   5.285  0.8811  0.5998  1.8326
  132MOL0     H17408   5.951   2.408   4.736 -0.0736  1.0633  0.1519
  132MOL0     H17409   6.146   2.370   4.602 -0.1988 -0.6857  0.7018
  132MOL0     H17410   5.861   2.053   3.381 -1.2021  0.2891  0.9446
  132MOL0     H17411   5.770   2.114   3.153  0.3591 -1.8947  1.5336
  132MOL0     H17412   5.896   2.709   3.030 -0.6439 -0.3147 -0.0470
  132MOL0     H17413   6.106   2.728   2.946 -0.9544  1.5821 -3.3475
  132MOL0     H17414   6.457   2.559   2.880  0.7899  0.8786 -0.4972
  132MOL0     H17415   6.328   2.664   2.948  1.1916 -0.3587 -0.7047
  132MOL0     H17416   6.418   2.632   2.650 -0.5579 -1.9244  0.5411
  132MOL0     H17417   6.303   2.752   2.711 -1.5948 -3.2815 -0.5469
  132MOL0     H17418   6.547   2.824   2.670 -1.9066  0.7725 -0.7693
  132MOL0     H17419   6.600   2.718   2.793 -0.1264  0.4442 -0.1617
  132MOL0     H17420   6.412   2.950   2.822  1.5195  1.5508 -0.6980
  132MOL0     H17421   6.453   2.847   2.960  1.6808  1.4646  1.5325
  132MOL0     H17422   6.817   3.050   2.953 -1.4488  4.7382 -0.0669
  132MOL0     H17423   6.090   2.305   2.823  0.4865  0.9213 -0.7036
  132MOL0     H17424   5.878   2.286   2.917  0.1260 -0.9084 -0.0719
  133MOL0     O17425   3.604   9.886   5.151 -0.1685 -0.2183  0.4542
  133MOL0     C17426   3.671   9.971   5.089 -0.1941  0.3454 -1.2219
  133MOL0     O17427   3.629  10.104   5.068  0.3603  0.5951 -0.6520
  133MOL0     C17428   3.512  10.155   5.125 -0.7992  0.0319  0.1116
  133MOL0     C17429   3.474  10.128   5.257 -0.1240 -0.0767  0.0724
  133MOL0     C17430   3.367  10.188   5.322 -0.2249 -0.0338 -0.0338
  133MOL0     C17431   3.294  10.287   5.250 -0.2666  0.2469  0.9564
  133MOL0     O17432   3.174  10.342   5.296  0.6035  0.1172  1.1409
  133MOL0     C17433   3.144  10.338   5.440 -0.2736 -0.4063  1.0607
  133MOL0     C17434   3.011  10.407   5.456 -0.3802 -0.1424 -0.0872
  133MOL0     C17435   2.994  10.556   5.428 -0.0084  0.2455  0.2091
  133MOL0     C17436   3.107  10.650   5.471  0.0449 -0.8301  0.0569
  133MOL0     C17437   3.056  10.782   5.520 -0.4963  0.6360  0.5208
  133MOL0     C17438   3.165  10.887   5.533  0.0715 -0.1284 -0.8851
  133MOL0     C17439   3.247  10.865   5.663  0.5216  0.4254  0.1692
  133MOL0     C17440   3.336  10.988   5.683 -0.4206  0.6829  0.4189
  133MOL0     N17441   3.455  11.004   5.603 -0.0952 -0.5601  0.1873
  133MOL0     C17442   3.545  10.905   5.572  0.0991  0.3833  0.1512
  133MOL0     C17443   3.614  10.953   5.464 -0.1425  0.6065 -0.0287
  133MOL0     C17444   3.736  10.898   5.397 -0.4314  0.3504  0.5220
  133MOL0     C17445   3.696  10.762   5.326 -0.3758 -0.0856 -0.5891
  133MOL0     C17446   3.601  10.774   5.202 -0.7507 -0.3107 -0.1989
  133MOL0     C17447   3.594  10.635   5.130 -0.2275  0.4311  0.3364
  133MOL0     O17448   3.533  10.654   5.001  0.9748  0.4704  0.8538
  133MOL0     C17449   3.391  10.653   5.002 -0.4864 -0.2025  0.6090
  133MOL0     C17450   3.307  10.653   5.121 -0.2660 -0.1735 -0.5883
  133MOL0     C17451   3.160  10.647   5.102 -1.2134 -0.4457  0.5125
  133MOL0     C17452   3.109  10.639   4.974 -0.7904  0.4993  0.3553
  133MOL0     C17453   2.966  10.633   4.951  0.2018  0.4283  0.2378
  133MOL0     O17454   2.926  10.629   4.821  0.3489 -0.8243  0.3801
  133MOL0     C17455   2.798  10.641   4.783 -0.6128 -0.2490  0.2523
  133MOL0     C17456   2.775  10.618   4.646  0.0427  0.1106  0.6254
  133MOL0     C17457   2.653  10.653   4.584 -0.2787  0.1866  0.3587
  133MOL0     C17458   2.547  10.701   4.659 -0.6015  0.4113  0.0524
  133MOL0     O17459   2.441  10.737   4.578  0.2283  0.2108 -0.1208
  133MOL0     C17460   2.317  10.734   4.654  0.2458  0.4174  0.7131
  133MOL0     C17461   2.204  10.729   4.557  0.4059  0.6219 -0.5242
  133MOL0     C17462   2.072  10.680   4.612  0.0336 -0.1457 -0.5158
  133MOL0     C17463   2.022  10.778   4.720  0.2084  0.0925  0.9549
  133MOL0     C17464   1.896  10.727   4.797 -0.4190 -0.3628 -0.5188
  133MOL0     C17465   1.791  10.672   4.702 -0.4464  0.2721  0.0125
  133MOL0     C17466   1.659  10.633   4.775  0.1906 -1.1722 -0.0457
  133MOL0     C17467   1.567  10.569   4.668 -0.1831 -1.2320 -0.1860
  133MOL0    Cl17468   1.425  10.503   4.745  0.1899  0.0358  0.3285
  133MOL0     C17469   2.569  10.730   4.797  0.6054 -0.2029 -0.5058
  133MOL0     C17470   2.693  10.705   4.855  0.2647  0.1970  0.9334
  133MOL0     O17471   2.891  10.642   5.048  0.8478 -0.8220 -0.5466
  133MOL0     C17472   3.197  10.642   4.859  0.3178 -0.5032  1.5073
  133MOL0     C17473   3.331  10.645   4.883 -0.7427 -0.1876  0.3114
  133MOL0     N17474   3.574  11.086   5.436 -0.0597  0.1633  0.6484
  133MOL0     N17475   3.483  11.115   5.525  0.6156 -0.9553  1.4112
  133MOL0     C17476   3.327  10.312   5.118 -0.4896 -0.4392 -1.0059
  133MOL0     C17477   3.438  10.243   5.056  0.1454  0.1589  0.1381
  133MOL0     C17478   3.813   9.947   5.061  0.1647 -0.7744 -0.1362
  133MOL0     C17479   3.876   9.831   5.108 -0.6949 -0.0865 -0.4418
  133MOL0     C17480   4.014   9.823   5.108  0.3911 -0.1999  0.4884
  133MOL0     C17481   4.095   9.911   5.043  1.0418 -0.1276  0.8132
  133MOL0     O17482   4.232   9.894   5.050 -0.0180 -0.4463 -0.3101
  133MOL0     C17483   4.333   9.989   5.006  1.0905  0.2625 -0.2822
  133MOL0     C17484   4.461   9.979   5.084  0.6963 -0.1485 -0.4202
  133MOL0     C17485   4.533   9.853   5.060 -0.2628  1.0981 -0.2779
  133MOL0     C17486   4.686   9.851   5.083 -0.0917  0.6104 -0.5121
  133MOL0     C17487   4.751   9.924   4.978  0.5302 -0.2751 -0.9250
  133MOL0     C17488   4.803   9.993   4.895 -0.4532  0.2373  1.2671
  133MOL0     C17489   4.028  10.029   4.988 -0.1176 -0.7895 -0.1032
  133MOL0     C17490   3.888  10.045   4.998 -0.8084  0.6269  0.4104
  133MOL0     H17491   3.537  10.066   5.319 -0.8896  0.1031  1.0435
  133MOL0     H17492   3.358  10.179   5.430  2.8463 -2.7651  0.1617
  133MOL0     H17493   3.227  10.373   5.502 -0.9237 -0.8202  2.1810
  133MOL0     H17494   3.126  10.236   5.476  3.5158 -1.1659  1.2376
  133MOL0     H17495   3.003  10.407   5.565  1.3314 -0.8720  0.0677
  133MOL0     H17496   2.922  10.361   5.411  0.4654 -0.4751 -1.4919
  133MOL0     H17497   2.904  10.592   5.478  0.5242  0.7391  0.8339
  133MOL0     H17498   2.979  10.556   5.320 -1.2436 -0.3306  0.3652
  133MOL0     H17499   3.177  10.619   5.549 -0.7321  1.4879  1.7927
  133MOL0     H17500   3.167  10.670   5.381 -1.3302  1.4471 -0.4456
  133MOL0     H17501   3.002  10.774   5.615  1.9512  1.9281  2.1235
  133MOL0     H17502   2.986  10.828   5.450  0.9957 -0.1603 -1.5882
  133MOL0     H17503   3.108  10.980   5.541 -0.2008 -0.4368  2.9986
  133MOL0     H17504   3.231  10.891   5.446  0.7316 -0.3555 -0.4042
  133MOL0     H17505   3.178  10.864   5.748 -1.4603  3.5969 -1.2380
  133MOL0     H17506   3.304  10.771   5.661  0.5739  0.4619 -0.0862
  133MOL0     H17507   3.373  10.982   5.785 -1.2249 -0.1088  0.6822
  133MOL0     H17508   3.277  11.080   5.677 -0.0743  0.8275 -1.1465
  133MOL0     H17509   3.548  10.814   5.632 -0.5167 -1.6642 -2.7331
  133MOL0     H17510   3.801  10.880   5.483  0.1241  3.3948  0.8330
  133MOL0     H17511   3.783  10.975   5.335  0.1705 -1.4537 -1.4065
  133MOL0     H17512   3.658  10.689   5.398  1.6856  0.9451  1.6889
  133MOL0     H17513   3.789  10.716   5.291 -0.5349  0.2180 -1.4238
  133MOL0     H17514   3.500  10.814   5.204 -0.0082  2.0475 -2.7004
  133MOL0     H17515   3.656  10.840   5.133  0.2231 -0.6869  0.1908
  133MOL0     H17516   3.548  10.555   5.189  0.3583 -0.8373 -0.8867
  133MOL0     H17517   3.699  10.618   5.103 -1.0994  0.6590 -3.7529
  133MOL0     H17518   3.345  10.658   5.222  0.1852 -0.7940 -0.7240
  133MOL0     H17519   3.092  10.640   5.187 -1.6955 -1.6122  0.0437
  133MOL0     H17520   2.854  10.589   4.577  0.7422  2.1790  0.4822
  133MOL0     H17521   2.622  10.650   4.480 -0.2132  1.9116  0.2565
  133MOL0     H17522   2.310  10.822   4.719  2.2564  2.1312 -1.2100
  133MOL0     H17523   2.303  10.649   4.721  0.2073 -1.6872 -1.7893
  133MOL0     H17524   2.243  10.669   4.475  2.3549  2.2441 -0.8627
  133MOL0     H17525   2.205  10.825   4.504  1.5220  0.8915 -0.0507
  133MOL0     H17526   2.075  10.585   4.667 -1.3638  1.3333  2.3368
  133MOL0     H17527   2.005  10.665   4.527  1.5656  0.8136 -1.9463
  133MOL0     H17528   2.101  10.794   4.794 -0.5910  0.5018  1.7460
  133MOL0     H17529   1.983  10.867   4.671  0.4198  2.0057  3.9788
  133MOL0     H17530   1.849  10.804   4.858  2.3346  2.1962 -1.3896
  133MOL0     H17531   1.932  10.647   4.862  0.2573 -1.2610 -1.9448
  133MOL0     H17532   1.833  10.587   4.647  1.6531  0.4231  1.2903
  133MOL0     H17533   1.759  10.751   4.633 -0.2223 -0.8078 -1.3714
  133MOL0     H17534   1.688  10.563   4.854  3.5467 -4.2035 -3.5355
  133MOL0     H17535   1.607  10.719   4.817  2.0328 -1.2091  2.5076
  133MOL0     H17536   1.609  10.480   4.620 -0.1822  0.3299 -3.4076
  133MOL0     H17537   1.545  10.639   4.586 -0.9329 -0.9559  0.2478
  133MOL0     H17538   2.496  10.785   4.857 -0.5518  0.0130 -2.0452
  133MOL0     H17539   2.697  10.733   4.959 -1.1959  0.0432  1.0468
  133MOL0     H17540   3.154  10.634   4.760 -1.4326 -0.4306  2.2171
  133MOL0     H17541   3.396  10.651   4.796 -0.0448  0.1131  0.8422
  133MOL0     H17542   3.274  10.388   5.062  0.4563  0.2296 -1.0288
  133MOL0     H17543   3.467  10.264   4.954  6.0216 -0.5128  1.3263
  133MOL0     H17544   3.821   9.752   5.158 -0.9996 -1.4707 -2.8256
  133MOL0     H17545   4.063   9.740   5.158  1.4181  0.6319  0.9179
  133MOL0     H17546   4.299  10.092   5.023  1.0851  1.2485 -4.8169
  133MOL0     H17547   4.349   9.975   4.899 -1.0434  1.3542 -0.8126
  133MOL0     H17548   4.523  10.063   5.051 -1.7346  0.9565 -2.5797
  133MOL0     H17549   4.443   9.987   5.192  1.9972 -1.3793 -0.0939
  133MOL0     H17550   4.511   9.816   4.959 -1.7179  1.7461 -0.2236
  133MOL0     H17551   4.497   9.778   5.132  3.2870 -1.5259 -0.9370
  133MOL0     H17552   4.715   9.886   5.182  2.2951  0.0895 -0.9635
  133MOL0     H17553   4.717   9.746   5.080 -1.8474 -0.0522  1.4870
  133MOL0     H17554   4.846  10.050   4.815 -1.3980 -0.3005  0.3651
  133MOL0     H17555   4.102  10.096   4.947  1.5727 -2.4323  0.1295
  133MOL0     H17556   3.843  10.141   4.979 -0.7145  1.2388  2.9670
  134MOL0     O17557   6.248   7.389   6.449  0.0594  0.4602 -0.5839
  134MOL0     C17558   6.345   7.456   6.479 -0.7384  0.6742 -0.6174
  134MOL0     O17559   6.347   7.554   6.582 -0.1770 -0.4393  0.4937
  134MOL0     C17560   6.242   7.586   6.659 -1.0206  0.8823 -1.0769
  134MOL0     C17561   6.263   7.589   6.800  0.2294  0.3944  0.8264
  134MOL0     C17562   6.153   7.599   6.886 -0.0016  0.2366 -0.2793
  134MOL0     C17563   6.029   7.639   6.835  0.9590  0.5985 -0.0220
  134MOL0     O17564   5.927   7.692   6.912 -0.9175  0.9146 -0.3665
  134MOL0     C17565   5.888   7.632   7.036 -0.4138 -0.6549  0.1232
  134MOL0     C17566   5.791   7.728   7.101 -0.0620  0.5992  0.1371
  134MOL0     C17567   5.771   7.721   7.257  0.1039  1.1351  0.3393
  134MOL0     C17568   5.696   7.842   7.301 -0.3592  0.5859 -0.1150
  134MOL0     C17569   5.536   7.827   7.298  0.1178  0.2106 -0.1718
  134MOL0     C17570   5.461   7.925   7.390 -0.4631  0.6017  0.2987
  134MOL0     C17571   5.312   7.896   7.412 -0.1965 -0.4531  0.9651
  134MOL0     C17572   5.292   7.793   7.524  0.1963  0.1746  0.8983
  134MOL0     N17573   5.230   7.846   7.644 -0.2438  0.1333  0.1755
  134MOL0     C17574   5.096   7.832   7.680  0.3751 -1.5959 -0.3450
  134MOL0     C17575   5.094   7.861   7.816 -0.7305  0.2137 -0.8635
  134MOL0     C17576   4.969   7.862   7.904 -0.4172 -0.5430  1.1434
  134MOL0     C17577   4.910   7.723   7.928 -0.2077  0.5682 -0.5780
  134MOL0     C17578   5.007   7.638   8.016  0.2608 -0.2691  0.5264
  134MOL0     C17579   4.933   7.535   8.097 -0.7695  0.4992  0.9714
  134MOL0     O17580   5.012   7.417   8.122 -0.3966  0.5191  0.2272
  134MOL0     C17581   5.086   7.417   8.232  0.1323  0.9179 -0.8807
  134MOL0     C17582   5.203   7.486   8.225 -0.0686  0.1960 -0.5616
  134MOL0     C17583   5.286   7.484   8.330  0.5196  0.5849  0.1573
  134MOL0     C17584   5.256   7.407   8.443 -0.8595  1.4403  0.9430
  134MOL0     C17585   5.353   7.405   8.558  0.2936 -0.7218 -0.8154
  134MOL0     O17586   5.350   7.303   8.648  0.8073 -0.5613 -0.4046
  134MOL0     C17587   5.431   7.313   8.755  0.0432  0.4384  0.7207
  134MOL0     C17588   5.382   7.373   8.872  0.4508 -0.0051 -0.9102
  134MOL0     C17589   5.447   7.348   8.998  0.6948  0.1920 -0.0950
  134MOL0     C17590   5.577   7.286   8.997 -0.4104  0.7001  0.0393
  134MOL0     O17591   5.658   7.260   9.107 -0.3625  0.4511 -0.9409
  134MOL0     C17592   5.606   7.156   9.185  0.3721 -0.2936  0.2159
  134MOL0     C17593   5.681   7.159   9.323 -1.0388 -0.3096  0.3085
  134MOL0     C17594   5.644   7.282   9.402 -0.3397  0.3033 -0.0004
  134MOL0     C17595   5.750   7.313   9.513 -0.8914  1.3329 -0.3861
  134MOL0     C17596   5.711   7.425   9.609  0.2467  0.2125  0.6672
  134MOL0     C17597   5.813   7.445   9.732 -0.1607 -1.0001 -0.4280
  134MOL0     C17598   5.957   7.487   9.691  0.4571 -1.0219 -0.7981
  134MOL0     C17599   6.038   7.549   9.807 -1.2999  0.4645  0.2267
  134MOL0    Cl17600   5.987   7.694   9.890 -0.4385  0.4123  0.4052
  134MOL0     C17601   5.631   7.233   8.874  0.0943 -0.0158  0.0706
  134MOL0     C17602   5.552   7.240   8.757 -0.1547  0.0476  0.6673
  134MOL0     O17603   5.433   7.499   8.558  1.1189 -0.1126 -0.3683
  134MOL0     C17604   5.143   7.328   8.452 -0.1287  0.4377  0.0501
  134MOL0     C17605   5.049   7.351   8.353 -0.0684  0.0787  0.4598
  134MOL0     N17606   5.230   7.906   7.843 -0.5782 -0.3029  0.1581
  134MOL0     N17607   5.314   7.895   7.742 -0.6369 -0.0488 -0.6231
  134MOL0     C17608   6.001   7.633   6.704  0.0965  0.3926 -0.5741
  134MOL0     C17609   6.107   7.599   6.615 -0.9562  0.4566  0.1851
  134MOL0     C17610   6.464   7.459   6.393 -0.3956  0.1306 -0.1617
  134MOL0     C17611   6.485   7.363   6.298 -0.4633 -0.1792 -0.5696
  134MOL0     C17612   6.603   7.358   6.222  0.9355  0.7684 -0.5628
  134MOL0     C17613   6.711   7.446   6.249  0.3189 -0.3423  0.1714
  134MOL0     O17614   6.824   7.446   6.178  0.0006  0.0977 -0.2551
  134MOL0     C17615   6.873   7.339   6.102 -0.8052  0.8266 -0.2699
  134MOL0     C17616   6.848   7.369   5.961 -0.0107  0.6231 -0.0638
  134MOL0     C17617   6.861   7.241   5.861 -0.4028  0.2303  0.0309
  134MOL0     C17618   7.006   7.214   5.817  0.0313  0.8325 -0.1306
  134MOL0     C17619   7.010   7.113   5.711 -0.3459  0.0591  0.3404
  134MOL0     C17620   7.029   7.030   5.624  0.5429 -0.0767  0.3505
  134MOL0     C17621   6.692   7.529   6.364  0.2495 -0.7045  0.5637
  134MOL0     C17622   6.567   7.551   6.416 -0.1196  0.2118 -0.8965
  134MOL0     H17623   6.357   7.559   6.845  0.6190  0.7627  0.2793
  134MOL0     H17624   6.162   7.608   6.994  1.3414  1.8531 -0.4827
  134MOL0     H17625   5.976   7.625   7.100  3.0299  6.1909 -2.8654
  134MOL0     H17626   5.834   7.539   7.014 -2.7207  0.5752  0.2696
  134MOL0     H17627   5.699   7.700   7.050  1.3104 -1.9074 -1.1964
  134MOL0     H17628   5.826   7.829   7.078 -2.6217  2.1263  2.3981
  134MOL0     H17629   5.869   7.715   7.306  1.6474 -2.6428 -2.6551
  134MOL0     H17630   5.711   7.632   7.275  2.0716 -0.3689 -0.2494
  134MOL0     H17631   5.726   7.845   7.406 -1.8007 -0.8532  0.3711
  134MOL0     H17632   5.725   7.937   7.255  1.6956  0.3902  0.6728
  134MOL0     H17633   5.507   7.724   7.323 -1.1326  0.8026  0.9720
  134MOL0     H17634   5.512   7.849   7.194  4.1473  1.3930 -1.0061
  134MOL0     H17635   5.476   8.023   7.343  2.0761  0.0855 -0.1340
  134MOL0     H17636   5.522   7.934   7.481  0.6819  1.1631 -0.4987
  134MOL0     H17637   5.254   7.987   7.430 -2.1884 -1.4935  0.0925
  134MOL0     H17638   5.279   7.858   7.315 -2.3007  0.2285  1.3782
  134MOL0     H17639   5.393   7.760   7.549  0.6498 -0.4566 -1.4653
  134MOL0     H17640   5.244   7.701   7.489  1.4800  0.8609 -3.2135
  134MOL0     H17641   5.014   7.799   7.617 -0.2643 -1.6920  0.5203
  134MOL0     H17642   4.898   7.921   7.845  1.0601  0.2125  0.0539
  134MOL0     H17643   5.002   7.916   7.993  2.9728  1.2997 -1.0160
  134MOL0     H17644   4.885   7.678   7.832 -0.5124  0.4707 -0.4540
  134MOL0     H17645   4.821   7.735   7.991  0.9240 -0.4376  1.3020
  134MOL0     H17646   5.083   7.588   7.955  0.1870  0.0620  0.1630
  134MOL0     H17647   5.046   7.695   8.100 -2.2155  0.5994  1.1552
  134MOL0     H17648   4.855   7.492   8.034  1.1497 -1.6279 -0.1204
  134MOL0     H17649   4.895   7.580   8.189  0.6370  0.9646  1.3524
  134MOL0     H17650   5.221   7.553   8.142 -1.6354  0.8145 -0.4475
  134MOL0     H17651   5.374   7.545   8.311  1.1163 -0.6247 -1.0783
  134MOL0     H17652   5.287   7.425   8.871  0.1811 -0.4931 -1.0306
  134MOL0     H17653   5.395   7.381   9.087  1.3070 -0.8324  0.6587
  134MOL0     H17654   5.634   7.065   9.130  2.0032 -0.9595  2.0296
  134MOL0     H17655   5.498   7.160   9.201  0.3137  0.6745 -0.3821
  134MOL0     H17656   5.789   7.156   9.302 -0.5544 -0.9533  2.6144
  134MOL0     H17657   5.653   7.065   9.372 -2.4674  0.5975  1.3164
  134MOL0     H17658   5.543   7.279   9.444 -1.1600  1.9059 -1.7167
  134MOL0     H17659   5.633   7.365   9.331 -0.7860  0.9027  0.7459
  134MOL0     H17660   5.783   7.227   9.571  0.3650  1.3933 -0.9885
  134MOL0     H17661   5.844   7.330   9.461 -0.9739 -3.0237 -2.3240
  134MOL0     H17662   5.612   7.409   9.652 -0.8325 -0.0411 -1.7620
  134MOL0     H17663   5.706   7.517   9.550 -0.4855 -0.5109 -0.4366
  134MOL0     H17664   5.807   7.364   9.806 -0.8109 -1.0133 -0.4814
  134MOL0     H17665   5.769   7.517   9.801 -1.0427 -3.2391  1.5123
  134MOL0     H17666   6.022   7.410   9.648  0.8527 -3.2978  3.3449
  134MOL0     H17667   5.942   7.576   9.628  0.4412 -0.8087 -0.4913
  134MOL0     H17668   6.132   7.579   9.759 -0.0790 -0.4813  1.9193
  134MOL0     H17669   6.070   7.480   9.885  0.6640  2.2388  1.0969
  134MOL0     H17670   5.732   7.194   8.880 -0.8901 -2.5920  1.7341
  134MOL0     H17671   5.597   7.200   8.667  2.2761  3.2187  0.2999
  134MOL0     H17672   5.118   7.277   8.545 -1.9546  1.9674  0.4408
  134MOL0     H17673   4.944   7.324   8.352  0.0218 -0.4280  2.2523
  134MOL0     H17674   5.901   7.669   6.681 -0.0576  0.7435  0.5789
  134MOL0     H17675   6.093   7.599   6.508 -0.8706  0.0106  0.1744
  134MOL0     H17676   6.420   7.277   6.287 -0.6281 -0.1679  0.2729
  134MOL0     H17677   6.609   7.286   6.141  1.2656  0.9341 -0.6862
  134MOL0     H17678   6.840   7.241   6.137 -0.7686  0.3403 -1.5425
  134MOL0     H17679   6.980   7.339   6.126 -0.9002 -0.4646  0.2454
  134MOL0     H17680   6.745   7.406   5.959  0.8910  3.6400  1.8984
  134MOL0     H17681   6.908   7.453   5.925  1.5340  0.6836  2.3995
  134MOL0     H17682   6.803   7.264   5.770 -1.8062 -1.4360  0.4430
  134MOL0     H17683   6.816   7.155   5.910  0.1859  0.8323  1.6695
  134MOL0     H17684   7.042   7.310   5.779 -0.1726  0.8881 -0.1817
  134MOL0     H17685   7.062   7.160   5.894 -1.1259 -1.1381 -0.6103
  134MOL0     H17686   7.036   6.948   5.555 -0.5594  0.2289 -0.1611
  134MOL0     H17687   6.770   7.598   6.393 -0.5082  0.5300 -0.2389
  134MOL0     H17688   6.562   7.639   6.480  0.2103  2.8708 -4.2425
  135MOL0     O17689   8.653   2.134  10.086 -0.2958  0.5422 -0.3341
  135MOL0     C17690   8.585   2.032  10.100 -0.9807 -0.0218 -0.2699
  135MOL0     O17691   8.575   1.962  10.225 -0.0288 -0.4968  0.4490
  135MOL0     C17692   8.631   2.005  10.340 -0.0390  0.8110 -0.2401
  135MOL0     C17693   8.555   2.019  10.456  0.1087 -0.8089 -0.1723
  135MOL0     C17694   8.617   2.036  10.589 -0.3094  0.5503  0.6125
  135MOL0     C17695   8.751   2.032  10.606 -0.5288  0.4583  0.0200
  135MOL0     O17696   8.799   2.054  10.734 -1.0544  0.4222 -0.2724
  135MOL0     C17697   8.948   2.046  10.757 -0.0493 -0.0715 -0.5106
  135MOL0     C17698   8.984   2.056  10.902  0.4524  0.7135  0.5156
  135MOL0     C17699   9.130   2.072  10.923 -0.8445  0.1943 -1.0208
  135MOL0     C17700   9.190   2.196  10.851  0.2048  0.2386 -0.8339
  135MOL0     C17701   9.337   2.231  10.894  0.3281 -0.9836  0.1360
  135MOL0     C17702   9.442   2.118  10.909  0.9949  0.0991 -0.7462
  135MOL0     C17703   9.490   2.050  10.775 -0.1206 -0.6432 -0.7431
  135MOL0     C17704   9.613   1.963  10.806 -1.1956  0.8666 -0.1257
  135MOL0     N17705   9.586   1.854  10.906 -0.0570  0.5905  0.4614
  135MOL0     C17706   9.513   1.744  10.871  0.8013 -0.9744  0.0370
  135MOL0     C17707   9.507   1.675  10.989 -0.6006 -0.5469 -0.5404
  135MOL0     C17708   9.423   1.547  11.003 -0.3002 -0.3164  0.4674
  135MOL0     C17709   9.304   1.572  11.105 -0.5112  0.2208  0.5807
  135MOL0     C17710   9.185   1.656  11.042 -0.1275 -0.0099  0.0076
  135MOL0     C17711   9.076   1.675  11.143 -0.1940  0.3635 -0.1586
  135MOL0     O17712   8.970   1.736  11.072  0.5632 -0.3506 -0.4889
  135MOL0     C17713   8.840   1.711  11.101 -0.0625  0.5066  0.4299
  135MOL0     C17714   8.787   1.681  11.223  0.1970  0.6335  0.8095
  135MOL0     C17715   8.651   1.646  11.248  0.3561 -0.0030  0.3015
  135MOL0     C17716   8.562   1.630  11.137  0.9681 -0.1883 -0.9216
  135MOL0     C17717   8.410   1.617  11.151 -0.1477  0.1813 -0.3763
  135MOL0     O17718   8.335   1.588  11.037  0.2732 -0.1729 -0.5095
  135MOL0     C17719   8.199   1.605  11.043 -0.5682  0.1551 -0.5187
  135MOL0     C17720   8.139   1.723  11.071  0.5075  0.5688  1.1082
  135MOL0     C17721   7.997   1.737  11.045 -0.3014 -0.7322 -0.0433
  135MOL0     C17722   7.923   1.636  10.982 -0.2045 -0.2942  0.8833
  135MOL0     O17723   7.792   1.660  10.949 -0.1392  0.0138 -0.8576
  135MOL0     C17724   7.706   1.551  10.913  0.5296 -0.5408  0.2703
  135MOL0     C17725   7.568   1.605  10.861  0.1606  0.5423  1.5139
  135MOL0     C17726   7.475   1.695  10.943  0.7715 -0.1397 -0.4664
  135MOL0     C17727   7.342   1.723  10.876 -0.0769  0.0760  0.9939
  135MOL0     C17728   7.270   1.811  10.978  0.4086 -0.9632  0.3072
  135MOL0     C17729   7.126   1.840  10.928  0.1099 -0.1982 -0.1866
  135MOL0     C17730   7.042   1.912  11.040 -0.0393  0.5860  0.5475
  135MOL0     C17731   6.891   1.913  11.000 -0.0374 -0.2360 -0.6184
  135MOL0    Cl17732   6.871   2.027  10.861  0.1658 -0.0613 -0.1479
  135MOL0     C17733   7.998   1.521  10.950 -0.3101  1.1542  0.1434
  135MOL0     C17734   8.132   1.508  10.979 -0.5652 -0.0252  0.0127
  135MOL0     O17735   8.358   1.649  11.259  0.2035 -0.5910  0.0825
  135MOL0     C17736   8.613   1.656  11.011  0.1082  0.0136 -0.0940
  135MOL0     C17737   8.748   1.692  10.995 -0.1024  0.1863  0.4517
  135MOL0     N17738   9.580   1.737  11.095  0.3968 -0.2267 -0.3963
  135MOL0     N17739   9.621   1.848  11.039 -0.1465  0.1000  0.4800
  135MOL0     C17740   8.830   2.013  10.485 -0.1099  0.0949 -0.7458
  135MOL0     C17741   8.770   2.001  10.356  1.0432 -0.5854 -0.0455
  135MOL0     C17742   8.504   1.973   9.978  0.1269  0.0276 -0.0987
  135MOL0     C17743   8.412   1.871   9.995 -0.0785  0.2503 -0.4247
  135MOL0     C17744   8.343   1.818   9.879 -0.4034  1.4578  0.5063
  135MOL0     C17745   8.380   1.857   9.748  1.2265 -0.3594  0.2225
  135MOL0     O17746   8.318   1.781   9.649 -0.6440 -0.0931  0.3905
  135MOL0     C17747   8.371   1.786   9.515  0.1586 -0.2771  0.4360
  135MOL0     C17748   8.493   1.692   9.518 -0.4715 -0.0070  1.2455
  135MOL0     C17749   8.607   1.719   9.418  0.4579 -0.6174 -0.3858
  135MOL0     C17750   8.708   1.599   9.411 -0.3189 -0.9013  0.7352
  135MOL0     C17751   8.841   1.610   9.463 -0.6071 -0.5307  0.3368
  135MOL0     C17752   8.956   1.611   9.498  0.5770  0.0837  0.3849
  135MOL0     C17753   8.482   1.948   9.740 -0.4675  0.4754 -1.0089
  135MOL0     C17754   8.546   2.001   9.853  0.2904 -0.1273  0.6689
  135MOL0     H17755   8.447   2.014  10.464  0.0369 -0.6562 -1.0015
  135MOL0     H17756   8.566   2.055  10.682 -2.9040  1.5064 -0.9043
  135MOL0     H17757   8.991   2.131  10.702 -1.6007  0.5466 -0.8221
  135MOL0     H17758   8.982   1.955  10.706  2.2177  1.6845 -2.3807
  135MOL0     H17759   8.952   1.966  10.955  1.3975  0.1639  0.1645
  135MOL0     H17760   8.925   2.143  10.936 -3.3749 -1.7217  0.7656
  135MOL0     H17761   9.175   1.976  10.895 -0.2356  0.0621  0.3170
  135MOL0     H17762   9.154   2.087  11.029 -1.0540 -0.8321 -0.8121
  135MOL0     H17763   9.182   2.173  10.744  1.0089 -2.5405 -0.3703
  135MOL0     H17764   9.132   2.288  10.864  0.8626  0.6665 -0.8765
  135MOL0     H17765   9.327   2.268  10.996 -0.2416  0.0427 -0.2746
  135MOL0     H17766   9.376   2.314  10.835  1.7627  1.7704  4.4776
  135MOL0     H17767   9.389   2.042  10.966 -0.0976  0.4576 -1.2724
  135MOL0     H17768   9.518   2.150  10.981 -0.7405 -0.4475  1.4281
  135MOL0     H17769   9.416   1.977  10.741 -0.9712 -1.2861  2.2185
  135MOL0     H17770   9.510   2.126  10.698  1.4083  0.1261  0.3626
  135MOL0     H17771   9.692   2.027  10.845  0.1746  2.0272 -4.3081
  135MOL0     H17772   9.644   1.911  10.714  4.1201 -1.8777  2.7472
  135MOL0     H17773   9.452   1.727  10.783  1.5319  0.9496 -0.9151
  135MOL0     H17774   9.490   1.471  11.044 -2.8886 -2.7718  0.4329
  135MOL0     H17775   9.383   1.522  10.905 -1.6319 -1.8658  1.3498
  135MOL0     H17776   9.346   1.621  11.194  1.8111 -0.7502  0.1061
  135MOL0     H17777   9.270   1.471  11.129  0.3057 -0.8234 -2.1786
  135MOL0     H17778   9.225   1.755  11.020  1.5207 -0.4821  0.7459
  135MOL0     H17779   9.149   1.594  10.959  0.8027  0.9749 -1.1568
  135MOL0     H17780   9.103   1.739  11.227 -1.5397 -0.7935  1.2100
  135MOL0     H17781   9.059   1.578  11.190 -0.6414  0.4994 -0.0345
  135MOL0     H17782   8.839   1.670  11.318  0.4096 -3.3711  0.4009
  135MOL0     H17783   8.617   1.651  11.351  1.6040  0.0764  0.7217
  135MOL0     H17784   8.185   1.816  11.103  0.8763  1.0958 -0.8147
  135MOL0     H17785   7.950   1.832  11.071  3.9690  1.5409  0.1735
  135MOL0     H17786   7.684   1.494  11.004 -2.0067 -1.8357 -1.0614
  135MOL0     H17787   7.756   1.479  10.847 -1.2124 -2.0319  0.5133
  135MOL0     H17788   7.507   1.514  10.850 -2.7647  2.3373  1.6617
  135MOL0     H17789   7.587   1.643  10.760 -3.3280  3.4126  1.7174
  135MOL0     H17790   7.519   1.793  10.963  0.7695 -0.5539  1.7872
  135MOL0     H17791   7.452   1.641  11.035  1.2668  0.6016  0.0970
  135MOL0     H17792   7.367   1.781  10.787  1.2228 -1.5287  0.2602
  135MOL0     H17793   7.287   1.633  10.847 -1.6085 -0.3698  4.7212
  135MOL0     H17794   7.328   1.901  10.995  0.8959 -0.9806 -1.1220
  135MOL0     H17795   7.260   1.761  11.075 -1.0137 -1.0644  0.1257
  135MOL0     H17796   7.070   1.754  10.890 -3.3285  1.7756  0.0059
  135MOL0     H17797   7.141   1.903  10.840  1.6086 -0.4602 -0.1469
  135MOL0     H17798   7.043   1.841  11.123 -0.4811  1.6081  1.4455
  135MOL0     H17799   7.083   2.009  11.069  1.9434  0.5612 -1.8991
  135MOL0     H17800   6.843   1.954  11.089  1.2249 -1.2944  0.5961
  135MOL0     H17801   6.852   1.811  10.986 -1.0561 -0.1582  1.3052
  135MOL0     H17802   7.961   1.450  10.877 -0.1587 -0.2745  1.3992
  135MOL0     H17803   8.183   1.425  10.930  0.0879  0.0715  0.5249
  135MOL0     H17804   8.546   1.662  10.926  1.5432 -0.0235 -1.2807
  135MOL0     H17805   8.774   1.710  10.891 -4.0060  0.6266 -0.6138
  135MOL0     H17806   8.934   1.987  10.500 -0.8439 -2.1871  0.9967
  135MOL0     H17807   8.837   1.977  10.274  1.1902 -1.5056  0.3378
  135MOL0     H17808   8.389   1.850  10.099  0.1420  0.6935 -0.2847
  135MOL0     H17809   8.262   1.746   9.885  0.6547  0.1540 -0.3608
  135MOL0     H17810   8.407   1.886   9.491 -0.3212 -0.6234 -2.0082
  135MOL0     H17811   8.291   1.752   9.448 -1.2954  1.8004  1.0160
  135MOL0     H17812   8.543   1.691   9.616  0.0330  0.6440  1.0000
  135MOL0     H17813   8.452   1.590   9.514  1.1548 -0.6626  0.0454
  135MOL0     H17814   8.650   1.818   9.432 -0.1908 -0.5819  1.6068
  135MOL0     H17815   8.562   1.720   9.318 -3.0993  3.1068  0.9922
  135MOL0     H17816   8.676   1.504   9.456 -0.7855 -1.5765 -0.9459
  135MOL0     H17817   8.719   1.578   9.304 -0.5679 -1.1697  0.7597
  135MOL0     H17818   9.049   1.648   9.538 -1.1059  2.9415  2.0110
  135MOL0     H17819   8.512   1.966   9.637 -2.8044  0.5142 -1.7546
  135MOL0     H17820   8.639   2.056   9.838 -0.0372  0.0141 -1.1001
  136MOL0     O17821   4.661   0.382   4.345  0.1155 -0.0781 -0.4848
  136MOL0     C17822   4.669   0.491   4.288  0.3036  0.1573 -0.4135
  136MOL0     O17823   4.573   0.563   4.224 -0.0667  0.7727  0.0877
  136MOL0     C17824   4.443   0.536   4.251 -0.6494  1.2986  0.0566
  136MOL0     C17825   4.392   0.430   4.179 -0.8712  0.1174 -0.3644
  136MOL0     C17826   4.251   0.402   4.177  0.0429  0.4454 -0.1307
  136MOL0     C17827   4.169   0.500   4.244 -0.1112 -0.2064 -0.2984
  136MOL0     O17828   4.032   0.487   4.230  0.1900  0.3868 -0.3642
  136MOL0     C17829   3.944   0.539   4.336 -0.0433  0.1820 -0.0964
  136MOL0     C17830   3.794   0.496   4.317 -0.4560  0.7638  0.3560
  136MOL0     C17831   3.764   0.358   4.372 -0.0339  0.0280  0.1688
  136MOL0     C17832   3.630   0.289   4.330 -0.0898  0.0885  1.1302
  136MOL0     C17833   3.640   0.161   4.254  0.5839  0.2551  0.5081
  136MOL0     C17834   3.512   0.132   4.170 -0.6047  0.1429 -0.2254
  136MOL0     C17835   3.392   0.100   4.261  0.0030 -0.0727 -0.0277
  136MOL0     C17836   3.268   0.051   4.186  0.1874  0.2328  0.6620
  136MOL0     N17837   3.163   0.057   4.280  0.6445  0.2693 -0.0854
  136MOL0     C17838   3.085   0.164   4.313  0.7094  0.7305 -0.0806
  136MOL0     C17839   2.988   0.112   4.403 -0.0196 -0.4289  0.3377
  136MOL0     C17840   2.871   0.191   4.460  0.5692 -0.5511  0.1720
  136MOL0     C17841   2.732   0.186   4.394  0.2121 -0.0855  0.1050
  136MOL0     C17842   2.655   0.064   4.466 -0.5863 -0.0269  1.2138
  136MOL0     C17843   2.503   0.080   4.465  0.3261  0.3038  0.3078
  136MOL0     O17844   2.478   0.183   4.559  0.1182 -0.5787  0.4612
  136MOL0     C17845   2.348   0.224   4.587  0.3578  0.4034 -0.7498
  136MOL0     C17846   2.239   0.167   4.521  0.2304 -0.7082 -0.5565
  136MOL0     C17847   2.117   0.238   4.540 -0.3987  0.4802  0.1616
  136MOL0     C17848   2.109   0.348   4.621  0.1219  0.1221  0.1207
  136MOL0     C17849   1.982   0.413   4.635 -0.2536  0.2944 -1.0273
  136MOL0     O17850   1.977   0.524   4.719 -0.0490  0.4142  0.1002
  136MOL0     C17851   1.861   0.589   4.700  1.2405 -0.0814 -0.6168
  136MOL0     C17852   1.855   0.671   4.587 -0.9845 -0.6250 -0.8876
  136MOL0     C17853   1.742   0.748   4.562  0.1793  1.1617 -0.1330
  136MOL0     C17854   1.635   0.752   4.653 -0.6189  0.4916 -0.5110
  136MOL0     O17855   1.525   0.830   4.620 -0.2085  1.0365  0.7842
  136MOL0     C17856   1.491   0.930   4.716 -0.1806  0.3772  0.2566
  136MOL0     C17857   1.344   0.942   4.719 -0.4808  0.2689  0.7254
  136MOL0     C17858   1.317   1.080   4.797 -0.3030  0.5582  0.2061
  136MOL0     C17859   1.161   1.109   4.809 -0.8723  0.9880  1.0575
  136MOL0     C17860   1.129   1.244   4.874  0.6000 -0.4312  0.3459
  136MOL0     C17861   0.978   1.264   4.887 -0.4142  0.0834  0.3101
  136MOL0     C17862   0.945   1.398   4.957 -0.3104  0.3448 -0.2335
  136MOL0     C17863   0.793   1.428   4.981 -0.1735  0.9044 -0.1042
  136MOL0    Cl17864   0.695   1.448   4.821  0.6351  0.1972  0.1076
  136MOL0     C17865   1.647   0.682   4.776  0.1279  0.4478  0.1619
  136MOL0     C17866   1.758   0.599   4.798  0.4731 -0.2274  0.0613
  136MOL0     O17867   1.887   0.360   4.579  0.4639 -0.6993  0.2469
  136MOL0     C17868   2.217   0.401   4.703 -0.6895  0.4137  0.6864
  136MOL0     C17869   2.336   0.343   4.675 -0.5382  0.0669  0.2070
  136MOL0     N17870   3.015  -0.018   4.425  0.2300  1.0048  0.4381
  136MOL0     N17871   3.109  -0.053   4.347 -0.6514 -0.1078  0.0046
  136MOL0     C17872   4.234   0.599   4.324  0.3269  0.3060 -0.0103
  136MOL0     C17873   4.374   0.610   4.342  1.0270  0.3726 -0.0450
  136MOL0     C17874   4.796   0.563   4.284 -0.1072  1.2500  0.2027
  136MOL0     C17875   4.893   0.514   4.376  0.0928  0.3752  0.2156
  136MOL0     C17876   5.013   0.576   4.380 -0.6659 -0.3746 -0.0876
  136MOL0     C17877   5.057   0.671   4.287 -1.0314  0.1354 -0.4754
  136MOL0     O17878   5.193   0.716   4.306  0.5663  0.1119 -0.1314
  136MOL0     C17879   5.259   0.770   4.192  1.4112 -0.2558 -0.6537
  136MOL0     C17880   5.403   0.726   4.192 -0.5599 -0.3587  0.3518
  136MOL0     C17881   5.479   0.817   4.283 -1.0589 -0.3763  0.2286
  136MOL0     C17882   5.625   0.798   4.248  0.2497  0.1510  0.5403
  136MOL0     C17883   5.716   0.917   4.287 -0.0731  0.0450  0.3884
  136MOL0     C17884   5.784   1.007   4.326  0.5808 -0.8528 -0.2933
  136MOL0     C17885   4.960   0.711   4.194 -0.5335  0.1898  0.0846
  136MOL0     C17886   4.822   0.663   4.196 -0.3196 -0.3183  0.7645
  136MOL0     H17887   4.455   0.371   4.114 -0.0691  0.6958 -0.1261
  136MOL0     H17888   4.210   0.328   4.109 -1.1697  0.3832  0.6454
  136MOL0     H17889   3.947   0.646   4.316  1.4426  0.3063  0.6464
  136MOL0     H17890   3.983   0.530   4.438  2.0475  2.8585 -0.5454
  136MOL0     H17891   3.770   0.507   4.211  0.3272 -1.1753 -0.0751
  136MOL0     H17892   3.726   0.562   4.370 -0.4158  2.3416 -1.4323
  136MOL0     H17893   3.744   0.378   4.478 -1.8800 -0.2174 -0.0964
  136MOL0     H17894   3.852   0.297   4.353  0.1014 -0.2255  1.4985
  136MOL0     H17895   3.578   0.270   4.425 -2.9523  3.1654  0.3832
  136MOL0     H17896   3.570   0.372   4.291 -0.1958  1.3128  3.6273
  136MOL0     H17897   3.652   0.074   4.320 -2.3735  1.0000  2.1730
  136MOL0     H17898   3.721   0.163   4.180 -0.4049  3.6394 -0.6389
  136MOL0     H17899   3.544   0.040   4.120  1.6015  1.1065 -0.7147
  136MOL0     H17900   3.493   0.213   4.098 -0.0981  0.1038 -0.4052
  136MOL0     H17901   3.410   0.023   4.337  1.6771 -0.3625 -0.6724
  136MOL0     H17902   3.365   0.193   4.311 -0.1900  0.6508 -1.4368
  136MOL0     H17903   3.283  -0.052   4.152 -0.3950 -0.1017  1.3940
  136MOL0     H17904   3.246   0.115   4.100  1.6984  0.4235  0.3778
  136MOL0     H17905   3.103   0.268   4.288 -1.6001  1.0669 -0.6321
  136MOL0     H17906   2.907   0.291   4.435  1.1650 -0.2689  2.0289
  136MOL0     H17907   2.871   0.173   4.568  0.4367 -1.8156 -0.0158
  136MOL0     H17908   2.749   0.165   4.288 -0.9491  2.0499 -0.5601
  136MOL0     H17909   2.674   0.278   4.392 -3.1968 -2.0741 -0.1849
  136MOL0     H17910   2.675  -0.030   4.415 -1.4151  0.4847 -0.1259
  136MOL0     H17911   2.691   0.053   4.569 -1.1760 -1.5498  1.2787
  136MOL0     H17912   2.453  -0.009   4.503 -1.7431  1.6740  0.9626
  136MOL0     H17913   2.475   0.115   4.365 -0.4935 -0.6769  0.1856
  136MOL0     H17914   2.242   0.077   4.461  0.8272 -0.5740 -0.7381
  136MOL0     H17915   2.027   0.201   4.491  0.0733  1.1928 -1.3022
  136MOL0     H17916   1.943   0.677   4.524  0.2779  2.3672  0.9497
  136MOL0     H17917   1.734   0.800   4.467 -1.3593  1.5608  0.1998
  136MOL0     H17918   1.538   1.024   4.686 -0.4672  0.6049  0.5145
  136MOL0     H17919   1.530   0.921   4.818  1.0110 -0.8968 -0.2873
  136MOL0     H17920   1.290   0.855   4.757 -0.9953  0.9885  1.6725
  136MOL0     H17921   1.318   0.960   4.614  2.9159 -0.7401 -0.4357
  136MOL0     H17922   1.355   1.160   4.733 -0.6641  0.3219 -0.3198
  136MOL0     H17923   1.375   1.087   4.889 -1.7656  1.6391  1.0794
  136MOL0     H17924   1.129   1.105   4.705  0.6554 -0.3081  0.5903
  136MOL0     H17925   1.116   1.028   4.868 -0.8469 -0.8286 -1.2832
  136MOL0     H17926   1.184   1.306   4.802 -0.6861 -1.9758 -2.1242
  136MOL0     H17927   1.180   1.245   4.971  2.3079  1.9720 -0.4832
  136MOL0     H17928   0.928   1.181   4.937 -2.6578  0.9019 -0.4323
  136MOL0     H17929   0.923   1.280   4.793 -2.0892 -2.2438  0.8236
  136MOL0     H17930   0.989   1.402   5.057  3.2224  0.2931 -1.6266
  136MOL0     H17931   0.987   1.482   4.900 -0.3546  0.7854  0.3714
  136MOL0     H17932   0.781   1.515   5.047  1.4308  1.1753 -0.1398
  136MOL0     H17933   0.744   1.358   5.049 -0.9846  3.9481  2.7429
  136MOL0     H17934   1.564   0.676   4.845 -2.9729 -0.1686 -3.2819
  136MOL0     H17935   1.776   0.546   4.891  2.0169  0.9130  0.4619
  136MOL0     H17936   2.201   0.487   4.768  0.4752  1.3406 -0.2173
  136MOL0     H17937   2.425   0.400   4.700 -0.4223 -1.6784  4.5029
  136MOL0     H17938   4.174   0.672   4.378 -1.9651  2.2524 -4.6239
  136MOL0     H17939   4.405   0.679   4.420  0.9745 -3.0466  3.2982
  136MOL0     H17940   4.882   0.431   4.445 -2.1474 -1.6538 -2.3608
  136MOL0     H17941   5.071   0.548   4.468 -2.2175 -2.1699  0.4121
  136MOL0     H17942   5.251   0.879   4.198 -0.6091 -0.4055  0.1311
  136MOL0     H17943   5.211   0.729   4.103 -0.1896 -1.0039  0.5153
  136MOL0     H17944   5.406   0.624   4.230  3.6076 -0.3767  0.3728
  136MOL0     H17945   5.448   0.722   4.093  1.7600  1.9536  1.1903
  136MOL0     H17946   5.448   0.796   4.386  0.1219 -0.8757  0.4974
  136MOL0     H17947   5.451   0.918   4.251 -0.2780 -0.5402 -1.0240
  136MOL0     H17948   5.657   0.716   4.314 -2.3510  0.8119  2.7805
  136MOL0     H17949   5.654   0.758   4.150  1.1213  0.5877  0.6034
  136MOL0     H17950   5.823   1.100   4.364 -2.2443  1.0345 -1.6208
  136MOL0     H17951   4.994   0.782   4.119 -0.1366  1.2425  1.2253
  136MOL0     H17952   4.757   0.691   4.113 -1.4051  0.0146  1.7011
  137MOL0     O17953   7.900   5.273   4.216  0.3030  0.2508 -0.0376
  137MOL0     C17954   7.908   5.231   4.331  0.2594 -0.5341 -0.2742
  137MOL0     O17955   7.798   5.225   4.412 -0.3314 -0.0657  0.8377
  137MOL0     C17956   7.677   5.215   4.349  0.2230 -0.1153  0.4771
  137MOL0     C17957   7.609   5.096   4.326  0.4247  0.8134  0.9240
  137MOL0     C17958   7.478   5.098   4.268  0.9885  0.6586 -0.1200
  137MOL0     C17959   7.409   5.218   4.239 -0.6276 -0.1721  0.2249
  137MOL0     O17960   7.287   5.218   4.175  0.7853 -0.0663  0.9858
  137MOL0     C17961   7.239   5.334   4.104 -0.8107 -0.7518 -1.2042
  137MOL0     C17962   7.154   5.428   4.186 -0.1392  0.2214 -0.1231
  137MOL0     C17963   7.036   5.351   4.258  0.3832 -0.8348 -0.0022
  137MOL0     C17964   6.963   5.453   4.347  0.9305 -0.2754 -0.2967
  137MOL0     C17965   6.892   5.385   4.466 -0.1471 -0.1830  1.1491
  137MOL0     C17966   6.820   5.466   4.573 -0.5783  0.4588  0.1349
  137MOL0     C17967   6.690   5.506   4.519 -0.5833 -0.8921 -0.3247
  137MOL0     C17968   6.587   5.539   4.635 -0.3635 -1.3087  0.3746
  137MOL0     N17969   6.451   5.571   4.567 -0.4984  0.5597 -0.2420
  137MOL0     C17970   6.348   5.635   4.630 -0.5681 -0.7104 -0.3265
  137MOL0     C17971   6.247   5.645   4.550  0.7697 -0.2407 -0.2811
  137MOL0     C17972   6.117   5.713   4.574  0.2742 -0.2315 -0.3636
  137MOL0     C17973   6.121   5.852   4.616  0.8130  0.3239 -0.4677
  137MOL0     C17974   5.984   5.903   4.670 -0.3468 -0.2563 -0.0674
  137MOL0     C17975   6.010   6.043   4.738  0.4432 -0.1472 -0.6421
  137MOL0     O17976   5.893   6.054   4.828 -0.3005  0.6782 -0.2756
  137MOL0     C17977   5.868   6.180   4.878  0.0247  0.2168 -0.7034
  137MOL0     C17978   5.747   6.195   4.944  0.3496 -0.1773  0.1493
  137MOL0     C17979   5.726   6.315   5.012  1.4078  0.3352  0.3264
  137MOL0     C17980   5.806   6.425   4.991  0.6998  0.5451 -0.3048
  137MOL0     C17981   5.771   6.554   5.044 -0.1740 -0.1003 -0.8932
  137MOL0     O17982   5.864   6.648   5.039 -0.0514 -1.0560 -0.0694
  137MOL0     C17983   5.851   6.772   5.096 -0.7707 -0.1453 -0.3876
  137MOL0     C17984   5.894   6.882   5.019 -0.4466 -0.8308 -0.5232
  137MOL0     C17985   5.913   7.009   5.074  0.4743  0.3338  0.8031
  137MOL0     C17986   5.862   7.046   5.191  0.8512 -0.6706 -0.5096
  137MOL0     O17987   5.863   7.181   5.236 -0.7564  0.1956 -0.1610
  137MOL0     C17988   5.923   7.287   5.155  0.2317  0.2845  0.3317
  137MOL0     C17989   5.940   7.415   5.236 -0.7806 -0.1269  0.2054
  137MOL0     C17990   5.815   7.504   5.261 -0.6967  0.1092  0.4992
  137MOL0     C17991   5.771   7.591   5.129 -0.1014  0.0665  0.3157
  137MOL0     C17992   5.665   7.698   5.154  0.4772  0.8376 -0.4433
  137MOL0     C17993   5.694   7.803   5.264 -0.0251 -0.0088 -0.6970
  137MOL0     C17994   5.805   7.916   5.233 -0.2062  0.4626 -0.6594
  137MOL0     C17995   5.773   8.003   5.114  0.9114 -0.0101  0.0989
  137MOL0    Cl17996   5.612   8.074   5.126  0.1926  0.0815  0.4189
  137MOL0     C17997   5.800   6.946   5.265 -0.0550 -0.4051  0.0849
  137MOL0     C17998   5.801   6.815   5.222 -0.6765 -0.3308  0.5807
  137MOL0     O17999   5.661   6.567   5.103 -0.3609 -0.3212  0.0920
  137MOL0     C18000   5.914   6.411   4.896  0.5900  0.1281  0.5442
  137MOL0     C18001   5.947   6.291   4.848  0.2532  0.3782 -0.2502
  137MOL0     N18002   6.283   5.567   4.436  0.5628  0.9760  0.9715
  137MOL0     N18003   6.402   5.522   4.456 -0.5631 -0.0100 -0.0463
  137MOL0     C18004   7.476   5.334   4.277 -0.5972 -0.3810 -1.2952
  137MOL0     C18005   7.606   5.338   4.326  0.2898 -0.2975 -0.2774
  137MOL0     C18006   8.036   5.209   4.393 -0.2384  0.6533 -0.7429
  137MOL0     C18007   8.043   5.196   4.532  0.3583 -0.0223 -0.2770
  137MOL0     C18008   8.168   5.190   4.591  1.2822  0.5810 -0.1679
  137MOL0     C18009   8.281   5.174   4.514 -0.2407 -0.3402 -0.2151
  137MOL0     O18010   8.406   5.181   4.578  0.8068 -0.0154  0.9154
  137MOL0     C18011   8.410   5.133   4.711 -0.2790 -0.1687 -0.2624
  137MOL0     C18012   8.550   5.081   4.742 -0.3701  1.2408  0.0773
  137MOL0     C18013   8.666   5.166   4.706  0.7190 -0.4609  0.0405
  137MOL0     C18014   8.804   5.119   4.747 -1.1774  0.9069 -0.5453
  137MOL0     C18015   8.908   5.182   4.674 -0.5789 -0.4423 -0.4996
  137MOL0     C18016   8.996   5.249   4.621 -0.1601  0.4001  0.5471
  137MOL0     C18017   8.278   5.185   4.374 -0.0509  0.7810 -0.2566
  137MOL0     C18018   8.153   5.207   4.313  0.1316  0.3581 -0.1056
  137MOL0     H18019   7.654   4.997   4.322 -3.8184 -1.5378  3.5381
  137MOL0     H18020   7.444   5.000   4.236  2.2302  0.2505 -0.2292
  137MOL0     H18021   7.174   5.307   4.020  1.5907  1.3719 -3.9324
  137MOL0     H18022   7.323   5.384   4.055 -0.3269 -0.6743 -0.3192
  137MOL0     H18023   7.112   5.501   4.116  1.8586 -0.0030 -1.6700
  137MOL0     H18024   7.218   5.477   4.260  0.6474 -0.5731 -0.2673
  137MOL0     H18025   7.073   5.262   4.311  1.3455 -0.1352  0.5335
  137MOL0     H18026   6.983   5.318   4.169  3.5669 -0.8857 -2.0269
  137MOL0     H18027   7.024   5.533   4.388 -2.1360  3.1049 -1.7631
  137MOL0     H18028   6.892   5.508   4.284 -0.9055 -1.7445  0.3612
  137MOL0     H18029   6.975   5.330   4.513  0.6287 -0.7726 -0.8344
  137MOL0     H18030   6.826   5.314   4.416  0.9479 -0.2781 -0.2123
  137MOL0     H18031   6.865   5.561   4.603  1.4216 -0.1562 -0.7167
  137MOL0     H18032   6.818   5.405   4.663  0.6418  0.5487  0.2450
  137MOL0     H18033   6.714   5.590   4.453  2.4198 -0.5133  1.1102
  137MOL0     H18034   6.645   5.427   4.458 -0.9936 -1.7296  1.0082
  137MOL0     H18035   6.607   5.631   4.690 -4.3612  0.2858 -0.4668
  137MOL0     H18036   6.561   5.451   4.696  1.7785 -1.9619  0.4368
  137MOL0     H18037   6.350   5.672   4.732  0.5792 -1.1041 -0.1956
  137MOL0     H18038   6.068   5.656   4.654  2.8178 -3.9855 -1.2303
  137MOL0     H18039   6.049   5.694   4.490 -0.1761 -1.8546  0.3270
  137MOL0     H18040   6.156   5.911   4.531 -0.2115 -0.1494 -1.2273
  137MOL0     H18041   6.193   5.853   4.698  2.5381 -0.3311 -1.9208
  137MOL0     H18042   5.912   5.920   4.590  0.3203 -2.1019 -1.1245
  137MOL0     H18043   5.934   5.832   4.737  2.3807 -0.8961  1.4860
  137MOL0     H18044   6.023   6.125   4.666  2.5502  0.2788  0.1607
  137MOL0     H18045   6.111   6.044   4.780  1.0681  1.5901 -2.0465
  137MOL0     H18046   5.685   6.107   4.956  1.0470 -0.6419  0.4535
  137MOL0     H18047   5.633   6.340   5.062  1.2642  2.3151 -0.8077
  137MOL0     H18048   5.933   6.871   4.919 -0.1313 -1.8812 -0.3020
  137MOL0     H18049   5.966   7.086   5.018  0.7326 -0.6449 -0.3339
  137MOL0     H18050   5.857   7.295   5.067  1.2820 -2.2723 -0.8002
  137MOL0     H18051   6.021   7.250   5.124  1.2645  0.8052  2.8201
  137MOL0     H18052   6.010   7.472   5.176 -2.3022  1.0430 -0.5220
  137MOL0     H18053   5.994   7.380   5.325  2.2399 -0.5013 -1.6408
  137MOL0     H18054   5.828   7.579   5.340 -3.8938  0.4116  0.8747
  137MOL0     H18055   5.734   7.439   5.298  0.7309 -2.3019 -0.3800
  137MOL0     H18056   5.856   7.630   5.073 -1.1060 -0.6386 -1.7891
  137MOL0     H18057   5.737   7.508   5.066 -0.1578 -1.5659  2.3792
  137MOL0     H18058   5.572   7.652   5.189  0.9914 -0.2228 -0.4559
  137MOL0     H18059   5.640   7.757   5.065 -3.9531 -0.4760 -0.2948
  137MOL0     H18060   5.716   7.751   5.357  1.9576  2.5493  0.3924
  137MOL0     H18061   5.606   7.864   5.287 -0.0446 -0.8498  1.6608
  137MOL0     H18062   5.807   7.990   5.313 -1.1994  0.8908 -1.0224
  137MOL0     H18063   5.908   7.878   5.234 -0.2882  0.2205  0.7817
  137MOL0     H18064   5.767   7.944   5.022  0.6428  0.7118 -0.3575
  137MOL0     H18065   5.848   8.082   5.101  3.3131 -2.0473  0.7562
  137MOL0     H18066   5.758   6.970   5.362  0.0936  1.4745 -0.2849
  137MOL0     H18067   5.750   6.747   5.288 -2.5469  0.8166  0.3751
  137MOL0     H18068   5.986   6.484   4.860  0.1387  0.5905  0.5751
  137MOL0     H18069   6.036   6.293   4.786  0.2432 -2.2988 -0.4834
  137MOL0     H18070   7.441   5.434   4.252  1.5284  0.7445 -0.0893
  137MOL0     H18071   7.658   5.431   4.345 -0.9534  0.2700  0.4421
  137MOL0     H18072   7.958   5.196   4.599  1.1090 -2.6405  0.8137
  137MOL0     H18073   8.168   5.208   4.698  1.6597  0.2827 -0.1140
  137MOL0     H18074   8.339   5.053   4.733  1.9533 -1.4426  3.0850
  137MOL0     H18075   8.387   5.221   4.773 -1.5348 -0.8543  0.2749
  137MOL0     H18076   8.555   5.065   4.850 -0.5255 -2.2289 -0.3150
  137MOL0     H18077   8.568   4.982   4.699  0.3539  1.6798 -0.6717
  137MOL0     H18078   8.650   5.262   4.758  0.9026 -0.9215  0.9760
  137MOL0     H18079   8.667   5.181   4.598 -0.8101 -1.1910 -0.1053
  137MOL0     H18080   8.821   5.143   4.852  0.6815  2.4511 -1.1456
  137MOL0     H18081   8.818   5.012   4.727  0.7710  1.4006 -2.1511
  137MOL0     H18082   9.077   5.297   4.570  0.9084 -0.2105  1.6320
  137MOL0     H18083   8.362   5.168   4.308 -1.8033 -3.8857 -1.6954
  137MOL0     H18084   8.149   5.227   4.206  1.1253  0.1753 -0.1875
  138MOL0     O18085   7.238   5.494   2.380  0.8245  1.2203  0.6164
  138MOL0     C18086   7.245   5.556   2.477 -0.4380 -0.4385 -0.6510
  138MOL0     O18087   7.148   5.621   2.549  0.3531  0.1798 -0.1878
  138MOL0     C18088   7.024   5.624   2.486  0.1246 -0.5199  0.1570
  138MOL0     C18089   7.010   5.672   2.355  0.0999  0.4948 -0.0214
  138MOL0     C18090   6.882   5.695   2.295  0.2316  0.4517 -0.3081
  138MOL0     C18091   6.770   5.688   2.380 -0.8603  0.3322 -0.2765
  138MOL0     O18092   6.646   5.695   2.326 -0.2281 -0.5669 -0.8525
  138MOL0     C18093   6.532   5.650   2.402  0.8081  0.0224 -0.1374
  138MOL0     C18094   6.432   5.604   2.288  1.4942  0.9492 -0.4115
  138MOL0     C18095   6.291   5.569   2.336  0.5575  0.3756  0.7990
  138MOL0     C18096   6.206   5.517   2.217 -0.0440  0.0414 -0.1627
  138MOL0     C18097   6.068   5.478   2.257 -0.4753  0.0517 -0.0437
  138MOL0     C18098   6.007   5.423   2.128  0.1276 -0.2665  0.2148
  138MOL0     C18099   5.861   5.358   2.138 -0.4207 -0.9455  0.6921
  138MOL0     C18100   5.856   5.273   2.261  0.2381  0.5854  0.1159
  138MOL0     N18101   5.737   5.173   2.250 -0.2300 -0.0447 -0.1234
  138MOL0     C18102   5.645   5.158   2.356  0.7962  0.2137  0.5244
  138MOL0     C18103   5.578   5.056   2.311 -0.1629  1.1199  0.4115
  138MOL0     C18104   5.479   4.964   2.388  0.2880 -0.3912 -0.8247
  138MOL0     C18105   5.338   5.023   2.358  0.8090  0.2282 -0.1235
  138MOL0     C18106   5.319   5.151   2.444 -0.9090  0.0946  0.3016
  138MOL0     C18107   5.175   5.189   2.428 -0.3706 -0.5871 -0.7136
  138MOL0     O18108   5.106   5.195   2.556 -0.0696  0.3850  0.3860
  138MOL0     C18109   4.972   5.184   2.557 -0.2386 -0.4782 -1.1508
  138MOL0     C18110   4.916   5.137   2.682  0.5252 -0.3119  0.3772
  138MOL0     C18111   4.775   5.112   2.690  0.1843 -0.8979 -0.3692
  138MOL0     C18112   4.693   5.155   2.591  0.3431  0.0414 -0.2873
  138MOL0     C18113   4.545   5.150   2.607 -1.3611  0.9575 -0.3041
  138MOL0     O18114   4.498   5.172   2.729  0.1392 -0.4683 -0.2822
  138MOL0     C18115   4.360   5.146   2.745  0.2972  0.1253 -0.1268
  138MOL0     C18116   4.305   5.014   2.775 -0.7565  0.3357  0.9840
  138MOL0     C18117   4.170   4.992   2.818 -0.7286 -0.4708  0.0607
  138MOL0     C18118   4.099   5.106   2.853  0.5208 -0.0618  0.8600
  138MOL0     O18119   3.987   5.100   2.917  0.1555  0.2780  0.7744
  138MOL0     C18120   3.882   5.045   2.825  0.1821  0.3754 -0.2356
  138MOL0     C18121   3.843   4.901   2.867 -0.4166 -0.0744  0.1928
  138MOL0     C18122   3.706   4.872   2.811 -0.7625 -0.5169  0.0358
  138MOL0     C18123   3.671   4.723   2.855 -0.8766 -0.1746  0.1882
  138MOL0     C18124   3.526   4.687   2.824 -0.5474  0.1777 -0.1402
  138MOL0     C18125   3.486   4.543   2.853  0.7422  0.3859 -0.1851
  138MOL0     C18126   3.341   4.530   2.860  0.9909  1.1081 -0.3355
  138MOL0     C18127   3.312   4.386   2.893  0.5023 -0.4193  0.2389
  138MOL0    Cl18128   3.135   4.356   2.938  0.5753  0.0002 -0.1623
  138MOL0     C18129   4.139   5.233   2.824 -0.1263 -1.1876  0.4145
  138MOL0     C18130   4.269   5.254   2.765 -0.8250  0.8887  0.3053
  138MOL0     O18131   4.480   5.151   2.509  0.2274 -0.8086  0.5123
  138MOL0     C18132   4.748   5.196   2.464 -0.2985 -1.0763  0.2657
  138MOL0     C18133   4.887   5.209   2.448 -0.2569  0.2958 -0.0926
  138MOL0     N18134   5.630   5.008   2.192  1.0166  1.3170  0.6789
  138MOL0     N18135   5.732   5.075   2.162  0.2307  0.7684  0.6887
  138MOL0     C18136   6.783   5.648   2.511 -0.4848  0.4282 -0.4651
  138MOL0     C18137   6.911   5.618   2.564 -0.4973  0.7825  0.4805
  138MOL0     C18138   7.381   5.547   2.535  0.0508  0.1076  0.1339
  138MOL0     C18139   7.426   5.644   2.631  0.0471 -0.3068  0.3340
  138MOL0     C18140   7.555   5.635   2.683 -0.1362  0.1929  0.0295
  138MOL0     C18141   7.631   5.523   2.651  0.4678 -0.3607  0.0647
  138MOL0     O18142   7.753   5.525   2.701  0.0037  0.4158 -0.8167
  138MOL0     C18143   7.854   5.444   2.637  0.2242  0.5376  0.0158
  138MOL0     C18144   7.990   5.475   2.700  0.5664 -0.8471 -0.3237
  138MOL0     C18145   8.024   5.621   2.728 -0.1680  0.4459  0.5047
  138MOL0     C18146   8.180   5.638   2.761 -0.8603  0.6847 -0.2817
  138MOL0     C18147   8.213   5.582   2.893 -0.3028 -0.3363 -0.3994
  138MOL0     C18148   8.249   5.534   2.998  0.7141 -0.0543 -0.2806
  138MOL0     C18149   7.589   5.427   2.550  0.3172 -0.4791 -0.2506
  138MOL0     C18150   7.474   5.451   2.498  1.3663  0.7594 -0.4688
  138MOL0     H18151   7.106   5.677   2.304 -1.1389  0.7017 -2.5012
  138MOL0     H18152   6.868   5.733   2.194 -1.9121 -1.1012 -0.6547
  138MOL0     H18153   6.493   5.738   2.454  2.0142 -0.2773  1.3255
  138MOL0     H18154   6.547   5.566   2.470 -0.4353  0.7568  1.1044
  138MOL0     H18155   6.463   5.511   2.240 -3.1640 -2.1801  1.8411
  138MOL0     H18156   6.418   5.686   2.216 -1.0366  1.8518  0.9679
  138MOL0     H18157   6.250   5.663   2.373  1.2454  1.2487 -0.5547
  138MOL0     H18158   6.301   5.498   2.419  1.1122 -1.7141 -0.9627
  138MOL0     H18159   6.197   5.602   2.149  0.7980 -0.0599 -0.4166
  138MOL0     H18160   6.257   5.436   2.164 -1.1397 -0.2060 -0.8694
  138MOL0     H18161   6.009   5.557   2.305 -3.0362 -1.9120  0.2532
  138MOL0     H18162   6.080   5.399   2.332  2.0187  0.2716 -0.1308
  138MOL0     H18163   6.073   5.343   2.093  0.0938  0.0292 -0.5374
  138MOL0     H18164   6.009   5.503   2.053  1.4711 -1.4555 -1.0671
  138MOL0     H18165   5.779   5.430   2.134  1.6659  1.5394 -0.6542
  138MOL0     H18166   5.844   5.309   2.042 -0.7120  1.6537 -0.6821
  138MOL0     H18167   5.848   5.326   2.357 -0.5198  0.0209  0.3782
  138MOL0     H18168   5.944   5.209   2.261  1.7627  2.5954  0.0262
  138MOL0     H18169   5.645   5.220   2.445  0.4172 -0.8063  1.2591
  138MOL0     H18170   5.504   4.965   2.494  0.3810 -3.2321 -0.7239
  138MOL0     H18171   5.492   4.859   2.359  1.1939 -1.4413  2.8214
  138MOL0     H18172   5.265   4.947   2.387  1.6418 -1.0436 -1.2605
  138MOL0     H18173   5.326   5.044   2.251  0.2985 -4.7180 -1.2769
  138MOL0     H18174   5.340   5.132   2.550  1.8718  3.8650  0.6485
  138MOL0     H18175   5.384   5.233   2.412  0.4160 -0.6734  0.9247
  138MOL0     H18176   5.124   5.120   2.361 -3.6445  3.1851 -2.5679
  138MOL0     H18177   5.167   5.289   2.383  0.7349  1.1408  2.5286
  138MOL0     H18178   4.987   5.107   2.758  0.4352 -1.7724 -0.0878
  138MOL0     H18179   4.741   5.076   2.787 -3.0615 -0.3535 -1.1881
  138MOL0     H18180   4.368   4.927   2.767 -3.0890 -1.2662 -3.0224
  138MOL0     H18181   4.142   4.894   2.854  1.2583 -0.6732  1.1949
  138MOL0     H18182   3.912   5.046   2.720 -1.4756  0.3206 -0.7392
  138MOL0     H18183   3.795   5.111   2.822  1.1229  1.6293 -0.8855
  138MOL0     H18184   3.840   4.903   2.976 -0.9340 -0.9052  0.2027
  138MOL0     H18185   3.920   4.825   2.845  0.2900 -1.1808  5.3044
  138MOL0     H18186   3.713   4.893   2.704  2.6256 -1.2254  0.0062
  138MOL0     H18187   3.636   4.941   2.858 -0.1207  0.5368 -0.5038
  138MOL0     H18188   3.734   4.648   2.806 -3.0708 -0.4953 -2.3585
  138MOL0     H18189   3.688   4.719   2.963  1.4716  0.6178 -0.1126
  138MOL0     H18190   3.489   4.705   2.722 -2.5392  0.2439  0.5521
  138MOL0     H18191   3.468   4.744   2.897 -2.4882 -2.3689  0.4549
  138MOL0     H18192   3.529   4.541   2.953  0.2307  0.0785  0.0349
  138MOL0     H18193   3.530   4.472   2.782 -0.6991  0.0305 -0.7674
  138MOL0     H18194   3.298   4.594   2.937 -3.8656 -1.3638 -0.5697
  138MOL0     H18195   3.288   4.561   2.769 -1.7150  1.5790  1.3016
  138MOL0     H18196   3.368   4.360   2.983 -1.0066 -1.7937  0.8225
  138MOL0     H18197   3.347   4.322   2.811  0.6601 -1.2656  0.9602
  138MOL0     H18198   4.081   5.319   2.854  3.7222  2.1852 -1.0246
  138MOL0     H18199   4.303   5.354   2.740 -0.7068  0.6310 -0.6101
  138MOL0     H18200   4.678   5.213   2.383 -1.1933  2.7946  1.6108
  138MOL0     H18201   4.933   5.232   2.352  3.5567 -3.3119  0.5495
  138MOL0     H18202   6.700   5.638   2.581  2.1830 -1.1493  2.8199
  138MOL0     H18203   6.933   5.594   2.667 -0.7817  0.8882  0.5665
  138MOL0     H18204   7.370   5.734   2.657  1.7787  1.3336 -1.2150
  138MOL0     H18205   7.598   5.710   2.747  0.6271  0.2359 -0.5244
  138MOL0     H18206   7.859   5.470   2.531  2.0085 -1.0807 -0.3563
  138MOL0     H18207   7.836   5.337   2.653 -0.9164  1.0830  3.2472
  138MOL0     H18208   7.995   5.412   2.789 -1.9563 -4.8953 -2.7392
  138MOL0     H18209   8.060   5.433   2.626 -1.3181 -2.8718 -1.0689
  138MOL0     H18210   7.966   5.652   2.815  1.8185 -1.0541  2.4823
  138MOL0     H18211   7.996   5.681   2.641  0.7143  1.2442  0.7649
  138MOL0     H18212   8.234   5.582   2.684 -0.8510  0.5894 -0.2059
  138MOL0     H18213   8.200   5.745   2.771 -0.6245  0.5992  0.1669
  138MOL0     H18214   8.267   5.508   3.101  0.8498  1.1910  0.0215
  138MOL0     H18215   7.644   5.348   2.501  1.5063 -0.1215  0.4847
  138MOL0     H18216   7.449   5.376   2.423 -1.0412  2.3056 -1.3555
  139MOL0     O18217   0.479   3.899   6.644 -0.8235 -0.3315  0.5929
  139MOL0     C18218   0.545   4.003   6.645  0.7043 -0.1129  1.0250
  139MOL0     O18219   0.532   4.111   6.731  0.4817 -0.2408  0.3356
  139MOL0     C18220   0.421   4.126   6.803  0.6808 -0.5196 -0.4615
  139MOL0     C18221   0.314   4.189   6.748 -0.7523 -0.0942  0.0093
  139MOL0     C18222   0.208   4.231   6.832 -0.2325 -0.2613 -0.5465
  139MOL0     C18223   0.209   4.202   6.974 -1.5066 -0.1159 -0.3656
  139MOL0     O18224   0.108   4.229   7.064  0.7597 -0.3249  0.3054
  139MOL0     C18225   0.018   4.338   7.023 -0.1906 -0.0499  0.0339
  139MOL0     C18226  -0.078   4.356   7.138  0.2578  0.4385 -0.0388
  139MOL0     C18227  -0.135   4.504   7.142  0.1283  0.5055  0.9074
  139MOL0     C18228  -0.262   4.494   7.235 -0.6761 -0.0431 -0.1895
  139MOL0     C18229  -0.313   4.624   7.284  0.3492 -0.0874 -0.9708
  139MOL0     C18230  -0.402   4.706   7.191  0.5634 -0.0911 -0.8299
  139MOL0     C18231  -0.479   4.820   7.261  0.1463 -0.1159  0.6579
  139MOL0     C18232  -0.551   4.905   7.163  0.2524 -0.0679 -0.5573
  139MOL0     N18233  -0.489   4.941   7.036  0.3061  0.3421  0.2576
  139MOL0     C18234  -0.424   5.052   7.017 -0.0503  0.2666  0.3527
  139MOL0     C18235  -0.374   5.040   6.894  0.5485 -0.2514 -0.4348
  139MOL0     C18236  -0.321   5.152   6.817  1.2252  0.3930 -0.7547
  139MOL0     C18237  -0.175   5.163   6.820 -0.1742 -0.0054  0.2437
  139MOL0     C18238  -0.124   5.297   6.766  0.5508  0.2277  0.3666
  139MOL0     C18239   0.027   5.323   6.755 -0.2321  0.8305  0.3853
  139MOL0     O18240   0.044   5.442   6.680  0.3705  0.0589  0.3205
  139MOL0     C18241   0.173   5.453   6.633  0.9553 -0.4071 -0.6382
  139MOL0     C18242   0.186   5.426   6.496 -0.4037 -0.4296 -0.8301
  139MOL0     C18243   0.309   5.467   6.429  0.7766 -0.2456  0.9737
  139MOL0     C18244   0.425   5.495   6.500  1.2071  1.0235  0.9762
  139MOL0     C18245   0.549   5.519   6.432  0.0873  0.2344 -0.7031
  139MOL0     O18246   0.558   5.470   6.303  0.5889 -0.4054 -0.2402
  139MOL0     C18247   0.679   5.465   6.240 -0.7279  0.6323 -0.9865
  139MOL0     C18248   0.731   5.340   6.217  0.3988 -0.0526  0.0913
  139MOL0     C18249   0.868   5.319   6.174  0.9446  0.5711 -0.0253
  139MOL0     C18250   0.939   5.442   6.145  0.0011  0.3229  0.5438
  139MOL0     O18251   1.064   5.418   6.086  0.3295  0.1203 -0.8550
  139MOL0     C18252   1.142   5.532   6.036 -0.7103  0.4339  0.2347
  139MOL0     C18253   1.256   5.483   5.954  1.3787  0.0634  0.4387
  139MOL0     C18254   1.321   5.353   6.009  0.6859  0.0922  0.1424
  139MOL0     C18255   1.465   5.342   5.946  0.3505 -0.1280 -0.7660
  139MOL0     C18256   1.548   5.226   6.015  1.0909 -0.7074  0.6345
  139MOL0     C18257   1.659   5.160   5.924  0.0120  0.5853 -0.2828
  139MOL0     C18258   1.760   5.085   6.010  0.0195 -0.1198  1.2914
  139MOL0     C18259   1.873   5.014   5.936  0.1798  0.6585  0.1883
  139MOL0    Cl18260   1.812   4.927   5.794  0.0316  0.1598  0.1518
  139MOL0     C18261   0.887   5.567   6.179  0.0407  0.5296  1.4477
  139MOL0     C18262   0.757   5.582   6.229  0.2702  0.1588  0.3021
  139MOL0     O18263   0.631   5.587   6.495 -0.1824 -0.4650  0.6128
  139MOL0     C18264   0.411   5.505   6.644 -0.3570 -0.0806  0.1908
  139MOL0     C18265   0.286   5.484   6.706  1.0884 -0.6264 -0.8817
  139MOL0     N18266  -0.397   4.912   6.850  0.1357 -0.5724 -0.0590
  139MOL0     N18267  -0.464   4.850   6.944 -0.0563 -0.3323 -0.1863
  139MOL0     C18268   0.318   4.126   7.020 -0.4896  0.6572 -0.3020
  139MOL0     C18269   0.421   4.089   6.937  1.6303  0.7535 -0.0634
  139MOL0     C18270   0.668   4.008   6.556 -0.7491  0.1517 -0.8138
  139MOL0     C18271   0.740   3.908   6.504 -0.2855  0.0687 -0.0738
  139MOL0     C18272   0.855   3.924   6.428  0.5748  0.7130  0.9142
  139MOL0     C18273   0.897   4.043   6.392 -0.7159  0.5469  0.5636
  139MOL0     O18274   1.001   4.057   6.305 -0.3836 -0.5550  0.0650
  139MOL0     C18275   1.063   3.939   6.250 -0.3307 -0.3237  0.3640
  139MOL0     C18276   1.168   3.982   6.134  0.3438  0.2307 -0.4850
  139MOL0     C18277   1.248   3.867   6.071  0.9585  0.0679  0.8554
  139MOL0     C18278   1.399   3.876   6.060  0.4614  0.3872  0.6339
  139MOL0     C18279   1.440   3.739   6.023  0.0019 -0.3688  0.9360
  139MOL0     C18280   1.487   3.630   6.003  0.5990 -0.8307 -0.6513
  139MOL0     C18281   0.831   4.155   6.440  1.4772 -0.0466 -0.5977
  139MOL0     C18282   0.718   4.134   6.523 -0.2142  0.4628 -0.2844
  139MOL0     H18283   0.320   4.215   6.643 -0.3649  3.3623  0.7623
  139MOL0     H18284   0.122   4.277   6.785 -2.0838 -3.4108 -0.4572
  139MOL0     H18285  -0.045   4.328   6.935 -1.4696 -0.8092  0.9986
  139MOL0     H18286   0.077   4.429   7.013  0.6468 -0.1047  3.3218
  139MOL0     H18287  -0.039   4.336   7.238  1.3057  1.7717 -0.1472
  139MOL0     H18288  -0.153   4.278   7.122  2.7962 -1.7426 -2.0106
  139MOL0     H18289  -0.151   4.533   7.038  2.3350  0.7208  0.5617
  139MOL0     H18290  -0.063   4.576   7.184 -1.8162  2.2120  1.4550
  139MOL0     H18291  -0.341   4.443   7.179 -0.7513 -2.4428  1.8938
  139MOL0     H18292  -0.238   4.423   7.315  0.4149  0.4655 -0.0542
  139MOL0     H18293  -0.234   4.675   7.341 -0.2024 -0.3203  0.0376
  139MOL0     H18294  -0.388   4.599   7.360  1.3757  0.2595  0.1965
  139MOL0     H18295  -0.467   4.629   7.149 -0.3684  0.4050 -0.3381
  139MOL0     H18296  -0.338   4.750   7.114  2.8509  1.4902  1.7906
  139MOL0     H18297  -0.542   4.775   7.338 -0.4942  0.6964  0.6258
  139MOL0     H18298  -0.403   4.876   7.315  1.9270 -2.0903  0.3193
  139MOL0     H18299  -0.577   4.992   7.225 -1.1883  1.5166 -3.2069
  139MOL0     H18300  -0.641   4.848   7.137  0.7545 -1.5271  0.7530
  139MOL0     H18301  -0.430   5.141   7.080 -0.2282 -1.6004  3.1240
  139MOL0     H18302  -0.367   5.238   6.867  2.1180 -1.2386  3.2715
  139MOL0     H18303  -0.362   5.142   6.716 -0.3069 -0.7832 -0.0437
  139MOL0     H18304  -0.133   5.081   6.761 -0.2143 -0.0714  0.3066
  139MOL0     H18305  -0.145   5.159   6.925 -0.7240 -0.9405  0.3764
  139MOL0     H18306  -0.169   5.312   6.668  3.2478  1.9046 -0.7175
  139MOL0     H18307  -0.155   5.370   6.841  0.0074 -0.6999  1.0818
  139MOL0     H18308   0.086   5.241   6.711  3.0921  3.2467 -0.0541
  139MOL0     H18309   0.069   5.331   6.856 -0.8399 -0.8819  0.8063
  139MOL0     H18310   0.097   5.400   6.440 -0.4955  0.4235 -1.0938
  139MOL0     H18311   0.310   5.459   6.320 -2.7137 -0.8056  0.8660
  139MOL0     H18312   0.670   5.251   6.224  1.0247 -0.5064 -0.1531
  139MOL0     H18313   0.911   5.226   6.140  3.2857  0.4480  2.8773
  139MOL0     H18314   1.198   5.586   6.112  1.9477  0.6686 -1.7615
  139MOL0     H18315   1.076   5.612   6.000 -0.8969  0.7475  1.2386
  139MOL0     H18316   1.333   5.559   5.943 -0.0328  1.3187 -1.4421
  139MOL0     H18317   1.218   5.465   5.853 -0.1397 -1.7019  1.2383
  139MOL0     H18318   1.257   5.267   5.985 -0.2357  0.7908  0.0057
  139MOL0     H18319   1.324   5.361   6.118  1.7261  0.9454  0.0572
  139MOL0     H18320   1.452   5.308   5.842  0.4720 -3.9141  0.3164
  139MOL0     H18321   1.520   5.436   5.954  0.4741 -0.4017  3.8000
  139MOL0     H18322   1.479   5.146   6.042 -0.6742  0.0938 -1.1951
  139MOL0     H18323   1.593   5.270   6.104  1.6905 -4.0039  2.0892
  139MOL0     H18324   1.709   5.232   5.858  1.0158 -0.1614 -0.3635
  139MOL0     H18325   1.606   5.101   5.848 -0.0744 -0.0186  0.2340
  139MOL0     H18326   1.806   5.155   6.081  1.6538 -0.4632  0.6265
  139MOL0     H18327   1.712   5.010   6.073  2.0209 -2.7935 -0.1982
  139MOL0     H18328   1.927   4.952   6.009  1.5160 -0.1396 -1.4247
  139MOL0     H18329   1.951   5.083   5.904  1.4363  1.6822  4.7677
  139MOL0     H18330   0.932   5.664   6.158 -1.7590  0.7996 -1.8362
  139MOL0     H18331   0.718   5.672   6.276 -0.9518 -0.0203 -0.3424
  139MOL0     H18332   0.501   5.525   6.701  1.6794 -1.5350 -2.2787
  139MOL0     H18333   0.275   5.485   6.814 -1.1587 -2.1709 -1.0409
  139MOL0     H18334   0.329   4.112   7.127  1.6373 -0.2536 -0.5783
  139MOL0     H18335   0.502   4.035   6.986  2.1567 -0.2143 -1.9018
  139MOL0     H18336   0.698   3.814   6.538  3.6718 -2.0084 -0.3447
  139MOL0     H18337   0.895   3.835   6.380  0.6059 -0.1858  2.5206
  139MOL0     H18338   0.986   3.882   6.197 -0.0347 -1.3627  1.0308
  139MOL0     H18339   1.105   3.877   6.329 -1.0765 -0.4527  0.6645
  139MOL0     H18340   1.105   4.021   6.054 -0.1787  1.5633  0.5399
  139MOL0     H18341   1.241   4.058   6.165  1.5405 -0.8026 -0.6614
  139MOL0     H18342   1.212   3.855   5.969  0.6274  1.2220  0.8162
  139MOL0     H18343   1.214   3.770   6.108 -1.3362  0.2300 -0.6465
  139MOL0     H18344   1.431   3.951   5.987  2.1684 -2.2793 -1.5399
  139MOL0     H18345   1.439   3.892   6.161  1.9584 -0.1820  0.1515
  139MOL0     H18346   1.519   3.529   5.988 -0.1186 -1.0198 -0.9673
  139MOL0     H18347   0.871   4.256   6.433  2.5672 -0.2538  1.5891
  139MOL0     H18348   0.665   4.217   6.568  2.0881 -0.5915  5.2979
  140MOL0     O18349   8.153   8.979   8.057 -0.2155  0.2649 -0.0055
  140MOL0     C18350   8.199   9.010   8.165 -0.2262  0.0608 -0.9909
  140MOL0     O18351   8.284   9.110   8.187 -0.1903  0.0847  0.1166
  140MOL0     C18352   8.343   9.181   8.080 -0.3915  0.4722 -0.1148
  140MOL0     C18353   8.417   9.108   7.991  0.3075 -0.0905 -0.7906
  140MOL0     C18354   8.480   9.180   7.891  1.1534 -0.3533 -0.0143
  140MOL0     C18355   8.453   9.314   7.864 -0.0075 -0.4085  0.4914
  140MOL0     O18356   8.498   9.371   7.746 -1.0168 -0.3340 -1.0107
  140MOL0     C18357   8.523   9.510   7.753 -0.0935  0.8845 -0.7292
  140MOL0     C18358   8.635   9.536   7.649  0.1123 -0.1615  0.5878
  140MOL0     C18359   8.633   9.680   7.616  0.7766  0.1027  0.2210
  140MOL0     C18360   8.720   9.725   7.497 -0.3568 -0.2520 -0.4140
  140MOL0     C18361   8.716   9.879   7.474  0.4163 -0.3087 -0.4790
  140MOL0     C18362   8.840   9.923   7.388 -0.2550 -0.5936 -0.2611
  140MOL0     C18363   8.980   9.928   7.468 -0.0866 -0.3044 -0.5467
  140MOL0     C18364   9.099   9.976   7.389  0.2674 -0.3991 -0.2482
  140MOL0     N18365   9.078  10.106   7.333 -0.1213 -0.3518  0.0726
  140MOL0     C18366   9.024  10.224   7.394 -0.3358  0.2690  0.0527
  140MOL0     C18367   9.024  10.322   7.301  1.0611  0.0222  0.1793
  140MOL0     C18368   8.991  10.466   7.318  0.2013  0.2176  0.0030
  140MOL0     C18369   9.110  10.559   7.279 -0.4957 -0.1680 -0.0130
  140MOL0     C18370   9.244  10.526   7.336  0.0873  0.0337  0.1808
  140MOL0     C18371   9.345  10.634   7.306  0.3951  0.2095 -0.0691
  140MOL0     O18372   9.481  10.610   7.351 -0.6095  0.5117  0.1198
  140MOL0     C18373   9.577  10.714   7.348 -0.3648  0.0873  0.3096
  140MOL0     C18374   9.576  10.818   7.253  0.3979 -1.0611  0.4180
  140MOL0     C18375   9.652  10.935   7.272 -0.7346 -0.3779  0.0047
  140MOL0     C18376   9.729  10.950   7.387 -0.5445 -0.2031 -0.4445
  140MOL0     C18377   9.808  11.068   7.410  0.6750  0.6678 -0.7501
  140MOL0     O18378   9.864  11.083   7.537  0.3652  0.1481  0.8029
  140MOL0     C18379   9.957  11.174   7.544 -1.4184 -0.9253 -0.4164
  140MOL0     C18380  10.061  11.195   7.446  0.2732  0.0972 -0.3286
  140MOL0     C18381  10.169  11.288   7.469  0.9050  0.9719  0.0714
  140MOL0     C18382  10.177  11.358   7.586 -0.5354  0.0622  0.1691
  140MOL0     O18383  10.301  11.428   7.602 -0.6530 -0.2720  0.4031
  140MOL0     C18384  10.377  11.398   7.721  0.5991  0.2227 -0.1299
  140MOL0     C18385  10.441  11.513   7.784 -0.1682 -1.2097 -1.0926
  140MOL0     C18386  10.481  11.482   7.926  0.1085  1.3327 -0.2105
  140MOL0     C18387  10.561  11.597   7.986  0.1714 -0.3831  0.3238
  140MOL0     C18388  10.600  11.547   8.126 -0.2695  0.0758  0.2820
  140MOL0     C18389  10.691  11.641   8.195 -0.4278 -0.2362  0.0992
  140MOL0     C18390  10.829  11.683   8.132  0.0872  0.3620  0.2168
  140MOL0     C18391  10.908  11.733   8.245  0.0895  0.7539  1.4343
  140MOL0    Cl18392  10.949  11.596   8.370 -0.3034  0.2046  0.1854
  140MOL0     C18393  10.082  11.333   7.682 -0.5653 -0.4667  0.6685
  140MOL0     C18394   9.975  11.245   7.664  0.6784  0.3694  0.0084
  140MOL0     O18395   9.806  11.145   7.317 -0.2167 -0.8485 -0.4765
  140MOL0     C18396   9.733  10.848   7.477 -0.2866  0.0667  0.1184
  140MOL0     C18397   9.661  10.726   7.458 -0.3836 -0.2910  1.1941
  140MOL0     N18398   9.058  10.266   7.188  0.5891  1.2690 -0.1617
  140MOL0     N18399   9.089  10.142   7.198  0.5556 -1.1115  0.0945
  140MOL0     C18400   8.364   9.375   7.944 -0.2265 -1.6305  0.2061
  140MOL0     C18401   8.300   9.308   8.049  0.2182 -0.8748  0.1876
  140MOL0     C18402   8.155   8.952   8.294 -0.0636 -0.0941 -0.4112
  140MOL0     C18403   8.034   8.882   8.302 -0.7629  0.0946 -0.4268
  140MOL0     C18404   7.982   8.849   8.424  0.0118  0.2059 -0.5000
  140MOL0     C18405   8.051   8.878   8.539 -0.2975 -0.9365 -0.0923
  140MOL0     O18406   8.003   8.863   8.672  0.5252 -0.5455  0.2809
  140MOL0     C18407   7.889   8.789   8.695  0.1710 -0.9295  1.2429
  140MOL0     C18408   7.876   8.743   8.839  0.6471 -0.0443 -0.3329
  140MOL0     C18409   7.795   8.841   8.925 -0.0563 -0.2278 -0.0501
  140MOL0     C18410   7.797   8.780   9.064 -0.6926  0.6679 -0.1426
  140MOL0     C18411   7.735   8.887   9.153 -1.4560  0.1920 -0.8514
  140MOL0     C18412   7.690   8.983   9.213  0.7327  0.9738  0.5975
  140MOL0     C18413   8.173   8.949   8.538 -0.7382  0.3246 -0.1954
  140MOL0     C18414   8.230   8.966   8.414  0.2907 -0.1119  0.3402
  140MOL0     H18415   8.424   9.001   8.011 -1.6230  0.2997  2.7871
  140MOL0     H18416   8.551   9.126   7.829  1.9616 -0.4127  0.9320
  140MOL0     H18417   8.555   9.538   7.854  1.4479 -4.3651  0.5819
  140MOL0     H18418   8.435   9.564   7.718 -0.9073 -2.4299 -4.5538
  140MOL0     H18419   8.620   9.484   7.554 -0.1326 -2.5014  1.8296
  140MOL0     H18420   8.738   9.513   7.678  0.7496  3.5900  1.9437
  140MOL0     H18421   8.684   9.726   7.700  1.2525  3.8032 -1.8806
  140MOL0     H18422   8.531   9.720   7.608  1.1620  1.0839  0.1773
  140MOL0     H18423   8.821   9.698   7.527 -0.4772  1.1790  1.3986
  140MOL0     H18424   8.691   9.677   7.403  2.1387 -2.9517  0.0816
  140MOL0     H18425   8.712   9.923   7.574  0.2321  0.6930 -0.9036
  140MOL0     H18426   8.631   9.910   7.411  1.8210  0.1725 -2.2180
  140MOL0     H18427   8.829  10.030   7.368  3.1455 -0.0289  0.2545
  140MOL0     H18428   8.853   9.859   7.300 -2.8268 -0.4551 -0.8386
  140MOL0     H18429   8.955   9.992   7.553 -0.9682 -0.5678 -0.6019
  140MOL0     H18430   9.005   9.827   7.505  3.5851  0.2082 -1.2168
  140MOL0     H18431   9.116   9.909   7.303  3.9974  0.0965 -0.0805
  140MOL0     H18432   9.185   9.976   7.456  0.7574  0.6411 -0.8488
  140MOL0     H18433   9.003  10.223   7.501 -0.1747 -1.0601  0.0991
  140MOL0     H18434   8.976  10.477   7.426 -0.9540 -2.7121  0.2282
  140MOL0     H18435   8.898  10.497   7.269 -1.2643 -1.5720  1.5143
  140MOL0     H18436   9.081  10.662   7.302  3.5648  1.9591 -3.1870
  140MOL0     H18437   9.130  10.534   7.175  0.5028 -1.9307  0.5660
  140MOL0     H18438   9.239  10.514   7.444  0.1584  0.5287  0.2416
  140MOL0     H18439   9.284  10.429   7.305 -0.7154  0.2004 -1.4928
  140MOL0     H18440   9.303  10.720   7.360 -2.7198 -0.4658 -1.1802
  140MOL0     H18441   9.333  10.656   7.199 -0.6701  1.9852  0.3821
  140MOL0     H18442   9.518  10.802   7.162  1.0302 -1.8225  0.1425
  140MOL0     H18443   9.650  11.016   7.201 -3.2563 -1.1725 -0.9571
  140MOL0     H18444  10.067  11.124   7.364  1.2934 -0.3197  0.0849
  140MOL0     H18445  10.233  11.305   7.383  0.6061 -3.3616 -1.2498
  140MOL0     H18446  10.454  11.326   7.692 -1.3898 -1.8290 -0.6219
  140MOL0     H18447  10.308  11.354   7.793  1.4722 -0.7441  0.1314
  140MOL0     H18448  10.359  11.585   7.780  0.5433 -0.3772 -1.1874
  140MOL0     H18449  10.526  11.541   7.721  2.1173 -0.7386  1.9626
  140MOL0     H18450  10.528  11.384   7.935 -1.0018  0.7986 -0.0749
  140MOL0     H18451  10.384  11.463   7.973  0.2512 -2.6394 -1.2414
  140MOL0     H18452  10.646  11.616   7.920 -1.9332 -0.2779 -2.5432
  140MOL0     H18453  10.496  11.686   7.983  3.0753  1.8795 -2.1736
  140MOL0     H18454  10.649  11.449   8.126 -0.3874 -0.0261  2.2920
  140MOL0     H18455  10.504  11.530   8.175 -0.2630  0.8556  0.5734
  140MOL0     H18456  10.699  11.599   8.295  0.5651 -4.1702 -1.4484
  140MOL0     H18457  10.642  11.739   8.204 -2.0209 -1.0253  0.4227
  140MOL0     H18458  10.874  11.602   8.075 -0.1853 -0.5232  1.2322
  140MOL0     H18459  10.817  11.767   8.063  2.4844  0.5697 -0.0415
  140MOL0     H18460  10.849  11.810   8.294  1.3329  2.4444  0.3665
  140MOL0     H18461  11.004  11.771   8.209  0.2671  2.0437  3.1255
  140MOL0     H18462  10.084  11.374   7.782 -1.5405 -1.5689  1.1673
  140MOL0     H18463   9.902  11.224   7.742  1.0884  1.6157  0.7666
  140MOL0     H18464   9.794  10.861   7.566 -0.8530 -0.5226  0.6055
  140MOL0     H18465   9.662  10.641   7.526  0.1418  0.6142  2.3452
  140MOL0     H18466   8.327   9.474   7.920 -2.7248 -2.7191 -0.8246
  140MOL0     H18467   8.215   9.353   8.099  2.4906  0.4852  3.1096
  140MOL0     H18468   7.975   8.856   8.214 -0.5280 -0.7525 -0.3385
  140MOL0     H18469   7.886   8.799   8.419  0.6618 -1.1378 -0.0223
  140MOL0     H18470   7.884   8.699   8.633 -2.0321  0.7070 -1.2094
  140MOL0     H18471   7.799   8.846   8.672  0.5500 -0.1918  1.5565
  140MOL0     H18472   7.817   8.652   8.856  2.4460 -0.6033  4.9171
  140MOL0     H18473   7.976   8.721   8.876  0.8767 -2.4773 -2.1688
  140MOL0     H18474   7.689   8.843   8.897 -1.6912  1.2154  5.1605
  140MOL0     H18475   7.830   8.944   8.913 -1.9218  0.6141  1.1625
  140MOL0     H18476   7.733   8.691   9.070  1.8399 -1.2681  0.5255
  140MOL0     H18477   7.900   8.758   9.096 -1.8574 -2.7804  1.7877
  140MOL0     H18478   7.674   9.070   9.275  2.0820 -0.6325  3.4015
  140MOL0     H18479   8.223   8.977   8.630  0.9086 -2.4229 -0.1473
  140MOL0     H18480   8.332   9.001   8.410 -0.7032  2.8594 -1.6821
  141MOL0     O18481   8.601   2.915   7.224 -0.2070 -0.3264 -0.2088
  141MOL0     C18482   8.507   2.933   7.292  0.6720  0.1761  0.4378
  141MOL0     O18483   8.468   3.051   7.342  0.4014  0.8110  0.7089
  141MOL0     C18484   8.543   3.160   7.302  0.3082 -0.2878  0.8717
  141MOL0     C18485   8.655   3.199   7.376 -0.2824 -0.1096  0.5305
  141MOL0     C18486   8.738   3.299   7.314  0.1696  0.0849 -0.5858
  141MOL0     C18487   8.698   3.369   7.200  0.8246 -0.2095  0.1346
  141MOL0     O18488   8.784   3.462   7.135  0.3746  0.2950 -0.0877
  141MOL0     C18489   8.878   3.540   7.208 -0.2734  0.2682  0.2029
  141MOL0     C18490   8.926   3.660   7.129 -0.2690  0.0120  0.3262
  141MOL0     C18491   9.001   3.625   7.002  0.2999 -0.4952  0.0239
  141MOL0     C18492   9.134   3.711   6.989  0.0575 -0.6479 -0.3460
  141MOL0     C18493   9.222   3.665   6.866 -0.0306 -1.1637  0.1719
  141MOL0     C18494   9.359   3.746   6.848  0.0106  0.2250  0.0265
  141MOL0     C18495   9.369   3.794   6.709  0.0248  0.1113 -0.9703
  141MOL0     C18496   9.419   3.930   6.705  0.1009  0.1129 -0.2878
  141MOL0     N18497   9.486   3.964   6.572 -0.4865  0.0018 -0.2158
  141MOL0     C18498   9.603   3.905   6.524  0.0425  0.4211  0.0359
  141MOL0     C18499   9.605   3.943   6.391  0.7111 -0.0546  0.2235
  141MOL0     C18500   9.706   3.920   6.283 -0.8111  0.3888  0.6854
  141MOL0     C18501   9.645   3.855   6.156  0.6567 -0.1427  0.8119
  141MOL0     C18502   9.583   3.722   6.186 -0.5863  0.0557  0.5876
  141MOL0     C18503   9.433   3.721   6.207  0.8445  0.5263 -1.0182
  141MOL0     O18504   9.382   3.589   6.202 -0.1548  0.1879  0.3195
  141MOL0     C18505   9.256   3.563   6.238  0.7374 -0.2924  0.6165
  141MOL0     C18506   9.210   3.439   6.222 -1.5513 -0.3692 -0.7464
  141MOL0     C18507   9.070   3.404   6.242 -0.4372 -0.2508 -0.2662
  141MOL0     C18508   8.970   3.502   6.266  0.5733  0.7781  0.3721
  141MOL0     C18509   8.831   3.463   6.281 -0.5977 -0.4066 -0.6320
  141MOL0     O18510   8.742   3.570   6.330 -0.1687  0.0179 -0.3762
  141MOL0     C18511   8.608   3.548   6.336 -0.2780 -1.2909  0.7695
  141MOL0     C18512   8.546   3.430   6.393  0.9399  0.4660 -0.2299
  141MOL0     C18513   8.399   3.424   6.393 -0.8772  0.2092  0.8254
  141MOL0     C18514   8.321   3.533   6.358 -0.5045  0.0164 -0.9207
  141MOL0     O18515   8.182   3.527   6.343 -0.3647 -0.3740  0.7038
  141MOL0     C18516   8.107   3.462   6.436  1.0417  0.8604 -0.8391
  141MOL0     C18517   7.970   3.518   6.406 -0.0190 -1.0531 -0.4937
  141MOL0     C18518   7.923   3.500   6.257 -0.0921  0.1954 -0.1594
  141MOL0     C18519   7.773   3.528   6.242  0.3681 -0.3272  1.1542
  141MOL0     C18520   7.710   3.512   6.103 -0.4965 -0.0839 -1.1198
  141MOL0     C18521   7.616   3.624   6.054  0.2738 -0.9343  1.0276
  141MOL0     C18522   7.578   3.595   5.909 -0.3503 -1.1884 -0.0145
  141MOL0     C18523   7.477   3.481   5.893 -0.1217 -0.2836  0.4971
  141MOL0    Cl18524   7.339   3.497   6.011  0.5108 -0.1631  0.5012
  141MOL0     C18525   8.385   3.651   6.325 -1.0022 -0.3534  0.1656
  141MOL0     C18526   8.525   3.663   6.309  0.6792  0.4948  0.0565
  141MOL0     O18527   8.805   3.347   6.261  0.1660  0.7063 -0.4954
  141MOL0     C18528   9.018   3.635   6.260 -0.2067 -0.9345 -0.0766
  141MOL0     C18529   9.157   3.665   6.258  0.1398  0.9495 -0.3270
  141MOL0     N18530   9.485   4.014   6.368  0.8273  0.8753 -0.0473
  141MOL0     N18531   9.409   4.024   6.477  0.1958  0.0780  0.5675
  141MOL0     C18532   8.585   3.320   7.130 -0.1463 -0.6725  1.1706
  141MOL0     C18533   8.520   3.208   7.176 -0.2158  0.6918 -0.2708
  141MOL0     C18534   8.428   2.812   7.346 -0.0765  0.3344  0.5052
  141MOL0     C18535   8.306   2.813   7.417  0.1046 -1.2331  0.9262
  141MOL0     C18536   8.225   2.700   7.440 -0.1310  0.2892 -0.5550
  141MOL0     C18537   8.292   2.572   7.436 -0.4518 -0.0861 -0.4448
  141MOL0     O18538   8.234   2.460   7.485 -0.0488 -0.1885 -0.1065
  141MOL0     C18539   8.261   2.440   7.628 -0.1913 -0.3310 -0.1949
  141MOL0     C18540   8.218   2.305   7.681 -0.2797 -0.3412  0.5061
  141MOL0     C18541   8.072   2.276   7.701 -0.5015  0.1072  1.1903
  141MOL0     C18542   7.976   2.316   7.584  0.6917 -1.1883  0.1118
  141MOL0     C18543   7.832   2.316   7.629 -0.5395  0.6501 -1.7044
  141MOL0     C18544   7.719   2.329   7.675  0.1119  0.1678 -0.6518
  141MOL0     C18545   8.415   2.555   7.386  0.3403 -1.1918  0.3803
  141MOL0     C18546   8.484   2.676   7.337  1.2234 -0.2421 -0.4110
  141MOL0     H18547   8.665   3.153   7.474 -1.9651 -0.4293  0.5795
  141MOL0     H18548   8.826   3.324   7.372  1.2862 -1.7107 -1.4437
  141MOL0     H18549   8.964   3.478   7.236  0.3150  1.5232  1.2922
  141MOL0     H18550   8.836   3.586   7.298  2.3138  0.5460  1.3487
  141MOL0     H18551   8.989   3.721   7.194 -1.9178  1.8443  0.2846
  141MOL0     H18552   8.841   3.728   7.119 -0.8688 -0.7214  0.3642
  141MOL0     H18553   8.941   3.665   6.919 -1.2827  1.8971  2.1517
  141MOL0     H18554   9.025   3.520   6.987 -0.1453 -0.5722 -0.1888
  141MOL0     H18555   9.104   3.816   6.993 -1.0410 -0.9365  4.4752
  141MOL0     H18556   9.186   3.691   7.083  2.0213 -1.4756 -1.5456
  141MOL0     H18557   9.155   3.686   6.782 -0.1599 -0.8620  0.3508
  141MOL0     H18558   9.240   3.557   6.865  0.0484 -1.2028 -2.8514
  141MOL0     H18559   9.448   3.692   6.883 -1.0464 -2.9220 -1.7942
  141MOL0     H18560   9.342   3.841   6.900  1.1467  1.5003 -1.8166
  141MOL0     H18561   9.446   3.729   6.665  0.5830  1.0409 -1.3973
  141MOL0     H18562   9.283   3.794   6.641  2.3989 -0.1366 -4.2750
  141MOL0     H18563   9.488   3.936   6.790 -2.0164 -3.0630  1.8776
  141MOL0     H18564   9.338   4.002   6.720  0.8591  0.8000  0.6459
  141MOL0     H18565   9.682   3.860   6.583  1.4188  1.4712 -0.9467
  141MOL0     H18566   9.789   3.860   6.322  0.6296  1.2545 -0.9121
  141MOL0     H18567   9.746   4.014   6.243  3.7375 -2.0372 -1.1559
  141MOL0     H18568   9.728   3.835   6.088 -0.4927 -0.9224 -0.4330
  141MOL0     H18569   9.580   3.924   6.100  0.3657 -1.1448 -0.1144
  141MOL0     H18570   9.617   3.654   6.107 -1.7455 -0.5260  0.5705
  141MOL0     H18571   9.629   3.675   6.273 -0.4220 -0.2753  0.3228
  141MOL0     H18572   9.374   3.770   6.128 -3.1370 -0.6424  0.9629
  141MOL0     H18573   9.405   3.786   6.291 -2.6099  1.1814 -2.4885
  141MOL0     H18574   9.290   3.367   6.211 -0.2012  0.3181  2.9358
  141MOL0     H18575   9.051   3.297   6.239 -0.6105 -0.1998 -1.2912
  141MOL0     H18576   8.606   3.347   6.431  2.2089  0.0851 -2.7746
  141MOL0     H18577   8.355   3.332   6.429 -1.3573  0.9415  2.1749
  141MOL0     H18578   8.132   3.489   6.539  1.3085 -2.0510 -0.0531
  141MOL0     H18579   8.107   3.353   6.431  2.9284  0.8887 -2.7730
  141MOL0     H18580   7.956   3.623   6.434 -1.1304 -2.0575  3.2263
  141MOL0     H18581   7.898   3.454   6.458 -1.6234  1.0899  0.0632
  141MOL0     H18582   7.941   3.395   6.232 -1.4301 -1.1463  3.7803
  141MOL0     H18583   7.984   3.550   6.181  0.8085  1.8291  1.5363
  141MOL0     H18584   7.716   3.468   6.313  1.6908  0.0110  2.5671
  141MOL0     H18585   7.751   3.631   6.267 -1.7179 -1.0157  2.3588
  141MOL0     H18586   7.645   3.425   6.115 -1.3774  0.8174  1.0592
  141MOL0     H18587   7.790   3.497   6.030  0.9119 -1.0210  0.5622
  141MOL0     H18588   7.671   3.718   6.060 -1.1498 -0.0875  1.3897
  141MOL0     H18589   7.526   3.633   6.116  0.0894  0.4750  0.5875
  141MOL0     H18590   7.535   3.690   5.875  3.7140  0.9373  0.1814
  141MOL0     H18591   7.671   3.578   5.854 -0.2741 -0.6208 -0.0706
  141MOL0     H18592   7.524   3.384   5.910  0.4374  0.0955  1.1652
  141MOL0     H18593   7.430   3.469   5.795 -0.6326 -1.5003  0.8766
  141MOL0     H18594   8.320   3.733   6.294 -1.2134 -1.4289 -2.5494
  141MOL0     H18595   8.577   3.752   6.275  1.1857 -0.1263 -0.8333
  141MOL0     H18596   8.935   3.704   6.278  0.6461  0.0770  0.1024
  141MOL0     H18597   9.189   3.768   6.267  0.0616  0.9732 -0.3206
  141MOL0     H18598   8.567   3.359   7.031  1.8179 -5.9825 -1.6620
  141MOL0     H18599   8.440   3.175   7.110  2.1143 -5.0050 -0.8259
  141MOL0     H18600   8.261   2.912   7.419 -3.2108 -2.5116 -1.3296
  141MOL0     H18601   8.128   2.705   7.489  0.4388  1.4778  0.5115
  141MOL0     H18602   8.205   2.515   7.685 -2.3160 -2.0483  0.0904
  141MOL0     H18603   8.368   2.457   7.640 -0.0860  1.9426 -3.2370
  141MOL0     H18604   8.260   2.233   7.610  0.2779 -1.8479  2.2785
  141MOL0     H18605   8.271   2.277   7.772 -0.6967  1.5026  1.3631
  141MOL0     H18606   8.051   2.327   7.795  3.0432  0.8387  1.6892
  141MOL0     H18607   8.068   2.167   7.714 -0.4297  0.1406  1.4936
  141MOL0     H18608   7.999   2.420   7.557  2.7055 -1.0392  1.9996
  141MOL0     H18609   8.001   2.249   7.501 -2.6625  0.2851 -2.3016
  141MOL0     H18610   7.623   2.335   7.722 -0.2041 -2.8090 -0.6781
  141MOL0     H18611   8.469   2.461   7.392  4.0294  0.7007 -0.3182
  141MOL0     H18612   8.583   2.658   7.295  2.3806  4.7031 -0.3694
  142MOL0     O18613   6.208   3.088   3.938  0.4792 -0.8247 -0.9297
  142MOL0     C18614   6.228   3.148   4.048 -0.0833  1.0285 -0.1969
  142MOL0     O18615   6.139   3.156   4.157  0.6418  0.5053 -0.2000
  142MOL0     C18616   6.027   3.082   4.187 -0.1343  0.2822 -0.4326
  142MOL0     C18617   5.971   3.088   4.315 -0.1293 -0.1720  0.3868
  142MOL0     C18618   5.859   3.021   4.353  0.3399  1.2064  0.3429
  142MOL0     C18619   5.779   2.969   4.249  0.6427  0.3782  0.3319
  142MOL0     O18620   5.658   2.907   4.268  0.2441  0.1747 -0.2005
  142MOL0     C18621   5.578   2.964   4.367  0.2321 -1.3354 -0.6904
  142MOL0     C18622   5.443   2.897   4.359 -0.3338  0.2743  0.1883
  142MOL0     C18623   5.395   2.907   4.211 -0.3373 -0.8739 -0.4976
  142MOL0     C18624   5.250   2.863   4.198  0.1290  0.0897 -0.2613
  142MOL0     C18625   5.165   2.955   4.282 -0.1584  0.3400 -0.3663
  142MOL0     C18626   5.024   2.952   4.233  1.0903  0.2442 -0.2693
  142MOL0     C18627   4.928   3.049   4.288  1.3847  0.2095 -0.4262
  142MOL0     C18628   4.781   3.029   4.236 -0.4426 -0.0359 -0.7264
  142MOL0     N18629   4.690   3.108   4.320 -0.1877  0.6781  0.3002
  142MOL0     C18630   4.662   3.240   4.300 -0.2415 -1.4096  0.2440
  142MOL0     C18631   4.566   3.269   4.391  0.0842 -1.1139  0.1369
  142MOL0     C18632   4.512   3.411   4.401  0.0027  0.6490  0.4523
  142MOL0     C18633   4.453   3.444   4.539 -0.4462  0.7195 -0.4605
  142MOL0     C18634   4.404   3.587   4.569 -0.0883  0.2721 -0.6476
  142MOL0     C18635   4.307   3.576   4.691 -0.5285 -0.8640  0.9865
  142MOL0     O18636   4.176   3.534   4.638 -0.1977 -0.3608 -0.2985
  142MOL0     C18637   4.072   3.532   4.725  0.2298 -0.0583 -0.4848
  142MOL0     C18638   3.957   3.476   4.675 -0.0099  0.5363  1.3149
  142MOL0     C18639   3.850   3.448   4.753  0.1282 -0.2531 -0.0003
  142MOL0     C18640   3.852   3.472   4.892 -0.2595  0.2221  0.1762
  142MOL0     C18641   3.734   3.446   4.975 -0.7559  0.8530 -0.5757
  142MOL0     O18642   3.779   3.428   5.107  0.4112 -0.1388 -0.9402
  142MOL0     C18643   3.686   3.391   5.206 -1.1762  0.7241 -0.9518
  142MOL0     C18644   3.555   3.328   5.187 -0.3912  0.1433  0.3272
  142MOL0     C18645   3.477   3.302   5.295 -0.0968  1.0561  0.2204
  142MOL0     C18646   3.512   3.353   5.419 -0.2816  0.7933  0.2004
  142MOL0     O18647   3.445   3.318   5.533 -0.0628  0.1391 -0.1077
  142MOL0     C18648   3.309   3.361   5.532 -0.5880  0.1063  0.2525
  142MOL0     C18649   3.295   3.514   5.524  0.0910  0.4810  1.2058
  142MOL0     C18650   3.317   3.592   5.651 -0.4199 -0.4753  0.2772
  142MOL0     C18651   3.344   3.746   5.620 -0.7029  0.0780  0.6167
  142MOL0     C18652   3.382   3.838   5.741  0.0034  0.3220  0.1584
  142MOL0     C18653   3.390   3.982   5.715  0.5514 -0.0687  0.4973
  142MOL0     C18654   3.430   4.059   5.844  0.2593 -0.2932 -0.0822
  142MOL0     C18655   3.465   4.211   5.820 -0.3378 -0.0917  0.0219
  142MOL0    Cl18656   3.617   4.242   5.715  0.1572  0.0221 -0.2270
  142MOL0     C18657   3.629   3.419   5.441 -0.3237 -0.1483  0.2760
  142MOL0     C18658   3.718   3.439   5.330 -0.3878 -1.0321 -0.6854
  142MOL0     O18659   3.619   3.462   4.936 -0.3917  0.2513 -0.4314
  142MOL0     C18660   3.976   3.522   4.948 -0.5787  0.1564 -0.2791
  142MOL0     C18661   4.079   3.557   4.866 -0.5581  0.3303 -0.0044
  142MOL0     N18662   4.544   3.155   4.461 -0.5025 -0.0719 -0.2122
  142MOL0     N18663   4.609   3.051   4.412  0.5764 -0.5842 -0.6179
  142MOL0     C18664   5.820   2.964   4.115  0.0007  0.3928  0.2601
  142MOL0     C18665   5.951   3.018   4.089  0.0114  0.8935 -1.3118
  142MOL0     C18666   6.363   3.206   4.070  0.8853  0.6005  0.1426
  142MOL0     C18667   6.377   3.313   4.156 -0.4619 -1.2433  0.0150
  142MOL0     C18668   6.503   3.378   4.167  0.3288 -0.3898  0.4153
  142MOL0     C18669   6.612   3.336   4.088  0.7099  0.1127  0.8884
  142MOL0     O18670   6.714   3.427   4.088 -1.1337 -0.1983  0.0262
  142MOL0     C18671   6.784   3.469   3.969  0.0627 -1.0437 -0.3150
  142MOL0     C18672   6.844   3.612   3.990 -0.0061  0.8164  0.5076
  142MOL0     C18673   6.871   3.681   3.856 -0.5662  0.0062 -0.3045
  142MOL0     C18674   6.975   3.801   3.870 -0.2451  0.4804  0.0178
  142MOL0     C18675   7.082   3.818   3.768  0.3030  0.2376 -0.7574
  142MOL0     C18676   7.165   3.807   3.678 -0.4108 -0.5643 -0.7372
  142MOL0     C18677   6.592   3.226   4.005  0.3951 -1.8052 -0.2594
  142MOL0     C18678   6.471   3.155   3.999  0.2891  0.1485 -0.4476
  142MOL0     H18679   6.033   3.135   4.391  2.8910  1.0993 -2.6164
  142MOL0     H18680   5.813   3.029   4.451 -1.5615 -1.8684 -0.1449
  142MOL0     H18681   5.560   3.072   4.363  0.9335 -1.2212 -0.9310
  142MOL0     H18682   5.626   2.952   4.465  0.6128  0.9177 -0.5537
  142MOL0     H18683   5.380   2.949   4.432  2.5747  1.8417  1.7313
  142MOL0     H18684   5.441   2.791   4.387 -1.3957 -0.6469 -2.8722
  142MOL0     H18685   5.451   2.832   4.154 -3.4097 -2.6641 -1.4436
  142MOL0     H18686   5.400   3.004   4.160  1.4869 -1.3106 -1.2319
  142MOL0     H18687   5.226   2.882   4.093 -0.7732 -0.4118 -0.1583
  142MOL0     H18688   5.237   2.759   4.229 -0.3898  0.7421  1.8605
  142MOL0     H18689   5.199   3.057   4.259 -2.1593  1.1941  0.3330
  142MOL0     H18690   5.171   2.928   4.387 -1.3774 -0.5694 -0.5141
  142MOL0     H18691   4.984   2.851   4.246 -0.9284  1.1066  0.7258
  142MOL0     H18692   5.029   2.971   4.126  0.8413 -2.7156 -0.8972
  142MOL0     H18693   4.919   3.040   4.397 -1.4181 -0.2777 -0.6133
  142MOL0     H18694   4.958   3.152   4.266 -0.2350  1.1058  1.1967
  142MOL0     H18695   4.735   2.930   4.246  0.0062 -0.0739  1.4084
  142MOL0     H18696   4.777   3.066   4.133 -1.0900 -0.3390 -0.8211
  142MOL0     H18697   4.700   3.303   4.220  0.2580 -2.5736 -0.4608
  142MOL0     H18698   4.428   3.431   4.335  0.3013  2.7931  0.6622
  142MOL0     H18699   4.593   3.475   4.364 -0.2497  0.6780 -0.0593
  142MOL0     H18700   4.537   3.420   4.605 -0.2828  0.7233 -0.6655
  142MOL0     H18701   4.375   3.369   4.556  1.3782 -0.5151  3.6105
  142MOL0     H18702   4.483   3.660   4.590 -0.6138  0.2951  1.4493
  142MOL0     H18703   4.351   3.633   4.485  1.5922  0.8869 -1.4177
  142MOL0     H18704   4.298   3.678   4.729 -1.9882 -0.3339 -0.6924
  142MOL0     H18705   4.338   3.509   4.772 -2.7490  0.3781  2.9733
  142MOL0     H18706   3.944   3.452   4.570 -2.1974 -0.2394  1.7083
  142MOL0     H18707   3.761   3.409   4.705 -0.3353  0.5690  0.1658
  142MOL0     H18708   3.523   3.287   5.093 -0.8703 -0.5265  0.7744
  142MOL0     H18709   3.385   3.245   5.289  0.5752 -0.4446  2.6615
  142MOL0     H18710   3.275   3.333   5.631  2.3301  0.3354  1.4341
  142MOL0     H18711   3.256   3.305   5.454 -2.7210  0.0047  1.7278
  142MOL0     H18712   3.193   3.547   5.501  0.1308  1.3241  2.1707
  142MOL0     H18713   3.360   3.554   5.445 -3.6450  1.4493 -1.6602
  142MOL0     H18714   3.390   3.540   5.714 -2.1171 -1.8775  1.1698
  142MOL0     H18715   3.228   3.599   5.713 -2.2618 -0.3439 -2.2216
  142MOL0     H18716   3.421   3.760   5.543  0.0716  3.4053  1.8243
  142MOL0     H18717   3.252   3.785   5.578  0.5358 -0.9327 -3.4984
  142MOL0     H18718   3.479   3.811   5.782 -0.5445  1.6100  2.5478
  142MOL0     H18719   3.315   3.825   5.827 -2.1011 -4.2257 -1.8435
  142MOL0     H18720   3.287   4.009   5.686  0.9073  1.4180  0.5432
  142MOL0     H18721   3.462   4.007   5.636  1.0417  1.5648  1.4133
  142MOL0     H18722   3.351   4.052   5.919 -0.9620  1.0390 -1.1865
  142MOL0     H18723   3.521   4.013   5.884 -0.4472 -2.3682 -0.7314
  142MOL0     H18724   3.487   4.256   5.917 -0.0993  2.8884 -1.3092
  142MOL0     H18725   3.380   4.264   5.777  0.3638  1.6809  0.7305
  142MOL0     H18726   3.648   3.462   5.539 -1.1163  2.6907 -0.7140
  142MOL0     H18727   3.811   3.494   5.346 -2.4661  2.4675  0.5815
  142MOL0     H18728   3.999   3.539   5.052  2.7249  2.2363 -1.2210
  142MOL0     H18729   4.174   3.594   4.904  0.1235  3.1432 -3.7651
  142MOL0     H18730   5.751   2.918   4.045  1.2171  0.3295 -0.9399
  142MOL0     H18731   5.997   3.020   3.991  2.8404  1.4618 -0.0694
  142MOL0     H18732   6.301   3.357   4.221 -1.9037  0.8677 -2.8905
  142MOL0     H18733   6.497   3.476   4.215 -1.5551  1.5912 -3.4456
  142MOL0     H18734   6.700   3.476   3.899 -0.6133 -1.2585  0.4563
  142MOL0     H18735   6.864   3.404   3.932  2.7464  1.5780  0.5413
  142MOL0     H18736   6.786   3.680   4.053  2.1339  1.3725  2.0147
  142MOL0     H18737   6.930   3.601   4.057  0.7236  2.5854 -0.0785
  142MOL0     H18738   6.769   3.708   3.826 -0.5761  1.2736  0.8107
  142MOL0     H18739   6.907   3.606   3.785 -1.5037 -2.1742  1.3858
  142MOL0     H18740   6.908   3.887   3.879 -2.2024 -0.7462 -1.7880
  142MOL0     H18741   7.031   3.783   3.962  1.6504 -2.7507 -1.5934
  142MOL0     H18742   7.233   3.783   3.599  2.1406  4.1277 -0.2903
  142MOL0     H18743   6.661   3.204   3.924  0.6697 -0.2389 -0.4776
  142MOL0     H18744   6.450   3.062   3.948  0.4465 -1.2445  1.9304
  143MOL0     O18745   6.458   5.104   7.703  0.2481  0.2476 -0.4920
  143MOL0     C18746   6.564   5.118   7.643 -0.2346 -0.1117  0.1479
  143MOL0     O18747   6.579   5.158   7.515  0.8063  0.5472 -0.5263
  143MOL0     C18748   6.472   5.189   7.429 -0.4263  0.5510 -0.3166
  143MOL0     C18749   6.358   5.250   7.479 -0.4375 -0.3026 -0.4156
  143MOL0     C18750   6.251   5.264   7.403 -0.0737 -1.0363  0.1903
  143MOL0     C18751   6.253   5.231   7.266  0.1971  0.1535  0.2731
  143MOL0     O18752   6.140   5.222   7.190  0.3453 -0.0214  0.8769
  143MOL0     C18753   6.035   5.125   7.210  0.4138  0.5033  0.1736
  143MOL0     C18754   5.904   5.180   7.274  0.4510 -0.7155  0.4390
  143MOL0     C18755   5.854   5.310   7.209 -0.1679 -0.5228  0.3526
  143MOL0     C18756   5.771   5.403   7.302  0.7434  0.5325  1.0779
  143MOL0     C18757   5.621   5.353   7.324 -0.5678  0.6180  0.0131
  143MOL0     C18758   5.554   5.449   7.427  0.1516  0.2723  0.0009
  143MOL0     C18759   5.401   5.451   7.390 -0.2619 -0.1114 -0.1226
  143MOL0     C18760   5.300   5.498   7.496  0.5176 -0.1681 -0.7753
  143MOL0     N18761   5.158   5.508   7.445 -0.4030  0.6463 -0.6869
  143MOL0     C18762   5.100   5.619   7.386  0.4159  0.5847 -0.2668
  143MOL0     C18763   4.970   5.588   7.392  0.3142 -0.0988 -0.4221
  143MOL0     C18764   4.864   5.685   7.335  0.3439 -0.2881  0.5927
  143MOL0     C18765   4.735   5.605   7.306 -0.5636 -0.0928 -0.4701
  143MOL0     C18766   4.747   5.507   7.187 -0.1007 -0.7969 -0.5578
  143MOL0     C18767   4.612   5.445   7.149  0.4154 -0.2765  0.6736
  143MOL0     O18768   4.517   5.548   7.113  0.1131 -0.8899  0.1124
  143MOL0     C18769   4.390   5.522   7.056 -0.7856 -0.0112  0.4931
  143MOL0     C18770   4.317   5.613   6.981 -0.0693 -0.1985 -0.3755
  143MOL0     C18771   4.195   5.601   6.912 -0.0274  0.2754 -0.3353
  143MOL0     C18772   4.136   5.477   6.917  0.1778  0.4030  0.3553
  143MOL0     C18773   4.000   5.459   6.866  0.8013 -0.2384  0.5524
  143MOL0     O18774   3.947   5.555   6.787  0.4710  0.4591  0.0453
  143MOL0     C18775   3.809   5.574   6.775  0.3379  0.7232  0.2925
  143MOL0     C18776   3.757   5.613   6.647 -0.4488 -0.7891 -0.3439
  143MOL0     C18777   3.625   5.607   6.614 -0.0920 -0.7632 -0.7928
  143MOL0     C18778   3.528   5.568   6.711 -1.3442 -0.3627 -0.2127
  143MOL0     O18779   3.401   5.567   6.668 -0.5750 -0.3147  0.2026
  143MOL0     C18780   3.289   5.561   6.760 -0.4040 -0.1519  0.3548
  143MOL0     C18781   3.158   5.569   6.680 -0.1874 -0.0367  0.9694
  143MOL0     C18782   3.047   5.632   6.761 -0.9206  0.0318 -0.2872
  143MOL0     C18783   2.915   5.628   6.688  0.2321  0.2148 -0.3326
  143MOL0     C18784   2.800   5.712   6.749  0.1011  0.0052 -1.0440
  143MOL0     C18785   2.658   5.682   6.684 -0.8841  0.0024 -0.5860
  143MOL0     C18786   2.664   5.650   6.526  0.3375  0.2695  0.1615
  143MOL0     C18787   2.523   5.656   6.462  0.7852 -0.5068  0.6126
  143MOL0    Cl18788   2.479   5.829   6.465 -0.1659 -0.2022 -0.1711
  143MOL0     C18789   3.574   5.535   6.836  0.2399 -0.4040 -0.3539
  143MOL0     C18790   3.704   5.537   6.861 -0.3152  0.5349 -0.1716
  143MOL0     O18791   3.943   5.355   6.893 -0.1317  0.1093 -0.3179
  143MOL0     C18792   4.204   5.379   6.995 -0.5049 -0.6289  0.1663
  143MOL0     C18793   4.327   5.395   7.062  0.0355 -0.2470  0.1429
  143MOL0     N18794   4.944   5.462   7.443  0.1468  0.8663  0.0424
  143MOL0     N18795   5.061   5.411   7.480 -0.7667 -0.7783  0.1361
  143MOL0     C18796   6.370   5.180   7.217  0.6051  0.0629 -0.0321
  143MOL0     C18797   6.481   5.146   7.295 -1.4612 -0.3955 -0.3849
  143MOL0     C18798   6.691   5.114   7.721  1.3369 -1.0119  0.6075
  143MOL0     C18799   6.688   5.123   7.859 -0.0171 -0.3322 -0.3424
  143MOL0     C18800   6.802   5.128   7.936 -0.2153  0.2094  0.4262
  143MOL0     C18801   6.928   5.107   7.870  1.2929  0.7768 -0.2739
  143MOL0     O18802   7.037   5.129   7.942  0.0951  0.2848 -0.7078
  143MOL0     C18803   7.098   5.010   7.980 -0.1167 -0.2416 -0.3133
  143MOL0     C18804   7.191   5.037   8.089  0.0636  0.2245  0.6320
  143MOL0     C18805   7.239   4.908   8.164  0.1450  0.6025  0.0179
  143MOL0     C18806   7.379   4.883   8.121 -0.7802  0.3537  0.3642
  143MOL0     C18807   7.427   4.759   8.178 -0.2292  0.0064 -0.6286
  143MOL0     C18808   7.468   4.655   8.220 -0.7958 -0.0130 -0.5155
  143MOL0     C18809   6.926   5.082   7.737  0.3614 -0.1721 -0.3450
  143MOL0     C18810   6.815   5.095   7.664  0.6034 -0.1295  0.3613
  143MOL0     H18811   6.351   5.295   7.578 -0.8195  1.0741 -1.0500
  143MOL0     H18812   6.156   5.310   7.425  0.7444  0.4008  0.8439
  143MOL0     H18813   6.075   5.045   7.272 -1.5721 -1.4357 -0.9045
  143MOL0     H18814   6.019   5.082   7.110  4.6497 -0.3993 -0.3106
  143MOL0     H18815   5.915   5.203   7.381 -2.2701  0.1884  0.6095
  143MOL0     H18816   5.825   5.103   7.275  0.6883 -0.9724 -0.3746
  143MOL0     H18817   5.812   5.298   7.109  1.3643  2.0695 -0.6822
  143MOL0     H18818   5.945   5.369   7.197  0.7020 -1.2835  2.6414
  143MOL0     H18819   5.835   5.428   7.388  3.1436  0.6554 -0.6533
  143MOL0     H18820   5.767   5.500   7.252  3.0025  1.8087  3.1514
  143MOL0     H18821   5.616   5.250   7.359 -0.5214  0.6199  0.0255
  143MOL0     H18822   5.559   5.360   7.234 -2.1967 -0.3796  1.0077
  143MOL0     H18823   5.586   5.554   7.420 -1.1942  0.7785  1.0956
  143MOL0     H18824   5.574   5.419   7.530 -1.3253 -3.3204 -0.6155
  143MOL0     H18825   5.382   5.533   7.320 -2.1422  0.5051  1.0341
  143MOL0     H18826   5.362   5.356   7.353 -0.8401  0.7387 -1.7760
  143MOL0     H18827   5.338   5.599   7.518 -2.2432  0.5596  1.2233
  143MOL0     H18828   5.309   5.431   7.581 -1.1699 -2.7508 -2.4929
  143MOL0     H18829   5.146   5.712   7.355 -4.7541  3.4887 -0.3299
  143MOL0     H18830   4.906   5.741   7.250  0.2362  0.7486  1.2081
  143MOL0     H18831   4.837   5.755   7.414 -1.6821 -0.0731 -0.2190
  143MOL0     H18832   4.667   5.685   7.275  0.9291  0.8784 -1.3475
  143MOL0     H18833   4.692   5.551   7.391 -0.6889 -0.7959 -0.9642
  143MOL0     H18834   4.792   5.566   7.107 -0.2573  0.3438  0.1613
  143MOL0     H18835   4.817   5.428   7.215 -0.7677 -1.4450 -0.6709
  143MOL0     H18836   4.576   5.383   7.232  0.0033  0.4355  1.0349
  143MOL0     H18837   4.624   5.385   7.058 -0.5081 -0.4350  0.6450
  143MOL0     H18838   4.359   5.713   6.975  0.9109 -0.6793 -2.7814
  143MOL0     H18839   4.153   5.685   6.856 -0.9049 -1.3102 -2.1846
  143MOL0     H18840   3.828   5.636   6.568  0.8914  1.0628  1.3017
  143MOL0     H18841   3.604   5.627   6.509 -0.7334 -2.8218 -1.0965
  143MOL0     H18842   3.297   5.639   6.836  0.6563  1.3611 -1.2301
  143MOL0     H18843   3.285   5.467   6.815 -1.5673  0.7562  1.8899
  143MOL0     H18844   3.136   5.468   6.644 -1.1596  0.5087 -0.0341
  143MOL0     H18845   3.174   5.635   6.594  1.7846  0.8766  1.9769
  143MOL0     H18846   3.078   5.736   6.780  4.0183 -1.0723 -0.9899
  143MOL0     H18847   3.042   5.591   6.862  0.5483  1.5612  0.4600
  143MOL0     H18848   2.933   5.667   6.587 -2.3217  1.7245 -0.2958
  143MOL0     H18849   2.873   5.527   6.684 -4.8798  1.6923  4.1895
  143MOL0     H18850   2.829   5.817   6.741 -0.7568  0.5187  1.6784
  143MOL0     H18851   2.791   5.685   6.854 -0.3467 -2.2362 -1.5957
  143MOL0     H18852   2.598   5.772   6.701 -1.8549 -1.0863  2.4821
  143MOL0     H18853   2.614   5.595   6.734 -1.7515  0.4406 -0.5628
  143MOL0     H18854   2.740   5.714   6.481  0.1770 -1.5385 -2.9652
  143MOL0     H18855   2.694   5.546   6.509  0.4294  0.1840  0.8102
  143MOL0     H18856   2.437   5.611   6.513 -0.5720  2.1123  0.7769
  143MOL0     H18857   2.531   5.611   6.363 -4.1934 -2.3740  0.7728
  143MOL0     H18858   3.498   5.508   6.908  0.5958  0.1133  0.2234
  143MOL0     H18859   3.732   5.494   6.956 -1.7628 -1.7598 -0.6922
  143MOL0     H18860   4.156   5.281   7.002 -1.5843 -0.5047 -3.4548
  143MOL0     H18861   4.368   5.311   7.117 -2.0524  0.1852  2.5360
  143MOL0     H18862   6.364   5.151   7.113  5.2902 -2.4444  0.1681
  143MOL0     H18863   6.571   5.088   7.277 -0.8900  0.6499 -0.9655
  143MOL0     H18864   6.588   5.115   7.901 -1.4560 -0.6984 -3.5421
  143MOL0     H18865   6.806   5.130   8.045 -0.6465 -0.3765  0.4551
  143MOL0     H18866   7.144   4.955   7.897  1.9978 -0.5033  0.9669
  143MOL0     H18867   7.023   4.941   8.020 -0.7397  1.1731  1.1006
  143MOL0     H18868   7.278   5.097   8.061 -0.7793  0.3840 -1.9742
  143MOL0     H18869   7.147   5.093   8.171 -0.0157  0.5744  0.3535
  143MOL0     H18870   7.175   4.824   8.137 -0.7930  0.3346  2.7559
  143MOL0     H18871   7.229   4.933   8.270 -2.6313 -1.5196  0.3671
  143MOL0     H18872   7.370   4.884   8.012 -4.2636  0.3423  0.5522
  143MOL0     H18873   7.436   4.968   8.160 -1.2710  0.9243 -0.1393
  143MOL0     H18874   7.526   4.574   8.262 -1.1859 -0.7948 -1.4414
  143MOL0     H18875   7.024   5.054   7.699  1.7751 -0.1172  2.9511
  143MOL0     H18876   6.830   5.077   7.557 -0.6779  0.7997  0.0090
  144MOL0     O18877   8.185   8.248   7.893  0.1216  0.1509 -0.2373
  144MOL0     C18878   8.184   8.318   7.793 -0.3703  0.7086  0.1556
  144MOL0     O18879   8.079   8.314   7.692  0.1140 -0.6147  0.3561
  144MOL0     C18880   7.976   8.220   7.699  0.1230 -0.4481 -0.8646
  144MOL0     C18881   7.988   8.088   7.708 -0.5750 -0.3240 -0.3447
  144MOL0     C18882   7.879   8.006   7.739  0.5615 -0.0279 -0.1412
  144MOL0     C18883   7.749   8.055   7.762 -0.5631 -1.1663 -0.2373
  144MOL0     O18884   7.646   7.982   7.808  0.1920  0.0552  0.5719
  144MOL0     C18885   7.669   7.848   7.852 -0.2181 -0.2550 -0.7110
  144MOL0     C18886   7.535   7.773   7.873  0.9396 -0.0743 -0.5060
  144MOL0     C18887   7.468   7.730   7.736  0.4055 -0.2611 -0.4200
  144MOL0     C18888   7.337   7.656   7.772  0.0459 -0.8832  0.3005
  144MOL0     C18889   7.275   7.619   7.636  0.3215  0.1436 -0.1950
  144MOL0     C18890   7.135   7.561   7.665 -0.0319 -0.4847  0.1467
  144MOL0     C18891   7.070   7.531   7.531  0.5411  0.5841  0.2493
  144MOL0     C18892   6.951   7.620   7.490  0.3339  0.0691 -0.0358
  144MOL0     N18893   6.980   7.739   7.409 -1.4070  0.2890 -0.0819
  144MOL0     C18894   7.060   7.844   7.446 -0.3426  0.1096 -0.7837
  144MOL0     C18895   7.044   7.932   7.359 -0.0830 -0.7892 -0.1682
  144MOL0     C18896   7.101   8.066   7.371 -0.2000 -0.5351  0.6514
  144MOL0     C18897   7.075   8.166   7.253  0.6857 -1.1339 -0.0871
  144MOL0     C18898   6.924   8.194   7.209  0.2465  0.0755 -0.0615
  144MOL0     C18899   6.838   8.228   7.332 -0.1108 -0.4319  0.3639
  144MOL0     O18900   6.896   8.349   7.392 -0.0484 -0.2473  0.8074
  144MOL0     C18901   6.875   8.384   7.527  0.9729  0.6586  0.2595
  144MOL0     C18902   6.953   8.489   7.583  1.0394 -0.2434 -0.6412
  144MOL0     C18903   6.934   8.520   7.721  1.2886 -0.8187 -0.3384
  144MOL0     C18904   6.833   8.462   7.801  0.0716 -0.2396 -0.3221
  144MOL0     C18905   6.809   8.500   7.940 -0.4007  0.2680 -0.1330
  144MOL0     O18906   6.729   8.413   8.003 -0.2431 -0.2098 -0.2152
  144MOL0     C18907   6.736   8.402   8.139 -0.9459  0.1064 -0.3012
  144MOL0     C18908   6.723   8.511   8.221  0.4239 -0.8796 -0.2610
  144MOL0     C18909   6.756   8.499   8.361 -0.2629 -0.4084 -0.5760
  144MOL0     C18910   6.806   8.377   8.417  0.2387  0.0446  0.1705
  144MOL0     O18911   6.838   8.369   8.547  0.3773  0.1154 -0.2830
  144MOL0     C18912   6.730   8.349   8.638 -0.1765  0.5816  0.2926
  144MOL0     C18913   6.732   8.445   8.755 -0.5698  0.6325  0.0950
  144MOL0     C18914   6.733   8.599   8.730 -0.0308  0.0772  0.6133
  144MOL0     C18915   6.778   8.669   8.857  0.2786  0.5335 -1.1575
  144MOL0     C18916   6.735   8.810   8.878  0.9620  1.2823 -0.3747
  144MOL0     C18917   6.791   8.884   9.005  0.6824 -0.2691 -0.7975
  144MOL0     C18918   6.941   8.872   9.031  0.2425 -0.7328  0.1418
  144MOL0     C18919   6.984   8.955   9.146  0.2802  0.8295  0.1700
  144MOL0    Cl18920   6.917   8.890   9.286 -0.1394 -0.0995 -0.4315
  144MOL0     C18921   6.799   8.260   8.335 -1.0543 -0.6672  0.0108
  144MOL0     C18922   6.770   8.281   8.199  0.2140  0.1825 -0.5676
  144MOL0     O18923   6.867   8.599   7.985 -0.3364  0.5636  0.4226
  144MOL0     C18924   6.767   8.347   7.746  0.1528  0.0096  0.3549
  144MOL0     C18925   6.794   8.311   7.614  0.8141 -0.4780  0.1437
  144MOL0     N18926   6.967   7.885   7.255  0.6701  0.4919 -0.9351
  144MOL0     N18927   6.931   7.762   7.283 -0.1864  0.4474  0.7364
  144MOL0     C18928   7.731   8.197   7.743 -0.4082  0.8712  1.0581
  144MOL0     C18929   7.846   8.278   7.713 -0.2793  0.7732 -1.1075
  144MOL0     C18930   8.290   8.416   7.769 -0.6319 -0.4124  0.4917
  144MOL0     C18931   8.325   8.486   7.892  0.1841 -0.1300 -0.1939
  144MOL0     C18932   8.426   8.588   7.890  0.1397 -0.4877  0.1417
  144MOL0     C18933   8.498   8.617   7.771  0.9541  0.7130 -0.1268
  144MOL0     O18934   8.584   8.725   7.784 -0.0210  0.3047  0.3016
  144MOL0     C18935   8.717   8.693   7.835 -0.2302  0.4450  0.0169
  144MOL0     C18936   8.809   8.816   7.845  0.9097 -0.2142 -0.3253
  144MOL0     C18937   8.799   8.878   7.976  0.2488  0.2900 -0.1910
  144MOL0     C18938   8.886   9.000   7.988 -0.0016 -0.0218 -0.3948
  144MOL0     C18939   8.838   9.122   7.915 -0.1616  1.3582  0.5683
  144MOL0     C18940   8.806   9.229   7.866 -0.0599 -0.6423 -0.4046
  144MOL0     C18941   8.460   8.545   7.652 -1.5282 -0.0057  0.7858
  144MOL0     C18942   8.367   8.445   7.651  0.4280  0.5639 -0.2152
  144MOL0     H18943   8.089   8.050   7.697 -0.2630  0.6866 -1.0636
  144MOL0     H18944   7.901   7.901   7.750  0.2729 -0.6262 -4.1201
  144MOL0     H18945   7.735   7.854   7.940 -3.2950  0.3602  1.7175
  144MOL0     H18946   7.724   7.790   7.777 -0.4585  1.1027 -1.9836
  144MOL0     H18947   7.484   7.843   7.939  2.5376 -0.6259  1.4234
  144MOL0     H18948   7.551   7.681   7.930 -1.5296  0.3702  1.0352
  144MOL0     H18949   7.542   7.677   7.674  0.7292 -2.2897  1.5672
  144MOL0     H18950   7.435   7.824   7.691 -1.2926 -1.4591 -1.8265
  144MOL0     H18951   7.350   7.569   7.836  0.3252 -2.5089 -1.8384
  144MOL0     H18952   7.279   7.720   7.839  0.5468 -2.8801  2.7947
  144MOL0     H18953   7.337   7.540   7.594 -1.4275 -0.8340 -1.0585
  144MOL0     H18954   7.274   7.697   7.559 -1.9617 -0.5022 -0.8991
  144MOL0     H18955   7.088   7.633   7.732  1.7963  1.4190 -0.5286
  144MOL0     H18956   7.147   7.471   7.726 -0.7722 -0.7522 -0.0952
  144MOL0     H18957   7.134   7.521   7.443 -2.2630 -0.2722 -1.8599
  144MOL0     H18958   7.029   7.430   7.541 -0.3552  0.7596 -1.3765
  144MOL0     H18959   6.884   7.636   7.574  0.2039 -1.6168  0.2202
  144MOL0     H18960   6.885   7.557   7.430 -0.2248 -2.0650  2.5962
  144MOL0     H18961   7.113   7.866   7.539 -2.1599  1.5452 -0.0234
  144MOL0     H18962   7.209   8.069   7.384  0.1641  0.7187 -1.9978
  144MOL0     H18963   7.060   8.118   7.459  2.3780 -0.8923  2.1524
  144MOL0     H18964   7.114   8.116   7.164 -0.2167 -0.6985 -0.7341
  144MOL0     H18965   7.125   8.263   7.257 -1.8562  0.2928 -0.6709
  144MOL0     H18966   6.921   8.280   7.142  0.3301  2.1353  2.4511
  144MOL0     H18967   6.882   8.104   7.162  1.0033 -1.3951  1.9120
  144MOL0     H18968   6.842   8.150   7.408  1.1490 -1.1623 -0.4021
  144MOL0     H18969   6.738   8.244   7.293  0.5126 -1.5485 -1.8253
  144MOL0     H18970   7.032   8.535   7.524 -1.0500  2.3169 -1.6126
  144MOL0     H18971   7.005   8.592   7.760  0.5889  0.2715 -1.0219
  144MOL0     H18972   6.678   8.602   8.181 -2.0938 -2.7227 -1.9384
  144MOL0     H18973   6.755   8.591   8.419 -0.8864  2.0568 -4.1012
  144MOL0     H18974   6.746   8.245   8.670  0.1144  0.9723  1.4605
  144MOL0     H18975   6.632   8.355   8.590 -0.4587 -0.5172  0.7049
  144MOL0     H18976   6.822   8.419   8.812  1.3522  0.9627 -2.5865
  144MOL0     H18977   6.645   8.419   8.815 -0.1615 -0.9169  0.0733
  144MOL0     H18978   6.634   8.635   8.700 -0.5986 -1.1667  0.9169
  144MOL0     H18979   6.801   8.633   8.651  0.8501 -0.6639  1.0299
  144MOL0     H18980   6.739   8.617   8.945 -0.3055  3.1717  0.2176
  144MOL0     H18981   6.887   8.668   8.867  0.2655 -2.5216 -0.2422
  144MOL0     H18982   6.627   8.825   8.879  0.4496 -1.6871 -0.2512
  144MOL0     H18983   6.779   8.854   8.788 -1.3773  0.5181 -1.9803
  144MOL0     H18984   6.742   8.841   9.093  1.9870 -4.0773 -1.7294
  144MOL0     H18985   6.767   8.989   8.990  0.1828 -0.3888 -0.8470
  144MOL0     H18986   6.956   8.770   9.068 -0.2716 -0.5183  0.9633
  144MOL0     H18987   6.987   8.894   8.934  1.4008 -1.0993  0.5840
  144MOL0     H18988   6.954   9.059   9.134 -5.9892 -0.6035 -0.0491
  144MOL0     H18989   7.093   8.947   9.151  0.2847  0.9420  0.2579
  144MOL0     H18990   6.824   8.163   8.376  0.9172 -0.3485 -0.3300
  144MOL0     H18991   6.777   8.196   8.132  2.4194 -3.1646  3.4503
  144MOL0     H18992   6.695   8.283   7.795  0.4432  0.0490  0.8468
  144MOL0     H18993   6.741   8.223   7.579  0.0662 -0.0848  0.2683
  144MOL0     H18994   7.641   8.253   7.768 -0.1048  2.1892 -0.6439
  144MOL0     H18995   7.833   8.385   7.722  1.0315  0.7896  1.4629
  144MOL0     H18996   8.276   8.465   7.987  2.1105  1.3074  1.1970
  144MOL0     H18997   8.440   8.646   7.980 -2.3767  3.1667 -1.6067
  144MOL0     H18998   8.767   8.623   7.767 -1.2569 -0.6211  0.3324
  144MOL0     H18999   8.712   8.644   7.933 -0.5312 -2.0717 -1.1763
  144MOL0     H19000   8.911   8.786   7.819  0.8301  1.6267 -3.0994
  144MOL0     H19001   8.789   8.886   7.764  0.8846 -2.1682 -2.0931
  144MOL0     H19002   8.820   8.805   8.055 -2.7041  0.2750  0.6918
  144MOL0     H19003   8.698   8.912   7.999  0.2954 -0.3745  1.0422
  144MOL0     H19004   8.888   9.029   8.093  0.7412  0.8875 -0.6454
  144MOL0     H19005   8.983   8.973   7.947  0.6228  0.2418  0.8812
  144MOL0     H19006   8.764   9.318   7.824  0.6804  1.2622  2.5513
  144MOL0     H19007   8.497   8.584   7.557  0.3550  0.2428  1.5865
  144MOL0     H19008   8.350   8.383   7.564  1.1863  1.1245 -0.7699
  145MOL0     O19009   3.099   5.044   1.080 -0.1295 -0.1746 -0.7876
  145MOL0     C19010   3.091   5.164   1.082  0.4032 -1.3210  0.4553
  145MOL0     O19011   2.970   5.238   1.123 -0.0245  0.6717  0.2919
  145MOL0     C19012   2.871   5.161   1.163  0.1847  0.0837  0.5133
  145MOL0     C19013   2.748   5.205   1.118  1.0567 -0.0095  1.0560
  145MOL0     C19014   2.630   5.145   1.169  0.1601  0.7424  0.0158
  145MOL0     C19015   2.631   5.048   1.273 -0.3363  0.2891  0.4362
  145MOL0     O19016   2.522   4.985   1.325 -0.8364  0.1046  0.0844
  145MOL0     C19017   2.393   4.991   1.266 -0.0885  0.0635  0.3105
  145MOL0     C19018   2.324   5.130   1.274 -0.5654 -0.0043  0.4442
  145MOL0     C19019   2.207   5.132   1.373  0.2253  0.8845  0.0890
  145MOL0     C19020   2.255   5.104   1.515 -0.3770  0.5351  0.1302
  145MOL0     C19021   2.151   5.149   1.617  0.9779 -0.9852 -0.0531
  145MOL0     C19022   2.004   5.090   1.609  0.8159  0.5090 -0.9221
  145MOL0     C19023   1.998   4.931   1.611 -0.3553 -0.8225  0.0988
  145MOL0     C19024   2.067   4.877   1.744  0.0044  0.1590  0.6950
  145MOL0     N19025   2.020   4.747   1.766 -0.0187 -0.2035 -0.7211
  145MOL0     C19026   2.050   4.628   1.701  0.0837  0.0249 -0.1960
  145MOL0     C19027   1.994   4.524   1.765  0.3013  0.1807  0.3680
  145MOL0     C19028   2.013   4.377   1.742 -0.3716  0.4354  0.7158
  145MOL0     C19029   2.144   4.313   1.789 -0.5112  0.0659 -0.3573
  145MOL0     C19030   2.154   4.323   1.941 -0.7587  0.3209  0.1380
  145MOL0     C19031   2.211   4.185   2.002  0.9483  0.1420  0.1397
  145MOL0     O19032   2.148   4.063   1.962  0.0998 -0.5074 -0.9104
  145MOL0     C19033   2.029   4.025   2.024 -0.5310 -0.5462 -1.0562
  145MOL0     C19034   1.908   3.993   1.950 -0.3797  0.4867 -0.3975
  145MOL0     C19035   1.787   3.990   2.017 -0.0481 -0.5360  0.4124
  145MOL0     C19036   1.769   4.020   2.148  0.3976  0.1837  0.2556
  145MOL0     C19037   1.641   4.024   2.209 -0.4487  0.2683  0.1781
  145MOL0     O19038   1.623   3.968   2.329 -0.1020 -0.0418  0.0986
  145MOL0     C19039   1.508   3.988   2.406  0.6086  0.1411  0.2381
  145MOL0     C19040   1.457   3.893   2.501  0.4224  0.2160  0.5215
  145MOL0     C19041   1.338   3.916   2.580 -0.4727  0.0756  0.2802
  145MOL0     C19042   1.263   4.026   2.555  0.0533 -0.9594  0.0586
  145MOL0     O19043   1.157   4.063   2.623 -0.3554  1.0090  0.1840
  145MOL0     C19044   1.044   3.981   2.637  0.1891  0.4873 -0.9394
  145MOL0     C19045   0.929   4.052   2.709 -0.7245 -0.0611  0.0617
  145MOL0     C19046   0.913   4.204   2.668  0.0593  0.0610 -0.6422
  145MOL0     C19047   0.779   4.261   2.711  0.2557 -0.1096  0.3314
  145MOL0     C19048   0.762   4.401   2.646  0.3981 -0.1164  0.1387
  145MOL0     C19049   0.651   4.413   2.545  0.4224 -0.0567 -0.3736
  145MOL0     C19050   0.531   4.475   2.621  0.7041 -0.3894  0.5279
  145MOL0     C19051   0.420   4.515   2.523  0.6895  0.3557 -0.0203
  145MOL0    Cl19052   0.269   4.552   2.606 -0.4730  0.1297  0.3713
  145MOL0     C19053   1.319   4.129   2.469 -0.6782  0.2977 -0.3248
  145MOL0     C19054   1.440   4.112   2.403 -0.1640  0.1107  0.4893
  145MOL0     O19055   1.557   4.080   2.135  0.2634 -0.3454 -0.6846
  145MOL0     C19056   1.884   4.038   2.223 -0.5062 -0.1535  0.2033
  145MOL0     C19057   2.014   4.036   2.164  0.0607  0.2202  0.4454
  145MOL0     N19058   1.914   4.590   1.858 -0.5470  0.7598  0.7571
  145MOL0     N19059   1.928   4.720   1.861 -0.2905 -0.1896  0.1484
  145MOL0     C19060   2.761   5.007   1.316 -0.6705 -0.4031 -0.3949
  145MOL0     C19061   2.876   5.062   1.257 -0.6769  0.8060 -0.4676
  145MOL0     C19062   3.197   5.250   1.056  0.0292 -0.2926  0.1745
  145MOL0     C19063   3.326   5.195   1.019  0.9163  0.4973 -0.2051
  145MOL0     C19064   3.442   5.271   0.993 -0.3057 -0.2741 -0.4114
  145MOL0     C19065   3.436   5.413   1.006 -0.3914  0.1576 -1.1726
  145MOL0     O19066   3.537   5.501   0.976 -0.8428 -0.3197 -0.0650
  145MOL0     C19067   3.676   5.477   1.025 -0.0463 -0.2484  0.8141
  145MOL0     C19068   3.688   5.477   1.176  0.7999 -0.0323 -0.0212
  145MOL0     C19069   3.647   5.612   1.229  0.3670 -0.6887  0.5035
  145MOL0     C19070   3.741   5.732   1.204 -1.3255 -0.4948  0.0622
  145MOL0     C19071   3.856   5.706   1.280 -0.0697 -0.6736  0.0867
  145MOL0     C19072   3.958   5.680   1.342  1.2403 -1.0176  0.2120
  145MOL0     C19073   3.311   5.472   1.050  0.9436  0.1559 -0.5267
  145MOL0     C19074   3.196   5.390   1.075 -0.3998 -0.1468 -0.2101
  145MOL0     H19075   2.740   5.274   1.035 -2.5021 -0.2355  1.0547
  145MOL0     H19076   2.534   5.161   1.120  1.2541 -1.2158 -3.0514
  145MOL0     H19077   2.329   4.910   1.303  1.2586 -0.4038  1.7136
  145MOL0     H19078   2.404   4.961   1.161 -2.1460 -0.9839  0.3474
  145MOL0     H19079   2.295   5.168   1.176  1.4048 -0.4997 -0.3874
  145MOL0     H19080   2.399   5.204   1.302  0.2134  0.6731 -3.0429
  145MOL0     H19081   2.126   5.061   1.356 -0.1120  0.2115  3.6844
  145MOL0     H19082   2.165   5.231   1.356 -0.4592 -0.0522 -5.6123
  145MOL0     H19083   2.278   4.999   1.537  2.1487  1.0187  0.1570
  145MOL0     H19084   2.353   5.148   1.540  1.4631 -3.6828  1.2106
  145MOL0     H19085   2.134   5.256   1.609  3.4024 -0.5739 -0.4001
  145MOL0     H19086   2.191   5.136   1.718  0.2212  1.1872  0.5579
  145MOL0     H19087   1.968   5.126   1.512  0.8324 -2.0638 -1.9557
  145MOL0     H19088   1.943   5.130   1.690  2.3958  0.3547  0.3895
  145MOL0     H19089   1.892   4.907   1.606 -1.5226  3.3493  0.7866
  145MOL0     H19090   2.057   4.895   1.526 -0.8478  2.5235 -1.8575
  145MOL0     H19091   2.056   4.940   1.833  1.2680  2.5586 -0.7701
  145MOL0     H19092   2.176   4.877   1.738  0.1534  0.3809  2.6043
  145MOL0     H19093   2.111   4.620   1.612 -0.8766 -0.6783 -0.8137
  145MOL0     H19094   1.999   4.368   1.633 -3.0181 -1.1816  1.1090
  145MOL0     H19095   1.935   4.318   1.792  0.1242 -0.1126  0.8466
  145MOL0     H19096   2.228   4.369   1.746 -0.0695  1.7195  2.4053
  145MOL0     H19097   2.141   4.213   1.746  1.0811 -0.5808  0.8968
  145MOL0     H19098   2.223   4.405   1.961  2.3613 -1.5546 -2.0224
  145MOL0     H19099   2.051   4.338   1.976  0.0122  3.8248  1.3075
  145MOL0     H19100   2.194   4.202   2.108 -1.8377  5.5432 -0.7764
  145MOL0     H19101   2.319   4.175   1.987  0.6024 -2.7688 -1.1829
  145MOL0     H19102   1.916   3.968   1.845 -0.5333 -0.8412 -0.1165
  145MOL0     H19103   1.701   3.970   1.953  0.3218  1.0717 -0.6464
  145MOL0     H19104   1.508   3.798   2.504 -4.2428 -2.6401  0.3668
  145MOL0     H19105   1.310   3.841   2.653 -0.5893  1.0108  1.2244
  145MOL0     H19106   1.080   3.892   2.690 -4.4144 -1.0478  0.0250
  145MOL0     H19107   1.023   3.945   2.536  4.1296 -3.0686 -0.7640
  145MOL0     H19108   0.952   4.051   2.816 -0.2268 -0.1322 -0.0441
  145MOL0     H19109   0.837   3.996   2.688 -0.0500 -1.5714  0.9942
  145MOL0     H19110   0.910   4.216   2.559  3.8381  0.4281 -0.8320
  145MOL0     H19111   0.985   4.273   2.714 -1.1735  1.4432 -0.6919
  145MOL0     H19112   0.696   4.194   2.684  0.3728 -0.0705 -0.1368
  145MOL0     H19113   0.787   4.266   2.820  2.3722  3.2970  0.1385
  145MOL0     H19114   0.856   4.428   2.597 -0.5430  4.1903  0.3545
  145MOL0     H19115   0.752   4.466   2.733 -1.4087 -1.8043  1.2953
  145MOL0     H19116   0.618   4.318   2.504 -0.9458  0.8711 -1.5070
  145MOL0     H19117   0.679   4.482   2.466 -0.8779  1.7714  0.6769
  145MOL0     H19118   0.487   4.406   2.694  1.8326 -1.4181  0.2471
  145MOL0     H19119   0.552   4.568   2.676 -0.2226 -1.0146  2.0207
  145MOL0     H19120   0.409   4.433   2.451 -1.3371  2.1800 -1.9436
  145MOL0     H19121   0.453   4.604   2.469 -0.0713  0.7684  0.1808
  145MOL0     H19122   1.261   4.221   2.467 -1.7594 -0.2831  1.3220
  145MOL0     H19123   1.469   4.200   2.347 -3.1944 -0.3782 -2.1273
  145MOL0     H19124   1.867   4.052   2.329 -1.6572  1.6599 -0.1794
  145MOL0     H19125   2.091   4.052   2.238  0.6337  1.0180 -0.3095
  145MOL0     H19126   2.772   4.938   1.400  1.2859 -0.8228 -0.9441
  145MOL0     H19127   2.966   5.013   1.293 -2.9223 -2.5028  1.1127
  145MOL0     H19128   3.343   5.088   1.011  0.3340  0.2047  1.9579
  145MOL0     H19129   3.533   5.216   0.972  0.2389  0.1896  0.6533
  145MOL0     H19130   3.739   5.556   0.983  0.3507  0.5083  2.7314
  145MOL0     H19131   3.717   5.385   0.983  0.4023  0.6405 -0.7922
  145MOL0     H19132   3.614   5.400   1.202 -0.2139  0.5238 -1.1381
  145MOL0     H19133   3.785   5.438   1.205  0.9737 -0.3820 -1.0226
  145MOL0     H19134   3.637   5.607   1.338 -1.3677 -1.0256  0.3592
  145MOL0     H19135   3.544   5.633   1.201  0.4192 -0.3577  0.5625
  145MOL0     H19136   3.773   5.752   1.101 -1.1994  3.0014  0.6514
  145MOL0     H19137   3.693   5.818   1.252  0.0918 -0.6110  1.7919
  145MOL0     H19138   4.044   5.656   1.402  0.7729  1.3647  2.0337
  145MOL0     H19139   3.294   5.579   1.057 -0.8917 -0.1519  0.2663
  145MOL0     H19140   3.101   5.435   1.101 -1.0600 -0.9784 -1.1103
  146MOL0     O19141   4.405  10.260   7.633  0.1438  0.6370  0.0982
  146MOL0     C19142   4.404  10.134   7.633 -0.3508 -0.6483 -0.7756
  146MOL0     O19143   4.521  10.046   7.633  0.1436  0.2138 -0.2546
  146MOL0     C19144   4.647  10.074   7.603 -0.6008 -0.7926 -0.4673
  146MOL0     C19145   4.719  10.195   7.599 -0.6683 -0.0452  0.0751
  146MOL0     C19146   4.861  10.197   7.590 -0.7515  1.0987 -0.3180
  146MOL0     C19147   4.935  10.078   7.581 -0.4347 -0.5195 -0.8358
  146MOL0     O19148   5.073  10.085   7.599 -1.2434  0.2360  0.0019
  146MOL0     C19149   5.151   9.959   7.613  0.8249 -0.4046  0.2934
  146MOL0     C19150   5.294  10.002   7.654  0.2348  0.4727  0.0127
  146MOL0     C19151   5.389  10.028   7.536  0.8307 -0.4559 -0.4050
  146MOL0     C19152   5.507  10.130   7.558  0.2933  0.0507 -0.1672
  146MOL0     C19153   5.560  10.166   7.423 -0.4405  0.9126 -0.0308
  146MOL0     C19154   5.682  10.254   7.441  0.1750  0.5799  0.2708
  146MOL0     C19155   5.727  10.304   7.307  0.3003 -0.8265 -0.3772
  146MOL0     C19156   5.834  10.410   7.335  0.3735  0.7844  0.5066
  146MOL0     N19157   5.952  10.355   7.276  0.0777  0.0823 -0.4416
  146MOL0     C19158   6.059  10.288   7.337 -1.4035 -0.0260  0.3800
  146MOL0     C19159   6.128  10.225   7.236 -0.1313 -0.9576 -0.3295
  146MOL0     C19160   6.253  10.136   7.251 -0.4742 -0.3573 -0.7483
  146MOL0     C19161   6.384  10.209   7.300 -0.0648  0.2444  0.2433
  146MOL0     C19162   6.423  10.327   7.209 -0.3632 -0.4506 -0.0629
  146MOL0     C19163   6.553  10.379   7.249 -0.4339 -0.5624 -0.3040
  146MOL0     O19164   6.572  10.514   7.196  0.1529 -0.4507  0.2727
  146MOL0     C19165   6.513  10.612   7.266  0.2815  0.1186  0.5661
  146MOL0     C19166   6.573  10.668   7.375 -0.1403 -0.1740 -1.0494
  146MOL0     C19167   6.525  10.768   7.450 -0.0742  1.1006  0.9667
  146MOL0     C19168   6.404  10.835   7.410 -0.4737 -0.1395  0.3502
  146MOL0     C19169   6.359  10.948   7.498 -0.5199 -0.0330  0.1257
  146MOL0     O19170   6.258  11.021   7.449 -0.4909  0.0095 -0.0560
  146MOL0     C19171   6.204  11.138   7.501  0.3171 -0.2598  0.3227
  146MOL0     C19172   6.227  11.184   7.629 -0.1045 -0.6260  0.5732
  146MOL0     C19173   6.167  11.300   7.668  0.3527  0.1751  0.2815
  146MOL0     C19174   6.085  11.374   7.583 -0.6953 -1.0736  0.4359
  146MOL0     O19175   6.034  11.492   7.623  0.4203 -0.0155  0.3496
  146MOL0     C19176   6.088  11.608   7.553  1.0870 -0.3538 -0.1777
  146MOL0     C19177   5.994  11.730   7.580  0.7686  0.0458 -0.6849
  146MOL0     C19178   5.887  11.729   7.474  0.8286 -0.2933  0.9863
  146MOL0     C19179   5.824  11.866   7.476  0.9477 -0.2795 -0.3905
  146MOL0     C19180   5.694  11.886   7.387  0.1604 -0.6691  0.0319
  146MOL0     C19181   5.733  11.920   7.244  0.3229 -0.8149 -0.4237
  146MOL0     C19182   5.794  12.062   7.218  0.6979 -0.1268 -0.3544
  146MOL0     C19183   5.704  12.169   7.269 -0.6892 -0.4089  0.5883
  146MOL0    Cl19184   5.539  12.166   7.220 -0.4936 -0.1123 -0.5079
  146MOL0     C19185   6.053  11.329   7.453  0.5566  0.0689 -0.3155
  146MOL0     C19186   6.106  11.206   7.416  0.5042  0.1157  0.5910
  146MOL0     O19187   6.429  10.981   7.595 -1.2704 -0.0757 -0.6015
  146MOL0     C19188   6.341  10.789   7.291 -0.1681 -0.1553 -0.6311
  146MOL0     C19189   6.387  10.669   7.230 -0.1034  0.0063 -0.8318
  146MOL0     N19190   6.056  10.236   7.116  0.4728  0.4377 -0.2328
  146MOL0     N19191   5.956  10.320   7.146 -0.2161 -0.3824  0.5963
  146MOL0     C19192   4.860   9.958   7.568  0.2292  0.2725  0.4841
  146MOL0     C19193   4.719   9.953   7.577 -0.4505 -0.5242  0.1525
  146MOL0     C19194   4.284  10.059   7.663 -0.0197  0.7236  0.7803
  146MOL0     C19195   4.258   9.937   7.615  0.1857 -0.4418  0.5093
  146MOL0     C19196   4.142   9.876   7.663  0.3609  0.2121 -0.0926
  146MOL0     C19197   4.056   9.935   7.759 -0.0046  0.9049 -0.4651
  146MOL0     O19198   3.932   9.885   7.798  0.0741 -0.7516  0.2229
  146MOL0     C19199   3.878   9.774   7.729 -0.6990  0.7658  0.3155
  146MOL0     C19200   3.725   9.787   7.727 -0.3779 -1.4312 -0.2168
  146MOL0     C19201   3.641   9.703   7.837  0.4000 -0.4290  0.0342
  146MOL0     C19202   3.499   9.758   7.841 -0.2124  0.0019 -0.3212
  146MOL0     C19203   3.408   9.654   7.892 -0.1905  0.7887  0.4961
  146MOL0     C19204   3.342   9.571   7.952 -0.3287 -0.5279  0.5408
  146MOL0     C19205   4.094  10.067   7.801  0.8544  0.3713 -0.0361
  146MOL0     C19206   4.219  10.116   7.764  0.4886 -0.0115 -0.0304
  146MOL0     H19207   4.662  10.287   7.608  0.0202  0.4010 -0.0496
  146MOL0     H19208   4.904  10.296   7.596  0.4083  0.7544 -1.9690
  146MOL0     H19209   5.148   9.917   7.512 -3.7579 -0.5718  0.2752
  146MOL0     H19210   5.112   9.885   7.684  2.6927 -0.8816  0.8588
  146MOL0     H19211   5.345   9.928   7.716 -0.0142 -0.4059 -0.8154
  146MOL0     H19212   5.288  10.094   7.714 -0.7169  1.0360 -0.9188
  146MOL0     H19213   5.330  10.056   7.449  3.5969  0.4274 -2.1407
  146MOL0     H19214   5.434   9.931   7.514 -3.0597 -2.8053  1.0387
  146MOL0     H19215   5.478  10.225   7.603  0.2881  1.8623 -3.6923
  146MOL0     H19216   5.577  10.071   7.618 -2.1382 -2.2936  0.5472
  146MOL0     H19217   5.478  10.215   7.370 -1.2911  2.0586  2.1972
  146MOL0     H19218   5.581  10.074   7.368  3.5160  1.8045 -0.2795
  146MOL0     H19219   5.762  10.192   7.482  1.6819  1.6298 -1.0133
  146MOL0     H19220   5.657  10.336   7.508  0.1188  0.2652  0.6418
  146MOL0     H19221   5.762  10.220   7.246  1.7444 -0.4143 -0.1686
  146MOL0     H19222   5.643  10.359   7.264  0.6574  1.0499  1.1904
  146MOL0     H19223   5.861  10.415   7.441  2.7515  1.3148 -0.0561
  146MOL0     H19224   5.804  10.503   7.285  1.1945  0.3803 -0.7772
  146MOL0     H19225   6.088  10.276   7.441  2.3061 -2.6329 -0.7515
  146MOL0     H19226   6.272  10.079   7.159 -2.1319  0.9445 -1.9509
  146MOL0     H19227   6.228  10.059   7.325 -6.1652 -0.6197 -2.4747
  146MOL0     H19228   6.464  10.136   7.284  0.1878  0.8428 -1.3699
  146MOL0     H19229   6.375  10.239   7.405  1.7112  0.8353  0.2639
  146MOL0     H19230   6.423  10.289   7.106 -0.1268  0.1231 -0.2789
  146MOL0     H19231   6.345  10.403   7.219  1.0664  1.2217 -0.9413
  146MOL0     H19232   6.637  10.318   7.212  0.3132 -0.8905  1.7666
  146MOL0     H19233   6.575  10.369   7.356  2.4805 -0.2968 -0.7974
  146MOL0     H19234   6.668  10.629   7.410 -1.8525 -2.2561  1.7289
  146MOL0     H19235   6.583  10.792   7.539  1.0664  0.4841  0.4161
  146MOL0     H19236   6.298  11.146   7.702  0.7927 -0.4502 -0.1902
  146MOL0     H19237   6.179  11.341   7.768 -2.8098  0.7950  0.5151
  146MOL0     H19238   6.096  11.587   7.446 -0.7283 -1.8991 -0.0699
  146MOL0     H19239   6.191  11.626   7.584  0.9895  0.6027 -0.3659
  146MOL0     H19240   6.054  11.821   7.590 -0.1440  0.9967 -3.1921
  146MOL0     H19241   5.936  11.734   7.673 -0.8659  6.0924 -1.5004
  146MOL0     H19242   5.823  11.640   7.482 -1.1870  1.1694  2.0353
  146MOL0     H19243   5.938  11.727   7.377 -2.3129  0.2474 -0.7941
  146MOL0     H19244   5.794  11.883   7.580  1.5234 -3.0294  0.3193
  146MOL0     H19245   5.909  11.929   7.451  0.4330 -0.0211 -1.5287
  146MOL0     H19246   5.639  11.972   7.426 -1.1587 -0.5835 -1.8966
  146MOL0     H19247   5.636  11.795   7.372  0.0138 -0.3317 -1.6645
  146MOL0     H19248   5.644  11.903   7.182  1.1735  0.8233 -2.2135
  146MOL0     H19249   5.804  11.845   7.207  2.1642  1.4194 -1.6727
  146MOL0     H19250   5.896  12.067   7.256  1.6706  0.9662 -2.8969
  146MOL0     H19251   5.800  12.086   7.111 -1.0210  4.9091  0.4008
  146MOL0     H19252   5.756  12.257   7.230  0.9553 -0.6014  2.2094
  146MOL0     H19253   5.714  12.182   7.377  2.7187  1.2353  0.2259
  146MOL0     H19254   5.988  11.388   7.390 -0.5138  1.5500  2.0592
  146MOL0     H19255   6.084  11.165   7.318 -0.6331 -3.0300  2.0398
  146MOL0     H19256   6.251  10.837   7.253 -1.5881  0.4697  3.0600
  146MOL0     H19257   6.328  10.619   7.155 -3.8693  1.8083  0.6853
  146MOL0     H19258   4.906   9.860   7.556  2.1260  1.1997 -0.0862
  146MOL0     H19259   4.668   9.858   7.576 -2.9474  0.7179 -1.4571
  146MOL0     H19260   4.316   9.895   7.533  1.2931 -0.7832  1.4512
  146MOL0     H19261   4.116   9.779   7.622 -1.4806  0.5658  0.1604
  146MOL0     H19262   3.911   9.678   7.770  2.8115  2.0356  0.7619
  146MOL0     H19263   3.910   9.774   7.625 -0.8342 -0.0816  0.2639
  146MOL0     H19264   3.699   9.894   7.723  1.2381 -0.9194  1.4767
  146MOL0     H19265   3.695   9.749   7.629 -0.5407  3.1939 -2.2607
  146MOL0     H19266   3.688   9.719   7.934 -2.1347 -0.3707  1.3425
  146MOL0     H19267   3.637   9.596   7.815 -2.1781 -0.1016 -1.6098
  146MOL0     H19268   3.495   9.848   7.902  0.9639 -0.1600  0.0113
  146MOL0     H19269   3.467   9.784   7.739 -0.8272  0.9712  0.1015
  146MOL0     H19270   3.279   9.506   8.009  1.6437 -1.6471  1.5357
  146MOL0     H19271   4.026  10.115   7.870  0.7018 -1.8909  1.5204
  146MOL0     H19272   4.257  10.204   7.815  2.0703 -0.1278 -0.9204
  147MOL0     O19273   2.441   0.173   1.213  0.1705 -0.2429  0.2802
  147MOL0     C19274   2.555   0.219   1.235  0.0398  0.2083  0.1770
  147MOL0     O19275   2.670   0.173   1.177  0.9524  0.6553 -0.3147
  147MOL0     C19276   2.666   0.066   1.087 -0.7820 -0.0953 -1.0672
  147MOL0     C19277   2.562   0.015   1.004 -0.1433 -0.3527 -1.3097
  147MOL0     C19278   2.586  -0.098   0.931  0.4764  0.3949  0.2609
  147MOL0     C19279   2.707  -0.162   0.931 -1.1038  0.0427  0.8297
  147MOL0     O19280   2.749  -0.274   0.860 -0.3802 -0.2745 -0.9469
  147MOL0     C19281   2.644  -0.351   0.803 -0.7080  0.3804 -0.6199
  147MOL0     C19282   2.681  -0.494   0.792  0.4569 -0.1734 -0.8335
  147MOL0     C19283   2.703  -0.571   0.925 -0.5227  0.2296  0.6155
  147MOL0     C19284   2.566  -0.626   0.978 -0.2305  0.8197 -0.7564
  147MOL0     C19285   2.587  -0.666   1.122  0.2802 -0.2235  0.0446
  147MOL0     C19286   2.456  -0.711   1.196  0.3964 -0.1712 -0.5022
  147MOL0     C19287   2.495  -0.769   1.334 -0.6399 -0.4741 -0.7486
  147MOL0     C19288   2.363  -0.819   1.409 -0.2455 -0.3961  1.1547
  147MOL0     N19289   2.379  -0.890   1.536  0.1239 -0.2149  0.2337
  147MOL0     C19290   2.291  -0.983   1.577  0.1305  0.2648 -0.1439
  147MOL0     C19291   2.310  -0.992   1.715 -0.3437 -0.2966  0.9941
  147MOL0     C19292   2.253  -1.098   1.809  0.5391 -0.0324  0.3194
  147MOL0     C19293   2.233  -1.033   1.947 -0.3789  0.1804 -0.5440
  147MOL0     C19294   2.225  -1.134   2.057  0.1548 -0.5697  0.2757
  147MOL0     C19295   2.260  -1.061   2.188 -0.0478  0.6899 -0.5226
  147MOL0     O19296   2.213  -1.133   2.297 -0.7512  0.5328 -0.2430
  147MOL0     C19297   2.101  -1.080   2.357 -0.5282 -0.9540 -0.6539
  147MOL0     C19298   1.983  -1.148   2.380 -0.0318 -0.0139  0.6768
  147MOL0     C19299   1.876  -1.094   2.456  0.0423 -0.2557  0.4523
  147MOL0     C19300   1.894  -0.967   2.501 -0.1192 -0.2519  0.4010
  147MOL0     C19301   1.782  -0.905   2.575  0.7186 -1.1391 -0.7994
  147MOL0     O19302   1.696  -0.984   2.646  0.0147 -0.4088  0.5773
  147MOL0     C19303   1.591  -0.932   2.705  1.4179  0.1906  0.3823
  147MOL0     C19304   1.496  -0.833   2.647 -0.8474 -0.3066  0.0831
  147MOL0     C19305   1.383  -0.803   2.716 -0.0182  0.1119 -0.4106
  147MOL0     C19306   1.359  -0.853   2.854 -0.1908  0.5045  0.3007
  147MOL0     O19307   1.248  -0.817   2.920 -0.8682 -0.7366  0.2926
  147MOL0     C19308   1.268  -0.694   2.990 -0.3451  0.2753  0.1647
  147MOL0     C19309   1.300  -0.742   3.132 -0.2691  0.5990  0.0236
  147MOL0     C19310   1.311  -0.627   3.237 -0.6768 -0.0804  0.2677
  147MOL0     C19311   1.431  -0.535   3.223  0.8048  0.1529 -0.5671
  147MOL0     C19312   1.478  -0.467   3.353 -0.1252  0.0383 -0.7401
  147MOL0     C19313   1.365  -0.386   3.422 -0.2793  0.0292  0.0147
  147MOL0     C19314   1.344  -0.247   3.364  0.1933  0.6077  0.4104
  147MOL0     C19315   1.221  -0.196   3.428 -0.1498  0.1711 -0.6542
  147MOL0    Cl19316   1.176  -0.027   3.372 -0.2496 -0.5985 -0.0645
  147MOL0     C19317   1.455  -0.930   2.909 -0.5898 -0.6606 -0.1462
  147MOL0     C19318   1.563  -0.981   2.829 -0.2522 -0.1518 -0.1350
  147MOL0     O19319   1.765  -0.785   2.557 -0.4588  0.2242 -0.6516
  147MOL0     C19320   2.014  -0.892   2.488  0.3221  0.1476  0.1805
  147MOL0     C19321   2.119  -0.954   2.415  0.4693  0.0292  0.2356
  147MOL0     N19322   2.396  -0.887   1.745 -0.4770  0.1459  0.3679
  147MOL0     N19323   2.441  -0.830   1.635  0.7761  0.4771 -0.0063
  147MOL0     C19324   2.807  -0.112   1.013 -0.7099 -0.1423 -0.3119
  147MOL0     C19325   2.792   0.003   1.092  0.1930 -0.3662 -0.1949
  147MOL0     C19326   2.563   0.323   1.332  0.2521  0.0690 -0.2905
  147MOL0     C19327   2.688   0.383   1.365  0.0400  1.0522 -1.1487
  147MOL0     C19328   2.709   0.486   1.460  0.0060  0.5444 -0.2261
  147MOL0     C19329   2.597   0.520   1.537 -0.4589 -0.1026 -0.2854
  147MOL0     O19330   2.608   0.611   1.636  0.0754 -0.2662 -0.6776
  147MOL0     C19331   2.738   0.633   1.694 -0.6953 -0.2849 -0.4675
  147MOL0     C19332   2.716   0.748   1.792 -0.0191 -0.1708  0.6746
  147MOL0     C19333   2.709   0.888   1.737  0.0427  0.9382 -0.2061
  147MOL0     C19334   2.712   1.002   1.840 -0.2568 -0.3045  0.0724
  147MOL0     C19335   2.646   1.122   1.778 -0.0834  0.0608 -0.0569
  147MOL0     C19336   2.598   1.223   1.731 -0.8120 -0.1077 -0.7092
  147MOL0     C19337   2.472   0.461   1.515 -0.0708  0.3007 -0.6806
  147MOL0     C19338   2.450   0.360   1.413 -0.3363  0.0679  0.0120
  147MOL0     H19339   2.466   0.065   0.998  0.2295  0.8393  1.2886
  147MOL0     H19340   2.505  -0.144   0.876  1.5998 -1.8345  0.3741
  147MOL0     H19341   2.610  -0.317   0.704 -0.1581  1.7491 -0.3689
  147MOL0     H19342   2.556  -0.347   0.868 -1.3040  3.4780 -1.4575
  147MOL0     H19343   2.769  -0.499   0.726 -1.1873 -1.3935 -3.0644
  147MOL0     H19344   2.595  -0.539   0.741  1.1429 -0.6046 -1.6434
  147MOL0     H19345   2.752  -0.505   0.997 -0.4422  0.5133  0.3060
  147MOL0     H19346   2.775  -0.653   0.921  3.7467  3.2553  4.6381
  147MOL0     H19347   2.483  -0.555   0.980 -0.9552  0.0538  2.9913
  147MOL0     H19348   2.535  -0.704   0.908 -0.5216  0.2496  0.0012
  147MOL0     H19349   2.629  -0.583   1.180  0.1894 -1.0675  1.3484
  147MOL0     H19350   2.663  -0.745   1.124  0.6646  0.0633 -1.4641
  147MOL0     H19351   2.413  -0.786   1.129 -0.2389  0.7053 -1.0829
  147MOL0     H19352   2.391  -0.623   1.202 -1.5136 -1.5059 -0.6805
  147MOL0     H19353   2.553  -0.862   1.326 -0.3060 -0.3054 -0.3323
  147MOL0     H19354   2.553  -0.697   1.391  1.3481 -1.5738 -1.2811
  147MOL0     H19355   2.325  -0.891   1.336  1.0972 -1.6809  1.6877
  147MOL0     H19356   2.289  -0.739   1.422  0.9481  0.5381  2.4690
  147MOL0     H19357   2.223  -1.053   1.531  0.2331 -1.2890  1.9158
  147MOL0     H19358   2.321  -1.184   1.808  0.6286 -0.0088 -2.3051
  147MOL0     H19359   2.156  -1.118   1.763 -1.7827  0.8147  4.3740
  147MOL0     H19360   2.142  -0.973   1.936 -0.3580 -0.1875 -3.6609
  147MOL0     H19361   2.311  -0.959   1.967 -0.4840 -0.2044  1.5216
  147MOL0     H19362   2.128  -1.184   2.064 -0.0052 -0.0355  2.6047
  147MOL0     H19363   2.299  -1.214   2.038 -0.0344 -0.6951  0.0592
  147MOL0     H19364   2.209  -0.964   2.188  1.0731  1.3280  1.1786
  147MOL0     H19365   2.366  -1.033   2.190  0.9519 -2.3495 -2.9835
  147MOL0     H19366   1.990  -1.252   2.347  0.7478  0.6806 -1.5533
  147MOL0     H19367   1.793  -1.163   2.468 -0.9267 -0.1199 -3.8763
  147MOL0     H19368   1.521  -0.790   2.551 -0.2550  0.2103  0.4589
  147MOL0     H19369   1.314  -0.736   2.665  3.8893  3.5464 -1.7054
  147MOL0     H19370   1.181  -0.628   2.995 -0.2291  0.5032 -0.7918
  147MOL0     H19371   1.345  -0.634   2.941  0.3986  1.1395  2.2837
  147MOL0     H19372   1.394  -0.797   3.133  0.8495  2.3509 -1.6338
  147MOL0     H19373   1.215  -0.805   3.162 -2.9996  3.0500 -1.9438
  147MOL0     H19374   1.313  -0.669   3.338  2.2761  0.5366  0.5591
  147MOL0     H19375   1.219  -0.568   3.241  0.2628  1.3797  2.9480
  147MOL0     H19376   1.504  -0.604   3.180 -1.7539 -1.7243 -2.2360
  147MOL0     H19377   1.426  -0.451   3.154  2.7796 -1.7303 -3.2154
  147MOL0     H19378   1.574  -0.415   3.342  0.8515 -1.7600 -1.1250
  147MOL0     H19379   1.501  -0.539   3.432  1.0178  0.9677 -0.1796
  147MOL0     H19380   1.407  -0.362   3.520  0.9243  3.1373 -1.1234
  147MOL0     H19381   1.279  -0.454   3.425 -1.5805  1.6155  0.1350
  147MOL0     H19382   1.426  -0.176   3.380  2.3239 -1.7100  0.3450
  147MOL0     H19383   1.325  -0.264   3.258 -0.1674  0.9365  0.4205
  147MOL0     H19384   1.230  -0.188   3.536 -1.3563  0.5462 -0.5661
  147MOL0     H19385   1.140  -0.265   3.402 -1.5838  2.8255 -4.0858
  147MOL0     H19386   1.445  -0.962   3.012 -1.2745  2.4508  0.8527
  147MOL0     H19387   1.636  -1.042   2.881  1.9076  1.0482 -1.6001
  147MOL0     H19388   2.040  -0.792   2.521  0.6474  0.6289 -1.4381
  147MOL0     H19389   2.220  -0.916   2.404  0.7688 -0.6382  0.6608
  147MOL0     H19390   2.908  -0.148   1.027 -0.7809 -0.2093  0.0254
  147MOL0     H19391   2.871   0.033   1.160  0.7570 -0.7365 -0.6824
  147MOL0     H19392   2.769   0.334   1.312 -1.0735 -0.1659 -1.7855
  147MOL0     H19393   2.807   0.532   1.466 -0.3243  1.2738 -0.2800
  147MOL0     H19394   2.814   0.669   1.623 -0.6117 -0.2467 -0.3577
  147MOL0     H19395   2.768   0.543   1.747 -0.5685 -0.3194 -0.5967
  147MOL0     H19396   2.628   0.726   1.852 -0.6971  0.3921 -0.1011
  147MOL0     H19397   2.795   0.738   1.868 -1.5538 -0.8554  2.2502
  147MOL0     H19398   2.612   0.888   1.686  0.0550 -2.9025 -0.4528
  147MOL0     H19399   2.796   0.899   1.671  0.0485 -2.2793 -0.8540
  147MOL0     H19400   2.663   0.979   1.936 -1.2914 -0.0637 -0.3857
  147MOL0     H19401   2.818   1.019   1.862 -0.4827 -3.2657  5.0244
  147MOL0     H19402   2.555   1.318   1.710  1.7533  1.2381 -0.2299
  147MOL0     H19403   2.395   0.498   1.583  1.5319  0.2466  1.2468
  147MOL0     H19404   2.346   0.331   1.396 -0.9402  1.4990  1.0106
  148MOL0     O19405   0.862   6.163  11.260  0.3937  0.1930 -0.1320
  148MOL0     C19406   0.843   6.048  11.230 -0.1693  0.2685  0.0110
  148MOL0     O19407   0.732   5.982  11.249  0.4157 -0.2254  0.8609
  148MOL0     C19408   0.606   6.027  11.243 -0.2052 -0.5840 -0.0965
  148MOL0     C19409   0.508   5.946  11.295  0.2841 -1.2582 -0.6871
  148MOL0     C19410   0.380   5.995  11.300 -0.3441  0.3429  0.5376
  148MOL0     C19411   0.338   6.110  11.232  0.1009 -0.2448  0.0825
  148MOL0     O19412   0.203   6.148  11.235  0.2863  0.4591 -0.0395
  148MOL0     C19413   0.099   6.049  11.256  1.5101 -0.0792 -0.3877
  148MOL0     C19414  -0.037   6.110  11.198 -0.8302  0.0775 -0.0510
  148MOL0     C19415  -0.071   6.252  11.260 -0.0084  1.1974  0.5943
  148MOL0     C19416  -0.214   6.296  11.239  0.0087  0.8156  0.2451
  148MOL0     C19417  -0.232   6.438  11.275 -0.8556  1.1312 -0.0407
  148MOL0     C19418  -0.226   6.464  11.427 -0.3098  0.3379  0.4026
  148MOL0     C19419  -0.311   6.395  11.524  0.4662  0.2374  0.9888
  148MOL0     C19420  -0.462   6.417  11.501  0.3668 -0.6685 -1.1452
  148MOL0     N19421  -0.498   6.560  11.508 -0.6619 -0.8356  0.4221
  148MOL0     C19422  -0.514   6.627  11.627  0.9538  0.1103 -0.9688
  148MOL0     C19423  -0.603   6.732  11.600  0.1190  0.4752 -1.0152
  148MOL0     C19424  -0.669   6.823  11.705 -0.5051 -0.3207 -0.4554
  148MOL0     C19425  -0.810   6.777  11.734  0.1302  0.0724 -0.1454
  148MOL0     C19426  -0.887   6.872  11.829 -0.6609  0.0509  0.6394
  148MOL0     C19427  -1.024   6.817  11.856  0.2149 -0.3912  0.3045
  148MOL0     O19428  -1.096   6.899  11.954  0.2776 -0.1838  0.4690
  148MOL0     C19429  -1.232   6.878  11.965  0.7519 -1.0504  0.2679
  148MOL0     C19430  -1.311   6.795  11.890 -0.4988  0.7683  0.3458
  148MOL0     C19431  -1.450   6.789  11.904  0.3699 -0.5108 -0.5142
  148MOL0     C19432  -1.523   6.873  11.992 -0.8031  0.2602 -0.4284
  148MOL0     C19433  -1.669   6.870  12.013 -0.2433 -0.0149  0.7794
  148MOL0     O19434  -1.731   6.961  12.107 -0.1089 -0.2322 -0.2757
  148MOL0     C19435  -1.870   6.936  12.120 -0.7871 -0.0185 -0.7068
  148MOL0     C19436  -1.912   6.880  12.237  0.2247 -0.4086 -0.0115
  148MOL0     C19437  -2.054   6.886  12.257  0.1828  0.1911 -0.6024
  148MOL0     C19438  -2.144   6.928  12.168 -0.1825  0.0420 -0.0730
  148MOL0     O19439  -2.277   6.892  12.186  0.9188  0.9653  0.2351
  148MOL0     C19440  -2.335   6.921  12.315  0.8960 -0.2151  0.9201
  148MOL0     C19441  -2.432   6.818  12.370 -0.2046 -0.5159  0.2812
  148MOL0     C19442  -2.359   6.690  12.367 -0.0889 -0.1306  0.3879
  148MOL0     C19443  -2.435   6.592  12.447 -0.0968  0.0022  0.1244
  148MOL0     C19444  -2.358   6.465  12.474 -0.6441  0.3205 -0.3895
  148MOL0     C19445  -2.263   6.478  12.594  1.0291 -0.1957  0.1059
  148MOL0     C19446  -2.201   6.340  12.637 -0.7060  0.5002 -0.0754
  148MOL0     C19447  -2.175   6.235  12.530 -0.3948 -0.5776 -0.7444
  148MOL0    Cl19448  -2.050   6.312  12.425 -0.1824  0.3510 -0.4975
  148MOL0     C19449  -2.096   6.970  12.041  0.0308 -0.5453  0.3435
  148MOL0     C19450  -1.962   6.971  12.012  0.0263  0.1472  0.1604
  148MOL0     O19451  -1.731   6.803  11.934 -0.3431  0.3722  0.2024
  148MOL0     C19452  -1.443   6.955  12.082 -0.3846  0.4027 -0.7760
  148MOL0     C19453  -1.302   6.958  12.059  0.0456 -0.6495 -0.3336
  148MOL0     N19454  -0.617   6.738  11.461 -1.0031  0.4825  0.6598
  148MOL0     N19455  -0.557   6.632  11.411  0.3222  0.0461  0.2391
  148MOL0     C19456   0.436   6.190  11.178  0.6276  0.0833  0.0151
  148MOL0     C19457   0.569   6.160  11.188 -0.0614  0.6302 -0.2048
  148MOL0     C19458   0.956   5.973  11.162  0.7378  0.6087 -0.9182
  148MOL0     C19459   0.960   5.831  11.155  0.0500 -0.4742  0.8325
  148MOL0     C19460   1.076   5.771  11.107  0.4282  0.2098 -0.4543
  148MOL0     C19461   1.194   5.839  11.080 -0.5045 -0.5660  0.7221
  148MOL0     O19462   1.316   5.774  11.043  0.0429 -0.0087  0.2182
  148MOL0     C19463   1.438   5.827  11.101  0.8429  0.6493  0.4549
  148MOL0     C19464   1.566   5.738  11.069  0.1247  0.3287  0.1255
  148MOL0     C19465   1.686   5.797  11.140 -1.2879 -0.0969 -0.0112
  148MOL0     C19466   1.815   5.754  11.070 -0.4272  0.0625  1.4093
  148MOL0     C19467   1.858   5.621  11.094  1.6302  0.3106 -0.3923
  148MOL0     C19468   1.882   5.502  11.102  0.1037 -0.8922 -0.2803
  148MOL0     C19469   1.185   5.978  11.068  0.5952 -0.1472 -0.2698
  148MOL0     C19470   1.065   6.050  11.104 -0.3760  0.4620 -0.3272
  148MOL0     H19471   0.527   5.851  11.343 -1.8270 -1.0717  0.6664
  148MOL0     H19472   0.309   5.927  11.347 -2.5752  1.9894 -0.2298
  148MOL0     H19473   0.083   6.019  11.360  1.1305  0.4333 -0.2936
  148MOL0     H19474   0.112   5.955  11.202  0.3337 -0.2599 -0.3843
  148MOL0     H19475  -0.110   6.032  11.222 -0.5963  0.2662  1.3758
  148MOL0     H19476  -0.037   6.127  11.090  1.5185 -2.8095 -0.6597
  148MOL0     H19477   0.008   6.312  11.214  0.2125  0.3382 -0.1873
  148MOL0     H19478  -0.047   6.241  11.366  4.9395  1.9026 -0.2212
  148MOL0     H19479  -0.233   6.292  11.131  1.0193  0.6815  0.0650
  148MOL0     H19480  -0.288   6.225  11.278  0.7305 -1.8660 -2.7807
  148MOL0     H19481  -0.329   6.473  11.238 -0.7754  1.5317  0.1173
  148MOL0     H19482  -0.155   6.492  11.220 -2.2115  0.9177 -2.2602
  148MOL0     H19483  -0.249   6.571  11.435  0.6246  0.7875 -2.0195
  148MOL0     H19484  -0.126   6.435  11.461 -0.8719 -2.2287  0.0696
  148MOL0     H19485  -0.289   6.288  11.517 -1.0798  0.0118 -1.5541
  148MOL0     H19486  -0.286   6.424  11.626 -1.1168 -2.8783  2.4252
  148MOL0     H19487  -0.509   6.360  11.582  2.2586 -1.6596 -0.6839
  148MOL0     H19488  -0.485   6.378  11.401 -3.1030 -1.0359 -0.3253
  148MOL0     H19489  -0.480   6.589  11.722 -2.7881 -0.3200  0.3497
  148MOL0     H19490  -0.673   6.923  11.662 -0.1885  0.1775  0.6275
  148MOL0     H19491  -0.612   6.842  11.797  0.5361  1.3313 -1.3950
  148MOL0     H19492  -0.810   6.673  11.769  1.4352 -0.3391 -1.2645
  148MOL0     H19493  -0.866   6.764  11.641  1.4056 -0.5447 -0.8689
  148MOL0     H19494  -0.825   6.890  11.918  0.5185  0.7585 -0.3019
  148MOL0     H19495  -0.887   6.965  11.772  0.6889 -2.1738 -3.4088
  148MOL0     H19496  -1.031   6.711  11.879 -0.4172 -0.8546 -1.7572
  148MOL0     H19497  -1.084   6.830  11.765  0.2184  1.0166  0.4784
  148MOL0     H19498  -1.270   6.732  11.810 -0.2641  0.6693  0.5429
  148MOL0     H19499  -1.493   6.703  11.853  0.2689 -0.0130 -1.2734
  148MOL0     H19500  -1.833   6.859  12.308  1.1958  1.3549 -0.5117
  148MOL0     H19501  -2.086   6.855  12.356 -0.5405  0.3120 -0.7959
  148MOL0     H19502  -2.383   7.019  12.316 -1.6805 -1.3719 -0.2898
  148MOL0     H19503  -2.260   6.949  12.390  0.1600  0.6737  1.3438
  148MOL0     H19504  -2.511   6.807  12.295  0.0806 -1.6542  0.1305
  148MOL0     H19505  -2.482   6.840  12.465 -1.5332  1.4984 -0.8125
  148MOL0     H19506  -2.263   6.707  12.415  0.4933  1.1628 -1.1270
  148MOL0     H19507  -2.328   6.651  12.270  1.5750  0.2488  0.7343
  148MOL0     H19508  -2.472   6.633  12.542 -1.4724  0.4967 -0.5995
  148MOL0     H19509  -2.527   6.557  12.398 -0.9281  1.3546  0.6532
  148MOL0     H19510  -2.292   6.444  12.390  0.6200  0.2644  0.6017
  148MOL0     H19511  -2.424   6.379  12.489 -0.2686  0.3935  1.9848
  148MOL0     H19512  -2.320   6.529  12.672  2.2742  0.4154  0.6464
  148MOL0     H19513  -2.177   6.542  12.573  0.7893  0.4252  0.9508
  148MOL0     H19514  -2.113   6.352  12.701 -0.3783  0.3090 -0.4909
  148MOL0     H19515  -2.271   6.295  12.709  1.3639  1.0893  2.4477
  148MOL0     H19516  -2.270   6.224  12.475 -0.3732  0.2741 -0.9687
  148MOL0     H19517  -2.144   6.139  12.571 -0.2642 -0.5228 -0.7156
  148MOL0     H19518  -2.168   6.994  11.963 -2.2093  1.1276  2.7658
  148MOL0     H19519  -1.922   7.003  11.916 -0.1155  1.0134  0.3806
  148MOL0     H19520  -1.492   7.007  12.164 -1.5155 -1.6024 -0.0951
  148MOL0     H19521  -1.242   7.012  12.133 -0.9261 -0.6411  0.4759
  148MOL0     H19522   0.414   6.290  11.143 -4.4492 -0.4364  0.9645
  148MOL0     H19523   0.649   6.224  11.154  0.2869 -0.7556 -2.1068
  148MOL0     H19524   0.892   5.754  11.189  3.2161 -3.8485  0.1894
  148MOL0     H19525   1.066   5.663  11.105 -5.7346  0.4349 -0.7682
  148MOL0     H19526   1.439   5.830  11.210 -0.2002  1.5973  0.4567
  148MOL0     H19527   1.464   5.925  11.061  0.1023  0.8569  0.4708
  148MOL0     H19528   1.559   5.630  11.087  3.1686 -0.5628 -2.9226
  148MOL0     H19529   1.577   5.756  10.961 -0.8218  1.2210  0.1592
  148MOL0     H19530   1.679   5.767  11.245 -0.6003 -0.8930 -0.1819
  148MOL0     H19531   1.678   5.905  11.124  3.0832  0.2778 -0.7567
  148MOL0     H19532   1.809   5.765  10.961  1.5804  1.5226  1.3909
  148MOL0     H19533   1.901   5.813  11.104  0.8248 -1.6928  1.4333
  148MOL0     H19534   1.892   5.396  11.112 -0.3007 -1.2662 -3.1538
  148MOL0     H19535   1.282   6.018  11.040  1.8846 -3.2091 -0.5750
  148MOL0     H19536   1.074   6.158  11.107 -2.9245  0.7210  0.1369
  149MOL0     O19537   8.147   3.123   7.874 -0.0370 -0.2062 -0.5320
  149MOL0     C19538   8.150   3.030   7.798  0.5701  0.3117 -0.0973
  149MOL0     O19539   8.263   2.988   7.733 -0.0681  0.6727 -0.0422
  149MOL0     C19540   8.388   3.041   7.751  0.7016 -0.5391 -0.3496
  149MOL0     C19541   8.418   3.170   7.794 -0.0166 -0.2205  0.2583
  149MOL0     C19542   8.551   3.218   7.797  0.5827 -0.4157  0.1211
  149MOL0     C19543   8.665   3.135   7.753  0.9373  0.8862 -0.0391
  149MOL0     O19544   8.790   3.187   7.747 -0.4478  1.0400  0.4291
  149MOL0     C19545   8.896   3.115   7.676 -0.5097 -0.7075 -0.5100
  149MOL0     C19546   9.017   3.192   7.659 -0.0150 -0.0917  0.5926
  149MOL0     C19547   9.074   3.246   7.789  0.2639  0.6039  0.4684
  149MOL0     C19548   9.103   3.131   7.894 -0.1834  0.3971 -0.5660
  149MOL0     C19549   9.210   3.172   8.004 -1.0577 -0.1948 -0.3489
  149MOL0     C19550   9.349   3.210   7.952  0.0496 -0.3787 -0.0670
  149MOL0     C19551   9.405   3.137   7.832  0.0527  0.7026  0.0050
  149MOL0     C19552   9.439   2.992   7.859 -0.4302  0.7561 -0.2321
  149MOL0     N19553   9.538   2.996   7.972 -0.0436  0.2537  0.2221
  149MOL0     C19554   9.663   3.049   7.964 -0.5110 -0.4632 -0.1257
  149MOL0     C19555   9.720   3.042   8.086 -0.3833 -0.6738 -0.2853
  149MOL0     C19556   9.851   3.097   8.132 -0.2077  0.5827  0.2273
  149MOL0     C19557   9.942   2.979   8.132 -0.2100  0.3508  1.0043
  149MOL0     C19558   9.991   2.932   8.269 -0.3517  0.5517 -0.7576
  149MOL0     C19559   9.870   2.902   8.368  0.4543 -0.4018 -0.1000
  149MOL0     O19560   9.928   2.868   8.493 -0.7729  0.0444 -0.2829
  149MOL0     C19561   9.836   2.839   8.590  0.4358 -0.2544 -0.7119
  149MOL0     C19562   9.879   2.787   8.711 -1.2566 -0.1637  1.1900
  149MOL0     C19563   9.800   2.738   8.809  0.1854  0.5842 -0.6291
  149MOL0     C19564   9.662   2.764   8.802 -0.7489  0.1153 -0.2518
  149MOL0     C19565   9.569   2.745   8.918  0.0955 -0.4652 -0.6201
  149MOL0     O19566   9.430   2.731   8.895 -0.1401 -0.2342  0.5826
  149MOL0     C19567   9.331   2.713   8.990  0.1052  0.3032 -1.4015
  149MOL0     C19568   9.339   2.601   9.079 -0.3708 -0.5604 -0.2459
  149MOL0     C19569   9.253   2.586   9.186 -1.2024 -0.2447  0.8744
  149MOL0     C19570   9.136   2.655   9.188  0.8197 -0.1877 -1.1604
  149MOL0     O19571   9.044   2.627   9.289  0.1858  0.0789 -0.9439
  149MOL0     C19572   8.964   2.724   9.346  0.4211 -0.3131 -0.0182
  149MOL0     C19573   8.959   2.670   9.491  0.2300  0.4439 -0.7332
  149MOL0     C19574   9.087   2.675   9.573 -0.5194  0.4747 -0.7373
  149MOL0     C19575   9.063   2.682   9.723 -0.6138  0.6811  0.1286
  149MOL0     C19576   9.153   2.767   9.806 -0.0301  0.1464 -0.8596
  149MOL0     C19577   9.137   2.740   9.954  0.4859 -0.0432  0.1364
  149MOL0     C19578   9.231   2.825  10.042 -0.1715  0.7617 -0.0316
  149MOL0     C19579   9.377   2.781  10.030 -0.3352  0.9262 -0.2912
  149MOL0    Cl19580   9.479   2.871  10.158 -0.1681  0.2714  0.2444
  149MOL0     C19581   9.109   2.756   9.091 -0.4792  0.2998  0.3574
  149MOL0     C19582   9.208   2.781   8.983  1.1816 -0.2236 -0.2834
  149MOL0     O19583   9.620   2.739   9.035  0.4353  0.1330  0.6644
  149MOL0     C19584   9.617   2.819   8.686  0.6164  1.3575  0.2471
  149MOL0     C19585   9.697   2.853   8.584 -0.3798 -0.1741  0.1801
  149MOL0     N19586   9.625   2.974   8.163  0.0107 -0.2792  0.2389
  149MOL0     N19587   9.515   2.956   8.103  0.0105  0.5863 -0.2169
  149MOL0     C19588   8.634   3.006   7.736 -0.1805 -0.2231  0.4121
  149MOL0     C19589   8.500   2.955   7.734 -0.7442  0.0327 -0.4211
  149MOL0     C19590   8.009   2.974   7.776  0.3113  0.6524  0.2151
  149MOL0     C19591   7.884   3.035   7.806 -0.1889 -0.6512 -0.3472
  149MOL0     C19592   7.764   2.980   7.764  0.5677  0.1353  0.4719
  149MOL0     C19593   7.747   2.856   7.705 -0.6488 -0.1835  0.0099
  149MOL0     O19594   7.625   2.794   7.678 -0.4347  0.0893  0.7673
  149MOL0     C19595   7.594   2.758   7.542 -0.1900 -0.3959  0.5107
  149MOL0     C19596   7.587   2.610   7.526  0.7585  0.3166 -0.7523
  149MOL0     C19597   7.450   2.547   7.563  0.4958 -0.7046  0.7419
  149MOL0     C19598   7.343   2.541   7.454  0.0635  0.9494 -0.4504
  149MOL0     C19599   7.362   2.436   7.364 -0.6108 -1.0365  0.0337
  149MOL0     C19600   7.378   2.358   7.274 -0.2192 -0.4819 -0.1986
  149MOL0     C19601   7.874   2.790   7.677 -0.2035  0.5589  0.8807
  149MOL0     C19602   7.996   2.854   7.702  0.3697  0.3012  0.0857
  149MOL0     H19603   8.342   3.247   7.796  0.0938 -0.0888 -0.2795
  149MOL0     H19604   8.561   3.326   7.798 -1.3260 -0.0583 -2.9381
  149MOL0     H19605   8.865   3.082   7.577  0.0689 -0.1221 -0.8914
  149MOL0     H19606   8.919   3.022   7.729  1.6822  0.2176  0.2754
  149MOL0     H19607   8.977   3.275   7.601 -2.4791 -0.4465  1.6209
  149MOL0     H19608   9.087   3.145   7.590  0.2261  0.9383  0.1177
  149MOL0     H19609   9.016   3.326   7.835 -0.0587  0.6133  0.0514
  149MOL0     H19610   9.169   3.294   7.764 -0.1162  0.9746 -0.2816
  149MOL0     H19611   9.007   3.115   7.944 -0.1934  1.8460 -0.0793
  149MOL0     H19612   9.145   3.044   7.842 -0.3936  1.2134 -2.1773
  149MOL0     H19613   9.230   3.086   8.070  0.4893 -2.2260 -3.2308
  149MOL0     H19614   9.172   3.250   8.070  1.9067 -0.1991  1.5653
  149MOL0     H19615   9.405   3.198   8.045  0.4793  1.5933 -0.0308
  149MOL0     H19616   9.345   3.316   7.928  0.1130 -0.0604  1.2853
  149MOL0     H19617   9.336   3.138   7.746 -0.1542 -0.4073  0.1390
  149MOL0     H19618   9.499   3.186   7.806  1.8066 -1.8517  1.0714
  149MOL0     H19619   9.466   2.930   7.773 -4.2821 -3.7719  1.3369
  149MOL0     H19620   9.347   2.941   7.890  0.5609 -0.0209  1.5893
  149MOL0     H19621   9.696   3.107   7.879  1.9294 -1.9679 -0.2914
  149MOL0     H19622   9.840   3.149   8.227  1.2590  1.0790  0.1385
  149MOL0     H19623   9.882   3.175   8.062  4.3745 -1.8996 -0.8785
  149MOL0     H19624  10.017   3.011   8.059 -0.4144  2.6282  1.7360
  149MOL0     H19625   9.891   2.893   8.088  1.6607 -1.4132  2.0969
  149MOL0     H19626  10.046   2.838   8.253 -0.3569  0.4739 -0.3271
  149MOL0     H19627  10.069   2.993   8.315 -1.0375  0.6747  0.2536
  149MOL0     H19628   9.803   2.829   8.321 -1.2521  1.5150 -0.8401
  149MOL0     H19629   9.815   2.997   8.374  4.4030  2.0337  3.1340
  149MOL0     H19630   9.983   2.762   8.727 -0.4643  0.3908 -2.3078
  149MOL0     H19631   9.842   2.707   8.905 -1.2685  1.0714  0.1921
  149MOL0     H19632   9.437   2.554   9.076  0.0972  0.3024  0.9838
  149MOL0     H19633   9.270   2.508   9.260 -1.1299  2.7471  4.3513
  149MOL0     H19634   8.861   2.742   9.313  0.5378  0.2229 -0.0948
  149MOL0     H19635   9.019   2.817   9.359 -3.5279  2.0762  1.4375
  149MOL0     H19636   8.929   2.565   9.486  0.4954  0.4016 -1.4921
  149MOL0     H19637   8.880   2.728   9.539  1.7520  0.2982  2.2252
  149MOL0     H19638   9.144   2.762   9.540  2.4531 -0.5956  1.1221
  149MOL0     H19639   9.152   2.588   9.557 -0.6974 -0.3696  2.4545
  149MOL0     H19640   8.959   2.710   9.742 -1.0709 -1.4100  1.0401
  149MOL0     H19641   9.067   2.579   9.759  0.7119 -0.1829 -2.2912
  149MOL0     H19642   9.116   2.868   9.786 -0.0367 -0.1772 -2.7039
  149MOL0     H19643   9.259   2.758   9.780  0.6886  0.8036  1.6032
  149MOL0     H19644   9.156   2.632   9.958  0.8739 -0.0573 -1.4100
  149MOL0     H19645   9.033   2.757   9.981  0.0852 -0.6828 -0.9559
  149MOL0     H19646   9.223   2.933  10.026  0.1760  0.8145  0.1286
  149MOL0     H19647   9.208   2.807  10.147 -1.5252 -2.0660 -0.6964
  149MOL0     H19648   9.416   2.810   9.931  3.5217 -1.7020  0.2357
  149MOL0     H19649   9.390   2.673  10.039 -0.9843  1.0502  3.3425
  149MOL0     H19650   9.014   2.806   9.083 -0.3329  0.4064 -0.8372
  149MOL0     H19651   9.189   2.860   8.911  1.6533  0.0129 -0.1595
  149MOL0     H19652   9.514   2.854   8.685  0.7209  1.6475 -0.4561
  149MOL0     H19653   9.653   2.901   8.497 -2.8830 -0.0967  1.3938
  149MOL0     H19654   8.707   2.928   7.712  1.5809  0.8823  1.9031
  149MOL0     H19655   8.488   2.850   7.714  1.4699  0.1775 -3.1128
  149MOL0     H19656   7.877   3.127   7.863  2.6581  0.1853 -1.2181
  149MOL0     H19657   7.664   3.018   7.781 -0.0344 -0.6637 -1.0857
  149MOL0     H19658   7.666   2.806   7.475 -0.0856  0.6964  1.3779
  149MOL0     H19659   7.500   2.799   7.501 -1.5396 -0.7239  3.0663
  149MOL0     H19660   7.597   2.580   7.421 -0.2652 -1.9096 -0.2688
  149MOL0     H19661   7.666   2.564   7.585  0.9076 -0.8287 -1.7981
  149MOL0     H19662   7.407   2.605   7.645  4.0584  1.2798  1.4192
  149MOL0     H19663   7.466   2.445   7.599  3.9092 -1.0064 -1.2176
  149MOL0     H19664   7.249   2.531   7.510  1.4654 -2.5005  1.5972
  149MOL0     H19665   7.320   2.638   7.410  1.1047  2.5583  2.2844
  149MOL0     H19666   7.388   2.294   7.189  0.2230  1.1715 -1.4505
  149MOL0     H19667   7.869   2.695   7.625  1.4596  0.0618  1.5650
  149MOL0     H19668   8.085   2.801   7.668 -0.4283 -0.2272 -1.2335
  150MOL0     O19669   0.618   8.450   7.680 -0.8396  0.0896  0.6949
  150MOL0     C19670   0.646   8.356   7.755 -1.0781  1.2127  0.1912
  150MOL0     O19671   0.559   8.288   7.832  0.0628 -0.1849 -0.5617
  150MOL0     C19672   0.424   8.297   7.821  0.9673 -0.4272  0.5230
  150MOL0     C19673   0.362   8.410   7.779 -0.5865 -0.4765  1.2638
  150MOL0     C19674   0.233   8.416   7.738  0.6300 -0.7129 -0.3369
  150MOL0     C19675   0.152   8.307   7.755 -0.6427  0.4925  0.1987
  150MOL0     O19676   0.029   8.308   7.690  1.0055 -0.7394 -0.4683
  150MOL0     C19677  -0.032   8.185   7.662  0.2895  0.5029  0.3478
  150MOL0     C19678  -0.162   8.197   7.578  0.3212  0.1495 -0.1995
  150MOL0     C19679  -0.271   8.258   7.667 -0.8197 -0.8618  0.0501
  150MOL0     C19680  -0.406   8.276   7.608 -0.1873 -0.1896 -0.8013
  150MOL0     C19681  -0.491   8.382   7.689  0.2089  1.0467 -0.7720
  150MOL0     C19682  -0.518   8.337   7.838 -0.1793 -1.5274 -0.1965
  150MOL0     C19683  -0.648   8.251   7.865 -0.6351  0.1341  1.0633
  150MOL0     C19684  -0.621   8.099   7.836  0.7411 -0.6434 -0.5370
  150MOL0     N19685  -0.737   8.009   7.837  0.3281 -0.1433 -0.3390
  150MOL0     C19686  -0.855   8.024   7.778 -0.5701  0.0997  0.7992
  150MOL0     C19687  -0.921   7.903   7.787 -0.4221 -0.4798 -0.3500
  150MOL0     C19688  -1.048   7.883   7.713  0.2849 -0.8483  0.3171
  150MOL0     C19689  -1.170   7.969   7.758  0.5498  0.5557  0.1984
  150MOL0     C19690  -1.303   7.939   7.680  0.0261 -0.4766 -0.2297
  150MOL0     C19691  -1.399   8.056   7.659 -0.2211 -0.0877 -0.3760
  150MOL0     O19692  -1.486   8.057   7.765  0.0044 -0.5215  0.0984
  150MOL0     C19693  -1.605   8.124   7.754  0.9988  0.0571  0.1424
  150MOL0     C19694  -1.623   8.237   7.675 -0.8606 -0.3431 -0.3274
  150MOL0     C19695  -1.748   8.297   7.655  0.9019 -0.3152  0.1487
  150MOL0     C19696  -1.866   8.249   7.725  0.5605  0.0584 -0.0132
  150MOL0     C19697  -1.994   8.319   7.705 -0.4145  1.2156 -1.5019
  150MOL0     O19698  -2.095   8.275   7.790 -0.1381 -0.1197 -0.0220
  150MOL0     C19699  -2.226   8.291   7.750 -0.1582  1.1643  0.2753
  150MOL0     C19700  -2.309   8.180   7.787  0.9257 -0.4689  0.3326
  150MOL0     C19701  -2.441   8.174   7.734 -0.0860 -0.1229 -0.5694
  150MOL0     C19702  -2.503   8.288   7.679 -0.0883  0.2371  0.4008
  150MOL0     O19703  -2.637   8.293   7.654  0.4672 -0.4581  1.1853
  150MOL0     C19704  -2.724   8.172   7.637  1.0140 -0.7952  0.0374
  150MOL0     C19705  -2.784   8.122   7.764  0.4738 -0.0833 -0.0345
  150MOL0     C19706  -2.858   7.996   7.734  0.2569  0.7805 -0.2503
  150MOL0     C19707  -2.968   7.978   7.840 -0.3685  0.2228 -1.3444
  150MOL0     C19708  -3.056   7.865   7.806 -0.0890 -0.1728  0.3432
  150MOL0     C19709  -3.133   7.825   7.937 -0.5759  0.2697 -0.2410
  150MOL0     C19710  -3.231   7.711   7.911  1.0437  1.3323 -0.8217
  150MOL0     C19711  -3.326   7.706   8.031  0.2128  0.0907 -0.7127
  150MOL0    Cl19712  -3.255   7.645   8.184  0.3475 -0.0253  0.0038
  150MOL0     C19713  -2.420   8.399   7.659 -0.1756  0.0645  0.0798
  150MOL0     C19714  -2.286   8.398   7.691 -0.1357 -0.1131  0.1085
  150MOL0     O19715  -2.007   8.383   7.605 -0.3057 -0.5115  0.3395
  150MOL0     C19716  -1.844   8.151   7.821  0.0021  0.3393 -0.5212
  150MOL0     C19717  -1.719   8.084   7.829 -0.2804  0.5144 -0.2478
  150MOL0     N19718  -0.844   7.817   7.865  0.0173  0.3543  0.9676
  150MOL0     N19719  -0.730   7.881   7.889 -1.0008  0.8795  0.0334
  150MOL0     C19720   0.207   8.187   7.803 -0.6744 -0.0768  0.1609
  150MOL0     C19721   0.347   8.190   7.837 -0.1813  0.7472  0.3460
  150MOL0     C19722   0.782   8.305   7.769 -1.5202  0.4128 -0.6366
  150MOL0     C19723   0.802   8.187   7.853  0.1741  0.0925  0.0943
  150MOL0     C19724   0.928   8.127   7.870  0.0193 -0.4845 -0.2969
  150MOL0     C19725   1.039   8.194   7.821  0.3438 -1.1339  0.3955
  150MOL0     O19726   1.163   8.154   7.861 -0.1333  0.3837  0.3266
  150MOL0     C19727   1.185   8.013   7.835  0.0952 -0.2560 -0.4178
  150MOL0     C19728   1.332   7.991   7.830 -0.6745  0.5182  1.1060
  150MOL0     C19729   1.431   8.110   7.849  0.3267 -0.2032  0.3596
  150MOL0     C19730   1.577   8.064   7.846 -0.3134 -0.3351 -0.0558
  150MOL0     C19731   1.620   8.030   7.981  0.2662  0.0519  0.9444
  150MOL0     C19732   1.656   7.995   8.090 -1.5020  0.1065  0.5836
  150MOL0     C19733   1.030   8.316   7.757 -0.6266 -0.8479 -0.2980
  150MOL0     C19734   0.901   8.365   7.717  0.4287  0.4838 -0.1147
  150MOL0     H19735   0.417   8.502   7.760 -0.1608 -1.1187 -0.8995
  150MOL0     H19736   0.187   8.507   7.700 -1.1124 -0.8096  1.3598
  150MOL0     H19737  -0.061   8.120   7.745 -1.2369 -0.8597 -1.1896
  150MOL0     H19738   0.039   8.130   7.600 -1.6047 -1.0391 -0.5538
  150MOL0     H19739  -0.199   8.103   7.536 -1.1932  1.7857 -2.7852
  150MOL0     H19740  -0.143   8.268   7.497 -0.1658 -0.3023 -0.7221
  150MOL0     H19741  -0.224   8.351   7.701  4.6986 -3.1761 -0.1283
  150MOL0     H19742  -0.279   8.189   7.751 -1.4999  0.1173  0.8143
  150MOL0     H19743  -0.400   8.309   7.504  3.8535  2.3938  0.0168
  150MOL0     H19744  -0.454   8.178   7.608  3.1141 -1.9745  0.9248
  150MOL0     H19745  -0.585   8.394   7.633 -0.1297  1.5198 -0.1198
  150MOL0     H19746  -0.444   8.480   7.681  1.6667  0.3921 -0.5117
  150MOL0     H19747  -0.527   8.436   7.884  0.1292 -0.8598 -1.5298
  150MOL0     H19748  -0.433   8.282   7.880  0.8970  1.6274  2.2186
  150MOL0     H19749  -0.673   8.255   7.972 -0.2531 -3.8559  1.4332
  150MOL0     H19750  -0.730   8.283   7.800 -1.4100 -1.4185  1.2401
  150MOL0     H19751  -0.540   8.056   7.896 -0.5208 -0.9941  1.0037
  150MOL0     H19752  -0.591   8.089   7.732  1.1237  2.9246 -0.8835
  150MOL0     H19753  -0.888   8.113   7.725 -0.4194 -1.1166 -1.4316
  150MOL0     H19754  -1.079   7.780   7.731 -0.3690 -0.1768  3.8851
  150MOL0     H19755  -1.041   7.896   7.605 -1.2303  4.8516  0.5582
  150MOL0     H19756  -1.148   8.076   7.765 -0.9937  0.8754  0.5943
  150MOL0     H19757  -1.182   7.948   7.865  1.0376 -3.5508 -0.3931
  150MOL0     H19758  -1.278   7.901   7.580  0.7859  0.1464 -0.2847
  150MOL0     H19759  -1.360   7.850   7.707 -2.2119  0.0467 -2.7025
  150MOL0     H19760  -1.459   8.038   7.570 -0.0073 -1.8967 -0.1800
  150MOL0     H19761  -1.351   8.152   7.640 -0.2875 -0.4618 -2.6606
  150MOL0     H19762  -1.541   8.267   7.610 -0.1107 -0.0888  0.7084
  150MOL0     H19763  -1.750   8.382   7.587  0.5508 -0.1991  0.3019
  150MOL0     H19764  -2.267   8.096   7.841 -2.1913 -2.1615  0.3095
  150MOL0     H19765  -2.495   8.080   7.750 -0.7287  0.6617  2.6652
  150MOL0     H19766  -2.664   8.100   7.582  0.4189  0.0405 -1.8080
  150MOL0     H19767  -2.809   8.187   7.569 -0.7933 -0.6917  2.1750
  150MOL0     H19768  -2.851   8.207   7.782  0.7095  0.1659 -0.3184
  150MOL0     H19769  -2.705   8.110   7.839 -1.3850  0.1785  2.0656
  150MOL0     H19770  -2.790   7.911   7.745 -1.7346 -0.8941 -0.3134
  150MOL0     H19771  -2.891   7.993   7.629  1.4851  2.0568 -0.7131
  150MOL0     H19772  -2.928   7.945   7.936 -1.5330  4.2916  0.7772
  150MOL0     H19773  -3.012   8.075   7.868 -0.1959 -0.2381  0.7202
  150MOL0     H19774  -3.001   7.776   7.774 -2.8088 -1.6765 -0.4877
  150MOL0     H19775  -3.114   7.901   7.720  1.2940  2.2420  0.3206
  150MOL0     H19776  -3.184   7.903   7.995 -4.0298 -1.7688 -0.2783
  150MOL0     H19777  -3.054   7.781   7.998 -2.0835  0.9650  2.3830
  150MOL0     H19778  -3.286   7.718   7.817 -2.0714 -1.0986  0.6316
  150MOL0     H19779  -3.177   7.616   7.906 -0.8393  0.0157  1.6266
  150MOL0     H19780  -3.402   7.631   8.006  2.7228 -1.5952 -4.0057
  150MOL0     H19781  -3.365   7.806   8.054  0.3786 -0.2050  0.9585
  150MOL0     H19782  -2.462   8.488   7.611  1.9097  1.2022  0.2358
  150MOL0     H19783  -2.229   8.489   7.677 -1.7117  0.9307  0.2764
  150MOL0     H19784  -1.931   8.122   7.879  0.0108 -1.0302 -1.1375
  150MOL0     H19785  -1.715   7.997   7.894  1.6926  1.2994  0.7661
  150MOL0     H19786   0.150   8.095   7.809  1.9667 -1.7295  2.5765
  150MOL0     H19787   0.396   8.099   7.873  0.8337  1.1914  0.1259
  150MOL0     H19788   0.722   8.136   7.906 -2.2884  2.4448 -1.1561
  150MOL0     H19789   0.940   8.036   7.928 -1.3987 -1.1603 -1.0357
  150MOL0     H19790   1.125   7.978   7.750 -1.4511  0.8874  0.1561
  150MOL0     H19791   1.155   7.949   7.919 -0.5724  1.5482  0.7827
  150MOL0     H19792   1.367   7.915   7.900  1.2879  1.3429  1.0840
  150MOL0     H19793   1.367   7.959   7.731  0.6953  3.9735  0.3186
  150MOL0     H19794   1.412   8.160   7.944  2.7842  3.1028 -0.7097
  150MOL0     H19795   1.417   8.182   7.768 -0.9350 -1.0211 -0.1758
  150MOL0     H19796   1.587   7.989   7.767 -2.1996  3.3340 -4.1678
  150MOL0     H19797   1.644   8.145   7.818  1.0448  0.1275  3.9461
  150MOL0     H19798   1.703   7.979   8.185  1.6504  0.6104 -0.7877
  150MOL0     H19799   1.117   8.379   7.740 -0.2989  0.0207  3.5195
  150MOL0     H19800   0.895   8.458   7.662 -2.9049 -1.1820 -2.9809
  151MOL0     O19801   6.085   7.232   0.818 -0.5061 -0.1274 -0.2419
  151MOL0     C19802   6.100   7.309   0.914  0.4776 -0.7231 -0.6823
  151MOL0     O19803   6.004   7.381   0.988  0.3319  0.4465 -0.8504
  151MOL0     C19804   5.870   7.378   0.954 -0.5541 -0.3347 -0.7307
  151MOL0     C19805   5.782   7.415   1.063  0.4512 -0.1334  1.0367
  151MOL0     C19806   5.642   7.426   1.034  0.0925  0.0621 -0.0254
  151MOL0     C19807   5.583   7.386   0.910 -0.5773  0.1599 -0.3441
  151MOL0     O19808   5.443   7.389   0.895  0.3272  0.3228 -0.0988
  151MOL0     C19809   5.388   7.293   0.797  0.4895  0.0964 -0.5015
  151MOL0     C19810   5.239   7.311   0.787 -0.0385 -0.2700  1.0163
  151MOL0     C19811   5.166   7.318   0.923 -0.3468  0.5108  0.0078
  151MOL0     C19812   5.013   7.322   0.906  0.9127 -0.6943 -0.5572
  151MOL0     C19813   4.941   7.362   1.034 -0.4671  0.2661 -0.1881
  151MOL0     C19814   4.994   7.473   1.127  0.2160  0.1802 -0.1424
  151MOL0     C19815   4.884   7.552   1.209  0.3372  0.2289  0.2268
  151MOL0     C19816   4.838   7.480   1.344  0.7121  0.2133 -0.0454
  151MOL0     N19817   4.751   7.368   1.318 -0.1197 -0.1075  0.1513
  151MOL0     C19818   4.790   7.236   1.348  0.3501 -0.2932  0.6042
  151MOL0     C19819   4.709   7.154   1.284  0.6691 -0.4688  0.9902
  151MOL0     C19820   4.694   7.003   1.283 -0.0074  0.4124  0.5334
  151MOL0     C19821   4.621   6.934   1.175 -0.8458  0.9189  0.6035
  151MOL0     C19822   4.681   6.957   1.041  0.1406  0.0327  1.2620
  151MOL0     C19823   4.821   6.897   1.025 -0.4598 -0.0399 -0.5970
  151MOL0     O19824   4.861   6.900   0.888  0.0119 -0.1014  0.4779
  151MOL0     C19825   5.003   6.890   0.872 -0.2199 -0.5806  0.4728
  151MOL0     C19826   5.099   6.821   0.952 -1.1666 -1.0778 -0.2359
  151MOL0     C19827   5.233   6.824   0.918 -0.1387 -0.2916 -0.4999
  151MOL0     C19828   5.280   6.887   0.798  0.3220 -0.5474 -0.0491
  151MOL0     C19829   5.425   6.897   0.774 -0.0056 -0.1131  0.4770
  151MOL0     O19830   5.519   6.808   0.830  0.6585 -0.2471  0.2309
  151MOL0     C19831   5.652   6.818   0.815  0.2743  0.2259 -0.2918
  151MOL0     C19832   5.729   6.707   0.791  0.1034 -0.0338  0.4520
  151MOL0     C19833   5.871   6.709   0.797 -0.3337  1.3661  0.1424
  151MOL0     C19834   5.942   6.827   0.815 -0.3301  1.2558 -0.4700
  151MOL0     O19835   6.077   6.813   0.814  0.3198  0.4758  0.1454
  151MOL0     C19836   6.162   6.923   0.854  1.0168 -0.7491 -0.6027
  151MOL0     C19837   6.293   6.862   0.924 -0.2832 -0.4561  0.6318
  151MOL0     C19838   6.380   6.778   0.834  0.3189  0.5454  0.0090
  151MOL0     C19839   6.524   6.776   0.883  0.0331 -0.3957 -0.5501
  151MOL0     C19840   6.551   6.697   1.014  1.3922 -0.1106 -0.9094
  151MOL0     C19841   6.696   6.653   1.026 -0.1042  0.7646 -0.0428
  151MOL0     C19842   6.792   6.762   1.008 -0.6159 -0.5587  0.4109
  151MOL0     C19843   6.936   6.731   1.011  0.2741 -0.0371 -0.2713
  151MOL0    Cl19844   6.996   6.615   1.137  0.2598 -0.1786  0.0541
  151MOL0     C19845   5.875   6.940   0.819 -0.2471  0.2637  0.0140
  151MOL0     C19846   5.736   6.936   0.827  0.5753 -0.1758 -0.2292
  151MOL0     O19847   5.453   6.993   0.693 -0.7025  0.7335 -0.3008
  151MOL0     C19848   5.184   6.945   0.711 -0.2411  0.3888 -0.6226
  151MOL0     C19849   5.050   6.941   0.746  1.1738  0.3619 -1.0202
  151MOL0     N19850   4.608   7.237   1.235  1.0240 -0.2932  0.1838
  151MOL0     N19851   4.629   7.363   1.253  0.4175  0.0347 -0.5538
  151MOL0     C19852   5.669   7.340   0.813  0.4873 -0.3164 -0.5862
  151MOL0     C19853   5.815   7.323   0.837 -0.1149  0.8248 -0.2707
  151MOL0     C19854   6.237   7.325   0.949 -0.3114  1.8510  0.9558
  151MOL0     C19855   6.273   7.366   1.079 -0.0562  0.0472  0.1017
  151MOL0     C19856   6.410   7.393   1.109  0.1862 -0.9636  0.0401
  151MOL0     C19857   6.509   7.382   1.010  0.3661  0.2015 -0.0438
  151MOL0     O19858   6.645   7.399   1.037  0.2158 -0.1111  0.1160
  151MOL0     C19859   6.680   7.513   1.125  0.4870  0.0280 -0.5042
  151MOL0     C19860   6.659   7.648   1.053 -0.1770 -0.3766  0.6444
  151MOL0     C19861   6.699   7.648   0.905 -0.5655  0.9385 -0.9620
  151MOL0     C19862   6.843   7.621   0.880 -1.0452  0.6544 -0.0918
  151MOL0     C19863   6.859   7.593   0.737  0.3416  0.0211 -0.4082
  151MOL0     C19864   6.854   7.586   0.617  0.6541  0.1657 -0.5344
  151MOL0     C19865   6.479   7.332   0.886 -0.9562 -0.4620 -0.4502
  151MOL0     C19866   6.342   7.299   0.856 -0.7531  0.0399 -0.5515
  151MOL0     H19867   5.822   7.437   1.161 -0.0932 -2.2264  1.7771
  151MOL0     H19868   5.577   7.457   1.116 -0.1234 -3.6392  1.3694
  151MOL0     H19869   5.409   7.196   0.844 -2.2982  0.5966  2.0648
  151MOL0     H19870   5.433   7.309   0.699  3.1783  2.2150  0.9279
  151MOL0     H19871   5.182   7.231   0.739 -0.7572  1.3517 -0.9686
  151MOL0     H19872   5.220   7.402   0.730  2.1289  0.2311  1.0282
  151MOL0     H19873   5.207   7.396   0.988  1.1323 -0.1944 -0.0371
  151MOL0     H19874   5.186   7.222   0.973 -3.1071  0.4709  1.2270
  151MOL0     H19875   4.996   7.408   0.840  1.3123  3.4083  4.1045
  151MOL0     H19876   4.964   7.235   0.862  2.6855 -2.1529  0.2314
  151MOL0     H19877   4.916   7.280   1.101 -0.9564  1.0105  0.5743
  151MOL0     H19878   4.838   7.382   1.004 -1.6556 -0.6305  2.9559
  151MOL0     H19879   5.040   7.546   1.059  0.1426 -2.0366 -2.7544
  151MOL0     H19880   5.079   7.447   1.191  0.9512  2.5265 -0.0476
  151MOL0     H19881   4.923   7.653   1.223  1.3428 -0.1540  0.3025
  151MOL0     H19882   4.795   7.547   1.146  0.8175 -1.1740 -0.3827
  151MOL0     H19883   4.792   7.557   1.407  1.5753  1.1077 -0.5022
  151MOL0     H19884   4.924   7.445   1.402 -0.9973  0.5887  2.9833
  151MOL0     H19885   4.875   7.217   1.413  0.0368  0.6253  1.2952
  151MOL0     H19886   4.635   6.989   1.374 -2.5262  2.2016 -0.6936
  151MOL0     H19887   4.794   6.963   1.303 -0.2158 -0.2067  0.3282
  151MOL0     H19888   4.522   6.981   1.174  0.2790  3.4043  0.7987
  151MOL0     H19889   4.616   6.829   1.206 -1.3484  0.6871 -0.2270
  151MOL0     H19890   4.618   6.910   0.966 -0.9282  1.4099  1.2585
  151MOL0     H19891   4.684   7.065   1.023  0.7477 -0.0240  0.9861
  151MOL0     H19892   4.814   6.794   1.064 -3.3476 -0.9179 -3.0034
  151MOL0     H19893   4.896   6.954   1.079  0.3826 -0.9018 -0.8300
  151MOL0     H19894   5.074   6.781   1.050 -1.4371 -1.5544 -0.4981
  151MOL0     H19895   5.306   6.778   0.983  0.0697  1.9105  0.9148
  151MOL0     H19896   5.681   6.610   0.777 -1.9202  1.1177 -1.1551
  151MOL0     H19897   5.941   6.627   0.789  1.8493  2.7111  3.2604
  151MOL0     H19898   6.112   6.985   0.929  2.5623  3.3517 -2.7090
  151MOL0     H19899   6.178   6.991   0.770 -2.2040 -0.2437 -0.9651
  151MOL0     H19900   6.251   6.796   1.001 -1.1881 -1.2630 -0.5092
  151MOL0     H19901   6.356   6.932   0.980  0.2898  0.5595 -1.2175
  151MOL0     H19902   6.382   6.823   0.734 -1.0281  2.6541  0.8465
  151MOL0     H19903   6.345   6.675   0.825  3.2511 -0.6201  0.9063
  151MOL0     H19904   6.586   6.731   0.805  0.0729  0.3350 -0.9498
  151MOL0     H19905   6.564   6.876   0.902  0.4545 -1.0394  2.4364
  151MOL0     H19906   6.489   6.607   1.021 -0.5343  1.0625 -2.1483
  151MOL0     H19907   6.520   6.758   1.099  0.1051 -1.4941 -0.3314
  151MOL0     H19908   6.711   6.575   0.952  0.4946  0.2861  0.5714
  151MOL0     H19909   6.707   6.614   1.128  4.0001  3.0705  0.6425
  151MOL0     H19910   6.764   6.821   0.920 -0.2823 -1.5072 -0.3509
  151MOL0     H19911   6.761   6.817   1.097 -0.6826 -2.1427  1.3949
  151MOL0     H19912   7.000   6.819   1.026 -0.3146  0.7067 -1.8889
  151MOL0     H19913   6.962   6.696   0.911 -1.1985  0.3749 -0.8366
  151MOL0     H19914   5.910   7.042   0.824  1.2039 -0.2910  2.4662
  151MOL0     H19915   5.687   7.031   0.847  0.5101  0.4880 -3.1357
  151MOL0     H19916   5.224   6.977   0.615  0.9551 -2.4077 -1.1749
  151MOL0     H19917   4.973   6.975   0.678  1.2760 -1.5760 -2.1738
  151MOL0     H19918   5.629   7.293   0.724 -1.3080  1.9221 -1.0729
  151MOL0     H19919   5.871   7.267   0.763  0.4026 -1.7268  1.8915
  151MOL0     H19920   6.195   7.381   1.153 -1.6915 -0.4876 -1.4323
  151MOL0     H19921   6.441   7.418   1.210 -0.1674 -0.1343 -0.0556
  151MOL0     H19922   6.784   7.498   1.158 -0.0304  0.0159  1.1940
  151MOL0     H19923   6.627   7.506   1.220  2.8844 -0.6321  0.8859
  151MOL0     H19924   6.561   7.694   1.070 -0.8427 -1.8753  0.9982
  151MOL0     H19925   6.733   7.712   1.102  0.4040  0.9590 -1.7810
  151MOL0     H19926   6.674   7.746   0.863 -0.9669  1.4416  0.3995
  151MOL0     H19927   6.634   7.580   0.849 -0.2108  0.8701 -1.2934
  151MOL0     H19928   6.896   7.715   0.899  1.1996 -0.2792 -1.3030
  151MOL0     H19929   6.870   7.529   0.932 -1.4462  1.0234  0.7844
  151MOL0     H19930   6.867   7.589   0.511  0.9181 -1.0015 -0.5473
  151MOL0     H19931   6.563   7.322   0.818 -0.6850  1.4234 -0.4440
  151MOL0     H19932   6.310   7.266   0.758 -3.4316 -2.4559  0.9829
  152MOL0     O19933   9.280   0.596   3.279  0.1791 -0.9538  0.4486
  152MOL0     C19934   9.280   0.476   3.255 -0.2087  0.3040  0.3195
  152MOL0     O19935   9.181   0.384   3.278 -0.0595  0.4952  0.3670
  152MOL0     C19936   9.046   0.415   3.316  0.2012 -0.0985 -0.5672
  152MOL0     C19937   8.968   0.311   3.385 -0.4753  0.7346 -0.5781
  152MOL0     C19938   8.842   0.331   3.429  0.2176  0.5205 -0.9277
  152MOL0     C19939   8.780   0.458   3.414 -0.0256 -0.6393  0.5356
  152MOL0     O19940   8.669   0.487   3.474  0.2406  0.2611  0.0229
  152MOL0     C19941   8.556   0.421   3.415  1.0782 -0.0406  0.1748
  152MOL0     C19942   8.457   0.370   3.518  0.7559  0.0960  0.0964
  152MOL0     C19943   8.337   0.312   3.438 -0.2071 -0.3490  0.0257
  152MOL0     C19944   8.225   0.276   3.538 -0.2827 -0.4118  0.1249
  152MOL0     C19945   8.128   0.181   3.478  0.6672  0.0223 -0.3347
  152MOL0     C19946   7.988   0.177   3.560 -0.0058  0.1032 -1.1062
  152MOL0     C19947   7.878   0.091   3.484 -0.2471 -0.8381 -0.3845
  152MOL0     C19948   7.924  -0.051   3.449  0.4476  0.0227  0.2874
  152MOL0     N19949   7.918  -0.142   3.559 -0.1634  0.3762 -0.3217
  152MOL0     C19950   7.809  -0.187   3.631 -1.0667 -0.6075  0.8899
  152MOL0     C19951   7.857  -0.286   3.702 -1.0361 -0.1916  0.1228
  152MOL0     C19952   7.785  -0.379   3.792  0.1523  0.8022 -0.4024
  152MOL0     C19953   7.729  -0.498   3.706 -0.4507 -0.3770  0.7735
  152MOL0     C19954   7.670  -0.606   3.795  0.3615 -0.9514 -0.1966
  152MOL0     C19955   7.521  -0.579   3.825  0.1494 -1.0487  0.6071
  152MOL0     O19956   7.501  -0.456   3.895 -0.3214  0.5205  0.8415
  152MOL0     C19957   7.381  -0.437   3.954  0.2539 -0.5054 -0.1295
  152MOL0     C19958   7.376  -0.327   4.039 -0.8708 -1.0896 -0.6013
  152MOL0     C19959   7.258  -0.288   4.102 -0.5348 -0.1541 -0.0622
  152MOL0     C19960   7.137  -0.362   4.087 -0.5562  0.2672 -1.0876
  152MOL0     C19961   7.019  -0.314   4.160  0.7637 -0.2114 -0.5559
  152MOL0     O19962   6.895  -0.352   4.107 -0.2757 -0.2215 -0.5389
  152MOL0     C19963   6.774  -0.298   4.160  0.4194  0.4606 -0.1421
  152MOL0     C19964   6.660  -0.380   4.135  0.6778  0.7618  0.2214
  152MOL0     C19965   6.534  -0.345   4.170  0.3677 -0.4454 -0.2620
  152MOL0     C19966   6.517  -0.224   4.239  0.6518 -0.1851 -0.5237
  152MOL0     O19967   6.389  -0.177   4.273  0.2344  0.4601 -0.0932
  152MOL0     C19968   6.366  -0.180   4.410 -0.3609  0.1821  0.3462
  152MOL0     C19969   6.220  -0.138   4.447  0.5585 -0.8402 -1.2280
  152MOL0     C19970   6.173   0.009   4.409 -0.1196  0.3889  0.4685
  152MOL0     C19971   6.090   0.001   4.277  0.2673  0.3624 -0.1175
  152MOL0     C19972   6.071   0.139   4.210  0.0748 -1.2170 -0.3305
  152MOL0     C19973   6.008   0.251   4.304  0.0174 -0.9571  0.2825
  152MOL0     C19974   5.986   0.388   4.230 -1.0045  0.3343 -0.7004
  152MOL0     C19975   5.914   0.382   4.096  0.5929  0.2240 -0.2350
  152MOL0    Cl19976   5.808   0.523   4.077  0.0490 -0.0976 -0.1298
  152MOL0     C19977   6.620  -0.128   4.250 -0.7193  0.1753 -0.5693
  152MOL0     C19978   6.749  -0.171   4.216  0.2337  0.1297 -0.0221
  152MOL0     O19979   7.030  -0.244   4.263  0.8781 -0.0305 -1.1305
  152MOL0     C19980   7.141  -0.477   4.006  0.0086 -0.3877 -0.7159
  152MOL0     C19981   7.262  -0.505   3.943  0.0634  0.9835  0.1612
  152MOL0     N19982   7.996  -0.301   3.685  1.2288 -0.1489 -0.1375
  152MOL0     N19983   8.029  -0.212   3.603 -0.2671 -0.0674  0.2994
  152MOL0     C19984   8.853   0.561   3.354 -0.3583  0.7698 -0.3175
  152MOL0     C19985   8.985   0.537   3.305 -0.2119  0.6465 -0.1791
  152MOL0     C19986   9.397   0.417   3.188  0.3362  0.5389  0.5825
  152MOL0     C19987   9.487   0.487   3.111  1.2369 -0.4325 -0.1177
  152MOL0     C19988   9.601   0.427   3.063 -0.3917  0.4319  0.1099
  152MOL0     C19989   9.649   0.307   3.107  0.8213 -0.3690 -0.6206
  152MOL0     O19990   9.774   0.268   3.060 -0.1336  0.1594 -0.6319
  152MOL0     C19991   9.854   0.162   3.122  0.4256  0.5075 -0.0658
  152MOL0     C19992   9.984   0.168   3.071 -0.8827  0.1635  0.5048
  152MOL0     C19993   9.989   0.130   2.923 -0.3064 -0.5085 -0.0036
  152MOL0     C19994  10.128   0.080   2.881 -0.4351 -0.2117  0.4676
  152MOL0     C19995  10.179  -0.034   2.962  0.1968 -0.4695  0.2427
  152MOL0     C19996  10.232  -0.113   3.043  0.0975 -0.4209  0.3902
  152MOL0     C19997   9.557   0.232   3.180  0.0661  0.5089 -0.4001
  152MOL0     C19998   9.433   0.284   3.213 -0.5075  0.1662 -0.5237
  152MOL0     H19999   9.016   0.215   3.401 -2.3198 -0.0616  0.4146
  152MOL0     H20000   8.785   0.254   3.481  1.1656  0.4146 -0.0290
  152MOL0     H20001   8.583   0.333   3.355 -1.1650 -2.4084  2.3951
  152MOL0     H20002   8.510   0.498   3.351  0.0541  0.0427  1.0010
  152MOL0     H20003   8.419   0.449   3.584 -2.4635 -1.1765 -0.0404
  152MOL0     H20004   8.506   0.302   3.587 -0.3447  0.4599  1.2803
  152MOL0     H20005   8.366   0.221   3.385 -2.5677  0.6569 -3.3647
  152MOL0     H20006   8.311   0.391   3.366  3.5406 -0.8451 -2.1482
  152MOL0     H20007   8.264   0.223   3.625  0.1451  0.6752  0.6129
  152MOL0     H20008   8.168   0.364   3.569 -1.4152 -0.8704 -0.6128
  152MOL0     H20009   8.164   0.078   3.484 -0.8374 -0.4481  4.1496
  152MOL0     H20010   8.096   0.206   3.376 -0.9491 -2.4926 -0.5239
  152MOL0     H20011   7.957   0.281   3.571 -0.7842 -0.3106  1.2706
  152MOL0     H20012   8.002   0.134   3.660 -0.9118  3.7410  0.7614
  152MOL0     H20013   7.795   0.095   3.556 -2.3615  3.7130 -2.6619
  152MOL0     H20014   7.839   0.149   3.400 -1.0611  0.0267  0.5556
  152MOL0     H20015   8.028  -0.054   3.417 -0.3165 -2.3819 -2.2992
  152MOL0     H20016   7.862  -0.081   3.364  1.2680 -2.2694  0.4464
  152MOL0     H20017   7.707  -0.152   3.616 -1.0378 -1.4334 -1.7972
  152MOL0     H20018   7.708  -0.335   3.856  0.0332  1.6597 -1.1213
  152MOL0     H20019   7.857  -0.431   3.856 -2.2263 -1.9955  0.2036
  152MOL0     H20020   7.810  -0.536   3.642 -0.5766 -2.9952  2.0326
  152MOL0     H20021   7.649  -0.458   3.644 -3.2938 -2.7550  2.6611
  152MOL0     H20022   7.675  -0.704   3.746 -0.1415 -1.6106  1.0182
  152MOL0     H20023   7.732  -0.618   3.884 -0.0121 -2.8744 -0.1499
  152MOL0     H20024   7.482  -0.660   3.888  1.5770 -0.9589  1.6422
  152MOL0     H20025   7.460  -0.566   3.735  0.7407  0.9905  0.4510
  152MOL0     H20026   7.464  -0.264   4.037  0.2935 -2.6115  0.4610
  152MOL0     H20027   7.265  -0.201   4.167  0.7609 -1.0781  1.0997
  152MOL0     H20028   6.681  -0.473   4.084 -0.8754 -0.9236  2.4544
  152MOL0     H20029   6.449  -0.410   4.155 -0.7699  0.5466  1.5647
  152MOL0     H20030   6.430  -0.109   4.463 -1.8546  0.1101  2.3856
  152MOL0     H20031   6.381  -0.284   4.438 -1.6216 -0.1897 -0.2693
  152MOL0     H20032   6.223  -0.158   4.555  5.6193  1.0598 -0.7173
  152MOL0     H20033   6.147  -0.211   4.412  2.1053 -3.0185 -0.1504
  152MOL0     H20034   6.260   0.074   4.402  0.6581 -0.6210  0.5362
  152MOL0     H20035   6.120   0.055   4.493 -2.4839 -0.2613 -0.5751
  152MOL0     H20036   6.136  -0.070   4.209 -0.4011  0.2302 -0.4450
  152MOL0     H20037   5.989  -0.032   4.303  0.3970 -0.6828 -0.8818
  152MOL0     H20038   5.999   0.125   4.129 -1.7668 -3.3072  1.4964
  152MOL0     H20039   6.168   0.183   4.188  0.0861  1.0308  3.3027
  152MOL0     H20040   6.070   0.270   4.393  1.5383  3.1499 -1.3888
  152MOL0     H20041   5.913   0.213   4.342 -1.1996  1.6829  0.0889
  152MOL0     H20042   5.944   0.455   4.305  1.7753  1.3716  0.0384
  152MOL0     H20043   6.083   0.433   4.211 -0.4186 -1.2611 -1.7180
  152MOL0     H20044   5.847   0.296   4.086  1.2635 -0.3806  0.4183
  152MOL0     H20045   5.987   0.388   4.015 -1.2838  0.2258 -2.0249
  152MOL0     H20046   6.591  -0.037   4.300  0.7801  0.0128  0.6669
  152MOL0     H20047   6.827  -0.097   4.235  0.2035  1.3240 -3.7405
  152MOL0     H20048   7.049  -0.533   3.993  0.2459 -0.8168 -0.5708
  152MOL0     H20049   7.255  -0.595   3.882  0.7635  1.3824 -0.5171
  152MOL0     H20050   8.807   0.658   3.342 -0.0659  0.6730 -2.5282
  152MOL0     H20051   9.043   0.620   3.266  3.0519 -0.7275  1.3566
  152MOL0     H20052   9.478   0.590   3.077 -0.9834 -1.1327 -1.8336
  152MOL0     H20053   9.675   0.483   3.007 -0.3660  0.4932  0.2046
  152MOL0     H20054   9.803   0.068   3.101  0.9671  0.2022 -0.0223
  152MOL0     H20055   9.851   0.172   3.231  0.3191 -2.4446  0.2874
  152MOL0     H20056  10.005   0.275   3.077  0.4204 -0.1522  3.1715
  152MOL0     H20057  10.050   0.119   3.143 -1.9165 -1.6770  0.2629
  152MOL0     H20058   9.961   0.217   2.864  1.8653  0.4053  0.2309
  152MOL0     H20059   9.929   0.041   2.902  1.4201 -2.3732  2.3851
  152MOL0     H20060  10.128   0.063   2.773  1.5519 -1.4392  0.5931
  152MOL0     H20061  10.195   0.162   2.908  0.4677 -0.5766 -0.5980
  152MOL0     H20062  10.307  -0.166   3.100  0.7293 -1.4991 -1.3572
  152MOL0     H20063   9.584   0.131   3.211  3.2629  0.2397 -3.4860
  152MOL0     H20064   9.374   0.221   3.279  3.0103  0.2841  3.0963
  153MOL0     O20065   9.636   7.531  10.445 -0.3421  0.6086  0.8174
  153MOL0     C20066   9.531   7.509  10.384  0.3157 -0.4701 -0.3903
  153MOL0     O20067   9.524   7.461  10.256  0.0304  0.5580  0.3197
  153MOL0     C20068   9.643   7.417  10.206  0.8109 -0.2169  0.9897
  153MOL0     C20069   9.763   7.493  10.175  0.6281  0.2022 -0.2932
  153MOL0     C20070   9.873   7.423  10.136  0.1559  0.3795  0.4469
  153MOL0     C20071   9.871   7.281  10.122  0.8922  0.3214 -0.4040
  153MOL0     O20072   9.989   7.222  10.084 -0.1876  0.5986 -0.0129
  153MOL0     C20073   9.969   7.127   9.974 -0.4065  0.3292 -0.9368
  153MOL0     C20074  10.094   7.094   9.889 -0.2800 -0.7225  0.3584
  153MOL0     C20075  10.122   7.219   9.804 -0.2032  0.7775 -0.0271
  153MOL0     C20076  10.271   7.258   9.797 -0.4315 -0.0402  0.0092
  153MOL0     C20077  10.325   7.317   9.931  0.1037 -0.2878  0.8510
  153MOL0     C20078  10.293   7.466   9.926  0.4371 -0.3455 -0.5944
  153MOL0     C20079  10.397   7.543   9.852  0.1751  0.0883 -0.7767
  153MOL0     C20080  10.326   7.663   9.781 -0.7365  1.1384  0.7870
  153MOL0     N20081  10.260   7.624   9.655 -0.1390  0.3892 -0.0296
  153MOL0     C20082  10.151   7.553   9.616 -0.8880  0.1353 -0.2728
  153MOL0     C20083  10.119   7.588   9.490  0.0400 -0.3403 -0.0736
  153MOL0     C20084   9.992   7.555   9.423 -0.4061 -0.0585 -0.1462
  153MOL0     C20085   9.946   7.678   9.346 -0.1299 -0.4323 -0.3995
  153MOL0     C20086  10.021   7.710   9.216  0.3304  0.2555 -0.2717
  153MOL0     C20087   9.983   7.628   9.095 -0.5354  0.6065  0.0749
  153MOL0     O20088   9.837   7.622   9.075 -0.0434 -0.2048  0.0548
  153MOL0     C20089   9.780   7.549   8.967  0.3637  0.5445  0.3330
  153MOL0     C20090   9.848   7.471   8.877 -0.1547  0.0946 -0.3239
  153MOL0     C20091   9.774   7.417   8.767  0.0768  0.0808 -0.8331
  153MOL0     C20092   9.635   7.428   8.750 -0.9523 -0.9830  1.1116
  153MOL0     C20093   9.554   7.362   8.651 -0.4767  0.7145 -0.2474
  153MOL0     O20094   9.613   7.256   8.584  0.5062 -0.3570 -0.2189
  153MOL0     C20095   9.539   7.180   8.498 -0.3548  0.0621 -1.0945
  153MOL0     C20096   9.521   7.045   8.535  0.1769  0.5274 -0.3829
  153MOL0     C20097   9.449   6.959   8.444  0.2967  0.2367  0.4441
  153MOL0     C20098   9.405   7.013   8.319  0.4360  0.8042 -0.3125
  153MOL0     O20099   9.339   6.926   8.233  0.9920 -0.6695  0.0619
  153MOL0     C20100   9.221   6.972   8.160 -0.8240 -0.1355 -0.2487
  153MOL0     C20101   9.177   6.864   8.046  0.5812 -0.2933 -0.3581
  153MOL0     C20102   9.160   6.724   8.099 -0.3876  1.5989 -0.2180
  153MOL0     C20103   9.300   6.662   8.129  0.3893 -0.6109  0.6644
  153MOL0     C20104   9.292   6.507   8.102  0.9315  1.0571  0.3764
  153MOL0     C20105   9.404   6.427   8.159  0.1871 -0.2730 -0.6438
  153MOL0     C20106   9.435   6.297   8.069 -0.3752 -0.3984 -0.4473
  153MOL0     C20107   9.569   6.239   8.118 -0.6988 -0.0103  0.4420
  153MOL0    Cl20108   9.582   6.189   8.297 -0.1678 -0.5401  0.2688
  153MOL0     C20109   9.431   7.142   8.283 -0.2670 -0.3171 -1.0641
  153MOL0     C20110   9.505   7.225   8.372 -0.1759  0.0126  0.0214
  153MOL0     O20111   9.440   7.403   8.622  0.1733  0.4724  1.1133
  153MOL0     C20112   9.570   7.510   8.844  0.5432 -0.3448 -1.0484
  153MOL0     C20113   9.646   7.579   8.941  0.2303  0.1340 -0.0869
  153MOL0     N20114  10.222   7.671   9.447  0.4959 -0.3681 -0.5604
  153MOL0     N20115  10.305   7.677   9.546 -0.5584 -0.6096 -0.0828
  153MOL0     C20116   9.755   7.206  10.154 -0.3483 -0.1310 -0.3084
  153MOL0     C20117   9.645   7.281  10.187 -0.2582  0.3650 -0.1781
  153MOL0     C20118   9.400   7.532  10.455 -0.2971 -0.6214 -0.5091
  153MOL0     C20119   9.386   7.604  10.574 -0.0512 -0.6215  0.9147
  153MOL0     C20120   9.259   7.624  10.628  0.2704  0.0572  0.8286
  153MOL0     C20121   9.141   7.564  10.571 -0.2828 -0.7388  0.1902
  153MOL0     O20122   9.024   7.587  10.642  0.1253  0.0088 -0.4118
  153MOL0     C20123   8.899   7.539  10.590  0.6989 -0.5105  0.7243
  153MOL0     C20124   8.782   7.562  10.686  0.4321 -0.9601 -0.6236
  153MOL0     C20125   8.634   7.561  10.633 -0.2725  0.6337  0.9476
  153MOL0     C20126   8.589   7.425  10.576  0.3362  0.2170 -0.9800
  153MOL0     C20127   8.448   7.403  10.541 -0.6453  0.4482 -0.1280
  153MOL0     C20128   8.326   7.382  10.512  0.1424 -0.2973  0.6291
  153MOL0     C20129   9.152   7.492  10.449 -0.0367 -0.0156  0.9220
  153MOL0     C20130   9.282   7.479  10.392 -0.0807 -0.2412 -0.1263
  153MOL0     H20131   9.759   7.601  10.179  0.6301  0.2885 -2.0048
  153MOL0     H20132   9.969   7.474  10.137 -0.3193  1.4541  4.0524
  153MOL0     H20133   9.885   7.161   9.913  0.5061  4.3463 -0.2618
  153MOL0     H20134   9.943   7.036  10.028 -0.5243  2.3569  2.7786
  153MOL0     H20135  10.071   7.001   9.835  2.6080 -1.2222 -0.1577
  153MOL0     H20136  10.176   7.067   9.956  1.4108 -1.7182 -2.0053
  153MOL0     H20137  10.073   7.309   9.844 -0.6954  1.6249 -2.4075
  153MOL0     H20138  10.078   7.206   9.706 -0.2303  0.6557  0.0025
  153MOL0     H20139  10.326   7.164   9.788  2.4785  1.5469  0.0750
  153MOL0     H20140  10.298   7.305   9.703 -0.1574  0.2382  0.2273
  153MOL0     H20141  10.433   7.306   9.945  0.1358  2.9890  6.0149
  153MOL0     H20142  10.273   7.270  10.016 -0.6924  0.2908  0.6985
  153MOL0     H20143  10.303   7.506  10.027  0.9733  1.3886 -1.2973
  153MOL0     H20144  10.191   7.492   9.895  0.4554  3.7437  1.9983
  153MOL0     H20145  10.475   7.576   9.921 -0.4284  2.2916 -1.0782
  153MOL0     H20146  10.441   7.483   9.772 -1.5242  1.3428 -2.7646
  153MOL0     H20147  10.411   7.728   9.758 -0.2777  0.1173 -0.5843
  153MOL0     H20148  10.255   7.707   9.850 -0.6179 -1.9922  3.1476
  153MOL0     H20149  10.093   7.481   9.673 -0.0717  0.0100  0.3960
  153MOL0     H20150   9.919   7.523   9.498  1.0605 -1.3916  0.7822
  153MOL0     H20151  10.020   7.478   9.350  3.2819  1.0959 -0.1380
  153MOL0     H20152   9.950   7.757   9.421 -0.8982 -1.6535  0.9804
  153MOL0     H20153   9.840   7.670   9.323 -0.1347 -1.1222 -0.1600
  153MOL0     H20154  10.010   7.816   9.194  1.2112  0.4791  0.3124
  153MOL0     H20155  10.128   7.693   9.229  0.0701  1.2411  7.3580
  153MOL0     H20156  10.022   7.527   9.115  1.4507  1.3924  0.3910
  153MOL0     H20157  10.025   7.669   9.002 -2.7480 -1.9806 -2.2620
  153MOL0     H20158   9.955   7.462   8.888  0.3647  2.8699 -2.0528
  153MOL0     H20159   9.831   7.358   8.696 -0.1841  4.0822 -4.7246
  153MOL0     H20160   9.570   7.011   8.626  1.6179  1.6683 -0.6881
  153MOL0     H20161   9.418   6.856   8.460  1.6051  0.1660  2.9659
  153MOL0     H20162   9.232   7.070   8.114  0.9429 -1.4533 -2.8628
  153MOL0     H20163   9.139   6.967   8.233 -1.4533 -0.7110 -0.9778
  153MOL0     H20164   9.248   6.858   7.964 -1.1782 -0.7053 -1.9140
  153MOL0     H20165   9.085   6.904   8.003  1.9043  0.5594 -2.5622
  153MOL0     H20166   9.119   6.663   8.017 -2.6291  3.7335 -0.7908
  153MOL0     H20167   9.095   6.719   8.187  2.6264  0.2368  2.1337
  153MOL0     H20168   9.379   6.700   8.063  1.6859 -2.0903  1.2851
  153MOL0     H20169   9.332   6.683   8.231 -1.2648  1.4164  0.8136
  153MOL0     H20170   9.285   6.485   7.995 -0.8855  1.0820  0.4630
  153MOL0     H20171   9.199   6.471   8.147 -1.0928  2.8400 -2.0781
  153MOL0     H20172   9.392   6.404   8.265 -0.8795 -0.5814 -0.8164
  153MOL0     H20173   9.492   6.491   8.159  0.5464 -0.6972  1.2074
  153MOL0     H20174   9.357   6.221   8.082 -1.7846  1.0843 -0.0050
  153MOL0     H20175   9.441   6.316   7.962 -1.5189 -0.1629 -0.4783
  153MOL0     H20176   9.652   6.309   8.105  0.9277 -1.5318  1.9434
  153MOL0     H20177   9.576   6.149   8.055  0.6352 -0.3443  1.0238
  153MOL0     H20178   9.403   7.185   8.187  0.0228 -0.3995 -1.1873
  153MOL0     H20179   9.534   7.324   8.339  0.2829 -0.1347 -0.0248
  153MOL0     H20180   9.466   7.541   8.844  1.1323  2.1043  1.9317
  153MOL0     H20181   9.598   7.652   9.006 -0.2142 -0.6510  0.4796
  153MOL0     H20182   9.751   7.098  10.149  0.9111 -0.3078  1.4670
  153MOL0     H20183   9.559   7.220  10.211 -0.7371 -0.4543 -3.4033
  153MOL0     H20184   9.476   7.648  10.615  0.9969 -1.1956 -0.6829
  153MOL0     H20185   9.247   7.686  10.716 -4.5744  1.2239 -0.3882
  153MOL0     H20186   8.911   7.433  10.566 -0.9637 -0.0487 -2.8615
  153MOL0     H20187   8.882   7.601  10.501  2.3674  1.0717  1.4339
  153MOL0     H20188   8.796   7.500  10.775  0.3795 -0.9947 -0.6391
  153MOL0     H20189   8.788   7.668  10.709 -0.2376 -0.2383 -3.3862
  153MOL0     H20190   8.619   7.635  10.553 -0.0863 -1.4693 -1.1549
  153MOL0     H20191   8.565   7.589  10.712 -2.2701  2.2517 -1.2352
  153MOL0     H20192   8.646   7.403  10.485 -0.6819 -1.0632 -1.3308
  153MOL0     H20193   8.604   7.343  10.647 -2.1718  1.3662  1.0402
  153MOL0     H20194   8.222   7.396  10.493  1.0264  2.2189 -3.9689
  153MOL0     H20195   9.067   7.447  10.400  1.9204 -1.9153 -0.9797
  153MOL0     H20196   9.289   7.424  10.299 -1.9347 -1.2064  0.2489
  154MOL0     O20197   9.897   4.499   4.959 -0.2494  0.2719  0.8611
  154MOL0     C20198  10.014   4.535   4.973 -0.0271 -0.3083 -1.4727
  154MOL0     O20199  10.050   4.648   5.045  0.4977 -0.0399 -0.9286
  154MOL0     C20200   9.957   4.736   5.077  0.4346 -0.4829 -0.4952
  154MOL0     C20201   9.911   4.819   4.974 -0.1339 -0.2099 -0.8527
  154MOL0     C20202   9.821   4.912   5.003  0.8469  0.2067  0.1045
  154MOL0     C20203   9.764   4.929   5.133 -0.8697 -0.3634 -0.4202
  154MOL0     O20204   9.658   5.004   5.174  0.1058  0.1684 -0.7029
  154MOL0     C20205   9.598   5.087   5.070  0.2440  0.3160  0.5023
  154MOL0     C20206   9.479   5.011   4.998 -0.1166  0.5119 -0.6735
  154MOL0     C20207   9.387   5.108   4.912 -0.1340  0.5004 -0.0990
  154MOL0     C20208   9.290   5.180   5.011  0.7162 -0.3114  0.3566
  154MOL0     C20209   9.203   5.303   4.956  0.6818 -0.1901  0.0195
  154MOL0     C20210   9.102   5.358   5.062 -0.0394 -0.6491  0.0258
  154MOL0     C20211   8.971   5.276   5.065  0.3096 -0.9134  0.4664
  154MOL0     C20212   8.849   5.357   5.109  0.3042 -1.3023 -0.5039
  154MOL0     N20213   8.717   5.292   5.103 -0.1501 -0.1363 -0.2125
  154MOL0     C20214   8.691   5.178   5.181  0.4422  0.0720  0.7265
  154MOL0     C20215   8.562   5.140   5.140 -0.7831  0.3902 -0.7420
  154MOL0     C20216   8.500   5.024   5.200  0.1381 -0.9397  0.0288
  154MOL0     C20217   8.395   4.948   5.115 -0.1847  0.2749  0.3592
  154MOL0     C20218   8.270   5.029   5.076  0.0318 -0.0956 -0.9477
  154MOL0     C20219   8.138   4.956   5.068 -0.1825  0.0146  0.2437
  154MOL0     O20220   8.041   4.995   4.963  0.1270 -0.0490  0.2247
  154MOL0     C20221   7.960   5.105   4.989 -0.4558  0.3811 -0.7480
  154MOL0     C20222   7.959   5.182   5.110 -0.6881  0.2619 -0.3733
  154MOL0     C20223   7.875   5.284   5.123 -0.1340  0.0022 -0.1613
  154MOL0     C20224   7.783   5.320   5.024 -0.4131  0.4304 -0.0478
  154MOL0     C20225   7.695   5.437   5.055  0.5109  0.4918 -0.0677
  154MOL0     O20226   7.603   5.481   4.968 -0.4062 -0.1025 -0.2384
  154MOL0     C20227   7.525   5.582   5.017 -0.4800  0.6211 -0.0413
  154MOL0     C20228   7.557   5.714   4.958 -0.3056  1.3641  0.1448
  154MOL0     C20229   7.470   5.819   4.995  0.2116  1.0655 -0.7469
  154MOL0     C20230   7.377   5.799   5.095 -0.2621 -0.2883 -0.9986
  154MOL0     O20231   7.321   5.914   5.134  0.6019 -0.1196 -0.7636
  154MOL0     C20232   7.262   5.928   5.260  0.0782 -0.2482  0.0234
  154MOL0     C20233   7.226   6.072   5.285 -0.4807  0.1499 -1.2967
  154MOL0     C20234   7.124   6.143   5.210  0.4849  0.6475  0.0527
  154MOL0     C20235   6.986   6.063   5.190 -0.7877  0.5037 -0.3063
  154MOL0     C20236   6.907   6.155   5.097  0.6322 -0.1216 -0.6222
  154MOL0     C20237   6.880   6.298   5.155  0.4247  0.1688  0.1821
  154MOL0     C20238   6.755   6.356   5.082 -0.9103  0.2428  0.9939
  154MOL0     C20239   6.735   6.501   5.116  0.7679  0.3136 -0.6646
  154MOL0    Cl20240   6.569   6.541   5.083  0.4850 -0.5078  0.7687
  154MOL0     C20241   7.363   5.675   5.165 -0.1174  0.5629 -0.2679
  154MOL0     C20242   7.434   5.565   5.120 -0.0508 -0.0013  0.1539
  154MOL0     O20243   7.715   5.487   5.168  0.0865  0.6553  0.0122
  154MOL0     C20244   7.782   5.249   4.901 -0.3546 -0.3475 -0.7661
  154MOL0     C20245   7.867   5.137   4.895 -0.0033 -0.2036  0.7329
  154MOL0     N20246   8.524   5.216   5.030  0.6027 -0.9028  0.0010
  154MOL0     N20247   8.615   5.309   5.011 -0.5943 -1.0602  1.2368
  154MOL0     C20248   9.808   4.844   5.237  0.2751  0.2136  0.1746
  154MOL0     C20249   9.902   4.748   5.208  1.0851  0.1847 -0.4525
  154MOL0     C20250  10.118   4.459   4.905  0.1443  0.4468  1.1318
  154MOL0     C20251  10.249   4.497   4.909  0.5770  0.5918  0.1368
  154MOL0     C20252  10.346   4.423   4.847  0.1227 -0.4497  0.4872
  154MOL0     C20253  10.325   4.303   4.784 -0.0530 -0.1875 -0.3955
  154MOL0     O20254  10.416   4.226   4.731 -0.0560  0.3729  0.3292
  154MOL0     C20255  10.552   4.259   4.749  0.9162 -0.2623 -1.1600
  154MOL0     C20256  10.633   4.170   4.655  0.4437 -1.0063 -0.1620
  154MOL0     C20257  10.648   4.031   4.710  0.3376  0.1784  0.0479
  154MOL0     C20258  10.707   3.941   4.601 -0.1633 -0.0928 -0.8218
  154MOL0     C20259  10.846   3.982   4.575  0.1631  0.0940  0.2177
  154MOL0     C20260  10.963   4.018   4.581  0.3935 -0.1341 -0.1868
  154MOL0     C20261  10.190   4.258   4.782  0.0737 -0.3614 -0.2207
  154MOL0     C20262  10.088   4.336   4.845  0.9020 -0.7356  0.0514
  154MOL0     H20263   9.964   4.819   4.879 -1.6303  0.7594 -1.7299
  154MOL0     H20264   9.786   4.986   4.931 -1.7112 -0.3385  0.6850
  154MOL0     H20265   9.669   5.136   5.003  0.4591  0.7574  1.0421
  154MOL0     H20266   9.549   5.163   5.132  3.0769  0.2324  3.0641
  154MOL0     H20267   9.423   4.951   5.070  0.7693  0.0302 -0.3696
  154MOL0     H20268   9.538   4.946   4.933  2.7777 -0.7030  2.8644
  154MOL0     H20269   9.336   5.058   4.829 -0.1913 -0.7984  0.6899
  154MOL0     H20270   9.453   5.185   4.872  1.7906 -0.2389  1.4916
  154MOL0     H20271   9.210   5.108   5.028 -0.5284 -0.1056 -3.5269
  154MOL0     H20272   9.343   5.200   5.104  1.6674 -1.5727  0.1090
  154MOL0     H20273   9.147   5.273   4.866 -1.3396 -1.8835  1.7369
  154MOL0     H20274   9.268   5.390   4.943 -0.5893  0.5936 -1.5471
  154MOL0     H20275   9.085   5.463   5.037  0.4391 -0.4749  0.4080
  154MOL0     H20276   9.163   5.366   5.153  1.6424 -0.4934 -1.0827
  154MOL0     H20277   8.960   5.229   4.967 -0.3823  1.1341 -0.4759
  154MOL0     H20278   8.993   5.209   5.149 -0.7716  0.6937  2.0912
  154MOL0     H20279   8.840   5.446   5.045 -0.8977 -1.4750 -0.6004
  154MOL0     H20280   8.853   5.390   5.213 -1.2022  0.7772 -1.0319
  154MOL0     H20281   8.742   5.140   5.269  0.1116  1.3545  1.4924
  154MOL0     H20282   8.455   5.036   5.299  1.4137 -1.4359  0.6934
  154MOL0     H20283   8.582   4.952   5.205 -0.5604 -1.8105 -0.6264
  154MOL0     H20284   8.380   4.852   5.165  2.4812  0.0450  0.8847
  154MOL0     H20285   8.435   4.901   5.025 -3.6264 -3.3562  0.4690
  154MOL0     H20286   8.240   5.109   5.145 -0.8469  0.1720 -1.6207
  154MOL0     H20287   8.274   5.080   4.979  1.9031 -0.4311 -1.0827
  154MOL0     H20288   8.081   4.950   5.162 -0.6955  2.7091  0.1650
  154MOL0     H20289   8.166   4.851   5.055 -3.0964 -1.0584  1.6150
  154MOL0     H20290   8.028   5.165   5.191  0.8238 -0.9247 -1.8232
  154MOL0     H20291   7.875   5.333   5.220 -2.7500  0.0568 -0.1237
  154MOL0     H20292   7.628   5.725   4.876  1.0514  0.6279  1.1740
  154MOL0     H20293   7.506   5.912   4.951  3.2983  0.7594  0.8674
  154MOL0     H20294   7.338   5.897   5.333  0.7785 -0.4457 -0.7782
  154MOL0     H20295   7.175   5.863   5.274  0.0859 -0.3195 -0.2555
  154MOL0     H20296   7.315   6.135   5.270 -3.4078  6.1476  2.5341
  154MOL0     H20297   7.201   6.082   5.391  0.4778  0.2567 -1.0641
  154MOL0     H20298   7.160   6.162   5.109 -1.1975 -1.9349 -1.1521
  154MOL0     H20299   7.111   6.236   5.266  0.3571  0.7534 -0.1526
  154MOL0     H20300   6.993   5.968   5.136 -4.2357 -0.1410  0.1838
  154MOL0     H20301   6.932   6.048   5.284  0.5181 -1.9722  0.1380
  154MOL0     H20302   6.811   6.109   5.069 -0.4033  1.2188  0.5784
  154MOL0     H20303   6.959   6.174   5.003 -1.1822  3.6482 -1.0401
  154MOL0     H20304   6.967   6.362   5.143  0.7930 -0.3211  0.1926
  154MOL0     H20305   6.865   6.291   5.263  1.4556  1.2257  0.4016
  154MOL0     H20306   6.746   6.350   4.973 -0.8340  1.2470  0.9216
  154MOL0     H20307   6.666   6.304   5.120 -3.1149  3.1333  0.2012
  154MOL0     H20308   6.815   6.561   5.071  2.6988 -1.0423  0.7911
  154MOL0     H20309   6.735   6.511   5.224  0.3795 -0.8833 -0.5289
  154MOL0     H20310   7.284   5.664   5.238 -1.0822 -4.3526 -1.7123
  154MOL0     H20311   7.419   5.474   5.178 -4.8139  1.5648  1.9142
  154MOL0     H20312   7.722   5.270   4.813  0.0681 -2.0229 -1.5000
  154MOL0     H20313   7.863   5.073   4.807  0.1677 -0.5742  0.9908
  154MOL0     H20314   9.753   4.848   5.330 -3.3354  0.0293 -1.7389
  154MOL0     H20315   9.942   4.685   5.287 -2.0647 -0.8676  0.4705
  154MOL0     H20316  10.283   4.588   4.958 -0.9350  0.2897  1.8342
  154MOL0     H20317  10.445   4.465   4.862  1.9090 -3.5273 -1.5847
  154MOL0     H20318  10.574   4.239   4.854 -2.9463  3.0979  0.5934
  154MOL0     H20319  10.578   4.364   4.730  2.3824 -0.6677 -1.5182
  154MOL0     H20320  10.595   4.174   4.552 -1.7571 -2.3031  0.5228
  154MOL0     H20321  10.727   4.225   4.658 -0.1934  0.0900  2.4087
  154MOL0     H20322  10.552   3.984   4.731  0.3563 -0.1362 -0.5639
  154MOL0     H20323  10.706   4.032   4.803 -1.1407  0.0439  0.9969
  154MOL0     H20324  10.705   3.835   4.626 -1.5373  0.0696 -0.1408
  154MOL0     H20325  10.646   3.946   4.510  2.6625  0.0246 -2.8470
  154MOL0     H20326  11.068   4.042   4.574  0.6341 -0.4733  1.5884
  154MOL0     H20327  10.183   4.153   4.753  0.2824 -1.2389  2.6379
  154MOL0     H20328   9.983   4.309   4.845  0.3129  1.2104  2.1282
  155MOL0     O20329   1.205   4.633   9.284 -0.5275  0.2557  0.1870
  155MOL0     C20330   1.270   4.653   9.386  0.6804  0.6205  0.4716
  155MOL0     O20331   1.227   4.709   9.491 -0.6001 -0.0134 -1.0877
  155MOL0     C20332   1.101   4.767   9.492 -0.2399  0.5231  0.1326
  155MOL0     C20333   1.058   4.858   9.393  0.2974 -0.7191  0.0858
  155MOL0     C20334   0.931   4.924   9.405 -0.2926 -0.6803  0.5678
  155MOL0     C20335   0.851   4.912   9.527 -0.9193 -0.1648  2.0766
  155MOL0     O20336   0.726   4.976   9.546 -0.2080 -0.3060 -0.8973
  155MOL0     C20337   0.717   5.110   9.489 -0.2275 -0.4489 -0.6436
  155MOL0     C20338   0.610   5.107   9.375  0.1115  0.4414  0.3111
  155MOL0     C20339   0.470   5.060   9.417  0.2566  1.2257 -0.3154
  155MOL0     C20340   0.374   5.046   9.299 -0.0028  0.6431 -0.3998
  155MOL0     C20341   0.411   4.953   9.189  0.2920 -0.0108 -0.1536
  155MOL0     C20342   0.436   4.808   9.226  0.0456  0.4331 -0.1965
  155MOL0     C20343   0.432   4.719   9.109 -0.8764 -0.2694  0.4256
  155MOL0     C20344   0.405   4.576   9.144  0.5335  0.6733  0.2060
  155MOL0     N20345   0.273   4.556   9.192  0.8123  1.1518  0.3155
  155MOL0     C20346   0.150   4.619   9.170 -0.8063  0.9429 -1.0933
  155MOL0     C20347   0.062   4.534   9.240 -0.1802  0.0609  0.6947
  155MOL0     C20348  -0.087   4.556   9.257 -0.6438  0.2775  0.0589
  155MOL0     C20349  -0.107   4.701   9.298  0.1754  0.3546  1.2859
  155MOL0     C20350  -0.254   4.718   9.324  0.0901  0.1695 -0.2811
  155MOL0     C20351  -0.349   4.713   9.206  0.4818 -0.0087 -0.1165
  155MOL0     O20352  -0.310   4.804   9.099 -0.3785  1.1506 -0.2305
  155MOL0     C20353  -0.392   4.820   8.990 -0.6065 -1.4740  0.3744
  155MOL0     C20354  -0.332   4.828   8.859 -0.6939 -0.8461  0.2964
  155MOL0     C20355  -0.409   4.870   8.749  0.4210 -0.1316  0.3064
  155MOL0     C20356  -0.553   4.899   8.759  0.5552  0.2421 -0.8222
  155MOL0     C20357  -0.645   4.939   8.655 -0.1235  0.3782  0.1454
  155MOL0     O20358  -0.591   4.935   8.535 -0.2143 -0.0836 -0.4129
  155MOL0     C20359  -0.650   5.007   8.431 -0.2815 -0.6668  0.6966
  155MOL0     C20360  -0.777   4.979   8.396  1.2514 -0.5124 -0.3763
  155MOL0     C20361  -0.828   5.050   8.288  0.2349  0.8125 -0.6912
  155MOL0     C20362  -0.753   5.137   8.213  0.3935  0.0295 -0.1359
  155MOL0     O20363  -0.819   5.196   8.107 -0.6579  0.8663  0.1310
  155MOL0     C20364  -0.744   5.305   8.049 -0.5703  0.3950  0.6453
  155MOL0     C20365  -0.819   5.342   7.917 -0.8570 -0.5896  0.6512
  155MOL0     C20366  -0.732   5.440   7.830  0.6964  0.0626 -0.3318
  155MOL0     C20367  -0.802   5.448   7.694  0.1724 -0.4891  0.4119
  155MOL0     C20368  -0.736   5.555   7.613  0.5262  0.0724  0.1631
  155MOL0     C20369  -0.731   5.694   7.688  0.6123  0.6245 -0.1919
  155MOL0     C20370  -0.710   5.806   7.596 -0.9675 -0.3505 -0.0238
  155MOL0     C20371  -0.587   5.804   7.506 -0.2490  0.0107 -0.1915
  155MOL0    Cl20372  -0.434   5.767   7.593  0.0655  0.1656 -0.2324
  155MOL0     C20373  -0.616   5.161   8.250  0.2076  0.5480  0.9422
  155MOL0     C20374  -0.562   5.095   8.357 -0.2943  0.8802  0.5052
  155MOL0     O20375  -0.750   4.979   8.690 -0.0318  0.3551  0.4591
  155MOL0     C20376  -0.610   4.873   8.887 -0.3592 -0.9810 -0.7365
  155MOL0     C20377  -0.527   4.850   8.998 -0.3397  0.3727  0.0433
  155MOL0     N20378   0.129   4.438   9.310  0.2526  0.9664  0.8196
  155MOL0     N20379   0.253   4.457   9.283  0.6089 -0.1912  0.4541
  155MOL0     C20380   0.896   4.821   9.622 -0.2507 -0.1912  0.2004
  155MOL0     C20381   1.024   4.756   9.606 -0.2176  0.1472  1.2989
  155MOL0     C20382   1.413   4.618   9.396 -0.1760  0.0673  0.6996
  155MOL0     C20383   1.451   4.505   9.330  0.3725  0.2759 -0.0613
  155MOL0     C20384   1.591   4.483   9.315 -0.1750  0.1087 -0.5703
  155MOL0     C20385   1.683   4.564   9.387 -0.5457  0.7838 -0.4191
  155MOL0     O20386   1.816   4.545   9.391 -0.3240  0.5118  0.2682
  155MOL0     C20387   1.883   4.431   9.339  0.2702 -0.0245 -0.0698
  155MOL0     C20388   2.031   4.422   9.396 -0.0809 -0.9589 -0.5692
  155MOL0     C20389   2.094   4.283   9.398 -0.7549 -0.0722  0.3669
  155MOL0     C20390   2.246   4.293   9.405  0.8045 -0.6226 -1.0169
  155MOL0     C20391   2.299   4.330   9.534  0.7263 -0.3597 -0.0167
  155MOL0     C20392   2.343   4.363   9.639 -0.2402  0.2369 -0.0219
  155MOL0     C20393   1.638   4.673   9.460 -1.1647 -0.1396 -0.2805
  155MOL0     C20394   1.503   4.701   9.464 -0.1787 -0.2477 -0.2386
  155MOL0     H20395   1.109   4.878   9.300 -1.7780  2.0530 -0.5870
  155MOL0     H20396   0.912   4.988   9.319 -3.2255 -1.9420  0.1531
  155MOL0     H20397   0.810   5.145   9.444  2.1993 -2.8908  2.1097
  155MOL0     H20398   0.687   5.177   9.571  2.1771  0.2443 -0.2516
  155MOL0     H20399   0.646   5.037   9.299 -3.6930 -0.9875 -0.3727
  155MOL0     H20400   0.603   5.206   9.328  0.8480  0.3951  0.0828
  155MOL0     H20401   0.431   5.139   9.482 -1.5082  0.3041 -0.1818
  155MOL0     H20402   0.476   4.958   9.455 -0.7000  0.9864 -0.7770
  155MOL0     H20403   0.282   4.998   9.335  1.0603 -1.3467 -0.1753
  155MOL0     H20404   0.354   5.145   9.256  3.2207  1.6218  0.0414
  155MOL0     H20405   0.499   4.996   9.141  2.8182 -1.9329  2.3558
  155MOL0     H20406   0.322   4.946   9.127 -1.2775 -0.5994  2.0684
  155MOL0     H20407   0.358   4.784   9.298  0.7599  1.8427  1.1134
  155MOL0     H20408   0.533   4.800   9.276 -0.0237  0.0384 -0.1244
  155MOL0     H20409   0.350   4.755   9.045 -0.9073 -3.8136 -1.7859
  155MOL0     H20410   0.528   4.729   9.058 -1.1584  1.3094  0.1489
  155MOL0     H20411   0.478   4.547   9.220 -0.4175 -1.3823  0.4087
  155MOL0     H20412   0.400   4.521   9.049 -1.6892 -1.0091  1.2064
  155MOL0     H20413   0.140   4.710   9.111 -0.5394  2.1318  0.6331
  155MOL0     H20414  -0.116   4.483   9.332  0.8172  0.2071  0.5990
  155MOL0     H20415  -0.128   4.524   9.160  1.0004 -1.1898 -0.2115
  155MOL0     H20416  -0.077   4.779   9.227 -0.8738  0.4251  0.9058
  155MOL0     H20417  -0.046   4.724   9.386  1.9414 -1.1102  0.5352
  155MOL0     H20418  -0.281   4.656   9.409  1.6744 -1.0398 -0.6185
  155MOL0     H20419  -0.255   4.819   9.367  1.7520 -0.4441  1.3112
  155MOL0     H20420  -0.454   4.724   9.233  0.8837 -0.2996  1.7702
  155MOL0     H20421  -0.346   4.610   9.171 -1.2694  0.0675 -0.5370
  155MOL0     H20422  -0.228   4.801   8.847 -1.4323 -3.0110 -2.1834
  155MOL0     H20423  -0.367   4.879   8.649 -0.7760  2.8573 -0.0325
  155MOL0     H20424  -0.837   4.901   8.443  2.6004 -0.7927  0.9510
  155MOL0     H20425  -0.928   5.021   8.257  1.1465 -2.0071 -1.2458
  155MOL0     H20426  -0.650   5.270   8.007 -1.1753  0.2304 -0.6210
  155MOL0     H20427  -0.727   5.383   8.123 -0.6056 -1.1440  2.3586
  155MOL0     H20428  -0.910   5.401   7.929  0.5605  2.1732 -1.0748
  155MOL0     H20429  -0.838   5.251   7.859 -0.2646 -2.2144  2.8485
  155MOL0     H20430  -0.632   5.397   7.818 -0.4704 -2.4726 -1.8412
  155MOL0     H20431  -0.722   5.534   7.885 -1.4058  0.8933 -1.2830
  155MOL0     H20432  -0.802   5.351   7.644 -2.1842  0.7828 -2.3296
  155MOL0     H20433  -0.907   5.474   7.705  0.5929  1.6187 -0.1217
  155MOL0     H20434  -0.792   5.548   7.519  0.8540 -0.2512 -0.0091
  155MOL0     H20435  -0.633   5.531   7.588 -0.0283  0.3435 -2.6525
  155MOL0     H20436  -0.654   5.698   7.765 -0.6581  1.6016  1.0951
  155MOL0     H20437  -0.825   5.701   7.745  1.1116 -1.5538  1.0316
  155MOL0     H20438  -0.796   5.830   7.533 -1.0203 -1.2754 -0.3237
  155MOL0     H20439  -0.708   5.890   7.666  1.3870 -2.0424  2.1585
  155MOL0     H20440  -0.586   5.902   7.457  2.7370  0.7733  1.1287
  155MOL0     H20441  -0.610   5.728   7.431  4.1819 -0.8010 -1.0246
  155MOL0     H20442  -0.545   5.225   8.199 -0.3930 -2.0272 -3.6797
  155MOL0     H20443  -0.457   5.104   8.382  0.0269 -0.4106 -0.2801
  155MOL0     H20444  -0.716   4.878   8.913 -0.1427 -0.1541  0.0764
  155MOL0     H20445  -0.580   4.834   9.091 -2.1800 -2.7631 -1.3568
  155MOL0     H20446   0.848   4.818   9.720 -1.8215 -1.1533 -0.5630
  155MOL0     H20447   1.055   4.696   9.691  3.1479 -0.1712 -0.0257
  155MOL0     H20448   1.371   4.447   9.285  0.7055 -2.1958  2.2897
  155MOL0     H20449   1.631   4.406   9.249  0.3223  0.8551 -1.1616
  155MOL0     H20450   1.862   4.431   9.232  0.3457  0.8019 -0.0861
  155MOL0     H20451   1.842   4.338   9.380  1.3403  0.9116  3.4431
  155MOL0     H20452   2.093   4.489   9.336 -0.4169 -1.0206 -0.9978
  155MOL0     H20453   2.030   4.452   9.501 -0.6219  1.5569 -1.2069
  155MOL0     H20454   2.076   4.227   9.306 -1.0493  2.5258 -1.2473
  155MOL0     H20455   2.045   4.239   9.485  2.5642 -1.6429  1.6412
  155MOL0     H20456   2.293   4.200   9.372  1.6583 -0.0412 -1.4766
  155MOL0     H20457   2.267   4.374   9.334 -0.2483  0.7875  0.2199
  155MOL0     H20458   2.376   4.383   9.739  0.8708 -0.4614 -0.2188
  155MOL0     H20459   1.708   4.741   9.508  0.8211 -0.2896 -2.7549
  155MOL0     H20460   1.463   4.787   9.516 -2.2943 -2.9591  3.0764
  156MOL0     O20461   4.323   1.204   6.746  1.1942  0.4346 -1.2263
  156MOL0     C20462   4.206   1.185   6.733  0.2677 -0.0074  0.0216
  156MOL0     O20463   4.109   1.267   6.781 -0.2295 -0.1406  0.3228
  156MOL0     C20464   4.160   1.382   6.841 -0.4174 -0.4135  1.5409
  156MOL0     C20465   4.247   1.388   6.950 -0.7261 -0.3846 -0.0139
  156MOL0     C20466   4.289   1.507   6.997  0.7274  0.0342 -0.7199
  156MOL0     C20467   4.260   1.627   6.931  0.3158 -0.5114 -0.2045
  156MOL0     O20468   4.317   1.743   6.955 -0.4839 -0.2549  0.1530
  156MOL0     C20469   4.415   1.753   7.058 -0.2256  1.3391 -0.0984
  156MOL0     C20470   4.368   1.739   7.212  1.1374 -0.7666 -0.1915
  156MOL0     C20471   4.326   1.874   7.264 -0.7218  0.4776  0.0592
  156MOL0     C20472   4.288   1.871   7.412 -0.0024  0.6009 -0.0164
  156MOL0     C20473   4.262   2.015   7.453  0.4252  0.2805 -1.3124
  156MOL0     C20474   4.165   2.021   7.573 -0.6629  0.6482 -0.0540
  156MOL0     C20475   4.017   2.003   7.525  0.2187  0.0916  0.5052
  156MOL0     C20476   3.912   1.994   7.637 -0.2646  0.0600  0.1401
  156MOL0     N20477   3.792   1.925   7.576 -0.8386  0.1002  0.1501
  156MOL0     C20478   3.772   1.795   7.578 -0.7491  0.1093  0.0140
  156MOL0     C20479   3.650   1.779   7.536 -0.3586  1.1871 -0.1087
  156MOL0     C20480   3.580   1.648   7.519  0.7552  0.0313 -0.4873
  156MOL0     C20481   3.508   1.642   7.385  0.5712  0.0876  0.0032
  156MOL0     C20482   3.419   1.517   7.354  0.4580 -0.0841  0.2202
  156MOL0     C20483   3.498   1.370   7.364 -1.4768  0.3709  0.4115
  156MOL0     O20484   3.427   1.251   7.333 -0.6130  0.0998 -0.2144
  156MOL0     C20485   3.496   1.127   7.296 -0.3777  0.2686  0.8896
  156MOL0     C20486   3.602   1.062   7.369  1.0858 -0.3484 -0.3947
  156MOL0     C20487   3.650   0.942   7.329  0.3521 -0.0338 -0.6376
  156MOL0     C20488   3.597   0.867   7.222  0.4253  0.2571  0.8397
  156MOL0     C20489   3.644   0.736   7.180  0.3225 -0.5216  0.2049
  156MOL0     O20490   3.592   0.686   7.066  0.3518  0.7708  0.3447
  156MOL0     C20491   3.644   0.570   7.002  0.2983 -0.4651 -1.0000
  156MOL0     C20492   3.731   0.584   6.884  0.0142  0.0161  0.1675
  156MOL0     C20493   3.793   0.470   6.834  0.0249  0.8557 -0.6216
  156MOL0     C20494   3.764   0.336   6.891 -0.0005 -0.6419 -0.1089
  156MOL0     O20495   3.833   0.235   6.834 -0.2739  0.6965 -0.1873
  156MOL0     C20496   3.763   0.112   6.802  1.0920  0.5826 -0.5688
  156MOL0     C20497   3.835   0.034   6.706 -0.5101  0.3076  0.2622
  156MOL0     C20498   3.751  -0.090   6.660  0.0240 -0.4639 -0.2651
  156MOL0     C20499   3.823  -0.178   6.561 -0.0645 -0.0162  0.4141
  156MOL0     C20500   3.862  -0.101   6.438 -0.4991  0.6208  0.4041
  156MOL0     C20501   3.902  -0.191   6.314  0.2057 -0.2606 -0.3894
  156MOL0     C20502   3.960  -0.324   6.348  0.4842 -0.0401 -0.1732
  156MOL0     C20503   4.054  -0.373   6.235  0.7265 -0.7153  0.2821
  156MOL0    Cl20504   3.963  -0.394   6.082  0.2966 -0.1450 -0.1379
  156MOL0     C20505   3.680   0.331   7.009  0.2082 -0.0709 -0.4896
  156MOL0     C20506   3.612   0.443   7.056  0.2427  0.7727 -0.2576
  156MOL0     O20507   3.736   0.687   7.241  0.4638 -0.5987  0.8451
  156MOL0     C20508   3.484   0.927   7.160 -0.5425 -0.3675  0.5011
  156MOL0     C20509   3.441   1.054   7.194  0.2199 -0.1525  0.2602
  156MOL0     N20510   3.592   1.901   7.501  0.4742  0.0263  0.5548
  156MOL0     N20511   3.686   1.994   7.523  0.3038  0.6585 -1.1747
  156MOL0     C20512   4.161   1.624   6.832 -0.0239 -0.0887 -0.2584
  156MOL0     C20513   4.119   1.506   6.778 -0.5108  0.7304  0.0481
  156MOL0     C20514   4.159   1.063   6.659  1.1983  0.0878 -0.0974
  156MOL0     C20515   4.240   0.951   6.632 -0.4005  0.7454 -0.6806
  156MOL0     C20516   4.191   0.844   6.559 -0.8982  0.3409  0.8948
  156MOL0     C20517   4.063   0.843   6.494 -0.3668  0.5043 -0.3390
  156MOL0     O20518   4.007   0.739   6.421  0.6007  0.7198  0.0168
  156MOL0     C20519   4.093   0.618   6.416  0.4985 -0.7002  0.5715
  156MOL0     C20520   4.004   0.504   6.354  0.0063  1.0250 -0.3490
  156MOL0     C20521   3.894   0.433   6.442  0.6098 -0.1155 -0.3957
  156MOL0     C20522   3.800   0.337   6.365  0.2584 -0.1825  0.7575
  156MOL0     C20523   3.879   0.238   6.297 -0.6714  0.0453 -0.4224
  156MOL0     C20524   3.949   0.171   6.226 -0.0546  0.3062 -0.5859
  156MOL0     C20525   3.992   0.961   6.517  0.7510 -0.1688  0.9431
  156MOL0     C20526   4.035   1.064   6.602  0.3777  1.0515  0.1287
  156MOL0     H20527   4.271   1.294   6.999 -0.3714 -2.4107 -3.6276
  156MOL0     H20528   4.351   1.498   7.086 -0.4096  1.5722  0.2991
  156MOL0     H20529   4.459   1.852   7.049 -1.1862  1.6896 -1.1027
  156MOL0     H20530   4.487   1.675   7.031  0.1216  1.7976 -0.5104
  156MOL0     H20531   4.453   1.708   7.273  2.0102  1.9112  0.0537
  156MOL0     H20532   4.284   1.669   7.224  1.6009 -1.4894 -1.0093
  156MOL0     H20533   4.235   1.905   7.210 -2.7039 -0.3384  2.7218
  156MOL0     H20534   4.406   1.948   7.263  0.9209 -1.2145 -0.1403
  156MOL0     H20535   4.203   1.803   7.419 -0.6213  1.3699  0.0575
  156MOL0     H20536   4.360   1.814   7.472 -2.0480  0.5269  2.5271
  156MOL0     H20537   4.224   2.077   7.371  1.7645 -0.0601 -2.2083
  156MOL0     H20538   4.353   2.068   7.480 -1.3730  1.5465  3.4232
  156MOL0     H20539   4.176   2.114   7.628  2.2806  0.1742  0.3416
  156MOL0     H20540   4.189   1.944   7.647 -0.5435 -0.0433 -0.7914
  156MOL0     H20541   4.011   2.089   7.458 -1.4364 -1.2670 -1.2162
  156MOL0     H20542   4.019   1.911   7.466 -2.2390 -0.5713  1.2869
  156MOL0     H20543   3.898   2.098   7.667  1.6453  0.7594 -1.2323
  156MOL0     H20544   3.949   1.933   7.720  0.7372 -0.7031 -0.8391
  156MOL0     H20545   3.831   1.716   7.625 -0.4189  2.0891  3.2643
  156MOL0     H20546   3.507   1.626   7.598  2.8841 -1.9909  1.0583
  156MOL0     H20547   3.648   1.562   7.519  1.8472  0.8644 -1.1419
  156MOL0     H20548   3.589   1.667   7.316  1.6030  0.6908  1.3790
  156MOL0     H20549   3.435   1.725   7.385  0.1372 -0.2532 -2.0471
  156MOL0     H20550   3.342   1.518   7.432  1.8445 -0.7535  1.6769
  156MOL0     H20551   3.373   1.511   7.255 -3.9347 -0.3861  2.0477
  156MOL0     H20552   3.534   1.356   7.466  0.5870 -0.9021 -0.4375
  156MOL0     H20553   3.597   1.384   7.322 -0.2691  0.9835  3.2162
  156MOL0     H20554   3.638   1.108   7.461 -0.4735 -0.0517  0.1029
  156MOL0     H20555   3.747   0.917   7.371  3.6663  3.5268 -5.1445
  156MOL0     H20556   3.748   0.677   6.830 -1.4352 -0.9064 -2.0328
  156MOL0     H20557   3.876   0.485   6.765  0.3068  0.4039 -0.3812
  156MOL0     H20558   3.672   0.135   6.745  1.2020  2.2442 -0.1180
  156MOL0     H20559   3.744   0.051   6.891  0.9216 -2.3952 -2.4816
  156MOL0     H20560   3.926   0.002   6.757 -0.9109  1.1580  1.5571
  156MOL0     H20561   3.853   0.100   6.620 -2.3186 -1.3984 -1.5164
  156MOL0     H20562   3.656  -0.048   6.624  0.6999  3.1058  1.6208
  156MOL0     H20563   3.732  -0.144   6.753  2.3653  1.8445  1.6866
  156MOL0     H20564   3.919  -0.211   6.600 -0.4599  0.1074  1.5171
  156MOL0     H20565   3.756  -0.261   6.536  0.8033 -0.6588  0.1645
  156MOL0     H20566   3.953  -0.046   6.464  0.5235 -1.7586  2.2340
  156MOL0     H20567   3.789  -0.024   6.414 -0.8126 -0.3217 -1.9027
  156MOL0     H20568   3.972  -0.128   6.259 -1.1019  0.4841 -1.2712
  156MOL0     H20569   3.805  -0.199   6.265 -0.7105 -1.1219  1.4532
  156MOL0     H20570   4.024  -0.326   6.436  3.0299 -0.6851 -1.9143
  156MOL0     H20571   3.880  -0.394   6.373  1.0203 -0.3628  0.6945
  156MOL0     H20572   4.101  -0.471   6.247  2.0266  0.0607  1.7883
  156MOL0     H20573   4.133  -0.297   6.225 -2.0417  2.2086 -1.4640
  156MOL0     H20574   3.665   0.234   7.054 -0.5967  0.9107  1.4843
  156MOL0     H20575   3.544   0.431   7.140  0.3944 -0.6026 -0.3218
  156MOL0     H20576   3.427   0.869   7.089  1.5277 -0.6119 -1.0525
  156MOL0     H20577   3.359   1.100   7.140  0.3794  0.2997  0.3978
  156MOL0     H20578   4.149   1.726   6.798  3.3597  0.2456 -0.8612
  156MOL0     H20579   4.049   1.496   6.695 -0.9886  1.1129  0.4024
  156MOL0     H20580   4.344   0.944   6.663 -0.2634  0.7374 -1.1320
  156MOL0     H20581   4.266   0.767   6.544 -1.2770 -0.3096  2.1916
  156MOL0     H20582   4.129   0.602   6.518  0.0849  1.2213  1.0760
  156MOL0     H20583   4.178   0.639   6.351  1.4803 -0.1686  1.9947
  156MOL0     H20584   3.960   0.543   6.262  1.7075  0.2499 -1.5621
  156MOL0     H20585   4.073   0.425   6.320  0.2548  0.3121  1.6553
  156MOL0     H20586   3.842   0.513   6.495 -1.2857 -1.1983 -0.5221
  156MOL0     H20587   3.949   0.380   6.521  1.1749  0.1907 -0.5793
  156MOL0     H20588   3.727   0.297   6.436  2.2122  1.0784  3.6297
  156MOL0     H20589   3.748   0.390   6.284  0.3760  1.9407  2.0111
  156MOL0     H20590   4.018   0.110   6.171  1.5680 -0.3058  1.9519
  156MOL0     H20591   3.912   0.986   6.448  1.5160 -0.9111 -0.2506
  156MOL0     H20592   3.969   1.150   6.618 -0.2820  1.1539 -2.6412
  157MOL0     O20593   5.612   2.490   1.623 -0.3580 -0.3574 -0.4241
  157MOL0     C20594   5.659   2.536   1.727 -0.0261  0.0198  0.4154
  157MOL0     O20595   5.575   2.585   1.827 -0.3154  1.0729 -0.1369
  157MOL0     C20596   5.448   2.568   1.806 -0.7137  1.2888 -0.1421
  157MOL0     C20597   5.390   2.441   1.818 -0.9448  0.6853 -0.3531
  157MOL0     C20598   5.255   2.416   1.797 -0.3297 -0.3597 -1.5006
  157MOL0     C20599   5.169   2.525   1.766  0.2230  0.5404 -0.2877
  157MOL0     O20600   5.042   2.481   1.760  0.4751 -0.3655 -0.3167
  157MOL0     C20601   4.945   2.579   1.705 -0.9002 -0.0869 -0.8314
  157MOL0     C20602   4.832   2.494   1.646  1.0643  0.3880  0.4444
  157MOL0     C20603   4.765   2.416   1.755 -1.0474 -0.4264  0.5993
  157MOL0     C20604   4.688   2.319   1.673  0.3099 -0.1908  0.2271
  157MOL0     C20605   4.562   2.386   1.606  0.4421 -0.4378  0.8698
  157MOL0     C20606   4.480   2.281   1.533  0.3813  0.6234 -1.1084
  157MOL0     C20607   4.342   2.332   1.487  0.0160  0.2471 -0.0870
  157MOL0     C20608   4.338   2.447   1.389  0.2676  0.1766  0.3947
  157MOL0     N20609   4.406   2.419   1.264  0.1519 -0.1510  0.6904
  157MOL0     C20610   4.533   2.438   1.236 -0.0319 -0.1255 -0.8605
  157MOL0     C20611   4.541   2.408   1.104 -0.5043 -0.4051 -0.3461
  157MOL0     C20612   4.664   2.438   1.020  0.3583 -0.5362  0.3313
  157MOL0     C20613   4.641   2.499   0.878  0.3818  0.6887 -0.3547
  157MOL0     C20614   4.754   2.451   0.785  0.0149 -1.8299 -0.1799
  157MOL0     C20615   4.790   2.571   0.700  0.6048 -0.5497 -0.1639
  157MOL0     O20616   4.849   2.672   0.789 -0.0799  0.5530  0.3573
  157MOL0     C20617   4.978   2.652   0.845  0.2890  0.1769  1.0981
  157MOL0     C20618   5.013   2.715   0.966 -0.3823  0.0925  0.4452
  157MOL0     C20619   5.141   2.698   1.015  0.9567 -0.6124  0.0214
  157MOL0     C20620   5.240   2.614   0.954  0.4479  0.6760  0.3086
  157MOL0     C20621   5.373   2.588   0.998  0.0427  0.4665  0.1361
  157MOL0     O20622   5.421   2.666   1.096  0.1013  0.2018  0.2638
  157MOL0     C20623   5.553   2.652   1.140 -0.9621 -0.4828  0.1778
  157MOL0     C20624   5.666   2.711   1.084  0.1071 -1.0341  0.3761
  157MOL0     C20625   5.797   2.689   1.131  0.0523 -0.6766 -0.5990
  157MOL0     C20626   5.814   2.603   1.242 -0.0878 -1.8029 -0.5513
  157MOL0     O20627   5.935   2.574   1.303  0.0475  0.2487  1.6355
  157MOL0     C20628   6.027   2.531   1.208 -0.8458 -0.9401 -0.4571
  157MOL0     C20629   6.126   2.432   1.268 -0.1270 -0.5312  0.1436
  157MOL0     C20630   6.219   2.369   1.170 -0.0285 -0.0152 -0.0252
  157MOL0     C20631   6.347   2.304   1.240  1.4580 -1.4809  0.1881
  157MOL0     C20632   6.452   2.278   1.134  0.4193  0.3069  0.4128
  157MOL0     C20633   6.580   2.228   1.197 -0.3121  0.2204  0.7334
  157MOL0     C20634   6.697   2.261   1.110 -1.2247 -0.4365  0.3714
  157MOL0     C20635   6.823   2.192   1.154 -0.2725  0.3684 -0.1378
  157MOL0    Cl20636   6.884   2.244   1.321 -0.0965 -0.3459  0.2299
  157MOL0     C20637   5.704   2.559   1.307  0.5549  0.8456  0.9635
  157MOL0     C20638   5.569   2.575   1.253  0.1122 -0.1173 -0.4083
  157MOL0     O20639   5.448   2.510   0.928  0.0310  0.5656 -0.1678
  157MOL0     C20640   5.200   2.542   0.837  0.1965  0.1045 -1.2142
  157MOL0     C20641   5.078   2.570   0.782  1.1836  0.3814 -0.0343
  157MOL0     N20642   4.420   2.355   1.057 -0.1483 -0.8678 -0.0739
  157MOL0     N20643   4.345   2.352   1.163 -0.4389 -0.0058 -0.5198
  157MOL0     C20644   5.228   2.656   1.748  0.0980 -0.1017 -0.5676
  157MOL0     C20645   5.367   2.677   1.773 -0.5142  0.9298  1.1027
  157MOL0     C20646   5.802   2.526   1.752 -0.1463 -0.2916  0.0941
  157MOL0     C20647   5.892   2.509   1.648 -0.7077 -0.5240 -0.2765
  157MOL0     C20648   6.034   2.526   1.667 -0.1475 -0.8478  0.9291
  157MOL0     C20649   6.078   2.561   1.794 -0.0765 -0.7376 -0.7322
  157MOL0     O20650   6.209   2.587   1.829 -0.6876 -0.1001 -0.8498
  157MOL0     C20651   6.315   2.518   1.767 -0.4961 -0.0118 -0.1315
  157MOL0     C20652   6.454   2.573   1.808  0.1699 -0.5932  0.0832
  157MOL0     C20653   6.585   2.505   1.747  0.5725 -0.6395 -1.4662
  157MOL0     C20654   6.573   2.464   1.605 -0.2849  0.1428 -0.0522
  157MOL0     C20655   6.579   2.584   1.520 -0.1092 -0.1392  0.6050
  157MOL0     C20656   6.579   2.686   1.462 -0.6075 -0.4287  0.1799
  157MOL0     C20657   5.989   2.574   1.895  0.4260 -0.3049 -0.2188
  157MOL0     C20658   5.852   2.560   1.877 -0.1849 -0.8921 -0.0908
  157MOL0     H20659   5.452   2.359   1.852 -0.0084  0.8245 -1.6373
  157MOL0     H20660   5.198   2.329   1.829 -0.3753 -0.4398 -1.7980
  157MOL0     H20661   4.985   2.634   1.619  0.7645 -0.3085 -0.2289
  157MOL0     H20662   4.911   2.652   1.778  0.7462 -0.6235  0.5203
  157MOL0     H20663   4.876   2.433   1.567 -0.1740 -0.5194  0.4242
  157MOL0     H20664   4.762   2.565   1.601 -0.4135 -0.6403  1.0610
  157MOL0     H20665   4.701   2.485   1.812 -1.0416 -1.1571  1.5063
  157MOL0     H20666   4.828   2.371   1.832 -0.1452  1.1167  0.8144
  157MOL0     H20667   4.752   2.273   1.596 -1.4892 -1.2629 -0.6954
  157MOL0     H20668   4.658   2.241   1.744  0.3128  0.2805  0.7473
  157MOL0     H20669   4.580   2.467   1.535 -1.3039  0.0069  0.8941
  157MOL0     H20670   4.498   2.430   1.683  1.7429 -0.3938  1.9874
  157MOL0     H20671   4.466   2.202   1.608 -0.3904  2.1868  0.4776
  157MOL0     H20672   4.534   2.251   1.443  1.7702  1.1662 -0.4871
  157MOL0     H20673   4.294   2.245   1.440  0.3609  0.4482 -0.8252
  157MOL0     H20674   4.282   2.363   1.573  0.6127 -0.1862  0.4883
  157MOL0     H20675   4.379   2.535   1.439 -1.4443  2.2715 -1.6666
  157MOL0     H20676   4.236   2.468   1.357 -0.2580 -0.1032  1.8143
  157MOL0     H20677   4.615   2.477   1.296 -2.6012  1.2267  2.0920
  157MOL0     H20678   4.702   2.337   1.002 -1.2798 -1.1493  0.1040
  157MOL0     H20679   4.735   2.500   1.077  0.1430 -0.1122  0.1460
  157MOL0     H20680   4.628   2.605   0.898 -3.0967  0.1374  1.0708
  157MOL0     H20681   4.543   2.462   0.844 -1.6812  0.2396  5.1107
  157MOL0     H20682   4.840   2.449   0.852  0.5836  3.3030 -0.3456
  157MOL0     H20683   4.738   2.363   0.723 -3.8706 -0.1637 -1.8464
  157MOL0     H20684   4.705   2.620   0.654 -2.7772  1.1287  6.5136
  157MOL0     H20685   4.866   2.543   0.627 -1.7508 -1.9942 -2.2016
  157MOL0     H20686   4.931   2.762   1.019 -0.3922  0.7569 -0.1389
  157MOL0     H20687   5.156   2.752   1.109  0.0694  1.9433 -1.1958
  157MOL0     H20688   5.646   2.780   1.003  1.6847  2.0843  2.4600
  157MOL0     H20689   5.871   2.745   1.075  0.9355 -0.4561  0.7329
  157MOL0     H20690   6.079   2.619   1.172 -0.7398  0.3909  2.6103
  157MOL0     H20691   5.978   2.467   1.134 -4.2438 -0.9757  1.5723
  157MOL0     H20692   6.073   2.361   1.333  2.5116 -0.5630  2.4590
  157MOL0     H20693   6.186   2.489   1.338  2.9780 -0.9409 -2.0101
  157MOL0     H20694   6.260   2.448   1.106 -1.3269  1.8755  1.3624
  157MOL0     H20695   6.185   2.289   1.102  1.9101 -1.1725  0.2958
  157MOL0     H20696   6.381   2.382   1.308 -0.3947  1.8349 -2.3423
  157MOL0     H20697   6.311   2.214   1.289 -0.0964 -0.6339  0.6502
  157MOL0     H20698   6.475   2.374   1.086  2.7380 -1.8652 -3.3157
  157MOL0     H20699   6.412   2.208   1.060 -0.0551 -0.6434  1.5365
  157MOL0     H20700   6.582   2.118   1.200  2.1597  0.1417 -0.8773
  157MOL0     H20701   6.613   2.279   1.287  4.7109  2.5720 -2.0162
  157MOL0     H20702   6.678   2.230   1.007 -1.0764  2.2288 -0.5479
  157MOL0     H20703   6.716   2.369   1.112  0.2464 -0.6593 -0.2093
  157MOL0     H20704   6.901   2.192   1.078 -0.0666 -1.1723  0.0475
  157MOL0     H20705   6.808   2.084   1.145  1.7217  0.1463 -1.2964
  157MOL0     H20706   5.707   2.501   1.399  3.4259 -0.3967  0.1933
  157MOL0     H20707   5.488   2.529   1.308 -0.7216  2.1245  0.3385
  157MOL0     H20708   5.258   2.459   0.799  1.3434  0.8595 -1.1590
  157MOL0     H20709   5.058   2.515   0.691  2.8308  2.7403 -1.9645
  157MOL0     H20710   5.170   2.743   1.719  1.1160  1.1183  0.8799
  157MOL0     H20711   5.395   2.781   1.766 -2.5153  1.3930 -1.8378
  157MOL0     H20712   5.857   2.468   1.553 -0.3268 -3.8448  0.8876
  157MOL0     H20713   6.101   2.519   1.582  0.9709  1.3007  1.5470
  157MOL0     H20714   6.315   2.545   1.661  0.9429  5.3902  0.9364
  157MOL0     H20715   6.308   2.411   1.790 -1.8608  0.0245 -0.2849
  157MOL0     H20716   6.456   2.677   1.774 -0.5846 -0.5011  0.3077
  157MOL0     H20717   6.471   2.573   1.916  0.7985 -1.4606 -0.0019
  157MOL0     H20718   6.604   2.408   1.793 -2.5104 -0.7865 -0.2795
  157MOL0     H20719   6.674   2.564   1.769  0.9183 -1.9757  1.1083
  157MOL0     H20720   6.655   2.396   1.583 -0.9218 -0.1249 -1.7410
  157MOL0     H20721   6.477   2.415   1.585 -0.8716  1.8563 -1.7091
  157MOL0     H20722   6.582   2.780   1.411 -2.1870  0.2123  1.2091
  157MOL0     H20723   6.024   2.607   1.993 -0.5213  0.0784  0.0011
  157MOL0     H20724   5.780   2.580   1.957  1.4312  1.7911  0.8299
  158MOL0     O20725  10.082   5.128   9.637  0.5091  1.0904 -0.7059
  158MOL0     C20726  10.028   5.047   9.564 -0.4579  0.6647  0.4992
  158MOL0     O20727  10.093   4.974   9.466 -1.0776 -0.6237  0.3543
  158MOL0     C20728  10.229   4.960   9.465  1.3184  0.2451  1.0424
  158MOL0     C20729  10.269   4.871   9.359 -0.2438  0.2957  0.1483
  158MOL0     C20730  10.407   4.838   9.340 -0.6220 -0.6387  0.5558
  158MOL0     C20731  10.503   4.900   9.419 -0.3790 -0.0848  0.8843
  158MOL0     O20732  10.634   4.878   9.391  0.1191  0.8262  0.1224
  158MOL0     C20733  10.742   4.963   9.444  0.4826  0.1082  0.9320
  158MOL0     C20734  10.796   4.919   9.584 -0.9291  0.8117  0.6023
  158MOL0     C20735  10.759   4.779   9.630  0.2170  0.0875  0.1074
  158MOL0     C20736  10.820   4.736   9.767  0.6931 -0.0765  0.2809
  158MOL0     C20737  10.965   4.693   9.733  0.0693 -0.9048 -0.0073
  158MOL0     C20738  11.014   4.586   9.832 -0.3555 -0.4520  1.0076
  158MOL0     C20739  11.166   4.548   9.814  0.2359  0.0767 -0.5146
  158MOL0     C20740  11.259   4.652   9.858  0.3543  0.1047  0.3136
  158MOL0     N20741  11.373   4.604   9.948  0.2437  0.0914  1.2932
  158MOL0     C20742  11.503   4.570   9.904  0.2126 -0.5671 -1.0215
  158MOL0     C20743  11.576   4.569  10.022  0.5387  0.1668 -0.3430
  158MOL0     C20744  11.721   4.513  10.028 -0.2395  0.2925  0.1079
  158MOL0     C20745  11.730   4.378  10.104 -0.9847 -0.3532  0.0485
  158MOL0     C20746  11.622   4.264  10.071 -0.1676  0.4436 -0.5765
  158MOL0     C20747  11.582   4.222  10.213 -0.0490 -0.0496 -0.2884
  158MOL0     O20748  11.474   4.123  10.223 -0.7975  0.0314  0.1180
  158MOL0     C20749  11.355   4.154  10.170 -0.1351 -0.3121 -0.8317
  158MOL0     C20750  11.309   4.282  10.162  0.4923 -0.4302 -0.6298
  158MOL0     C20751  11.180   4.306  10.116 -1.1422 -0.3459 -0.5848
  158MOL0     C20752  11.096   4.196  10.092 -0.5734 -0.3160 -0.2257
  158MOL0     C20753  10.954   4.218  10.047  0.7908  0.0893  0.0548
  158MOL0     O20754  10.873   4.106  10.034  0.0605 -0.1013 -0.0218
  158MOL0     C20755  10.744   4.109   9.983  0.6820  0.4729  0.5893
  158MOL0     C20756  10.688   4.216   9.914  0.9240  0.2621 -0.3013
  158MOL0     C20757  10.557   4.209   9.877  0.5196 -0.1252  0.3081
  158MOL0     C20758  10.489   4.080   9.881 -0.3526 -0.0519 -0.8539
  158MOL0     O20759  10.360   4.100   9.841 -0.1312 -0.2375 -0.3403
  158MOL0     C20760  10.267   4.007   9.888  0.3079  0.1270 -0.5947
  158MOL0     C20761  10.140   4.076   9.944  0.6375  1.2827 -0.2780
  158MOL0     C20762  10.168   4.181  10.047  0.1492  0.3978 -0.6802
  158MOL0     C20763  10.253   4.139  10.169 -0.5200  0.2267 -0.1717
  158MOL0     C20764  10.329   4.260  10.213  0.5814 -0.2990  0.2439
  158MOL0     C20765  10.394   4.231  10.345 -0.1356 -0.2788  0.1094
  158MOL0     C20766  10.494   4.115  10.360  0.2632  0.3540 -0.7045
  158MOL0     C20767  10.635   4.153  10.306  0.1999  0.1342 -1.3158
  158MOL0    Cl20768  10.751   4.022  10.338 -0.0810 -0.8697  0.3891
  158MOL0     C20769  10.563   3.971   9.926 -0.9475 -0.6595 -0.4464
  158MOL0     C20770  10.683   3.988   9.986  0.0329 -0.4812 -0.6678
  158MOL0     O20771  10.926   4.340  10.030 -0.0343 -0.1084 -0.3145
  158MOL0     C20772  11.137   4.068  10.108 -0.8752 -0.4749  0.0681
  158MOL0     C20773  11.268   4.050  10.147  0.9618 -0.0302  1.0622
  158MOL0     N20774  11.498   4.610  10.129 -0.0431  0.2311 -0.3350
  158MOL0     N20775  11.374   4.642  10.082 -0.7831  0.3837 -0.3697
  158MOL0     C20776  10.460   4.982   9.524  0.1149 -0.4722 -0.9584
  158MOL0     C20777  10.329   5.014   9.550  0.3250 -0.4887  0.5523
  158MOL0     C20778   9.884   5.033   9.584  0.1256 -0.2277  0.7811
  158MOL0     C20779   9.810   5.092   9.695 -0.8706  0.2822  0.5444
  158MOL0     C20780   9.673   5.072   9.704 -0.0419 -0.0322 -0.8134
  158MOL0     C20781   9.605   4.973   9.631 -0.7499 -0.3023  0.5698
  158MOL0     O20782   9.476   4.936   9.664 -0.4814 -0.4668 -0.1980
  158MOL0     C20783   9.399   4.895   9.554  0.3366  0.6365  0.0775
  158MOL0     C20784   9.263   4.869   9.619  0.6049 -0.6271  0.1432
  158MOL0     C20785   9.143   4.820   9.534  0.5476  0.4807 -0.1537
  158MOL0     C20786   9.006   4.838   9.593 -0.3189 -0.8215  0.6336
  158MOL0     C20787   8.981   4.754   9.713  0.1896 -0.0733  0.4814
  158MOL0     C20788   8.955   4.686   9.807 -0.7172 -0.5807 -0.5214
  158MOL0     C20789   9.674   4.932   9.515 -0.3381  1.0526  0.9066
  158MOL0     C20790   9.809   4.961   9.496  0.0076 -1.3280  0.8865
  158MOL0     H20791  10.189   4.830   9.298 -0.7067  1.0701  0.2155
  158MOL0     H20792  10.445   4.787   9.252  1.3726  1.1887  0.2713
  158MOL0     H20793  10.706   5.067   9.449  0.7390  0.1585  2.4083
  158MOL0     H20794  10.827   4.965   9.376  1.5162  3.1371  2.1068
  158MOL0     H20795  10.762   4.985   9.663 -4.4561 -0.8662  0.6555
  158MOL0     H20796  10.905   4.917   9.568 -1.1782  2.1856 -1.8100
  158MOL0     H20797  10.793   4.702   9.561  0.4669  1.5107 -1.4267
  158MOL0     H20798  10.650   4.775   9.636  0.1727 -1.6872 -1.2390
  158MOL0     H20799  10.816   4.804   9.853  1.0915 -2.7562  2.5736
  158MOL0     H20800  10.771   4.644   9.799 -0.0939 -0.2269 -1.2583
  158MOL0     H20801  11.022   4.786   9.743 -0.0534 -0.4507 -2.6800
  158MOL0     H20802  10.975   4.660   9.629  1.8877  0.2908 -0.2705
  158MOL0     H20803  10.952   4.501   9.804 -1.3736  0.4256  0.5541
  158MOL0     H20804  10.987   4.612   9.934 -1.7430  1.5150  0.1878
  158MOL0     H20805  11.170   4.449   9.860  1.5129  0.2749 -0.1894
  158MOL0     H20806  11.185   4.524   9.709 -1.7670  1.0642 -1.1642
  158MOL0     H20807  11.199   4.732   9.903 -2.4017 -0.9866 -1.2023
  158MOL0     H20808  11.303   4.687   9.765  1.0942 -1.6533 -0.0283
  158MOL0     H20809  11.537   4.540   9.805  1.7192  0.5217 -0.8641
  158MOL0     H20810  11.786   4.582  10.082 -2.7770  2.4568  0.5829
  158MOL0     H20811  11.760   4.490   9.928 -1.4228 -2.4689  0.1778
  158MOL0     H20812  11.739   4.413  10.208 -0.1989  1.5804 -0.6344
  158MOL0     H20813  11.827   4.334  10.081 -1.0663 -0.5374  0.0593
  158MOL0     H20814  11.537   4.309  10.018 -1.4964 -0.1666  0.9817
  158MOL0     H20815  11.672   4.179  10.023  0.6409  1.1152 -0.9550
  158MOL0     H20816  11.564   4.313  10.272 -0.1050  1.6759 -2.8104
  158MOL0     H20817  11.671   4.191  10.268  0.2261  2.3079  0.7173
  158MOL0     H20818  11.354   4.377  10.189  0.6363 -0.8793  0.7900
  158MOL0     H20819  11.156   4.412  10.108 -0.6299 -0.0681  1.1685
  158MOL0     H20820  10.751   4.301   9.890  1.4850  0.1137  0.5782
  158MOL0     H20821  10.521   4.300   9.831  2.8602  1.1129  0.7220
  158MOL0     H20822  10.300   3.948   9.974  0.0535  2.0223  0.8913
  158MOL0     H20823  10.245   3.931   9.813  2.4288  0.8136 -2.0216
  158MOL0     H20824  10.064   4.004   9.976 -0.7536  1.8924 -2.0696
  158MOL0     H20825  10.090   4.115   9.855 -2.3108  1.3668  1.2805
  158MOL0     H20826  10.071   4.215  10.085  0.3359 -0.7573  0.9120
  158MOL0     H20827  10.205   4.272   9.998  1.2071  1.4674  1.9111
  158MOL0     H20828  10.186   4.103  10.247  2.5278 -3.0152  1.2337
  158MOL0     H20829  10.319   4.053  10.153 -2.0193 -1.1507  0.7887
  158MOL0     H20830  10.253   4.337  10.230 -2.6178 -3.6499  2.7031
  158MOL0     H20831  10.400   4.290  10.135  1.9254  0.2814  1.6195
  158MOL0     H20832  10.309   4.221  10.412 -1.1964 -0.5038 -1.2319
  158MOL0     H20833  10.444   4.321  10.382  0.6391 -1.5491  2.3402
  158MOL0     H20834  10.495   4.098  10.468  0.3680 -2.3606 -1.0708
  158MOL0     H20835  10.468   4.027  10.301 -0.1460 -0.0692  0.0973
  158MOL0     H20836  10.674   4.248  10.343  1.3361  0.3470 -2.9803
  158MOL0     H20837  10.621   4.177  10.201  0.8283 -0.4394 -1.5414
  158MOL0     H20838  10.527   3.871   9.904 -0.5384 -1.2936  1.5349
  158MOL0     H20839  10.741   3.900  10.016  2.8095  1.5101  0.2415
  158MOL0     H20840  11.070   3.986  10.085 -1.0412 -0.1533 -0.6151
  158MOL0     H20841  11.298   3.946  10.158  0.6702 -0.3429 -0.7864
  158MOL0     H20842  10.536   5.022   9.591 -2.8037 -2.9382  4.4672
  158MOL0     H20843  10.306   5.086   9.628 -2.3674 -1.5605  0.8510
  158MOL0     H20844   9.853   5.165   9.762 -2.6174 -2.2672  4.8402
  158MOL0     H20845   9.612   5.114   9.783 -2.7599 -2.0623 -1.6658
  158MOL0     H20846   9.440   4.800   9.517 -1.6961  1.1745 -4.1048
  158MOL0     H20847   9.387   4.961   9.468 -3.5684 -1.5415 -1.2958
  158MOL0     H20848   9.281   4.786   9.688 -0.6356  0.6218  2.0601
  158MOL0     H20849   9.237   4.957   9.679 -0.2915 -1.1183  0.5047
  158MOL0     H20850   9.154   4.714   9.512 -3.1702 -0.1771  0.5559
  158MOL0     H20851   9.143   4.880   9.442  0.5888  1.3714  0.4102
  158MOL0     H20852   8.993   4.942   9.626 -0.6592 -1.0901  1.3651
  158MOL0     H20853   8.930   4.811   9.520 -0.0491  0.0643  0.0088
  158MOL0     H20854   8.953   4.622   9.893  1.6682 -2.4321 -1.7087
  158MOL0     H20855   9.632   4.863   9.442  1.9257 -2.3332  2.5097
  158MOL0     H20856   9.850   4.942   9.397 -1.5347 -1.7096  0.2816
  159MOL0     O20857   6.953   3.231   2.709  0.1379 -0.8306  0.4285
  159MOL0     C20858   6.884   3.165   2.636  0.2753 -0.8914  0.1070
  159MOL0     O20859   6.745   3.159   2.634 -0.0339 -0.4216 -0.2995
  159MOL0     C20860   6.663   3.257   2.687 -0.4871 -0.3666 -0.1968
  159MOL0     C20861   6.526   3.222   2.706  0.6206 -0.2226  0.0982
  159MOL0     C20862   6.436   3.319   2.750 -0.4766  0.3464  1.2243
  159MOL0     C20863   6.472   3.452   2.779 -0.0967  0.6874 -0.2243
  159MOL0     O20864   6.386   3.555   2.809 -0.3063 -0.0441 -0.0910
  159MOL0     C20865   6.272   3.512   2.895 -1.2357  0.0301  0.0915
  159MOL0     C20866   6.229   3.606   3.006 -0.2606 -0.6080 -0.0367
  159MOL0     C20867   6.085   3.582   3.063  0.0756  0.5732  0.3885
  159MOL0     C20868   6.039   3.444   3.092  0.3714 -0.1165  0.4506
  159MOL0     C20869   5.900   3.453   3.170 -0.1706 -0.0630  0.5563
  159MOL0     C20870   5.829   3.316   3.181  1.1468 -0.0824 -0.1536
  159MOL0     C20871   5.677   3.336   3.231 -0.5475 -0.4394  0.8942
  159MOL0     C20872   5.619   3.202   3.261  0.5085  0.2007  0.0230
  159MOL0     N20873   5.473   3.202   3.290  0.2550  0.3274  0.3725
  159MOL0     C20874   5.402   3.272   3.382 -0.0525 -0.4234 -0.7426
  159MOL0     C20875   5.276   3.237   3.360 -0.2450 -0.2505 -0.6893
  159MOL0     C20876   5.172   3.305   3.440 -0.0450  0.1789  0.4551
  159MOL0     C20877   5.052   3.367   3.375 -0.3601 -0.9482  0.8746
  159MOL0     C20878   4.947   3.396   3.490 -0.3254  0.7601 -0.3610
  159MOL0     C20879   4.835   3.479   3.450  0.9344  0.2409  0.3892
  159MOL0     O20880   4.755   3.490   3.569  0.2163 -0.9841 -0.2659
  159MOL0     C20881   4.637   3.569   3.570 -0.6790  0.8203 -0.3320
  159MOL0     C20882   4.560   3.531   3.671 -0.7711 -0.1838 -0.7246
  159MOL0     C20883   4.428   3.575   3.677 -0.1272 -0.6079 -0.5090
  159MOL0     C20884   4.371   3.660   3.584  0.0784 -0.4046  0.1549
  159MOL0     C20885   4.229   3.703   3.597  0.2325 -0.3881 -0.1945
  159MOL0     O20886   4.166   3.663   3.718  0.1469  0.3718 -0.2679
  159MOL0     C20887   4.043   3.730   3.742 -1.3281  0.1484  0.8834
  159MOL0     C20888   3.930   3.646   3.756  0.3014 -0.1375 -0.0174
  159MOL0     C20889   3.808   3.699   3.797 -0.1747  0.0677  0.0804
  159MOL0     C20890   3.790   3.834   3.832 -0.0551  0.2537 -0.4609
  159MOL0     O20891   3.664   3.877   3.877  0.0155  0.3482  0.2089
  159MOL0     C20892   3.666   3.984   3.975 -0.3368  0.6526  1.2744
  159MOL0     C20893   3.533   4.038   4.006 -0.8277 -0.3021  0.4557
  159MOL0     C20894   3.466   3.944   4.109 -0.1466 -1.0948  0.9731
  159MOL0     C20895   3.316   3.971   4.127 -0.4721 -0.6284 -0.4831
  159MOL0     C20896   3.223   3.892   4.027 -0.6535 -0.5619  0.1284
  159MOL0     C20897   3.156   3.987   3.927 -0.0406 -0.2621 -0.2641
  159MOL0     C20898   3.042   3.920   3.853 -0.8282 -1.1520 -0.1702
  159MOL0     C20899   2.936   4.018   3.813 -0.4427 -1.2223 -0.4096
  159MOL0    Cl20900   2.809   3.953   3.713  0.0824 -0.2928  0.1088
  159MOL0     C20901   3.899   3.920   3.808  0.4556  0.4484 -0.0256
  159MOL0     C20902   4.028   3.869   3.767 -0.7052  0.4833  0.0316
  159MOL0     O20903   4.186   3.779   3.516  0.2183 -0.4038 -0.4011
  159MOL0     C20904   4.463   3.705   3.481  0.4481 -0.7616  0.5179
  159MOL0     C20905   4.591   3.648   3.470  0.0603  0.1238  1.0845
  159MOL0     N20906   5.265   3.136   3.262  0.6812  0.9415  0.3701
  159MOL0     N20907   5.386   3.113   3.227  0.0924  0.1758 -0.5156
  159MOL0     C20908   6.605   3.487   2.766 -1.2354 -0.0696  0.4056
  159MOL0     C20909   6.701   3.392   2.718  0.5441  0.5116  0.6239
  159MOL0     C20910   6.963   3.061   2.569 -0.4961  1.2861 -0.2879
  159MOL0     C20911   7.097   3.061   2.550 -0.7312 -0.1249 -0.6419
  159MOL0     C20912   7.165   2.950   2.514  0.5961 -0.2120 -0.4115
  159MOL0     C20913   7.112   2.837   2.463  0.3292  0.4040 -0.7959
  159MOL0     O20914   7.182   2.731   2.424  0.4241  0.2710  0.1594
  159MOL0     C20915   7.323   2.739   2.383 -0.7101 -0.4387  0.4005
  159MOL0     C20916   7.420   2.706   2.498  0.0987  0.7035 -0.6086
  159MOL0     C20917   7.566   2.684   2.446 -0.5581 -0.4524  0.3139
  159MOL0     C20918   7.671   2.640   2.550 -0.3109  0.2862  0.8840
  159MOL0     C20919   7.805   2.674   2.514  0.0202  0.2361  0.8920
  159MOL0     C20920   7.908   2.721   2.466 -0.4209 -0.2436  0.7206
  159MOL0     C20921   6.971   2.827   2.473  0.0392 -0.2230 -0.0159
  159MOL0     C20922   6.895   2.944   2.519  0.0448 -0.6078 -0.1453
  159MOL0     H20923   6.500   3.120   2.681 -2.3675  0.9595 -2.2376
  159MOL0     H20924   6.333   3.287   2.753 -0.4669  0.1085 -0.3428
  159MOL0     H20925   6.295   3.425   2.958 -0.5582 -2.5181 -3.4065
  159MOL0     H20926   6.189   3.480   2.832  0.2792 -0.2316 -1.8634
  159MOL0     H20927   6.241   3.710   2.973  2.0801 -0.2948  1.5888
  159MOL0     H20928   6.287   3.594   3.098 -1.7906  3.8387  1.7787
  159MOL0     H20929   6.021   3.605   2.977  1.8457  1.5353 -0.7310
  159MOL0     H20930   6.055   3.651   3.143 -0.1561  0.5706  0.3060
  159MOL0     H20931   6.030   3.380   3.004  0.2578  0.2390  0.1993
  159MOL0     H20932   6.114   3.404   3.161  1.5910  0.5549 -0.4305
  159MOL0     H20933   5.828   3.530   3.138  0.7663  1.3322  1.6616
  159MOL0     H20934   5.918   3.493   3.271 -0.1458 -1.0309  0.9486
  159MOL0     H20935   5.874   3.264   3.267 -0.3541  1.5987  1.7556
  159MOL0     H20936   5.833   3.262   3.086  1.1534  0.4054 -0.4327
  159MOL0     H20937   5.676   3.405   3.316  1.7164  0.0558  0.5706
  159MOL0     H20938   5.614   3.381   3.153  0.8607  1.1950  0.6520
  159MOL0     H20939   5.680   3.161   3.341  5.4680  1.7842 -2.5334
  159MOL0     H20940   5.625   3.144   3.169  0.8544 -0.0470  0.2020
  159MOL0     H20941   5.441   3.340   3.457 -2.1570 -1.4555  1.4030
  159MOL0     H20942   5.216   3.381   3.505 -1.1320 -1.0069  2.6827
  159MOL0     H20943   5.138   3.227   3.508 -0.1876  1.0208  1.3704
  159MOL0     H20944   5.013   3.299   3.299 -0.0391 -1.6502  1.3263
  159MOL0     H20945   5.079   3.456   3.317 -0.7735  0.1543  2.3028
  159MOL0     H20946   4.901   3.302   3.523  1.8307  0.4636  2.1978
  159MOL0     H20947   5.000   3.434   3.578 -1.7925  0.2942  0.7610
  159MOL0     H20948   4.778   3.423   3.375  0.6086 -0.0688  0.8664
  159MOL0     H20949   4.873   3.577   3.419  3.6523  0.1141  2.8881
  159MOL0     H20950   4.597   3.463   3.747  0.3405 -1.8436 -2.6434
  159MOL0     H20951   4.377   3.553   3.770  1.2639 -0.8087  0.2267
  159MOL0     H20952   3.932   3.540   3.732 -0.4440 -0.0658 -0.4145
  159MOL0     H20953   3.724   3.632   3.814  0.4030 -0.9352 -0.8443
  159MOL0     H20954   3.721   4.071   3.938 -0.6968 -0.0964 -1.1426
  159MOL0     H20955   3.715   3.942   4.064 -1.5218 -1.0486  1.1741
  159MOL0     H20956   3.469   4.055   3.919 -1.4479  0.9000  1.1214
  159MOL0     H20957   3.563   4.129   4.059  1.0605  0.9469 -2.4891
  159MOL0     H20958   3.510   3.971   4.205 -5.0503  1.9646  2.7847
  159MOL0     H20959   3.485   3.841   4.079  2.3878  0.4573 -3.8636
  159MOL0     H20960   3.287   3.924   4.222 -0.5044  0.3117 -0.0188
  159MOL0     H20961   3.288   4.076   4.140  3.7209  0.6064  0.1677
  159MOL0     H20962   3.149   3.851   4.096  1.0146  0.5019  2.7143
  159MOL0     H20963   3.258   3.796   3.987 -0.9819 -0.7309  0.2409
  159MOL0     H20964   3.218   4.033   3.849  0.9862 -1.1697 -0.0009
  159MOL0     H20965   3.114   4.068   3.988  2.7295  0.4109  0.9153
  159MOL0     H20966   3.067   3.883   3.754  0.4789 -1.0420  0.1020
  159MOL0     H20967   3.001   3.839   3.914 -0.3605 -1.2481  0.0214
  159MOL0     H20968   2.987   4.094   3.753 -0.7830 -1.3250 -0.8327
  159MOL0     H20969   2.887   4.065   3.900 -2.9142  1.7470 -3.1453
  159MOL0     H20970   3.897   4.027   3.826  2.1844  0.5282 -0.1544
  159MOL0     H20971   4.123   3.920   3.770 -2.3994  3.9048  1.4487
  159MOL0     H20972   4.433   3.771   3.400  2.1257 -0.5276  0.0433
  159MOL0     H20973   4.655   3.684   3.391 -1.6190  2.4091  0.6715
  159MOL0     H20974   6.652   3.581   2.792  0.2890 -0.6459 -0.1621
  159MOL0     H20975   6.803   3.426   2.704  1.6097 -2.2957  0.9385
  159MOL0     H20976   7.162   3.140   2.586 -3.3417  0.6880  2.8010
  159MOL0     H20977   7.273   2.944   2.514  0.5773 -0.6598 -1.0918
  159MOL0     H20978   7.353   2.832   2.335 -0.7774  0.1171  1.4160
  159MOL0     H20979   7.341   2.660   2.309  0.4888 -1.4322  1.6961
  159MOL0     H20980   7.422   2.794   2.564  2.2747  1.7771 -1.9956
  159MOL0     H20981   7.376   2.619   2.546 -1.6473  0.4755 -2.4854
  159MOL0     H20982   7.593   2.783   2.407 -1.0610 -0.2343  0.5141
  159MOL0     H20983   7.567   2.615   2.362  0.7578 -1.3061  0.9954
  159MOL0     H20984   7.644   2.677   2.649  0.4984  2.4840  0.3321
  159MOL0     H20985   7.687   2.532   2.546  1.8082  0.5664  0.6629
  159MOL0     H20986   7.993   2.767   2.418 -1.0988  1.8475  1.3875
  159MOL0     H20987   6.920   2.739   2.436 -1.5726  0.0659  1.4078
  159MOL0     H20988   6.786   2.942   2.525 -0.4173  2.4404 -3.8205
  160MOL0     O20989   9.152   2.923   0.468  0.2682  0.5768 -0.6890
  160MOL0     C20990   9.175   3.018   0.536  0.6121 -0.5322 -0.6440
  160MOL0     O20991   9.077   3.103   0.586  0.6115 -0.1776 -0.0824
  160MOL0     C20992   8.935   3.108   0.561 -0.3748 -0.6183  0.3083
  160MOL0     C20993   8.865   3.215   0.613  0.6816 -0.6276  0.0752
  160MOL0     C20994   8.727   3.224   0.590 -0.5793 -0.0532  1.0916
  160MOL0     C20995   8.663   3.125   0.517 -0.4204 -0.7425  0.3459
  160MOL0     O20996   8.534   3.159   0.477  1.0447 -0.5532  0.1589
  160MOL0     C20997   8.459   3.048   0.441  0.2536 -0.2482 -0.4110
  160MOL0     C20998   8.308   3.079   0.442 -0.4691 -0.0914  0.7239
  160MOL0     C20999   8.286   3.157   0.311  0.2098  0.8547 -1.0253
  160MOL0     C21000   8.139   3.199   0.282 -0.1485 -0.8756 -0.6387
  160MOL0     C21001   8.061   3.101   0.193  0.4242  0.3287  0.4466
  160MOL0     C21002   8.105   3.094   0.043 -0.3942 -0.1399 -0.0388
  160MOL0     C21003   8.024   2.997  -0.037 -0.9628  0.3613  0.8387
  160MOL0     C21004   8.071   2.860  -0.018 -0.3173  0.5881 -0.1892
  160MOL0     N21005   8.139   2.810  -0.131 -0.1950 -0.2519 -0.0705
  160MOL0     C21006   8.272   2.774  -0.145  0.3708 -0.8218  0.2161
  160MOL0     C21007   8.293   2.733  -0.265  0.4713 -0.2919  0.8748
  160MOL0     C21008   8.432   2.715  -0.312 -0.1973  0.4549 -0.0582
  160MOL0     C21009   8.454   2.566  -0.347  1.5148  0.5698 -0.0242
  160MOL0     C21010   8.491   2.484  -0.222 -0.5241 -0.5382 -0.1133
  160MOL0     C21011   8.632   2.512  -0.162  0.1685  0.3368  0.0878
  160MOL0     O21012   8.624   2.462  -0.029  0.8200 -0.2996 -0.4116
  160MOL0     C21013   8.733   2.426   0.037 -0.1533 -0.7556  0.0912
  160MOL0     C21014   8.869   2.470   0.019  1.1877  0.1390  0.5400
  160MOL0     C21015   8.977   2.452   0.105  0.1077 -1.6077 -0.5391
  160MOL0     C21016   8.952   2.375   0.220  0.6804 -0.4876 -0.3957
  160MOL0     C21017   9.060   2.357   0.317  0.3875 -0.0955  0.5747
  160MOL0     O21018   9.166   2.432   0.302 -0.1535  0.1113 -0.3904
  160MOL0     C21019   9.273   2.429   0.387  0.7832 -0.3952  0.7732
  160MOL0     C21020   9.386   2.503   0.353  0.2547  0.1952 -0.4960
  160MOL0     C21021   9.492   2.511   0.436  0.1787  1.1781 -0.4480
  160MOL0     C21022   9.489   2.459   0.569 -0.9882  0.4471  0.1537
  160MOL0     O21023   9.591   2.478   0.663  0.1686 -0.1218  0.3958
  160MOL0     C21024   9.710   2.560   0.633 -0.5411  0.4076  0.0124
  160MOL0     C21025   9.800   2.567   0.760 -0.9179 -0.8678 -0.0105
  160MOL0     C21026   9.944   2.617   0.720  0.0171 -0.4246 -0.2860
  160MOL0     C21027  10.040   2.646   0.840  0.6242  0.2671  0.2258
  160MOL0     C21028  10.175   2.686   0.785 -1.1666  0.3511  0.1892
  160MOL0     C21029  10.291   2.656   0.897  0.7456 -0.2420 -0.0704
  160MOL0     C21030  10.408   2.757   0.880 -0.6427 -0.6358  0.1456
  160MOL0     C21031  10.422   2.858   0.997 -0.4927 -0.1395 -1.2068
  160MOL0    Cl21032  10.472   2.757   1.132 -0.2424 -0.1067 -0.0117
  160MOL0     C21033   9.371   2.393   0.608  0.7140  0.4829 -0.0689
  160MOL0     C21034   9.272   2.375   0.515  0.0486  0.5100 -0.2082
  160MOL0     O21035   9.031   2.271   0.401  0.4297  0.0052  0.1825
  160MOL0     C21036   8.821   2.329   0.237  0.0367  0.1420  0.2307
  160MOL0     C21037   8.714   2.359   0.150 -0.1989  0.3042 -0.0273
  160MOL0     N21038   8.174   2.713  -0.321  0.3762  0.3755  0.7066
  160MOL0     N21039   8.077   2.759  -0.245 -0.2998  0.7592 -0.6653
  160MOL0     C21040   8.744   3.013   0.464  0.5182 -0.1442  0.2393
  160MOL0     C21041   8.876   3.009   0.485 -0.4169  1.1546 -0.3145
  160MOL0     C21042   9.309   3.040   0.569 -0.3956 -0.4806  0.1054
  160MOL0     C21043   9.338   3.140   0.664 -0.0294 -0.5216  0.1561
  160MOL0     C21044   9.474   3.174   0.703  0.7941  0.8014 -0.5093
  160MOL0     C21045   9.580   3.109   0.641  0.8371 -0.7456 -0.1125
  160MOL0     O21046   9.706   3.141   0.654 -0.8098 -0.3727 -0.0782
  160MOL0     C21047   9.745   3.242   0.753  0.7292  0.2609 -0.0571
  160MOL0     C21048   9.894   3.259   0.773  0.2648  0.1766  0.4561
  160MOL0     C21049   9.961   3.126   0.805 -0.1924 -0.2334 -0.2915
  160MOL0     C21050  10.111   3.140   0.843 -0.2239 -0.2459  0.7978
  160MOL0     C21051  10.184   3.253   0.797 -0.4631  0.0337 -0.0155
  160MOL0     C21052  10.242   3.345   0.733  0.8934 -0.2388  0.4675
  160MOL0     C21053   9.553   3.002   0.563  0.7176  0.7180  0.5012
  160MOL0     C21054   9.421   2.964   0.520 -0.3241  0.2655  1.0086
  160MOL0     H21055   8.910   3.295   0.670  2.5099 -1.2835 -0.3682
  160MOL0     H21056   8.666   3.305   0.628 -2.3209 -0.0639 -1.4207
  160MOL0     H21057   8.471   2.970   0.517 -1.0746 -0.4205 -0.3657
  160MOL0     H21058   8.494   3.014   0.343  3.6540  3.9504 -0.9472
  160MOL0     H21059   8.283   3.138   0.530 -3.0577  2.1346 -1.3302
  160MOL0     H21060   8.247   2.988   0.439  1.1936 -1.2363 -1.2539
  160MOL0     H21061   8.324   3.090   0.234 -0.6888 -0.9175  0.0231
  160MOL0     H21062   8.355   3.242   0.318 -0.1939  1.0972  0.6479
  160MOL0     H21063   8.084   3.223   0.373  1.5991  2.6316 -0.3186
  160MOL0     H21064   8.148   3.295   0.231 -0.1874 -1.2100 -1.2827
  160MOL0     H21065   7.955   3.125   0.203  0.6299  0.7724  1.6661
  160MOL0     H21066   8.066   2.999   0.233  1.2539  0.7053  1.3389
  160MOL0     H21067   8.209   3.059   0.035  0.3382  2.2860 -3.5465
  160MOL0     H21068   8.091   3.193  -0.000 -1.6768  0.0943  0.8503
  160MOL0     H21069   7.922   3.009  -0.000 -0.8624 -0.5881  1.4644
  160MOL0     H21070   8.027   3.035  -0.140  0.6981 -2.6433 -0.3601
  160MOL0     H21071   7.985   2.795   0.001  0.9802 -0.6229  2.0037
  160MOL0     H21072   8.135   2.861   0.071  1.6379  1.1704 -1.5543
  160MOL0     H21073   8.358   2.803  -0.085  1.2659 -2.5462 -0.1503
  160MOL0     H21074   8.508   2.761  -0.250 -0.4633  0.3040  0.3813
  160MOL0     H21075   8.444   2.770  -0.406  0.4463 -0.6179 -0.6211
  160MOL0     H21076   8.542   2.560  -0.412  2.7142 -1.4769  1.6714
  160MOL0     H21077   8.362   2.528  -0.392  0.8380 -0.4449  2.1000
  160MOL0     H21078   8.409   2.495  -0.150 -1.6684 -1.3254 -1.2687
  160MOL0     H21079   8.493   2.380  -0.256  1.5624 -0.4944 -0.2871
  160MOL0     H21080   8.661   2.617  -0.159 -0.3054  0.4525  1.7016
  160MOL0     H21081   8.708   2.451  -0.212  2.5211  1.0768  2.4698
  160MOL0     H21082   8.888   2.529  -0.071 -0.7374 -2.0774 -1.4623
  160MOL0     H21083   9.068   2.507   0.084 -1.4650  1.6601  0.4324
  160MOL0     H21084   9.383   2.536   0.250  0.4709  0.4047 -0.4363
  160MOL0     H21085   9.587   2.544   0.395  1.1034 -3.1554 -2.3666
  160MOL0     H21086   9.685   2.660   0.597  2.8082  0.1576 -3.7540
  160MOL0     H21087   9.775   2.525   0.552  2.0603  1.5857  1.4673
  160MOL0     H21088   9.803   2.471   0.813  0.0883 -0.1745  1.2286
  160MOL0     H21089   9.763   2.641   0.831 -0.7625 -0.3803 -0.4395
  160MOL0     H21090   9.940   2.715   0.672  1.3966  0.5911  1.5318
  160MOL0     H21091   9.993   2.554   0.645  0.0558  0.5290 -1.0687
  160MOL0     H21092   9.998   2.736   0.886  3.2857  1.4614  0.5208
  160MOL0     H21093  10.046   2.567   0.915 -2.9487 -1.5816 -1.1888
  160MOL0     H21094  10.165   2.791   0.758 -0.3747  0.7003  1.2000
  160MOL0     H21095  10.184   2.623   0.696 -4.0405 -3.3419  2.2041
  160MOL0     H21096  10.343   2.562   0.878 -0.2079 -0.2617 -3.0364
  160MOL0     H21097  10.244   2.669   0.995  0.1911  0.0178 -0.3703
  160MOL0     H21098  10.498   2.697   0.862 -2.2740 -3.7076  1.4994
  160MOL0     H21099  10.391   2.813   0.787  0.4963 -1.1286 -0.3946
  160MOL0     H21100  10.329   2.914   1.002 -0.1082  0.4612 -0.6196
  160MOL0     H21101  10.504   2.929   0.977 -0.5898 -0.1114 -1.5151
  160MOL0     H21102   9.360   2.354   0.709  2.2535  2.4054  0.9273
  160MOL0     H21103   9.181   2.342   0.564  0.8491  1.8020  2.3359
  160MOL0     H21104   8.799   2.274   0.328  1.3463  0.5229  0.8045
  160MOL0     H21105   8.622   2.319   0.192  0.2837 -0.5174  0.2652
  160MOL0     H21106   8.696   2.930   0.414  0.6904 -0.4271  0.5486
  160MOL0     H21107   8.915   2.921   0.436 -3.4361  0.2975 -1.4152
  160MOL0     H21108   9.265   3.196   0.721  1.8715 -0.1133  2.3510
  160MOL0     H21109   9.493   3.250   0.778  2.6062 -0.3775  0.3118
  160MOL0     H21110   9.691   3.227   0.847  0.7256  2.4047  0.3373
  160MOL0     H21111   9.715   3.344   0.725  0.9013  0.3940  0.2487
  160MOL0     H21112   9.945   3.298   0.684  0.7490  0.5483  0.8940
  160MOL0     H21113   9.898   3.324   0.861 -1.5293 -1.4518  1.8355
  160MOL0     H21114   9.934   3.050   0.732 -3.6155  1.3677 -0.9088
  160MOL0     H21115   9.906   3.094   0.894 -0.1078 -0.5990 -0.3692
  160MOL0     H21116  10.115   3.148   0.952 -2.1980  0.2930  0.8689
  160MOL0     H21117  10.165   3.048   0.820  2.3190  1.4556 -0.5842
  160MOL0     H21118  10.292   3.423   0.679 -0.9976 -0.7831 -2.3210
  160MOL0     H21119   9.633   2.942   0.521 -0.6324  0.4676 -1.9734
  160MOL0     H21120   9.396   2.879   0.457  0.1223  0.8142  0.0666
  161MOL0     O21121   8.737   2.419   8.301 -0.4740 -0.0407 -0.5713
  161MOL0     C21122   8.794   2.394   8.201 -0.5862 -0.1912  1.2975
  161MOL0     O21123   8.732   2.399   8.077  0.7254 -0.4537 -0.6189
  161MOL0     C21124   8.603   2.450   8.066 -0.7228 -0.5153  0.0536
  161MOL0     C21125   8.488   2.372   8.077 -0.3997  0.8819 -0.1736
  161MOL0     C21126   8.367   2.428   8.042 -0.8080 -0.3015  0.3807
  161MOL0     C21127   8.357   2.563   8.002 -0.0478 -0.2738  0.3230
  161MOL0     O21128   8.243   2.619   7.969 -0.1758  0.7204 -0.2669
  161MOL0     C21129   8.124   2.564   8.032 -0.0280 -0.2936 -0.2320
  161MOL0     C21130   8.035   2.683   8.055  0.7078  0.0201 -0.2034
  161MOL0     C21131   8.071   2.771   8.172 -0.4593  0.4015  0.4021
  161MOL0     C21132   7.981   2.891   8.173 -0.2039 -0.1978 -0.1433
  161MOL0     C21133   8.034   2.995   8.263 -0.8546 -0.0629 -0.9832
  161MOL0     C21134   7.944   3.119   8.278  0.8777  0.2000 -0.7491
  161MOL0     C21135   7.816   3.088   8.356  0.9295  0.2714 -0.2403
  161MOL0     C21136   7.811   2.987   8.474  0.3322  0.8004 -0.5870
  161MOL0     N21137   7.683   2.981   8.541 -0.2066 -0.1362 -0.8070
  161MOL0     C21138   7.568   2.936   8.490  0.6076 -0.1728 -0.2335
  161MOL0     C21139   7.485   2.932   8.593 -0.1261 -0.1212 -0.0529
  161MOL0     C21140   7.340   2.886   8.586 -0.0007 -0.9615 -0.4492
  161MOL0     C21141   7.248   2.973   8.664  0.0738 -0.0356 -1.2944
  161MOL0     C21142   7.255   3.113   8.617 -1.1113  0.4572  1.0347
  161MOL0     C21143   7.124   3.183   8.656  0.1162 -0.6389  0.2726
  161MOL0     O21144   7.154   3.321   8.620 -0.3433 -0.0259 -0.2362
  161MOL0     C21145   7.108   3.408   8.716  0.3585 -0.0172 -0.1578
  161MOL0     C21146   7.002   3.485   8.679 -0.2532  0.3815  0.3243
  161MOL0     C21147   6.931   3.564   8.767  0.2613 -0.4567 -0.3076
  161MOL0     C21148   6.978   3.579   8.899  0.6164 -0.9799 -0.3643
  161MOL0     C21149   6.898   3.659   8.993  0.3073  0.3135 -0.4019
  161MOL0     O21150   6.893   3.644   9.133  0.0908  0.1914 -0.5301
  161MOL0     C21151   6.814   3.713   9.226  0.7213  0.1942  0.7954
  161MOL0     C21152   6.773   3.628   9.326 -0.8099  0.7362  0.7041
  161MOL0     C21153   6.698   3.672   9.431 -0.7490  0.5536 -0.2876
  161MOL0     C21154   6.647   3.800   9.434  0.2017  0.0816  0.8624
  161MOL0     O21155   6.564   3.820   9.535 -0.1934 -0.3764  0.4312
  161MOL0     C21156   6.510   3.955   9.545 -0.5389  0.4538 -0.2028
  161MOL0     C21157   6.612   4.038   9.622  0.3980 -0.8852 -0.1080
  161MOL0     C21158   6.545   4.148   9.704  0.3910 -0.7876 -0.4012
  161MOL0     C21159   6.639   4.267   9.701  0.9242 -0.1030  1.0146
  161MOL0     C21160   6.581   4.371   9.796  0.3813  0.0767 -0.6214
  161MOL0     C21161   6.485   4.466   9.736 -0.5690 -0.6337 -0.1587
  161MOL0     C21162   6.410   4.555   9.838 -0.2125  0.6119 -0.4113
  161MOL0     C21163   6.315   4.483   9.930  0.6834 -0.9207 -0.5516
  161MOL0    Cl21164   6.214   4.376   9.823  0.1988 -0.7523 -0.4792
  161MOL0     C21165   6.705   3.897   9.340 -1.0762  0.1773  0.3433
  161MOL0     C21166   6.795   3.849   9.236  0.3835  0.0134 -0.9054
  161MOL0     O21167   6.828   3.742   8.932 -0.4983 -0.1083 -0.9730
  161MOL0     C21168   7.087   3.508   8.945  0.2016  1.1391  0.5762
  161MOL0     C21169   7.152   3.416   8.852 -1.7494  0.4946 -0.3450
  161MOL0     N21170   7.554   2.976   8.706  0.1057  0.1458 -0.4563
  161MOL0     N21171   7.669   3.019   8.671  1.4270 -0.9922 -0.4017
  161MOL0     C21172   8.471   2.638   7.990 -0.0264  1.0405  1.0290
  161MOL0     C21173   8.592   2.584   8.019  0.3935  0.2515  0.8255
  161MOL0     C21174   8.937   2.386   8.188  0.0983 -0.1883  0.4748
  161MOL0     C21175   9.020   2.422   8.293  0.3008 -0.4047  0.1757
  161MOL0     C21176   9.157   2.396   8.280 -0.1606 -0.3385  0.1742
  161MOL0     C21177   9.212   2.324   8.172  0.4899 -0.2616  0.9623
  161MOL0     O21178   9.346   2.287   8.186  0.0637 -0.4920 -0.0105
  161MOL0     C21179   9.404   2.195   8.089  0.7332 -0.8476  0.0973
  161MOL0     C21180   9.547   2.161   8.135 -0.4275  0.7112 -0.2458
  161MOL0     C21181   9.588   2.020   8.078  0.7743 -0.1580  0.3511
  161MOL0     C21182   9.734   1.975   8.113  0.5729  0.5644 -0.0677
  161MOL0     C21183   9.832   2.077   8.076  0.8557  0.2091  0.7466
  161MOL0     C21184   9.916   2.162   8.067  0.1315  0.0078 -0.1892
  161MOL0     C21185   9.129   2.296   8.068 -0.8324  1.0023 -0.3522
  161MOL0     C21186   8.997   2.329   8.068  1.1175  0.6026 -0.2450
  161MOL0     H21187   8.484   2.265   8.094 -2.6510  0.4604 -2.6605
  161MOL0     H21188   8.285   2.357   8.048 -2.1240  1.0071 -1.2728
  161MOL0     H21189   8.139   2.535   8.136 -1.0046 -0.7533 -0.2066
  161MOL0     H21190   8.078   2.490   7.965 -1.9172 -0.3433  1.0526
  161MOL0     H21191   7.934   2.644   8.073 -1.2859  2.6828 -4.2754
  161MOL0     H21192   8.027   2.729   7.957 -2.6002 -1.5354 -0.8163
  161MOL0     H21193   8.178   2.793   8.174  0.0484 -1.4562 -2.0433
  161MOL0     H21194   8.053   2.707   8.260  2.9149  1.4467  2.0288
  161MOL0     H21195   7.981   2.939   8.075 -0.0113  1.7207  0.7414
  161MOL0     H21196   7.875   2.869   8.187 -0.8141  0.9418 -2.4464
  161MOL0     H21197   8.134   3.025   8.230 -0.3435 -0.9665 -0.3070
  161MOL0     H21198   8.041   2.945   8.360  1.1768 -2.5015 -2.2581
  161MOL0     H21199   7.915   3.159   8.180  1.3722 -2.0466 -1.8814
  161MOL0     H21200   7.993   3.194   8.341  0.9066 -0.4181 -0.0301
  161MOL0     H21201   7.781   3.185   8.393 -0.5435 -0.5324  0.5634
  161MOL0     H21202   7.734   3.054   8.291  0.1034 -0.9481  1.3815
  161MOL0     H21203   7.890   3.001   8.550 -0.8988  0.2539  0.8362
  161MOL0     H21204   7.821   2.890   8.426 -1.2858  0.2615  0.1053
  161MOL0     H21205   7.551   2.916   8.385  1.9015  0.6856 -0.6365
  161MOL0     H21206   7.351   2.795   8.645  0.5374 -1.6241 -1.5265
  161MOL0     H21207   7.320   2.868   8.480 -1.5934  3.9673 -1.2250
  161MOL0     H21208   7.273   2.964   8.770  0.5115  2.2623 -1.1487
  161MOL0     H21209   7.145   2.938   8.652  0.0151 -0.1624 -0.4640
  161MOL0     H21210   7.339   3.169   8.660  0.6889 -0.6711 -0.8045
  161MOL0     H21211   7.264   3.114   8.508 -1.2726 -1.8071  0.9534
  161MOL0     H21212   7.109   3.171   8.764  1.7803  2.2556  0.9385
  161MOL0     H21213   7.029   3.154   8.611 -2.7467  3.8504  2.6156
  161MOL0     H21214   6.977   3.471   8.574 -0.7384 -1.7452  0.6746
  161MOL0     H21215   6.843   3.619   8.734  0.2346  0.1065  0.6629
  161MOL0     H21216   6.792   3.522   9.317 -2.3013  0.0751  4.0771
  161MOL0     H21217   6.663   3.604   9.507 -1.6712  0.6945 -0.5717
  161MOL0     H21218   6.422   3.939   9.608  0.8806 -1.7507  1.3775
  161MOL0     H21219   6.470   3.992   9.451  0.3686 -0.3736 -0.9351
  161MOL0     H21220   6.676   4.082   9.545  0.3488  1.8372  1.2929
  161MOL0     H21221   6.672   3.973   9.687 -0.1103 -1.4482 -0.1887
  161MOL0     H21222   6.527   4.116   9.807  0.1969 -1.8301 -0.7513
  161MOL0     H21223   6.446   4.184   9.672  1.5198  3.3384  0.0927
  161MOL0     H21224   6.742   4.234   9.720  0.7416 -0.8114  0.8061
  161MOL0     H21225   6.634   4.302   9.597 -2.6240 -0.9914  0.7712
  161MOL0     H21226   6.663   4.425   9.845  1.4124 -1.9931  0.0447
  161MOL0     H21227   6.540   4.319   9.883  4.2090 -0.4853  1.0943
  161MOL0     H21228   6.417   4.426   9.661 -2.2589  0.8127  0.5380
  161MOL0     H21229   6.531   4.536   9.666 -1.7057 -2.5385 -2.9797
  161MOL0     H21230   6.487   4.600   9.901 -0.0843  0.3769 -0.3972
  161MOL0     H21231   6.363   4.642   9.793 -0.2418  0.6350 -0.3362
  161MOL0     H21232   6.247   4.559   9.969 -3.7808 -4.5527 -0.4128
  161MOL0     H21233   6.360   4.426  10.011  0.6497 -1.4837 -0.9204
  161MOL0     H21234   6.687   4.004   9.346 -0.6024  0.3738 -1.3395
  161MOL0     H21235   6.849   3.917   9.171  0.9495 -1.7900 -2.4151
  161MOL0     H21236   7.108   3.518   9.051  1.0378 -2.7115  0.9509
  161MOL0     H21237   7.237   3.352   8.875 -2.8953 -0.1976  2.3933
  161MOL0     H21238   8.454   2.742   7.964 -2.0520  0.2953 -0.9600
  161MOL0     H21239   8.677   2.650   8.003 -0.0082  0.8174  0.9812
  161MOL0     H21240   8.981   2.464   8.385  1.1373  0.7593  0.0203
  161MOL0     H21241   9.212   2.427   8.368  0.6905  0.9535 -0.7600
  161MOL0     H21242   9.405   2.229   7.985 -0.2557 -0.9593  0.0384
  161MOL0     H21243   9.343   2.104   8.082  0.7911 -0.8255 -0.8638
  161MOL0     H21244   9.612   2.239   8.095  1.8218 -1.2142 -0.5762
  161MOL0     H21245   9.557   2.156   8.244  2.2651 -1.3513 -0.4737
  161MOL0     H21246   9.578   2.024   7.969  1.4856 -1.4687  0.2208
  161MOL0     H21247   9.514   1.945   8.108  0.2122  1.1008  2.3262
  161MOL0     H21248   9.747   1.958   8.221 -2.7199  0.6591  0.4490
  161MOL0     H21249   9.753   1.887   8.052 -0.6151  1.7455 -2.2539
  161MOL0     H21250   9.985   2.244   8.064 -0.2186  0.4552  2.2487
  161MOL0     H21251   9.169   2.242   7.983  1.4915 -0.4761  1.5332
  161MOL0     H21252   8.926   2.293   7.995  1.1964  0.4747 -0.2593
  162MOL0     O21253   9.032   4.366   9.829 -0.4658 -0.4270 -1.1022
  162MOL0     C21254   9.123   4.324   9.756 -1.0269  0.6273 -0.2141
  162MOL0     O21255   9.101   4.222   9.673 -0.6380 -0.3259 -0.2976
  162MOL0     C21256   8.980   4.162   9.673  0.9913  0.0054  1.2083
  162MOL0     C21257   8.959   4.037   9.733  0.1342  0.0546  0.2451
  162MOL0     C21258   8.838   3.967   9.712 -0.4125  0.2911  1.1108
  162MOL0     C21259   8.732   4.023   9.642 -0.3224  0.9574 -0.2841
  162MOL0     O21260   8.618   3.949   9.632  0.4702  0.3352  0.1478
  162MOL0     C21261   8.486   4.017   9.649  0.8330 -0.1826  1.3615
  162MOL0     C21262   8.374   3.937   9.577  0.0657 -0.9756  0.3491
  162MOL0     C21263   8.227   3.984   9.603 -0.4619 -0.1965 -0.4038
  162MOL0     C21264   8.118   3.931   9.508  0.6990  0.6391  0.0927
  162MOL0     C21265   7.984   3.994   9.549  0.9866 -0.1913  0.3797
  162MOL0     C21266   7.961   4.132   9.475  0.7582  0.0779  0.1463
  162MOL0     C21267   7.891   4.234   9.560  0.3649 -0.2829 -0.0864
  162MOL0     C21268   7.983   4.316   9.651  0.2586 -0.1733 -0.0440
  162MOL0     N21269   8.058   4.417   9.572  0.6644 -0.3497  0.0981
  162MOL0     C21270   7.998   4.542   9.557  0.4012  0.4532 -0.6186
  162MOL0     C21271   8.106   4.621   9.529 -0.1284  0.2126  0.1326
  162MOL0     C21272   8.106   4.767   9.503 -0.8701 -0.2326 -0.5419
  162MOL0     C21273   7.980   4.837   9.525 -0.4417 -0.6200  0.8459
  162MOL0     C21274   8.000   4.988   9.564  0.0891 -0.6243  0.5291
  162MOL0     C21275   7.870   5.058   9.598  0.6614 -0.3919 -0.4953
  162MOL0     O21276   7.763   5.025   9.511  0.0432  0.3727  0.3723
  162MOL0     C21277   7.674   5.122   9.483 -0.6960 -0.1045 -0.2798
  162MOL0     C21278   7.679   5.178   9.355  0.3088 -0.1604  0.3467
  162MOL0     C21279   7.585   5.278   9.325  0.1437  0.4739 -0.0280
  162MOL0     C21280   7.486   5.319   9.421 -0.5802 -0.4617  0.0821
  162MOL0     C21281   7.400   5.435   9.396  0.3943 -0.2827  0.1009
  162MOL0     O21282   7.349   5.499   9.514  0.0808  0.1295 -0.2274
  162MOL0     C21283   7.275   5.617   9.513  0.0935 -1.2743  0.4620
  162MOL0     C21284   7.196   5.656   9.399  0.6054 -0.1676 -0.4666
  162MOL0     C21285   7.124   5.782   9.411 -0.2625  0.0665 -0.2947
  162MOL0     C21286   7.126   5.861   9.523 -0.7200 -0.5129 -0.5325
  162MOL0     O21287   7.052   5.975   9.512  0.0760 -0.4764 -0.1256
  162MOL0     C21288   7.094   6.083   9.592 -0.1712  0.3040 -0.6335
  162MOL0     C21289   7.010   6.208   9.565  0.2371 -0.2877  0.0600
  162MOL0     C21290   6.871   6.182   9.636  1.3129 -0.4285 -0.3522
  162MOL0     C21291   6.768   6.280   9.587  0.8651  0.3165 -0.4830
  162MOL0     C21292   6.650   6.272   9.687 -0.5134  1.0913 -0.3326
  162MOL0     C21293   6.530   6.357   9.656  0.0786  1.5467 -0.9360
  162MOL0     C21294   6.445   6.356   9.771  0.4784  0.3117  0.0758
  162MOL0     C21295   6.291   6.333   9.754 -0.1882 -0.9417  0.6186
  162MOL0    Cl21296   6.201   6.475   9.833  0.2082  0.6407  0.2606
  162MOL0     C21297   7.210   5.819   9.639 -0.7693 -0.2537  0.1228
  162MOL0     C21298   7.280   5.701   9.619  0.5289  0.6887 -1.0479
  162MOL0     O21299   7.383   5.476   9.280 -1.1649  0.1956 -0.5091
  162MOL0     C21300   7.485   5.258   9.546  0.2500  0.0042 -0.3135
  162MOL0     C21301   7.579   5.161   9.575 -0.2231 -0.0871  0.3508
  162MOL0     N21302   8.227   4.546   9.534  0.2302  0.1613 -0.8041
  162MOL0     N21303   8.195   4.419   9.544  0.2268 -0.4383 -1.2671
  162MOL0     C21304   8.750   4.137   9.582 -0.5455  0.0928  0.1784
  162MOL0     C21305   8.873   4.213   9.601  0.7471 -0.9243  0.6880
  162MOL0     C21306   9.261   4.372   9.759 -0.1997 -0.7096 -1.1223
  162MOL0     C21307   9.378   4.293   9.720  0.8572  0.0602 -0.2515
  162MOL0     C21308   9.497   4.347   9.731 -0.9817  1.1418 -0.7072
  162MOL0     C21309   9.527   4.476   9.767 -0.3207 -0.8569  0.5411
  162MOL0     O21310   9.666   4.510   9.767 -0.6710 -0.5228  0.5505
  162MOL0     C21311   9.704   4.646   9.785  0.2792 -0.0915 -0.0103
  162MOL0     C21312   9.855   4.653   9.783 -0.5322 -0.5376  0.0174
  162MOL0     C21313   9.916   4.634   9.640  0.9823  0.5342 -0.4371
  162MOL0     C21314  10.057   4.561   9.647  0.3976  0.2157 -0.4694
  162MOL0     C21315  10.037   4.414   9.669 -0.6347  0.4242  0.5852
  162MOL0     C21316  10.009   4.297   9.700  0.9318 -0.1973  0.5732
  162MOL0     C21317   9.422   4.560   9.797 -0.5640 -0.1439  0.2201
  162MOL0     C21318   9.289   4.503   9.801 -0.3868  0.1842  0.5100
  162MOL0     H21319   9.038   3.985   9.787  2.8831  1.1325 -2.4343
  162MOL0     H21320   8.821   3.868   9.754 -2.2743  0.6753  1.3737
  162MOL0     H21321   8.501   4.117   9.606  0.4784 -0.9331 -0.6054
  162MOL0     H21322   8.458   4.009   9.754  0.7570  1.4366  1.4960
  162MOL0     H21323   8.383   3.829   9.592 -0.2250 -1.2541 -1.3134
  162MOL0     H21324   8.388   3.946   9.469 -4.2816  3.8976 -0.2261
  162MOL0     H21325   8.225   4.093   9.609 -0.0847 -0.2506  0.8716
  162MOL0     H21326   8.194   3.946   9.700 -1.4178  2.6927  0.4902
  162MOL0     H21327   8.136   3.961   9.404  0.7781 -1.0637 -0.4157
  162MOL0     H21328   8.110   3.823   9.525  1.0576  0.9689  2.7908
  162MOL0     H21329   7.993   4.014   9.656 -4.9221  1.9432  0.8192
  162MOL0     H21330   7.899   3.929   9.526 -1.9736  4.1438 -2.4188
  162MOL0     H21331   7.902   4.115   9.384 -0.6803  1.8520  0.6903
  162MOL0     H21332   8.056   4.178   9.447  1.0736 -1.3671 -1.3139
  162MOL0     H21333   7.842   4.309   9.498 -0.8901 -0.3777  0.7392
  162MOL0     H21334   7.811   4.179   9.610  0.7928 -1.2750 -0.4594
  162MOL0     H21335   8.062   4.255   9.695  2.6884  2.0851 -1.0195
  162MOL0     H21336   7.926   4.365   9.730 -0.5858 -2.2234  0.6823
  162MOL0     H21337   7.893   4.567   9.565  0.0187 -1.3240  0.4313
  162MOL0     H21338   8.143   4.774   9.400  1.2475 -5.0759 -0.3605
  162MOL0     H21339   8.186   4.805   9.568  1.6339 -0.6212 -3.2120
  162MOL0     H21340   7.913   4.783   9.592  0.8983 -4.2758 -0.4879
  162MOL0     H21341   7.935   4.833   9.425  0.0097  3.0693  0.3529
  162MOL0     H21342   8.064   4.993   9.653  1.4803  0.5457 -0.5054
  162MOL0     H21343   8.046   5.045   9.484 -2.6728  0.8852 -0.1226
  162MOL0     H21344   7.880   5.167   9.602  0.2664 -0.3633 -0.2447
  162MOL0     H21345   7.846   5.014   9.695 -0.8097 -0.9431 -1.0725
  162MOL0     H21346   7.763   5.162   9.288  0.9882  2.0492  0.5990
  162MOL0     H21347   7.603   5.338   9.236  0.4753  0.2853 -0.0921
  162MOL0     H21348   7.200   5.597   9.308 -1.6784 -2.6658  0.9023
  162MOL0     H21349   7.072   5.823   9.325  2.3277 -0.7754 -2.4234
  162MOL0     H21350   7.202   6.103   9.598  0.2510 -2.0611  1.0692
  162MOL0     H21351   7.077   6.051   9.695  0.5813 -0.9682 -0.8859
  162MOL0     H21352   6.992   6.214   9.458 -3.4254  1.2908  0.6184
  162MOL0     H21353   7.056   6.298   9.607 -1.9675  0.6034  0.6838
  162MOL0     H21354   6.889   6.212   9.739 -1.9086  2.7523 -0.5194
  162MOL0     H21355   6.837   6.079   9.625  0.8088 -0.0948 -2.2512
  162MOL0     H21356   6.797   6.386   9.593 -1.6381  1.2964 -3.1478
  162MOL0     H21357   6.742   6.268   9.481  4.5452 -0.6510 -1.4307
  162MOL0     H21358   6.695   6.295   9.784  1.5067 -2.5259 -0.1998
  162MOL0     H21359   6.624   6.166   9.691 -1.4639  1.3455  0.3798
  162MOL0     H21360   6.467   6.306   9.582 -1.8846  3.5915 -0.8010
  162MOL0     H21361   6.550   6.453   9.607 -1.7225  2.6023  0.2756
  162MOL0     H21362   6.472   6.277   9.841  3.3509  1.8609  0.8514
  162MOL0     H21363   6.454   6.451   9.824 -3.6251 -0.6657  3.0203
  162MOL0     H21364   6.256   6.236   9.792  0.1114 -0.8108  1.2562
  162MOL0     H21365   6.267   6.324   9.648 -0.5986  1.3164  0.4743
  162MOL0     H21366   7.220   5.871   9.733 -1.6618 -0.6603  0.4546
  162MOL0     H21367   7.342   5.667   9.701 -0.1325  1.2127 -0.3109
  162MOL0     H21368   7.412   5.274   9.625  0.8458  0.2250  0.1960
  162MOL0     H21369   7.570   5.108   9.669  4.2990 -1.7260  0.1113
  162MOL0     H21370   8.672   4.191   9.529  2.4714  3.0441 -1.6112
  162MOL0     H21371   8.885   4.318   9.575 -2.1338 -0.6231  0.2199
  162MOL0     H21372   9.374   4.193   9.678  1.7037  1.0509 -2.8844
  162MOL0     H21373   9.590   4.298   9.703  0.2018  3.5186 -1.2634
  162MOL0     H21374   9.655   4.663   9.881 -3.3923 -0.0963 -1.6898
  162MOL0     H21375   9.654   4.706   9.709 -0.7199  0.0876  0.7675
  162MOL0     H21376   9.884   4.754   9.813 -1.2592 -0.5157  0.6854
  162MOL0     H21377   9.900   4.588   9.860 -0.0034  1.1833  1.2199
  162MOL0     H21378   9.949   4.729   9.599  4.3036  0.0815  0.8226
  162MOL0     H21379   9.856   4.576   9.569  3.0327 -2.2156 -0.1282
  162MOL0     H21380  10.095   4.576   9.546 -3.9321 -0.0190 -2.3673
  162MOL0     H21381  10.129   4.603   9.717 -1.0486 -3.3134  3.5567
  162MOL0     H21382   9.985   4.195   9.722  2.9804 -0.3510  2.4408
  162MOL0     H21383   9.435   4.664   9.825  2.7197  0.2039 -1.9226
  162MOL0     H21384   9.206   4.569   9.825  0.7207  0.5395  3.8671
  163MOL0     O21385   4.291  10.953   9.060 -1.0279  0.4866  1.2471
  163MOL0     C21386   4.276  10.970   9.176 -0.5106 -0.0362 -0.6662
  163MOL0     O21387   4.173  11.046   9.233 -0.9561 -0.6398  0.6859
  163MOL0     C21388   4.089  11.120   9.146 -0.2788  1.0428 -0.6210
  163MOL0     C21389   4.121  11.182   9.024 -0.1918 -0.0902  0.6280
  163MOL0     C21390   4.027  11.245   8.946  0.8015  0.5527 -0.6839
  163MOL0     C21391   3.890  11.254   8.978 -0.3081 -0.1562 -0.3676
  163MOL0     O21392   3.807  11.317   8.899 -0.4389 -0.6161  0.7004
  163MOL0     C21393   3.668  11.315   8.919  0.1731 -1.0386  0.5334
  163MOL0     C21394   3.609  11.407   8.812  0.3669 -0.5676  1.1871
  163MOL0     C21395   3.462  11.438   8.815  0.4014 -0.7057 -0.2568
  163MOL0     C21396   3.416  11.545   8.707 -0.2186 -0.1406  0.2700
  163MOL0     C21397   3.263  11.545   8.687 -0.1346 -0.6385 -0.3487
  163MOL0     C21398   3.221  11.653   8.580 -0.0373 -0.0429  0.6078
  163MOL0     C21399   3.072  11.646   8.530  0.1442 -0.6138 -1.0042
  163MOL0     C21400   2.972  11.707   8.633 -0.4374  0.3686 -0.1611
  163MOL0     N21401   2.828  11.713   8.585 -0.5623 -0.1131  0.1647
  163MOL0     C21402   2.733  11.617   8.606  0.0326 -0.0716 -0.4988
  163MOL0     C21403   2.623  11.671   8.550 -0.6613  0.0469 -0.6453
  163MOL0     C21404   2.488  11.620   8.565 -0.1682  1.0749  0.5011
  163MOL0     C21405   2.395  11.723   8.617  0.1537  0.1290  0.2820
  163MOL0     C21406   2.251  11.672   8.587 -0.1459 -0.5810  0.1424
  163MOL0     C21407   2.146  11.753   8.665  0.3326 -0.1206 -0.3136
  163MOL0     O21408   2.186  11.763   8.802 -0.2655 -0.2233  0.2665
  163MOL0     C21409   2.090  11.795   8.889  0.3876  0.5307 -0.6667
  163MOL0     C21410   2.110  11.762   9.028 -0.4957 -0.5529 -0.0759
  163MOL0     C21411   2.006  11.775   9.115 -0.3903  0.5413 -1.1067
  163MOL0     C21412   1.890  11.841   9.077  0.7932  0.0683 -1.0420
  163MOL0     C21413   1.786  11.854   9.176 -0.3407  1.1217 -0.3411
  163MOL0     O21414   1.656  11.851   9.141  0.4336  0.3461  0.2811
  163MOL0     C21415   1.566  11.877   9.241 -0.0700  0.2376 -0.7541
  163MOL0     C21416   1.496  12.000   9.225 -1.0514  0.9072  0.3892
  163MOL0     C21417   1.397  12.024   9.317 -1.3067 -0.5788 -0.3292
  163MOL0     C21418   1.363  11.933   9.413  0.5545  0.5134  0.1944
  163MOL0     O21419   1.272  11.956   9.511  0.3078 -0.7100  0.3820
  163MOL0     C21420   1.134  11.919   9.484 -0.7189 -0.7363  0.2858
  163MOL0     C21421   1.066  11.860   9.606 -0.0007 -1.2501  0.1324
  163MOL0     C21422   1.144  11.740   9.659 -0.9199  0.1788  0.7918
  163MOL0     C21423   1.075  11.668   9.781  0.1128  0.7079 -0.3568
  163MOL0     C21424   0.939  11.607   9.759  0.5380 -0.2517 -0.0731
  163MOL0     C21425   0.929  11.477   9.673 -0.2738 -1.1293 -0.0725
  163MOL0     C21426   0.783  11.433   9.650 -0.1095 -0.1075 -0.1003
  163MOL0     C21427   0.712  11.366   9.765 -0.2130  0.6293 -0.1137
  163MOL0    Cl21428   0.818  11.256   9.860 -0.1185  0.0706 -0.0904
  163MOL0     C21429   1.441  11.818   9.427 -0.0223 -0.1289 -0.8273
  163MOL0     C21430   1.526  11.779   9.330  0.1746 -0.0427  0.0737
  163MOL0     O21431   1.827  11.862   9.294 -0.1559  0.0897  0.0251
  163MOL0     C21432   1.863  11.871   8.948  0.4423  0.4777  0.6653
  163MOL0     C21433   1.961  11.851   8.852  0.2792 -0.5965  0.0571
  163MOL0     N21434   2.648  11.792   8.482 -0.4822 -0.2364  0.3004
  163MOL0     N21435   2.776  11.817   8.502  0.3353 -0.4693  0.7355
  163MOL0     C21436   3.858  11.192   9.100  0.7018 -0.4944  0.7829
  163MOL0     C21437   3.950  11.128   9.187  0.0746 -0.2540  0.5880
  163MOL0     C21438   4.386  10.921   9.257 -0.1050 -0.9712 -0.1256
  163MOL0     C21439   4.495  10.861   9.193 -0.2128 -1.1040 -0.0947
  163MOL0     C21440   4.607  10.838   9.271 -0.6045  0.4940 -0.7122
  163MOL0     C21441   4.612  10.853   9.406  0.9584  0.4385  0.9713
  163MOL0     O21442   4.730  10.829   9.480 -0.1210  0.7714 -0.1520
  163MOL0     C21443   4.847  10.776   9.413 -0.0658 -0.3926  0.3410
  163MOL0     C21444   4.958  10.751   9.514  0.0454  0.0284 -0.2820
  163MOL0     C21445   5.084  10.690   9.442  0.1925 -0.1739 -0.3710
  163MOL0     C21446   5.193  10.639   9.542  0.6692  0.8705  0.3077
  163MOL0     C21447   5.324  10.611   9.494 -0.9088  0.2523 -0.9847
  163MOL0     C21448   5.439  10.593   9.451  0.5023 -0.2850 -0.8141
  163MOL0     C21449   4.497  10.905   9.468  0.2316  0.5832 -0.3654
  163MOL0     C21450   4.385  10.941   9.393 -0.3713 -0.3367  0.4877
  163MOL0     H21451   4.222  11.200   8.988 -1.7556  3.8759 -2.5525
  163MOL0     H21452   4.069  11.292   8.858  2.0721  1.7504  0.4985
  163MOL0     H21453   3.647  11.346   9.021  3.7257 -2.6376  1.9272
  163MOL0     H21454   3.628  11.213   8.909  3.0795 -2.0696 -3.4227
  163MOL0     H21455   3.643  11.370   8.715 -1.9958 -0.5677  0.2924
  163MOL0     H21456   3.660  11.503   8.827 -0.6425  0.4926 -1.5174
  163MOL0     H21457   3.451  11.484   8.914  3.7917 -0.7999  0.3072
  163MOL0     H21458   3.422  11.338   8.800 -0.5736 -0.2311 -0.8848
  163MOL0     H21459   3.457  11.639   8.743  0.7927 -0.0282 -1.0997
  163MOL0     H21460   3.464  11.529   8.610 -0.2033  2.3787 -0.2042
  163MOL0     H21461   3.198  11.565   8.773  1.2981  0.0789  0.6013
  163MOL0     H21462   3.240  11.445   8.650 -1.8254 -1.8547  3.4837
  163MOL0     H21463   3.287  11.638   8.494 -1.5849 -0.3101 -0.5877
  163MOL0     H21464   3.243  11.754   8.617 -0.2326  0.3061 -0.2034
  163MOL0     H21465   3.064  11.716   8.445  2.7570  1.5999  0.4365
  163MOL0     H21466   3.052  11.542   8.506 -3.2307  0.0548 -1.6625
  163MOL0     H21467   3.004  11.811   8.644  2.4597 -0.3642 -0.8130
  163MOL0     H21468   2.965  11.659   8.731 -2.1367  0.3530 -0.2576
  163MOL0     H21469   2.741  11.525   8.663  1.5589 -1.1537 -2.3252
  163MOL0     H21470   2.503  11.546   8.644 -1.2674 -2.9003 -2.7175
  163MOL0     H21471   2.459  11.588   8.465 -0.4575  0.4695  0.7731
  163MOL0     H21472   2.407  11.816   8.560  3.1343  0.5476  1.3970
  163MOL0     H21473   2.419  11.730   8.723  0.1817 -4.3736  0.7834
  163MOL0     H21474   2.226  11.674   8.480  1.0559 -1.5168 -0.1774
  163MOL0     H21475   2.250  11.564   8.604  0.5533 -0.9319 -1.7355
  163MOL0     H21476   2.050  11.703   8.652  0.3504  0.1173 -1.4025
  163MOL0     H21477   2.150  11.856   8.629  0.7774 -0.1589 -0.3767
  163MOL0     H21478   2.207  11.717   9.047 -0.3528  0.1815  0.9880
  163MOL0     H21479   2.019  11.742   9.218  2.6156  0.3866 -1.4657
  163MOL0     H21480   1.503  12.076   9.148 -1.7626 -0.6060 -1.2687
  163MOL0     H21481   1.329  12.107   9.312  0.0709  0.5727 -0.6838
  163MOL0     H21482   1.133  11.843   9.405  0.1282  0.4576 -0.9293
  163MOL0     H21483   1.080  12.005   9.444 -1.7633 -1.6190 -0.2579
  163MOL0     H21484   0.964  11.830   9.583 -0.5029 -0.2881  0.9994
  163MOL0     H21485   1.064  11.934   9.686  1.2317 -0.2866 -0.6960
  163MOL0     H21486   1.241  11.783   9.687 -0.4372  0.9060 -1.7395
  163MOL0     H21487   1.164  11.668   9.580 -1.4816  1.0730 -0.1938
  163MOL0     H21488   1.146  11.599   9.828  0.5254  1.3717  0.0149
  163MOL0     H21489   1.057  11.744   9.858 -0.2857 -1.5466  1.9320
  163MOL0     H21490   0.877  11.688   9.720 -0.6925 -0.9073  0.4655
  163MOL0     H21491   0.896  11.578   9.855 -0.3610  3.7252  0.9053
  163MOL0     H21492   0.984  11.394   9.719  0.8678 -0.2985  0.1060
  163MOL0     H21493   0.977  11.507   9.579  0.7027 -2.2952  0.0376
  163MOL0     H21494   0.720  11.506   9.598 -0.2155 -0.0221  0.1489
  163MOL0     H21495   0.800  11.356   9.573 -0.8582  1.8382 -2.3509
  163MOL0     H21496   0.627  11.307   9.728  0.9317 -0.3146 -1.3274
  163MOL0     H21497   0.668  11.447   9.824 -1.2514  1.9151 -2.5196
  163MOL0     H21498   1.431  11.757   9.517  0.2287 -2.3618 -2.2413
  163MOL0     H21499   1.579  11.684   9.328  2.4702  1.1760 -2.1630
  163MOL0     H21500   1.764  11.912   8.930 -0.2466 -0.6263  1.6984
  163MOL0     H21501   1.941  11.889   8.752  0.5105  0.4962  0.4093
  163MOL0     H21502   3.756  11.197   9.137  0.5177  2.1060  0.1204
  163MOL0     H21503   3.900  11.081   9.271 -1.1907  1.2804  0.7354
  163MOL0     H21504   4.486  10.822   9.092 -3.4538  0.4938 -0.5771
  163MOL0     H21505   4.696  10.808   9.216 -0.6688 -1.5749  0.2222
  163MOL0     H21506   4.864  10.847   9.333 -3.1580 -0.7662 -0.8115
  163MOL0     H21507   4.825  10.688   9.352 -1.5182  1.9311 -2.7647
  163MOL0     H21508   4.963  10.851   9.559  0.1438  0.2891 -0.8662
  163MOL0     H21509   4.920  10.681   9.589  0.1720 -0.6406 -0.8310
  163MOL0     H21510   5.122  10.760   9.367 -0.9847  0.3900 -0.4690
  163MOL0     H21511   5.053  10.608   9.377 -1.8830  2.5987 -3.1826
  163MOL0     H21512   5.211  10.708   9.625  2.1746 -0.3462  1.0387
  163MOL0     H21513   5.157  10.549   9.592 -0.9639 -1.1122 -3.9310
  163MOL0     H21514   5.537  10.591   9.408  1.3741  2.9648  0.6605
  163MOL0     H21515   4.502  10.929   9.574  0.9486 -1.4775  0.1185
  163MOL0     H21516   4.301  10.987   9.444  0.9238  4.3688 -1.1147
  164MOL0     O21517   7.937   7.950   1.616 -0.8221 -0.1850  0.2196
  164MOL0     C21518   8.019   7.878   1.563  0.1973  0.8537  0.0832
  164MOL0     O21519   7.985   7.786   1.466  0.5883  0.1403  0.1884
  164MOL0     C21520   7.857   7.719   1.477 -0.6938  0.5203  0.8582
  164MOL0     C21521   7.778   7.705   1.361  0.6658  0.3894 -0.0202
  164MOL0     C21522   7.652   7.641   1.357  0.4095  1.1638  0.2074
  164MOL0     C21523   7.598   7.608   1.482  1.5166  0.3844 -0.3256
  164MOL0     O21524   7.469   7.560   1.488  1.3665 -0.2765 -0.5198
  164MOL0     C21525   7.417   7.489   1.597  0.0262 -0.4696 -0.2712
  164MOL0     C21526   7.266   7.520   1.602 -0.0178  0.7327 -0.1768
  164MOL0     C21527   7.223   7.541   1.748 -0.1209  0.4970  0.6120
  164MOL0     C21528   7.075   7.536   1.756  0.9482 -0.1378  0.8735
  164MOL0     C21529   7.023   7.539   1.898  0.2379  1.0506  1.0977
  164MOL0     C21530   6.875   7.501   1.909  0.5615 -0.5166 -0.3109
  164MOL0     C21531   6.822   7.506   2.056  1.1263  0.3745  0.7525
  164MOL0     C21532   6.672   7.491   2.063  0.2249  0.3308  0.6085
  164MOL0     N21533   6.634   7.355   2.030  0.5595 -0.2025  0.3657
  164MOL0     C21534   6.621   7.293   1.907 -0.0557  0.0078 -0.4786
  164MOL0     C21535   6.609   7.160   1.928  0.3600 -0.6730 -0.6850
  164MOL0     C21536   6.561   7.065   1.823  0.2718  0.0414  0.1188
  164MOL0     C21537   6.426   6.995   1.864 -1.0069  1.0703 -0.1891
  164MOL0     C21538   6.370   6.900   1.747 -0.3459 -0.0865 -0.3066
  164MOL0     C21539   6.243   6.961   1.698  0.3522 -0.3563 -0.1983
  164MOL0     O21540   6.146   6.942   1.802 -0.1418 -0.1783 -0.1881
  164MOL0     C21541   6.018   6.970   1.760 -0.7830  0.4131  0.0974
  164MOL0     C21542   5.932   6.970   1.867  0.0292  0.2851 -0.4334
  164MOL0     C21543   5.800   6.983   1.840 -0.7602  0.2376 -0.5681
  164MOL0     C21544   5.746   6.970   1.712  0.6741  0.3813 -0.3945
  164MOL0     C21545   5.600   6.971   1.691  0.4256  0.6375 -0.6455
  164MOL0     O21546   5.516   7.007   1.794  0.1394 -0.5504  0.3744
  164MOL0     C21547   5.406   7.075   1.771 -0.2298 -0.3176  0.8870
  164MOL0     C21548   5.392   7.187   1.684 -0.1506  0.0671  0.4969
  164MOL0     C21549   5.276   7.264   1.683 -0.2382  0.5344 -0.8236
  164MOL0     C21550   5.168   7.212   1.753  0.7555  0.1664  0.1782
  164MOL0     O21551   5.048   7.285   1.749  0.4142  0.3816  0.4367
  164MOL0     C21552   5.011   7.368   1.863 -1.6024 -0.0426 -0.5354
  164MOL0     C21553   4.992   7.514   1.820  0.0084 -0.3839  0.1959
  164MOL0     C21554   5.104   7.567   1.724 -0.1116  1.0653 -0.9300
  164MOL0     C21555   5.085   7.719   1.703  0.3357  0.3995  0.5328
  164MOL0     C21556   5.193   7.780   1.624 -0.4996 -0.4025  1.7100
  164MOL0     C21557   5.178   7.934   1.622 -0.6400 -0.2436  0.4761
  164MOL0     C21558   5.055   7.984   1.541 -0.3261  0.0789 -0.8293
  164MOL0     C21559   5.092   8.002   1.387  0.3299  0.3408 -0.7381
  164MOL0    Cl21560   5.086   7.844   1.304 -0.4134 -0.0957 -0.2300
  164MOL0     C21561   5.180   7.098   1.840  0.0917  0.7367  1.0388
  164MOL0     C21562   5.303   7.029   1.842  0.9240  0.7749  0.8391
  164MOL0     O21563   5.559   6.936   1.581  1.4180 -0.1105  0.3346
  164MOL0     C21564   5.831   6.959   1.607 -0.1637  0.2038 -0.0419
  164MOL0     C21565   5.965   6.959   1.632 -0.1231 -0.7722 -0.7768
  164MOL0     N21566   6.607   7.142   2.067 -0.7894  0.5408  0.9428
  164MOL0     N21567   6.632   7.257   2.126  0.9467  0.0572  0.1167
  164MOL0     C21568   7.678   7.627   1.594  0.6738 -0.5055 -1.0552
  164MOL0     C21569   7.808   7.663   1.583 -0.1690  0.0786 -0.0425
  164MOL0     C21570   8.162   7.908   1.571  0.5138  0.3235 -0.0976
  164MOL0     C21571   8.194   8.015   1.667  0.1088  0.1595  0.9707
  164MOL0     C21572   8.331   8.050   1.682 -0.1476  0.1138  0.5120
  164MOL0     C21573   8.420   7.986   1.594  0.1733  0.4422  1.1285
  164MOL0     O21574   8.556   8.007   1.590 -0.8053 -0.5579 -0.4632
  164MOL0     C21575   8.605   8.109   1.674  0.5331  0.9267 -0.2639
  164MOL0     C21576   8.748   8.129   1.648  0.7522  0.7171 -0.5757
  164MOL0     C21577   8.811   8.233   1.738  0.0125  0.1529  0.3900
  164MOL0     C21578   8.965   8.231   1.698 -0.4408 -0.0585 -0.6578
  164MOL0     C21579   9.057   8.310   1.791 -0.4868  0.3640  1.0636
  164MOL0     C21580   9.141   8.365   1.860  0.4045 -0.0835 -0.2394
  164MOL0     C21581   8.384   7.890   1.496 -0.8713 -0.3201 -0.3587
  164MOL0     C21582   8.257   7.848   1.484  0.6645 -1.2645 -0.4058
  164MOL0     H21583   7.832   7.730   1.270  0.4700  2.7322  0.4403
  164MOL0     H21584   7.593   7.612   1.270 -0.6675  1.6732  0.7556
  164MOL0     H21585   7.468   7.498   1.693  2.8171 -1.9753 -1.5055
  164MOL0     H21586   7.429   7.384   1.570 -0.1040 -0.4054 -0.5858
  164MOL0     H21587   7.211   7.429   1.575  1.3425 -1.3292  3.2918
  164MOL0     H21588   7.239   7.609   1.545  1.5759  0.7550 -0.9385
  164MOL0     H21589   7.263   7.640   1.774  2.2274 -1.0546  3.4584
  164MOL0     H21590   7.271   7.467   1.813  1.7652 -1.5259 -2.7862
  164MOL0     H21591   7.026   7.609   1.690  0.7738  0.0523  1.2067
  164MOL0     H21592   7.038   7.442   1.714  1.4525 -0.2239  0.6122
  164MOL0     H21593   7.042   7.642   1.930 -2.1290  1.8976 -0.0186
  164MOL0     H21594   7.075   7.467   1.962 -0.2135  1.3958  1.8691
  164MOL0     H21595   6.865   7.402   1.864  1.1508 -0.5892 -0.2959
  164MOL0     H21596   6.815   7.561   1.840 -0.0681 -2.3504 -1.4283
  164MOL0     H21597   6.872   7.423   2.106  1.0329  0.4741  1.0117
  164MOL0     H21598   6.861   7.595   2.107  2.0220  0.2157  0.3644
  164MOL0     H21599   6.617   7.567   2.006 -0.7782  0.1061  1.2553
  164MOL0     H21600   6.643   7.508   2.167  0.8945  2.5417  0.5070
  164MOL0     H21601   6.605   7.344   1.812  2.1001 -0.4458 -1.1564
  164MOL0     H21602   6.634   6.983   1.813 -0.1955 -0.4646  0.7689
  164MOL0     H21603   6.561   7.128   1.734  4.7164  2.1194  1.3059
  164MOL0     H21604   6.347   7.069   1.879 -2.6382 -0.5872 -0.2827
  164MOL0     H21605   6.433   6.933   1.953 -2.8172 -1.4592 -1.6799
  164MOL0     H21606   6.446   6.883   1.670  1.2922 -0.0741  1.2477
  164MOL0     H21607   6.341   6.803   1.787  0.4299  0.2735  1.2113
  164MOL0     H21608   6.218   6.918   1.600 -0.6675  0.3586 -0.2674
  164MOL0     H21609   6.248   7.066   1.670 -1.9125 -0.3793 -0.8365
  164MOL0     H21610   5.978   6.970   1.966 -1.6907 -1.3987  0.4379
  164MOL0     H21611   5.738   6.981   1.929  1.3929 -3.3002  1.0924
  164MOL0     H21612   5.475   7.217   1.621 -0.0022  2.0537  1.5617
  164MOL0     H21613   5.268   7.356   1.625  1.4254  1.4238  0.2625
  164MOL0     H21614   5.102   7.371   1.923  0.6515 -0.5039 -3.6763
  164MOL0     H21615   4.925   7.337   1.923 -0.0144 -0.4651  1.6541
  164MOL0     H21616   5.001   7.578   1.908 -0.4812  0.5667 -0.4327
  164MOL0     H21617   4.897   7.536   1.769  0.7123  1.0410 -0.5486
  164MOL0     H21618   5.092   7.508   1.633 -1.0962 -1.7336  0.8715
  164MOL0     H21619   5.202   7.551   1.769  1.8864  2.5559 -4.4266
  164MOL0     H21620   4.984   7.728   1.663 -0.9501 -2.6002  2.7010
  164MOL0     H21621   5.085   7.753   1.807  0.8085  2.1681 -0.0092
  164MOL0     H21622   5.195   7.735   1.524  2.2498 -0.0881  1.5361
  164MOL0     H21623   5.293   7.759   1.662 -1.2358  0.6586  4.4408
  164MOL0     H21624   5.269   7.982   1.584  1.0732 -0.9607  3.2981
  164MOL0     H21625   5.177   7.966   1.727  2.3499  2.0122 -0.0497
  164MOL0     H21626   4.968   7.918   1.554 -0.6224  0.6304  0.1526
  164MOL0     H21627   5.020   8.082   1.576 -0.9845  0.0456 -1.3665
  164MOL0     H21628   5.186   8.053   1.366  1.1441 -1.6968 -2.4896
  164MOL0     H21629   5.013   8.068   1.350 -1.4069 -1.7645 -1.0007
  164MOL0     H21630   5.097   7.046   1.886  1.6557 -1.4999  1.4886
  164MOL0     H21631   5.314   6.931   1.887 -1.9593  0.2096  0.4917
  164MOL0     H21632   5.794   6.944   1.506  0.4504 -0.3335 -0.1912
  164MOL0     H21633   6.034   6.958   1.548  0.9321 -2.7770  0.0463
  164MOL0     H21634   7.633   7.620   1.692 -1.4410  2.4740 -1.6560
  164MOL0     H21635   7.872   7.681   1.669  0.7759  4.9431 -1.4419
  164MOL0     H21636   8.129   8.082   1.723 -3.6266 -0.9484 -1.6531
  164MOL0     H21637   8.365   8.136   1.740 -1.9138  0.4651  1.0663
  164MOL0     H21638   8.581   8.082   1.778 -1.6018 -0.4832 -1.0521
  164MOL0     H21639   8.552   8.204   1.659 -1.0358  0.1416  0.1007
  164MOL0     H21640   8.793   8.031   1.669  0.0195  0.8262  1.9176
  164MOL0     H21641   8.765   8.160   1.545  0.5064  1.1277 -0.4959
  164MOL0     H21642   8.789   8.218   1.844 -0.7147  0.2555  0.2557
  164MOL0     H21643   8.772   8.329   1.702  2.2373  0.5330 -1.2558
  164MOL0     H21644   9.004   8.129   1.704 -0.4349 -0.0486 -0.5260
  164MOL0     H21645   8.979   8.262   1.594 -1.1724  2.0376 -0.1807
  164MOL0     H21646   9.207   8.424   1.920  0.7335 -1.5252  0.8889
  164MOL0     H21647   8.443   7.870   1.407  0.7329  1.5486  0.2221
  164MOL0     H21648   8.252   7.771   1.408 -0.0973 -0.6749 -0.9749
  165MOL0     O21649  11.019   5.778   8.931  0.1335  0.2758  0.9202
  165MOL0     C21650  10.989   5.755   9.052  0.4256 -0.3665  0.3243
  165MOL0     O21651  11.072   5.735   9.154 -0.4669 -0.0869 -0.6051
  165MOL0     C21652  11.204   5.782   9.152  0.3218  0.2703 -0.8080
  165MOL0     C21653  11.297   5.800   9.050  0.7352 -0.2240  0.2046
  165MOL0     C21654  11.426   5.842   9.074 -0.2117  0.7768 -0.2744
  165MOL0     C21655  11.479   5.839   9.204  0.1233 -0.3511 -0.1399
  165MOL0     O21656  11.605   5.884   9.218 -0.3818  0.6136 -0.6162
  165MOL0     C21657  11.679   5.893   9.346  0.2159 -0.1247  0.0527
  165MOL0     C21658  11.829   5.914   9.344 -0.8499 -0.1537 -0.1124
  165MOL0     C21659  11.870   6.060   9.301 -0.9354  0.1056  0.4948
  165MOL0     C21660  12.025   6.075   9.314  0.2249 -0.0547  0.2222
  165MOL0     C21661  12.076   6.192   9.237  1.1261  0.3411  1.0306
  165MOL0     C21662  12.055   6.186   9.085 -0.7416  1.1520 -0.5130
  165MOL0     C21663  12.135   6.287   9.023  0.7564  0.5957 -0.5701
  165MOL0     C21664  12.129   6.281   8.877 -0.9990  0.5130  0.0454
  165MOL0     N21665  12.237   6.191   8.828 -0.3268  0.2854 -0.2145
  165MOL0     C21666  12.224   6.057   8.798 -0.0246  0.3798  0.3984
  165MOL0     C21667  12.337   6.034   8.730  0.3736  0.8745 -1.0335
  165MOL0     C21668  12.396   5.902   8.695 -0.3943  0.6513  0.6826
  165MOL0     C21669  12.406   5.886   8.536  0.0272 -0.3209 -0.7436
  165MOL0     C21670  12.278   5.878   8.458 -0.3669  0.5302  0.0902
  165MOL0     C21671  12.312   5.881   8.304 -0.0059  0.2354 -0.1451
  165MOL0     O21672  12.370   5.751   8.246 -0.4210  0.4180  0.6888
  165MOL0     C21673  12.306   5.634   8.262  0.3406  1.1259 -0.4508
  165MOL0     C21674  12.387   5.522   8.262 -0.8802 -0.3024 -0.3421
  165MOL0     C21675  12.325   5.396   8.266 -0.1010  0.3634 -1.3046
  165MOL0     C21676  12.181   5.376   8.271 -0.0291 -1.0172 -0.1279
  165MOL0     C21677  12.121   5.243   8.277  0.1783 -0.3301 -0.2814
  165MOL0     O21678  11.999   5.234   8.344 -0.0907 -0.4908 -0.1825
  165MOL0     C21679  11.915   5.124   8.329  0.1081 -0.2900 -0.1364
  165MOL0     C21680  11.895   5.067   8.204 -0.6725 -0.1856  0.4487
  165MOL0     C21681  11.802   4.958   8.188  0.2232 -0.3971 -0.5807
  165MOL0     C21682  11.732   4.904   8.306 -0.7352  0.0081  1.0121
  165MOL0     O21683  11.641   4.800   8.290 -0.2013  0.9907  0.1784
  165MOL0     C21684  11.630   4.742   8.156  0.4001  0.2777  0.6068
  165MOL0     C21685  11.542   4.609   8.161 -0.2266  0.9663 -1.0331
  165MOL0     C21686  11.589   4.484   8.220 -0.0288 -0.5583  0.0417
  165MOL0     C21687  11.474   4.383   8.246 -1.1179  0.2876  0.4580
  165MOL0     C21688  11.540   4.259   8.300  0.0484 -0.5425 -0.1093
  165MOL0     C21689  11.431   4.153   8.332 -0.2553  0.7436  0.0063
  165MOL0     C21690  11.329   4.198   8.441  0.0806 -0.3954  0.7829
  165MOL0     C21691  11.221   4.095   8.444 -0.3046  0.5478  0.0864
  165MOL0    Cl21692  11.098   4.146   8.559  0.2264 -0.2255 -0.0398
  165MOL0     C21693  11.776   4.952   8.433  0.2211  0.2245 -0.4837
  165MOL0     C21694  11.859   5.061   8.444  0.2993 -0.4101 -0.3162
  165MOL0     O21695  12.176   5.149   8.223  0.1699 -0.1909  0.6460
  165MOL0     C21696  12.106   5.495   8.272 -0.4088  0.8753  0.8527
  165MOL0     C21697  12.167   5.623   8.271  0.3039 -0.2089  0.1450
  165MOL0     N21698  12.406   6.148   8.707  0.1004 -0.7050  0.2051
  165MOL0     N21699  12.348   6.248   8.766  0.7377  0.1751  0.3187
  165MOL0     C21700  11.387   5.813   9.310 -0.2971  1.3206 -0.1621
  165MOL0     C21701  11.251   5.790   9.278 -0.5196 -1.3475 -0.3912
  165MOL0     C21702  10.847   5.757   9.106 -0.2655  0.1897  0.2082
  165MOL0     C21703  10.739   5.775   9.023 -0.0189 -0.0205  0.0254
  165MOL0     C21704  10.601   5.771   9.064  1.1198 -0.0278 -0.1024
  165MOL0     C21705  10.567   5.762   9.200 -0.7400 -0.6871  0.2080
  165MOL0     O21706  10.439   5.764   9.248  0.2175 -0.3146  0.1403
  165MOL0     C21707  10.324   5.775   9.154  0.3844 -0.7234  0.4135
  165MOL0     C21708  10.191   5.786   9.216  0.4501 -0.3273  0.1713
  165MOL0     C21709  10.144   5.658   9.288  0.2696 -0.6042  0.0681
  165MOL0     C21710  10.001   5.662   9.341 -0.0063  0.6400 -0.0593
  165MOL0     C21711   9.973   5.552   9.434  0.0109  0.3843 -0.3414
  165MOL0     C21712   9.957   5.472   9.527  0.6724 -0.6786  0.7289
  165MOL0     C21713  10.678   5.753   9.283 -0.0708 -0.9600 -0.7644
  165MOL0     C21714  10.808   5.748   9.245 -0.0602 -0.8025  0.6274
  165MOL0     H21715  11.258   5.793   8.949 -1.4803  0.0258  0.9764
  165MOL0     H21716  11.488   5.858   8.986 -2.3966 -0.7248 -2.1851
  165MOL0     H21717  11.654   5.807   9.408  0.2794 -0.8315 -0.8819
  165MOL0     H21718  11.645   5.983   9.398  2.2730  0.3858  0.6123
  165MOL0     H21719  11.876   5.845   9.273 -1.3129  0.9813 -1.5716
  165MOL0     H21720  11.872   5.898   9.443 -1.0738  1.5478  0.2957
  165MOL0     H21721  11.821   6.129   9.371  0.7021 -1.7394  3.7068
  165MOL0     H21722  11.838   6.076   9.198  0.3093  2.8091  0.4345
  165MOL0     H21723  12.044   6.098   9.419  3.5768  1.7478 -0.6269
  165MOL0     H21724  12.091   5.993   9.283 -0.9973 -1.0398  0.1309
  165MOL0     H21725  12.183   6.203   9.255  1.2221  0.3639  0.4670
  165MOL0     H21726  12.038   6.286   9.279  2.3551  2.7805 -2.7297
  165MOL0     H21727  11.953   6.199   9.049 -1.4796  0.3089  1.2155
  165MOL0     H21728  12.082   6.084   9.055 -1.4238  0.3586  1.4497
  165MOL0     H21729  12.125   6.385   9.071  2.1679 -0.2490  1.6140
  165MOL0     H21730  12.239   6.267   9.051  0.1747 -2.3075 -0.1627
  165MOL0     H21731  12.139   6.385   8.844  0.9617  0.2073 -0.4786
  165MOL0     H21732  12.038   6.242   8.831  1.1374 -3.1527 -1.4864
  165MOL0     H21733  12.158   5.986   8.845 -0.4929 -1.0919 -2.3013
  165MOL0     H21734  12.338   5.818   8.735 -0.1767 -0.3411 -0.9997
  165MOL0     H21735  12.491   5.885   8.745  0.0847  1.7890  0.1981
  165MOL0     H21736  12.460   5.795   8.505 -0.9980 -0.4722 -2.1455
  165MOL0     H21737  12.463   5.970   8.496  0.8432 -0.2727  0.4570
  165MOL0     H21738  12.227   5.784   8.481  1.3802 -0.5060 -0.0517
  165MOL0     H21739  12.205   5.951   8.494 -0.5340  0.3225  0.1751
  165MOL0     H21740  12.392   5.954   8.285 -0.1012  0.1924 -0.7217
  165MOL0     H21741  12.221   5.909   8.251 -0.5315 -2.2215 -0.6198
  165MOL0     H21742  12.491   5.534   8.234 -1.3644  1.1277 -1.7127
  165MOL0     H21743  12.391   5.310   8.260  0.5852  0.4957  2.4632
  165MOL0     H21744  11.961   5.105   8.127 -2.2508  3.3391  0.6679
  165MOL0     H21745  11.762   4.941   8.088  0.3519  2.4247 -1.1995
  165MOL0     H21746  11.723   4.717   8.104 -1.5706 -0.9208 -2.6701
  165MOL0     H21747  11.580   4.810   8.087 -0.3165 -2.6755 -2.0548
  165MOL0     H21748  11.509   4.585   8.060 -2.7733  1.3010 -0.3557
  165MOL0     H21749  11.454   4.636   8.221  1.7077  2.5120  1.2896
  165MOL0     H21750  11.629   4.519   8.315 -0.4739  2.7328 -0.8765
  165MOL0     H21751  11.671   4.440   8.161 -0.7167  1.7321 -2.8442
  165MOL0     H21752  11.406   4.434   8.315 -2.1155  1.2054 -1.1619
  165MOL0     H21753  11.424   4.355   8.153  1.1779  0.9519 -1.0583
  165MOL0     H21754  11.593   4.282   8.393 -1.9032 -0.2938  1.0030
  165MOL0     H21755  11.607   4.218   8.224  1.6366  1.4721  0.1168
  165MOL0     H21756  11.486   4.060   8.348  1.6139  1.4611 -1.8966
  165MOL0     H21757  11.381   4.122   8.240 -0.7024  0.8466  0.2081
  165MOL0     H21758  11.372   4.215   8.540 -1.3868  0.6511  1.2893
  165MOL0     H21759  11.275   4.289   8.414  1.4897 -0.2191 -1.6962
  165MOL0     H21760  11.249   3.992   8.469  1.1787  0.5062 -1.5568
  165MOL0     H21761  11.182   4.105   8.343  1.4973  0.8322 -0.6111
  165MOL0     H21762  11.735   4.893   8.514  1.8719  0.7227  0.7514
  165MOL0     H21763  11.878   5.105   8.542 -1.0587  0.2156 -0.3200
  165MOL0     H21764  11.998   5.485   8.281 -0.4977  2.5911  2.1462
  165MOL0     H21765  12.097   5.707   8.263 -0.3073 -0.8026 -1.2159
  165MOL0     H21766  11.415   5.821   9.415  0.2325  0.4433 -0.2317
  165MOL0     H21767  11.185   5.775   9.363 -2.7115 -0.2037 -1.7709
  165MOL0     H21768  10.761   5.800   8.920  0.6241  1.9079  0.5745
  165MOL0     H21769  10.525   5.774   8.987  1.0536  1.6968  0.0094
  165MOL0     H21770  10.326   5.698   9.076  0.4241 -1.5802  1.2421
  165MOL0     H21771  10.332   5.865   9.093  0.1762  0.1652  1.6548
  165MOL0     H21772  10.180   5.867   9.289 -1.0549  2.2974 -2.7724
  165MOL0     H21773  10.115   5.826   9.148 -0.4469 -0.7587  0.8882
  165MOL0     H21774  10.219   5.643   9.366  0.8198 -0.2249 -0.3814
  165MOL0     H21775  10.155   5.572   9.221  1.4742 -2.8987  2.9894
  165MOL0     H21776   9.980   5.750   9.403 -0.0996 -0.0037  0.8573
  165MOL0     H21777   9.918   5.653   9.271 -3.4693  1.9634  3.4854
  165MOL0     H21778   9.929   5.402   9.603 -1.2801 -0.6363  0.1248
  165MOL0     H21779  10.660   5.754   9.390 -1.4781  1.4460 -0.9604
  165MOL0     H21780  10.874   5.731   9.329  1.0353 -1.0236 -0.2480
  166MOL0     O21781   5.941   9.550   5.245  0.1074  1.0015 -0.3571
  166MOL0     C21782   5.900   9.488   5.155  0.3736 -0.1790  0.3590
  166MOL0     O21783   5.774   9.452   5.121 -0.1894 -0.5833  0.0370
  166MOL0     C21784   5.658   9.493   5.192  0.3190 -0.1250 -0.0419
  166MOL0     C21785   5.533   9.459   5.132  1.0792  0.0584 -0.2594
  166MOL0     C21786   5.413   9.498   5.186 -0.4527 -0.0551 -0.2282
  166MOL0     C21787   5.410   9.551   5.317 -0.1987 -0.6331 -0.2618
  166MOL0     O21788   5.291   9.578   5.383 -0.5287 -0.0462  0.5042
  166MOL0     C21789   5.203   9.467   5.405 -0.5791 -0.0111  0.2539
  166MOL0     C21790   5.062   9.514   5.441 -0.0409 -0.2996  0.3868
  166MOL0     C21791   4.962   9.407   5.469 -1.1850  0.7019  0.1386
  166MOL0     C21792   4.825   9.455   5.487  1.0370  0.7190 -0.4359
  166MOL0     C21793   4.735   9.331   5.503 -0.0447 -0.9066  0.2360
  166MOL0     C21794   4.584   9.372   5.537 -0.7317 -0.7149  0.3013
  166MOL0     C21795   4.514   9.465   5.435  0.2522 -0.9950  0.1233
  166MOL0     C21796   4.499   9.407   5.289 -0.2624  0.0756  0.1594
  166MOL0     N21797   4.423   9.280   5.280 -1.0315 -0.0825 -0.2713
  166MOL0     C21798   4.479   9.154   5.274 -0.3600  0.3606 -0.8096
  166MOL0     C21799   4.374   9.073   5.293 -0.1515  0.0407 -0.9464
  166MOL0     C21800   4.390   8.919   5.284 -0.5122  0.6491 -0.6282
  166MOL0     C21801   4.292   8.872   5.182 -0.6017 -0.7149 -0.4505
  166MOL0     C21802   4.143   8.853   5.218 -0.0802 -0.4017  0.8122
  166MOL0     C21803   4.064   8.944   5.117  0.2285  0.1817 -0.3355
  166MOL0     O21804   4.081   8.888   4.987 -0.1055  0.2743 -0.9553
  166MOL0     C21805   4.015   8.950   4.888  0.0840  0.1222  0.1475
  166MOL0     C21806   3.965   9.086   4.877 -0.2138  0.8042  0.3901
  166MOL0     C21807   3.905   9.134   4.763  0.1708 -0.2046 -0.0355
  166MOL0     C21808   3.878   9.046   4.655 -0.6518 -0.3292 -0.5833
  166MOL0     C21809   3.809   9.087   4.536 -0.0256  0.0475  1.1133
  166MOL0     O21810   3.797   8.991   4.433  0.1883 -0.0219  0.7313
  166MOL0     C21811   3.720   9.034   4.329  0.9349 -0.4189  0.0182
  166MOL0     C21812   3.788   9.117   4.244 -0.7243 -0.6687  0.0929
  166MOL0     C21813   3.734   9.174   4.135  1.0352 -0.5588  0.9042
  166MOL0     C21814   3.594   9.159   4.114 -0.3011  0.6351  1.0472
  166MOL0     O21815   3.524   9.210   4.007 -0.4990  0.0188 -0.1440
  166MOL0     C21816   3.594   9.304   3.928 -0.3075  0.0499  0.1052
  166MOL0     C21817   3.501   9.359   3.831 -0.0351  0.7798 -0.1534
  166MOL0     C21818   3.563   9.493   3.774 -0.1330 -0.0896  0.1651
  166MOL0     C21819   3.473   9.547   3.662  0.5228  0.0243  0.4299
  166MOL0     C21820   3.354   9.621   3.720  0.4211  0.5191  0.1311
  166MOL0     C21821   3.261   9.664   3.614 -0.4393  0.3508 -0.3128
  166MOL0     C21822   3.328   9.778   3.529  0.3580  0.1681 -0.3789
  166MOL0     C21823   3.340   9.905   3.613 -0.0650  0.2495 -0.1853
  166MOL0    Cl21824   3.390  10.041   3.507 -0.2841  0.1856  0.6459
  166MOL0     C21825   3.521   9.070   4.198  0.2035 -0.2432  0.3368
  166MOL0     C21826   3.586   9.007   4.310 -0.5000  0.4221 -0.2692
  166MOL0     O21827   3.755   9.203   4.534  0.0674  0.0112 -0.1932
  166MOL0     C21828   3.920   8.911   4.664  0.4930  0.2045 -0.1387
  166MOL0     C21829   3.986   8.866   4.783 -0.3116  1.3182 -0.2537
  166MOL0     N21830   4.259   9.146   5.319  0.5537  0.1086 -0.1712
  166MOL0     N21831   4.289   9.269   5.314 -0.2879 -0.0021  0.6022
  166MOL0     C21832   5.533   9.579   5.387  0.0716  1.0576 -0.4434
  166MOL0     C21833   5.654   9.548   5.315  0.2033 -0.4512  0.3096
  166MOL0     C21834   6.004   9.438   5.056  0.1871 -0.2517  0.9230
  166MOL0     C21835   5.975   9.339   4.955  0.0401  0.5867 -0.1441
  166MOL0     C21836   6.068   9.304   4.862 -0.0404  0.6230 -0.3834
  166MOL0     C21837   6.179   9.379   4.848  0.5649 -0.0436 -0.0127
  166MOL0     O21838   6.263   9.342   4.742  0.4689 -0.1263 -0.2483
  166MOL0     C21839   6.400   9.339   4.787  0.0168  0.4369  0.2336
  166MOL0     C21840   6.499   9.264   4.699  0.9247  0.1001 -0.2253
  166MOL0     C21841   6.566   9.370   4.604  1.0106 -0.4134 -0.3607
  166MOL0     C21842   6.634   9.291   4.494  0.4341 -0.8624  0.0054
  166MOL0     C21843   6.750   9.367   4.432  0.5306  0.1307  0.1780
  166MOL0     C21844   6.847   9.428   4.383  0.1426 -0.6847 -0.8460
  166MOL0     C21845   6.213   9.484   4.935  0.2628  0.0582 -0.9123
  166MOL0     C21846   6.127   9.508   5.047 -0.2458  0.4840  0.7353
  166MOL0     H21847   5.525   9.399   5.042 -4.5988  0.4302 -0.3240
  166MOL0     H21848   5.314   9.482   5.145 -0.5150  1.3428 -0.6726
  166MOL0     H21849   5.250   9.400   5.478  0.3256 -2.8335 -2.7053
  166MOL0     H21850   5.194   9.408   5.314  2.0930 -1.1774  0.6643
  166MOL0     H21851   5.022   9.566   5.354 -0.0178 -2.8142 -1.2280
  166MOL0     H21852   5.073   9.580   5.528  1.5077 -1.3604  1.0388
  166MOL0     H21853   4.991   9.365   5.566 -0.4987  1.5798  0.3333
  166MOL0     H21854   4.969   9.322   5.401 -0.4438 -1.2067  2.4656
  166MOL0     H21855   4.819   9.535   5.562 -2.5422  0.9558 -0.7951
  166MOL0     H21856   4.789   9.517   5.404 -0.1874  1.7411  0.8084
  166MOL0     H21857   4.764   9.260   5.581  2.4601  0.4933  0.6995
  166MOL0     H21858   4.737   9.278   5.407 -1.5109  0.2691 -0.4854
  166MOL0     H21859   4.581   9.427   5.632 -0.1655  2.2823 -1.3192
  166MOL0     H21860   4.530   9.277   5.540 -2.0274 -0.0595 -1.2554
  166MOL0     H21861   4.414   9.490   5.471  0.4378  2.6160 -1.4420
  166MOL0     H21862   4.577   9.554   5.427 -0.1769 -0.8593 -3.4390
  166MOL0     H21863   4.601   9.388   5.256  0.6114  0.1495  2.6100
  166MOL0     H21864   4.458   9.484   5.223 -1.0310  1.1183  1.7980
  166MOL0     H21865   4.580   9.123   5.250 -0.0649  0.2309  0.5052
  166MOL0     H21866   4.378   8.874   5.383 -2.5796  2.9905  0.3020
  166MOL0     H21867   4.491   8.887   5.259 -0.2962  1.4216 -0.7657
  166MOL0     H21868   4.333   8.776   5.149  0.2439 -0.2136 -0.8937
  166MOL0     H21869   4.299   8.941   5.097  1.5952 -0.1279  0.1484
  166MOL0     H21870   4.099   8.754   5.203 -3.6806  1.1035  0.3978
  166MOL0     H21871   4.128   8.894   5.319 -0.0616 -0.4837  0.8473
  166MOL0     H21872   4.113   9.042   5.121  1.8962 -0.3851 -3.4208
  166MOL0     H21873   3.958   8.945   5.143 -0.5446  3.0980 -2.8979
  166MOL0     H21874   3.979   9.160   4.956 -0.6460  0.1745  1.0725
  166MOL0     H21875   3.878   9.239   4.760  2.7284  0.5233 -3.1847
  166MOL0     H21876   3.888   9.156   4.262 -0.8194 -0.4405  0.1256
  166MOL0     H21877   3.784   9.248   4.073 -2.8783  0.9854 -0.7837
  166MOL0     H21878   3.669   9.246   3.873 -1.2952 -0.4297 -0.7535
  166MOL0     H21879   3.651   9.380   3.983  3.4400 -0.5414 -2.5578
  166MOL0     H21880   3.406   9.378   3.883 -0.9292  0.1484 -1.5113
  166MOL0     H21881   3.489   9.278   3.759 -1.3097 -0.7288  1.6355
  166MOL0     H21882   3.655   9.458   3.728  0.3684  2.2176 -0.7398
  166MOL0     H21883   3.580   9.569   3.851  1.1355  1.2913 -1.4115
  166MOL0     H21884   3.541   9.618   3.614  0.1374 -0.3197 -0.6405
  166MOL0     H21885   3.446   9.455   3.611  4.6459 -2.1587  1.7008
  166MOL0     H21886   3.390   9.703   3.783  1.4988 -1.0437  1.6428
  166MOL0     H21887   3.301   9.552   3.787  1.8214  2.8091  3.8987
  166MOL0     H21888   3.162   9.697   3.648 -0.7687  1.4633 -2.1938
  166MOL0     H21889   3.251   9.573   3.555  2.5511 -1.8345  2.2560
  166MOL0     H21890   3.428   9.747   3.500 -1.5735 -3.0066 -4.7176
  166MOL0     H21891   3.265   9.785   3.439 -4.1617 -1.7543  2.2820
  166MOL0     H21892   3.419   9.902   3.689 -1.2919  0.5994  1.1607
  166MOL0     H21893   3.242   9.920   3.661 -1.3267 -1.4110 -2.0963
  166MOL0     H21894   3.414   9.057   4.182  0.4037 -0.9241 -0.5910
  166MOL0     H21895   3.541   8.935   4.378 -0.1185  0.3514 -0.0856
  166MOL0     H21896   3.910   8.839   4.584 -1.6985  1.7404 -1.3526
  166MOL0     H21897   4.024   8.764   4.784 -0.8567  1.0677 -1.9567
  166MOL0     H21898   5.534   9.620   5.488  1.6581  1.1840 -0.4910
  166MOL0     H21899   5.741   9.572   5.375  2.7192 -2.7723 -2.0883
  166MOL0     H21900   5.886   9.279   4.964  2.5719 -3.4490  0.3383
  166MOL0     H21901   6.052   9.218   4.797 -1.3134 -0.7661  1.6400
  166MOL0     H21902   6.402   9.297   4.888 -1.5176  0.0889  0.1317
  166MOL0     H21903   6.443   9.440   4.791  2.2989 -0.3258 -2.1499
  166MOL0     H21904   6.573   9.225   4.769  0.5752  0.3937  0.3191
  166MOL0     H21905   6.445   9.178   4.659 -2.0523  1.7710 -0.1538
  166MOL0     H21906   6.640   9.425   4.663  1.9502 -0.5470 -1.3712
  166MOL0     H21907   6.500   9.448   4.565  3.2718  1.6842 -0.2873
  166MOL0     H21908   6.681   9.202   4.537 -0.1043 -1.3521 -0.3973
  166MOL0     H21909   6.563   9.274   4.412  1.1385  0.9361 -1.0442
  166MOL0     H21910   6.946   9.465   4.363 -0.1289  1.2333  1.0068
  166MOL0     H21911   6.297   9.549   4.915  0.7129 -0.4334 -0.6510
  166MOL0     H21912   6.151   9.581   5.124 -0.2710  0.2651  0.9536
  167MOL0     O21913   9.515   4.127   3.090  0.2563  0.1860 -0.4897
  167MOL0     C21914   9.516   4.032   3.171  0.0077  0.2770 -0.5714
  167MOL0     O21915   9.603   4.013   3.275  0.0418 -0.0759  0.2870
  167MOL0     C21916   9.701   4.108   3.269 -1.2343 -0.4228 -0.7678
  167MOL0     C21917   9.700   4.219   3.362  1.1273  0.2971  0.3981
  167MOL0     C21918   9.786   4.322   3.336 -0.2200  0.0937 -0.2308
  167MOL0     C21919   9.870   4.325   3.228  0.4043 -0.4749  0.5112
  167MOL0     O21920   9.968   4.424   3.212 -0.6874 -0.0495  0.0025
  167MOL0     C21921   9.902   4.551   3.179 -0.1646 -0.0488 -0.6394
  167MOL0     C21922   9.870   4.567   3.030  0.0529 -0.3146 -0.2010
  167MOL0     C21923   9.812   4.708   2.995 -0.0052  0.9669  0.9104
  167MOL0     C21924   9.678   4.741   3.069 -0.8390  0.4891 -0.1967
  167MOL0     C21925   9.560   4.640   3.035  0.4065 -0.1032  0.1695
  167MOL0     C21926   9.416   4.672   3.105 -0.0939  0.0792 -0.2543
  167MOL0     C21927   9.403   4.656   3.258 -0.0681 -0.1882 -0.4767
  167MOL0     C21928   9.430   4.510   3.295 -0.3319  0.0428 -0.2887
  167MOL0     N21929   9.406   4.484   3.445  0.1162  0.7550 -0.2035
  167MOL0     C21930   9.290   4.513   3.509  0.4713  0.2143  0.0545
  167MOL0     C21931   9.304   4.462   3.636 -0.5403 -0.5548 -0.1660
  167MOL0     C21932   9.185   4.463   3.736  0.4029  0.3389  0.7774
  167MOL0     C21933   9.154   4.311   3.764  0.7008  0.2681  0.0321
  167MOL0     C21934   9.033   4.284   3.850 -0.1394 -0.3304  0.6976
  167MOL0     C21935   8.887   4.300   3.780 -1.0097 -1.4555 -0.6420
  167MOL0     O21936   8.843   4.443   3.812 -0.3069  0.2727  0.1878
  167MOL0     C21937   8.707   4.474   3.775  0.5932  1.3037 -1.0510
  167MOL0     C21938   8.656   4.606   3.792 -0.5962  0.2604  0.3293
  167MOL0     C21939   8.522   4.629   3.743 -0.5441  0.0376 -0.0415
  167MOL0     C21940   8.437   4.532   3.698  1.0968 -0.2767  0.0298
  167MOL0     C21941   8.292   4.568   3.686 -0.9011 -0.9963  0.4948
  167MOL0     O21942   8.202   4.470   3.673  0.1502 -0.4638 -0.0501
  167MOL0     C21943   8.067   4.501   3.674  1.3096 -0.1026 -0.2945
  167MOL0     C21944   8.008   4.555   3.791  0.4116  0.3473  0.3672
  167MOL0     C21945   7.894   4.628   3.795 -0.1111  0.9586 -0.2516
  167MOL0     C21946   7.817   4.641   3.677 -0.4456 -0.2864 -1.0611
  167MOL0     O21947   7.697   4.712   3.677 -0.5479  0.7005  0.1242
  167MOL0     C21948   7.596   4.669   3.765  0.5173 -0.0199  0.6142
  167MOL0     C21949   7.521   4.552   3.705 -0.1397 -0.2444 -0.4144
  167MOL0     C21950   7.406   4.514   3.797 -0.2562  0.1344  0.5516
  167MOL0     C21951   7.306   4.430   3.721  0.3765 -0.1049  0.5121
  167MOL0     C21952   7.184   4.410   3.821 -0.1730 -0.0666 -0.1665
  167MOL0     C21953   7.061   4.346   3.764 -0.3461 -0.3648  0.3049
  167MOL0     C21954   7.094   4.227   3.678 -0.7978  0.1528 -0.1995
  167MOL0     C21955   6.973   4.132   3.640  0.0633  0.0938 -0.9122
  167MOL0    Cl21956   6.847   4.217   3.554 -0.3559  0.2344  0.0394
  167MOL0     C21957   7.870   4.596   3.557  0.1327  0.0541  1.0754
  167MOL0     C21958   7.997   4.532   3.556  0.2789  0.1473  0.1544
  167MOL0     O21959   8.277   4.690   3.679 -0.0853  0.2183 -0.3566
  167MOL0     C21960   8.482   4.409   3.677 -0.3419  1.6254  0.6708
  167MOL0     C21961   8.618   4.378   3.716  0.3452  0.3080  0.2393
  167MOL0     N21962   9.426   4.408   3.642 -0.4186 -0.3167  0.3635
  167MOL0     N21963   9.483   4.412   3.530 -0.2650  0.9361  0.2702
  167MOL0     C21964   9.882   4.212   3.145 -0.4349 -0.6290  0.1524
  167MOL0     C21965   9.792   4.105   3.163  0.6466 -1.5700 -0.1567
  167MOL0     C21966   9.400   3.952   3.159  0.2303 -1.1447 -0.1570
  167MOL0     C21967   9.276   4.009   3.124  0.9623  0.7408 -0.8043
  167MOL0     C21968   9.159   3.935   3.114  0.4284 -1.0980 -1.1330
  167MOL0     C21969   9.165   3.795   3.130 -0.3477 -0.9169  0.0195
  167MOL0     O21970   9.046   3.717   3.132  0.4824  0.7000  0.1475
  167MOL0     C21971   8.953   3.743   3.227 -0.4210 -0.0963 -0.3127
  167MOL0     C21972   8.834   3.641   3.215 -0.2087 -0.0244 -0.5588
  167MOL0     C21973   8.791   3.619   3.068  0.4111  0.3411 -0.4556
  167MOL0     C21974   8.661   3.532   3.059  0.6463  0.0723 -0.6559
  167MOL0     C21975   8.546   3.602   3.117 -0.1618 -0.1865 -0.1928
  167MOL0     C21976   8.445   3.639   3.172  0.5640  0.0197  0.6373
  167MOL0     C21977   9.288   3.740   3.159  0.7343  0.3982 -0.3272
  167MOL0     C21978   9.403   3.813   3.186 -0.0633 -2.1772  0.3144
  167MOL0     H21979   9.627   4.221   3.442 -2.4911  2.3812 -2.6163
  167MOL0     H21980   9.769   4.411   3.395  2.3791  0.9043 -0.6175
  167MOL0     H21981   9.970   4.630   3.212 -0.6077  1.6975 -3.5530
  167MOL0     H21982   9.815   4.568   3.243  0.8214  2.2616  0.1761
  167MOL0     H21983   9.814   4.477   3.006  2.4860 -1.8715 -0.3578
  167MOL0     H21984   9.964   4.561   2.974 -0.9403 -0.5784 -1.9171
  167MOL0     H21985   9.787   4.733   2.891 -1.9340  2.9622  1.7703
  167MOL0     H21986   9.884   4.782   3.032  0.7596 -0.8861  3.3408
  167MOL0     H21987   9.700   4.752   3.176 -1.4400  0.0429 -0.0234
  167MOL0     H21988   9.643   4.841   3.039  0.9936  1.2612  0.1155
  167MOL0     H21989   9.576   4.534   3.052 -0.5354 -0.1254  1.0539
  167MOL0     H21990   9.545   4.651   2.927  0.7952  0.2002  0.1457
  167MOL0     H21991   9.343   4.601   3.067  1.1125 -2.0939  1.2814
  167MOL0     H21992   9.389   4.774   3.074  1.1555 -0.2913 -2.8597
  167MOL0     H21993   9.465   4.723   3.318  0.4058 -0.9705 -0.0909
  167MOL0     H21994   9.299   4.678   3.283  0.4567  1.1805  0.6130
  167MOL0     H21995   9.535   4.479   3.282 -0.4945 -3.0498  3.7621
  167MOL0     H21996   9.349   4.451   3.252  0.8456 -0.2543 -2.2283
  167MOL0     H21997   9.192   4.543   3.472  0.7212  0.0285 -0.7891
  167MOL0     H21998   9.097   4.513   3.694  0.8737  3.2857  2.9692
  167MOL0     H21999   9.208   4.515   3.830  0.8279 -0.4690  1.1290
  167MOL0     H22000   9.243   4.263   3.806 -1.8070 -1.7274  3.6454
  167MOL0     H22001   9.136   4.254   3.672 -1.4530  1.6302 -0.4658
  167MOL0     H22002   9.044   4.176   3.862 -2.4126 -0.8682 -1.2195
  167MOL0     H22003   9.042   4.331   3.948  0.1296  0.2439  0.3980
  167MOL0     H22004   8.811   4.233   3.823  2.7954 -3.1381  4.4312
  167MOL0     H22005   8.903   4.288   3.673  2.1793 -2.7218 -0.1371
  167MOL0     H22006   8.718   4.681   3.840  0.3115 -0.0067 -0.3979
  167MOL0     H22007   8.498   4.735   3.745  0.3510  0.2394  0.8654
  167MOL0     H22008   8.061   4.551   3.886  1.9378  0.9322 -0.4221
  167MOL0     H22009   7.874   4.673   3.892  4.9360 -1.8607  2.5521
  167MOL0     H22010   7.519   4.746   3.771  0.9414  0.2728  3.9173
  167MOL0     H22011   7.636   4.638   3.862  1.1962 -2.6593 -0.4271
  167MOL0     H22012   7.584   4.463   3.708 -0.9850 -0.8317  0.6966
  167MOL0     H22013   7.488   4.567   3.602 -0.8750 -0.3079 -0.1914
  167MOL0     H22014   7.347   4.597   3.838 -2.6165 -1.2641  0.1776
  167MOL0     H22015   7.448   4.462   3.884  1.6610 -1.1404 -1.0636
  167MOL0     H22016   7.274   4.474   3.626  0.1207 -3.3103 -1.0236
  167MOL0     H22017   7.346   4.336   3.680  1.8700  0.8099 -0.2092
  167MOL0     H22018   7.164   4.511   3.856  0.8973  0.0255  0.1991
  167MOL0     H22019   7.207   4.354   3.912 -0.7222 -2.3268 -1.3488
  167MOL0     H22020   7.009   4.420   3.702  0.6574  2.8048  2.9459
  167MOL0     H22021   6.996   4.314   3.847 -0.1836  0.7621  0.8849
  167MOL0     H22022   7.129   4.269   3.583 -3.8452  0.7767 -1.1609
  167MOL0     H22023   7.178   4.170   3.718 -2.7001 -4.9668 -2.6519
  167MOL0     H22024   6.925   4.103   3.734  1.6592  2.4279  0.7488
  167MOL0     H22025   6.998   4.041   3.586  0.8788  0.0387 -0.4529
  167MOL0     H22026   7.821   4.599   3.460  1.0180 -2.0498  0.4980
  167MOL0     H22027   8.037   4.510   3.457 -1.9097 -0.6695 -0.6024
  167MOL0     H22028   8.425   4.329   3.630  2.0354 -0.6260  1.3715
  167MOL0     H22029   8.651   4.275   3.708  0.1467  0.3498 -1.5125
  167MOL0     H22030   9.958   4.214   3.067 -0.0957  0.3414  0.4926
  167MOL0     H22031   9.783   4.030   3.085  0.4289  0.4738 -2.2340
  167MOL0     H22032   9.258   4.116   3.127 -1.2224  0.4207  2.2805
  167MOL0     H22033   9.062   3.974   3.086  1.1237  0.8542 -1.0323
  167MOL0     H22034   8.908   3.842   3.224 -1.3767 -0.2884  3.0415
  167MOL0     H22035   8.998   3.740   3.326 -3.2608  1.2551  1.1584
  167MOL0     H22036   8.864   3.547   3.262  2.1145  1.0691  0.2582
  167MOL0     H22037   8.753   3.695   3.266 -1.1663  1.1660 -3.1481
  167MOL0     H22038   8.862   3.553   3.018  1.5155  0.0744  1.4023
  167MOL0     H22039   8.767   3.710   3.012 -2.2907 -0.0196 -0.0202
  167MOL0     H22040   8.646   3.490   2.959  3.6146  0.2634 -1.2820
  167MOL0     H22041   8.675   3.452   3.132  2.8512  0.2016 -0.8712
  167MOL0     H22042   8.364   3.680   3.230 -0.3920  0.0373 -0.6635
  167MOL0     H22043   9.285   3.636   3.189 -1.4773  0.4962  0.0027
  167MOL0     H22044   9.493   3.761   3.218  2.2574 -0.7249 -3.3242
  168MOL0     O22045   9.770   2.124   1.953  0.5489 -0.1922  0.0545
  168MOL0     C22046   9.743   2.065   2.053  0.7546  0.0017  1.3863
  168MOL0     O22047   9.822   2.046   2.162 -1.0391 -0.0513 -0.8048
  168MOL0     C22048   9.931   2.124   2.178  0.1594 -1.2526 -0.4911
  168MOL0     C22049  10.006   2.087   2.284 -0.2615 -0.1950  0.1099
  168MOL0     C22050  10.117   2.165   2.325  0.3289  0.3265 -0.0732
  168MOL0     C22051  10.177   2.251   2.235 -0.2835 -0.2156 -0.0130
  168MOL0     O22052  10.294   2.300   2.284 -0.3657 -0.3377 -0.0290
  168MOL0     C22053  10.367   2.382   2.189  0.0568  0.4547 -0.0511
  168MOL0     C22054  10.512   2.405   2.234 -0.4965 -0.0580  0.6792
  168MOL0     C22055  10.623   2.290   2.232  0.2441 -0.1927  0.0763
  168MOL0     C22056  10.642   2.219   2.096  0.4499 -0.1295  0.0914
  168MOL0     C22057  10.786   2.170   2.067  0.1004  0.1630 -0.5025
  168MOL0     C22058  10.831   2.198   1.928  0.8064 -0.1909 -0.3685
  168MOL0     C22059  10.972   2.148   1.914 -0.2063  1.1538 -1.4320
  168MOL0     C22060  11.056   2.197   1.799 -0.6984 -0.6553 -0.4105
  168MOL0     N22061  11.194   2.149   1.796  0.2049  0.2986 -0.7823
  168MOL0     C22062  11.276   2.143   1.905 -0.7419  0.0478  0.4648
  168MOL0     C22063  11.384   2.084   1.865 -0.3920 -0.1890  0.0908
  168MOL0     C22064  11.493   2.041   1.958 -0.7210 -0.8618 -0.3996
  168MOL0     C22065  11.612   1.989   1.884  0.9680  0.4964  0.7244
  168MOL0     C22066  11.681   2.104   1.808 -0.4058 -0.5235  0.3650
  168MOL0     C22067  11.790   2.180   1.896 -0.1321  0.6318 -0.1690
  168MOL0     O22068  11.818   2.304   1.849 -0.0036 -0.0450 -0.1962
  168MOL0     C22069  11.948   2.340   1.816 -0.3369 -0.1679  0.5128
  168MOL0     C22070  12.009   2.462   1.858  0.1274 -0.1410  0.1976
  168MOL0     C22071  12.140   2.492   1.829  0.1972  0.0861  0.1228
  168MOL0     C22072  12.216   2.399   1.754 -0.8575 -0.3633 -0.1330
  168MOL0     C22073  12.364   2.422   1.741  0.2864  0.0695 -0.5195
  168MOL0     O22074  12.428   2.478   1.847 -0.0520 -0.3764  0.0511
  168MOL0     C22075  12.559   2.526   1.831 -0.2783 -0.8257  0.7412
  168MOL0     C22076  12.577   2.668   1.815 -0.5840  0.4370  0.8797
  168MOL0     C22077  12.706   2.720   1.813 -0.1866  0.3080 -1.3146
  168MOL0     C22078  12.812   2.644   1.829  0.5112  0.7742  0.4109
  168MOL0     O22079  12.938   2.694   1.851 -0.2979 -0.7915 -0.1364
  168MOL0     C22080  13.004   2.761   1.743 -0.0508  0.0517  0.1354
  168MOL0     C22081  13.138   2.809   1.787  0.0195  0.7876  0.2793
  168MOL0     C22082  13.132   2.915   1.892 -0.0144  0.2921 -0.2166
  168MOL0     C22083  13.257   3.005   1.906 -0.3961  0.4096 -0.4627
  168MOL0     C22084  13.278   3.085   1.784 -0.3286 -0.2845  0.0439
  168MOL0     C22085  13.368   3.207   1.814  0.7281  0.5691  0.3642
  168MOL0     C22086  13.356   3.290   1.688 -0.3300 -0.3795 -0.5387
  168MOL0     C22087  13.422   3.426   1.692 -0.1599 -0.4139  0.0099
  168MOL0    Cl22088  13.405   3.521   1.530  0.1300  0.1163 -0.1011
  168MOL0     C22089  12.803   2.508   1.857  0.2367  0.0798  0.2004
  168MOL0     C22090  12.672   2.443   1.840  0.0608 -0.6111  0.0346
  168MOL0     O22091  12.414   2.399   1.632  0.1588 -0.7493  0.7192
  168MOL0     C22092  12.161   2.278   1.710 -0.3836 -0.5869 -0.2466
  168MOL0     C22093  12.029   2.245   1.747 -0.3451  0.5733 -0.2337
  168MOL0     N22094  11.366   2.040   1.732  0.0052  0.1205  0.2963
  168MOL0     N22095  11.252   2.085   1.694  0.1117  0.7587  0.0050
  168MOL0     C22096  10.104   2.295   2.122  0.0979  0.0826  0.5782
  168MOL0     C22097   9.981   2.225   2.096 -0.4504  0.4793 -0.6109
  168MOL0     C22098   9.611   2.006   2.047 -1.1364  0.3679  0.4198
  168MOL0     C22099   9.566   1.907   2.144  0.1322 -0.0580 -0.1086
  168MOL0     C22100   9.434   1.872   2.154 -0.2151 -0.5473 -0.1982
  168MOL0     C22101   9.340   1.914   2.061 -0.3358 -0.8096  0.4930
  168MOL0     O22102   9.206   1.884   2.053 -0.1853  0.0429 -0.3953
  168MOL0     C22103   9.166   1.772   2.130 -0.4184  0.2671 -0.1165
  168MOL0     C22104   9.027   1.732   2.083  1.3560 -0.9181 -0.0026
  168MOL0     C22105   8.959   1.638   2.186  0.4633  0.4001 -1.0138
  168MOL0     C22106   8.817   1.690   2.221  0.8528 -0.0744 -0.9804
  168MOL0     C22107   8.746   1.587   2.286  0.2663 -0.9555 -0.2971
  168MOL0     C22108   8.682   1.498   2.329 -0.4971  0.9319  0.0993
  168MOL0     C22109   9.387   1.996   1.963 -0.1012  0.3213  1.6450
  168MOL0     C22110   9.514   2.040   1.954  0.0387  0.0577  0.1018
  168MOL0     H22111   9.965   2.006   2.343  0.3286 -1.5739 -1.3109
  168MOL0     H22112  10.165   2.161   2.422  0.2622  3.2289  0.1488
  168MOL0     H22113  10.326   2.483   2.179 -0.7029  0.1079 -0.5154
  168MOL0     H22114  10.369   2.339   2.088  2.0766  0.5215 -0.0904
  168MOL0     H22115  10.515   2.456   2.331 -1.2010  2.1195 -0.3811
  168MOL0     H22116  10.571   2.477   2.176 -1.3126  0.6719  0.7313
  168MOL0     H22117  10.583   2.218   2.305 -1.1202  1.4272  1.0067
  168MOL0     H22118  10.716   2.329   2.275 -0.0185  1.8138 -1.0793
  168MOL0     H22119  10.559   2.159   2.058  1.6679 -0.3729 -2.3863
  168MOL0     H22120  10.627   2.305   2.031  0.6675 -0.8910 -0.9866
  168MOL0     H22121  10.773   2.063   2.089 -0.1704 -0.2791 -2.5825
  168MOL0     H22122  10.856   2.208   2.141 -0.7194 -0.2421  0.5014
  168MOL0     H22123  10.843   2.306   1.939  4.1091 -0.6372  1.9942
  168MOL0     H22124  10.761   2.169   1.848 -1.6750 -0.1689  1.6734
  168MOL0     H22125  11.023   2.168   2.009 -4.1235  2.7198  0.5904
  168MOL0     H22126  10.977   2.039   1.909 -0.4116  1.1927 -3.6937
  168MOL0     H22127  11.064   2.305   1.819  2.0087 -0.9953  0.8231
  168MOL0     H22128  11.021   2.168   1.700  1.2470 -0.5281 -1.1690
  168MOL0     H22129  11.265   2.180   2.007 -0.3415  0.1528  0.4722
  168MOL0     H22130  11.453   1.961   2.020  0.7048 -0.8165  0.6247
  168MOL0     H22131  11.525   2.119   2.028  0.5347 -0.7326 -1.1097
  168MOL0     H22132  11.584   1.910   1.814  1.1556 -1.5667  2.8461
  168MOL0     H22133  11.681   1.937   1.951  0.2767 -0.7442  0.4975
  168MOL0     H22134  11.722   2.072   1.712 -2.2041  1.4088 -1.1529
  168MOL0     H22135  11.599   2.169   1.776 -1.6007 -1.1738  1.9321
  168MOL0     H22136  11.886   2.130   1.911 -0.2334  0.4405 -0.1515
  168MOL0     H22137  11.749   2.186   1.997 -2.8548 -2.9459 -0.8677
  168MOL0     H22138  11.946   2.526   1.920  0.2066  2.9975 -2.6280
  168MOL0     H22139  12.175   2.586   1.871 -1.8998  0.2273  1.7498
  168MOL0     H22140  12.499   2.742   1.808 -1.8643 -0.8100  1.3828
  168MOL0     H22141  12.722   2.826   1.825  2.4020  0.0515 -2.0249
  168MOL0     H22142  12.943   2.843   1.705 -0.4793  0.6824  2.0921
  168MOL0     H22143  13.013   2.693   1.657  2.0407 -0.3595  0.6337
  168MOL0     H22144  13.191   2.843   1.697  3.3840  1.9385  2.5399
  168MOL0     H22145  13.191   2.723   1.827 -0.2710  1.5227  2.3669
  168MOL0     H22146  13.105   2.883   1.993  1.4973  0.5463  0.2937
  168MOL0     H22147  13.042   2.969   1.861  0.7446  1.6618 -0.1050
  168MOL0     H22148  13.234   3.067   1.993 -1.7671  1.0622 -1.2595
  168MOL0     H22149  13.343   2.941   1.925 -0.8339  0.4061  1.7686
  168MOL0     H22150  13.177   3.111   1.752 -1.4913 -0.9188  2.9088
  168MOL0     H22151  13.329   3.030   1.705 -0.7000  0.0781 -0.4581
  168MOL0     H22152  13.467   3.176   1.849 -0.5839 -2.6693  1.6394
  168MOL0     H22153  13.327   3.263   1.899 -1.9370  0.9955 -1.1083
  168MOL0     H22154  13.407   3.228   1.613  0.7005  1.6690 -1.6144
  168MOL0     H22155  13.251   3.310   1.665 -0.5693 -0.6809  0.2494
  168MOL0     H22156  13.529   3.416   1.713  0.5438  2.0378 -1.9497
  168MOL0     H22157  13.379   3.489   1.771 -0.8311 -1.3025  0.3673
  168MOL0     H22158  12.890   2.443   1.855  0.3996  0.3175 -1.0820
  168MOL0     H22159  12.676   2.335   1.845 -0.0794 -0.5569  2.6141
  168MOL0     H22160  12.229   2.215   1.654  1.4398  0.6452  0.4900
  168MOL0     H22161  11.995   2.147   1.715 -0.0173  0.9114 -1.7417
  168MOL0     H22162  10.135   2.378   2.059 -0.0830 -0.2825 -0.0033
  168MOL0     H22163   9.930   2.271   2.012 -0.2233  2.4321  0.2456
  168MOL0     H22164   9.632   1.879   2.226  1.1258  0.2887 -0.7694
  168MOL0     H22165   9.402   1.814   2.241 -0.8037  0.8262  0.5312
  168MOL0     H22166   9.160   1.797   2.236 -1.8822 -1.9476  0.4023
  168MOL0     H22167   9.228   1.682   2.132 -2.2692 -1.1404  3.1609
  168MOL0     H22168   8.964   1.817   2.057 -2.1565 -3.4835 -0.5573
  168MOL0     H22169   9.045   1.688   1.985 -0.4752  1.3977 -1.4837
  168MOL0     H22170   9.024   1.638   2.274 -1.3986 -3.8753  0.6288
  168MOL0     H22171   8.948   1.534   2.154  1.3000 -0.0133 -0.0069
  168MOL0     H22172   8.829   1.784   2.276  3.4015 -0.1737 -1.2385
  168MOL0     H22173   8.768   1.708   2.125 -1.0173  1.5671  0.2084
  168MOL0     H22174   8.635   1.415   2.379  1.9975 -0.6966 -0.0923
  168MOL0     H22175   9.313   2.026   1.889 -2.4383 -5.7667  0.8591
  168MOL0     H22176   9.531   2.103   1.867  0.5881 -1.5671 -1.0379
  169MOL0     O22177  10.294   6.071  10.488  0.3220  0.5150 -0.4048
  169MOL0     C22178  10.336   6.141  10.584 -0.0865 -0.1016  0.9037
  169MOL0     O22179  10.439   6.104  10.675  0.2843 -0.2736  0.2441
  169MOL0     C22180  10.518   5.996  10.640 -0.8375  0.0956  1.0365
  169MOL0     C22181  10.476   5.861  10.638 -0.0240 -0.8925  0.1216
  169MOL0     C22182  10.569   5.761  10.631 -0.4429 -1.3265 -0.1563
  169MOL0     C22183  10.700   5.787  10.626  0.1160  0.4938 -0.5393
  169MOL0     O22184  10.777   5.683  10.607 -1.1446 -0.3003  0.3400
  169MOL0     C22185  10.859   5.669  10.725 -0.3629  0.2906  0.1945
  169MOL0     C22186  10.939   5.540  10.728 -0.1871 -0.4463  0.3415
  169MOL0     C22187  11.071   5.551  10.635  0.3478 -0.8940 -0.6744
  169MOL0     C22188  11.127   5.408  10.597  0.0297 -0.2261  0.2152
  169MOL0     C22189  11.255   5.439  10.518  0.4051  0.5903  0.3968
  169MOL0     C22190  11.382   5.439  10.612  0.3536 -0.6782 -0.1310
  169MOL0     C22191  11.504   5.424  10.519  0.3706 -0.1349  0.1418
  169MOL0     C22192  11.624   5.486  10.573 -0.3739  0.0674  0.8215
  169MOL0     N22193  11.739   5.504  10.480 -0.5165 -0.3091  0.3741
  169MOL0     C22194  11.848   5.423  10.484 -0.0663  0.2712  0.0605
  169MOL0     C22195  11.936   5.483  10.396  0.3739 -0.0458  0.6675
  169MOL0     C22196  12.076   5.434  10.378  0.5903  0.3955  0.5220
  169MOL0     C22197  12.129   5.410  10.241 -0.6102 -0.5673 -0.9083
  169MOL0     C22198  12.281   5.433  10.233  0.8849  0.1770 -0.0261
  169MOL0     C22199  12.353   5.321  10.298  0.3007  0.1653 -0.5339
  169MOL0     O22200  12.489   5.362  10.305 -0.0231  0.8774  0.2778
  169MOL0     C22201  12.582   5.301  10.241 -0.2151 -0.2920 -0.0873
  169MOL0     C22202  12.573   5.293  10.104  0.3934  0.7454  0.3948
  169MOL0     C22203  12.675   5.232  10.029  0.5723 -0.0191 -0.1354
  169MOL0     C22204  12.788   5.175  10.091  0.2134 -0.9487  0.2542
  169MOL0     C22205  12.892   5.117  10.008  0.5696 -0.9208  1.1429
  169MOL0     O22206  12.879   5.112   9.875 -0.1204  0.2773 -0.0455
  169MOL0     C22207  12.969   5.033   9.811  0.2339  0.7002  0.7107
  169MOL0     C22208  12.987   4.895   9.839  0.3205  0.0632 -0.2425
  169MOL0     C22209  13.092   4.817   9.784  1.0160  0.4440  0.1327
  169MOL0     C22210  13.178   4.879   9.687 -0.4072  0.2945  0.1560
  169MOL0     O22211  13.289   4.827   9.617  0.3293  0.1413  0.7232
  169MOL0     C22212  13.349   4.705   9.670 -0.4481  0.8363  0.5560
  169MOL0     C22213  13.487   4.655   9.608  0.2075 -0.2243 -0.0698
  169MOL0     C22214  13.584   4.772   9.645 -0.4939 -0.3615  0.6745
  169MOL0     C22215  13.732   4.721   9.630 -0.4319  1.4800  0.4064
  169MOL0     C22216  13.833   4.795   9.709  0.2754 -0.7710  0.0459
  169MOL0     C22217  13.975   4.750   9.680 -1.0219 -0.0184  0.3731
  169MOL0     C22218  14.061   4.859   9.732 -0.2359  0.2863 -0.6231
  169MOL0     C22219  14.209   4.810   9.756 -0.1131 -0.0028 -0.0637
  169MOL0    Cl22220  14.313   4.953   9.809 -0.0683  0.0929  0.3200
  169MOL0     C22221  13.145   5.012   9.650  0.2688  1.0280  0.1351
  169MOL0     C22222  13.046   5.086   9.707  0.3182  0.1713  0.6246
  169MOL0     O22223  12.987   5.068  10.075 -0.2606  0.2159 -0.4020
  169MOL0     C22224  12.802   5.183  10.232 -0.3373 -0.3205  0.9542
  169MOL0     C22225  12.700   5.253  10.307  0.8773  0.6624 -0.2995
  169MOL0     N22226  11.875   5.600  10.358 -0.4901 -0.6387 -0.4153
  169MOL0     N22227  11.754   5.613  10.407 -0.1679  0.1652  0.1683
  169MOL0     C22228  10.755   5.911  10.637 -0.0998  0.3412 -0.1650
  169MOL0     C22229  10.663   6.013  10.651  0.3766  1.0069 -0.1284
  169MOL0     C22230  10.264   6.274  10.609  0.6521 -0.9114 -0.3682
  169MOL0     C22231  10.293   6.348  10.730  0.0077 -0.1099 -0.7661
  169MOL0     C22232  10.221   6.457  10.753  0.5335 -0.1444  0.8878
  169MOL0     C22233  10.143   6.529  10.659  0.2832  0.2487 -0.2607
  169MOL0     O22234  10.083   6.644  10.698 -0.0991 -0.7279 -0.4174
  169MOL0     C22235  10.110   6.763  10.620 -0.6363  0.0475 -0.0417
  169MOL0     C22236  10.062   6.893  10.676  0.3155 -1.0425 -0.5653
  169MOL0     C22237   9.911   6.884  10.691 -0.5130 -0.2027 -0.0816
  169MOL0     C22238   9.827   6.886  10.557 -0.4444  0.4807 -0.5036
  169MOL0     C22239   9.781   7.013  10.509 -0.3107 -0.0661 -0.4049
  169MOL0     C22240   9.737   7.122  10.470  0.2000  1.1520 -0.6642
  169MOL0     C22241  10.119   6.465  10.542  0.2694  0.4465  0.3274
  169MOL0     C22242  10.173   6.334  10.514  0.7829 -0.5667 -0.7790
  169MOL0     H22243  10.372   5.829  10.632 -0.4825  0.7754 -1.9057
  169MOL0     H22244  10.530   5.661  10.621  1.4443 -1.9602 -1.7856
  169MOL0     H22245  10.807   5.683  10.820  1.6501  0.0847  1.3594
  169MOL0     H22246  10.929   5.752  10.726 -2.2607  2.3740 -4.8810
  169MOL0     H22247  10.883   5.457  10.686  1.6545 -0.7148 -1.7576
  169MOL0     H22248  10.968   5.513  10.830  0.2605  2.3699  1.0428
  169MOL0     H22249  11.157   5.601  10.680 -1.2361  1.2192  0.1825
  169MOL0     H22250  11.044   5.610  10.547 -1.9928  0.6825  0.9572
  169MOL0     H22251  11.140   5.346  10.687 -2.8328  1.2676  1.7957
  169MOL0     H22252  11.054   5.353  10.538  2.5353 -1.4516 -1.9441
  169MOL0     H22253  11.256   5.533  10.464  0.7304 -0.3465 -1.2923
  169MOL0     H22254  11.251   5.359  10.443 -0.8834 -0.9895  2.0610
  169MOL0     H22255  11.372   5.353  10.680  1.1811 -1.9814 -1.6026
  169MOL0     H22256  11.390   5.533  10.667 -2.0666 -0.8279  0.5948
  169MOL0     H22257  11.509   5.316  10.504 -3.1020 -0.2074 -1.3988
  169MOL0     H22258  11.487   5.476  10.424 -2.4352  2.4712  1.8864
  169MOL0     H22259  11.667   5.439  10.662 -2.2282 -2.5504  0.4473
  169MOL0     H22260  11.590   5.587  10.596  2.1458  1.6686 -1.7538
  169MOL0     H22261  11.871   5.331  10.537 -1.2268  1.4195  2.7253
  169MOL0     H22262  12.102   5.358  10.453  0.0549  1.7773  2.1695
  169MOL0     H22263  12.130   5.518  10.421  0.8578 -0.7030  2.4649
  169MOL0     H22264  12.086   5.492  10.182  2.0584  0.0531 -2.0969
  169MOL0     H22265  12.107   5.313  10.197  3.0073 -2.0102  0.0843
  169MOL0     H22266  12.290   5.432  10.124  0.3593 -0.3366 -0.0683
  169MOL0     H22267  12.298   5.531  10.278 -0.4265 -1.2744  4.1201
  169MOL0     H22268  12.321   5.228  10.250 -0.5839  0.3124 -0.2652
  169MOL0     H22269  12.322   5.303  10.402  1.8709 -3.0357 -0.4939
  169MOL0     H22270  12.484   5.320  10.049 -0.5829 -1.0525  1.0067
  169MOL0     H22271  12.670   5.246   9.921  2.4205  0.0434 -0.2561
  169MOL0     H22272  12.922   4.849   9.912 -0.1024 -1.0808 -1.3125
  169MOL0     H22273  13.112   4.714   9.812  1.2884 -0.3382 -2.6837
  169MOL0     H22274  13.273   4.626   9.660 -1.9433  1.9356  2.5123
  169MOL0     H22275  13.371   4.714   9.777 -0.2895 -0.1566  0.6222
  169MOL0     H22276  13.489   4.647   9.499  1.1144 -2.2714  0.0432
  169MOL0     H22277  13.513   4.559   9.653 -1.2136  0.1045  1.5393
  169MOL0     H22278  13.557   4.807   9.745  1.0480 -0.1875  1.0520
  169MOL0     H22279  13.564   4.849   9.571 -3.0452 -1.3539  0.2367
  169MOL0     H22280  13.739   4.616   9.660 -1.2278  1.3575  0.1839
  169MOL0     H22281  13.760   4.720   9.524  2.2885  0.2912  1.0443
  169MOL0     H22282  13.797   4.787   9.812  0.2021 -0.7061  0.0256
  169MOL0     H22283  13.822   4.898   9.676  1.9596 -0.5690  0.0078
  169MOL0     H22284  13.985   4.728   9.573 -1.4017 -0.5166  0.4349
  169MOL0     H22285  13.997   4.661   9.741  2.0967  2.8581  3.9100
  169MOL0     H22286  14.061   4.939   9.657  2.1379  1.4425  0.5128
  169MOL0     H22287  14.028   4.892   9.831  2.9604 -1.6339  1.2218
  169MOL0     H22288  14.244   4.773   9.660 -1.1628  1.3224 -0.9968
  169MOL0     H22289  14.203   4.740   9.840 -0.4061  1.7660  1.4584
  169MOL0     H22290  13.205   5.053   9.569 -0.5243 -1.3699 -1.7819
  169MOL0     H22291  13.028   5.189   9.678  3.3717  0.9945  1.3337
  169MOL0     H22292  12.895   5.151  10.276  2.6527  3.1071 -2.1889
  169MOL0     H22293  12.706   5.266  10.415  1.3117 -0.3930 -0.1825
  169MOL0     H22294  10.861   5.933  10.638  0.1256 -0.6805 -0.1936
  169MOL0     H22295  10.699   6.113  10.670  2.2977  0.1495  1.0332
  169MOL0     H22296  10.353   6.296  10.804 -0.5114 -2.1658 -1.7101
  169MOL0     H22297  10.236   6.514  10.845  1.1104 -0.9246  1.2914
  169MOL0     H22298  10.062   6.738  10.525  0.9977 -1.1789 -0.5894
  169MOL0     H22299  10.217   6.784  10.609  0.0802 -3.2759 -0.5962
  169MOL0     H22300  10.115   6.921  10.767 -2.8131 -1.0820  1.4228
  169MOL0     H22301  10.087   6.973  10.605 -0.6951 -0.4914 -0.3168
  169MOL0     H22302   9.884   6.972  10.750 -0.0255 -0.1600  0.0865
  169MOL0     H22303   9.890   6.792  10.746 -2.1642  0.3264  0.2212
  169MOL0     H22304   9.881   6.835  10.477 -0.6271  0.8526 -0.8635
  169MOL0     H22305   9.741   6.830  10.595 -0.9359  2.2557  1.1406
  169MOL0     H22306   9.712   7.217  10.430  1.7667  1.0063 -2.1100
  169MOL0     H22307  10.051   6.505  10.468 -0.8420  1.1630  1.6719
  169MOL0     H22308  10.158   6.284  10.419  0.7006  2.2478 -2.3412
  170MOL0     O22309   4.006   9.408   8.577 -0.3854 -0.3138 -0.4118
  170MOL0     C22310   4.091   9.322   8.605 -0.3958  0.1943  0.3957
  170MOL0     O22311   4.131   9.284   8.728 -0.1835  0.0849  1.1106
  170MOL0     C22312   4.093   9.348   8.841 -0.2517 -0.3315 -0.2533
  170MOL0     C22313   4.067   9.275   8.951 -0.8242  0.1085 -0.2139
  170MOL0     C22314   4.037   9.338   9.077 -0.5518 -0.4998  0.6207
  170MOL0     C22315   4.013   9.479   9.089 -0.2101  0.2335 -0.0083
  170MOL0     O22316   3.983   9.542   9.205  0.3898  0.0691 -0.8728
  170MOL0     C22317   3.996   9.475   9.331 -0.4823 -0.0695 -0.5342
  170MOL0     C22318   3.880   9.527   9.428 -0.0084 -0.2709  0.5679
  170MOL0     C22319   3.752   9.451   9.391  0.5425  0.1380  0.1862
  170MOL0     C22320   3.629   9.497   9.464 -0.2314 -0.3406 -0.2654
  170MOL0     C22321   3.579   9.641   9.445 -0.0518  0.0203  0.8790
  170MOL0     C22322   3.438   9.655   9.496  0.6388 -0.1217  0.1584
  170MOL0     C22323   3.382   9.789   9.455  0.2976 -0.1627  0.2010
  170MOL0     C22324   3.234   9.812   9.495 -0.2202 -0.4520  0.2449
  170MOL0     N22325   3.171   9.926   9.422 -0.5864 -0.8556  0.2943
  170MOL0     C22326   3.057   9.993   9.469  0.0465  0.0121  0.4840
  170MOL0     C22327   3.046  10.094   9.384 -0.7866 -0.3315  0.1643
  170MOL0     C22328   2.933  10.196   9.380  0.0415  0.0175 -0.5039
  170MOL0     C22329   2.839  10.149   9.260  0.4457  0.6212  0.2634
  170MOL0     C22330   2.711  10.242   9.248 -0.3580  0.0157  1.2442
  170MOL0     C22331   2.733  10.394   9.272  0.6881 -0.0297  0.2452
  170MOL0     O22332   2.633  10.464   9.194  0.6167  0.2173 -0.4465
  170MOL0     C22333   2.508  10.507   9.242 -0.3686  1.2154 -0.0810
  170MOL0     C22334   2.444  10.595   9.163  1.0803  0.1213 -0.4856
  170MOL0     C22335   2.317  10.633   9.195 -0.2265 -0.7037 -0.5481
  170MOL0     C22336   2.259  10.596   9.315  0.5985 -0.4653 -0.3022
  170MOL0     C22337   2.122  10.650   9.351 -0.5495  0.3414 -0.5457
  170MOL0     O22338   2.079  10.632   9.481 -0.3504  0.2929  0.5017
  170MOL0     C22339   1.936  10.630   9.482  0.0982  0.1841  0.1839
  170MOL0     C22340   1.862  10.525   9.435 -0.1522  0.2954  0.0764
  170MOL0     C22341   1.727  10.505   9.462 -1.2610  0.1850  0.0607
  170MOL0     C22342   1.658  10.590   9.545  0.5727  0.2956  0.9734
  170MOL0     O22343   1.517  10.574   9.556  0.0941 -0.0271 -0.2521
  170MOL0     C22344   1.447  10.652   9.662 -0.1208  1.1669  0.7648
  170MOL0     C22345   1.298  10.615   9.664 -0.6068  0.3338  0.2953
  170MOL0     C22346   1.253  10.469   9.705 -0.1412  0.7422  0.3866
  170MOL0     C22347   1.100  10.463   9.708 -0.0113  0.1378 -0.8743
  170MOL0     C22348   1.041  10.456   9.562 -0.6813  0.4060  0.0611
  170MOL0     C22349   0.923  10.363   9.541  0.6678 -0.6501 -1.0755
  170MOL0     C22350   0.799  10.406   9.619  0.4493 -0.3951 -0.0741
  170MOL0     C22351   0.693  10.299   9.590 -0.7957 -0.3883  0.4563
  170MOL0    Cl22352   0.646  10.306   9.419 -0.5114  0.0038 -0.4398
  170MOL0     C22353   1.735  10.695   9.600  0.1169 -0.7654 -0.1792
  170MOL0     C22354   1.869  10.720   9.563 -0.2506  0.8413 -0.3444
  170MOL0     O22355   2.057  10.700   9.257  0.4370  0.1741 -0.4041
  170MOL0     C22356   2.319  10.496   9.396 -0.4697 -0.1741  0.2251
  170MOL0     C22357   2.452  10.447   9.352  0.2653  0.4620  0.6016
  170MOL0     N22358   3.154  10.087   9.294  0.3384  0.1216  0.0504
  170MOL0     N22359   3.236   9.993   9.323  0.2723 -0.6297  0.7471
  170MOL0     C22360   4.037   9.550   8.976 -0.0707 -0.5526 -0.1035
  170MOL0     C22361   4.075   9.486   8.861 -0.5338 -0.3401  0.8686
  170MOL0     C22362   4.155   9.258   8.494  0.2326  0.3891 -0.7847
  170MOL0     C22363   4.281   9.205   8.518 -0.8779  0.2115 -0.0523
  170MOL0     C22364   4.351   9.134   8.418 -0.8851 -0.2541 -0.9727
  170MOL0     C22365   4.299   9.125   8.289 -0.2370 -0.5275  0.0993
  170MOL0     O22366   4.357   9.063   8.183 -1.2396 -0.1963  0.1411
  170MOL0     C22367   4.476   8.982   8.205  0.2768 -0.4122 -0.2546
  170MOL0     C22368   4.534   8.957   8.063  0.5398  0.3544 -0.6377
  170MOL0     C22369   4.447   8.870   7.968  0.0983  1.3638 -0.6109
  170MOL0     C22370   4.548   8.803   7.879  0.2757 -0.5663  0.8285
  170MOL0     C22371   4.583   8.672   7.933  0.0501 -0.0521  0.1047
  170MOL0     C22372   4.597   8.557   7.973  0.7759 -0.5319 -0.2911
  170MOL0     C22373   4.172   9.192   8.261  1.2251 -0.6318 -0.0907
  170MOL0     C22374   4.098   9.251   8.363  0.1369 -0.4240 -0.4897
  170MOL0     H22375   4.070   9.166   8.944 -0.1876  0.0224  1.1495
  170MOL0     H22376   4.010   9.280   9.165  0.4360 -0.6443  0.8352
  170MOL0     H22377   4.097   9.493   9.370 -1.3911  1.6694  1.1708
  170MOL0     H22378   3.984   9.367   9.325  2.2959 -0.3869 -2.7024
  170MOL0     H22379   3.866   9.635   9.420  2.1316  0.5047  4.5548
  170MOL0     H22380   3.906   9.513   9.533  0.3860 -2.2711  0.2331
  170MOL0     H22381   3.767   9.345   9.411 -2.2652 -0.4334 -0.3630
  170MOL0     H22382   3.742   9.458   9.282  2.9147 -1.0421 -0.1752
  170MOL0     H22383   3.547   9.426   9.454 -1.1311  0.6237 -0.0164
  170MOL0     H22384   3.648   9.496   9.572  0.7500 -1.1574 -0.4412
  170MOL0     H22385   3.583   9.653   9.336  0.2888 -1.0037  0.7643
  170MOL0     H22386   3.648   9.710   9.494 -2.3829  2.0143  1.5623
  170MOL0     H22387   3.446   9.640   9.604  0.8680 -1.7161 -0.0624
  170MOL0     H22388   3.381   9.568   9.463  0.6527 -0.0175 -0.1440
  170MOL0     H22389   3.444   9.868   9.500  0.7608 -0.3055 -0.1827
  170MOL0     H22390   3.393   9.793   9.347 -0.0186 -0.1188  0.1710
  170MOL0     H22391   3.230   9.817   9.604  1.3760  2.1570  0.2890
  170MOL0     H22392   3.166   9.730   9.470  0.4633 -2.1735  3.4289
  170MOL0     H22393   2.995   9.968   9.554 -1.2768  0.6952 -0.2530
  170MOL0     H22394   2.967  10.300   9.376 -1.9506  0.7657  0.8225
  170MOL0     H22395   2.885  10.184   9.477  0.3195 -0.5211 -0.4312
  170MOL0     H22396   2.807  10.044   9.267 -1.0772  0.9670 -1.0198
  170MOL0     H22397   2.894  10.153   9.166 -2.4875  0.6575 -1.5812
  170MOL0     H22398   2.673  10.240   9.146  0.5327  2.9324  0.7719
  170MOL0     H22399   2.634  10.215   9.321 -1.1208 -3.0328 -0.4802
  170MOL0     H22400   2.826  10.436   9.231 -1.5105  1.7220 -3.5342
  170MOL0     H22401   2.728  10.427   9.376  0.8789  1.1300 -0.0913
  170MOL0     H22402   2.512  10.636   9.089 -0.3269  2.5021 -0.5856
  170MOL0     H22403   2.261  10.700   9.131  0.9152  2.2086  1.3139
  170MOL0     H22404   1.917  10.464   9.364 -0.6008  4.2345 -4.1560
  170MOL0     H22405   1.666  10.425   9.420 -0.3556 -2.8457  3.9007
  170MOL0     H22406   1.449  10.760   9.644  1.1878  1.2180  1.1490
  170MOL0     H22407   1.498  10.647   9.758  1.1088 -0.4371  0.0591
  170MOL0     H22408   1.270  10.626   9.559 -0.0004  1.0778  0.2051
  170MOL0     H22409   1.247  10.685   9.730  1.8461  1.1246  1.4753
  170MOL0     H22410   1.295  10.470   9.806  3.7667  3.1505 -1.0187
  170MOL0     H22411   1.286  10.379   9.654 -2.8218 -1.0164  1.5290
  170MOL0     H22412   1.076  10.370   9.761 -0.3313  1.6583  1.8108
  170MOL0     H22413   1.057  10.542   9.770 -1.4902 -1.4954  0.2569
  170MOL0     H22414   1.117  10.411   9.498 -1.2262 -0.2095 -0.1721
  170MOL0     H22415   1.036  10.559   9.527  1.4741  0.2442 -0.8514
  170MOL0     H22416   0.945  10.261   9.574 -1.1148 -0.7679 -0.1102
  170MOL0     H22417   0.890  10.362   9.437 -0.3222  2.5559 -0.9020
  170MOL0     H22418   0.820  10.402   9.726 -0.3672 -0.2406  0.0973
  170MOL0     H22419   0.762  10.505   9.591 -0.6191 -1.1881 -1.5796
  170MOL0     H22420   0.598  10.299   9.646 -2.6201 -2.8527 -2.3405
  170MOL0     H22421   0.735  10.201   9.615 -0.5305 -0.5391 -0.5451
  170MOL0     H22422   1.703  10.776   9.665  2.4191  0.4788 -0.4571
  170MOL0     H22423   1.930  10.802   9.601 -0.7585  0.8261  0.5440
  170MOL0     H22424   2.265  10.444   9.474 -0.9747 -3.6094 -2.1641
  170MOL0     H22425   2.498  10.371   9.415 -0.6273 -0.4886  0.1218
  170MOL0     H22426   4.033   9.658   8.969  1.8916 -0.4423 -0.0428
  170MOL0     H22427   4.099   9.550   8.776 -1.3804 -1.6458 -0.4134
  170MOL0     H22428   4.329   9.217   8.615  0.0193 -0.8453 -0.3394
  170MOL0     H22429   4.449   9.096   8.444 -0.9123 -0.2531 -0.8663
  170MOL0     H22430   4.450   8.888   8.255  2.9888 -1.7812 -1.2260
  170MOL0     H22431   4.554   9.032   8.262 -0.3543  1.7681 -1.1971
  170MOL0     H22432   4.570   9.044   8.007  0.5861  0.3958 -0.5445
  170MOL0     H22433   4.622   8.894   8.072 -1.0455 -2.0414 -1.0783
  170MOL0     H22434   4.383   8.928   7.900  0.4346 -1.0537 -3.2033
  170MOL0     H22435   4.387   8.794   8.020  2.1611 -1.5074 -2.1591
  170MOL0     H22436   4.495   8.778   7.787  0.0569  0.1008  0.7716
  170MOL0     H22437   4.632   8.863   7.845 -0.0246 -1.9686 -2.8060
  170MOL0     H22438   4.613   8.453   7.988 -0.3652 -0.5306  1.1777
  170MOL0     H22439   4.133   9.187   8.160 -2.0976  0.3429  1.0163
  170MOL0     H22440   3.998   9.291   8.347 -0.4133 -1.7644 -0.5456
  171MOL0     O22441   6.506   1.003   6.650 -0.1595 -0.4105  0.2763
  171MOL0     C22442   6.461   0.906   6.588 -0.5992 -0.1381  0.8533
  171MOL0     O22443   6.329   0.891   6.557 -0.2853 -0.7695  1.5494
  171MOL0     C22444   6.230   0.984   6.570  0.5548 -0.8955 -0.3862
  171MOL0     C22445   6.182   1.009   6.694  0.1112  0.3475 -0.0071
  171MOL0     C22446   6.089   1.111   6.710  0.6453  0.2981 -0.6553
  171MOL0     C22447   6.037   1.190   6.599 -0.0758  0.4759 -0.3745
  171MOL0     O22448   5.946   1.295   6.614  0.8895  0.2678  0.1226
  171MOL0     C22449   5.896   1.336   6.748 -0.6237 -0.0892  0.4578
  171MOL0     C22450   5.825   1.469   6.718  0.0389  0.3409  0.2646
  171MOL0     C22451   5.793   1.545   6.847 -0.2856 -0.0755 -0.0911
  171MOL0     C22452   5.747   1.683   6.797  0.3514  1.5041  0.1493
  171MOL0     C22453   5.722   1.784   6.906  0.5329 -0.6265  0.3476
  171MOL0     C22454   5.594   1.759   6.985 -0.3165  0.4605 -0.9225
  171MOL0     C22455   5.533   1.890   7.022  0.5807  0.3715 -0.2504
  171MOL0     C22456   5.411   1.866   7.121 -0.1536  0.7108 -0.2554
  171MOL0     N22457   5.278   1.837   7.051 -0.0909 -0.2102 -0.0735
  171MOL0     C22458   5.160   1.879   7.103  0.7576 -0.2512 -0.3156
  171MOL0     C22459   5.057   1.822   7.035  0.0338 -1.3262  0.1400
  171MOL0     C22460   4.917   1.834   7.068 -0.4805 -0.3873  0.5975
  171MOL0     C22461   4.852   1.961   7.004 -0.5769  0.1107  0.4876
  171MOL0     C22462   4.863   1.964   6.849  0.9858 -0.6714  0.4718
  171MOL0     C22463   4.798   1.846   6.780  0.3575  0.1425 -0.2745
  171MOL0     O22464   4.658   1.880   6.796  0.0194  0.9635  0.0669
  171MOL0     C22465   4.565   1.822   6.711 -0.4889 -0.2338 -0.1439
  171MOL0     C22466   4.569   1.690   6.662 -0.1927 -0.3369  0.0352
  171MOL0     C22467   4.472   1.641   6.577 -0.4790  0.0652  1.0113
  171MOL0     C22468   4.367   1.717   6.527 -0.1336 -0.1205 -0.6876
  171MOL0     C22469   4.269   1.651   6.445  0.4876 -0.3637 -1.2510
  171MOL0     O22470   4.200   1.743   6.376  0.7468 -0.2147  0.5171
  171MOL0     C22471   4.092   1.710   6.289  0.6111  0.0316 -1.0940
  171MOL0     C22472   4.088   1.595   6.216  0.8837 -0.0763  0.3957
  171MOL0     C22473   3.997   1.578   6.109 -0.4064  0.0527  1.1612
  171MOL0     C22474   3.901   1.677   6.082  0.3053  1.0336  0.3308
  171MOL0     O22475   3.805   1.676   5.986  1.1735 -0.7276 -0.0083
  171MOL0     C22476   3.805   1.577   5.880  1.2257  0.3403 -0.2104
  171MOL0     C22477   3.697   1.616   5.786 -0.7857  0.0961  0.5232
  171MOL0     C22478   3.553   1.619   5.840 -0.1347  0.4692 -0.5809
  171MOL0     C22479   3.463   1.658   5.720 -0.2159 -0.8304  1.2339
  171MOL0     C22480   3.315   1.659   5.755 -0.2928  0.4420 -0.6230
  171MOL0     C22481   3.218   1.661   5.644 -0.7723  0.2090  0.7557
  171MOL0     C22482   3.087   1.701   5.693  0.3139  0.3777  0.5698
  171MOL0     C22483   3.003   1.771   5.575 -0.3582 -0.1753  0.1222
  171MOL0    Cl22484   2.840   1.763   5.638  0.2550 -0.0839  0.6646
  171MOL0     C22485   3.895   1.784   6.178 -0.1604  0.5392  0.8649
  171MOL0     C22486   3.982   1.798   6.283  0.2577  0.1979  0.2587
  171MOL0     O22487   4.267   1.528   6.442  0.6314  0.1737  0.3728
  171MOL0     C22488   4.356   1.848   6.587  0.4031 -0.8271  0.6939
  171MOL0     C22489   4.451   1.892   6.669 -0.3411 -0.6155 -0.4722
  171MOL0     N22490   5.114   1.746   6.934 -1.1399  0.0084  0.0910
  171MOL0     N22491   5.246   1.759   6.943 -0.5062  0.4812  0.7273
  171MOL0     C22492   6.075   1.153   6.474  0.6503 -0.9830 -0.1693
  171MOL0     C22493   6.167   1.043   6.457 -0.5183 -0.0648 -0.8908
  171MOL0     C22494   6.558   0.798   6.562  0.2228 -0.9362  1.0960
  171MOL0     C22495   6.512   0.666   6.526  0.5401  0.8934 -0.1442
  171MOL0     C22496   6.598   0.562   6.522 -0.4069  1.0101  0.3815
  171MOL0     C22497   6.741   0.576   6.540  0.1590 -0.1591  0.9441
  171MOL0     O22498   6.821   0.464   6.543 -0.1556  0.5476 -0.8624
  171MOL0     C22499   6.960   0.477   6.510 -0.2960  0.2572 -0.1508
  171MOL0     C22500   6.977   0.429   6.368  0.9595 -0.2132 -0.2755
  171MOL0     C22501   6.999   0.277   6.355 -0.4708 -0.4645 -0.1271
  171MOL0     C22502   6.876   0.188   6.364 -0.2248  0.2125 -0.1319
  171MOL0     C22503   6.777   0.199   6.257  0.9220 -0.0093  0.5600
  171MOL0     C22504   6.681   0.200   6.184  0.0112  0.5246 -0.5760
  171MOL0     C22505   6.779   0.704   6.568 -0.2343  0.3145 -0.3536
  171MOL0     C22506   6.692   0.809   6.583  0.9819 -0.3312 -0.6275
  171MOL0     H22507   6.206   0.943   6.777  0.3525 -0.8329 -0.9926
  171MOL0     H22508   6.055   1.120   6.812  2.4293  1.3008 -0.1206
  171MOL0     H22509   5.984   1.347   6.811  1.8088  0.3639 -2.7363
  171MOL0     H22510   5.826   1.265   6.793 -2.1570 -0.7603 -2.6722
  171MOL0     H22511   5.733   1.443   6.664  0.5747  0.6696 -0.8344
  171MOL0     H22512   5.893   1.522   6.651 -2.5036  0.9377 -2.0528
  171MOL0     H22513   5.882   1.549   6.910 -1.2129  0.0345  1.2589
  171MOL0     H22514   5.719   1.494   6.910 -1.6072 -0.6904 -2.0337
  171MOL0     H22515   5.829   1.719   6.735  1.0437 -0.8895 -0.4482
  171MOL0     H22516   5.655   1.669   6.740  1.3411  0.7381 -1.3322
  171MOL0     H22517   5.707   1.885   6.865 -1.5229 -0.3422  1.6326
  171MOL0     H22518   5.808   1.805   6.970  1.8130 -5.0164  0.3401
  171MOL0     H22519   5.622   1.702   7.074 -0.0633 -0.2275 -1.4366
  171MOL0     H22520   5.519   1.700   6.931  0.1021  2.1238 -3.4935
  171MOL0     H22521   5.611   1.950   7.070 -0.8771  2.1834 -0.0307
  171MOL0     H22522   5.505   1.940   6.929  0.1349 -0.2568 -0.4611
  171MOL0     H22523   5.400   1.952   7.188  1.8922 -1.5021  3.1940
  171MOL0     H22524   5.433   1.783   7.188  0.2873  2.1536  1.4537
  171MOL0     H22525   5.165   1.954   7.182  0.3195 -0.6221  0.0703
  171MOL0     H22526   4.886   1.823   7.172 -0.3864 -1.9658  0.4889
  171MOL0     H22527   4.864   1.743   7.039 -0.7377 -0.2173  0.5297
  171MOL0     H22528   4.909   2.041   7.053 -1.1312 -0.6612  2.4742
  171MOL0     H22529   4.747   1.978   7.028 -0.1685  0.0217  2.4552
  171MOL0     H22530   4.826   2.062   6.817 -1.0313 -0.4286  3.1995
  171MOL0     H22531   4.970   1.964   6.828  1.2153 -3.6847  1.2408
  171MOL0     H22532   4.815   1.752   6.832  2.9161  0.7500  0.1064
  171MOL0     H22533   4.829   1.829   6.677 -0.8240 -0.6502 -0.5140
  171MOL0     H22534   4.650   1.621   6.683 -2.0000 -3.4923 -2.3758
  171MOL0     H22535   4.499   1.552   6.521 -0.1148  2.1454 -2.4343
  171MOL0     H22536   4.162   1.516   6.218 -1.7838 -2.8238 -0.8238
  171MOL0     H22537   4.003   1.483   6.057 -1.6458 -0.9696  2.8141
  171MOL0     H22538   3.777   1.480   5.922  0.3711 -0.0509 -1.6007
  171MOL0     H22539   3.901   1.585   5.827  1.0099  1.3435 -0.4572
  171MOL0     H22540   3.701   1.531   5.716 -3.9371  0.5682 -0.3834
  171MOL0     H22541   3.720   1.715   5.748 -1.5923 -0.2612 -0.9590
  171MOL0     H22542   3.542   1.688   5.924 -0.4196  1.9472 -1.7956
  171MOL0     H22543   3.512   1.526   5.881 -3.4842  1.5777 -1.1061
  171MOL0     H22544   3.498   1.756   5.685 -3.6479 -0.3016 -1.3634
  171MOL0     H22545   3.479   1.602   5.627 -0.9898 -0.0506  0.6019
  171MOL0     H22546   3.314   1.750   5.815  0.8419 -0.2476  0.5234
  171MOL0     H22547   3.293   1.577   5.825 -1.0358  0.0723 -1.2756
  171MOL0     H22548   3.208   1.559   5.605  3.4426 -0.2752  0.3938
  171MOL0     H22549   3.237   1.737   5.568 -2.1522  0.1108  0.2817
  171MOL0     H22550   3.021   1.616   5.706 -0.0757 -0.1621 -3.4242
  171MOL0     H22551   3.096   1.763   5.782 -0.1196  1.6115 -0.2092
  171MOL0     H22552   3.006   1.710   5.484  1.6773 -1.8242  1.2200
  171MOL0     H22553   3.037   1.872   5.550  1.1006 -0.8878 -0.8631
  171MOL0     H22554   3.826   1.864   6.152 -1.2409 -1.3799 -3.0249
  171MOL0     H22555   3.976   1.879   6.355  0.9344 -0.3362  0.9285
  171MOL0     H22556   4.274   1.913   6.556  1.0592 -1.3740 -2.5451
  171MOL0     H22557   4.447   1.999   6.688  1.8856 -0.4289 -0.7707
  171MOL0     H22558   6.023   1.200   6.392  0.9312 -4.0641 -2.2754
  171MOL0     H22559   6.207   1.014   6.360  1.4767 -0.1438 -0.0775
  171MOL0     H22560   6.406   0.649   6.514  0.9728 -1.0443 -1.5355
  171MOL0     H22561   6.571   0.463   6.489  1.4512  0.1511  1.2661
  171MOL0     H22562   7.026   0.415   6.571 -1.8805 -2.0359 -0.6627
  171MOL0     H22563   6.998   0.580   6.513 -0.7905  0.5585 -2.4102
  171MOL0     H22564   6.888   0.452   6.310 -1.6949 -1.0177  3.1566
  171MOL0     H22565   7.067   0.481   6.334  0.3397 -0.3993 -2.2959
  171MOL0     H22566   7.088   0.264   6.418  0.7003 -0.5745 -1.7306
  171MOL0     H22567   7.048   0.254   6.260  0.1411  0.7455 -0.1294
  171MOL0     H22568   6.918   0.088   6.351 -3.0455 -1.2069  0.7492
  171MOL0     H22569   6.823   0.195   6.459 -1.1300 -1.7541 -0.4378
  171MOL0     H22570   6.588   0.220   6.136 -0.2816 -1.4532 -0.8910
  171MOL0     H22571   6.885   0.723   6.581 -0.1726  0.4206 -1.0134
  171MOL0     H22572   6.735   0.905   6.611 -1.8362  0.8608 -0.1042
  172MOL0     O22573   0.333   1.056   2.575  0.4159  1.3254 -0.4482
  172MOL0     C22574   0.314   1.156   2.509  0.8117  0.0281  0.3108
  172MOL0     O22575   0.406   1.220   2.438  0.3115  0.4147  0.2031
  172MOL0     C22576   0.538   1.181   2.425 -1.2486  0.9684  1.2718
  172MOL0     C22577   0.620   1.276   2.355  0.2331  0.2853 -0.8535
  172MOL0     C22578   0.757   1.262   2.348 -0.2393  0.1177  0.0663
  172MOL0     C22579   0.823   1.149   2.410 -0.5079  0.0825  0.6184
  172MOL0     O22580   0.958   1.131   2.392 -0.9495 -0.1112 -0.3697
  172MOL0     C22581   1.054   1.229   2.352  0.5160  0.0677  0.5042
  172MOL0     C22582   1.069   1.249   2.196 -0.3288  0.1125 -0.7944
  172MOL0     C22583   1.098   1.390   2.148 -0.1732 -0.1406 -0.2791
  172MOL0     C22584   1.133   1.400   1.995  0.6403 -0.4827  0.3935
  172MOL0     C22585   1.188   1.531   1.950  0.6432  0.0394  0.4957
  172MOL0     C22586   1.078   1.613   1.882 -0.0791  0.0842  0.0298
  172MOL0     C22587   0.985   1.689   1.968 -0.4148  0.5635 -0.7734
  172MOL0     C22588   0.886   1.758   1.880  0.4395 -0.3218  0.6203
  172MOL0     N22589   0.822   1.869   1.951  0.2298 -0.4514 -0.6391
  172MOL0     C22590   0.867   1.995   1.958  0.1286 -0.0558 -0.4848
  172MOL0     C22591   0.796   2.060   2.052  0.0718 -0.7464  0.7305
  172MOL0     C22592   0.805   2.210   2.083  0.7182  1.2382 -0.2004
  172MOL0     C22593   0.872   2.245   2.215 -0.4031 -0.5879  0.5557
  172MOL0     C22594   1.016   2.190   2.249  0.6354 -0.3255 -0.1392
  172MOL0     C22595   1.023   2.054   2.330  0.3080  0.3894  0.4134
  172MOL0     O22596   1.162   2.038   2.357 -0.5216 -0.3610 -0.5721
  172MOL0     C22597   1.200   1.912   2.384  0.5245 -0.2965 -0.8231
  172MOL0     C22598   1.223   1.874   2.518 -0.0904  0.5688  0.6471
  172MOL0     C22599   1.272   1.752   2.546 -0.4114  0.7505 -0.8238
  172MOL0     C22600   1.303   1.661   2.439  0.0409  0.1968 -0.0011
  172MOL0     C22601   1.353   1.520   2.470 -0.2017  0.0959 -0.3978
  172MOL0     O22602   1.416   1.450   2.368 -0.1746 -0.1280  0.1438
  172MOL0     C22603   1.455   1.319   2.377  0.4767  0.0453 -0.5808
  172MOL0     C22604   1.449   1.253   2.254 -0.3705  0.3076 -0.0015
  172MOL0     C22605   1.481   1.115   2.254  0.3547 -0.5075 -0.2117
  172MOL0     C22606   1.504   1.047   2.374 -0.5128 -0.2496  0.7535
  172MOL0     O22607   1.534   0.912   2.381 -0.1872 -0.8263 -0.2720
  172MOL0     C22608   1.595   0.858   2.263 -0.4893 -0.1461  0.0781
  172MOL0     C22609   1.667   0.725   2.300 -0.1562 -0.4854 -0.3986
  172MOL0     C22610   1.775   0.750   2.414  0.6452  0.3904 -0.0357
  172MOL0     C22611   1.877   0.640   2.444  0.0638 -0.1539  0.0630
  172MOL0     C22612   1.979   0.672   2.548 -0.3582 -0.3586 -0.1561
  172MOL0     C22613   2.098   0.750   2.498 -0.3525 -0.4541 -0.1583
  172MOL0     C22614   2.214   0.763   2.605 -0.0995  0.6865 -0.1691
  172MOL0     C22615   2.345   0.791   2.533  0.5169  0.2376 -0.1977
  172MOL0    Cl22616   2.410   0.640   2.467 -0.1778  0.3555  0.6098
  172MOL0     C22617   1.486   1.109   2.497  0.0967 -0.5726  0.9112
  172MOL0     C22618   1.466   1.243   2.500  0.7645 -0.4978  1.1628
  172MOL0     O22619   1.317   1.474   2.576 -0.5967 -0.1383 -0.0945
  172MOL0     C22620   1.266   1.696   2.314  0.7260 -0.5808  0.0652
  172MOL0     C22621   1.216   1.817   2.282  0.4679 -0.3527 -0.2584
  172MOL0     N22622   0.707   1.970   2.096 -0.1426 -0.0387 -1.0719
  172MOL0     N22623   0.712   1.862   2.030  0.2766 -0.4654  0.3806
  172MOL0     C22624   0.743   1.053   2.473 -0.3875  0.0379  0.8479
  172MOL0     C22625   0.603   1.070   2.484  0.2824 -0.6674  0.5713
  172MOL0     C22626   0.176   1.209   2.513  0.5316  0.5688 -0.1716
  172MOL0     C22627   0.153   1.345   2.482 -0.3973 -0.3387 -0.4636
  172MOL0     C22628   0.019   1.393   2.482 -0.5933  0.1424 -0.5050
  172MOL0     C22629  -0.092   1.317   2.508  0.8591  0.2409  1.0537
  172MOL0     O22630  -0.225   1.372   2.483  0.8183 -0.0392 -0.3382
  172MOL0     C22631  -0.331   1.311   2.560 -0.2581 -0.2686  0.1417
  172MOL0     C22632  -0.301   1.347   2.708 -0.8328  0.7861 -0.5707
  172MOL0     C22633  -0.399   1.272   2.800 -1.1626  0.3127  0.0061
  172MOL0     C22634  -0.537   1.337   2.773  0.2200  1.5249 -1.6190
  172MOL0     C22635  -0.630   1.295   2.874  0.3334  0.3311 -0.3811
  172MOL0     C22636  -0.694   1.242   2.968 -0.4477 -0.1396  0.4265
  172MOL0     C22637  -0.064   1.185   2.546 -0.2534 -0.1239 -0.0904
  172MOL0     C22638   0.065   1.131   2.547  0.4639  0.3837  0.4246
  172MOL0     H22639   0.567   1.366   2.325  1.1715  0.2429 -2.8130
  172MOL0     H22640   0.808   1.346   2.303  0.1182  0.0271  0.3031
  172MOL0     H22641   1.155   1.211   2.390  1.0245 -0.7007 -1.0929
  172MOL0     H22642   1.033   1.324   2.400 -2.7414 -0.8152  1.0790
  172MOL0     H22643   0.973   1.214   2.156 -0.1004 -1.9562  0.3215
  172MOL0     H22644   1.141   1.178   2.156  0.3251  0.7149 -0.6951
  172MOL0     H22645   1.189   1.414   2.204 -1.2556 -1.7807  2.3582
  172MOL0     H22646   1.025   1.465   2.179 -0.4674 -1.0071  1.2089
  172MOL0     H22647   1.209   1.321   1.993 -1.3214 -2.5321  1.9650
  172MOL0     H22648   1.048   1.362   1.937  1.1312  2.2251 -2.3557
  172MOL0     H22649   1.273   1.503   1.887  1.3168  2.1394  0.3798
  172MOL0     H22650   1.226   1.592   2.033  1.3610  2.3850 -1.4347
  172MOL0     H22651   1.016   1.558   1.810 -0.2558  0.9920 -0.5306
  172MOL0     H22652   1.128   1.690   1.824  2.7872 -1.2134  0.6073
  172MOL0     H22653   0.924   1.629   2.036 -0.8866 -1.0527 -2.5094
  172MOL0     H22654   1.027   1.771   2.027 -0.6585  0.4386 -0.4279
  172MOL0     H22655   0.814   1.691   1.833 -2.6109  2.5764  0.8329
  172MOL0     H22656   0.945   1.795   1.796 -1.0972 -0.5006 -0.5814
  172MOL0     H22657   0.947   2.035   1.897 -1.2401  1.0202 -1.6403
  172MOL0     H22658   0.711   2.266   2.081  0.6670  1.1859  0.4811
  172MOL0     H22659   0.871   2.255   2.009 -0.3507  2.1310 -0.6409
  172MOL0     H22660   0.802   2.231   2.298 -0.9815  3.1927  0.8849
  172MOL0     H22661   0.865   2.354   2.219 -2.2963 -0.6999  1.4972
  172MOL0     H22662   1.058   2.175   2.149 -1.9480  0.6119 -1.4516
  172MOL0     H22663   1.078   2.270   2.291  2.3210 -1.0056 -1.2254
  172MOL0     H22664   0.981   1.970   2.274  1.2100 -0.8523  1.5312
  172MOL0     H22665   0.974   2.058   2.428 -0.2903  0.3227  0.1157
  172MOL0     H22666   1.217   1.955   2.590  1.8102  0.1878  1.2930
  172MOL0     H22667   1.292   1.730   2.650 -0.0213 -0.6891 -1.1759
  172MOL0     H22668   1.428   1.305   2.161 -2.3249  1.9948  1.2857
  172MOL0     H22669   1.492   1.059   2.161  2.9946 -2.5234  1.1928
  172MOL0     H22670   1.661   0.934   2.221 -0.9033  0.0400 -0.2404
  172MOL0     H22671   1.516   0.852   2.188 -0.5036  0.7890  0.0109
  172MOL0     H22672   1.716   0.681   2.213 -0.9123  0.5889 -1.3978
  172MOL0     H22673   1.598   0.654   2.347  0.2935 -0.5376  0.1988
  172MOL0     H22674   1.706   0.777   2.495 -0.7656  1.5853 -1.5659
  172MOL0     H22675   1.837   0.837   2.391  1.9919 -0.8753 -1.4293
  172MOL0     H22676   1.829   0.551   2.484 -0.3630 -0.0494 -0.2067
  172MOL0     H22677   1.914   0.609   2.346 -1.2276  1.5345 -1.0223
  172MOL0     H22678   2.015   0.579   2.593 -0.6626 -0.7697 -0.7556
  172MOL0     H22679   1.936   0.743   2.620  0.4020  0.7151 -0.7270
  172MOL0     H22680   2.060   0.850   2.473 -3.0422 -1.3738 -0.1496
  172MOL0     H22681   2.139   0.703   2.408 -2.6730 -4.3130  0.5359
  172MOL0     H22682   2.192   0.842   2.678  0.7370 -0.6012  1.5589
  172MOL0     H22683   2.227   0.669   2.660  1.2522  1.2782  0.5965
  172MOL0     H22684   2.412   0.841   2.604 -0.5631 -0.5925  1.4535
  172MOL0     H22685   2.321   0.859   2.450  1.1701  0.2261 -0.4095
  172MOL0     H22686   1.490   1.054   2.591  1.3797 -0.8058  0.7415
  172MOL0     H22687   1.450   1.297   2.593 -0.7371  0.2967  0.4776
  172MOL0     H22688   1.289   1.619   2.241  1.8687  0.6204 -0.8848
  172MOL0     H22689   1.194   1.844   2.179 -1.5084  2.7721  0.8221
  172MOL0     H22690   0.793   0.968   2.518 -1.2042 -1.3238 -0.7053
  172MOL0     H22691   0.557   0.995   2.548  2.2782 -0.3531  2.5031
  172MOL0     H22692   0.236   1.411   2.460 -1.3232  0.4901 -1.6353
  172MOL0     H22693   0.006   1.496   2.449 -0.5432 -0.0079 -0.9937
  172MOL0     H22694  -0.345   1.204   2.544 -2.5088 -0.4222  2.3456
  172MOL0     H22695  -0.419   1.370   2.533  0.3011  0.3610 -0.3444
  172MOL0     H22696  -0.203   1.307   2.732 -0.5837  0.2221 -2.3838
  172MOL0     H22697  -0.294   1.452   2.738  1.1073  0.0962  1.7283
  172MOL0     H22698  -0.363   1.290   2.902 -0.5610 -0.7819 -0.0014
  172MOL0     H22699  -0.398   1.165   2.777 -2.9397  0.0747  0.8669
  172MOL0     H22700  -0.523   1.445   2.784 -0.0659  1.3260  1.4138
  172MOL0     H22701  -0.578   1.302   2.678  1.1972 -0.2466 -1.4146
  172MOL0     H22702  -0.742   1.184   3.044  0.8285  0.4418  1.7219
  172MOL0     H22703  -0.146   1.116   2.562 -0.2710 -0.6962 -2.3241
  172MOL0     H22704   0.076   1.025   2.570 -2.0449 -0.1790 -0.6354
  173MOL0     O22705   6.603   4.626  11.071 -0.8027  0.2268  0.3130
  173MOL0     C22706   6.498   4.654  11.018 -0.4778  0.1827 -1.0830
  173MOL0     O22707   6.429   4.582  10.928  0.2680  0.5053  0.5381
  173MOL0     C22708   6.503   4.501  10.844  0.4322  0.3260  0.7291
  173MOL0     C22709   6.474   4.517  10.707 -0.6891  0.0839  0.1595
  173MOL0     C22710   6.531   4.428  10.612 -0.1046 -0.0636 -0.2069
  173MOL0     C22711   6.622   4.332  10.645 -0.1765  0.1806 -0.3424
  173MOL0     O22712   6.683   4.248  10.556 -0.3512 -0.4111  0.1330
  173MOL0     C22713   6.640   4.234  10.419  0.2050 -1.2115 -0.5918
  173MOL0     C22714   6.730   4.133  10.353 -0.0948  1.3283 -0.3653
  173MOL0     C22715   6.743   3.988  10.415  0.6278 -0.7962 -0.1361
  173MOL0     C22716   6.838   3.903  10.344  0.3014  0.2788  0.9158
  173MOL0     C22717   6.901   3.795  10.421 -0.0997  0.4182 -0.5030
  173MOL0     C22718   6.799   3.700  10.496 -0.6813 -0.0396  0.3670
  173MOL0     C22719   6.850   3.569  10.541  0.3066  0.4910  0.1204
  173MOL0     C22720   6.980   3.590  10.628 -0.7978 -0.3259  0.4286
  173MOL0     N22721   7.100   3.592  10.538  0.9126 -0.4041  0.4708
  173MOL0     C22722   7.185   3.698  10.523  0.1697  0.5837 -0.8028
  173MOL0     C22723   7.278   3.655  10.435 -0.1453  0.5977 -0.1492
  173MOL0     C22724   7.413   3.715  10.390  0.9744  0.1256 -0.0334
  173MOL0     C22725   7.395   3.777  10.252 -0.3090 -0.6859  1.0007
  173MOL0     C22726   7.261   3.869  10.225  0.4568  0.0594 -1.1557
  173MOL0     C22727   7.276   3.917  10.084  0.7975 -0.6119 -0.5081
  173MOL0     O22728   7.149   3.960  10.045  0.0619  0.5170  0.2771
  173MOL0     C22729   7.107   4.083  10.064  0.5104 -0.7679  0.0315
  173MOL0     C22730   7.174   4.193  10.120  0.1322  0.9873 -0.6092
  173MOL0     C22731   7.118   4.311  10.128 -0.0815 -0.1952 -1.1469
  173MOL0     C22732   6.983   4.335  10.105 -0.5720 -0.5223  0.1108
  173MOL0     C22733   6.922   4.465  10.130  0.4779  1.0377 -0.8307
  173MOL0     O22734   6.789   4.486  10.097  0.0854  0.0794 -0.3549
  173MOL0     C22735   6.731   4.595  10.154  0.4715 -0.2843 -0.2492
  173MOL0     C22736   6.789   4.721  10.177 -0.5236  0.4076 -0.0979
  173MOL0     C22737   6.713   4.821  10.238 -0.6614  0.2245 -0.0751
  173MOL0     C22738   6.583   4.787  10.287  0.2897  0.6174 -0.9330
  173MOL0     O22739   6.495   4.867  10.351 -0.5350  0.0074 -0.0171
  173MOL0     C22740   6.538   5.000  10.370  0.2786  1.0526  0.5133
  173MOL0     C22741   6.428   5.098  10.384  0.4058 -0.6689 -0.0031
  173MOL0     C22742   6.474   5.252  10.371  0.4066 -0.1346 -0.2221
  173MOL0     C22743   6.521   5.281  10.237  0.0377  0.7887  0.4203
  173MOL0     C22744   6.557   5.434  10.231  0.1361 -0.1487  0.1479
  173MOL0     C22745   6.608   5.471  10.098 -0.2087 -0.1737  0.4224
  173MOL0     C22746   6.510   5.495   9.987 -0.9757  0.0601  1.0629
  173MOL0     C22747   6.585   5.556   9.863 -1.3250  0.1561 -0.1270
  173MOL0    Cl22748   6.707   5.427   9.808  0.1057 -0.0706  0.4554
  173MOL0     C22749   6.530   4.662  10.270 -0.8029  0.0645 -0.0932
  173MOL0     C22750   6.608   4.570  10.206 -0.1193  0.4749 -0.2972
  173MOL0     O22751   7.003   4.552  10.179  0.3454 -0.1687  0.0208
  173MOL0     C22752   6.911   4.235  10.048 -0.0804  0.8116 -0.6292
  173MOL0     C22753   6.967   4.106  10.025 -0.7565 -0.6325  1.1560
  173MOL0     N22754   7.237   3.531  10.387  0.4831  1.4670 -0.1919
  173MOL0     N22755   7.128   3.496  10.440 -0.2956 -0.0727  0.3101
  173MOL0     C22756   6.649   4.312  10.782  0.3259  0.1290  0.4270
  173MOL0     C22757   6.592   4.397  10.874  0.1750 -0.0416  0.8893
  173MOL0     C22758   6.433   4.783  11.068 -0.4198 -0.0689 -0.0131
  173MOL0     C22759   6.513   4.874  11.139  0.8588  0.7574 -0.6088
  173MOL0     C22760   6.456   4.982  11.200  0.2958  0.4459 -0.4088
  173MOL0     C22761   6.322   5.017  11.175 -0.7683 -0.5794 -0.1202
  173MOL0     O22762   6.268   5.127  11.239  0.9125 -0.4452 -0.0652
  173MOL0     C22763   6.296   5.248  11.181 -1.2814 -0.0603 -0.1009
  173MOL0     C22764   6.198   5.358  11.219 -0.4599  0.7651  0.7000
  173MOL0     C22765   6.082   5.355  11.118 -0.2690 -0.0888  0.5179
  173MOL0     C22766   6.002   5.486  11.149  0.5122 -0.5043  0.4220
  173MOL0     C22767   6.072   5.600  11.117  0.4070 -0.6237  0.1239
  173MOL0     C22768   6.139   5.696  11.082 -0.3979 -0.3130 -0.4234
  173MOL0     C22769   6.240   4.935  11.104 -0.4322  0.4106 -0.5378
  173MOL0     C22770   6.298   4.816  11.042  0.8207 -0.5601 -1.0791
  173MOL0     H22771   6.404   4.593  10.673 -2.7421 -2.2348 -1.1418
  173MOL0     H22772   6.494   4.444  10.511  0.5024 -3.2480 -1.0392
  173MOL0     H22773   6.643   4.336  10.377 -0.9249 -0.2210  1.5776
  173MOL0     H22774   6.540   4.189  10.412  0.5917 -2.6615  2.2209
  173MOL0     H22775   6.834   4.166  10.345  0.3607 -0.2342 -1.3921
  173MOL0     H22776   6.690   4.120  10.252 -3.4171 -1.7347  1.1637
  173MOL0     H22777   6.641   3.949  10.411  0.4045 -0.1223 -1.7121
  173MOL0     H22778   6.777   4.011  10.516  0.1740  1.6987 -0.4866
  173MOL0     H22779   6.806   3.859  10.250  2.7616  0.6591 -0.1796
  173MOL0     H22780   6.920   3.970  10.315  0.7000 -0.2830  0.7246
  173MOL0     H22781   6.967   3.838  10.498 -1.7813  1.0937  0.6046
  173MOL0     H22782   6.964   3.738  10.352  0.7511  1.1989 -0.4065
  173MOL0     H22783   6.713   3.692  10.428  1.0678  0.1848 -1.9954
  173MOL0     H22784   6.759   3.752  10.584 -1.6060  1.9751 -1.1553
  173MOL0     H22785   6.771   3.519  10.598  0.1233 -0.5177 -0.9860
  173MOL0     H22786   6.881   3.509  10.455 -1.0701  0.0864 -0.1240
  173MOL0     H22787   6.981   3.500  10.691 -1.7138 -0.8809 -0.3258
  173MOL0     H22788   6.989   3.683  10.685  1.0175  0.4772 -1.0648
  173MOL0     H22789   7.176   3.800  10.559  1.5137  0.8594 -1.1835
  173MOL0     H22790   7.490   3.637  10.385  1.7796  0.8828  0.2443
  173MOL0     H22791   7.436   3.788  10.468  2.9083  0.0698 -0.4975
  173MOL0     H22792   7.408   3.693  10.183 -0.4263  0.2144 -0.1501
  173MOL0     H22793   7.476   3.849  10.235 -1.0691 -0.1804 -0.6916
  173MOL0     H22794   7.174   3.808  10.252  0.2994  0.1778 -1.3964
  173MOL0     H22795   7.242   3.956  10.289 -1.9334 -1.8133  0.8998
  173MOL0     H22796   7.277   3.830  10.019 -2.8684 -0.2947 -1.1704
  173MOL0     H22797   7.364   3.978  10.061 -1.2115  1.7593 -2.5179
  173MOL0     H22798   7.277   4.174  10.150  0.4801  3.8118  0.2666
  173MOL0     H22799   7.176   4.389  10.177  1.3219 -2.2428  0.6162
  173MOL0     H22800   6.885   4.747  10.131  0.7587 -0.7692  1.7909
  173MOL0     H22801   6.744   4.925  10.227  0.5107 -0.0372  0.5544
  173MOL0     H22802   6.602   5.040  10.291 -0.3110  1.8029  0.3945
  173MOL0     H22803   6.591   5.001  10.465  0.2116  0.2670  0.5645
  173MOL0     H22804   6.392   5.075  10.485  0.4067 -3.6185 -0.5747
  173MOL0     H22805   6.349   5.083  10.309  0.8466  2.5420 -1.2520
  173MOL0     H22806   6.556   5.268  10.441  2.9487  2.0512 -3.4036
  173MOL0     H22807   6.389   5.316  10.395 -0.4427 -0.4792 -2.1452
  173MOL0     H22808   6.605   5.217  10.207 -0.7173  0.0430 -0.1720
  173MOL0     H22809   6.442   5.264  10.163 -0.0825 -0.4398  0.8049
  173MOL0     H22810   6.644   5.453  10.294  0.5681 -1.1822 -0.1228
  173MOL0     H22811   6.475   5.502  10.258  0.8724  1.6712 -1.9342
  173MOL0     H22812   6.682   5.394  10.072  0.9071 -0.2954  3.5611
  173MOL0     H22813   6.658   5.567  10.111  1.0409 -0.2461 -2.7840
  173MOL0     H22814   6.456   5.404   9.961  0.8608 -0.3423 -1.7781
  173MOL0     H22815   6.438   5.568  10.026  1.3643  1.2233  3.5676
  173MOL0     H22816   6.637   5.648   9.892 -2.2234  0.7319 -0.3063
  173MOL0     H22817   6.523   5.593   9.781  1.7286  0.1492 -2.6417
  173MOL0     H22818   6.435   4.640  10.317 -0.8083 -1.1451 -0.6172
  173MOL0     H22819   6.558   4.476  10.184 -1.4474  0.8933  0.7937
  173MOL0     H22820   6.810   4.258  10.014 -0.0511  2.3965  0.2850
  173MOL0     H22821   6.908   4.024   9.985  0.0648  0.0472 -1.6604
  173MOL0     H22822   6.718   4.232  10.808 -0.4125 -0.8179 -0.4345
  173MOL0     H22823   6.609   4.367  10.977 -0.2469  0.0298  0.9819
  173MOL0     H22824   6.614   4.843  11.164 -0.0726 -2.1366 -0.0239
  173MOL0     H22825   6.529   5.046  11.250  0.7031  0.6039 -1.1888
  173MOL0     H22826   6.319   5.240  11.074  0.8470 -2.4853  0.4429
  173MOL0     H22827   6.396   5.278  11.213  0.1351 -1.8743 -2.4370
  173MOL0     H22828   6.156   5.338  11.318 -1.5997 -1.0489 -0.0928
  173MOL0     H22829   6.260   5.447  11.205  0.2223  0.0134 -1.5372
  173MOL0     H22830   6.020   5.266  11.129 -0.5752  0.1222  0.5059
  173MOL0     H22831   6.109   5.358  11.012 -0.5972 -2.7580  0.2868
  173MOL0     H22832   5.923   5.489  11.073 -2.1626 -2.3318  2.9426
  173MOL0     H22833   5.949   5.483  11.244 -1.1012 -3.7996 -0.4276
  173MOL0     H22834   6.199   5.782  11.058  0.4462 -0.7468  0.0830
  173MOL0     H22835   6.137   4.964  11.090 -1.0552 -0.7302  1.3465
  173MOL0     H22836   6.248   4.741  10.983  1.7453 -2.4864  0.4341
  174MOL0     O22837   5.451   2.678   4.640 -0.3176 -0.9334  0.7765
  174MOL0     C22838   5.476   2.776   4.708  0.2276 -0.7121  0.2818
  174MOL0     O22839   5.385   2.855   4.776  0.0823 -0.4738 -0.6865
  174MOL0     C22840   5.250   2.820   4.776 -0.9198  0.0087  1.3243
  174MOL0     C22841   5.181   2.817   4.898  0.2191  0.5290 -0.1641
  174MOL0     C22842   5.042   2.789   4.907  0.1782  0.3423  0.1222
  174MOL0     C22843   4.972   2.737   4.799 -0.5288  0.4540 -0.0791
  174MOL0     O22844   4.841   2.703   4.818  0.5739  0.8978  0.4632
  174MOL0     C22845   4.753   2.719   4.703 -0.0577 -0.8540 -1.2272
  174MOL0     C22846   4.608   2.737   4.762 -0.0087  0.6336  0.0543
  174MOL0     C22847   4.502   2.751   4.662  0.1438  0.6002 -0.5678
  174MOL0     C22848   4.366   2.778   4.731 -0.2817 -0.0833  0.0135
  174MOL0     C22849   4.258   2.815   4.630  0.2551  1.1413 -0.8419
  174MOL0     C22850   4.273   2.948   4.549  0.1703 -0.1779 -1.1929
  174MOL0     C22851   4.273   3.073   4.651 -0.1652 -0.3196 -0.9051
  174MOL0     C22852   4.174   3.177   4.621 -0.0933 -0.3854 -0.0989
  174MOL0     N22853   4.037   3.128   4.666  0.5137  0.3328  0.3217
  174MOL0     C22854   4.008   3.114   4.801 -0.1144 -0.2966  1.0899
  174MOL0     C22855   3.877   3.101   4.805  1.3200 -0.4615  0.2710
  174MOL0     C22856   3.795   3.074   4.926  0.3341  0.2298  0.8079
  174MOL0     C22857   3.842   2.955   5.005 -0.5871 -1.1212  0.4800
  174MOL0     C22858   3.762   2.915   5.120  0.1467  0.4101 -0.9036
  174MOL0     C22859   3.807   2.785   5.183 -0.2826  0.5977 -0.6604
  174MOL0     O22860   3.947   2.784   5.212  0.1654 -0.2784 -0.3510
  174MOL0     C22861   4.036   2.705   5.141  0.2173 -0.0237  0.7240
  174MOL0     C22862   4.006   2.636   5.025  0.3497 -0.3260  0.2497
  174MOL0     C22863   4.105   2.570   4.953  0.2039  0.6711 -0.9112
  174MOL0     C22864   4.232   2.544   5.006  0.8311 -0.2227  0.6642
  174MOL0     C22865   4.335   2.473   4.925  0.2894 -0.4878 -1.3672
  174MOL0     O22866   4.455   2.449   4.992  0.0744  0.1574  0.3892
  174MOL0     C22867   4.559   2.386   4.934 -0.6175 -0.1944 -0.8141
  174MOL0     C22868   4.691   2.422   4.988  0.1669  0.8173 -0.7823
  174MOL0     C22869   4.804   2.370   4.942 -0.2480 -0.1361 -0.7813
  174MOL0     C22870   4.809   2.279   4.839  0.5516 -0.2663 -0.4495
  174MOL0     O22871   4.924   2.231   4.779 -0.6130  0.4007 -0.0080
  174MOL0     C22872   5.042   2.298   4.821 -1.0420 -0.1153  0.4573
  174MOL0     C22873   5.163   2.266   4.729 -0.3170  0.4282 -0.6105
  174MOL0     C22874   5.238   2.137   4.778  0.4709  0.0571  0.3251
  174MOL0     C22875   5.352   2.085   4.688 -0.2712 -0.8354  0.6676
  174MOL0     C22876   5.469   2.184   4.711  0.0362 -0.5658 -0.5015
  174MOL0     C22877   5.604   2.124   4.668  0.5176 -0.7762  0.0707
  174MOL0     C22878   5.710   2.231   4.656  0.6112 -0.0695 -0.1138
  174MOL0     C22879   5.801   2.187   4.546 -0.8299 -0.1874  0.2236
  174MOL0    Cl22880   5.878   2.041   4.607  0.6192  0.2345 -0.4084
  174MOL0     C22881   4.685   2.234   4.788  0.2311 -0.5966  1.6728
  174MOL0     C22882   4.566   2.285   4.835 -0.6440 -0.6857  0.1331
  174MOL0     O22883   4.307   2.440   4.811 -0.3431  0.4858 -0.0328
  174MOL0     C22884   4.261   2.605   5.134  0.2390 -0.6662  0.7801
  174MOL0     C22885   4.162   2.683   5.194  0.6055  0.3296  0.0422
  174MOL0     N22886   3.818   3.106   4.675 -0.4889  0.2098  0.4480
  174MOL0     N22887   3.920   3.111   4.593  0.0565 -0.2896  0.7014
  174MOL0     C22888   5.035   2.746   4.678  0.4978  0.1766  0.0984
  174MOL0     C22889   5.176   2.783   4.665 -0.0544  0.4560  0.2622
  174MOL0     C22890   5.609   2.826   4.717 -0.3774  0.9898 -0.2219
  174MOL0     C22891   5.639   2.938   4.796  0.7537  0.2350  0.1115
  174MOL0     C22892   5.771   2.980   4.819  0.3837  0.6069 -0.5592
  174MOL0     C22893   5.875   2.931   4.744  0.2047  1.5527 -0.2918
  174MOL0     O22894   5.991   2.999   4.753  0.0915 -0.2487 -0.5997
  174MOL0     C22895   6.096   2.969   4.667  0.2462 -0.6903 -0.1244
  174MOL0     C22896   6.202   3.074   4.698  0.1435 -0.5987 -0.1603
  174MOL0     C22897   6.328   3.058   4.622 -0.7957  0.2695 -1.2827
  174MOL0     C22898   6.331   3.090   4.474 -0.6886  0.2946  0.5646
  174MOL0     C22899   6.470   3.120   4.432 -1.5078  0.7424 -0.9411
  174MOL0     C22900   6.594   3.125   4.407 -0.6936  0.1797 -0.5134
  174MOL0     C22901   5.845   2.821   4.663 -0.0595 -0.6496 -0.2677
  174MOL0     C22902   5.716   2.764   4.651  0.0723 -0.3800  0.6144
  174MOL0     H22903   5.230   2.849   4.990 -2.4015 -0.6404  1.7696
  174MOL0     H22904   4.998   2.782   5.006 -0.4847  0.6459 -0.1410
  174MOL0     H22905   4.757   2.631   4.639 -0.9800 -2.3867  0.6909
  174MOL0     H22906   4.781   2.805   4.641  1.3565 -1.9581 -2.1754
  174MOL0     H22907   4.615   2.825   4.826  1.4222  0.0603  0.7344
  174MOL0     H22908   4.581   2.654   4.828 -4.4161  0.0918 -2.0850
  174MOL0     H22909   4.488   2.652   4.619  0.9165  1.1330 -2.1278
  174MOL0     H22910   4.531   2.831   4.594  0.3782 -0.2532 -1.4951
  174MOL0     H22911   4.332   2.692   4.790  0.7460 -0.4725  0.0544
  174MOL0     H22912   4.373   2.862   4.801 -1.7711  0.6438 -0.6621
  174MOL0     H22913   4.163   2.827   4.682  0.3518 -3.5163  0.8875
  174MOL0     H22914   4.239   2.739   4.553  0.3972 -1.8781  1.8917
  174MOL0     H22915   4.189   2.949   4.479 -1.4352 -0.8221  0.6617
  174MOL0     H22916   4.363   2.948   4.486 -1.1652  1.6921 -3.2538
  174MOL0     H22917   4.255   3.044   4.755  2.1674 -4.7589 -1.5038
  174MOL0     H22918   4.374   3.114   4.647  0.0759 -0.9213 -1.1151
  174MOL0     H22919   4.172   3.181   4.511 -1.4995 -0.7370 -0.1042
  174MOL0     H22920   4.202   3.276   4.658  0.6375 -0.2179 -1.0670
  174MOL0     H22921   4.071   3.097   4.888  1.8863  2.3637  0.2933
  174MOL0     H22922   3.690   3.078   4.896  1.2909  2.4700 -2.8332
  174MOL0     H22923   3.794   3.166   4.986 -0.5364  0.4668  0.4400
  174MOL0     H22924   3.949   2.965   5.024 -0.0141 -1.1539 -2.3078
  174MOL0     H22925   3.851   2.865   4.944  2.5959 -2.0711  2.1360
  174MOL0     H22926   3.761   2.995   5.194 -1.4958  0.9021 -1.4123
  174MOL0     H22927   3.655   2.907   5.098  0.2160 -1.2067 -0.7631
  174MOL0     H22928   3.782   2.698   5.122  2.6107 -1.0202  0.3000
  174MOL0     H22929   3.758   2.772   5.280  0.4995 -1.2787 -0.4836
  174MOL0     H22930   3.911   2.643   4.972  0.8644 -0.0216 -0.6546
  174MOL0     H22931   4.084   2.537   4.852 -1.0760  3.2803 -1.6010
  174MOL0     H22932   4.700   2.501   5.062  4.3752  0.2791 -0.4576
  174MOL0     H22933   4.884   2.416   4.999  0.7247  0.7892 -2.8252
  174MOL0     H22934   5.071   2.278   4.924  0.6424  2.0990  0.4905
  174MOL0     H22935   5.029   2.405   4.837  0.6158  0.1736  0.0125
  174MOL0     H22936   5.243   2.341   4.729  2.0515 -1.9664 -0.6243
  174MOL0     H22937   5.131   2.251   4.625 -0.4213 -0.7564 -0.4257
  174MOL0     H22938   5.176   2.048   4.793  1.1053 -0.3811  0.3850
  174MOL0     H22939   5.275   2.170   4.876  2.7306  0.4325 -0.6060
  174MOL0     H22940   5.393   1.990   4.725  2.8911  0.6253  1.2599
  174MOL0     H22941   5.307   2.095   4.589 -1.0241  0.3378  1.1105
  174MOL0     H22942   5.475   2.214   4.816  0.6392 -1.3445 -0.3022
  174MOL0     H22943   5.446   2.276   4.656  1.1817 -1.1097 -1.9524
  174MOL0     H22944   5.594   2.071   4.573  1.5754 -0.1240 -0.4201
  174MOL0     H22945   5.631   2.045   4.739 -0.4533 -0.3340  0.9540
  174MOL0     H22946   5.666   2.330   4.641 -0.3780 -0.2288  1.4688
  174MOL0     H22947   5.757   2.243   4.754  2.4571 -0.6699 -0.8913
  174MOL0     H22948   5.865   2.269   4.512 -0.4243 -0.1029  1.1511
  174MOL0     H22949   5.751   2.152   4.455  0.5534  0.9781 -1.0356
  174MOL0     H22950   4.702   2.163   4.707  0.8975 -0.0034  1.2821
  174MOL0     H22951   4.474   2.254   4.785 -1.2003 -0.0560  0.7311
  174MOL0     H22952   4.347   2.604   5.201  0.4994  1.3634  0.5357
  174MOL0     H22953   4.191   2.739   5.282  3.1848  2.5332 -2.0083
  174MOL0     H22954   4.989   2.706   4.588 -0.2536 -0.7033  0.8441
  174MOL0     H22955   5.228   2.755   4.574  2.2350  1.7987  1.0850
  174MOL0     H22956   5.563   2.992   4.853  1.0352  1.1642 -0.3710
  174MOL0     H22957   5.779   3.064   4.887 -0.6102  0.4897 -0.2790
  174MOL0     H22958   6.074   2.982   4.561  1.2756 -0.1259 -0.2878
  174MOL0     H22959   6.128   2.866   4.682 -2.0244 -1.4482 -0.2036
  174MOL0     H22960   6.161   3.168   4.659  2.7592  0.0754 -1.5735
  174MOL0     H22961   6.219   3.078   4.806 -2.7091 -0.4205  0.3455
  174MOL0     H22962   6.360   2.955   4.643 -0.8062  0.4212 -0.5012
  174MOL0     H22963   6.407   3.118   4.668  0.2864  0.2007 -2.9613
  174MOL0     H22964   6.280   3.022   4.404  2.5629  0.6428 -2.4469
  174MOL0     H22965   6.278   3.185   4.462 -0.3228  0.3085 -1.3999
  174MOL0     H22966   6.699   3.139   4.389 -0.3496  1.7004  2.1695
  174MOL0     H22967   5.924   2.792   4.595 -0.5262  0.7750 -1.4623
  174MOL0     H22968   5.689   2.678   4.591  0.0806 -3.6382  4.8117
  175MOL0     O22969   0.460   4.989   7.562  0.5383 -0.3363  0.1104
  175MOL0     C22970   0.509   5.012   7.673  0.1339 -0.1050  0.7462
  175MOL0     O22971   0.457   4.961   7.792 -0.4678 -0.0975  0.3251
  175MOL0     C22972   0.360   4.865   7.776  0.3850  0.1864 -0.9610
  175MOL0     C22973   0.225   4.894   7.815 -0.5915 -0.1616  0.2999
  175MOL0     C22974   0.126   4.799   7.803 -0.3315  0.1191  0.7856
  175MOL0     C22975   0.161   4.672   7.760 -0.1282  1.4311  0.1111
  175MOL0     O22976   0.061   4.581   7.751  0.0814  0.1502  0.4966
  175MOL0     C22977   0.092   4.445   7.787  0.2544 -0.6694 -0.5015
  175MOL0     C22978  -0.036   4.361   7.820  0.0219 -0.0102 -0.9289
  175MOL0     C22979  -0.124   4.328   7.700  0.1707 -0.0641  0.3838
  175MOL0     C22980  -0.252   4.261   7.751  0.1614  0.1282  0.7702
  175MOL0     C22981  -0.244   4.137   7.831 -0.1024 -0.3936 -0.2803
  175MOL0     C22982  -0.377   4.055   7.824  0.8670  0.5522  1.5773
  175MOL0     C22983  -0.367   3.913   7.888  0.5391 -0.3843 -0.0335
  175MOL0     C22984  -0.485   3.824   7.839  0.5219 -0.6860 -0.4640
  175MOL0     N22985  -0.500   3.699   7.919 -1.2132  0.0667 -0.5825
  175MOL0     C22986  -0.534   3.683   8.048  0.5833  0.4062 -0.1937
  175MOL0     C22987  -0.525   3.550   8.075  0.5673 -0.2172 -0.4364
  175MOL0     C22988  -0.555   3.481   8.203  0.2140  0.7624  0.0037
  175MOL0     C22989  -0.703   3.454   8.213 -0.6661  0.7222  0.1498
  175MOL0     C22990  -0.727   3.357   8.322  0.4814  0.6467 -1.0059
  175MOL0     C22991  -0.873   3.324   8.348  0.0623 -0.3105 -0.2926
  175MOL0     O22992  -0.956   3.438   8.367  0.2942  0.6641  0.3180
  175MOL0     C22993  -1.092   3.423   8.386  0.3502 -0.1643 -0.2003
  175MOL0     C22994  -1.161   3.545   8.386  0.4533  0.5972  0.0340
  175MOL0     C22995  -1.298   3.533   8.420 -0.8933  0.7070  0.6977
  175MOL0     C22996  -1.362   3.413   8.416  0.0296  0.0390 -0.1209
  175MOL0     C22997  -1.508   3.400   8.442  0.1584  0.0765  0.5304
  175MOL0     O22998  -1.556   3.264   8.438  0.8410 -0.8191 -0.5032
  175MOL0     C22999  -1.686   3.246   8.479  0.3248  0.0727  0.0517
  175MOL0     C23000  -1.718   3.224   8.611  0.1409  0.3222  0.0469
  175MOL0     C23001  -1.848   3.192   8.652  0.2830  0.2372 -0.4205
  175MOL0     C23002  -1.946   3.158   8.556  0.0247 -0.5087 -0.6122
  175MOL0     O23003  -2.073   3.124   8.599  0.6752 -0.3523 -0.0358
  175MOL0     C23004  -2.129   3.008   8.539  0.2396 -0.9997  0.5090
  175MOL0     C23005  -2.275   3.003   8.579  0.0265  0.1075 -1.5296
  175MOL0     C23006  -2.360   3.127   8.528  0.4617 -0.7007 -0.1708
  175MOL0     C23007  -2.342   3.168   8.381  0.0622 -0.4397  0.1355
  175MOL0     C23008  -2.447   3.267   8.346 -0.4998 -0.0863 -0.2729
  175MOL0     C23009  -2.433   3.336   8.210  0.2722 -0.1890 -0.4114
  175MOL0     C23010  -2.554   3.414   8.166 -0.3550 -0.8330 -0.0399
  175MOL0     C23011  -2.534   3.454   8.017  0.4106 -1.0345 -0.4428
  175MOL0    Cl23012  -2.427   3.598   7.987  0.5815  0.6303  0.4144
  175MOL0     C23013  -1.913   3.192   8.423  0.0441  0.1063 -0.3807
  175MOL0     C23014  -1.788   3.230   8.386 -0.0280 -0.7939 -0.5319
  175MOL0     O23015  -1.585   3.503   8.451  0.3374 -0.3263  0.3150
  175MOL0     C23016  -1.297   3.297   8.393 -0.6326  0.0634  0.4802
  175MOL0     C23017  -1.157   3.302   8.393  0.7029 -0.5218  0.1848
  175MOL0     N23018  -0.469   3.490   7.964  0.0380 -0.1830  0.2008
  175MOL0     N23019  -0.454   3.576   7.871 -0.2244  0.2852 -0.2579
  175MOL0     C23020   0.290   4.637   7.723 -0.7872  0.3048  0.3952
  175MOL0     C23021   0.397   4.731   7.735  0.5993 -0.6081 -0.3647
  175MOL0     C23022   0.640   5.086   7.686  0.1770  0.6256  0.8852
  175MOL0     C23023   0.693   5.149   7.579 -0.1129 -0.3744  0.7355
  175MOL0     C23024   0.806   5.225   7.591  0.2732  0.3874  0.2443
  175MOL0     C23025   0.872   5.231   7.713  0.9751 -0.4091  0.2140
  175MOL0     O23026   0.988   5.302   7.730 -0.1699  0.0173 -0.0538
  175MOL0     C23027   1.015   5.373   7.857  0.3442 -0.5488 -0.8625
  175MOL0     C23028   1.158   5.334   7.902 -0.6192  0.4478 -0.0654
  175MOL0     C23029   1.173   5.183   7.941 -0.0945 -0.8804  0.3775
  175MOL0     C23030   1.321   5.140   7.954  1.0852  0.2071  0.1835
  175MOL0     C23031   1.389   5.161   7.824 -0.4915  0.4065 -0.4392
  175MOL0     C23032   1.429   5.196   7.714 -0.5754 -1.0757  0.8266
  175MOL0     C23033   0.817   5.170   7.827  0.5693 -0.9702  0.9500
  175MOL0     C23034   0.709   5.093   7.807 -0.5147  1.3755  0.1525
  175MOL0     H23035   0.213   4.994   7.856  2.2326  0.7010 -0.6972
  175MOL0     H23036   0.025   4.824   7.836 -1.4149  0.2708 -2.3251
  175MOL0     H23037   0.161   4.435   7.871 -0.2225  0.3213  0.0280
  175MOL0     H23038   0.134   4.402   7.696  0.9947  0.9167 -0.9481
  175MOL0     H23039  -0.101   4.405   7.896 -2.2640 -1.7573 -1.7397
  175MOL0     H23040   0.003   4.266   7.856  0.4157 -0.7589 -3.1419
  175MOL0     H23041  -0.076   4.265   7.624 -0.5835  0.6780 -0.7330
  175MOL0     H23042  -0.148   4.426   7.660  0.3670  0.6886  2.0188
  175MOL0     H23043  -0.301   4.337   7.813  0.1572  0.9939 -0.2576
  175MOL0     H23044  -0.328   4.244   7.674 -2.8967  1.3258  3.2798
  175MOL0     H23045  -0.223   4.157   7.937 -2.4528 -1.4789  0.4587
  175MOL0     H23046  -0.159   4.081   7.792 -1.3218 -3.1355  0.7495
  175MOL0     H23047  -0.405   4.051   7.718  3.8480  0.8050  0.6897
  175MOL0     H23048  -0.456   4.107   7.878  1.4243  0.0318  2.9282
  175MOL0     H23049  -0.273   3.864   7.861 -1.6066 -3.4974 -2.5063
  175MOL0     H23050  -0.377   3.923   7.996  3.7387 -0.1741  0.3357
  175MOL0     H23051  -0.480   3.782   7.738  2.2931 -1.1921 -0.1953
  175MOL0     H23052  -0.577   3.883   7.845  1.7772  1.2616  0.7680
  175MOL0     H23053  -0.565   3.755   8.123 -2.8002 -0.5637 -0.5056
  175MOL0     H23054  -0.529   3.538   8.293 -0.4414 -1.1865  1.5063
  175MOL0     H23055  -0.511   3.383   8.220  0.6973  1.6500  6.3949
  175MOL0     H23056  -0.746   3.428   8.116 -1.6530  1.1101  0.4649
  175MOL0     H23057  -0.769   3.540   8.228 -0.8036  0.7961 -0.7960
  175MOL0     H23058  -0.672   3.263   8.311  1.6902  0.4954  3.8770
  175MOL0     H23059  -0.692   3.398   8.417  0.0436 -0.2922 -0.4231
  175MOL0     H23060  -0.883   3.268   8.441 -4.3735 -1.6051 -1.2816
  175MOL0     H23061  -0.907   3.258   8.267  2.6180 -1.4309 -0.5486
  175MOL0     H23062  -1.109   3.639   8.372 -2.2394  2.5441  2.0232
  175MOL0     H23063  -1.354   3.626   8.433 -0.6196  0.6270  2.8258
  175MOL0     H23064  -1.628   3.221   8.672  2.7453 -2.3577 -3.4760
  175MOL0     H23065  -1.871   3.190   8.758 -2.0153  1.5486 -0.8241
  175MOL0     H23066  -2.075   2.918   8.570  1.6124 -0.0464  0.9994
  175MOL0     H23067  -2.113   3.010   8.431  0.5695 -0.4891  0.5622
  175MOL0     H23068  -2.290   2.996   8.687 -1.8474  5.4411 -1.1138
  175MOL0     H23069  -2.329   2.922   8.530  0.4834 -0.4804 -1.0675
  175MOL0     H23070  -2.332   3.215   8.587  1.3727  0.3743 -2.1015
  175MOL0     H23071  -2.465   3.105   8.549  0.3451 -0.7282 -0.7613
  175MOL0     H23072  -2.250   3.223   8.357 -0.2117 -0.4687 -1.0065
  175MOL0     H23073  -2.347   3.076   8.322  0.7699 -0.0055 -0.6320
  175MOL0     H23074  -2.458   3.347   8.419 -2.5352  1.9590 -2.6695
  175MOL0     H23075  -2.544   3.218   8.348 -0.5973 -0.2692 -3.5069
  175MOL0     H23076  -2.408   3.255   8.142  1.6324 -0.1210 -0.0296
  175MOL0     H23077  -2.344   3.398   8.194  0.8624 -1.7297 -4.1904
  175MOL0     H23078  -2.644   3.352   8.176 -1.3624  0.3300 -1.4162
  175MOL0     H23079  -2.565   3.506   8.224  0.7985 -0.4725 -0.3781
  175MOL0     H23080  -2.634   3.475   7.979  0.0736 -0.7239  0.5894
  175MOL0     H23081  -2.515   3.366   7.954 -2.3934 -0.4018 -2.3272
  175MOL0     H23082  -1.997   3.183   8.355 -1.1730 -3.6662  1.3400
  175MOL0     H23083  -1.756   3.247   8.284  0.5408  1.5571 -0.0240
  175MOL0     H23084  -1.337   3.196   8.385 -0.2964 -0.0377  0.0717
  175MOL0     H23085  -1.101   3.210   8.379  0.9952 -0.2885 -0.1805
  175MOL0     H23086   0.328   4.539   7.697 -0.2536  0.1944  1.5195
  175MOL0     H23087   0.500   4.699   7.727  1.2875  1.2665  0.2941
  175MOL0     H23088   0.649   5.134   7.482 -1.7406  0.9452  1.2284
  175MOL0     H23089   0.850   5.279   7.508 -2.1932  3.3181  0.6857
  175MOL0     H23090   0.951   5.358   7.945  2.5624 -1.9495  0.6203
  175MOL0     H23091   1.025   5.481   7.847  2.1985 -0.2310  2.6346
  175MOL0     H23092   1.223   5.354   7.816  1.8256 -1.0982  1.2773
  175MOL0     H23093   1.181   5.400   7.986 -2.8193 -1.7664  2.4399
  175MOL0     H23094   1.120   5.121   7.868  2.7147 -1.3039 -1.4697
  175MOL0     H23095   1.120   5.174   8.036 -1.9022  3.5271  0.0486
  175MOL0     H23096   1.381   5.191   8.030  2.0883 -1.3363  0.4782
  175MOL0     H23097   1.317   5.035   7.987 -1.9014 -0.4843 -1.9933
  175MOL0     H23098   1.488   5.230   7.631 -0.1947 -1.0827  1.0878
  175MOL0     H23099   0.863   5.163   7.925  0.3242 -3.9513  0.9263
  175MOL0     H23100   0.662   5.023   7.874  2.9528 -3.0314 -1.4312
  176MOL0     O23101  10.271   1.417   6.934  0.1839  0.2165 -0.7479
  176MOL0     C23102  10.318   1.486   6.848  0.6831 -0.0769  0.4525
  176MOL0     O23103  10.250   1.596   6.794  0.0310  0.4471 -0.2235
  176MOL0     C23104  10.119   1.625   6.825  0.1637 -0.1437 -0.6281
  176MOL0     C23105  10.004   1.557   6.774 -0.4435 -0.9879 -0.0627
  176MOL0     C23106   9.878   1.614   6.789 -0.1406 -0.4020 -0.4190
  176MOL0     C23107   9.869   1.735   6.857  0.3522 -0.4410 -0.1582
  176MOL0     O23108   9.743   1.782   6.856 -0.2475 -0.6645  0.2745
  176MOL0     C23109   9.688   1.833   6.973 -0.6393 -0.0325 -0.3586
  176MOL0     C23110   9.538   1.852   6.956 -0.2653  1.4265 -0.4046
  176MOL0     C23111   9.475   1.929   7.070 -0.6128 -0.5209  0.0404
  176MOL0     C23112   9.321   1.957   7.036  0.2587  0.3381 -0.0038
  176MOL0     C23113   9.254   2.056   7.136 -0.1396  0.0921  0.8655
  176MOL0     C23114   9.195   1.993   7.254  0.4447 -0.3648  0.0849
  176MOL0     C23115   9.115   1.859   7.238 -0.0028 -0.2531 -0.5286
  176MOL0     C23116   8.987   1.875   7.145  0.4451  0.9497  0.0721
  176MOL0     N23117   8.947   1.737   7.117  0.2150 -0.2137 -0.6699
  176MOL0     C23118   8.993   1.667   7.010  0.3421  0.4494 -0.2910
  176MOL0     C23119   8.930   1.544   7.018  0.5142  0.3026  0.0592
  176MOL0     C23120   8.947   1.429   6.919 -0.0431  0.0859 -0.1533
  176MOL0     C23121   9.083   1.362   6.949 -0.3766 -0.1166  0.1088
  176MOL0     C23122   9.097   1.297   7.091 -0.3945  0.7201  0.3257
  176MOL0     C23123   8.970   1.208   7.130  0.5909  0.5776  0.4968
  176MOL0     O23124   8.926   1.123   7.023 -0.1040 -0.1438 -1.1282
  176MOL0     C23125   8.821   1.030   7.043  0.1696 -0.1634  0.3633
  176MOL0     C23126   8.736   1.020   7.149  0.2426  0.5931  0.0283
  176MOL0     C23127   8.639   0.917   7.161 -0.1408  0.9659  0.4352
  176MOL0     C23128   8.618   0.837   7.057 -0.6386  0.6396 -0.3883
  176MOL0     C23129   8.500   0.750   7.051  0.5462 -0.7112 -0.3285
  176MOL0     O23130   8.496   0.662   6.942  0.4118 -0.1154 -0.5372
  176MOL0     C23131   8.410   0.548   6.936  0.1993 -0.2870  0.4438
  176MOL0     C23132   8.315   0.520   6.836  0.1310 -0.2977 -1.1239
  176MOL0     C23133   8.252   0.392   6.828  0.4680 -0.5712  0.3802
  176MOL0     C23134   8.279   0.297   6.923 -0.1175  0.0606  0.1140
  176MOL0     O23135   8.218   0.179   6.931  0.0273 -0.2321  0.1985
  176MOL0     C23136   8.120   0.157   6.836 -0.4809  0.5963 -0.2968
  176MOL0     C23137   8.050   0.020   6.867  0.2496 -1.2811 -0.0221
  176MOL0     C23138   7.904   0.065   6.917  0.2208  0.2121  0.4390
  176MOL0     C23139   7.907   0.145   7.048  0.8353  0.8826 -0.2767
  176MOL0     C23140   7.762   0.186   7.083 -0.0674  0.2913 -0.0339
  176MOL0     C23141   7.678   0.087   7.173 -0.1729  0.1061 -0.2353
  176MOL0     C23142   7.528   0.131   7.195  0.2086 -0.4661  0.0001
  176MOL0     C23143   7.508   0.228   7.303 -0.3160 -0.5665 -0.8162
  176MOL0    Cl23144   7.549   0.161   7.471 -0.2293  0.0613  0.2111
  176MOL0     C23145   8.372   0.324   7.024  0.7489 -0.4726 -0.4244
  176MOL0     C23146   8.432   0.447   7.035 -0.1030  1.2136  0.2486
  176MOL0     O23147   8.420   0.749   7.144 -0.4024  0.4180 -0.0678
  176MOL0     C23148   8.709   0.843   6.949  0.1960 -0.3578  0.4415
  176MOL0     C23149   8.808   0.944   6.940  0.0041  0.2429 -0.9648
  176MOL0     N23150   8.851   1.544   7.131 -0.4028  0.5094 -0.7612
  176MOL0     N23151   8.861   1.660   7.189 -0.0141 -0.2470  0.9420
  176MOL0     C23152   9.980   1.792   6.915 -0.0424  0.2382 -0.0618
  176MOL0     C23153  10.101   1.737   6.891 -0.9977  0.2120  0.6156
  176MOL0     C23154  10.465   1.469   6.817  0.0722 -1.1443  0.0772
  176MOL0     C23155  10.535   1.563   6.739 -0.4744 -0.7911  0.1957
  176MOL0     C23156  10.670   1.559   6.717  0.0080  0.0853 -0.6247
  176MOL0     C23157  10.746   1.449   6.770  0.4367  0.4888  0.0805
  176MOL0     O23158  10.877   1.440   6.768  0.0459 -0.1802  0.1678
  176MOL0     C23159  10.950   1.564   6.768 -0.5587 -0.0256  0.3573
  176MOL0     C23160  11.006   1.578   6.621 -0.4332 -0.6258 -0.8478
  176MOL0     C23161  10.995   1.722   6.571 -0.2426  0.3305 -0.3682
  176MOL0     C23162  11.042   1.739   6.425 -0.1845 -0.8953 -0.2281
  176MOL0     C23163  11.177   1.701   6.399  1.0819 -0.5655 -0.0643
  176MOL0     C23164  11.292   1.688   6.363  0.1863  1.0383 -0.4115
  176MOL0     C23165  10.669   1.343   6.832 -0.0248  0.4754  0.1970
  176MOL0     C23166  10.534   1.352   6.852  0.2246  1.0949 -0.2825
  176MOL0     H23167  10.020   1.466   6.717 -1.3775  0.3733 -2.6524
  176MOL0     H23168   9.785   1.570   6.754  1.4391 -2.0438 -2.7699
  176MOL0     H23169   9.733   1.930   6.994  1.9609 -1.0049 -1.0496
  176MOL0     H23170   9.701   1.761   7.055 -0.1611 -2.3588 -2.3509
  176MOL0     H23171   9.487   1.756   6.957 -0.2319  1.4034  1.1407
  176MOL0     H23172   9.516   1.895   6.858 -0.2271  1.1593 -0.5327
  176MOL0     H23173   9.523   2.026   7.081 -0.1193 -0.6539 -0.8747
  176MOL0     H23174   9.496   1.875   7.163  1.2152  0.4558  0.2445
  176MOL0     H23175   9.330   2.013   6.943  0.7110 -0.5305 -0.4942
  176MOL0     H23176   9.271   1.860   7.022  3.1208 -1.2531  0.0302
  176MOL0     H23177   9.186   2.117   7.074  1.6734  0.2656 -1.0579
  176MOL0     H23178   9.340   2.117   7.163  1.4060 -1.4860 -0.3143
  176MOL0     H23179   9.138   2.073   7.303 -0.0339 -0.7015  0.0816
  176MOL0     H23180   9.278   1.961   7.318  0.0326  2.6026  2.3616
  176MOL0     H23181   9.186   1.785   7.202  0.6159 -1.0105  2.0656
  176MOL0     H23182   9.084   1.811   7.331  0.4185  0.7572  0.1455
  176MOL0     H23183   9.015   1.937   7.059  0.4172 -0.2603 -0.8331
  176MOL0     H23184   8.901   1.912   7.201 -3.1162 -3.6225 -1.8124
  176MOL0     H23185   9.058   1.715   6.937  1.7063  0.3475  0.8159
  176MOL0     H23186   8.941   1.476   6.820 -1.2762  1.7493  0.6498
  176MOL0     H23187   8.871   1.351   6.928  1.9351 -2.3437 -2.6353
  176MOL0     H23188   9.173   1.419   6.924 -0.5066 -1.4818 -4.2002
  176MOL0     H23189   9.086   1.276   6.881 -2.9645 -0.2686  0.0712
  176MOL0     H23190   9.180   1.226   7.094  1.3858  2.7274  1.3104
  176MOL0     H23191   9.113   1.382   7.159 -0.7931  3.2448 -2.5061
  176MOL0     H23192   8.882   1.273   7.138 -0.8993 -1.2499 -0.3667
  176MOL0     H23193   8.984   1.153   7.223 -3.6790 -2.0087 -0.0996
  176MOL0     H23194   8.755   1.086   7.234 -1.1364  0.4750  0.4466
  176MOL0     H23195   8.582   0.895   7.252  0.9559 -0.1451  0.8799
  176MOL0     H23196   8.292   0.607   6.775 -1.1047  1.9346  2.2215
  176MOL0     H23197   8.178   0.381   6.749 -0.8758 -1.2755  1.6815
  176MOL0     H23198   8.160   0.158   6.734 -1.4411  2.0978 -0.6989
  176MOL0     H23199   8.045   0.237   6.843 -2.7467 -1.5715  2.1712
  176MOL0     H23200   8.107  -0.041   6.938  4.6895  2.7839  0.3708
  176MOL0     H23201   8.048  -0.041   6.777  3.0717 -0.2708 -0.8594
  176MOL0     H23202   7.838  -0.022   6.920  0.5491 -0.1835 -1.9670
  176MOL0     H23203   7.854   0.124   6.840 -3.0720 -1.3156  1.2320
  176MOL0     H23204   7.941   0.081   7.129  3.6653 -0.7452 -2.5444
  176MOL0     H23205   7.980   0.225   7.036 -0.6276  2.1788 -0.9338
  176MOL0     H23206   7.708   0.216   6.992 -0.4995 -0.0510  0.1022
  176MOL0     H23207   7.759   0.280   7.137  1.5308 -0.6178  1.7500
  176MOL0     H23208   7.715   0.063   7.273 -2.4365  2.8046  1.4113
  176MOL0     H23209   7.662  -0.006   7.117  0.3528  0.1026 -0.3819
  176MOL0     H23210   7.498   0.190   7.107 -1.0188  1.7667  1.8116
  176MOL0     H23211   7.458   0.047   7.193  0.2429 -0.4963  0.0944
  176MOL0     H23212   7.401   0.251   7.310 -0.2413 -0.0980 -1.1241
  176MOL0     H23213   7.569   0.315   7.276 -1.5093  1.7636  3.1722
  176MOL0     H23214   8.395   0.256   7.105  4.2023  1.4029  0.3435
  176MOL0     H23215   8.502   0.472   7.114 -2.6151  1.6128  2.4791
  176MOL0     H23216   8.701   0.787   6.856  1.8440  2.2415 -1.4049
  176MOL0     H23217   8.879   0.943   6.858  0.1794 -0.2484 -0.8061
  176MOL0     H23218   9.979   1.883   6.975  0.2362  0.6316 -0.6395
  176MOL0     H23219  10.194   1.779   6.927  0.3638  1.8743 -4.0718
  176MOL0     H23220  10.483   1.653   6.708  0.9384 -0.1552 -0.4534
  176MOL0     H23221  10.724   1.638   6.666 -0.1914  1.4621  1.1914
  176MOL0     H23222  11.025   1.533   6.841 -3.1668 -2.9220  2.0520
  176MOL0     H23223  10.900   1.655   6.803 -1.2997 -0.3740  0.2152
  176MOL0     H23224  11.111   1.550   6.636 -0.1964 -0.7385 -2.5469
  176MOL0     H23225  10.948   1.516   6.552 -3.4121 -0.8546  1.6088
  176MOL0     H23226  11.068   1.766   6.640  2.1620 -2.8488 -0.6323
  176MOL0     H23227  10.895   1.767   6.567 -0.1001  0.6281 -0.5868
  176MOL0     H23228  10.966   1.688   6.366  0.0090  0.0032 -1.2872
  176MOL0     H23229  11.039   1.845   6.396  0.3090 -1.8032 -4.1180
  176MOL0     H23230  11.396   1.684   6.338 -0.0459  0.9720 -1.4324
  176MOL0     H23231  10.723   1.253   6.859  0.5143  1.5908  3.1543
  176MOL0     H23232  10.482   1.269   6.900  1.0001 -1.0219 -2.9006
  177MOL0     O23233   3.067   1.886   0.417 -0.4942  0.4711  0.2819
  177MOL0     C23234   2.968   1.838   0.470  0.6650  0.2880  0.3900
  177MOL0     O23235   2.957   1.715   0.528 -0.1751 -0.0828  0.5570
  177MOL0     C23236   3.046   1.629   0.474 -0.4053  0.7137 -0.2973
  177MOL0     C23237   3.152   1.595   0.556  0.0742  0.2923  0.4116
  177MOL0     C23238   3.246   1.518   0.503  0.1422 -0.6360  0.9615
  177MOL0     C23239   3.235   1.448   0.384 -0.2032 -0.0746 -0.1487
  177MOL0     O23240   3.344   1.372   0.343  0.2186  0.5940 -0.1330
  177MOL0     C23241   3.375   1.378   0.195  0.7709  0.7714 -0.5451
  177MOL0     C23242   3.521   1.346   0.182 -1.0176  0.7109  0.2579
  177MOL0     C23243   3.565   1.321   0.036 -1.2702  0.6329  0.5405
  177MOL0     C23244   3.714   1.327   0.012 -0.9220 -0.3726  0.4241
  177MOL0     C23245   3.795   1.231   0.105 -0.0410  0.1274 -0.7025
  177MOL0     C23246   3.769   1.088   0.086  0.6661  0.5095  0.0365
  177MOL0     C23247   3.870   0.982   0.139  0.3259  0.0410 -0.0805
  177MOL0     C23248   3.875   0.969   0.291  0.1098 -0.0529  0.2784
  177MOL0     N23249   3.752   0.906   0.351 -0.0308 -0.5856  0.4003
  177MOL0     C23250   3.648   0.986   0.399  0.4282 -0.5157 -0.5237
  177MOL0     C23251   3.568   0.887   0.452  0.9287  0.5873  0.3991
  177MOL0     C23252   3.438   0.900   0.535 -0.3742  0.3630 -0.1838
  177MOL0     C23253   3.330   0.984   0.460  0.6859 -0.9616  0.9008
  177MOL0     C23254   3.214   1.036   0.556 -0.3668  0.3642  0.6381
  177MOL0     C23255   3.101   1.098   0.487  0.8137  0.2926 -0.8431
  177MOL0     O23256   3.022   1.185   0.578  0.4202 -0.1149 -0.5748
  177MOL0     C23257   2.904   1.240   0.537  0.0160 -0.4777 -0.2008
  177MOL0     C23258   2.868   1.357   0.587  0.7763  0.3199  0.0036
  177MOL0     C23259   2.738   1.416   0.549 -0.5306  0.3095  0.0482
  177MOL0     C23260   2.649   1.345   0.465  0.3541 -0.8509  0.1107
  177MOL0     C23261   2.513   1.396   0.408 -0.3971 -0.6444  0.5957
  177MOL0     O23262   2.443   1.306   0.318 -0.2837  0.7562 -0.2863
  177MOL0     C23263   2.319   1.322   0.270  0.5812 -0.4197 -0.2156
  177MOL0     C23264   2.277   1.232   0.167 -0.6138 -0.2133  0.0141
  177MOL0     C23265   2.155   1.250   0.102 -0.2927  0.1556  0.1998
  177MOL0     C23266   2.067   1.353   0.142 -1.2330 -0.3663  0.0600
  177MOL0     O23267   1.947   1.373   0.085  0.0306  0.4900 -0.2238
  177MOL0     C23268   1.899   1.265   0.001  0.8308  0.6926  0.1290
  177MOL0     C23269   1.770   1.326  -0.044 -0.2006  1.6208 -0.2502
  177MOL0     C23270   1.739   1.296  -0.195 -0.3144 -0.3622 -0.0233
  177MOL0     C23271   1.824   1.391  -0.287 -0.2874 -0.0025 -0.2367
  177MOL0     C23272   1.836   1.332  -0.429 -0.1623  0.6579  0.5132
  177MOL0     C23273   1.872   1.442  -0.526 -0.9896 -0.3418  0.0596
  177MOL0     C23274   2.021   1.501  -0.510 -0.0736 -0.5067  0.8284
  177MOL0     C23275   2.039   1.640  -0.582  0.4887 -0.3297 -0.4137
  177MOL0    Cl23276   1.988   1.639  -0.769 -0.0674 -0.4824 -0.2300
  177MOL0     C23277   2.099   1.431   0.249 -0.1719  1.2671 -0.5117
  177MOL0     C23278   2.226   1.424   0.302 -0.8192  0.0892  0.3500
  177MOL0     O23279   2.483   1.512   0.432 -0.6307  0.3133  0.0189
  177MOL0     C23280   2.697   1.225   0.409 -0.9500 -0.1078 -0.1216
  177MOL0     C23281   2.819   1.164   0.447 -0.0111  0.2131  0.2464
  177MOL0     N23282   3.617   0.766   0.420 -0.7751  0.6758 -0.3796
  177MOL0     N23283   3.724   0.777   0.359  0.3806  0.1132  0.5774
  177MOL0     C23284   3.125   1.475   0.301  0.1352  1.1259 -0.2956
  177MOL0     C23285   3.022   1.569   0.347  0.6464  1.0712 -0.1893
  177MOL0     C23286   2.838   1.905   0.462 -0.1077 -0.1530 -0.4663
  177MOL0     C23287   2.709   1.846   0.498  0.8701 -0.4452  0.4294
  177MOL0     C23288   2.587   1.913   0.451  0.0972  0.5434 -0.5729
  177MOL0     C23289   2.588   2.036   0.385 -0.2814 -0.4640 -0.2115
  177MOL0     O23290   2.467   2.101   0.358 -0.2650  0.1192 -0.3176
  177MOL0     C23291   2.467   2.160   0.231  0.7268 -1.0018  0.4532
  177MOL0     C23292   2.326   2.227   0.219  0.3436 -0.1299  0.9896
  177MOL0     C23293   2.287   2.327   0.325  0.1346  0.4364 -0.2924
  177MOL0     C23294   2.137   2.341   0.335  0.3436 -0.3752 -0.9455
  177MOL0     C23295   2.111   2.413   0.459  0.1441  0.0293  0.4900
  177MOL0     C23296   2.083   2.483   0.555  0.7902 -0.5712 -0.1604
  177MOL0     C23297   2.712   2.101   0.369 -0.3324  0.3736  1.0013
  177MOL0     C23298   2.833   2.029   0.395 -0.7917 -0.0925  0.5235
  177MOL0     H23299   3.172   1.650   0.647  0.6938 -1.1771  1.2022
  177MOL0     H23300   3.337   1.504   0.560 -1.0826 -0.2575  3.0928
  177MOL0     H23301   3.343   1.470   0.146 -2.4919 -0.4430 -0.9954
  177MOL0     H23302   3.318   1.296   0.150  2.7015 -0.7487 -0.3637
  177MOL0     H23303   3.542   1.248   0.227 -2.0266 -0.8744 -2.4605
  177MOL0     H23304   3.577   1.424   0.233 -0.6657  0.4527  0.2743
  177MOL0     H23305   3.517   1.402  -0.020 -3.7966 -0.2815  1.2496
  177MOL0     H23306   3.529   1.225  -0.003 -1.8907  0.4009  1.6506
  177MOL0     H23307   3.736   1.314  -0.095 -1.4493  3.6878 -0.3158
  177MOL0     H23308   3.742   1.430   0.035 -2.7038 -0.5356  3.9522
  177MOL0     H23309   3.777   1.255   0.210 -2.3632 -2.3129 -0.4469
  177MOL0     H23310   3.902   1.234   0.087  0.3325 -1.3862  1.0546
  177MOL0     H23311   3.747   1.074  -0.020 -0.9247  0.5515  0.3264
  177MOL0     H23312   3.675   1.079   0.142  0.8862  0.9253  0.4834
  177MOL0     H23313   3.838   0.887   0.095  1.5007  0.5134 -2.0848
  177MOL0     H23314   3.973   0.997   0.104  0.1033 -1.5049 -1.5470
  177MOL0     H23315   3.879   1.063   0.346 -3.1093 -0.7100  1.9320
  177MOL0     H23316   3.963   0.912   0.323 -0.2066 -0.7915 -0.1455
  177MOL0     H23317   3.630   1.092   0.415  1.0880 -0.6504  1.2864
  177MOL0     H23318   3.463   0.944   0.633  2.6347  2.5531 -1.7805
  177MOL0     H23319   3.397   0.803   0.564  1.4043 -0.6180 -0.8758
  177MOL0     H23320   3.281   0.928   0.381 -0.0435  1.1387 -0.2109
  177MOL0     H23321   3.376   1.074   0.418 -3.1099  1.2381  0.9943
  177MOL0     H23322   3.168   0.959   0.620  1.0343 -0.8924  0.1915
  177MOL0     H23323   3.262   1.112   0.618 -1.6859 -0.3717  2.6665
  177MOL0     H23324   3.038   1.022   0.441  0.9036  0.5093 -1.3256
  177MOL0     H23325   3.146   1.157   0.407 -0.0956 -2.0472 -3.2100
  177MOL0     H23326   2.934   1.417   0.650 -0.9825  1.7872  0.5582
  177MOL0     H23327   2.719   1.520   0.574 -0.2277  0.6549 -1.1029
  177MOL0     H23328   2.346   1.149   0.154 -1.9402 -1.6688  1.7572
  177MOL0     H23329   2.125   1.171   0.034 -2.4294  0.6518  0.5052
  177MOL0     H23330   1.883   1.167   0.047 -2.2975  0.0486 -2.0684
  177MOL0     H23331   1.976   1.262  -0.076  1.0005  2.5585  0.1737
  177MOL0     H23332   1.768   1.434  -0.025 -2.2287  1.5221  0.3697
  177MOL0     H23333   1.685   1.277   0.005 -0.0291 -1.1029 -2.4427
  177MOL0     H23334   1.638   1.331  -0.218 -0.1926  0.5098  0.7317
  177MOL0     H23335   1.756   1.192  -0.225  0.2101  0.8127 -4.5954
  177MOL0     H23336   1.778   1.490  -0.299  1.1469  0.7167  0.0624
  177MOL0     H23337   1.921   1.412  -0.243 -2.1167  2.8276  2.9060
  177MOL0     H23338   1.735   1.302  -0.458 -0.0149  0.7636 -0.1356
  177MOL0     H23339   1.906   1.249  -0.436 -1.1475 -0.1777  0.2749
  177MOL0     H23340   1.796   1.520  -0.511 -1.2213 -0.3600 -0.9260
  177MOL0     H23341   1.873   1.408  -0.630 -0.2927  1.9640 -0.7483
  177MOL0     H23342   2.062   1.511  -0.410  2.5417 -0.9090 -0.1394
  177MOL0     H23343   2.085   1.425  -0.555 -0.0642 -1.3307  2.2045
  177MOL0     H23344   2.141   1.678  -0.588  0.3690  0.0299 -0.2128
  177MOL0     H23345   1.969   1.708  -0.532 -0.5769 -0.8747 -1.1029
  177MOL0     H23346   2.032   1.504   0.293 -1.7865 -0.3626 -0.1440
  177MOL0     H23347   2.243   1.509   0.367  0.1169 -0.1961  0.4984
  177MOL0     H23348   2.652   1.159   0.334  1.5208 -1.4938 -0.4882
  177MOL0     H23349   2.836   1.073   0.390 -0.7952  0.4252 -0.3509
  177MOL0     H23350   3.109   1.429   0.204  1.9370  1.9386 -1.0247
  177MOL0     H23351   2.938   1.595   0.284  0.5065  2.4245  0.5274
  177MOL0     H23352   2.724   1.752   0.549 -0.4091 -1.0292 -0.2200
  177MOL0     H23353   2.491   1.871   0.479  0.6384  1.0242  2.3681
  177MOL0     H23354   2.501   2.097   0.148  1.5235 -0.2160  0.1692
  177MOL0     H23355   2.541   2.240   0.226  0.9309 -1.1999  0.2953
  177MOL0     H23356   2.306   2.285   0.128  0.2863  1.4856  1.9921
  177MOL0     H23357   2.251   2.147   0.214 -0.9479  1.0960 -3.6101
  177MOL0     H23358   2.340   2.417   0.292  3.2340 -0.6770  1.3524
  177MOL0     H23359   2.333   2.305   0.421  1.0333 -0.2728 -0.8743
  177MOL0     H23360   2.086   2.402   0.259  0.1036 -1.6620 -1.8561
  177MOL0     H23361   2.097   2.241   0.353 -1.3135  0.9394  4.6510
  177MOL0     H23362   2.055   2.532   0.646  0.8026 -3.4199  1.4878
  177MOL0     H23363   2.719   2.199   0.324  1.7060 -0.3017 -0.2821
  177MOL0     H23364   2.929   2.062   0.359 -0.2623 -2.7147 -0.7213
  178MOL0     O23365   0.071   4.342   0.563  0.0460  0.3143 -0.6774
  178MOL0     C23366   0.003   4.388   0.651 -0.3504 -1.5433  0.5402
  178MOL0     O23367   0.049   4.445   0.771 -0.2117  0.2571  0.1901
  178MOL0     C23368   0.189   4.470   0.787  0.1244 -0.6151 -0.0890
  178MOL0     C23369   0.274   4.522   0.678 -0.1271  0.0628 -0.4440
  178MOL0     C23370   0.409   4.552   0.722  0.4402 -0.5235 -0.2439
  178MOL0     C23371   0.460   4.518   0.844  0.0138  0.5446 -0.8292
  178MOL0     O23372   0.593   4.547   0.879  0.0264 -0.5033  0.0771
  178MOL0     C23373   0.679   4.441   0.845 -1.2106  0.9572 -0.3430
  178MOL0     C23374   0.720   4.380   0.976 -0.3304  1.6998  0.0139
  178MOL0     C23375   0.828   4.272   0.951  0.0825 -0.1999 -0.7289
  178MOL0     C23376   0.893   4.227   1.073 -0.2489 -0.8170 -0.4586
  178MOL0     C23377   0.996   4.116   1.051 -0.1064  0.6568  0.0470
  178MOL0     C23378   1.113   4.153   0.967  0.4654  0.2071  0.0502
  178MOL0     C23379   1.211   4.267   1.018  0.3001 -0.2364 -0.0297
  178MOL0     C23380   1.360   4.251   0.967  0.4097  0.7170 -1.0494
  178MOL0     N23381   1.369   4.259   0.821 -0.3462  0.8340  0.6215
  178MOL0     C23382   1.336   4.364   0.746 -0.3193 -0.9517 -0.3856
  178MOL0     C23383   1.369   4.345   0.615 -0.9750 -0.5535  0.7295
  178MOL0     C23384   1.327   4.443   0.513 -0.5318 -0.2124  0.3000
  178MOL0     C23385   1.346   4.397   0.370 -1.0544 -1.0403  0.1764
  178MOL0     C23386   1.293   4.509   0.284 -0.1295 -1.0426  1.2139
  178MOL0     C23387   1.161   4.484   0.200 -0.2101 -0.3912  0.6294
  178MOL0     O23388   1.052   4.466   0.290 -0.4312 -0.1729  0.3281
  178MOL0     C23389   0.958   4.561   0.308  0.8090  0.0026 -0.1516
  178MOL0     C23390   0.917   4.648   0.205 -0.9970 -0.7562 -0.1698
  178MOL0     C23391   0.812   4.736   0.230  0.0287 -0.0402 -0.1069
  178MOL0     C23392   0.745   4.743   0.349  0.9461 -0.4345 -0.5821
  178MOL0     C23393   0.614   4.815   0.348 -0.4224  0.0383 -0.5879
  178MOL0     O23394   0.568   4.833   0.468  0.2052  0.5637 -0.8889
  178MOL0     C23395   0.448   4.884   0.506  0.4710 -0.4588  0.1653
  178MOL0     C23396   0.320   4.862   0.449  0.6627  0.3821 -0.7083
  178MOL0     C23397   0.204   4.921   0.493  1.1383  0.3076  0.1951
  178MOL0     C23398   0.214   5.017   0.597 -0.2006 -0.2330 -0.5950
  178MOL0     O23399   0.109   5.089   0.640  0.3903  0.0924 -0.5434
  178MOL0     C23400  -0.027   5.028   0.645 -0.0247  0.3495 -0.2555
  178MOL0     C23401  -0.041   4.905   0.733 -0.2214  0.0566 -1.0574
  178MOL0     C23402  -0.189   4.886   0.775  0.4355 -0.6214  0.1646
  178MOL0     C23403  -0.301   4.899   0.666  0.4009  0.3303 -0.9904
  178MOL0     C23404  -0.437   4.847   0.709  1.1885  1.2922 -0.2288
  178MOL0     C23405  -0.520   4.824   0.584  0.3294  0.7391  0.1262
  178MOL0     C23406  -0.672   4.827   0.625  0.4224 -0.0732 -0.2963
  178MOL0     C23407  -0.761   4.805   0.501 -0.0546 -0.9193 -0.5608
  178MOL0    Cl23408  -0.940   4.778   0.557 -0.3105 -0.3092 -0.0813
  178MOL0     C23409   0.348   5.046   0.653 -0.0904 -0.2371  0.1285
  178MOL0     C23410   0.454   4.969   0.612 -0.4663  0.4442 -0.1601
  178MOL0     O23411   0.574   4.878   0.245 -0.1133  0.3665 -0.4466
  178MOL0     C23412   0.790   4.663   0.454 -1.0960  0.1490  0.3592
  178MOL0     C23413   0.900   4.572   0.438 -0.1499 -1.3479 -0.6989
  178MOL0     N23414   1.420   4.220   0.609  0.2266 -0.7621 -0.2579
  178MOL0     N23415   1.425   4.170   0.733  0.2684  0.2164  0.0374
  178MOL0     C23416   0.375   4.471   0.946  0.0361 -0.5799  0.6119
  178MOL0     C23417   0.241   4.448   0.921 -0.8003 -0.1186  0.7911
  178MOL0     C23418  -0.140   4.398   0.629  0.0975  0.3464 -0.0531
  178MOL0     C23419  -0.227   4.467   0.712 -0.4956  0.2604  0.4667
  178MOL0     C23420  -0.360   4.463   0.688  0.0220 -0.9253 -1.0378
  178MOL0     C23421  -0.416   4.391   0.595 -0.2612  0.6804 -0.4471
  178MOL0     O23422  -0.552   4.381   0.571  0.4157  0.7776 -0.2571
  178MOL0     C23423  -0.626   4.328   0.682 -0.1109 -0.7735 -0.3862
  178MOL0     C23424  -0.760   4.324   0.619  0.1674 -0.1833  0.6311
  178MOL0     C23425  -0.860   4.270   0.716  0.0389  0.0882 -0.7714
  178MOL0     C23426  -1.011   4.295   0.671 -0.1443  0.5323  0.2244
  178MOL0     C23427  -1.087   4.317   0.790  0.1994 -0.2931 -0.7641
  178MOL0     C23428  -1.146   4.325   0.898 -0.4327  0.6056  0.2418
  178MOL0     C23429  -0.334   4.328   0.506 -0.0446 -0.5676  0.0947
  178MOL0     C23430  -0.195   4.324   0.531  0.7053 -0.4024  0.1761
  178MOL0     H23431   0.236   4.553   0.581 -0.4183 -0.4429 -0.4901
  178MOL0     H23432   0.452   4.611   0.641 -0.0844 -0.8826 -0.7916
  178MOL0     H23433   0.771   4.485   0.804 -0.7628  1.8114  1.4695
  178MOL0     H23434   0.628   4.362   0.790  0.7153 -0.8965  0.4002
  178MOL0     H23435   0.634   4.336   1.027  3.0981 -2.4632  2.9265
  178MOL0     H23436   0.768   4.456   1.038  0.9640  0.5861  0.4306
  178MOL0     H23437   0.904   4.307   0.881  0.3371  1.1255  0.1732
  178MOL0     H23438   0.782   4.184   0.905  0.0262 -0.7152  0.2871
  178MOL0     H23439   0.936   4.314   1.122  1.3840 -2.1627  0.6124
  178MOL0     H23440   0.811   4.196   1.138 -2.8614 -0.2461 -3.2895
  178MOL0     H23441   0.939   4.037   1.003  0.2203  0.8116 -0.6102
  178MOL0     H23442   1.039   4.081   1.145  0.9537  0.9594 -0.3046
  178MOL0     H23443   1.067   4.181   0.871 -0.9034  0.1515  0.6588
  178MOL0     H23444   1.178   4.067   0.956  1.8083  0.7095  3.1404
  178MOL0     H23445   1.174   4.369   1.005  1.3763  0.1094 -0.4692
  178MOL0     H23446   1.214   4.239   1.124 -3.8911 -0.8502  0.0904
  178MOL0     H23447   1.407   4.153   0.981  1.6475  1.5594  0.9387
  178MOL0     H23448   1.430   4.321   1.013  0.1897  0.8709 -0.9478
  178MOL0     H23449   1.277   4.445   0.787 -0.4277 -1.7189  1.0132
  178MOL0     H23450   1.383   4.536   0.526 -2.0133  0.9167 -0.9687
  178MOL0     H23451   1.222   4.466   0.532 -0.3108 -0.3186  1.7188
  178MOL0     H23452   1.304   4.299   0.347  0.9795 -1.3961 -2.5245
  178MOL0     H23453   1.453   4.390   0.349 -0.9296 -0.8581  0.7315
  178MOL0     H23454   1.285   4.604   0.337  0.9646 -0.5376  0.5149
  178MOL0     H23455   1.374   4.526   0.212  0.8492 -2.6977  1.8491
  178MOL0     H23456   1.164   4.387   0.150 -2.4836 -0.3721  0.3460
  178MOL0     H23457   1.143   4.549   0.114  2.8506 -2.1871 -1.5900
  178MOL0     H23458   0.954   4.633   0.104  2.0434 -1.5483  0.9621
  178MOL0     H23459   0.783   4.793   0.142  3.5170  1.7720 -0.2404
  178MOL0     H23460   0.311   4.795   0.364 -2.6615  1.3005 -1.2310
  178MOL0     H23461   0.104   4.894   0.459  1.4558  0.0383 -0.5534
  178MOL0     H23462  -0.043   5.012   0.538  1.7463  2.4327 -0.9141
  178MOL0     H23463  -0.094   5.110   0.675 -0.3468 -0.0810  0.2169
  178MOL0     H23464   0.017   4.916   0.825 -1.4665 -1.2768 -0.0673
  178MOL0     H23465  -0.002   4.818   0.679  0.6732 -0.1842 -0.0665
  178MOL0     H23466  -0.216   4.959   0.852  0.2663 -1.1746  0.6341
  178MOL0     H23467  -0.185   4.783   0.813  4.1119  0.0257  1.9865
  178MOL0     H23468  -0.308   4.999   0.624  0.7016  1.4645  1.4995
  178MOL0     H23469  -0.261   4.832   0.589 -0.6637 -0.2293 -1.0831
  178MOL0     H23470  -0.484   4.920   0.776 -2.0167  1.3410 -2.2806
  178MOL0     H23471  -0.422   4.749   0.753  1.8617  1.0626 -0.9535
  178MOL0     H23472  -0.498   4.727   0.538  0.3078  0.9052 -0.2360
  178MOL0     H23473  -0.501   4.903   0.511  1.0516  0.3805 -0.0816
  178MOL0     H23474  -0.691   4.742   0.692  0.2111  0.1164 -0.1116
  178MOL0     H23475  -0.705   4.919   0.674 -3.2507 -1.6074  0.4797
  178MOL0     H23476  -0.729   4.706   0.466 -0.2493 -1.3804  0.4912
  178MOL0     H23477  -0.761   4.886   0.428 -2.3114  0.6531  1.0520
  178MOL0     H23478   0.361   5.115   0.736 -1.9566 -1.5578  1.5923
  178MOL0     H23479   0.548   5.003   0.655  0.0538  1.0137 -1.6691
  178MOL0     H23480   0.753   4.672   0.556 -0.7843 -0.8726  0.5725
  178MOL0     H23481   0.929   4.517   0.527  0.7768  0.3274  0.0925
  178MOL0     H23482   0.412   4.452   1.046  2.0978  2.4130  0.5591
  178MOL0     H23483   0.182   4.390   0.992 -1.8332 -1.0389 -0.7606
  178MOL0     H23484  -0.189   4.527   0.793  1.5535  2.6375 -2.0367
  178MOL0     H23485  -0.422   4.520   0.757 -0.8484 -3.3523  0.3071
  178MOL0     H23486  -0.614   4.390   0.772  0.5613 -1.7759  0.2343
  178MOL0     H23487  -0.592   4.230   0.717 -0.5518 -0.7221  0.2016
  178MOL0     H23488  -0.775   4.427   0.587  0.6507 -0.1746  0.4300
  178MOL0     H23489  -0.778   4.256   0.534  0.0239 -1.2416  1.4882
  178MOL0     H23490  -0.844   4.304   0.819  1.0464 -2.1966 -0.1011
  178MOL0     H23491  -0.847   4.163   0.733 -1.3863  0.1680  1.1379
  178MOL0     H23492  -1.020   4.389   0.615  1.0829  0.2241 -0.5312
  178MOL0     H23493  -1.041   4.211   0.609  0.0891  0.7503 -0.1910
  178MOL0     H23494  -1.187   4.340   0.996  1.0109  0.5217  0.8762
  178MOL0     H23495  -0.380   4.270   0.426 -2.7271  0.3992  0.8118
  178MOL0     H23496  -0.129   4.266   0.468  1.1452  1.9308 -1.6399
  179MOL0     O23497  10.650   6.095   0.038 -0.5494  0.9566 -0.0838
  179MOL0     C23498  10.643   6.039   0.149  0.3349 -1.0102 -0.6107
  179MOL0     O23499  10.530   6.030   0.226 -0.7748  0.2387  0.3557
  179MOL0     C23500  10.406   6.050   0.171  0.2056 -0.1289 -0.5774
  179MOL0     C23501  10.317   6.132   0.239 -0.2681  0.2663  0.1599
  179MOL0     C23502  10.193   6.158   0.187  0.6381 -0.3713 -0.3732
  179MOL0     C23503  10.144   6.094   0.073 -0.8533 -0.6106 -0.7573
  179MOL0     O23504  10.016   6.112   0.026  0.4331  0.3570 -0.4491
  179MOL0     C23505   9.938   5.999  -0.009  0.1200  0.5068  0.3377
  179MOL0     C23506   9.910   5.905   0.105  0.3166  0.9856  0.2638
  179MOL0     C23507   9.847   5.975   0.220 -0.4056  0.5283 -0.0112
  179MOL0     C23508   9.782   5.867   0.314  0.0061 -0.0957  0.3890
  179MOL0     C23509   9.704   5.947   0.411 -0.4210  0.4234 -0.0411
  179MOL0     C23510   9.625   5.854   0.507  0.0779 -0.2780 -0.3028
  179MOL0     C23511   9.532   5.926   0.620 -0.0988  0.5777 -0.2424
  179MOL0     C23512   9.598   6.022   0.720  0.7020  0.9804  0.7487
  179MOL0     N23513   9.682   5.957   0.815 -0.0914  0.4923 -0.5552
  179MOL0     C23514   9.648   5.930   0.946 -0.4726  0.9149  0.2845
  179MOL0     C23515   9.735   5.838   0.998 -1.6501  0.0738  0.2849
  179MOL0     C23516   9.733   5.786   1.139  0.0258 -0.5340 -0.3671
  179MOL0     C23517   9.646   5.659   1.141  0.5195  0.2801  0.7917
  179MOL0     C23518   9.495   5.684   1.161 -0.1994  0.3354  0.3018
  179MOL0     C23519   9.404   5.561   1.179  0.1046  0.0949 -0.2169
  179MOL0     O23520   9.398   5.549   1.321  0.2925 -0.0252 -0.5485
  179MOL0     C23521   9.276   5.510   1.384 -0.5111 -0.3325 -0.0320
  179MOL0     C23522   9.205   5.403   1.340  0.3513  0.0795 -0.9302
  179MOL0     C23523   9.087   5.377   1.409 -0.8647 -0.2521  0.5624
  179MOL0     C23524   9.052   5.443   1.526  0.9038 -0.2516  1.0895
  179MOL0     C23525   8.925   5.406   1.599  1.2248  0.2563 -1.0916
  179MOL0     O23526   8.835   5.342   1.511  0.6298 -0.0284  0.5367
  179MOL0     C23527   8.698   5.345   1.522  0.3688 -0.1998 -0.1897
  179MOL0     C23528   8.620   5.371   1.405  0.1710 -0.4183 -0.6697
  179MOL0     C23529   8.481   5.375   1.423 -0.3488  0.3730  0.3125
  179MOL0     C23530   8.422   5.353   1.550 -0.4295 -0.0112 -0.5325
  179MOL0     O23531   8.291   5.380   1.553  0.0069  0.3846 -0.2882
  179MOL0     C23532   8.240   5.456   1.665 -0.3608  0.8077 -0.1718
  179MOL0     C23533   8.295   5.598   1.679 -0.0173  0.2520 -0.4930
  179MOL0     C23534   8.222   5.670   1.797  0.1272  0.2196 -0.3909
  179MOL0     C23535   8.227   5.828   1.756 -0.2905 -0.8878  0.3561
  179MOL0     C23536   8.157   5.932   1.843  0.1793  0.4676  0.8594
  179MOL0     C23537   8.009   5.905   1.820  0.2135 -0.5156 -0.3214
  179MOL0     C23538   7.922   5.960   1.935 -0.8910  0.8623 -0.7478
  179MOL0     C23539   7.951   6.106   1.955  0.6828  0.3195  0.0466
  179MOL0    Cl23540   7.793   6.180   1.990  0.1514  0.3714 -0.5632
  179MOL0     C23541   8.505   5.317   1.663 -0.6600  0.6437  0.0098
  179MOL0     C23542   8.642   5.310   1.648  0.7894  0.2612  0.2479
  179MOL0     O23543   8.891   5.452   1.714 -0.0849  0.1182  0.1659
  179MOL0     C23544   9.122   5.556   1.564 -0.0318 -1.1865 -0.1760
  179MOL0     C23545   9.239   5.582   1.494  1.0024 -0.4973 -0.0331
  179MOL0     N23546   9.823   5.813   0.893 -0.7590  0.1855 -0.4767
  179MOL0     N23547   9.791   5.879   0.784  0.3159  0.3295 -0.1472
  179MOL0     C23548  10.224   5.995   0.025  0.4683  0.1156 -0.4825
  179MOL0     C23549  10.355   5.970   0.068 -0.4825 -0.2556  1.1020
  179MOL0     C23550  10.775   6.022   0.210  0.1024  0.8446  0.1925
  179MOL0     C23551  10.776   5.953   0.332  0.0958 -0.6181 -0.1162
  179MOL0     C23552  10.902   5.923   0.392  0.5340  0.1991  0.3965
  179MOL0     C23553  11.022   5.956   0.336  0.3015  0.9072 -0.8124
  179MOL0     O23554  11.136   5.932   0.412 -0.2275 -0.8757  0.2057
  179MOL0     C23555  11.178   5.793   0.432  0.9764 -0.2140 -0.1956
  179MOL0     C23556  11.213   5.722   0.303 -0.8998  1.0322  0.0185
  179MOL0     C23557  11.303   5.605   0.324 -0.4104  0.8344  0.8078
  179MOL0     C23558  11.335   5.520   0.204 -0.7679 -0.2191 -0.1821
  179MOL0     C23559  11.420   5.601   0.111 -0.2438 -0.5521  0.7139
  179MOL0     C23560  11.486   5.652   0.023 -0.3751 -0.0883 -0.3190
  179MOL0     C23561  11.018   6.029   0.225 -0.3572  0.1164  0.3325
  179MOL0     C23562  10.898   6.054   0.156  0.1201  0.7183 -0.0800
  179MOL0     H23563  10.347   6.170   0.336  0.0563  0.1372  0.1099
  179MOL0     H23564  10.138   6.236   0.239  1.5070  0.6450 -0.9323
  179MOL0     H23565   9.989   5.944  -0.088  0.3223 -1.8069  1.9539
  179MOL0     H23566   9.849   6.047  -0.052 -0.2668  0.4614  1.0642
  179MOL0     H23567   9.992   5.847   0.149  2.1261  3.2231  0.0228
  179MOL0     H23568   9.833   5.835   0.070 -0.0709  0.7767  1.4780
  179MOL0     H23569   9.785   6.063   0.200  1.9582  1.9517 -1.5976
  179MOL0     H23570   9.930   6.022   0.276 -1.8393  3.0065  0.2019
  179MOL0     H23571   9.704   5.815   0.258  3.0350 -2.3217 -2.1527
  179MOL0     H23572   9.848   5.784   0.343  0.9744  0.1429 -1.0288
  179MOL0     H23573   9.637   6.010   0.351 -0.3264 -0.3585 -0.9847
  179MOL0     H23574   9.773   6.009   0.470  2.4025 -2.5207  0.0599
  179MOL0     H23575   9.687   5.780   0.558  0.4534  1.4586  1.9260
  179MOL0     H23576   9.555   5.797   0.446  2.0799  0.4876 -3.5314
  179MOL0     H23577   9.451   5.989   0.580 -0.7570  2.7512  3.9054
  179MOL0     H23578   9.480   5.843   0.667 -1.4737  2.4103  1.6709
  179MOL0     H23579   9.522   6.082   0.771  0.6212  2.0322 -0.5635
  179MOL0     H23580   9.667   6.083   0.663  0.9165  0.5264  0.5175
  179MOL0     H23581   9.568   5.977   1.004  0.5667  0.8025  1.8849
  179MOL0     H23582   9.708   5.861   1.215 -2.9255 -1.5911 -0.1630
  179MOL0     H23583   9.830   5.748   1.172  0.1980 -3.6311 -3.7370
  179MOL0     H23584   9.676   5.603   1.230  1.1506 -0.5579  0.0665
  179MOL0     H23585   9.666   5.594   1.056 -2.6401 -1.1471  1.0291
  179MOL0     H23586   9.492   5.750   1.248 -1.3993  1.9263 -0.8810
  179MOL0     H23587   9.462   5.740   1.072 -1.0754  0.1964  0.5256
  179MOL0     H23588   9.448   5.476   1.126  0.0201 -0.2840  0.3080
  179MOL0     H23589   9.302   5.586   1.146  0.0325  2.9831  1.7730
  179MOL0     H23590   9.243   5.330   1.270  1.0497 -1.3748  0.8737
  179MOL0     H23591   9.031   5.289   1.380 -0.8091  0.2909 -1.3171
  179MOL0     H23592   8.651   5.408   1.308 -0.1649  3.1810  0.4575
  179MOL0     H23593   8.411   5.384   1.340  0.9574 -2.8113 -1.2987
  179MOL0     H23594   8.256   5.399   1.757 -4.7919  0.4660  0.6577
  179MOL0     H23595   8.131   5.453   1.656 -0.2054  0.9186 -2.7151
  179MOL0     H23596   8.268   5.651   1.587 -0.1310  3.5830  1.3098
  179MOL0     H23597   8.404   5.607   1.684 -0.0185  3.0223 -2.6548
  179MOL0     H23598   8.280   5.653   1.888 -0.1681  2.5029  0.2953
  179MOL0     H23599   8.123   5.632   1.824  1.0366 -0.7628  1.8738
  179MOL0     H23600   8.335   5.846   1.768  0.1492 -3.5709  0.9909
  179MOL0     H23601   8.214   5.857   1.651  0.3713 -1.5045  0.0915
  179MOL0     H23602   8.196   6.030   1.815  3.8648 -0.5280  1.9975
  179MOL0     H23603   8.174   5.921   1.950  0.2357  0.5486  0.8588
  179MOL0     H23604   7.986   5.798   1.829  0.8027 -0.5649  0.9938
  179MOL0     H23605   7.979   5.945   1.723 -2.3129  0.6298  0.8445
  179MOL0     H23606   7.814   5.944   1.929 -1.3286  2.2024  1.9986
  179MOL0     H23607   7.952   5.900   2.022  1.8814 -0.0298 -2.2021
  179MOL0     H23608   7.984   6.162   1.867  3.2292 -3.5452 -1.7593
  179MOL0     H23609   8.015   6.127   2.041  1.0145  1.1454 -0.3881
  179MOL0     H23610   8.463   5.300   1.762 -1.3547  2.1549  0.0066
  179MOL0     H23611   8.691   5.281   1.740 -1.2934 -1.3642  0.9312
  179MOL0     H23612   9.082   5.609   1.650  1.5195 -1.9048  1.0466
  179MOL0     H23613   9.283   5.680   1.502 -2.0791  1.1004 -0.8686
  179MOL0     H23614  10.190   5.924  -0.049  0.3996 -0.8042  0.4186
  179MOL0     H23615  10.421   5.894   0.029  2.3278  3.6129 -2.6657
  179MOL0     H23616  10.685   5.913   0.376 -1.9769  1.2123 -2.4816
  179MOL0     H23617  10.913   5.871   0.487  0.8376  0.5554  0.5620
  179MOL0     H23618  11.102   5.745   0.494  1.1733 -0.3964 -0.0974
  179MOL0     H23619  11.264   5.795   0.498 -1.4129  1.4336  3.1813
  179MOL0     H23620  11.119   5.684   0.261  0.1751 -1.0283 -0.6897
  179MOL0     H23621  11.264   5.784   0.230  0.9642 -0.2944  0.1305
  179MOL0     H23622  11.272   5.536   0.403 -0.1675 -0.0742  0.1140
  179MOL0     H23623  11.398   5.648   0.360  0.3130  0.9856 -1.1749
  179MOL0     H23624  11.390   5.428   0.230  2.9880  1.9636  0.3965
  179MOL0     H23625  11.248   5.500   0.141 -1.0486  3.6942 -1.2967
  179MOL0     H23626  11.536   5.700  -0.059  1.6180 -0.2095  0.7582
  179MOL0     H23627  11.112   6.069   0.187 -2.0124  2.3494 -1.7424
  179MOL0     H23628  10.898   6.106   0.061  1.2793  1.6624  0.4238
  180MOL0     O23629  11.243   0.365   4.575 -0.3820  0.6276 -0.7571
  180MOL0     C23630  11.229   0.441   4.482 -0.0680  0.2634 -0.6069
  180MOL0     O23631  11.318   0.479   4.385  0.2925 -0.3594 -0.0118
  180MOL0     C23632  11.455   0.453   4.381  0.1365  0.3945  0.2648
  180MOL0     C23633  11.521   0.490   4.263  0.3075  0.2195 -0.0914
  180MOL0     C23634  11.657   0.469   4.239  0.6075  0.3313 -0.4004
  180MOL0     C23635  11.737   0.425   4.341 -0.5996  1.2505 -0.4232
  180MOL0     O23636  11.873   0.425   4.323  0.1084 -0.3274 -0.1261
  180MOL0     C23637  11.947   0.480   4.434  0.9314  0.7267 -0.0093
  180MOL0     C23638  12.091   0.515   4.394  0.6171  0.6065  0.1833
  180MOL0     C23639  12.092   0.623   4.277 -0.2443  0.5017  0.3984
  180MOL0     C23640  12.020   0.759   4.304  0.5932 -0.0492  0.3756
  180MOL0     C23641  12.072   0.869   4.209 -0.2607 -0.6775 -0.6462
  180MOL0     C23642  12.065   0.827   4.067 -0.0246  0.1359 -0.5631
  180MOL0     C23643  12.105   0.939   3.961  1.0432  0.6275  0.2525
  180MOL0     C23644  12.170   0.877   3.834  0.2397 -0.5182 -0.2137
  180MOL0     N23645  12.303   0.821   3.868  0.0092 -0.4003  0.4485
  180MOL0     C23646  12.395   0.863   3.957 -0.0977 -0.9691 -0.1294
  180MOL0     C23647  12.495   0.769   3.969 -0.0876 -0.2683  0.9181
  180MOL0     C23648  12.622   0.773   4.051 -0.0254 -0.1740 -0.1352
  180MOL0     C23649  12.622   0.702   4.180 -0.5442  0.0128 -0.8947
  180MOL0     C23650  12.721   0.757   4.287  0.7121  0.8561 -0.4995
  180MOL0     C23651  12.859   0.718   4.251 -0.5200 -0.0367  0.2866
  180MOL0     O23652  12.916   0.803   4.144 -0.5383  0.1356 -0.1499
  180MOL0     C23653  13.052   0.810   4.145 -0.0015  0.4991  0.3476
  180MOL0     C23654  13.108   0.924   4.096  0.4661 -0.8083 -0.1145
  180MOL0     C23655  13.248   0.940   4.092  0.4460 -0.1629 -0.8211
  180MOL0     C23656  13.330   0.844   4.136  0.1933  0.5038  0.8381
  180MOL0     C23657  13.478   0.868   4.138  0.0307 -0.1183 -0.1727
  180MOL0     O23658  13.547   0.779   4.203  0.7231  0.3411 -0.7223
  180MOL0     C23659  13.675   0.746   4.164 -0.0916 -0.8655 -0.4963
  180MOL0     C23660  13.760   0.706   4.263 -0.4606  0.6330  0.4054
  180MOL0     C23661  13.881   0.645   4.232 -0.2245 -0.0733  0.4428
  180MOL0     C23662  13.924   0.622   4.098  0.6039  0.3313 -0.8164
  180MOL0     O23663  14.038   0.558   4.063  0.3088 -0.4017 -0.0529
  180MOL0     C23664  14.159   0.570   4.139 -0.0057 -0.0832  0.8529
  180MOL0     C23665  14.231   0.428   4.137 -0.3351 -0.4651 -0.7116
  180MOL0     C23666  14.240   0.356   4.007 -0.0098 -0.2049  0.4656
  180MOL0     C23667  14.386   0.305   3.976 -0.2828  0.2498 -1.0124
  180MOL0     C23668  14.460   0.430   3.925  0.5966  0.8429  0.6128
  180MOL0     C23669  14.612   0.392   3.920 -0.1360 -0.0952 -0.0976
  180MOL0     C23670  14.707   0.473   3.829  0.0558  0.2062 -0.6918
  180MOL0     C23671  14.689   0.619   3.841 -0.0754  0.2341  0.1256
  180MOL0    Cl23672  14.819   0.698   3.775 -0.0620 -0.3774  0.0446
  180MOL0     C23673  13.839   0.668   3.994  0.4520 -0.2216  0.1419
  180MOL0     C23674  13.719   0.728   4.028 -0.0102  0.3919  0.2195
  180MOL0     O23675  13.521   0.966   4.071 -0.6830 -0.6245  0.0152
  180MOL0     C23676  13.279   0.723   4.190 -0.0745  0.7379 -0.8195
  180MOL0     C23677  13.141   0.717   4.199  0.7617 -0.0401 -0.3894
  180MOL0     N23678  12.460   0.670   3.880 -0.4318 -0.2844  0.8856
  180MOL0     N23679  12.344   0.700   3.829  0.4282 -0.0309 -0.5336
  180MOL0     C23680  11.670   0.388   4.468 -0.6015 -0.4036  0.1949
  180MOL0     C23681  11.537   0.408   4.485 -0.2227 -0.4378 -0.2696
  180MOL0     C23682  11.093   0.477   4.447  0.0750 -0.3678  0.6571
  180MOL0     C23683  11.068   0.569   4.342  0.7921  0.5354 -0.2020
  180MOL0     C23684  10.930   0.599   4.292  0.2674 -0.3428 -1.3307
  180MOL0     C23685  10.820   0.537   4.351  0.4084 -0.1843 -0.5987
  180MOL0     O23686  10.686   0.572   4.314  0.0418  0.6277  0.3769
  180MOL0     C23687  10.624   0.464   4.241  0.0911 -0.3616 -0.8125
  180MOL0     C23688  10.474   0.453   4.276 -1.1509  0.2084 -0.2096
  180MOL0     C23689  10.390   0.565   4.225  0.3661 -0.4602  0.4020
  180MOL0     C23690  10.262   0.589   4.314 -0.6474 -0.6010  0.6241
  180MOL0     C23691  10.174   0.673   4.237 -0.0918 -0.4027 -0.0351
  180MOL0     C23692  10.111   0.737   4.152  0.6749 -0.0073  0.0433
  180MOL0     C23693  10.850   0.463   4.471 -0.5278  0.5622 -0.7762
  180MOL0     C23694  10.983   0.429   4.512  0.1141  0.2976  0.1969
  180MOL0     H23695  11.472   0.528   4.174 -1.3962 -1.3191  0.1274
  180MOL0     H23696  11.711   0.501   4.150  1.6024 -0.4645 -0.1165
  180MOL0     H23697  11.946   0.408   4.517  1.6353 -1.0255 -1.4563
  180MOL0     H23698  11.897   0.575   4.451 -2.6804 -0.9312 -0.4730
  180MOL0     H23699  12.148   0.427   4.362 -1.3657  0.2390 -2.7117
  180MOL0     H23700  12.141   0.554   4.483 -0.3961  1.5164  0.3709
  180MOL0     H23701  12.065   0.578   4.181  4.5731 -1.6235 -0.2666
  180MOL0     H23702  12.195   0.660   4.268 -0.8150  3.2856  3.3792
  180MOL0     H23703  11.911   0.750   4.296  0.4494 -0.6326  2.3589
  180MOL0     H23704  12.036   0.789   4.408 -2.7038 -1.6531  1.5044
  180MOL0     H23705  12.176   0.886   4.238 -0.5027 -3.0331  2.0151
  180MOL0     H23706  12.012   0.959   4.225 -0.0406 -0.1117 -2.6738
  180MOL0     H23707  11.969   0.778   4.045  1.3534 -1.9447 -2.4409
  180MOL0     H23708  12.139   0.747   4.056 -2.0653 -1.9913  0.1659
  180MOL0     H23709  12.018   1.000   3.935  1.3884  0.7782 -0.5626
  180MOL0     H23710  12.172   1.009   4.012  1.8076 -0.3644  0.6438
  180MOL0     H23711  12.177   0.955   3.757 -0.9324  0.1990  0.3749
  180MOL0     H23712  12.097   0.803   3.803 -0.8844  0.9023 -1.0849
  180MOL0     H23713  12.385   0.959   4.006 -2.7547 -1.4418  0.3792
  180MOL0     H23714  12.658   0.875   4.064  2.1825 -0.9604  0.3043
  180MOL0     H23715  12.705   0.733   3.992 -1.0645 -0.3634 -1.5284
  180MOL0     H23716  12.642   0.595   4.173 -1.1828  0.0021 -4.0293
  180MOL0     H23717  12.519   0.703   4.217 -0.4721 -2.3413 -0.4915
  180MOL0     H23718  12.710   0.865   4.297  2.0847  0.8728  1.5664
  180MOL0     H23719  12.690   0.708   4.380  0.3555 -0.8164 -1.4724
  180MOL0     H23720  12.852   0.613   4.221 -2.2318  0.7625 -2.4685
  180MOL0     H23721  12.920   0.746   4.338 -1.4434 -0.3874  1.0656
  180MOL0     H23722  13.036   0.997   4.059 -1.1089  0.0037  3.9922
  180MOL0     H23723  13.280   1.037   4.055 -1.4154  1.6261  1.8900
  180MOL0     H23724  13.720   0.709   4.364 -0.7320  2.1082  0.2811
  180MOL0     H23725  13.948   0.610   4.310 -0.2941 -1.6786 -0.1708
  180MOL0     H23726  14.142   0.602   4.243 -0.0247  0.9139  0.5498
  180MOL0     H23727  14.223   0.640   4.085 -0.9506 -0.0620 -0.2694
  180MOL0     H23728  14.157   0.370   4.193  2.3365 -3.3446  0.1130
  180MOL0     H23729  14.323   0.429   4.195 -1.6677 -1.0341  1.5514
  180MOL0     H23730  14.219   0.429   3.928  0.0433 -1.7716 -1.0475
  180MOL0     H23731  14.178   0.266   4.006  0.4796 -0.5457 -0.5660
  180MOL0     H23732  14.424   0.255   4.065 -2.7658  0.2703  0.1576
  180MOL0     H23733  14.384   0.233   3.894  2.4104 -2.2550  0.9345
  180MOL0     H23734  14.444   0.523   3.980  2.0694 -0.5770  3.6806
  180MOL0     H23735  14.420   0.451   3.825 -4.3249 -1.9012  1.7007
  180MOL0     H23736  14.620   0.293   3.875 -1.7180  0.7754 -2.5184
  180MOL0     H23737  14.648   0.394   4.023 -2.6199 -1.9082  0.8898
  180MOL0     H23738  14.810   0.438   3.843  0.0406  0.4964  0.2158
  180MOL0     H23739  14.682   0.452   3.724  2.0024  0.8388 -1.3264
  180MOL0     H23740  14.670   0.649   3.944  0.4126  0.3879  0.1745
  180MOL0     H23741  14.599   0.652   3.788 -0.3496  1.4657  1.2845
  180MOL0     H23742  13.858   0.635   3.892 -1.0705  0.8793 -0.5544
  180MOL0     H23743  13.653   0.751   3.945 -1.7023 -2.3656  0.6624
  180MOL0     H23744  13.346   0.647   4.229 -1.0795  0.0140 -0.4591
  180MOL0     H23745  13.106   0.628   4.251 -0.0661  0.9246  0.7666
  180MOL0     H23746  11.736   0.351   4.546 -1.1840  2.1950  2.0605
  180MOL0     H23747  11.504   0.380   4.585  1.5922  0.0684  0.5147
  180MOL0     H23748  11.136   0.635   4.289  4.2041 -0.7034  2.3247
  180MOL0     H23749  10.912   0.671   4.214 -0.6010  0.1581 -0.6869
  180MOL0     H23750  10.663   0.369   4.279 -1.3545  0.3036  2.7682
  180MOL0     H23751  10.636   0.478   4.133 -3.2812 -0.6130 -1.3275
  180MOL0     H23752  10.440   0.361   4.228  0.5675 -0.6976  0.2224
  180MOL0     H23753  10.467   0.453   4.385 -0.0951  1.2228 -0.1195
  180MOL0     H23754  10.358   0.529   4.126 -0.1917  0.7301  0.1270
  180MOL0     H23755  10.448   0.654   4.196  0.7845 -0.9112 -0.1640
  180MOL0     H23756  10.222   0.494   4.350  1.0351 -0.4405  3.1910
  180MOL0     H23757  10.294   0.644   4.403  2.7057 -0.0881 -0.7776
  180MOL0     H23758  10.050   0.773   4.072  1.8956  1.2206 -0.3805
  180MOL0     H23759  10.772   0.434   4.541 -0.3555 -1.6463 -1.4068
  180MOL0     H23760  11.016   0.361   4.590  1.0596 -1.2438 -1.4721
  181MOL0     O23761  10.017   0.466   2.747 -0.0454 -0.0301  0.0824
  181MOL0     C23762  10.094   0.521   2.821 -1.2193 -0.1113  0.1666
  181MOL0     O23763  10.230   0.490   2.825 -0.2616  1.1559  0.3730
  181MOL0     C23764  10.294   0.405   2.737 -0.9460  0.0297  0.8743
  181MOL0     C23765  10.239   0.314   2.648 -0.3422  0.1750 -0.0837
  181MOL0     C23766  10.318   0.234   2.570  0.4040 -0.0034  0.4727
  181MOL0     C23767  10.455   0.248   2.573 -1.1659  0.5541  0.4329
  181MOL0     O23768  10.518   0.155   2.489  0.5969 -0.4886 -0.5427
  181MOL0     C23769  10.655   0.125   2.497 -0.5350  0.6495 -0.2914
  181MOL0     C23770  10.744   0.215   2.406  0.6521  0.1719  0.5695
  181MOL0     C23771  10.886   0.187   2.443 -0.3823 -0.2833 -0.0898
  181MOL0     C23772  10.984   0.265   2.358 -0.0995 -0.3613  0.6439
  181MOL0     C23773  11.117   0.276   2.441  0.0183 -0.0006  0.6450
  181MOL0     C23774  11.204   0.405   2.421  0.2043  1.0309 -0.2141
  181MOL0     C23775  11.282   0.397   2.298 -0.4495  0.2849 -0.4458
  181MOL0     C23776  11.370   0.523   2.281 -0.4020 -0.0338 -0.0851
  181MOL0     N23777  11.466   0.496   2.175  0.1367 -0.1637 -0.4220
  181MOL0     C23778  11.444   0.464   2.038 -0.1784 -0.2143 -0.4389
  181MOL0     C23779  11.569   0.460   1.980  0.3225 -0.3124 -0.1000
  181MOL0     C23780  11.587   0.424   1.836  0.6200 -0.6730  0.2803
  181MOL0     C23781  11.624   0.273   1.826  0.6513  0.2198 -0.7596
  181MOL0     C23782  11.651   0.210   1.689 -0.5129 -0.3617  0.4350
  181MOL0     C23783  11.687   0.312   1.587 -0.9994  0.3772  0.0882
  181MOL0     O23784  11.705   0.237   1.464  0.7602 -0.3229  0.6453
  181MOL0     C23785  11.824   0.184   1.423 -0.3160  0.2033 -0.3284
  181MOL0     C23786  11.814   0.107   1.314  0.6065 -0.1690  0.4661
  181MOL0     C23787  11.921   0.038   1.257 -0.4357  0.7464  0.5123
  181MOL0     C23788  12.052   0.059   1.301 -0.1887 -0.0170  0.0572
  181MOL0     C23789  12.169   0.010   1.237 -0.3675 -0.0468  0.2461
  181MOL0     O23790  12.163  -0.030   1.105 -0.0074  0.5715 -0.8128
  181MOL0     C23791  12.276  -0.086   1.047 -0.1858  0.4353 -0.1455
  181MOL0     C23792  12.406  -0.032   1.060 -0.8516  0.5829 -0.0803
  181MOL0     C23793  12.515  -0.088   0.984  0.1777 -0.5302 -0.3854
  181MOL0     C23794  12.499  -0.189   0.882  0.6348  0.8359 -0.3642
  181MOL0     O23795  12.606  -0.247   0.827  0.2768  0.3928  0.5833
  181MOL0     C23796  12.637  -0.197   0.689  0.1267 -0.0016  0.2937
  181MOL0     C23797  12.722  -0.306   0.629  1.2291  0.4042  0.0677
  181MOL0     C23798  12.773  -0.274   0.496  0.2391 -0.3648 -0.2309
  181MOL0     C23799  12.682  -0.252   0.379 -0.6703  0.3910  0.3022
  181MOL0     C23800  12.745  -0.206   0.250  0.2990  0.9310 -0.1448
  181MOL0     C23801  12.868  -0.302   0.215 -0.3529  0.5001  0.2548
  181MOL0     C23802  12.884  -0.305   0.063 -0.0044 -0.1715 -0.1731
  181MOL0     C23803  12.945  -0.173   0.004  0.3567  0.1455 -0.1277
  181MOL0    Cl23804  13.092  -0.199  -0.106  0.0717 -0.3712  0.0494
  181MOL0     C23805  12.362  -0.240   0.865 -0.8301 -0.1490 -0.2701
  181MOL0     C23806  12.262  -0.184   0.946 -0.6089  0.7341  0.0822
  181MOL0     O23807  12.263  -0.007   1.308  0.0303 -0.0270  0.0991
  181MOL0     C23808  12.067   0.144   1.420  0.5339  1.1574 -0.3077
  181MOL0     C23809  11.954   0.197   1.477 -0.0389  0.2302  0.5588
  181MOL0     N23810  11.660   0.495   2.075  0.1043 -0.1526 -0.2319
  181MOL0     N23811  11.605   0.507   2.196  0.0926 -0.6447  0.8509
  181MOL0     C23812  10.520   0.352   2.642 -0.3192  0.0587  0.1782
  181MOL0     C23813  10.434   0.422   2.726  0.6228  0.0568 -0.6590
  181MOL0     C23814  10.046   0.620   2.919  0.6181 -0.1954 -0.3420
  181MOL0     C23815  10.106   0.623   3.050 -0.8119 -0.2521 -0.3231
  181MOL0     C23816  10.058   0.722   3.138 -0.0114  0.0622  0.1019
  181MOL0     C23817   9.948   0.796   3.109  0.0142  0.2830 -0.4302
  181MOL0     O23818   9.930   0.893   3.203 -0.8656  0.5316  0.5704
  181MOL0     C23819   9.816   0.975   3.191  0.0829  0.5173 -0.0789
  181MOL0     C23820   9.845   1.100   3.111  0.5396 -0.3439  0.5867
  181MOL0     C23821   9.726   1.206   3.120  0.2240 -0.0369 -0.7900
  181MOL0     C23822   9.602   1.161   3.045  0.4655  0.5063  0.2090
  181MOL0     C23823   9.522   1.052   3.100  0.1354  0.2749  0.2039
  181MOL0     C23824   9.458   0.963   3.144 -0.2583 -0.4263  0.3870
  181MOL0     C23825   9.882   0.780   2.991  0.2556 -0.3138  0.4055
  181MOL0     C23826   9.930   0.687   2.899  0.0930 -0.0162  0.4373
  181MOL0     H23827  10.133   0.290   2.643 -0.5532  1.1743 -0.5861
  181MOL0     H23828  10.267   0.161   2.509  0.3890 -1.2428  1.8940
  181MOL0     H23829  10.680   0.019   2.481 -2.3762  0.1336 -0.0164
  181MOL0     H23830  10.691   0.131   2.600  2.0009  1.5497 -1.1693
  181MOL0     H23831  10.725   0.321   2.424  2.6834  0.1457  3.3670
  181MOL0     H23832  10.739   0.188   2.300  0.7484 -1.0527  0.8588
  181MOL0     H23833  10.924   0.085   2.447  2.3518  0.6728  1.2186
  181MOL0     H23834  10.889   0.224   2.546 -0.2436  1.3581 -0.6565
  181MOL0     H23835  11.001   0.217   2.261 -1.7065  1.7072 -0.7241
  181MOL0     H23836  10.950   0.369   2.351 -0.0976 -0.3908  0.1575
  181MOL0     H23837  11.185   0.194   2.419  0.3630 -0.2168  2.4056
  181MOL0     H23838  11.097   0.275   2.548 -0.6992  0.8298  0.5346
  181MOL0     H23839  11.282   0.404   2.498  0.3936  2.5683 -0.3565
  181MOL0     H23840  11.145   0.496   2.432  0.9102  1.8394 -2.5016
  181MOL0     H23841  11.359   0.320   2.312  1.8363  2.6195  0.5071
  181MOL0     H23842  11.228   0.374   2.205 -0.6062 -0.6931 -0.1242
  181MOL0     H23843  11.428   0.527   2.374  0.6772 -2.0708 -0.6109
  181MOL0     H23844  11.319   0.620   2.273  0.4381  0.5446  1.2228
  181MOL0     H23845  11.346   0.449   1.995  0.0798 -3.4185 -0.1212
  181MOL0     H23846  11.659   0.486   1.781 -0.8465  1.0407  0.1947
  181MOL0     H23847  11.492   0.455   1.791  1.9659  1.2639 -1.4645
  181MOL0     H23848  11.547   0.210   1.870  2.6643 -0.1892  2.4726
  181MOL0     H23849  11.710   0.259   1.892  0.2157  3.1222  0.6240
  181MOL0     H23850  11.736   0.141   1.697 -1.0783 -1.1904 -0.5548
  181MOL0     H23851  11.564   0.149   1.663  1.1285 -2.6742  0.0821
  181MOL0     H23852  11.785   0.355   1.609  0.4309 -1.5419 -2.0023
  181MOL0     H23853  11.614   0.390   1.563 -1.0965 -0.7431 -4.0856
  181MOL0     H23854  11.718   0.091   1.264  1.6654 -1.2754 -1.3254
  181MOL0     H23855  11.903  -0.025   1.171 -0.7647  1.9755 -0.3369
  181MOL0     H23856  12.430   0.034   1.142  0.7631 -1.6426  1.3528
  181MOL0     H23857  12.609  -0.038   1.006 -0.4409 -0.6529  3.2896
  181MOL0     H23858  12.683  -0.098   0.696 -0.8150  0.4194  0.6537
  181MOL0     H23859  12.548  -0.195   0.625 -1.2656 -2.2867  2.0019
  181MOL0     H23860  12.659  -0.395   0.626  1.2758  0.3572  0.4815
  181MOL0     H23861  12.814  -0.313   0.688  0.0079  0.9463  2.1423
  181MOL0     H23862  12.825  -0.366   0.465 -2.2499 -0.8171 -3.5467
  181MOL0     H23863  12.826  -0.179   0.501  1.7690 -1.0483 -2.1226
  181MOL0     H23864  12.619  -0.341   0.370  2.1680 -1.7788  0.5831
  181MOL0     H23865  12.613  -0.174   0.414 -0.1765  1.4561 -1.0127
  181MOL0     H23866  12.768  -0.100   0.268  0.1428  1.5238 -2.8782
  181MOL0     H23867  12.678  -0.210   0.163 -1.4333 -0.8632  1.1953
  181MOL0     H23868  12.844  -0.398   0.260  3.9039 -1.0254 -0.2757
  181MOL0     H23869  12.966  -0.284   0.260  0.1750  0.9432 -1.0331
  181MOL0     H23870  12.953  -0.387   0.043 -0.8109 -0.6030 -1.2844
  181MOL0     H23871  12.793  -0.329   0.006 -1.5813  1.2271  1.5860
  181MOL0     H23872  12.978  -0.111   0.088  0.3251  1.8114 -1.3155
  181MOL0     H23873  12.874  -0.108  -0.048  0.6068  0.9512  0.5082
  181MOL0     H23874  12.341  -0.311   0.786  0.7297  0.0346 -0.8872
  181MOL0     H23875  12.163  -0.207   0.908 -2.0561  0.7610  3.4913
  181MOL0     H23876  12.167   0.168   1.456  1.3599 -0.6073 -1.2630
  181MOL0     H23877  11.974   0.267   1.557 -0.3974  1.0277 -0.0441
  181MOL0     H23878  10.626   0.365   2.620 -0.7899  4.4277 -0.3736
  181MOL0     H23879  10.474   0.503   2.786 -0.3775 -0.5858  0.9394
  181MOL0     H23880  10.192   0.565   3.082 -1.0761 -0.3748  0.1779
  181MOL0     H23881  10.099   0.737   3.237 -0.9505 -0.7170  0.6286
  181MOL0     H23882   9.795   0.999   3.296 -3.5004 -1.1266 -0.2777
  181MOL0     H23883   9.730   0.918   3.154  2.0747 -0.6385 -3.3362
  181MOL0     H23884   9.933   1.153   3.149 -0.8533  0.4554  2.8619
  181MOL0     H23885   9.870   1.078   3.007  2.2685 -3.0699  1.4491
  181MOL0     H23886   9.763   1.299   3.076 -4.9586  1.9869 -1.5703
  181MOL0     H23887   9.705   1.229   3.225  0.5732  1.4198 -1.0202
  181MOL0     H23888   9.538   1.241   3.007  0.2591  0.4899  0.5153
  181MOL0     H23889   9.631   1.124   2.946 -0.2916  0.6625 -0.0758
  181MOL0     H23890   9.406   0.877   3.181 -0.1192 -0.8636 -0.4158
  181MOL0     H23891   9.782   0.819   2.973 -0.2194 -1.6717 -0.0467
  181MOL0     H23892   9.865   0.668   2.814 -2.3285 -1.3566  2.4088
  182MOL0     O23893  10.139   4.896   7.039 -0.2626 -0.1449 -0.4251
  182MOL0     C23894  10.169   5.004   7.089 -0.5047 -0.0345 -0.7846
  182MOL0     O23895  10.104   5.123   7.058 -0.2788  0.4224 -0.0098
  182MOL0     C23896  10.036   5.135   6.942  0.3732 -0.0726  0.8070
  182MOL0     C23897  10.073   5.065   6.827  0.0278  0.2986  0.1917
  182MOL0     C23898   9.997   5.083   6.710 -0.6071 -0.5415 -0.2671
  182MOL0     C23899   9.884   5.162   6.707  0.2550 -0.1819 -0.3505
  182MOL0     O23900   9.803   5.173   6.596  0.0021 -1.2241  0.2754
  182MOL0     C23901   9.752   5.052   6.546 -0.5147 -0.3571  0.0413
  182MOL0     C23902   9.642   5.085   6.442 -0.6887  0.4832 -0.6439
  182MOL0     C23903   9.583   4.963   6.387  0.2365  1.4503  0.3794
  182MOL0     C23904   9.495   4.992   6.276  0.2013 -0.0703  0.1789
  182MOL0     C23905   9.407   4.869   6.237 -0.1860  0.5612  0.7834
  182MOL0     C23906   9.379   4.852   6.075  0.3930  0.4095  0.7891
  182MOL0     C23907   9.306   4.706   6.042 -0.5711 -0.2133 -0.1708
  182MOL0     C23908   9.270   4.696   5.894  0.0324 -0.3675  1.0211
  182MOL0     N23909   9.171   4.590   5.875 -0.3068  0.6324 -0.9450
  182MOL0     C23910   9.038   4.616   5.878 -0.0684 -0.0277 -0.3106
  182MOL0     C23911   8.976   4.494   5.863  0.8882 -0.5073  0.3995
  182MOL0     C23912   8.827   4.469   5.861  0.1077  0.5353 -0.1036
  182MOL0     C23913   8.792   4.354   5.757  0.0039  0.5986  0.4519
  182MOL0     C23914   8.821   4.407   5.620  0.0746 -0.1285  0.3119
  182MOL0     C23915   8.790   4.301   5.503  0.3364  0.4422 -0.1962
  182MOL0     O23916   8.756   4.354   5.370  0.2940 -0.7240  0.4816
  182MOL0     C23917   8.627   4.380   5.332  1.1086 -0.2469  0.1857
  182MOL0     C23918   8.506   4.358   5.403 -0.0781 -0.3618 -0.4722
  182MOL0     C23919   8.388   4.386   5.332  0.2068  1.1558  0.5965
  182MOL0     C23920   8.384   4.429   5.196 -0.8193 -0.2061 -0.1394
  182MOL0     C23921   8.254   4.452   5.130  0.3814  0.6257 -0.1380
  182MOL0     O23922   8.140   4.399   5.192  0.7461  0.7018 -0.3153
  182MOL0     C23923   8.014   4.434   5.149  0.5385 -0.5606  0.0034
  182MOL0     C23924   7.977   4.570   5.115 -0.2124  0.3607  0.6798
  182MOL0     C23925   7.859   4.608   5.074  1.5870  0.4182 -0.6528
  182MOL0     C23926   7.754   4.510   5.062  0.2378  0.2558 -0.4405
  182MOL0     O23927   7.627   4.560   5.045  0.1101 -0.3731  0.6747
  182MOL0     C23928   7.510   4.472   5.024 -0.1337 -0.7388  0.3865
  182MOL0     C23929   7.372   4.525   5.048  0.2150 -0.2838 -0.5804
  182MOL0     C23930   7.330   4.612   4.935  1.7017  0.1283  0.5580
  182MOL0     C23931   7.211   4.710   4.976 -1.3661 -1.3489 -0.6555
  182MOL0     C23932   7.234   4.812   5.092 -1.0772  0.3395  0.3944
  182MOL0     C23933   7.357   4.895   5.072  0.0340  0.2478 -1.2721
  182MOL0     C23934   7.378   4.994   5.195  0.5144 -0.1327  0.4263
  182MOL0     C23935   7.477   5.110   5.164  0.3433  0.8151  0.6466
  182MOL0    Cl23936   7.402   5.234   5.068 -0.1297  0.5692 -0.3572
  182MOL0     C23937   7.783   4.383   5.103 -0.0413  0.1090 -0.5838
  182MOL0     C23938   7.913   4.342   5.152  0.4845 -0.1869 -0.5243
  182MOL0     O23939   8.255   4.514   5.026  0.6411 -0.0662  0.1192
  182MOL0     C23940   8.505   4.440   5.138  0.4044  0.3711 -1.1220
  182MOL0     C23941   8.623   4.419   5.206 -0.0045  0.2145  0.6910
  182MOL0     N23942   9.083   4.403   5.865 -0.2512  0.4943 -0.0316
  182MOL0     N23943   9.202   4.458   5.868  0.3505 -0.6097 -0.3863
  182MOL0     C23944   9.859   5.243   6.819 -0.0990 -0.5566  0.0112
  182MOL0     C23945   9.932   5.226   6.936 -0.1464  0.3976  0.5818
  182MOL0     C23946  10.273   5.028   7.192 -0.4488 -0.5389 -0.6708
  182MOL0     C23947  10.314   5.158   7.229 -0.9357 -0.4802 -0.5465
  182MOL0     C23948  10.412   5.174   7.323  0.2561 -0.3037  0.4524
  182MOL0     C23949  10.484   5.069   7.370 -0.1809 -0.8619 -0.5442
  182MOL0     O23950  10.583   5.091   7.465 -0.2448 -0.0040  0.2914
  182MOL0     C23951  10.660   4.981   7.518  0.8324  0.1977 -0.1250
  182MOL0     C23952  10.786   5.047   7.571 -0.2719 -0.2133  0.3373
  182MOL0     C23953  10.865   4.944   7.644 -0.1499  0.1572 -1.1212
  182MOL0     C23954  11.007   4.987   7.679  0.6328 -0.0245 -0.1514
  182MOL0     C23955  11.097   4.878   7.659 -0.1153  0.9417  0.4860
  182MOL0     C23956  11.181   4.792   7.643 -0.6507  0.4133  0.2727
  182MOL0     C23957  10.450   4.949   7.328 -0.3432 -0.4909  0.5882
  182MOL0     C23958  10.346   4.921   7.246  0.5785 -0.5282 -0.6747
  182MOL0     H23959  10.163   5.003   6.826 -0.9607 -1.2790 -2.5534
  182MOL0     H23960  10.028   5.021   6.626 -2.7927 -1.7787 -0.2261
  182MOL0     H23961   9.701   4.985   6.616 -4.6406  2.4325  0.0571
  182MOL0     H23962   9.833   4.999   6.496 -0.2083  1.2254 -1.2008
  182MOL0     H23963   9.673   5.164   6.373  0.8980  1.3274  0.9783
  182MOL0     H23964   9.568   5.147   6.493 -0.2571 -0.6551  1.4927
  182MOL0     H23965   9.528   4.908   6.465 -0.3851  0.4524 -0.7352
  182MOL0     H23966   9.667   4.899   6.357 -2.0773  0.0556 -3.7887
  182MOL0     H23967   9.439   5.082   6.304 -1.9383 -1.5760  0.9599
  182MOL0     H23968   9.563   5.018   6.194 -1.7697  2.4695 -0.8072
  182MOL0     H23969   9.320   4.879   6.302 -0.7301  0.3465  0.0901
  182MOL0     H23970   9.443   4.772   6.274 -2.4573 -1.1174 -1.0882
  182MOL0     H23971   9.468   4.850   6.013  2.1755 -5.6962  2.8610
  182MOL0     H23972   9.315   4.938   6.051 -0.9034 -1.0161 -1.1211
  182MOL0     H23973   9.382   4.631   6.067  3.3526  3.0927 -1.0174
  182MOL0     H23974   9.211   4.701   6.096  0.6833  0.4429  2.2887
  182MOL0     H23975   9.361   4.671   5.840 -0.0353  0.2806  0.5947
  182MOL0     H23976   9.242   4.796   5.858  0.5030 -1.3480 -2.4472
  182MOL0     H23977   8.978   4.706   5.879 -2.8006 -1.7131 -1.6724
  182MOL0     H23978   8.778   4.565   5.846  4.3938  2.7638 -1.2809
  182MOL0     H23979   8.797   4.430   5.959  2.7136  2.3688  1.5381
  182MOL0     H23980   8.686   4.327   5.766 -0.4517  2.0845 -0.0830
  182MOL0     H23981   8.858   4.269   5.774 -0.5587 -0.2389 -1.3506
  182MOL0     H23982   8.755   4.491   5.599 -1.4144 -1.4488 -0.5609
  182MOL0     H23983   8.924   4.442   5.612 -0.3404  1.9203  2.5970
  182MOL0     H23984   8.714   4.231   5.537  1.4239  0.4572  2.4879
  182MOL0     H23985   8.884   4.247   5.485  0.2842  0.3519 -0.1956
  182MOL0     H23986   8.509   4.321   5.505  0.8584  1.6244  0.2742
  182MOL0     H23987   8.295   4.371   5.385  0.4924 -0.8341  0.6229
  182MOL0     H23988   8.053   4.645   5.131  0.1685  0.6618 -2.1632
  182MOL0     H23989   7.833   4.713   5.063  0.7468  0.1859 -0.9300
  182MOL0     H23990   7.521   4.379   5.080 -2.3168 -2.5498 -1.9407
  182MOL0     H23991   7.512   4.440   4.919  0.0438 -0.3120  0.2558
  182MOL0     H23992   7.382   4.571   5.147 -3.6360  1.2385 -0.7438
  182MOL0     H23993   7.306   4.440   5.061  0.7800 -0.2799  4.2619
  182MOL0     H23994   7.281   4.565   4.850 -1.9257  2.1251  1.3006
  182MOL0     H23995   7.414   4.670   4.896  0.6761  0.8540 -0.6394
  182MOL0     H23996   7.170   4.767   4.892  0.5629  1.0047 -0.0925
  182MOL0     H23997   7.130   4.646   5.012 -1.7991 -0.4678 -0.0398
  182MOL0     H23998   7.237   4.775   5.195  1.9203 -2.3739 -0.4673
  182MOL0     H23999   7.141   4.869   5.096 -2.8464 -2.4080  0.9130
  182MOL0     H24000   7.340   4.951   4.980 -0.5485  2.2129 -0.0275
  182MOL0     H24001   7.440   4.824   5.056  0.1613  0.4494 -1.5175
  182MOL0     H24002   7.281   5.029   5.234  0.6331 -0.8297  1.3839
  182MOL0     H24003   7.432   4.937   5.271  2.0976  0.5447 -0.1439
  182MOL0     H24004   7.562   5.079   5.103  0.5434  2.1043  0.2181
  182MOL0     H24005   7.510   5.156   5.258  2.9383 -0.9970  0.7050
  182MOL0     H24006   7.693   4.323   5.118  0.0887  0.6379  3.3860
  182MOL0     H24007   7.934   4.239   5.179 -0.2869 -0.6509 -1.6099
  182MOL0     H24008   8.509   4.482   5.038  1.0094 -0.1530 -1.3205
  182MOL0     H24009   8.713   4.442   5.149  1.5371  0.1386  2.9452
  182MOL0     H24010   9.767   5.301   6.821  1.0282  1.4174  3.3263
  182MOL0     H24011   9.899   5.287   7.020 -0.6419 -2.9482  3.0357
  182MOL0     H24012  10.250   5.241   7.202 -0.4842  0.0474 -0.0378
  182MOL0     H24013  10.444   5.274   7.352  2.7830 -0.0107 -2.7834
  182MOL0     H24014  10.685   4.916   7.434  0.8936  1.9531 -1.5144
  182MOL0     H24015  10.599   4.932   7.594  1.6961 -0.5547  0.0915
  182MOL0     H24016  10.832   5.096   7.485 -1.8051  0.3793 -0.1740
  182MOL0     H24017  10.766   5.132   7.637 -1.1505  2.3030 -2.9356
  182MOL0     H24018  10.872   4.853   7.584  2.8878  0.9018 -2.0540
  182MOL0     H24019  10.818   4.918   7.740  0.4373 -0.2382 -0.9356
  182MOL0     H24020  11.032   5.074   7.618 -1.0891  1.2555  0.8441
  182MOL0     H24021  11.019   5.037   7.776  2.6051 -0.4670 -0.1444
  182MOL0     H24022  11.253   4.714   7.630 -0.3043  0.9328 -1.1484
  182MOL0     H24023  10.509   4.860   7.353  3.5166  1.8135  0.4834
  182MOL0     H24024  10.319   4.821   7.214  5.0329 -2.0996 -0.2266
  183MOL0     O24025   4.717   6.017   6.798  0.2507 -0.3604  0.0744
  183MOL0     C24026   4.602   5.993   6.844 -0.4658 -0.1917 -0.2073
  183MOL0     O24027   4.562   6.011   6.975 -0.6787 -0.6317 -0.3450
  183MOL0     C24028   4.646   6.030   7.080  0.3125  0.7728 -0.5754
  183MOL0     C24029   4.776   5.982   7.079  0.2917  1.4052 -0.1308
  183MOL0     C24030   4.859   5.999   7.197 -0.9300 -0.2288  0.7000
  183MOL0     C24031   4.813   6.049   7.315  0.0414 -0.2976 -0.4052
  183MOL0     O24032   4.897   6.078   7.429  0.5865  0.5636  0.3141
  183MOL0     C24033   5.015   6.011   7.440 -0.4374 -0.4633 -0.7501
  183MOL0     C24034   5.049   6.020   7.584  0.6278  0.0012 -0.2923
  183MOL0     C24035   4.945   5.954   7.678 -0.4183  1.2694  0.3173
  183MOL0     C24036   4.976   5.811   7.708  0.4466 -0.0757  0.0558
  183MOL0     C24037   4.858   5.728   7.759  1.2238  0.4489  1.1141
  183MOL0     C24038   4.795   5.786   7.890  0.3114  0.4080  0.1858
  183MOL0     C24039   4.886   5.826   8.011 -0.0724 -0.5105 -0.2182
  183MOL0     C24040   4.981   5.722   8.064 -0.4930 -0.7551  0.1091
  183MOL0     N24041   5.057   5.773   8.179  0.1835 -0.3009  0.2696
  183MOL0     C24042   4.997   5.805   8.297 -0.2641  0.0824 -0.0120
  183MOL0     C24043   5.094   5.820   8.384 -0.1732 -0.7071 -0.6722
  183MOL0     C24044   5.070   5.854   8.522  0.0887  1.0072  0.0945
  183MOL0     C24045   5.176   5.797   8.617 -0.2574  0.7098  0.6994
  183MOL0     C24046   5.177   5.868   8.758  0.4111 -0.2990  0.2915
  183MOL0     C24047   5.067   5.835   8.853  0.3067 -0.2843  0.4490
  183MOL0     O24048   5.032   5.700   8.864 -1.2580 -0.1516 -0.0322
  183MOL0     C24049   5.127   5.599   8.891 -0.0029  0.3045  0.2544
  183MOL0     C24050   5.232   5.636   8.975  0.0108 -0.2648 -0.4230
  183MOL0     C24051   5.322   5.535   9.011 -0.4230  0.3392 -0.8271
  183MOL0     C24052   5.314   5.401   8.969 -0.4240  0.9357  0.8360
  183MOL0     C24053   5.404   5.292   9.006  0.3195  0.7080  0.7057
  183MOL0     O24054   5.516   5.313   9.088  0.7771  0.2722 -0.4779
  183MOL0     C24055   5.616   5.228   9.089 -0.9289  0.2023 -0.4108
  183MOL0     C24056   5.655   5.139   8.984  0.3073  0.5622 -1.0124
  183MOL0     C24057   5.768   5.060   8.990 -0.4612  0.4841 -0.4082
  183MOL0     C24058   5.853   5.064   9.105 -0.3055  0.2598 -0.1372
  183MOL0     O24059   5.971   4.992   9.110  0.2424  0.6974 -0.6152
  183MOL0     C24060   6.050   4.986   9.000  0.4862  0.3525  0.1029
  183MOL0     C24061   6.195   4.962   9.042  0.6372  0.4597 -0.0233
  183MOL0     C24062   6.215   4.831   9.115  0.5471  0.6310 -0.0745
  183MOL0     C24063   6.354   4.831   9.184 -0.5724  0.0584  0.3755
  183MOL0     C24064   6.390   4.687   9.239 -0.0168 -0.0323 -0.0903
  183MOL0     C24065   6.533   4.681   9.280 -0.6565  0.7518 -0.9463
  183MOL0     C24066   6.552   4.536   9.338 -0.4477  0.5708 -0.2816
  183MOL0     C24067   6.575   4.436   9.230 -0.4457 -0.0929 -0.5171
  183MOL0    Cl24068   6.652   4.281   9.295  0.2652  0.5170  0.0278
  183MOL0     C24069   5.818   5.153   9.212  1.1834  0.4418  0.7288
  183MOL0     C24070   5.706   5.236   9.194 -0.2935  0.2496  0.2962
  183MOL0     O24071   5.371   5.183   8.957 -0.3056  0.9639 -0.8784
  183MOL0     C24072   5.200   5.370   8.885  0.9227  0.3672  0.1907
  183MOL0     C24073   5.107   5.465   8.853 -0.9578 -1.1689  1.0842
  183MOL0     N24074   5.211   5.786   8.321  0.1637  0.0158 -0.8110
  183MOL0     N24075   5.187   5.760   8.196 -0.7295  0.0270  0.3353
  183MOL0     C24076   4.673   6.084   7.314 -0.0211 -0.0358  0.3238
  183MOL0     C24077   4.586   6.085   7.199 -0.1004  0.3006 -0.3585
  183MOL0     C24078   4.485   5.963   6.746  0.0241  0.2260 -0.3155
  183MOL0     C24079   4.495   5.982   6.611 -0.5409  0.4022  1.1363
  183MOL0     C24080   4.398   5.941   6.520 -0.9100 -0.1286  0.3496
  183MOL0     C24081   4.271   5.913   6.565  0.5427  0.4117 -0.5994
  183MOL0     O24082   4.165   5.902   6.484 -0.7730  0.1855  0.6788
  183MOL0     C24083   4.028   5.907   6.528  0.1134 -1.7965 -0.1117
  183MOL0     C24084   3.935   5.917   6.406 -0.2620  0.0602  0.1107
  183MOL0     C24085   3.780   5.897   6.432 -0.4019  0.0857  0.5760
  183MOL0     C24086   3.730   5.945   6.566  0.6802  0.5352 -0.3549
  183MOL0     C24087   3.585   5.940   6.583 -0.5614 -0.7674 -0.9206
  183MOL0     C24088   3.469   5.931   6.597 -0.6923  0.1115  0.4000
  183MOL0     C24089   4.253   5.909   6.709 -0.5153 -0.1869  0.0453
  183MOL0     C24090   4.361   5.930   6.794  0.3816  0.1029 -0.3029
  183MOL0     H24091   4.826   5.927   7.000 -0.0498 -2.3002  2.0019
  183MOL0     H24092   4.966   5.989   7.183 -0.6905  3.9729 -2.3022
  183MOL0     H24093   5.099   6.050   7.381  0.0167 -1.0719 -0.5096
  183MOL0     H24094   5.007   5.904   7.419  2.5351 -0.7676 -0.8586
  183MOL0     H24095   5.039   6.127   7.601  0.6353  0.1408 -1.1558
  183MOL0     H24096   5.147   5.976   7.606  0.5413 -0.4570 -0.8045
  183MOL0     H24097   4.843   5.947   7.637 -2.0271  1.0742  3.9766
  183MOL0     H24098   4.950   6.011   7.771  4.0977 -2.3752  2.7268
  183MOL0     H24099   5.015   5.752   7.625 -2.1778  0.6090 -1.7978
  183MOL0     H24100   5.055   5.805   7.783  0.4603 -3.5924 -0.0883
  183MOL0     H24101   4.890   5.625   7.771 -2.3262 -0.9995 -0.3201
  183MOL0     H24102   4.782   5.721   7.681  0.5655  1.1537  1.6665
  183MOL0     H24103   4.731   5.702   7.918 -1.0876  0.4357 -2.6305
  183MOL0     H24104   4.743   5.876   7.858  1.4024  1.1709  0.5123
  183MOL0     H24105   4.938   5.917   7.978 -1.1720 -0.6670 -2.5555
  183MOL0     H24106   4.822   5.849   8.097  0.8044  0.7386  0.1313
  183MOL0     H24107   5.051   5.684   7.990  3.1636  3.7723  0.8238
  183MOL0     H24108   4.923   5.635   8.096  2.0314 -1.5538  2.9436
  183MOL0     H24109   4.897   5.845   8.313 -1.7631 -2.7725 -1.4301
  183MOL0     H24110   4.973   5.808   8.542  0.8963 -2.6361 -3.0281
  183MOL0     H24111   5.062   5.962   8.535 -1.1402  0.8160  1.0674
  183MOL0     H24112   5.272   5.802   8.566 -0.1769 -3.0056  0.2329
  183MOL0     H24113   5.144   5.695   8.640  3.1872 -1.4441 -2.8564
  183MOL0     H24114   5.275   5.855   8.805  1.8075  0.3287 -2.2500
  183MOL0     H24115   5.173   5.977   8.746  2.5702  0.0079  1.7439
  183MOL0     H24116   4.981   5.884   8.808  0.7501 -2.7802 -3.5946
  183MOL0     H24117   5.099   5.886   8.945 -0.5589 -0.1468  0.6808
  183MOL0     H24118   5.244   5.737   9.011 -1.5373 -0.8794  2.0598
  183MOL0     H24119   5.412   5.564   9.064 -0.9715 -1.2662  1.1097
  183MOL0     H24120   5.595   5.129   8.894 -1.2558 -1.8666  0.1804
  183MOL0     H24121   5.793   4.993   8.909  2.6091  2.1193 -0.9490
  183MOL0     H24122   6.050   5.077   8.939  2.6208  0.1418 -0.2935
  183MOL0     H24123   6.015   4.904   8.937 -2.8668  2.3653 -0.8724
  183MOL0     H24124   6.220   5.054   9.095 -3.2399  2.6572 -1.6201
  183MOL0     H24125   6.254   4.962   8.950  0.8449  0.1944  0.1060
  183MOL0     H24126   6.224   4.749   9.043 -1.8703 -1.3719  1.7513
  183MOL0     H24127   6.142   4.815   9.194 -0.4294 -0.4538 -1.1582
  183MOL0     H24128   6.429   4.860   9.111 -2.9632 -0.6135 -2.5423
  183MOL0     H24129   6.349   4.905   9.264  1.0553  0.2356  0.3458
  183MOL0     H24130   6.374   4.613   9.160 -1.7755  0.7942 -0.5647
  183MOL0     H24131   6.324   4.666   9.323 -0.9026  0.6983 -0.5841
  183MOL0     H24132   6.541   4.761   9.354 -4.2995  2.2638 -2.0005
  183MOL0     H24133   6.602   4.694   9.197  2.5538 -0.7040  1.2640
  183MOL0     H24134   6.640   4.543   9.403 -0.6185  0.8491 -0.0781
  183MOL0     H24135   6.469   4.503   9.401 -1.0983 -1.2224 -1.9813
  183MOL0     H24136   6.639   4.483   9.156 -0.2490 -0.0291 -0.3067
  183MOL0     H24137   6.481   4.400   9.187 -0.6206  1.1354 -1.1899
  183MOL0     H24138   5.874   5.166   9.304  0.3897 -2.3873  1.7362
  183MOL0     H24139   5.687   5.311   9.270 -3.5993 -1.0704  0.9404
  183MOL0     H24140   5.190   5.276   8.832 -0.7825 -0.0661  1.2241
  183MOL0     H24141   5.022   5.447   8.788  1.2580 -0.9331 -2.1082
  183MOL0     H24142   4.642   6.119   7.412  1.1513 -0.5425  0.8818
  183MOL0     H24143   4.480   6.108   7.207 -0.4752 -0.4702 -2.3826
  183MOL0     H24144   4.593   6.017   6.579 -0.5772  0.6338  1.2691
  183MOL0     H24145   4.419   5.933   6.413  4.2003  0.1885  1.0896
  183MOL0     H24146   4.020   5.995   6.592  0.2522 -2.0614  0.2727
  183MOL0     H24147   3.992   5.820   6.584  1.7465 -0.5336  3.1886
  183MOL0     H24148   3.941   6.018   6.364  1.0623 -0.1149 -0.1941
  183MOL0     H24149   3.969   5.844   6.332  2.2300 -0.7358  1.9004
  183MOL0     H24150   3.743   5.794   6.424  0.1407 -0.0055 -1.3130
  183MOL0     H24151   3.731   5.962   6.359  2.1186 -1.2408 -2.5609
  183MOL0     H24152   3.765   5.893   6.655  0.2120 -2.9696 -2.0582
  183MOL0     H24153   3.766   6.049   6.570  0.8889  0.5356 -1.6421
  183MOL0     H24154   3.366   5.900   6.596 -0.7257  0.2347 -0.4084
  183MOL0     H24155   4.154   5.888   6.747 -0.6378 -0.8052 -0.5918
  183MOL0     H24156   4.336   5.925   6.900 -2.1309  1.0261 -0.7903
  184MOL0     O24157   8.322   8.744   1.942  0.0928 -0.6301 -0.2078
  184MOL0     C24158   8.341   8.780   1.826 -0.2731 -0.5097  0.2345
  184MOL0     O24159   8.248   8.764   1.727  0.5180  0.0093 -1.1533
  184MOL0     C24160   8.121   8.704   1.751 -0.1573 -0.6059 -0.8381
  184MOL0     C24161   8.080   8.617   1.655 -0.5363  0.6066 -0.3249
  184MOL0     C24162   7.950   8.567   1.652 -0.1711 -0.3018  0.1673
  184MOL0     C24163   7.862   8.604   1.755  0.0212  0.9528  0.1022
  184MOL0     O24164   7.744   8.534   1.753 -0.0818 -0.2283 -0.1953
  184MOL0     C24165   7.670   8.536   1.877  0.4145 -0.0058  0.2994
  184MOL0     C24166   7.544   8.460   1.863 -0.3383  0.3943 -0.1314
  184MOL0     C24167   7.444   8.529   1.785  0.7502 -1.4941 -0.0649
  184MOL0     C24168   7.305   8.465   1.798  0.1394  0.0205  0.5434
  184MOL0     C24169   7.221   8.523   1.681 -0.6226  0.2013 -0.2888
  184MOL0     C24170   7.103   8.441   1.651  0.0004 -0.3837 -0.3574
  184MOL0     C24171   7.001   8.455   1.766  0.2328 -1.3881  0.0296
  184MOL0     C24172   6.885   8.347   1.755  0.5324 -0.3526  0.2294
  184MOL0     N24173   6.792   8.355   1.873 -0.6574 -0.2177 -0.9131
  184MOL0     C24174   6.687   8.449   1.893 -1.0573 -0.3365 -0.4047
  184MOL0     C24175   6.623   8.405   2.008 -0.6102 -0.0518  0.3103
  184MOL0     C24176   6.489   8.455   2.062 -1.6656 -0.6180 -0.7280
  184MOL0     C24177   6.509   8.520   2.207  0.9326 -0.4903  0.6798
  184MOL0     C24178   6.375   8.543   2.271 -0.4838  0.2612 -0.0775
  184MOL0     C24179   6.378   8.637   2.392  0.1934  0.5692  0.8460
  184MOL0     O24180   6.241   8.688   2.389  0.0568  0.3057  1.0537
  184MOL0     C24181   6.186   8.720   2.511  0.8983 -0.2270  0.4829
  184MOL0     C24182   6.071   8.654   2.550 -0.1413  0.3805 -0.0706
  184MOL0     C24183   6.017   8.687   2.681 -0.9903  0.5610 -0.3428
  184MOL0     C24184   6.082   8.786   2.767  0.2112  1.1810 -0.6853
  184MOL0     C24185   6.025   8.827   2.900 -0.2038 -1.0030 -0.1302
  184MOL0     O24186   5.909   8.763   2.945 -0.8496 -0.4905 -0.1885
  184MOL0     C24187   5.845   8.800   3.052  0.1732  1.0199 -0.8345
  184MOL0     C24188   5.713   8.836   3.027 -0.2093 -0.4479  0.7711
  184MOL0     C24189   5.637   8.864   3.134  0.7457 -0.1216 -0.1508
  184MOL0     C24190   5.692   8.890   3.260  0.7769  0.0646 -0.0760
  184MOL0     O24191   5.600   8.917   3.361 -0.1434  0.6616  0.6358
  184MOL0     C24192   5.629   8.893   3.492  0.0906 -0.0974 -0.1261
  184MOL0     C24193   5.516   8.959   3.576 -0.8126  0.6953 -0.3342
  184MOL0     C24194   5.386   8.884   3.564  0.0589  0.1694 -0.2712
  184MOL0     C24195   5.287   8.976   3.643  0.2728 -0.1839 -0.6844
  184MOL0     C24196   5.162   8.900   3.695 -0.9660 -0.4774 -0.6562
  184MOL0     C24197   5.192   8.779   3.795 -0.0252 -0.8737  0.5335
  184MOL0     C24198   5.285   8.801   3.910 -0.7508  0.3886 -0.6441
  184MOL0     C24199   5.284   8.686   4.013  0.1904 -0.0584 -0.3723
  184MOL0    Cl24200   5.118   8.659   4.090  0.1276 -0.3002  0.2165
  184MOL0     C24201   5.828   8.859   3.284 -0.6378 -1.4273 -0.0382
  184MOL0     C24202   5.904   8.803   3.180  0.1948 -0.4006 -0.4007
  184MOL0     O24203   6.080   8.919   2.958  0.0876 -0.7325  0.1519
  184MOL0     C24204   6.200   8.839   2.720 -0.1266  0.2561  0.2074
  184MOL0     C24205   6.249   8.810   2.587  0.1735 -0.0818 -0.7482
  184MOL0     N24206   6.695   8.290   2.057 -0.4438 -0.7917  0.1614
  184MOL0     N24207   6.786   8.260   1.971 -0.5403 -0.1858 -0.6443
  184MOL0     C24208   7.909   8.691   1.861 -0.7681  0.0521  1.0209
  184MOL0     C24209   8.033   8.752   1.844  0.0446 -0.0240 -0.8147
  184MOL0     C24210   8.479   8.848   1.794  0.1508 -0.0555  0.2890
  184MOL0     C24211   8.573   8.859   1.899 -0.6851  0.5403 -0.0538
  184MOL0     C24212   8.688   8.938   1.873 -0.0324 -0.1374  0.3688
  184MOL0     C24213   8.699   9.009   1.756 -0.0056  0.0616 -0.7044
  184MOL0     O24214   8.822   9.078   1.737 -0.0935  0.4575  0.3970
  184MOL0     C24215   8.828   9.171   1.629  0.3370 -1.1045 -0.2354
  184MOL0     C24216   8.940   9.263   1.635 -0.6067 -0.2287  0.1115
  184MOL0     C24217   9.072   9.184   1.594  0.6595  0.0819  0.5042
  184MOL0     C24218   9.196   9.276   1.595  0.8338  0.3305 -0.7842
  184MOL0     C24219   9.306   9.211   1.524  0.8192  0.9507  0.3042
  184MOL0     C24220   9.384   9.138   1.468 -0.0339  0.1321  0.4167
  184MOL0     C24221   8.595   8.997   1.657  0.4878  0.7618  0.0594
  184MOL0     C24222   8.487   8.924   1.676  0.2392 -0.1847  0.5020
  184MOL0     H24223   8.153   8.588   1.581 -1.0757  0.8278 -0.9463
  184MOL0     H24224   7.939   8.484   1.583  3.5632 -2.6708  2.0525
  184MOL0     H24225   7.653   8.641   1.904  4.2798  0.4343  1.6932
  184MOL0     H24226   7.736   8.494   1.953  0.1222 -0.5958  0.2315
  184MOL0     H24227   7.515   8.432   1.965  2.1957  2.0367  1.1738
  184MOL0     H24228   7.564   8.367   1.811  1.0605 -0.0798  1.1609
  184MOL0     H24229   7.476   8.527   1.681 -2.0786  3.0494 -1.3169
  184MOL0     H24230   7.439   8.637   1.803  0.9481 -1.3225 -0.9933
  184MOL0     H24231   7.317   8.357   1.795  0.3933  0.0579 -0.7476
  184MOL0     H24232   7.254   8.496   1.889 -2.4353 -4.4079  0.8814
  184MOL0     H24233   7.287   8.527   1.594  0.0715 -1.1198  0.1400
  184MOL0     H24234   7.182   8.624   1.698 -0.3553  0.1954  0.3940
  184MOL0     H24235   7.135   8.339   1.626  1.7561  0.1085 -0.2658
  184MOL0     H24236   7.058   8.485   1.562  0.1314 -1.8865 -1.1873
  184MOL0     H24237   7.054   8.452   1.861  0.3012  0.3938  0.0712
  184MOL0     H24238   6.952   8.553   1.771 -2.4994 -2.7060  1.4325
  184MOL0     H24239   6.932   8.249   1.767  0.1387 -0.6352 -0.4858
  184MOL0     H24240   6.827   8.368   1.664  2.7352  1.6950 -0.8224
  184MOL0     H24241   6.662   8.534   1.831  0.8835  1.5755  1.2459
  184MOL0     H24242   6.418   8.372   2.063 -0.3038 -1.8543  1.5792
  184MOL0     H24243   6.442   8.532   2.000 -0.2978  1.7414  1.0158
  184MOL0     H24244   6.558   8.616   2.187  1.5570 -1.0061 -0.3734
  184MOL0     H24245   6.569   8.462   2.277 -0.7725  0.0877  2.6971
  184MOL0     H24246   6.308   8.576   2.191 -0.7087 -1.6282 -0.7137
  184MOL0     H24247   6.338   8.447   2.308  0.9072  0.0489  0.8459
  184MOL0     H24248   6.448   8.716   2.364  3.0449 -2.3918 -1.1511
  184MOL0     H24249   6.418   8.587   2.480  0.2660  1.5967  1.4157
  184MOL0     H24250   6.027   8.571   2.497  1.3970  0.3460 -1.3940
  184MOL0     H24251   5.923   8.637   2.705 -1.2647  1.0959 -0.3010
  184MOL0     H24252   5.678   8.816   2.926  0.8378 -0.3555  0.3757
  184MOL0     H24253   5.529   8.862   3.121  0.1356 -5.2433  2.7747
  184MOL0     H24254   5.727   8.924   3.530  0.4698 -2.8800  1.5078
  184MOL0     H24255   5.618   8.784   3.498 -5.6645  0.1158 -0.7659
  184MOL0     H24256   5.506   9.064   3.544 -0.0318  1.2661  1.1991
  184MOL0     H24257   5.545   8.965   3.681  0.3496  1.5612 -0.6794
  184MOL0     H24258   5.415   8.790   3.612  4.5384  1.0521 -0.7707
  184MOL0     H24259   5.361   8.856   3.461  3.1088 -1.2786 -0.7178
  184MOL0     H24260   5.336   9.012   3.734  0.5432  1.2339 -1.3594
  184MOL0     H24261   5.258   9.063   3.584  0.9906  1.2231  0.9642
  184MOL0     H24262   5.111   8.861   3.607 -0.1342 -0.3105 -1.2208
  184MOL0     H24263   5.097   8.966   3.754  2.3398  2.0395  0.4957
  184MOL0     H24264   5.237   8.697   3.738 -2.3891 -0.7560 -1.7370
  184MOL0     H24265   5.092   8.745   3.825 -0.5849  0.2955  0.0644
  184MOL0     H24266   5.380   8.793   3.856 -2.9635 -3.7982 -4.5336
  184MOL0     H24267   5.283   8.895   3.967  3.5277  0.5252 -0.4429
  184MOL0     H24268   5.358   8.710   4.089 -1.8130  0.6390  1.4694
  184MOL0     H24269   5.322   8.589   3.979  1.8039 -0.5368  2.5087
  184MOL0     H24270   5.871   8.880   3.382 -1.0090  2.0721 -0.4871
  184MOL0     H24271   6.006   8.769   3.166 -0.3186 -1.5585 -1.4469
  184MOL0     H24272   6.268   8.905   2.773  0.6027 -0.0286 -0.3602
  184MOL0     H24273   6.339   8.856   2.548  0.7778 -0.0934  0.5831
  184MOL0     H24274   7.844   8.723   1.942 -2.9431  0.3196 -0.7212
  184MOL0     H24275   8.033   8.842   1.905 -0.9253  0.7144 -1.8385
  184MOL0     H24276   8.554   8.797   1.986  1.1151  1.2929  0.9223
  184MOL0     H24277   8.770   8.936   1.944 -0.5552 -1.7956  0.9853
  184MOL0     H24278   8.733   9.223   1.620  0.5556 -0.7177 -0.3336
  184MOL0     H24279   8.834   9.120   1.532  0.2193  1.0992 -1.4809
  184MOL0     H24280   8.928   9.350   1.570  1.7352  0.8405  0.9901
  184MOL0     H24281   8.968   9.307   1.731 -1.0508 -0.2540  0.2541
  184MOL0     H24282   9.058   9.138   1.496 -0.8057  1.3674  0.0692
  184MOL0     H24283   9.098   9.102   1.661 -3.3184 -0.6848  1.3217
  184MOL0     H24284   9.179   9.375   1.553  0.8677 -0.1374 -1.9167
  184MOL0     H24285   9.234   9.294   1.696  0.9435  0.4095 -0.8394
  184MOL0     H24286   9.442   9.055   1.433  0.9163  1.6474 -1.8014
  184MOL0     H24287   8.600   9.052   1.564 -2.1180  2.0094  0.5642
  184MOL0     H24288   8.410   8.938   1.601 -1.7077  0.3288  2.4571
  185MOL0     O24289   9.294   0.254   6.133  1.3625 -0.4739 -0.2979
  185MOL0     C24290   9.351   0.360   6.153 -1.0269 -1.2317  0.5905
  185MOL0     O24291   9.296   0.487   6.199  0.4162  0.6066  0.3649
  185MOL0     C24292   9.164   0.481   6.225 -1.1553 -0.2141  0.3113
  185MOL0     C24293   9.086   0.450   6.113 -0.1588  1.3507 -0.1602
  185MOL0     C24294   8.946   0.455   6.120 -0.0834 -0.7649  0.3396
  185MOL0     C24295   8.892   0.478   6.249  0.2320 -0.2651  0.0268
  185MOL0     O24296   8.764   0.479   6.274 -0.3052  0.3758  0.0833
  185MOL0     C24297   8.686   0.575   6.209  0.4601  0.1197  0.2702
  185MOL0     C24298   8.551   0.597   6.290 -0.0524  0.3160  1.1217
  185MOL0     C24299   8.579   0.657   6.425  0.0665 -0.2551 -0.0075
  185MOL0     C24300   8.461   0.685   6.523  0.6718 -0.0413 -0.4294
  185MOL0     C24301   8.338   0.769   6.461 -0.1388 -0.4523  0.0354
  185MOL0     C24302   8.216   0.770   6.545 -0.1927  0.9315  0.3056
  185MOL0     C24303   8.108   0.864   6.501 -0.6765  0.1952  0.3547
  185MOL0     C24304   7.971   0.831   6.563  0.9447  0.5515 -1.5161
  185MOL0     N24305   7.864   0.881   6.478  0.5822  0.2249  0.1779
  185MOL0     C24306   7.837   1.005   6.437  1.0370 -1.2385 -1.2013
  185MOL0     C24307   7.736   0.996   6.350 -0.7146  0.5091 -0.5907
  185MOL0     C24308   7.647   1.101   6.284  0.2063  0.4819 -0.5653
  185MOL0     C24309   7.725   1.215   6.227  0.2346  0.7838  0.2905
  185MOL0     C24310   7.637   1.338   6.185 -0.5091 -0.1108 -0.6204
  185MOL0     C24311   7.504   1.293   6.110  0.0862 -1.3907  0.0643
  185MOL0     O24312   7.418   1.399   6.097  0.4124  0.9395  1.1076
  185MOL0     C24313   7.280   1.365   6.076  0.5718  0.3526 -0.9004
  185MOL0     C24314   7.234   1.239   6.033  1.0784  0.0715 -0.8577
  185MOL0     C24315   7.096   1.209   6.002  0.5503 -1.2384 -0.0098
  185MOL0     C24316   6.999   1.319   6.003 -0.1521  0.5222 -0.3589
  185MOL0     C24317   6.860   1.298   5.974 -0.2385 -0.0643  0.1363
  185MOL0     O24318   6.828   1.186   5.910 -0.6731  0.2756  0.5504
  185MOL0     C24319   6.696   1.157   5.895 -1.1741  0.0891  0.1900
  185MOL0     C24320   6.653   1.048   5.970 -0.0798 -0.6902  0.1553
  185MOL0     C24321   6.520   1.000   5.968 -0.6034 -0.1307  0.4124
  185MOL0     C24322   6.430   1.059   5.869 -0.2615  0.2535  0.0086
  185MOL0     O24323   6.300   1.019   5.850 -0.3332 -0.0747  0.0053
  185MOL0     C24324   6.258   0.888   5.902  0.3774 -0.3861  0.0716
  185MOL0     C24325   6.113   0.867   5.904  0.5052  0.1759 -0.0629
  185MOL0     C24326   6.044   0.969   5.995  0.3771  0.1045 -0.7414
  185MOL0     C24327   5.896   0.921   6.019  0.1582 -0.8418 -0.3683
  185MOL0     C24328   5.810   0.953   5.896 -1.4803 -0.7216 -0.0389
  185MOL0     C24329   5.660   0.918   5.899 -1.0331  0.2921  0.1680
  185MOL0     C24330   5.653   0.760   5.895 -0.9034  0.6034 -1.2963
  185MOL0     C24331   5.511   0.718   5.876 -0.0153  0.6563  0.2950
  185MOL0    Cl24332   5.513   0.550   5.809 -0.6237 -0.0696 -0.5550
  185MOL0     C24333   6.482   1.161   5.779  0.3037 -0.3101 -0.3626
  185MOL0     C24334   6.607   1.212   5.794 -1.6945  0.6257 -1.1546
  185MOL0     O24335   6.781   1.383   6.011 -0.3107  0.1470  0.6566
  185MOL0     C24336   7.053   1.448   6.041  0.1339 -0.2849 -0.0742
  185MOL0     C24337   7.187   1.473   6.066  0.5956  0.0265 -0.4789
  185MOL0     N24338   7.727   0.862   6.325  0.4459 -0.0828  0.6556
  185MOL0     N24339   7.798   0.791   6.396 -0.2095 -0.2212  0.1457
  185MOL0     C24340   8.966   0.500   6.361  0.0717  0.4559 -0.1772
  185MOL0     C24341   9.107   0.506   6.344  0.1118  0.5563 -0.1461
  185MOL0     C24342   9.504   0.371   6.124  0.7756  0.1505 -0.0645
  185MOL0     C24343   9.585   0.258   6.134  0.4904  0.0288  1.1082
  185MOL0     C24344   9.723   0.273   6.114 -0.3450  0.0662  1.0771
  185MOL0     C24345   9.790   0.403   6.109  0.3295 -0.6879 -0.0326
  185MOL0     O24346   9.921   0.445   6.106  0.6435  0.2272 -0.5978
  185MOL0     C24347  10.013   0.339   6.101 -0.4923 -0.4462  0.0064
  185MOL0     C24348  10.145   0.389   6.177 -0.1857 -0.6490 -0.2978
  185MOL0     C24349  10.268   0.299   6.143  1.1834 -0.3224  0.1096
  185MOL0     C24350  10.350   0.359   6.037  0.8253 -0.0034  0.0270
  185MOL0     C24351  10.468   0.268   6.004  0.9262  0.2971 -0.2717
  185MOL0     C24352  10.562   0.203   5.976 -0.9278 -0.6217  0.3238
  185MOL0     C24353   9.706   0.512   6.103 -0.4240 -0.9083  1.1104
  185MOL0     C24354   9.565   0.501   6.109 -0.7539  0.3518 -0.1002
  185MOL0     H24355   9.144   0.433   6.023  2.6534  2.2175  1.3798
  185MOL0     H24356   8.880   0.436   6.036  0.1497 -2.0189  0.4148
  185MOL0     H24357   8.661   0.550   6.106  3.3667 -1.6496 -0.1339
  185MOL0     H24358   8.738   0.671   6.206 -0.4309  0.6354  0.8726
  185MOL0     H24359   8.494   0.507   6.315 -0.9743  0.4129 -0.4823
  185MOL0     H24360   8.477   0.656   6.234 -1.1125 -0.8412  1.2522
  185MOL0     H24361   8.626   0.754   6.411 -2.3619  0.9396 -0.4069
  185MOL0     H24362   8.653   0.589   6.469 -1.2705 -1.1536  0.9264
  185MOL0     H24363   8.421   0.590   6.561  2.8403 -0.8788 -0.1227
  185MOL0     H24364   8.499   0.738   6.611  0.1271 -1.3505  0.6262
  185MOL0     H24365   8.321   0.724   6.362 -0.6877  1.2400 -0.6658
  185MOL0     H24366   8.360   0.874   6.444 -3.3623 -0.2304 -4.6621
  185MOL0     H24367   8.245   0.808   6.644 -2.4462  2.1401  0.5790
  185MOL0     H24368   8.192   0.664   6.551  1.1843  0.0523 -5.1418
  185MOL0     H24369   8.137   0.966   6.527  0.0807  0.0791 -0.0221
  185MOL0     H24370   8.105   0.856   6.392  1.4010  1.3961  0.1600
  185MOL0     H24371   7.952   0.868   6.664  0.9880 -2.2808 -0.3805
  185MOL0     H24372   7.956   0.724   6.579  0.6590  0.9043  0.9635
  185MOL0     H24373   7.885   1.098   6.465 -0.3333 -0.7160 -0.5085
  185MOL0     H24374   7.594   1.135   6.374  1.4891  1.4663 -0.1596
  185MOL0     H24375   7.570   1.052   6.223 -0.7913  0.6022  0.5399
  185MOL0     H24376   7.765   1.176   6.134  0.0676 -2.2296  1.3845
  185MOL0     H24377   7.811   1.253   6.284  1.7633  0.7550 -1.8713
  185MOL0     H24378   7.599   1.393   6.272 -0.3289  2.0827 -1.8537
  185MOL0     H24379   7.686   1.409   6.118  1.3181 -0.8625 -0.1425
  185MOL0     H24380   7.457   1.219   6.175  1.7454 -1.9342  0.6757
  185MOL0     H24381   7.525   1.248   6.012  1.4539 -0.0927 -0.2769
  185MOL0     H24382   7.299   1.152   6.028 -0.2406 -0.9387 -1.0089
  185MOL0     H24383   7.062   1.109   5.977 -0.3447 -0.2673 -3.0524
  185MOL0     H24384   6.724   1.005   6.041 -0.3334 -0.0476  0.8201
  185MOL0     H24385   6.497   0.922   6.040  0.3706 -0.1450  0.7321
  185MOL0     H24386   6.289   0.886   6.007 -0.8555  0.4833  0.4810
  185MOL0     H24387   6.308   0.808   5.847 -0.9893 -0.1037 -1.6592
  185MOL0     H24388   6.119   0.765   5.943  0.3404 -0.1468 -0.8546
  185MOL0     H24389   6.063   0.865   5.807 -0.8847  0.1315  0.6176
  185MOL0     H24390   6.051   1.067   5.946  2.8385 -1.3065 -3.4812
  185MOL0     H24391   6.095   0.978   6.092 -0.1101  1.1107 -0.5531
  185MOL0     H24392   5.878   0.813   6.030 -0.7452 -0.5606  1.1528
  185MOL0     H24393   5.857   0.987   6.097  1.0813 -1.2553  0.4710
  185MOL0     H24394   5.851   0.904   5.807 -1.7120 -1.8636  0.4696
  185MOL0     H24395   5.826   1.061   5.882 -2.4061 -0.4435  0.8979
  185MOL0     H24396   5.618   0.961   5.807 -2.2849 -1.3036 -0.0306
  185MOL0     H24397   5.611   0.960   5.987 -0.6659  0.9555  0.0678
  185MOL0     H24398   5.707   0.728   5.806 -2.2285 -0.6147 -1.6866
  185MOL0     H24399   5.694   0.719   5.988  1.9811  2.9121 -1.4099
  185MOL0     H24400   5.472   0.800   5.815  1.6755  1.7410  0.6143
  185MOL0     H24401   5.467   0.717   5.976 -0.9476 -1.3301 -0.0656
  185MOL0     H24402   6.418   1.193   5.697  1.6461 -1.5911 -1.9654
  185MOL0     H24403   6.649   1.295   5.738  0.2250 -0.8530 -2.0312
  185MOL0     H24404   6.994   1.539   6.038  2.9986  1.7746  1.1593
  185MOL0     H24405   7.217   1.577   6.076  0.8118  0.0783 -1.5285
  185MOL0     H24406   8.916   0.516   6.456 -0.7427 -3.4159  0.2323
  185MOL0     H24407   9.168   0.514   6.434 -3.1076  0.4055  2.2118
  185MOL0     H24408   9.537   0.161   6.125  0.8935 -0.0969  0.0594
  185MOL0     H24409   9.780   0.181   6.105 -1.4197 -0.7187  2.0162
  185MOL0     H24410  10.038   0.333   5.995 -0.4829  2.2701 -0.2159
  185MOL0     H24411   9.979   0.242   6.139  0.3951 -0.2902  1.2467
  185MOL0     H24412  10.168   0.493   6.153  5.8926 -1.5855 -0.0230
  185MOL0     H24413  10.118   0.388   6.283 -0.9601  2.4828 -0.3838
  185MOL0     H24414  10.229   0.200   6.117 -1.7664  0.3050  1.6627
  185MOL0     H24415  10.330   0.283   6.231  1.9903 -2.9635 -0.8444
  185MOL0     H24416  10.301   0.388   5.943  1.2124 -2.6798 -1.0883
  185MOL0     H24417  10.397   0.453   6.070  0.6664 -0.2350  0.9404
  185MOL0     H24418  10.646   0.144   5.946  0.1527  0.2094  1.6064
  185MOL0     H24419   9.757   0.607   6.116 -0.4433 -0.9232  1.2990
  185MOL0     H24420   9.495   0.583   6.121 -3.2280 -1.7000  0.4245
  186MOL0     O24421   0.396   1.710   9.142  0.4502  0.0431  0.0197
  186MOL0     C24422   0.448   1.824   9.130  0.4045 -0.4962  0.3539
  186MOL0     O24423   0.379   1.930   9.062 -0.1144  0.4041  0.8122
  186MOL0     C24424   0.244   1.928   9.060  0.3517 -0.3555 -0.2210
  186MOL0     C24425   0.179   1.984   8.947 -0.2706  0.5276 -1.2805
  186MOL0     C24426   0.041   1.975   8.925 -0.3710 -1.2881 -1.0182
  186MOL0     C24427  -0.036   1.931   9.043  0.8325 -0.1663  0.1976
  186MOL0     O24428  -0.174   1.938   9.029 -0.0662  0.2837 -0.4166
  186MOL0     C24429  -0.252   1.968   8.914 -0.2546  0.3945 -0.9023
  186MOL0     C24430  -0.263   1.852   8.806 -0.2048 -0.6449 -0.8279
  186MOL0     C24431  -0.349   1.722   8.844  0.4874  0.0648 -0.1503
  186MOL0     C24432  -0.349   1.626   8.722  0.0534 -0.8582  0.4565
  186MOL0     C24433  -0.430   1.499   8.747 -0.9406  0.5931 -0.2052
  186MOL0     C24434  -0.572   1.519   8.800 -0.1004  0.3495 -0.4325
  186MOL0     C24435  -0.578   1.489   8.957  0.3383  0.0850  0.2514
  186MOL0     C24436  -0.703   1.550   9.016 -0.7202 -0.3184 -0.7490
  186MOL0     N24437  -0.827   1.500   8.950 -0.4630 -0.5823 -0.2619
  186MOL0     C24438  -0.859   1.375   8.928  0.1132  0.8609  0.2300
  186MOL0     C24439  -0.962   1.369   8.839  0.0936  0.9494 -0.4245
  186MOL0     C24440  -1.045   1.246   8.817  0.4470  0.0890 -0.1264
  186MOL0     C24441  -1.189   1.295   8.837  0.1905 -0.5813 -0.5533
  186MOL0     C24442  -1.293   1.187   8.831  0.0875 -0.8019  0.0111
  186MOL0     C24443  -1.430   1.251   8.866  0.7404 -0.3744 -0.6001
  186MOL0     O24444  -1.498   1.133   8.931 -0.5582  0.7150  0.2465
  186MOL0     C24445  -1.611   1.166   9.001 -0.5768  1.0947  0.7126
  186MOL0     C24446  -1.710   1.064   8.996  0.7381 -0.4631  0.1706
  186MOL0     C24447  -1.816   1.078   9.077 -0.7085 -0.1783  0.1945
  186MOL0     C24448  -1.854   1.197   9.146 -0.0576  0.5020 -0.0440
  186MOL0     C24449  -1.979   1.208   9.233 -0.6764  0.3350  0.0358
  186MOL0     O24450  -2.079   1.120   9.219  0.2783  0.2065  0.2325
  186MOL0     C24451  -2.195   1.127   9.299 -0.3854 -0.5611 -0.3388
  186MOL0     C24452  -2.263   1.017   9.351 -0.0147 -0.7228 -0.3351
  186MOL0     C24453  -2.380   1.020   9.421  0.5681  0.3140  0.7464
  186MOL0     C24454  -2.433   1.140   9.462  0.7247 -0.0319 -1.0639
  186MOL0     O24455  -2.548   1.129   9.535 -0.2699  0.3405 -0.9357
  186MOL0     C24456  -2.597   1.252   9.599  0.7071 -0.1142 -0.5226
  186MOL0     C24457  -2.674   1.211   9.719  0.2623 -1.2127  1.2416
  186MOL0     C24458  -2.754   1.328   9.758 -0.2894  0.1220 -0.0366
  186MOL0     C24459  -2.838   1.286   9.877  0.4951  0.4250 -0.0376
  186MOL0     C24460  -2.952   1.391   9.896 -0.0185  0.5830  0.5182
  186MOL0     C24461  -3.039   1.352  10.016 -1.0780 -1.0402 -0.0363
  186MOL0     C24462  -3.156   1.456  10.031 -0.0585 -0.0858  0.8456
  186MOL0     C24463  -3.264   1.418  10.125  1.0682  0.4034 -0.2127
  186MOL0    Cl24464  -3.200   1.349  10.273  0.9830  0.0901  0.4187
  186MOL0     C24465  -2.380   1.258   9.401  1.0421  0.5530  0.1851
  186MOL0     C24466  -2.261   1.256   9.324 -0.8321  0.4944  1.0844
  186MOL0     O24467  -1.968   1.285   9.325  1.4273 -0.6927  0.1749
  186MOL0     C24468  -1.762   1.308   9.130  0.2657  0.0364 -0.7840
  186MOL0     C24469  -1.644   1.286   9.065 -0.5298  0.2369  0.2937
  186MOL0     N24470  -0.988   1.501   8.806 -0.3705 -0.7191 -0.5358
  186MOL0     N24471  -0.916   1.574   8.884 -0.9761 -0.1144  0.1474
  186MOL0     C24472   0.023   1.885   9.162 -0.5495  0.2016  0.5563
  186MOL0     C24473   0.161   1.887   9.158  0.4761 -0.3859  0.2168
  186MOL0     C24474   0.575   1.850   9.194 -1.1978 -0.7943 -0.9056
  186MOL0     C24475   0.607   1.984   9.234  0.0670 -0.0087  0.6681
  186MOL0     C24476   0.716   2.021   9.313 -0.8058  0.6950 -0.4292
  186MOL0     C24477   0.807   1.913   9.355  1.1520  0.4824  0.5337
  186MOL0     O24478   0.919   1.931   9.432 -0.0324 -0.5949  0.1575
  186MOL0     C24479   0.945   2.070   9.472  0.1058  0.0903  0.6192
  186MOL0     C24480   1.062   2.069   9.577  0.3682  1.0068  0.4175
  186MOL0     C24481   1.197   2.040   9.509  0.0156  1.1614  0.3676
  186MOL0     C24482   1.223   1.890   9.488 -0.1919 -0.5167  0.0218
  186MOL0     C24483   1.368   1.877   9.448  0.9282  0.0839  0.5627
  186MOL0     C24484   1.489   1.895   9.431 -0.5466  0.3851  0.5472
  186MOL0     C24485   0.782   1.787   9.316 -0.3550 -0.0838 -0.3709
  186MOL0     C24486   0.669   1.760   9.241  0.4385  0.6644  0.5068
  186MOL0     H24487   0.247   2.027   8.874  1.3303 -0.8016 -0.6665
  186MOL0     H24488   0.004   2.012   8.830 -2.0474 -0.7314 -0.1938
  186MOL0     H24489  -0.197   2.045   8.860  0.3257 -0.5654 -1.7241
  186MOL0     H24490  -0.349   2.001   8.951 -1.6369 -3.1539 -0.9820
  186MOL0     H24491  -0.163   1.814   8.784 -0.3763 -0.3554 -2.1864
  186MOL0     H24492  -0.308   1.901   8.719 -2.3921  3.1553  2.1121
  186MOL0     H24493  -0.449   1.748   8.881  0.2966 -0.4790 -0.2731
  186MOL0     H24494  -0.295   1.689   8.932  0.5950  2.8430  0.9336
  186MOL0     H24495  -0.404   1.680   8.644  1.4754  2.1801  1.4006
  186MOL0     H24496  -0.246   1.613   8.687  0.2146  1.9080 -0.2987
  186MOL0     H24497  -0.365   1.441   8.813 -0.2367 -1.0372 -2.2267
  186MOL0     H24498  -0.432   1.436   8.658  2.2703 -0.9449  0.6434
  186MOL0     H24499  -0.636   1.460   8.733  0.3016 -0.3835 -0.1780
  186MOL0     H24500  -0.606   1.623   8.793 -0.4618  0.2058 -0.8388
  186MOL0     H24501  -0.578   1.381   8.973 -0.0860 -0.1899 -1.4193
  186MOL0     H24502  -0.490   1.529   9.008 -0.1277 -0.7595  1.7774
  186MOL0     H24503  -0.710   1.659   9.017  1.7555 -0.0910 -0.4365
  186MOL0     H24504  -0.710   1.526   9.123  0.8112 -0.0669 -0.5704
  186MOL0     H24505  -0.812   1.287   8.970  1.9801  1.4129 -0.5906
  186MOL0     H24506  -1.029   1.164   8.888  0.0882 -2.8053 -3.1576
  186MOL0     H24507  -1.019   1.207   8.718  0.2710  0.6776 -0.4058
  186MOL0     H24508  -1.206   1.370   8.758  0.4889  0.9729  0.8023
  186MOL0     H24509  -1.196   1.349   8.932  2.0069  0.0409 -0.7406
  186MOL0     H24510  -1.303   1.137   8.734  2.6787 -0.7763 -0.3303
  186MOL0     H24511  -1.269   1.116   8.911  0.5429  1.3385  1.8471
  186MOL0     H24512  -1.478   1.293   8.777  1.9242  1.3600 -0.4623
  186MOL0     H24513  -1.406   1.330   8.938  2.3027 -2.8201  1.7380
  186MOL0     H24514  -1.696   0.975   8.936  2.2399  1.1697 -2.0137
  186MOL0     H24515  -1.891   1.001   9.069 -0.9687  0.0864  0.0698
  186MOL0     H24516  -2.228   0.915   9.338 -0.6660 -1.2526  1.6407
  186MOL0     H24517  -2.427   0.929   9.457  1.0989 -1.0277 -1.7218
  186MOL0     H24518  -2.654   1.312   9.527  0.7004  0.7150  0.1524
  186MOL0     H24519  -2.517   1.324   9.623 -0.7452  0.0223  5.5271
  186MOL0     H24520  -2.599   1.187   9.795  0.5463 -0.4432  1.2109
  186MOL0     H24521  -2.737   1.127   9.688  2.1856 -2.2392 -0.1990
  186MOL0     H24522  -2.815   1.352   9.671  1.7482  1.1892 -1.2467
  186MOL0     H24523  -2.695   1.416   9.786 -3.5799  1.8472  2.1053
  186MOL0     H24524  -2.888   1.190   9.863  1.5943 -0.5041  2.0569
  186MOL0     H24525  -2.775   1.268   9.965  0.3845  0.3254  0.0224
  186MOL0     H24526  -3.020   1.384   9.811  0.6576 -0.4152  0.0335
  186MOL0     H24527  -2.922   1.496   9.893 -1.5627  1.1726  3.2259
  186MOL0     H24528  -2.980   1.371  10.106 -0.0280  1.4799 -1.1676
  186MOL0     H24529  -3.074   1.249  10.006 -2.6587 -0.6081  0.7856
  186MOL0     H24530  -3.108   1.549  10.064 -0.4698  0.3981  0.1157
  186MOL0     H24531  -3.194   1.475   9.929  1.3665 -2.7522 -0.2838
  186MOL0     H24532  -3.324   1.344  10.071  1.6863  0.0619 -0.4427
  186MOL0     H24533  -3.328   1.500  10.158 -0.8666 -0.7888 -0.8028
  186MOL0     H24534  -2.429   1.351   9.425  2.6849  0.7251  3.4608
  186MOL0     H24535  -2.230   1.348   9.276 -1.3605  0.3337  0.4161
  186MOL0     H24536  -1.790   1.406   9.167  1.4367 -0.2071  0.8434
  186MOL0     H24537  -1.567   1.363   9.065 -0.1005 -0.1196  2.8937
  186MOL0     H24538  -0.053   1.844   9.228  1.8155 -1.4971  2.4125
  186MOL0     H24539   0.205   1.850   9.250 -2.6304 -0.2797  1.9000
  186MOL0     H24540   0.548   2.071   9.207 -1.9681 -0.9468  1.8361
  186MOL0     H24541   0.727   2.127   9.336 -0.5443  0.9648 -1.7213
  186MOL0     H24542   0.859   2.126   9.510  0.9818 -0.2921  3.3866
  186MOL0     H24543   0.971   2.125   9.381 -0.5550  1.5743  1.2995
  186MOL0     H24544   1.075   2.167   9.623 -0.1122  1.9356 -1.3097
  186MOL0     H24545   1.032   1.987   9.643  0.2079 -1.4696 -2.5166
  186MOL0     H24546   1.274   2.079   9.576  0.2388  0.6758  0.4013
  186MOL0     H24547   1.213   2.097   9.417  1.5484 -0.8353 -0.6831
  186MOL0     H24548   1.193   1.820   9.567  3.0510 -4.0352 -1.5254
  186MOL0     H24549   1.161   1.865   9.401  0.8849 -1.9676 -0.3824
  186MOL0     H24550   1.587   1.909   9.389 -1.3104  0.7733 -1.1731
  186MOL0     H24551   0.852   1.715   9.357  1.7408  1.3922 -1.2099
  186MOL0     H24552   0.636   1.661   9.212 -3.1457  1.9794 -0.5322
  187MOL0     O24553   4.060   5.184  11.337  0.1812 -0.4303 -0.4769
  187MOL0     C24554   4.161   5.162  11.280 -0.3155 -0.3086 -0.5136
  187MOL0     O24555   4.181   5.146  11.149  0.1555  0.0732 -0.0028
  187MOL0     C24556   4.055   5.123  11.081 -0.4124 -0.6476  0.5907
  187MOL0     C24557   3.986   5.003  11.079  0.5525 -0.4657  0.7154
  187MOL0     C24558   3.872   4.992  10.996 -0.5300  0.0745  0.6886
  187MOL0     C24559   3.828   5.089  10.911  0.3637  0.1346  0.0490
  187MOL0     O24560   3.708   5.060  10.849  0.6549  0.3537  0.0335
  187MOL0     C24561   3.649   5.151  10.761 -0.5256  0.2456 -0.5122
  187MOL0     C24562   3.544   5.083  10.683  0.1982  0.2638 -0.4781
  187MOL0     C24563   3.481   5.168  10.579 -0.0550 -0.9397 -0.6801
  187MOL0     C24564   3.554   5.174  10.444  0.3740  1.2764  0.3426
  187MOL0     C24565   3.508   5.289  10.360 -0.2900  0.5081  0.1839
  187MOL0     C24566   3.550   5.431  10.414 -0.3034  0.4626 -0.5969
  187MOL0     C24567   3.683   5.447  10.488 -0.0959  0.5388 -0.1529
  187MOL0     C24568   3.799   5.431  10.392  0.3340 -0.5013 -0.5575
  187MOL0     N24569   3.934   5.397  10.451  0.4242 -0.0396 -0.5740
  187MOL0     C24570   4.031   5.358  10.367 -0.9129  0.0774  0.0969
  187MOL0     C24571   4.145   5.378  10.446  0.9302  0.8047  0.7620
  187MOL0     C24572   4.288   5.335  10.402  0.5478  0.0690  0.7043
  187MOL0     C24573   4.380   5.331  10.524 -0.1005  0.0546  0.3284
  187MOL0     C24574   4.508   5.280  10.475  0.7182  0.2582 -0.3533
  187MOL0     C24575   4.611   5.246  10.595  0.4891 -0.2306  0.0613
  187MOL0     O24576   4.740   5.237  10.540 -0.9995 -0.2362 -0.3736
  187MOL0     C24577   4.790   5.124  10.477  0.1074  0.0942  0.8672
  187MOL0     C24578   4.917   5.139  10.423 -0.2899  0.9884 -0.4781
  187MOL0     C24579   4.966   5.037  10.349 -0.0277  0.0690  0.9608
  187MOL0     C24580   4.892   4.920  10.321 -0.1874  0.5012  1.5080
  187MOL0     C24581   4.941   4.824  10.226 -0.5792 -0.2091  0.2076
  187MOL0     O24582   5.075   4.840  10.205 -0.6664 -0.5582  0.4289
  187MOL0     C24583   5.144   4.782  10.097  0.3550  0.5679 -0.4875
  187MOL0     C24584   5.271   4.745  10.123  0.2828  0.2123  0.2845
  187MOL0     C24585   5.352   4.674  10.032  1.1918 -0.0722  0.3107
  187MOL0     C24586   5.310   4.648   9.906  1.0187 -0.2527  1.4925
  187MOL0     O24587   5.397   4.572   9.828  0.3083  0.6029 -0.4562
  187MOL0     C24588   5.342   4.523   9.705  0.1885 -0.7605  0.6133
  187MOL0     C24589   5.423   4.394   9.664 -0.3750 -0.0155 -0.8443
  187MOL0     C24590   5.567   4.433   9.654  0.0283 -0.1148  0.4454
  187MOL0     C24591   5.655   4.318   9.599 -0.5273 -0.0926  0.0256
  187MOL0     C24592   5.788   4.357   9.543 -0.5506 -0.4152  0.1630
  187MOL0     C24593   5.872   4.246   9.469  0.8697 -0.6178  0.1215
  187MOL0     C24594   6.018   4.296   9.448  0.3131 -0.2954 -0.2415
  187MOL0     C24595   6.129   4.191   9.406  0.3333 -0.1554 -0.5069
  187MOL0    Cl24596   6.290   4.271   9.384  0.1201  0.1220 -0.5124
  187MOL0     C24597   5.177   4.686   9.874 -0.0780 -0.4411  0.0448
  187MOL0     C24598   5.096   4.757   9.971  0.2430  0.1970 -0.1886
  187MOL0     O24599   4.874   4.746  10.168 -0.1928 -0.5202 -0.0978
  187MOL0     C24600   4.762   4.908  10.368  0.6008  0.5151 -0.8540
  187MOL0     C24601   4.715   5.006  10.459 -0.0523  0.2562 -0.8647
  187MOL0     N24602   4.109   5.433  10.571  0.4104  0.6253  0.2614
  187MOL0     N24603   3.984   5.445  10.572 -0.4748  0.7722  0.2013
  187MOL0     C24604   3.879   5.214  10.930  0.2469 -0.2585 -0.3748
  187MOL0     C24605   3.994   5.233  11.005 -0.0704 -0.3375 -0.4179
  187MOL0     C24606   4.277   5.150  11.372  0.3933 -0.6454  0.4351
  187MOL0     C24607   4.403   5.181  11.325 -0.9903  0.5142 -0.1259
  187MOL0     C24608   4.507   5.198  11.415  0.7845 -0.0309  0.1079
  187MOL0     C24609   4.483   5.188  11.551 -0.3769  0.3534  0.5828
  187MOL0     O24610   4.596   5.196  11.629 -0.1054  0.1680  0.2321
  187MOL0     C24611   4.585   5.229  11.765  0.6490 -0.0111  0.4728
  187MOL0     C24612   4.716   5.260  11.834 -0.2588  0.4333  0.9127
  187MOL0     C24613   4.691   5.236  11.982  0.0259 -0.0662 -0.0672
  187MOL0     C24614   4.808   5.286  12.080  0.3910 -0.4408  0.8043
  187MOL0     C24615   4.844   5.428  12.060 -0.7051 -0.3513 -0.2195
  187MOL0     C24616   4.881   5.542  12.026 -0.1094 -0.1808  0.0965
  187MOL0     C24617   4.369   5.134  11.601  0.3335  0.7088 -0.1929
  187MOL0     C24618   4.259   5.123  11.503 -0.5016 -0.5488  0.1735
  187MOL0     H24619   4.019   4.924  11.146  1.1881  1.9576  3.4551
  187MOL0     H24620   3.824   4.895  11.003  1.0572 -1.1666 -2.8087
  187MOL0     H24621   3.716   5.207  10.694 -2.3093  0.8099 -1.8985
  187MOL0     H24622   3.598   5.222  10.827 -0.1429  1.2962 -1.3056
  187MOL0     H24623   3.476   5.034  10.753 -0.4372 -2.3098 -2.7136
  187MOL0     H24624   3.594   5.008  10.621  3.4912  2.6076 -0.9244
  187MOL0     H24625   3.469   5.267  10.625 -3.6876 -2.1531  1.4113
  187MOL0     H24626   3.378   5.132  10.566 -0.2601 -0.8763  0.6742
  187MOL0     H24627   3.660   5.167  10.470 -0.0989  0.0910  2.0867
  187MOL0     H24628   3.531   5.084  10.386  3.5397  2.5786 -3.4011
  187MOL0     H24629   3.399   5.281  10.355 -0.2500 -1.9113  1.6122
  187MOL0     H24630   3.541   5.287  10.255 -2.2812  0.9207 -0.4829
  187MOL0     H24631   3.479   5.481  10.482 -1.5240  0.0856 -1.5593
  187MOL0     H24632   3.540   5.499  10.329 -6.1288  1.8289  0.7548
  187MOL0     H24633   3.699   5.543  10.538  1.3999  2.3235 -3.7108
  187MOL0     H24634   3.691   5.364  10.558  2.6119 -0.3783 -1.3827
  187MOL0     H24635   3.808   5.530  10.348  1.0656  0.3513  1.3980
  187MOL0     H24636   3.784   5.354  10.316  1.0981 -2.4918  1.1834
  187MOL0     H24637   4.026   5.305  10.273  0.2764  0.0504  0.0391
  187MOL0     H24638   4.323   5.423  10.347 -1.0392  2.9920  3.9682
  187MOL0     H24639   4.276   5.251  10.334 -4.1363  2.0187 -1.2571
  187MOL0     H24640   4.341   5.268  10.604  1.8685 -0.4227  0.9717
  187MOL0     H24641   4.386   5.434  10.559 -2.2163  0.1116  0.6338
  187MOL0     H24642   4.488   5.188  10.419 -1.5562  1.1387 -1.1433
  187MOL0     H24643   4.560   5.357  10.418 -0.6410  1.6890  0.2804
  187MOL0     H24644   4.582   5.157  10.652  1.7809  0.0290  1.1743
  187MOL0     H24645   4.617   5.326  10.670  3.7131  1.6799 -2.0216
  187MOL0     H24646   4.963   5.236  10.439  1.6916 -0.2221  1.8065
  187MOL0     H24647   5.060   5.057  10.299 -2.0776 -0.3821 -3.5472
  187MOL0     H24648   5.311   4.775  10.220 -0.8705  0.5905  0.6634
  187MOL0     H24649   5.455   4.649  10.059  2.3567  0.4563 -3.1811
  187MOL0     H24650   5.342   4.596   9.624 -0.9359 -1.4760 -0.0566
  187MOL0     H24651   5.240   4.488   9.721 -1.2713  1.7475 -2.2074
  187MOL0     H24652   5.391   4.337   9.576 -2.0108 -2.6770  1.3268
  187MOL0     H24653   5.414   4.331   9.753 -1.6791  0.2576 -0.7748
  187MOL0     H24654   5.602   4.453   9.756 -1.3507  1.5846  0.6401
  187MOL0     H24655   5.585   4.515   9.584 -0.7251 -0.4229 -0.1157
  187MOL0     H24656   5.672   4.244   9.677  2.4922  0.5149  0.0759
  187MOL0     H24657   5.611   4.260   9.518 -0.1005  0.5773 -0.7007
  187MOL0     H24658   5.851   4.387   9.628 -1.9535 -2.1244  1.8865
  187MOL0     H24659   5.780   4.434   9.466  2.1701 -0.5241 -0.3531
  187MOL0     H24660   5.814   4.238   9.377 -0.3149 -0.5968  0.8403
  187MOL0     H24661   5.871   4.146   9.514  0.0294 -0.8661 -0.4262
  187MOL0     H24662   6.021   4.384   9.383 -0.0274  2.7741  3.4850
  187MOL0     H24663   6.041   4.344   9.544  2.9569  0.9595 -1.4128
  187MOL0     H24664   6.099   4.138   9.315 -0.0918  0.6503 -0.8474
  187MOL0     H24665   6.125   4.110   9.480 -2.7403  1.5793  1.4343
  187MOL0     H24666   5.131   4.654   9.781 -0.0893 -0.4481  0.0526
  187MOL0     H24667   4.997   4.771   9.929  1.2009  0.2671 -2.5949
  187MOL0     H24668   4.700   4.823  10.340  2.1106 -1.1568  0.5789
  187MOL0     H24669   4.620   4.996  10.510  0.8232 -2.4974  0.3747
  187MOL0     H24670   3.843   5.300  10.874  2.2832  1.2416  0.4765
  187MOL0     H24671   4.040   5.331  11.013  1.3805 -0.9510 -0.8742
  187MOL0     H24672   4.423   5.205  11.221  3.6449  2.4661  0.9516
  187MOL0     H24673   4.606   5.229  11.384  2.0166 -2.2090  1.6100
  187MOL0     H24674   4.541   5.141  11.814 -0.9240  0.3249 -0.2787
  187MOL0     H24675   4.513   5.311  11.774  1.2990  0.7138 -0.6493
  187MOL0     H24676   4.796   5.197  11.794  1.3950  4.0414 -1.9869
  187MOL0     H24677   4.746   5.364  11.817  1.5878 -0.2201 -0.1057
  187MOL0     H24678   4.685   5.127  11.994  4.7596 -0.5304  0.2166
  187MOL0     H24679   4.603   5.293  12.011  0.9523  2.7258 -2.2842
  187MOL0     H24680   4.763   5.279  12.180 -1.8319 -0.3693 -0.1377
  187MOL0     H24681   4.889   5.213  12.068  0.6737 -0.4151  2.3731
  187MOL0     H24682   4.922   5.633  11.987  1.2629 -1.2994 -1.1668
  187MOL0     H24683   4.359   5.097  11.703 -0.1879  2.3251  0.3773
  187MOL0     H24684   4.160   5.092  11.536 -0.1470 -0.1418  1.7027
  188MOL0     O24685   6.412   4.743   1.829  0.1854  0.5658 -0.4850
  188MOL0     C24686   6.455   4.829   1.904  0.0528 -0.3791 -0.0679
  188MOL0     O24687   6.374   4.936   1.954  0.0171 -0.0719 -0.5842
  188MOL0     C24688   6.241   4.946   1.922 -0.0769  0.3565  0.8391
  188MOL0     C24689   6.196   4.934   1.797  0.4682 -1.0391 -0.9083
  188MOL0     C24690   6.061   4.918   1.767  0.8138 -1.1701 -0.2369
  188MOL0     C24691   5.970   4.918   1.880  0.6429  0.7316  0.4255
  188MOL0     O24692   5.831   4.888   1.867 -0.9580 -0.5999  0.3058
  188MOL0     C24693   5.750   5.001   1.844 -1.2725  0.0907  0.0968
  188MOL0     C24694   5.762   5.082   1.713 -0.6454  0.1165  0.2922
  188MOL0     C24695   5.675   5.026   1.597 -0.5806  0.0038  0.7742
  188MOL0     C24696   5.695   5.097   1.460 -0.5997  0.2211  0.6222
  188MOL0     C24697   5.830   5.156   1.432 -0.2117  0.6216  0.6422
  188MOL0     C24698   5.926   5.038   1.401  0.3639 -0.3863 -0.3603
  188MOL0     C24699   6.068   5.090   1.403 -0.7145  0.5146 -0.2370
  188MOL0     C24700   6.173   4.971   1.392 -0.5839  0.9553 -0.5404
  188MOL0     N24701   6.151   4.887   1.270  0.8401 -0.8231  0.3150
  188MOL0     C24702   6.050   4.798   1.258 -0.0443 -0.4759 -0.3120
  188MOL0     C24703   6.051   4.754   1.130 -0.0606 -0.2919 -0.8134
  188MOL0     C24704   5.989   4.627   1.090 -0.9844  1.5879  0.5849
  188MOL0     C24705   5.849   4.635   1.032  0.1896 -0.0712  0.2010
  188MOL0     C24706   5.835   4.730   0.903  0.0963 -0.4456  0.0467
  188MOL0     C24707   5.693   4.733   0.851 -0.5174 -0.3007  0.3454
  188MOL0     O24708   5.631   4.855   0.881 -0.7654  0.5652 -0.1528
  188MOL0     C24709   5.496   4.868   0.851  0.5292  0.7358 -0.8822
  188MOL0     C24710   5.426   4.760   0.796  0.2624  0.2291 -0.7832
  188MOL0     C24711   5.289   4.760   0.754  0.5969  0.6577  0.0709
  188MOL0     C24712   5.212   4.874   0.782 -0.6885  1.1691  0.0454
  188MOL0     C24713   5.064   4.876   0.756 -0.3327 -1.1093 -0.0373
  188MOL0     O24714   5.007   4.763   0.727  0.4142 -0.7628 -1.0979
  188MOL0     C24715   4.871   4.764   0.697  0.2370  0.2777 -0.0790
  188MOL0     C24716   4.816   4.838   0.585  0.5428 -0.1806 -0.8315
  188MOL0     C24717   4.680   4.834   0.562 -0.4448  0.1541  0.5419
  188MOL0     C24718   4.592   4.763   0.652  0.0080 -0.6026  0.4642
  188MOL0     O24719   4.459   4.777   0.638 -0.0162  0.1650 -0.5176
  188MOL0     C24720   4.391   4.796   0.768 -0.0147  0.7088  0.1560
  188MOL0     C24721   4.239   4.830   0.752 -0.3441 -0.2419  0.4484
  188MOL0     C24722   4.202   4.931   0.641  0.2379 -0.5269  0.3854
  188MOL0     C24723   4.233   5.075   0.694  0.4284  0.5892  1.0973
  188MOL0     C24724   4.182   5.176   0.592 -0.9445  0.7591 -0.5077
  188MOL0     C24725   4.234   5.321   0.622  0.9943  0.4048 -0.2632
  188MOL0     C24726   4.224   5.382   0.765 -0.0063 -0.1593  0.0035
  188MOL0     C24727   4.250   5.534   0.767  0.5229 -0.1494  0.3239
  188MOL0    Cl24728   4.416   5.571   0.695  0.2862  0.9515 -0.1834
  188MOL0     C24729   4.645   4.693   0.761 -0.5505  0.3097 -0.8244
  188MOL0     C24730   4.786   4.685   0.776 -0.3056 -0.4031 -0.7757
  188MOL0     O24731   5.008   4.983   0.749  0.2578 -0.8274  0.3104
  188MOL0     C24732   5.279   4.985   0.839 -0.2861 -0.5731 -0.7641
  188MOL0     C24733   5.413   4.991   0.868  0.2374  0.6364  0.3853
  188MOL0     N24734   6.136   4.840   1.061 -0.5219 -0.4067 -0.5829
  188MOL0     N24735   6.200   4.920   1.147  0.0647  0.1976 -0.1803
  188MOL0     C24736   6.019   4.946   2.010  0.3124 -0.2191 -0.6367
  188MOL0     C24737   6.156   4.960   2.029  0.3005  0.1826  0.4512
  188MOL0     C24738   6.596   4.815   1.940 -0.0901  0.2257  0.3295
  188MOL0     C24739   6.664   4.934   1.956 -0.4027 -0.5006 -1.0331
  188MOL0     C24740   6.801   4.924   1.993  0.2889  0.3531 -0.0619
  188MOL0     C24741   6.861   4.804   2.023  0.9143 -0.9728  0.0751
  188MOL0     O24742   6.994   4.807   2.065  0.1360  1.0601 -0.7044
  188MOL0     C24743   7.071   4.753   1.959 -0.4272 -0.5490 -0.3219
  188MOL0     C24744   7.219   4.795   1.967  0.1525  0.5423 -0.9901
  188MOL0     C24745   7.287   4.732   2.092  0.4553  0.5962 -0.1033
  188MOL0     C24746   7.320   4.583   2.106  0.2297  0.3206  0.4166
  188MOL0     C24747   7.424   4.543   2.012  0.6455  0.1741 -0.3028
  188MOL0     C24748   7.514   4.531   1.939 -0.2978  0.3447  0.2496
  188MOL0     C24749   6.789   4.683   1.998  0.0807  0.8169  0.7318
  188MOL0     C24750   6.659   4.690   1.959 -0.1965  0.6488 -0.3381
  188MOL0     H24751   6.263   4.934   1.711  0.2512 -1.1213 -1.0774
  188MOL0     H24752   6.041   4.906   1.661 -1.3157 -0.4345  0.0324
  188MOL0     H24753   5.778   5.060   1.932  1.4607 -0.5109 -0.2945
  188MOL0     H24754   5.650   4.959   1.858 -0.1430 -2.6707  0.4815
  188MOL0     H24755   5.867   5.087   1.684 -0.9200  2.6797 -0.5595
  188MOL0     H24756   5.730   5.185   1.735 -3.1006 -0.3288 -0.8243
  188MOL0     H24757   5.571   5.032   1.630 -0.2617  1.6157  1.5629
  188MOL0     H24758   5.700   4.920   1.583 -2.1798 -0.2555 -0.4599
  188MOL0     H24759   5.659   5.032   1.380  0.8975  1.2777 -0.9641
  188MOL0     H24760   5.619   5.175   1.457 -0.0821  0.7113 -2.1968
  188MOL0     H24761   5.865   5.227   1.507  0.5535  2.3013 -1.2094
  188MOL0     H24762   5.817   5.205   1.335 -3.6073 -1.7402 -0.3086
  188MOL0     H24763   5.901   5.002   1.301 -2.2228 -1.1563  0.4838
  188MOL0     H24764   5.913   4.949   1.465  1.3197 -0.4360 -0.2230
  188MOL0     H24765   6.089   5.164   1.325  3.5462 -2.1033 -1.9540
  188MOL0     H24766   6.081   5.145   1.496  2.8567 -1.4350  0.6060
  188MOL0     H24767   6.193   4.905   1.477  1.0964 -1.4283 -2.6431
  188MOL0     H24768   6.270   5.019   1.375  0.3879 -0.8979 -0.4887
  188MOL0     H24769   5.997   4.758   1.344  0.2880 -0.0825  0.0728
  188MOL0     H24770   5.993   4.554   1.171  0.9342 -0.3848 -1.1521
  188MOL0     H24771   6.050   4.580   1.012 -2.2020  0.1395  0.4529
  188MOL0     H24772   5.779   4.675   1.106  2.0703  0.4848  1.7819
  188MOL0     H24773   5.830   4.533   0.997  1.0297 -1.2684  2.9382
  188MOL0     H24774   5.863   4.833   0.928  0.0179 -0.7976  1.6850
  188MOL0     H24775   5.899   4.705   0.818 -2.4508 -0.5808 -1.9524
  188MOL0     H24776   5.639   4.644   0.886 -0.0877 -1.5287 -1.9617
  188MOL0     H24777   5.714   4.729   0.744  3.2995  1.6710  0.8413
  188MOL0     H24778   5.473   4.664   0.775  0.5154 -0.7401  3.4027
  188MOL0     H24779   5.230   4.682   0.707  1.3579 -0.0478  0.2582
  188MOL0     H24780   4.873   4.902   0.519  1.1125 -0.8552 -1.0036
  188MOL0     H24781   4.632   4.893   0.484  2.0754  0.9117 -0.5431
  188MOL0     H24782   4.442   4.878   0.820  1.9558 -0.4012  0.0371
  188MOL0     H24783   4.392   4.701   0.822  0.3297  0.8111  0.3271
  188MOL0     H24784   4.194   4.868   0.845 -3.9094  1.3265 -1.7283
  188MOL0     H24785   4.197   4.733   0.724  0.4474 -0.4919  0.1083
  188MOL0     H24786   4.093   4.930   0.635  0.3175 -0.8827 -2.5452
  188MOL0     H24787   4.241   4.901   0.543 -0.9100  1.0031 -0.5980
  188MOL0     H24788   4.179   5.083   0.789 -1.3713  1.1415  0.0829
  188MOL0     H24789   4.339   5.090   0.717  0.6954 -0.7261  0.8109
  188MOL0     H24790   4.075   5.176   0.614 -0.5011  0.6761  1.8671
  188MOL0     H24791   4.200   5.137   0.491 -3.9016 -0.0644 -0.8144
  188MOL0     H24792   4.178   5.378   0.547  1.5560 -0.4815 -1.3878
  188MOL0     H24793   4.343   5.312   0.608  1.0227 -1.6522  0.8324
  188MOL0     H24794   4.123   5.377   0.805  0.4502  2.9360  1.8318
  188MOL0     H24795   4.298   5.329   0.826  0.5544  0.3088 -0.2595
  188MOL0     H24796   4.236   5.582   0.864 -1.3637  0.2913 -0.1249
  188MOL0     H24797   4.174   5.574   0.700 -1.4098  0.1866  2.5910
  188MOL0     H24798   4.591   4.634   0.835 -0.4176  1.5086  0.2793
  188MOL0     H24799   4.822   4.627   0.861 -0.2994  1.3844  0.5032
  188MOL0     H24800   5.216   5.068   0.869 -2.7072 -2.0955 -1.3837
  188MOL0     H24801   5.444   5.080   0.921  0.5360  0.1934  0.9744
  188MOL0     H24802   5.954   4.947   2.096  1.0066 -0.1131 -0.1093
  188MOL0     H24803   6.198   4.986   2.126 -3.8308  3.2318  1.7273
  188MOL0     H24804   6.623   5.034   1.942 -0.8225 -0.5861 -0.4161
  188MOL0     H24805   6.869   5.006   2.011 -0.2033  1.3488 -2.3716
  188MOL0     H24806   7.043   4.800   1.864  0.5978  2.3064  0.6685
  188MOL0     H24807   7.064   4.646   1.939  2.2624 -0.3526 -3.2640
  188MOL0     H24808   7.272   4.762   1.878 -2.9334 -0.8812 -2.4641
  188MOL0     H24809   7.218   4.904   1.973 -1.8549  0.7347 -3.3157
  188MOL0     H24810   7.229   4.757   2.181  3.1943  1.8487  1.4789
  188MOL0     H24811   7.378   4.791   2.107  0.0582  0.5083  3.3469
  188MOL0     H24812   7.367   4.559   2.202 -0.6593 -2.3765  0.2823
  188MOL0     H24813   7.228   4.524   2.090  1.0378 -1.2747  1.4179
  188MOL0     H24814   7.599   4.529   1.873  0.3102 -1.5541  1.0319
  188MOL0     H24815   6.830   4.588   2.029  1.0884  1.4437  1.3775
  188MOL0     H24816   6.615   4.591   1.950 -0.8400  0.9886 -1.0735
  189MOL0     O24817   4.223  10.584   8.134 -0.1856 -0.7629 -0.1929
  189MOL0     C24818   4.234  10.517   8.032  0.0194  0.3372  0.9558
  189MOL0     O24819   4.143  10.486   7.930  0.9675  0.1152  0.9441
  189MOL0     C24820   4.012  10.522   7.931 -1.5578 -1.0511 -0.0338
  189MOL0     C24821   3.937  10.453   7.838  0.2486  0.0277  0.4751
  189MOL0     C24822   3.795  10.461   7.827  0.4568 -0.3527  0.3943
  189MOL0     C24823   3.733  10.558   7.912 -1.3912 -0.8673  0.1520
  189MOL0     O24824   3.603  10.578   7.887  0.7258 -0.8602 -0.4018
  189MOL0     C24825   3.540  10.649   7.990 -0.2264  0.5028  0.1298
  189MOL0     C24826   3.396  10.650   7.971 -0.4422 -1.9352 -0.7975
  189MOL0     C24827   3.346  10.715   8.096 -0.1094 -0.1804 -0.0411
  189MOL0     C24828   3.193  10.741   8.089 -0.1320  0.2009 -1.1395
  189MOL0     C24829   3.151  10.868   8.143 -1.3249 -0.2562  0.1519
  189MOL0     C24830   3.105  10.850   8.295  0.9062  0.6372  0.4670
  189MOL0     C24831   3.055  10.980   8.334 -0.2042  0.0745  0.4505
  189MOL0     C24832   3.003  10.970   8.483  0.4336  0.0508  0.3916
  189MOL0     N24833   2.912  11.094   8.510 -0.0656 -0.2996  0.1899
  189MOL0     C24834   2.785  11.097   8.477 -0.2972  0.8129 -0.4421
  189MOL0     C24835   2.740  11.218   8.514 -0.9086  0.4629 -0.0622
  189MOL0     C24836   2.613  11.273   8.458  0.9561  0.2496  0.1586
  189MOL0     C24837   2.513  11.267   8.573  0.9527  0.9409 -0.2980
  189MOL0     C24838   2.378  11.295   8.526 -0.7500  0.9515  0.5998
  189MOL0     C24839   2.268  11.254   8.634  0.7709  0.4083 -0.1101
  189MOL0     O24840   2.287  11.338   8.745 -0.4553 -0.2163 -0.0524
  189MOL0     C24841   2.181  11.356   8.836  1.0725  0.5240  0.0160
  189MOL0     C24842   2.210  11.410   8.960  0.5469 -0.7621  0.4221
  189MOL0     C24843   2.110  11.427   9.056 -0.2973 -0.3890  0.6017
  189MOL0     C24844   1.979  11.390   9.031 -0.1681  0.4415  0.6876
  189MOL0     C24845   1.869  11.406   9.128  0.5435  0.3939  0.5962
  189MOL0     O24846   1.764  11.318   9.127 -0.6923  0.1102  0.5109
  189MOL0     C24847   1.666  11.348   9.228 -0.2280 -0.1857  0.5202
  189MOL0     C24848   1.696  11.390   9.362 -0.0286 -0.2431 -0.3175
  189MOL0     C24849   1.592  11.433   9.436 -0.3301  0.1795 -0.2167
  189MOL0     C24850   1.458  11.429   9.395  0.0337 -0.0466  0.3484
  189MOL0     O24851   1.354  11.450   9.480 -0.3272  1.0104  0.0780
  189MOL0     C24852   1.347  11.377   9.602 -1.0136  0.8348 -0.6398
  189MOL0     C24853   1.288  11.237   9.582 -0.7939 -0.6832 -0.2791
  189MOL0     C24854   1.263  11.170   9.718  0.2379  0.1473  0.1068
  189MOL0     C24855   1.201  11.029   9.692  0.2503  0.0844 -0.6962
  189MOL0     C24856   1.137  10.968   9.815 -0.1883  0.0334 -0.2586
  189MOL0     C24857   1.238  10.923   9.915 -0.3920  0.2206 -1.5667
  189MOL0     C24858   1.199  10.810  10.007 -0.4718 -0.1128  0.1379
  189MOL0     C24859   1.098  10.842  10.114 -0.4114  0.0607  0.7481
  189MOL0    Cl24860   1.168  10.929  10.244  0.0513 -0.0638 -0.4469
  189MOL0     C24861   1.424  11.388   9.267 -0.1853  0.3829 -1.0655
  189MOL0     C24862   1.533  11.350   9.184 -0.1456  0.9306 -0.1031
  189MOL0     O24863   1.875  11.506   9.199 -0.4271  0.4451  0.4066
  189MOL0     C24864   1.951  11.324   8.905 -0.5235 -1.4454  0.1723
  189MOL0     C24865   2.049  11.314   8.809 -0.5597  1.0448 -0.2493
  189MOL0     N24866   2.851  11.297   8.559  0.5616  0.0225  0.2313
  189MOL0     N24867   2.954  11.217   8.560  0.0658 -0.0480 -0.3406
  189MOL0     C24868   3.816  10.634   7.998 -0.5819  0.3932 -0.3789
  189MOL0     C24869   3.947  10.610   8.014  0.4774 -0.1676 -0.3588
  189MOL0     C24870   4.370  10.445   8.018 -0.0655  0.8230 -0.3109
  189MOL0     C24871   4.449  10.415   8.140 -0.3974 -0.0397  0.6408
  189MOL0     C24872   4.576  10.369   8.130  0.1011 -0.8693  0.3921
  189MOL0     C24873   4.626  10.336   8.005  0.1417 -1.0084  1.3039
  189MOL0     O24874   4.737  10.267   7.989  0.0825  0.1107  0.3499
  189MOL0     C24875   4.866  10.310   8.035 -0.1606 -0.4889 -0.5088
  189MOL0     C24876   4.945  10.308   7.904 -0.3822  1.1014  0.3061
  189MOL0     C24877   5.084  10.372   7.912 -0.3336  0.3138  0.5670
  189MOL0     C24878   5.197  10.278   7.980 -0.1295 -0.3913  0.4546
  189MOL0     C24879   5.171  10.134   7.958 -0.8775  0.4939  0.6554
  189MOL0     C24880   5.151  10.014   7.946  0.1543 -0.5029  0.1564
  189MOL0     C24881   4.555  10.365   7.891  0.2879 -0.6516 -0.1233
  189MOL0     C24882   4.427  10.424   7.891  0.4585 -0.0700  0.9998
  189MOL0     H24883   3.982  10.387   7.765  2.9945  0.2217  1.8699
  189MOL0     H24884   3.744  10.410   7.746 -0.8608 -2.6504  2.4991
  189MOL0     H24885   3.577  10.751   7.992 -2.7186  1.4900 -0.4374
  189MOL0     H24886   3.557  10.589   8.080 -0.4797  0.6381  0.2665
  189MOL0     H24887   3.350  10.551   7.960 -0.6537 -2.1371  1.3869
  189MOL0     H24888   3.367  10.716   7.889 -0.1601 -0.2389  0.4153
  189MOL0     H24889   3.393  10.811   8.119  1.2282 -0.5870 -0.9792
  189MOL0     H24890   3.363  10.656   8.186  0.1883 -1.5090 -0.9385
  189MOL0     H24891   3.161  10.746   7.984  2.8169  0.5808 -2.1244
  189MOL0     H24892   3.130  10.667   8.138 -1.5394  1.4424 -0.9896
  189MOL0     H24893   3.064  10.904   8.085 -0.1376  0.5072 -1.2340
  189MOL0     H24894   3.225  10.948   8.131 -3.2780  1.7014  0.3580
  189MOL0     H24895   3.184  10.816   8.362 -0.7877 -0.6774  1.9003
  189MOL0     H24896   3.022  10.778   8.292  1.1776  0.3018  0.9296
  189MOL0     H24897   3.144  11.043   8.332 -0.3429  0.3407 -2.7868
  189MOL0     H24898   2.983  11.015   8.260 -0.1814 -3.8303 -1.6957
  189MOL0     H24899   3.089  10.962   8.550 -0.2666 -0.8527  1.2043
  189MOL0     H24900   2.945  10.879   8.501 -1.9094  0.9124 -2.1586
  189MOL0     H24901   2.724  11.020   8.431 -0.1395 -0.4999  1.4425
  189MOL0     H24902   2.576  11.219   8.370 -0.8795  0.9727  0.4412
  189MOL0     H24903   2.632  11.377   8.431 -0.2666  0.3623 -0.3399
  189MOL0     H24904   2.539  11.336   8.654 -1.7231  1.9325 -0.1889
  189MOL0     H24905   2.514  11.166   8.614  0.6187  0.2110 -2.0015
  189MOL0     H24906   2.366  11.401   8.501  1.7028  1.9547  3.1632
  189MOL0     H24907   2.354  11.224   8.446 -0.9620  0.2306  1.2887
  189MOL0     H24908   2.269  11.151   8.671 -2.1014 -0.8687 -3.0703
  189MOL0     H24909   2.166  11.266   8.595  0.4395 -0.2791  0.5206
  189MOL0     H24910   2.315  11.423   8.981  0.9166 -1.7699 -0.6895
  189MOL0     H24911   2.145  11.470   9.149  3.7233 -2.9602  0.5150
  189MOL0     H24912   1.799  11.399   9.394 -0.3534  4.8518  0.1046
  189MOL0     H24913   1.594  11.474   9.536 -2.3546  1.0726 -0.4913
  189MOL0     H24914   1.287  11.443   9.665 -0.8536  1.1555 -0.8243
  189MOL0     H24915   1.447  11.363   9.644 -2.2643  0.7497  2.5285
  189MOL0     H24916   1.349  11.167   9.524 -2.5541 -2.6928  0.1707
  189MOL0     H24917   1.193  11.251   9.529  0.3590 -0.1546 -2.3383
  189MOL0     H24918   1.189  11.234   9.767  1.7171  1.6120  0.5244
  189MOL0     H24919   1.348  11.164   9.786 -0.0100 -0.3549  0.3740
  189MOL0     H24920   1.133  11.021   9.607 -0.8576  1.0879  0.0498
  189MOL0     H24921   1.287  10.969   9.662  0.7917 -0.2660  1.4075
  189MOL0     H24922   1.083  10.876   9.790  3.6273 -2.1864 -1.1621
  189MOL0     H24923   1.065  11.036   9.862  1.6308  1.2989  0.8359
  189MOL0     H24924   1.285  10.995   9.983 -2.1663 -0.5548  0.6104
  189MOL0     H24925   1.316  10.882   9.850  1.5845  0.0776  0.7549
  189MOL0     H24926   1.151  10.724   9.959 -2.9349  2.2557 -1.9709
  189MOL0     H24927   1.292  10.776  10.054  0.3090  1.4043 -0.2560
  189MOL0     H24928   1.048  10.755  10.159 -2.6834  1.6463  1.4440
  189MOL0     H24929   1.017  10.894  10.063 -0.8311  0.0563  1.3959
  189MOL0     H24930   1.318  11.386   9.243 -0.1995 -0.6071 -0.9585
  189MOL0     H24931   1.497  11.333   9.083  1.4345  2.5348 -1.0062
  189MOL0     H24932   1.853  11.285   8.880 -3.3455  3.6332  1.7555
  189MOL0     H24933   2.023  11.274   8.712  5.0299 -3.4370 -0.4181
  189MOL0     H24934   3.765  10.705   8.062 -3.3241 -1.4189 -0.4040
  189MOL0     H24935   4.011  10.663   8.083 -0.6273 -0.8426  1.2382
  189MOL0     H24936   4.392  10.410   8.232  0.0751 -4.0715  0.8743
  189MOL0     H24937   4.644  10.354   8.213  1.8352 -0.9383 -0.9788
  189MOL0     H24938   4.916  10.249   8.112 -2.1898  0.5795  1.7967
  189MOL0     H24939   4.867  10.413   8.072  3.9138 -0.0709 -1.2827
  189MOL0     H24940   4.943  10.210   7.856 -1.2234  1.9202 -1.4216
  189MOL0     H24941   4.894  10.363   7.825 -2.3924 -1.9039 -0.6628
  189MOL0     H24942   5.085  10.470   7.960 -2.1689  1.3568 -1.3934
  189MOL0     H24943   5.093  10.393   7.805  0.2066  0.2669  0.6000
  189MOL0     H24944   5.300  10.296   7.946 -0.0189 -1.0407  0.4272
  189MOL0     H24945   5.194  10.307   8.085 -0.8405  1.7197 -0.0985
  189MOL0     H24946   5.150   9.907   7.959  2.5065 -0.5846  0.1555
  189MOL0     H24947   4.590  10.325   7.796 -0.7584  0.9102 -1.2240
  189MOL0     H24948   4.388  10.459   7.796  1.5351  0.2765  0.6717
  190MOL0     O24949   6.745   8.993   4.699  0.1194  0.8414 -0.4020
  190MOL0     C24950   6.711   8.910   4.611  0.4259 -0.6028  0.5150
  190MOL0     O24951   6.600   8.825   4.621 -0.2727  0.1234  0.5063
  190MOL0     C24952   6.516   8.852   4.726 -0.2743  0.3802 -0.3364
  190MOL0     C24953   6.548   8.815   4.854  0.5149  0.5444  0.9395
  190MOL0     C24954   6.451   8.848   4.949 -0.3383 -0.4898 -0.8364
  190MOL0     C24955   6.320   8.887   4.919  0.0514 -0.6477  0.1952
  190MOL0     O24956   6.225   8.909   5.018  0.8225  0.5666  0.3313
  190MOL0     C24957   6.218   9.047   5.051  0.1097 -0.4611 -0.2350
  190MOL0     C24958   6.122   9.072   5.173 -1.0952  0.1343 -0.3327
  190MOL0     C24959   5.974   9.043   5.161  0.4464  0.2036  0.1140
  190MOL0     C24960   5.892   9.133   5.244  0.1316  0.0818 -0.4025
  190MOL0     C24961   5.737   9.093   5.255 -0.2254  0.1029  0.1305
  190MOL0     C24962   5.705   8.999   5.379 -0.4138  0.5591 -0.7607
  190MOL0     C24963   5.555   8.957   5.404  0.1918 -1.2895  0.3720
  190MOL0     C24964   5.448   9.074   5.394  0.2071  0.3420  0.8166
  190MOL0     N24965   5.310   9.054   5.455 -0.2536  0.0160 -0.3813
  190MOL0     C24966   5.259   8.931   5.493  0.7308 -0.7029 -0.3549
  190MOL0     C24967   5.140   8.953   5.561 -0.2139  0.8491 -0.4675
  190MOL0     C24968   5.034   8.859   5.620 -0.3100 -0.4775  0.3020
  190MOL0     C24969   5.098   8.752   5.721 -0.5794 -0.1817 -0.0946
  190MOL0     C24970   5.216   8.778   5.818  0.5025  0.2514  0.2991
  190MOL0     C24971   5.185   8.875   5.939  0.2125 -0.3849  0.1975
  190MOL0     O24972   5.116   8.985   5.876  0.5637 -1.4080  0.4680
  190MOL0     C24973   5.032   9.071   5.947 -0.5373  0.5119  0.2203
  190MOL0     C24974   5.077   9.116   6.074  1.1738  0.1705  0.9016
  190MOL0     C24975   4.987   9.208   6.141 -0.3151  0.7956 -0.1723
  190MOL0     C24976   4.866   9.256   6.089  0.1874  0.8563  0.3472
  190MOL0     C24977   4.778   9.353   6.154  0.2070  0.1754  0.7397
  190MOL0     O24978   4.663   9.385   6.081 -0.3910 -0.5954 -0.5887
  190MOL0     C24979   4.566   9.469   6.136 -0.2927  0.0573  0.5435
  190MOL0     C24980   4.472   9.522   6.050 -0.5991  0.8155 -0.5676
  190MOL0     C24981   4.357   9.587   6.085 -0.2097 -1.3517 -0.7628
  190MOL0     C24982   4.330   9.614   6.223 -0.0428 -0.6959 -0.6355
  190MOL0     O24983   4.227   9.689   6.280 -0.5147  0.4464 -0.3568
  190MOL0     C24984   4.120   9.744   6.202 -0.5189  0.2695 -0.5984
  190MOL0     C24985   4.019   9.819   6.306 -0.7677  1.0433 -0.3551
  190MOL0     C24986   3.882   9.839   6.250 -0.4317  1.2747  0.5252
  190MOL0     C24987   3.806   9.941   6.336 -0.4804 -0.6631 -0.8287
  190MOL0     C24988   3.660   9.942   6.302  0.2499  0.2903 -0.1420
  190MOL0     C24989   3.579   9.843   6.366  0.1363  0.5765  0.1478
  190MOL0     C24990   3.551   9.858   6.514 -0.4130  0.3920 -0.2568
  190MOL0     C24991   3.461   9.743   6.565 -0.6351  0.2870 -0.1264
  190MOL0    Cl24992   3.552   9.585   6.575 -0.2805  0.3940 -0.3279
  190MOL0     C24993   4.424   9.559   6.309 -0.3576  0.7679 -0.4324
  190MOL0     C24994   4.533   9.484   6.269 -0.2046 -1.0099  0.8169
  190MOL0     O24995   4.807   9.394   6.267  0.7208 -0.2716 -0.1364
  190MOL0     C24996   4.832   9.208   5.962  0.7029 -0.1971  0.4235
  190MOL0     C24997   4.915   9.123   5.887 -0.0620  0.0512  0.2375
  190MOL0     N24998   5.121   9.084   5.572  0.4171  0.5177 -0.4456
  190MOL0     N24999   5.223   9.146   5.504 -0.2587 -0.1431  0.1131
  190MOL0     C25000   6.288   8.916   4.789  0.1694 -0.0066 -0.0237
  190MOL0     C25001   6.390   8.906   4.694  0.7206  0.8112 -0.6752
  190MOL0     C25002   6.796   8.886   4.485  0.6078  0.6403 -0.4740
  190MOL0     C25003   6.774   8.765   4.416 -0.2017  0.4199  0.2179
  190MOL0     C25004   6.855   8.742   4.303 -0.1751  0.2756  0.1477
  190MOL0     C25005   6.932   8.839   4.252  0.6063 -0.4437  0.0309
  190MOL0     O25006   6.999   8.824   4.132 -0.0316 -0.7267 -0.4251
  190MOL0     C25007   7.018   8.699   4.081  0.1846  0.5915  0.3303
  190MOL0     C25008   7.101   8.688   3.955 -0.0914  0.2495 -0.7529
  190MOL0     C25009   7.239   8.764   3.962  0.3062  0.0475 -0.3372
  190MOL0     C25010   7.301   8.781   3.824 -0.7620  0.1938  0.7643
  190MOL0     C25011   7.369   8.653   3.790 -0.2913  0.1445  0.4727
  190MOL0     C25012   7.428   8.550   3.751  0.8466 -0.1452  0.6346
  190MOL0     C25013   6.942   8.962   4.309 -0.2771  0.1429  0.0818
  190MOL0     C25014   6.875   8.989   4.431  0.0740  0.0364  0.0179
  190MOL0     H25015   6.647   8.778   4.879 -0.4663 -2.1711  1.1412
  190MOL0     H25016   6.467   8.819   5.053 -5.9697 -2.1205 -0.0740
  190MOL0     H25017   6.174   9.096   4.964 -1.9036  1.5261  1.7455
  190MOL0     H25018   6.319   9.080   5.074  0.5282 -1.1717 -1.0278
  190MOL0     H25019   6.138   9.179   5.190 -1.3101  0.1063  0.0450
  190MOL0     H25020   6.157   9.028   5.266  1.2266  2.2135 -0.1126
  190MOL0     H25021   5.952   8.937   5.172 -0.5200  0.3314 -0.4874
  190MOL0     H25022   5.938   9.066   5.060  0.3565 -1.6440 -0.2981
  190MOL0     H25023   5.934   9.125   5.344  1.0929 -2.2552 -0.9179
  190MOL0     H25024   5.915   9.234   5.208  2.8078 -0.2850  0.0294
  190MOL0     H25025   5.702   9.033   5.171 -1.9502  0.8471  0.2876
  190MOL0     H25026   5.678   9.184   5.264 -0.6682 -0.3213  1.9291
  190MOL0     H25027   5.741   9.048   5.470  1.0147 -1.3921 -0.2038
  190MOL0     H25028   5.752   8.901   5.377 -4.3316 -1.5182 -1.8075
  190MOL0     H25029   5.523   8.872   5.343 -1.2175 -2.9044  3.1761
  190MOL0     H25030   5.553   8.909   5.501  0.3769 -1.1297  0.4555
  190MOL0     H25031   5.449   9.111   5.291  0.3450 -2.3815 -0.2383
  190MOL0     H25032   5.487   9.156   5.457  0.9990  0.8269 -0.2631
  190MOL0     H25033   5.292   8.831   5.469  2.2163  0.0181 -1.5559
  190MOL0     H25034   4.970   8.807   5.549  0.7863 -1.3666 -0.0589
  190MOL0     H25035   4.964   8.928   5.667 -2.0675  0.0860 -2.8571
  190MOL0     H25036   5.139   8.669   5.662  1.7948 -0.8796  2.3425
  190MOL0     H25037   5.018   8.709   5.782  0.8622  1.2856  3.1007
  190MOL0     H25038   5.248   8.679   5.853  1.7237  0.2741 -0.6534
  190MOL0     H25039   5.309   8.813   5.772  0.9519  1.8956  2.2961
  190MOL0     H25040   5.279   8.915   5.979 -0.9801  3.7650 -0.7637
  190MOL0     H25041   5.121   8.825   6.013 -2.5320  1.1542 -1.0114
  190MOL0     H25042   5.165   9.085   6.129  2.1335  2.6857  0.9293
  190MOL0     H25043   5.015   9.239   6.241  2.8580 -1.9157 -0.0209
  190MOL0     H25044   4.487   9.512   5.943 -0.8330 -2.1486 -0.4010
  190MOL0     H25045   4.283   9.611   6.009 -0.1431  1.4344 -0.0483
  190MOL0     H25046   4.062   9.667   6.151  0.5660 -0.8958 -0.1356
  190MOL0     H25047   4.148   9.821   6.130  3.0667 -0.2064  0.0723
  190MOL0     H25048   4.054   9.919   6.333  0.3785  0.7313 -0.6215
  190MOL0     H25049   4.009   9.751   6.391 -3.4582  0.2264 -1.2310
  190MOL0     H25050   3.842   9.739   6.232  0.5387  1.3520 -2.7422
  190MOL0     H25051   3.886   9.889   6.153  0.0950  2.1933  1.0131
  190MOL0     H25052   3.822   9.939   6.444 -3.2661  5.1639  0.0823
  190MOL0     H25053   3.860  10.031   6.309 -1.4795 -0.1875 -1.2985
  190MOL0     H25054   3.645   9.937   6.194  0.2433 -0.3337 -0.1154
  190MOL0     H25055   3.630  10.041   6.337 -0.4279  1.9455 -4.6553
  190MOL0     H25056   3.626   9.745   6.354 -0.5381 -0.1746  2.9570
  190MOL0     H25057   3.486   9.841   6.309 -0.0152 -2.0738  0.3585
  190MOL0     H25058   3.643   9.833   6.569 -0.5544 -1.3549 -0.7677
  190MOL0     H25059   3.510   9.956   6.538 -2.3228 -0.7153  1.2807
  190MOL0     H25060   3.380   9.711   6.498 -1.3860 -2.5351  1.9177
  190MOL0     H25061   3.413   9.761   6.662 -4.5000 -2.7654 -1.2102
  190MOL0     H25062   4.403   9.576   6.414 -2.4153  2.1441 -0.9958
  190MOL0     H25063   4.609   9.453   6.340  1.8301  1.8366  0.0854
  190MOL0     H25064   4.741   9.243   5.914 -0.4339 -1.3392  1.6854
  190MOL0     H25065   4.876   9.076   5.797  0.7790 -0.7280  0.2704
  190MOL0     H25066   6.185   8.923   4.756 -0.6832  2.0683  2.6943
  190MOL0     H25067   6.365   8.905   4.588  0.9973  1.7528 -0.7570
  190MOL0     H25068   6.700   8.688   4.436  1.7926 -1.9752 -1.0032
  190MOL0     H25069   6.852   8.641   4.263 -2.2275  1.3325 -2.7186
  190MOL0     H25070   6.924   8.659   4.042  2.0324 -0.6013 -3.4126
  190MOL0     H25071   7.054   8.632   4.159  1.2632 -1.7520 -2.0342
  190MOL0     H25072   7.122   8.582   3.940 -0.7663 -0.0315  0.1971
  190MOL0     H25073   7.047   8.732   3.870 -0.5744 -0.6472 -0.9210
  190MOL0     H25074   7.307   8.712   4.030  0.7879 -0.5720 -1.2655
  190MOL0     H25075   7.217   8.865   3.997  0.3686  0.6674 -1.9962
  190MOL0     H25076   7.232   8.797   3.741  0.5255  1.4227 -0.1422
  190MOL0     H25077   7.368   8.868   3.823  0.9096 -1.0365  0.0380
  190MOL0     H25078   7.480   8.461   3.722 -1.3313 -0.1897 -4.0498
  190MOL0     H25079   7.019   9.028   4.270  1.9968 -1.6666  1.2753
  190MOL0     H25080   6.888   9.082   4.485 -0.8247  1.3319 -1.9000
  191MOL0     O25081   2.945   3.727   9.093  0.2461  0.4778  0.1171
  191MOL0     C25082   3.053   3.697   9.139  0.5531 -0.0804 -0.3117
  191MOL0     O25083   3.147   3.595   9.093  0.3615 -0.3660  0.1059
  191MOL0     C25084   3.102   3.492   9.010 -1.4410  0.1198  0.2333
  191MOL0     C25085   2.989   3.415   9.030 -0.4111  1.3948 -0.2066
  191MOL0     C25086   2.946   3.322   8.936 -0.1711  0.2432 -1.1224
  191MOL0     C25087   3.028   3.306   8.812  0.4126 -0.3117 -0.5659
  191MOL0     O25088   3.019   3.211   8.719  0.2446  0.0117 -0.4672
  191MOL0     C25089   2.992   3.077   8.766  0.7709 -0.6247  0.7432
  191MOL0     C25090   3.122   3.011   8.802 -0.5518  0.0725  0.1382
  191MOL0     C25091   3.100   2.867   8.851 -0.1418 -0.4524 -0.5437
  191MOL0     C25092   3.223   2.787   8.871 -0.6175 -0.0353 -0.3588
  191MOL0     C25093   3.330   2.857   8.961 -1.0373  0.3225  0.3265
  191MOL0     C25094   3.450   2.763   8.977 -0.4597 -0.0359  0.2090
  191MOL0     C25095   3.546   2.775   8.868 -1.0901 -0.7685  0.7881
  191MOL0     C25096   3.695   2.781   8.922  0.2784 -0.0854 -0.0396
  191MOL0     N25097   3.787   2.807   8.816  0.7340 -0.4986 -0.0212
  191MOL0     C25098   3.839   2.724   8.725  0.2296  0.0939  0.1040
  191MOL0     C25099   3.941   2.796   8.666 -0.6678 -0.0407 -0.1737
  191MOL0     C25100   4.032   2.748   8.560  1.3180  0.0340 -0.9142
  191MOL0     C25101   4.165   2.810   8.576  0.1320 -0.5795  0.6515
  191MOL0     C25102   4.267   2.751   8.476  0.7118 -0.9662 -0.0893
  191MOL0     C25103   4.213   2.738   8.331  1.2728 -0.2616 -0.2368
  191MOL0     O25104   4.194   2.864   8.266  0.5410  0.1541  0.3066
  191MOL0     C25105   4.139   2.870   8.135  0.2844 -0.2434 -0.7322
  191MOL0     C25106   4.034   2.959   8.117  0.3653 -0.5382 -0.6858
  191MOL0     C25107   3.966   2.963   7.994 -0.2448  0.4462 -0.7564
  191MOL0     C25108   4.011   2.884   7.885  0.6440 -0.3796 -0.1888
  191MOL0     C25109   3.950   2.895   7.747 -0.5142  1.2768  0.6719
  191MOL0     O25110   4.027   2.835   7.647 -0.0175 -0.0062  0.2083
  191MOL0     C25111   3.989   2.873   7.516 -0.0140 -0.0780 -0.0613
  191MOL0     C25112   4.052   2.988   7.459  0.0471  0.2677 -0.6543
  191MOL0     C25113   4.037   3.013   7.322  0.5957 -0.6791 -0.0156
  191MOL0     C25114   3.952   2.926   7.240 -0.3052 -0.0902 -0.3791
  191MOL0     O25115   3.931   2.969   7.115 -0.3294  0.2281 -0.7844
  191MOL0     C25116   3.835   2.900   7.038 -0.7681 -0.3059 -0.4465
  191MOL0     C25117   3.842   2.968   6.897  0.6420  0.5322 -0.4071
  191MOL0     C25118   3.756   2.898   6.788  0.0647  0.0490 -0.3298
  191MOL0     C25119   3.787   2.923   6.642  0.8739 -0.2251  0.6263
  191MOL0     C25120   3.719   2.842   6.532  0.3690 -0.1932 -0.2801
  191MOL0     C25121   3.818   2.843   6.409 -0.8127  0.3410 -0.2167
  191MOL0     C25122   3.765   2.756   6.289 -0.3297 -0.6956 -0.6329
  191MOL0     C25123   3.625   2.799   6.257  0.3627 -0.2381  0.1395
  191MOL0    Cl25124   3.588   2.971   6.225 -0.1263  0.2924  0.2750
  191MOL0     C25125   3.898   2.813   7.297  0.2880  0.0394 -0.4083
  191MOL0     C25126   3.915   2.786   7.434  0.5851 -1.0748 -1.0670
  191MOL0     O25127   3.858   2.973   7.735  0.0435  0.5559  0.0599
  191MOL0     C25128   4.120   2.800   7.898  0.1963 -0.4361 -0.6657
  191MOL0     C25129   4.181   2.791   8.028 -0.1698  0.1434 -0.6016
  191MOL0     N25130   3.957   2.915   8.725  0.6654  1.0782  0.5320
  191MOL0     N25131   3.851   2.925   8.808  1.1904 -0.2774  0.6524
  191MOL0     C25132   3.138   3.390   8.803 -0.6411 -0.7035 -0.1470
  191MOL0     C25133   3.183   3.476   8.897 -0.9630 -0.5737  0.7547
  191MOL0     C25134   3.093   3.779   9.254 -0.5523  0.6345 -1.3535
  191MOL0     C25135   3.019   3.901   9.278 -0.0279  0.2051  0.4549
  191MOL0     C25136   3.062   3.983   9.386 -0.4942  0.5995 -0.2132
  191MOL0     C25137   3.166   3.946   9.480 -0.0660  0.1922 -0.0118
  191MOL0     O25138   3.201   4.037   9.579 -0.0426  0.4614 -0.0023
  191MOL0     C25139   3.341   4.024   9.626  0.2522 -0.3579 -0.1791
  191MOL0     C25140   3.369   4.136   9.727  0.5183 -0.7736  0.6523
  191MOL0     C25141   3.288   4.128   9.858 -0.5074  0.5516  0.6888
  191MOL0     C25142   3.320   4.233   9.963  0.6003 -0.4952 -0.4446
  191MOL0     C25143   3.319   4.365   9.905 -0.2756  0.1235  0.6964
  191MOL0     C25144   3.328   4.475   9.848  0.4313  0.4317 -0.1763
  191MOL0     C25145   3.227   3.819   9.458  0.1524  0.5107 -0.0631
  191MOL0     C25146   3.191   3.738   9.346 -0.5826 -0.0832 -0.3212
  191MOL0     H25147   2.926   3.420   9.119 -0.0561 -3.2494  0.5333
  191MOL0     H25148   2.847   3.280   8.954 -0.0411  0.8049  1.1673
  191MOL0     H25149   2.955   3.013   8.686  3.2333 -1.9534  0.5521
  191MOL0     H25150   2.916   3.063   8.843  0.8591 -1.4908  0.6891
  191MOL0     H25151   3.165   3.064   8.887 -1.4992 -0.6031  1.0543
  191MOL0     H25152   3.191   3.005   8.718  0.1100 -1.6327  0.7558
  191MOL0     H25153   3.037   2.816   8.778 -1.8815  1.4788 -0.4634
  191MOL0     H25154   3.053   2.877   8.949  0.9113 -3.3997  0.3751
  191MOL0     H25155   3.190   2.692   8.916 -1.3624 -0.0873 -0.9908
  191MOL0     H25156   3.271   2.759   8.777  0.6721  2.1892 -0.4236
  191MOL0     H25157   3.285   2.880   9.059 -1.1627  1.4683  0.0142
  191MOL0     H25158   3.371   2.954   8.931 -0.7260 -0.1909 -0.9562
  191MOL0     H25159   3.409   2.663   8.994  1.6948 -0.9500  0.3764
  191MOL0     H25160   3.507   2.802   9.062  1.3994  3.1436 -2.2592
  191MOL0     H25161   3.522   2.693   8.799 -0.7043  2.9101 -4.2856
  191MOL0     H25162   3.528   2.865   8.808  1.2494 -0.9030 -0.1949
  191MOL0     H25163   3.721   2.694   8.984  2.1388  1.5010  1.5290
  191MOL0     H25164   3.718   2.862   8.992  0.5111 -0.7060  0.6202
  191MOL0     H25165   3.804   2.623   8.708 -2.2380  1.0737 -1.0690
  191MOL0     H25166   3.994   2.775   8.461  1.6332 -4.2106 -2.3983
  191MOL0     H25167   4.042   2.639   8.558  2.0363  0.1008 -1.3519
  191MOL0     H25168   4.199   2.786   8.677 -1.6857 -1.1522  1.1610
  191MOL0     H25169   4.144   2.915   8.557 -4.1054 -1.5971 -1.6890
  191MOL0     H25170   4.361   2.806   8.486  1.2839 -2.1124  1.0671
  191MOL0     H25171   4.287   2.652   8.517  1.3124 -0.4836  0.8074
  191MOL0     H25172   4.119   2.683   8.324  0.2105  1.2688  1.3057
  191MOL0     H25173   4.292   2.681   8.281  1.0222 -0.1745 -0.7365
  191MOL0     H25174   4.000   3.014   8.204 -0.6540 -0.8105 -0.9039
  191MOL0     H25175   3.896   3.044   7.985  1.5477  2.3473  1.1910
  191MOL0     H25176   4.102   3.063   7.520  1.3865 -2.6212  2.0906
  191MOL0     H25177   4.068   3.101   7.267  1.8477 -1.2581 -0.2687
  191MOL0     H25178   3.736   2.898   7.084  0.0788 -1.4192  1.4396
  191MOL0     H25179   3.874   2.798   7.033  1.2355  0.2861  1.5489
  191MOL0     H25180   3.946   2.964   6.866  0.3019  0.8005 -1.6349
  191MOL0     H25181   3.801   3.069   6.903 -3.5493 -1.0039  0.7025
  191MOL0     H25182   3.655   2.930   6.811  0.1392  0.8372 -1.0536
  191MOL0     H25183   3.767   2.789   6.787  1.3775  0.1567 -1.3063
  191MOL0     H25184   3.772   3.031   6.631  2.2082 -0.1942 -1.3487
  191MOL0     H25185   3.894   2.908   6.627  0.8112  0.9910 -1.5805
  191MOL0     H25186   3.615   2.871   6.513 -0.3198 -2.4763 -0.3068
  191MOL0     H25187   3.715   2.735   6.556 -1.2760 -0.2559 -0.7389
  191MOL0     H25188   3.916   2.807   6.442 -0.5852 -0.3417 -1.5348
  191MOL0     H25189   3.831   2.942   6.363  3.2941 -1.0477 -2.5834
  191MOL0     H25190   3.826   2.768   6.198  0.5484  1.7998  0.2067
  191MOL0     H25191   3.779   2.649   6.310  0.2063 -1.1065 -2.7727
  191MOL0     H25192   3.552   2.757   6.328 -0.8511  0.2257 -0.8057
  191MOL0     H25193   3.619   2.755   6.158 -0.5971 -2.3039  1.0415
  191MOL0     H25194   3.834   2.733   7.258 -0.6719 -0.7937  2.6207
  191MOL0     H25195   3.879   2.692   7.475  0.3424  0.2011  1.9193
  191MOL0     H25196   4.171   2.739   7.823  1.1538 -0.7846  0.2415
  191MOL0     H25197   4.252   2.712   8.050 -1.5571 -1.5402 -1.9036
  191MOL0     H25198   3.203   3.368   8.720  2.8753  1.9346  1.6170
  191MOL0     H25199   3.280   3.523   8.890 -1.2558  0.2296  1.8697
  191MOL0     H25200   2.927   3.936   9.233 -0.5630 -0.2016  1.2125
  191MOL0     H25201   3.024   4.085   9.388  1.3066  1.4411  4.7817
  191MOL0     H25202   3.409   4.021   9.540 -1.3375  1.5758 -1.6017
  191MOL0     H25203   3.351   3.936   9.690  0.0331  0.2661  0.7254
  191MOL0     H25204   3.471   4.139   9.765  0.4567  1.7563  0.7945
  191MOL0     H25205   3.356   4.230   9.672 -0.5248 -0.3111  1.6442
  191MOL0     H25206   3.306   4.031   9.904 -2.0548  0.0146  0.2272
  191MOL0     H25207   3.180   4.135   9.837 -0.1875 -0.7457 -1.7281
  191MOL0     H25208   3.245   4.240  10.042  0.7307 -0.3799 -0.3320
  191MOL0     H25209   3.412   4.202  10.013 -0.1602 -0.5232  0.9859
  191MOL0     H25210   3.352   4.558   9.785  3.3256 -0.8829 -0.9402
  191MOL0     H25211   3.310   3.794   9.523 -1.3343  0.4621  1.9350
  191MOL0     H25212   3.253   3.650   9.335  2.8983  1.7046  2.7873
  192MOL0     O25213   0.849   2.753   2.094 -0.6746 -0.2126 -0.2350
  192MOL0     C25214   0.905   2.771   2.202 -0.2645 -0.4801  0.3578
  192MOL0     O25215   0.866   2.859   2.292  0.8528  0.0910  0.4206
  192MOL0     C25216   0.760   2.945   2.267 -0.0008 -1.0627  0.6358
  192MOL0     C25217   0.784   3.079   2.252  0.6382  0.5239 -0.4108
  192MOL0     C25218   0.674   3.168   2.234  0.3751 -0.7768  0.6046
  192MOL0     C25219   0.540   3.123   2.216  0.5524  0.3907  0.1407
  192MOL0     O25220   0.446   3.213   2.171  0.4541 -0.1127 -0.9901
  192MOL0     C25221   0.312   3.171   2.158 -0.1137 -0.2239 -0.6122
  192MOL0     C25222   0.228   3.190   2.280  0.5335  0.2768  0.0830
  192MOL0     C25223   0.217   3.343   2.309  0.4185  1.4043  0.0735
  192MOL0     C25224   0.147   3.357   2.442 -0.4051  0.2640 -0.5452
  192MOL0     C25225   0.143   3.505   2.492 -0.3359  0.4539 -0.7610
  192MOL0     C25226   0.037   3.506   2.602  0.2488 -0.0842  0.3085
  192MOL0     C25227   0.014   3.641   2.676 -0.4269 -1.1182 -0.4692
  192MOL0     C25228  -0.058   3.752   2.597 -0.2792  0.5748  0.5468
  192MOL0     N25229  -0.198   3.718   2.568  0.0370  0.1656 -0.8731
  192MOL0     C25230  -0.310   3.733   2.652  0.0739 -0.4050 -0.7869
  192MOL0     C25231  -0.421   3.686   2.585  0.0200  0.1533  0.9640
  192MOL0     C25232  -0.561   3.680   2.631 -0.0271  0.4110  0.3494
  192MOL0     C25233  -0.634   3.575   2.551  0.7094 -1.1041 -0.3570
  192MOL0     C25234  -0.623   3.433   2.614  0.2286 -0.4651 -0.8361
  192MOL0     C25235  -0.493   3.353   2.564  0.3075 -0.0386 -0.1618
  192MOL0     O25236  -0.473   3.247   2.662  0.0837 -0.9830  0.2316
  192MOL0     C25237  -0.372   3.161   2.628  0.4488  0.3245  0.4642
  192MOL0     C25238  -0.355   3.065   2.716  0.3068 -0.9514 -0.3841
  192MOL0     C25239  -0.241   2.977   2.710  0.3221 -0.3560  0.0861
  192MOL0     C25240  -0.131   2.990   2.612 -0.7867  0.6585 -0.1037
  192MOL0     C25241  -0.010   2.917   2.611  0.3900 -0.1749 -0.3174
  192MOL0     O25242   0.083   2.960   2.526 -0.7796 -0.0415  0.6257
  192MOL0     C25243   0.211   2.906   2.531 -0.4801 -0.0106 -0.1165
  192MOL0     C25244   0.319   2.971   2.593 -0.7307  0.0308  0.5121
  192MOL0     C25245   0.445   2.917   2.592 -0.4687 -0.8218 -0.2906
  192MOL0     C25246   0.464   2.783   2.555 -0.8842 -0.4418 -0.1089
  192MOL0     O25247   0.594   2.736   2.577 -0.1744 -0.0253  0.0073
  192MOL0     C25248   0.624   2.603   2.555 -0.4191  0.4900 -1.1281
  192MOL0     C25249   0.761   2.577   2.629 -0.2293  0.6254 -0.0275
  192MOL0     C25250   0.827   2.439   2.607  0.8433 -0.1083  0.4356
  192MOL0     C25251   0.965   2.426   2.672  0.2303 -0.4173 -0.3659
  192MOL0     C25252   1.025   2.285   2.658  0.0149  0.7698 -0.0234
  192MOL0     C25253   1.146   2.269   2.748 -0.6120 -0.4318 -0.4292
  192MOL0     C25254   1.279   2.311   2.683  0.4303 -0.4292 -0.1365
  192MOL0     C25255   1.397   2.287   2.776  0.6099  0.1884  0.3067
  192MOL0    Cl25256   1.427   2.122   2.800  0.6628  0.0167 -0.4911
  192MOL0     C25257   0.359   2.711   2.494 -0.2973 -0.4123 -0.1247
  192MOL0     C25258   0.243   2.780   2.478  1.5480 -0.4335 -0.1037
  192MOL0     O25259   0.005   2.828   2.693  0.8116  0.1814 -0.8225
  192MOL0     C25260  -0.169   3.089   2.518 -0.4961  0.8893 -0.0370
  192MOL0     C25261  -0.285   3.168   2.519 -0.2434  0.0917 -0.4286
  192MOL0     N25262  -0.371   3.649   2.461  0.6964  0.5297  0.4528
  192MOL0     N25263  -0.245   3.674   2.448 -0.8326 -0.2787 -0.4148
  192MOL0     C25264   0.523   2.985   2.229 -0.0813  1.0275 -0.4777
  192MOL0     C25265   0.633   2.904   2.260  0.3465 -0.0998  0.1652
  192MOL0     C25266   1.031   2.704   2.228 -0.3052  0.7990  0.6881
  192MOL0     C25267   1.104   2.738   2.338 -0.7850  0.1149 -0.3512
  192MOL0     C25268   1.224   2.672   2.365  0.7241 -0.5047  0.2010
  192MOL0     C25269   1.268   2.567   2.284 -0.3819 -0.2370 -0.1734
  192MOL0     O25270   1.378   2.498   2.325  0.3549  0.3025  0.6130
  192MOL0     C25271   1.504   2.564   2.284  0.8094 -0.5374 -1.2665
  192MOL0     C25272   1.615   2.541   2.389 -0.7632 -0.4630  0.6856
  192MOL0     C25273   1.628   2.656   2.491 -0.3531  0.1220  0.5554
  192MOL0     C25274   1.760   2.633   2.575  0.5941 -0.0724 -0.2661
  192MOL0     C25275   1.814   2.757   2.647 -0.3814  0.7126  0.7807
  192MOL0     C25276   1.852   2.862   2.694  0.5934  0.0232  0.7817
  192MOL0     C25277   1.190   2.527   2.180 -0.2083  1.1346  0.8624
  192MOL0     C25278   1.077   2.598   2.144 -0.5207  0.0293 -0.2463
  192MOL0     H25279   0.882   3.121   2.232  0.9965 -0.9017 -1.9995
  192MOL0     H25280   0.700   3.273   2.224  4.0611 -1.5387  0.8073
  192MOL0     H25281   0.322   3.072   2.113  3.0631 -0.6724  0.8138
  192MOL0     H25282   0.266   3.233   2.080 -3.3382 -0.9943  0.4805
  192MOL0     H25283   0.262   3.132   2.366 -2.0880  0.1620  1.1400
  192MOL0     H25284   0.128   3.161   2.246 -1.0891  5.6068 -0.6154
  192MOL0     H25285   0.150   3.399   2.244 -1.9227 -0.9064  0.3496
  192MOL0     H25286   0.315   3.391   2.303  0.0803  2.8389  3.5313
  192MOL0     H25287   0.046   3.326   2.416 -0.0272 -1.4699 -0.1271
  192MOL0     H25288   0.189   3.286   2.514 -1.4281  1.7163  1.5578
  192MOL0     H25289   0.118   3.571   2.408 -2.3665  2.8789  1.5795
  192MOL0     H25290   0.239   3.542   2.530  0.7884 -0.1091 -2.8781
  192MOL0     H25291   0.059   3.434   2.681 -2.2421  1.1186  2.2115
  192MOL0     H25292  -0.058   3.495   2.548  1.3346 -1.2403 -1.4780
  192MOL0     H25293  -0.044   3.618   2.766  0.2244  0.0283  0.2674
  192MOL0     H25294   0.110   3.681   2.709 -1.4730  1.2810 -0.1243
  192MOL0     H25295   0.004   3.765   2.508 -0.9522 -1.3336 -0.2476
  192MOL0     H25296  -0.042   3.849   2.646  0.4075  1.1145 -0.7054
  192MOL0     H25297  -0.314   3.767   2.755 -1.6062 -0.5191 -0.7874
  192MOL0     H25298  -0.611   3.777   2.628 -0.0042  0.4014 -2.2883
  192MOL0     H25299  -0.561   3.637   2.732  0.8874  1.5371  0.8420
  192MOL0     H25300  -0.592   3.575   2.450  3.0424  1.2088  0.4895
  192MOL0     H25301  -0.739   3.604   2.546  0.4053 -1.3096  2.6310
  192MOL0     H25302  -0.622   3.433   2.724 -0.9857 -2.7896 -0.7607
  192MOL0     H25303  -0.710   3.369   2.598 -2.1468  1.2780  3.3293
  192MOL0     H25304  -0.406   3.418   2.571  0.8110 -0.5038 -1.6762
  192MOL0     H25305  -0.512   3.320   2.462 -1.2236  0.2911 -0.0100
  192MOL0     H25306  -0.434   3.057   2.789  1.1707 -2.8853  0.4033
  192MOL0     H25307  -0.222   2.910   2.793  0.6690  0.3005  0.5392
  192MOL0     H25308   0.302   3.073   2.628 -2.1630 -0.5755  1.6850
  192MOL0     H25309   0.528   2.965   2.642 -1.7008  2.4032 -1.0973
  192MOL0     H25310   0.637   2.575   2.450  1.7782  0.0016 -0.7755
  192MOL0     H25311   0.546   2.536   2.592 -0.1798  0.0033 -1.4958
  192MOL0     H25312   0.747   2.593   2.737  0.3487 -0.6763  0.2595
  192MOL0     H25313   0.832   2.648   2.587 -0.2885  1.3529  1.0644
  192MOL0     H25314   0.854   2.426   2.502 -0.7901  2.1227 -0.3310
  192MOL0     H25315   0.748   2.370   2.638  0.0206  1.2614  1.4698
  192MOL0     H25316   1.043   2.500   2.648 -1.0561  1.9688  2.2744
  192MOL0     H25317   0.944   2.429   2.779 -1.7008  3.2802 -0.6593
  192MOL0     H25318   1.058   2.254   2.559  2.9167  2.3251  0.3578
  192MOL0     H25319   0.941   2.219   2.682  0.4641 -1.0856 -3.0166
  192MOL0     H25320   1.159   2.161   2.751  0.1087 -0.4292 -2.0047
  192MOL0     H25321   1.124   2.309   2.847 -4.2419 -0.8502 -0.9355
  192MOL0     H25322   1.299   2.265   2.586  0.1835  2.2853 -1.5651
  192MOL0     H25323   1.264   2.417   2.663 -1.3617 -0.4833  0.7630
  192MOL0     H25324   1.380   2.335   2.872  1.7540 -1.8076  1.5898
  192MOL0     H25325   1.488   2.334   2.739  0.0461  1.9629  1.0964
  192MOL0     H25326   0.377   2.616   2.445 -0.8669  0.8657 -3.0205
  192MOL0     H25327   0.167   2.746   2.409  0.1484  1.1808  0.5605
  192MOL0     H25328  -0.098   3.095   2.435  1.5846 -4.1037  0.9768
  192MOL0     H25329  -0.278   3.246   2.443  2.3619 -0.6258 -1.0482
  192MOL0     H25330   0.423   2.945   2.237  0.1225  0.6867  0.4695
  192MOL0     H25331   0.613   2.801   2.286 -0.7557  0.6990  2.9054
  192MOL0     H25332   1.078   2.810   2.416  0.3830  0.3410 -0.1595
  192MOL0     H25333   1.289   2.673   2.453  3.6703 -0.7627 -1.8284
  192MOL0     H25334   1.484   2.671   2.270  0.3516  0.1162  2.9883
  192MOL0     H25335   1.547   2.515   2.196  1.3487 -3.1810  0.3429
  192MOL0     H25336   1.594   2.449   2.445 -1.0213 -1.6047 -1.2018
  192MOL0     H25337   1.709   2.532   2.334 -1.9524  1.5649 -1.8577
  192MOL0     H25338   1.541   2.653   2.556  0.9573 -2.1890  2.3741
  192MOL0     H25339   1.637   2.750   2.437  0.3355 -0.7503 -0.9216
  192MOL0     H25340   1.738   2.555   2.649 -0.6772 -0.3510 -0.8978
  192MOL0     H25341   1.842   2.599   2.511  1.5919  3.9654 -1.3637
  192MOL0     H25342   1.883   2.959   2.727 -0.0267 -1.0870  5.3449
  192MOL0     H25343   1.217   2.445   2.114  0.2080  1.3260  0.7893
  192MOL0     H25344   1.018   2.570   2.056 -0.4852 -1.8127  0.2678
  193MOL0     O25345   9.639   4.789   5.818 -0.1782  0.0201 -0.0895
  193MOL0     C25346   9.698   4.849   5.732  0.0157  0.3134 -0.3340
  193MOL0     O25347   9.648   4.876   5.609 -0.7426  0.1777 -0.1028
  193MOL0     C25348   9.541   4.804   5.562  0.5391 -0.6036 -0.1251
  193MOL0     C25349   9.561   4.702   5.471 -1.3513 -0.4495  0.1611
  193MOL0     C25350   9.448   4.637   5.405 -0.0740  0.2848  0.2158
  193MOL0     C25351   9.317   4.669   5.441 -0.0502  0.1455  0.4702
  193MOL0     O25352   9.214   4.603   5.376  0.5157  0.4851 -0.8448
  193MOL0     C25353   9.117   4.525   5.452  0.0950  1.1595 -0.3639
  193MOL0     C25354   9.184   4.388   5.501 -0.3447  0.4257 -0.4797
  193MOL0     C25355   9.218   4.310   5.372  1.0518  0.1649 -0.3494
  193MOL0     C25356   9.228   4.150   5.389 -0.1990  0.4098 -0.4452
  193MOL0     C25357   9.308   4.073   5.289 -0.1844  0.0913 -0.4941
  193MOL0     C25358   9.305   3.924   5.319 -0.2851 -0.9578  0.2412
  193MOL0     C25359   9.376   3.845   5.213 -0.3058 -0.4533 -0.1838
  193MOL0     C25360   9.535   3.841   5.230  0.0428 -0.7339 -1.0462
  193MOL0     N25361   9.571   3.769   5.351  0.3626  0.1899  0.3101
  193MOL0     C25362   9.704   3.797   5.393 -0.1142  0.1598 -1.5078
  193MOL0     C25363   9.752   3.679   5.444  0.9426 -0.1497 -0.6435
  193MOL0     C25364   9.881   3.649   5.526  0.7304  0.8112  1.0953
  193MOL0     C25365   9.880   3.701   5.677 -0.0090  0.9009 -0.1616
  193MOL0     C25366   9.752   3.649   5.756 -0.1956  0.0032  0.2024
  193MOL0     C25367   9.624   3.737   5.744  0.4587 -0.8352 -0.8884
  193MOL0     O25368   9.515   3.682   5.834  0.6452  0.1453  0.4844
  193MOL0     C25369   9.415   3.614   5.771 -0.1930  0.9392 -0.1799
  193MOL0     C25370   9.349   3.506   5.843 -0.3140  0.1696 -0.1066
  193MOL0     C25371   9.241   3.443   5.788 -0.3223 -0.1150  0.1317
  193MOL0     C25372   9.168   3.502   5.683  0.0339  0.6326  0.2777
  193MOL0     C25373   9.046   3.445   5.632 -0.1892 -0.3839 -0.0774
  193MOL0     O25374   8.965   3.523   5.550 -0.6843 -0.3452  0.3718
  193MOL0     C25375   8.833   3.481   5.516  0.0164  1.1003 -0.3571
  193MOL0     C25376   8.786   3.538   5.401  1.2445  0.7224  0.4399
  193MOL0     C25377   8.658   3.516   5.353  0.2116 -0.0521 -0.1087
  193MOL0     C25378   8.570   3.421   5.418  0.4557 -0.2671 -0.3498
  193MOL0     O25379   8.451   3.396   5.352  0.4719 -0.2175  0.4768
  193MOL0     C25380   8.354   3.325   5.435 -0.1954 -0.5102 -0.3331
  193MOL0     C25381   8.207   3.331   5.371  0.0727  0.7488  1.0047
  193MOL0     C25382   8.200   3.297   5.214  0.2091 -0.5201 -1.1407
  193MOL0     C25383   8.055   3.299   5.167  0.1178  0.3552  0.4071
  193MOL0     C25384   8.008   3.163   5.210 -0.1074  0.3838 -0.3879
  193MOL0     C25385   7.891   3.104   5.121 -0.4054 -0.2292 -0.5665
  193MOL0     C25386   7.774   3.205   5.104 -0.4992  0.1919 -0.0308
  193MOL0     C25387   7.667   3.144   5.017  0.1623  0.5258 -0.6646
  193MOL0    Cl25388   7.706   3.150   4.845 -0.0875 -0.3768 -0.1193
  193MOL0     C25389   8.621   3.352   5.533  0.5293 -0.0879 -0.2629
  193MOL0     C25390   8.746   3.391   5.584 -0.3905 -0.5779 -0.3061
  193MOL0     O25391   9.019   3.335   5.672  0.9732  0.1314 -0.5664
  193MOL0     C25392   9.220   3.622   5.620  0.2468  0.4528  0.0286
  193MOL0     C25393   9.341   3.675   5.670  0.2782 -0.3956 -0.3742
  193MOL0     N25394   9.645   3.592   5.450 -0.0932  0.6525 -0.5173
  193MOL0     N25395   9.552   3.631   5.365  0.2504 -0.7384  0.4730
  193MOL0     C25396   9.299   4.774   5.538  0.1768  0.2151 -0.8738
  193MOL0     C25397   9.413   4.840   5.601  0.1966 -0.3460  0.3623
  193MOL0     C25398   9.824   4.923   5.766  0.3711 -1.0343  1.2245
  193MOL0     C25399   9.887   4.912   5.890 -0.1076  1.0751  0.0346
  193MOL0     C25400  10.011   4.974   5.909  0.2523 -0.1134 -0.5515
  193MOL0     C25401  10.062   5.056   5.809 -0.5945  0.3414 -0.4914
  193MOL0     O25402  10.168   5.129   5.853 -0.7172  0.9054 -0.1191
  193MOL0     C25403  10.223   5.227   5.766  0.3542 -0.5628  0.4485
  193MOL0     C25404  10.325   5.294   5.844 -0.4327  0.1680  0.2213
  193MOL0     C25405  10.277   5.379   5.961  0.1197  0.3559  0.5622
  193MOL0     C25406  10.379   5.407   6.070  0.4646 -1.5797  0.1706
  193MOL0     C25407  10.408   5.290   6.146  0.0130  0.9064  0.3128
  193MOL0     C25408  10.450   5.189   6.191 -0.0167 -0.2976 -0.6508
  193MOL0     C25409  10.003   5.075   5.683 -0.2244  0.0349  0.5486
  193MOL0     C25410   9.881   5.010   5.665  0.6747 -0.2559 -0.3850
  193MOL0     H25411   9.662   4.679   5.437 -1.9253 -0.4759 -1.6693
  193MOL0     H25412   9.457   4.555   5.334 -4.0526  1.3567 -1.8389
  193MOL0     H25413   9.024   4.498   5.402 -0.4945 -0.8921  1.6631
  193MOL0     H25414   9.086   4.572   5.546  3.2686  0.0798  1.3648
  193MOL0     H25415   9.109   4.333   5.559 -1.1892  2.3339  0.3216
  193MOL0     H25416   9.279   4.404   5.552  0.6071  2.3597 -2.6798
  193MOL0     H25417   9.311   4.357   5.338  2.4152 -0.0713  2.7133
  193MOL0     H25418   9.135   4.327   5.302 -0.7224  1.5986  1.9320
  193MOL0     H25419   9.250   4.124   5.493 -1.1592 -1.7917 -0.7250
  193MOL0     H25420   9.128   4.107   5.378 -0.4864 -0.6529  4.2554
  193MOL0     H25421   9.412   4.107   5.288  0.2925 -1.0513  1.9595
  193MOL0     H25422   9.261   4.103   5.195  0.9670 -0.4939 -1.2646
  193MOL0     H25423   9.201   3.890   5.329  0.0550 -1.7400  1.3121
  193MOL0     H25424   9.361   3.913   5.412 -1.3777  0.1432  1.0795
  193MOL0     H25425   9.335   3.744   5.219 -2.8558  0.5731  0.9926
  193MOL0     H25426   9.337   3.884   5.119  1.9137 -1.5703 -1.6562
  193MOL0     H25427   9.574   3.943   5.223 -2.7859  0.3313 -3.0551
  193MOL0     H25428   9.576   3.776   5.152 -0.5728  1.2597 -3.1264
  193MOL0     H25429   9.749   3.895   5.406 -2.4472  1.1294  0.0241
  193MOL0     H25430   9.957   3.697   5.464  0.9127 -1.0492 -0.2329
  193MOL0     H25431   9.886   3.539   5.528 -2.0380  0.5890 -0.1835
  193MOL0     H25432   9.878   3.811   5.676 -2.5698  0.9195 -1.7276
  193MOL0     H25433   9.977   3.684   5.725 -0.4769 -1.1475  0.1418
  193MOL0     H25434   9.734   3.543   5.738  2.4451 -0.4237 -0.4005
  193MOL0     H25435   9.775   3.629   5.861 -1.3183 -1.3671  0.2080
  193MOL0     H25436   9.591   3.760   5.642 -0.6326  0.7930 -0.1958
  193MOL0     H25437   9.643   3.838   5.780 -2.7820  0.0563 -1.3609
  193MOL0     H25438   9.402   3.464   5.928  0.2478  1.6996  0.3369
  193MOL0     H25439   9.206   3.348   5.827 -1.1107 -0.8497 -2.1574
  193MOL0     H25440   8.841   3.613   5.344  0.5172 -0.4365 -1.9138
  193MOL0     H25441   8.628   3.570   5.265  2.0847  0.4065 -0.5076
  193MOL0     H25442   8.341   3.386   5.525  0.6835  0.5370 -0.8923
  193MOL0     H25443   8.389   3.226   5.465 -1.9501 -1.5267 -1.4784
  193MOL0     H25444   8.156   3.426   5.395  1.6826  1.9062  0.0465
  193MOL0     H25445   8.151   3.252   5.420 -0.7007 -0.7217 -1.9823
  193MOL0     H25446   8.250   3.204   5.187 -2.5116 -2.3436 -0.4038
  193MOL0     H25447   8.259   3.373   5.162  0.9653  0.9605  1.6184
  193MOL0     H25448   7.989   3.371   5.216 -1.0802 -0.1653 -0.4016
  193MOL0     H25449   8.043   3.314   5.059 -1.2899 -0.9873  0.3486
  193MOL0     H25450   7.961   3.189   5.305  2.1706  2.8370  0.1998
  193MOL0     H25451   8.092   3.094   5.222  0.6972  1.3745 -0.1283
  193MOL0     H25452   7.855   3.010   5.164  1.9077 -1.7335 -1.6911
  193MOL0     H25453   7.938   3.075   5.027 -1.2468 -1.5766 -0.5969
  193MOL0     H25454   7.725   3.235   5.197  0.0474  0.0137  0.3207
  193MOL0     H25455   7.820   3.290   5.053  2.7339  0.2636  2.6416
  193MOL0     H25456   7.580   3.210   5.028  1.1103  1.4832  1.8437
  193MOL0     H25457   7.638   3.045   5.053 -1.6192  1.6660  1.2649
  193MOL0     H25458   8.565   3.278   5.589  2.4575 -1.2922  0.1592
  193MOL0     H25459   8.780   3.355   5.680 -1.8172  2.6554  1.5657
  193MOL0     H25460   9.156   3.682   5.556 -0.3218  0.8990  1.0013
  193MOL0     H25461   9.365   3.773   5.629 -2.4077  0.6236  0.2349
  193MOL0     H25462   9.198   4.807   5.559  0.8377  0.1114  3.3014
  193MOL0     H25463   9.403   4.926   5.667 -0.0311 -0.6892  0.7837
  193MOL0     H25464   9.858   4.850   5.974  3.2206 -1.3939 -0.4406
  193MOL0     H25465  10.059   4.969   6.006  0.4831 -1.0310 -0.7122
  193MOL0     H25466  10.135   5.283   5.735 -1.3277 -2.5900  1.2719
  193MOL0     H25467  10.259   5.174   5.677 -1.7266 -0.3713 -0.5543
  193MOL0     H25468  10.396   5.218   5.877  0.1559 -0.7958 -2.9180
  193MOL0     H25469  10.383   5.359   5.777  0.8701 -0.6175  0.5477
  193MOL0     H25470  10.190   5.331   6.007 -0.9022 -0.1997 -1.7977
  193MOL0     H25471  10.249   5.476   5.918 -0.0501  0.2641  0.4617
  193MOL0     H25472  10.468   5.451   6.025  0.7820  0.6300  2.7350
  193MOL0     H25473  10.344   5.483   6.140  4.3656  2.9455 -2.2813
  193MOL0     H25474  10.521   5.118   6.228 -0.3102 -0.6034 -0.6707
  193MOL0     H25475  10.041   5.145   5.609  2.3271 -0.1233  1.6390
  193MOL0     H25476   9.854   5.027   5.561  0.6961  0.6396 -0.2585
  194MOL0     O25477   4.633   1.023   1.681  0.1758 -0.4852 -0.0264
  194MOL0     C25478   4.688   0.915   1.648  0.0053  0.6905  0.3162
  194MOL0     O25479   4.736   0.818   1.732  0.0723  0.2525  0.5763
  194MOL0     C25480   4.672   0.816   1.850  0.1990 -0.4218  0.8172
  194MOL0     C25481   4.556   0.740   1.866  0.2071 -0.5444 -0.2333
  194MOL0     C25482   4.485   0.757   1.983 -0.3908  0.5995 -1.1103
  194MOL0     C25483   4.524   0.840   2.093 -0.1369 -0.2051  0.8746
  194MOL0     O25484   4.449   0.872   2.194 -0.4735  0.7052  0.3723
  194MOL0     C25485   4.490   0.825   2.327 -0.1916 -0.1531 -0.2987
  194MOL0     C25486   4.367   0.803   2.418 -0.2566  0.4212  0.7555
  194MOL0     C25487   4.290   0.938   2.428  0.0091  0.2816  0.1562
  194MOL0     C25488   4.152   0.920   2.481  0.0697  0.0716 -0.0913
  194MOL0     C25489   4.075   1.054   2.495 -0.3562  0.8028 -0.5477
  194MOL0     C25490   4.015   1.071   2.364  0.1979  0.8105  0.4727
  194MOL0     C25491   3.974   1.226   2.358  0.4221 -0.2440  0.5857
  194MOL0     C25492   3.883   1.261   2.239  0.1985  0.4896  1.1154
  194MOL0     N25493   3.845   1.405   2.240 -0.0426  1.3956  0.3594
  194MOL0     C25494   3.721   1.451   2.210 -0.4902 -0.4428 -0.8360
  194MOL0     C25495   3.737   1.585   2.232 -0.8299 -0.7958 -0.3158
  194MOL0     C25496   3.625   1.685   2.208  0.2946 -0.4225  0.0981
  194MOL0     C25497   3.536   1.694   2.329 -0.7845 -0.0609 -0.5023
  194MOL0     C25498   3.424   1.787   2.295 -0.0184  0.2253 -0.6231
  194MOL0     C25499   3.350   1.817   2.427  0.0833  0.3337  0.1615
  194MOL0     O25500   3.287   1.702   2.474 -0.3666 -0.1665 -0.6422
  194MOL0     C25501   3.154   1.684   2.454  0.2722  0.4583  0.3027
  194MOL0     C25502   3.098   1.571   2.503  0.5561 -0.0623 -0.7200
  194MOL0     C25503   2.960   1.545   2.499 -0.5847  0.2341  1.3298
  194MOL0     C25504   2.866   1.636   2.441 -0.7518  0.2744 -0.3045
  194MOL0     C25505   2.721   1.622   2.447  0.2451  0.5177  0.9496
  194MOL0     O25506   2.638   1.722   2.420  0.1572 -0.5410  0.1665
  194MOL0     C25507   2.506   1.721   2.455  0.2070 -0.7434  0.4229
  194MOL0     C25508   2.412   1.628   2.406  1.2299  0.5712 -0.8008
  194MOL0     C25509   2.272   1.631   2.445 -0.4760  0.3333 -0.0893
  194MOL0     C25510   2.225   1.732   2.535  0.2372 -0.0080  0.2900
  194MOL0     O25511   2.091   1.737   2.575  0.4747 -0.0803 -0.5901
  194MOL0     C25512   2.058   1.803   2.701  0.1043  0.0740  1.3474
  194MOL0     C25513   1.906   1.787   2.719  0.0077 -1.0378 -0.4240
  194MOL0     C25514   1.858   1.636   2.736 -0.3591  0.1544 -0.6260
  194MOL0     C25515   1.720   1.636   2.805  0.4722 -0.5756 -0.1870
  194MOL0     C25516   1.650   1.495   2.831  0.5175 -0.6136  0.6845
  194MOL0     C25517   1.739   1.390   2.893  0.4597 -0.0899 -0.1555
  194MOL0     C25518   1.672   1.265   2.936  0.2824 -0.3992 -0.5112
  194MOL0     C25519   1.759   1.178   3.030 -0.6447 -0.0019 -0.1083
  194MOL0    Cl25520   1.769   1.252   3.188 -0.1553 -0.3355 -0.1829
  194MOL0     C25521   2.323   1.824   2.577  1.1375  0.2005  0.9174
  194MOL0     C25522   2.457   1.822   2.538  0.6024  0.9631  0.0448
  194MOL0     O25523   2.685   1.514   2.494  0.8474  0.1402  0.5952
  194MOL0     C25524   2.925   1.755   2.393  0.0284 -0.0623  1.1198
  194MOL0     C25525   3.070   1.777   2.391  0.4736  0.7379 -0.8146
  194MOL0     N25526   3.868   1.618   2.279 -0.1039  0.8543  0.1397
  194MOL0     N25527   3.923   1.508   2.281 -0.7965  0.6893 -0.5815
  194MOL0     C25528   4.640   0.910   2.072 -0.6432  0.1565 -0.0829
  194MOL0     C25529   4.716   0.895   1.952 -0.6493 -0.8153 -0.0687
  194MOL0     C25530   4.709   0.884   1.508 -0.3188  0.0654  0.5710
  194MOL0     C25531   4.636   0.931   1.401 -0.6658 -0.3172  0.1197
  194MOL0     C25532   4.676   0.917   1.268  0.0417  0.1160  0.9939
  194MOL0     C25533   4.778   0.841   1.237 -0.5713 -0.7107 -0.0013
  194MOL0     O25534   4.813   0.793   1.114  0.4558 -0.1165 -0.6347
  194MOL0     C25535   4.763   0.852   0.996 -0.2306 -0.0713 -0.6640
  194MOL0     C25536   4.820   0.992   0.967 -0.4784 -0.1168 -1.0980
  194MOL0     C25537   4.786   1.041   0.829 -0.7371  0.0996  0.1343
  194MOL0     C25538   4.853   0.955   0.717 -0.9572 -0.8056 -0.0824
  194MOL0     C25539   4.985   0.912   0.749 -0.0265  0.6195 -0.0805
  194MOL0     C25540   5.089   0.877   0.797  0.2955 -0.2193  1.0661
  194MOL0     C25541   4.857   0.794   1.341 -0.8619 -0.4465  0.2699
  194MOL0     C25542   4.832   0.821   1.469 -0.5177  0.8147 -0.8266
  194MOL0     H25543   4.526   0.678   1.781  0.5040  1.4968 -1.9199
  194MOL0     H25544   4.401   0.689   1.991  0.8238 -1.1622 -2.4473
  194MOL0     H25545   4.552   0.904   2.371 -0.4315 -0.1912  0.1093
  194MOL0     H25546   4.554   0.736   2.332  1.6682  1.1486  0.3391
  194MOL0     H25547   4.393   0.768   2.518 -1.4630  0.4528  1.0979
  194MOL0     H25548   4.297   0.738   2.363 -2.6447  1.0273  2.8953
  194MOL0     H25549   4.281   0.984   2.328 -0.4031  4.4058  1.8764
  194MOL0     H25550   4.341   1.015   2.486  1.8281 -1.7479  1.3696
  194MOL0     H25551   4.097   0.847   2.421  1.8965 -0.6962 -0.9286
  194MOL0     H25552   4.152   0.874   2.580 -0.1048 -0.8059 -0.4913
  194MOL0     H25553   4.139   1.140   2.519 -0.6178  1.7025 -2.7974
  194MOL0     H25554   4.001   1.043   2.574 -0.6413  1.0534 -0.7815
  194MOL0     H25555   3.926   1.007   2.359 -0.3796  1.2456  3.2430
  194MOL0     H25556   4.080   1.044   2.280  1.2421 -0.6092  1.6830
  194MOL0     H25557   3.919   1.249   2.450 -0.1094  0.6421  0.0548
  194MOL0     H25558   4.070   1.275   2.338 -1.5399  2.8666 -2.0863
  194MOL0     H25559   3.791   1.203   2.251 -1.2331  1.3314 -3.6758
  194MOL0     H25560   3.928   1.243   2.141 -0.2363  0.8731  0.8373
  194MOL0     H25561   3.629   1.400   2.182 -2.0898  1.8085 -0.0546
  194MOL0     H25562   3.570   1.648   2.121  2.8471 -1.4846 -1.1818
  194MOL0     H25563   3.666   1.784   2.189  0.6651 -1.0925 -3.3375
  194MOL0     H25564   3.588   1.728   2.419 -1.5584  1.4292 -0.5862
  194MOL0     H25565   3.493   1.600   2.363  2.0644 -1.7246 -1.1972
  194MOL0     H25566   3.468   1.878   2.253 -0.9732  0.7293 -0.5575
  194MOL0     H25567   3.353   1.750   2.220 -0.8014  0.0356  0.1955
  194MOL0     H25568   3.282   1.902   2.419 -2.6389 -1.8254 -1.7305
  194MOL0     H25569   3.421   1.836   2.507 -2.0470  2.7986  1.6282
  194MOL0     H25570   3.162   1.502   2.556 -0.0908  2.3894  3.7511
  194MOL0     H25571   2.925   1.449   2.537 -1.3113  0.2429  0.7136
  194MOL0     H25572   2.448   1.550   2.340 -1.3974 -2.2711  0.8803
  194MOL0     H25573   2.213   1.546   2.412 -0.2801 -0.4812  1.5660
  194MOL0     H25574   2.088   1.908   2.705 -0.2828  0.3074 -0.8391
  194MOL0     H25575   2.115   1.752   2.779 -0.1646 -0.3140  1.2912
  194MOL0     H25576   1.853   1.827   2.632 -3.0280 -0.3630  1.5687
  194MOL0     H25577   1.868   1.850   2.801  0.7482  0.4360 -1.1643
  194MOL0     H25578   1.916   1.577   2.808 -0.5172 -1.6325 -1.9111
  194MOL0     H25579   1.868   1.576   2.645  0.1596 -1.6843  0.5835
  194MOL0     H25580   1.728   1.687   2.901 -1.2514 -0.2849 -0.1647
  194MOL0     H25581   1.651   1.691   2.740  0.7144  0.2794  0.2554
  194MOL0     H25582   1.601   1.469   2.737 -2.7018  5.7427  0.0616
  194MOL0     H25583   1.565   1.508   2.899 -0.4798  2.5897 -0.9630
  194MOL0     H25584   1.786   1.435   2.981 -1.0638  2.5161 -0.5900
  194MOL0     H25585   1.818   1.365   2.821 -0.8618 -1.6989 -1.1299
  194MOL0     H25586   1.590   1.293   3.003  3.0498  1.3937  2.4457
  194MOL0     H25587   1.641   1.224   2.840 -2.5677  1.7823 -0.6688
  194MOL0     H25588   1.862   1.184   2.992 -0.1560  0.4431  1.2538
  194MOL0     H25589   1.727   1.073   3.030  3.0798 -1.3177  1.8927
  194MOL0     H25590   2.298   1.905   2.645 -0.3896  0.4140  0.1317
  194MOL0     H25591   2.523   1.898   2.577 -0.7466  0.7258  3.0641
  194MOL0     H25592   2.858   1.829   2.350 -2.2391 -1.9853  1.1964
  194MOL0     H25593   3.102   1.873   2.353 -0.8525  2.8268  2.8874
  194MOL0     H25594   4.690   0.972   2.145  3.4256 -0.2270 -2.2354
  194MOL0     H25595   4.810   0.948   1.940 -1.7006  2.1951  3.2427
  194MOL0     H25596   4.559   1.001   1.431  1.0968  1.1685  1.4504
  194MOL0     H25597   4.611   0.967   1.196 -1.4482 -2.9340  0.0286
  194MOL0     H25598   4.654   0.849   0.989 -0.1639 -0.9174 -1.4432
  194MOL0     H25599   4.787   0.775   0.922  0.7325  0.0417 -0.4828
  194MOL0     H25600   4.763   1.061   1.029  0.3888  1.4225 -1.9675
  194MOL0     H25601   4.924   0.986   1.001 -1.5767 -3.3988  2.3977
  194MOL0     H25602   4.834   1.139   0.823  1.2959 -0.9355 -2.8064
  194MOL0     H25603   4.681   1.055   0.804 -0.1522 -0.9204 -3.7014
  194MOL0     H25604   4.791   0.866   0.702  0.6313 -1.9757  0.0449
  194MOL0     H25605   4.847   1.021   0.630  2.2238  0.4518  0.5166
  194MOL0     H25606   5.179   0.850   0.849  0.2809  1.8531  2.3089
  194MOL0     H25607   4.942   0.737   1.305 -2.3558 -0.7520 -3.1012
  194MOL0     H25608   4.905   0.778   1.537  0.1590  3.2489  0.0842
  195MOL0     O25609   2.365   8.777   0.098 -0.0603  1.0061  0.6930
  195MOL0     C25610   2.369   8.790  -0.026 -0.1354 -0.2823  1.0938
  195MOL0     O25611   2.296   8.724  -0.114 -0.7251 -0.6130  1.2648
  195MOL0     C25612   2.182   8.651  -0.085  0.5411  0.2413 -0.3884
  195MOL0     C25613   2.054   8.706  -0.050 -0.3388  0.0874 -0.0050
  195MOL0     C25614   1.936   8.625  -0.040  0.2954  0.2547 -0.1941
  195MOL0     C25615   1.946   8.484  -0.072  0.0628 -0.5719 -0.8400
  195MOL0     O25616   1.835   8.405  -0.063 -0.2584 -0.6316 -0.1230
  195MOL0     C25617   1.836   8.264  -0.050  0.1837 -0.3242 -0.0781
  195MOL0     C25618   1.704   8.206  -0.008 -0.4776 -0.2804 -0.2184
  195MOL0     C25619   1.579   8.252  -0.085 -0.4542 -0.4341 -0.2980
  195MOL0     C25620   1.453   8.187  -0.020  0.2621  0.0962  0.1184
  195MOL0     C25621   1.379   8.091  -0.110  0.2038  0.4412  0.8542
  195MOL0     C25622   1.334   8.140  -0.250 -0.5428 -1.4559  0.3731
  195MOL0     C25623   1.203   8.075  -0.282  0.4581 -0.5160 -0.4799
  195MOL0     C25624   1.151   8.118  -0.426 -0.8544  0.1842 -0.1642
  195MOL0     N25625   1.239   8.084  -0.537  0.0307 -0.1611 -0.5503
  195MOL0     C25626   1.290   7.963  -0.547  0.3358  0.6653  0.2882
  195MOL0     C25627   1.346   7.966  -0.671 -0.0843 -0.1658 -1.3159
  195MOL0     C25628   1.425   7.856  -0.744 -0.2789 -0.1946 -1.0715
  195MOL0     C25629   1.343   7.735  -0.797 -0.0250 -0.8884 -0.4490
  195MOL0     C25630   1.396   7.647  -0.904  0.6890 -0.0124 -0.5557
  195MOL0     C25631   1.534   7.582  -0.876  0.4695 -0.4521 -0.1386
  195MOL0     O25632   1.580   7.507  -0.994  1.2084  1.2231  0.2942
  195MOL0     C25633   1.715   7.469  -1.009 -0.6666  0.5323 -0.2967
  195MOL0     C25634   1.753   7.450  -1.142 -0.2761  0.3238  0.5246
  195MOL0     C25635   1.885   7.413  -1.179 -0.7950 -0.1813 -0.1379
  195MOL0     C25636   1.967   7.375  -1.068  0.3836 -0.7927  0.1353
  195MOL0     C25637   2.101   7.323  -1.104  1.2756 -0.0772 -0.3820
  195MOL0     O25638   2.153   7.354  -1.223  0.3258  0.3978  0.0766
  195MOL0     C25639   2.262   7.278  -1.257 -1.7853 -0.6580 -1.0104
  195MOL0     C25640   2.374   7.283  -1.166 -0.4873  0.1724  0.0413
  195MOL0     C25641   2.483   7.198  -1.175 -0.2665  0.4222  0.1038
  195MOL0     C25642   2.476   7.094  -1.272 -0.5796 -0.3307  0.1765
  195MOL0     O25643   2.583   7.007  -1.298 -0.1203  0.0470 -0.5376
  195MOL0     C25644   2.719   7.044  -1.270 -0.1410 -0.1730  0.9360
  195MOL0     C25645   2.804   6.933  -1.330  0.1883 -0.6615 -0.0679
  195MOL0     C25646   2.957   6.941  -1.296  1.2357  0.6726 -0.0753
  195MOL0     C25647   3.037   7.049  -1.377 -1.1051 -0.2419 -0.4767
  195MOL0     C25648   3.196   7.025  -1.382  0.0579 -0.0169 -0.4720
  195MOL0     C25649   3.225   6.876  -1.422 -0.0136 -0.3223 -0.0801
  195MOL0     C25650   3.387   6.866  -1.441 -0.1835  0.3005  0.7697
  195MOL0     C25651   3.430   6.734  -1.506 -0.0056 -0.5109 -0.2464
  195MOL0    Cl25652   3.390   6.740  -1.683 -0.1243 -0.0409  0.3159
  195MOL0     C25653   2.363   7.081  -1.351  1.0107 -0.2345  0.1694
  195MOL0     C25654   2.255   7.175  -1.356  0.6483  0.2884 -1.1033
  195MOL0     O25655   2.146   7.245  -1.024 -0.3807 -0.1125  0.3531
  195MOL0     C25656   1.927   7.397  -0.939  0.1096  0.4641 -0.5993
  195MOL0     C25657   1.801   7.444  -0.915 -0.1554 -0.1824 -0.7074
  195MOL0     N25658   1.328   8.090  -0.730 -0.6047  0.3026 -0.2622
  195MOL0     N25659   1.260   8.165  -0.647 -0.4053  0.4618  0.4133
  195MOL0     C25660   2.070   8.431  -0.110 -0.3557  0.0816 -0.5153
  195MOL0     C25661   2.178   8.521  -0.121 -0.6507  0.5689  0.2550
  195MOL0     C25662   2.450   8.896  -0.075  0.3516 -0.3961 -1.0210
  195MOL0     C25663   2.557   8.943  -0.005  0.0818 -0.4596 -0.5106
  195MOL0     C25664   2.620   9.063  -0.042 -0.7833  0.6554  0.3060
  195MOL0     C25665   2.574   9.133  -0.154  1.0693 -0.4971 -0.3662
  195MOL0     O25666   2.628   9.255  -0.178  0.6315 -0.2567  0.6723
  195MOL0     C25667   2.712   9.264  -0.294  0.4144 -0.2314 -0.4598
  195MOL0     C25668   2.718   9.417  -0.320 -0.1509 -0.3116  0.2768
  195MOL0     C25669   2.802   9.443  -0.451 -0.5691  0.3194  0.0594
  195MOL0     C25670   2.946   9.501  -0.421  0.8341 -0.3784  0.1711
  195MOL0     C25671   3.021   9.513  -0.546 -0.1269  0.1048  0.4134
  195MOL0     C25672   3.100   9.536  -0.640  0.3073 -0.4218 -0.5501
  195MOL0     C25673   2.476   9.075  -0.237  0.0250  0.4151 -0.4848
  195MOL0     C25674   2.413   8.960  -0.197  0.0399 -0.2121 -0.4700
  195MOL0     H25675   2.046   8.810  -0.018 -0.8848 -0.5956  2.2460
  195MOL0     H25676   1.836   8.659  -0.016  0.3065  0.9516 -1.0730
  195MOL0     H25677   1.918   8.229   0.013 -1.8367  0.7713  3.4012
  195MOL0     H25678   1.853   8.224  -0.151  2.2863 -3.9751  1.5442
  195MOL0     H25679   1.692   8.220   0.100  1.2357  2.2258 -0.2671
  195MOL0     H25680   1.721   8.100  -0.029 -1.2312 -0.8023  1.5802
  195MOL0     H25681   1.581   8.224  -0.191 -0.2266 -2.4968  0.2205
  195MOL0     H25682   1.574   8.362  -0.082  2.5163 -0.2597  1.5286
  195MOL0     H25683   1.482   8.130   0.069 -0.0230  0.6193  0.5490
  195MOL0     H25684   1.378   8.263   0.003 -0.4032 -0.4950 -0.0778
  195MOL0     H25685   1.287   8.067  -0.055  1.4041 -2.1498  1.8969
  195MOL0     H25686   1.435   7.998  -0.126 -1.9570 -0.6626 -1.1619
  195MOL0     H25687   1.414   8.119  -0.322  1.1934 -0.8798  2.0390
  195MOL0     H25688   1.322   8.248  -0.250  0.1850 -1.3601 -0.4399
  195MOL0     H25689   1.217   7.967  -0.269 -1.6658 -0.6401  1.1514
  195MOL0     H25690   1.136   8.110  -0.204  3.3833 -1.7931  2.8696
  195MOL0     H25691   1.142   8.227  -0.424  3.0537  0.6543 -0.1075
  195MOL0     H25692   1.057   8.064  -0.441 -0.6281  0.3252 -2.4939
  195MOL0     H25693   1.279   7.885  -0.472 -1.6792 -0.1307 -0.7598
  195MOL0     H25694   1.507   7.819  -0.680 -2.2444 -1.1629  1.0258
  195MOL0     H25695   1.468   7.916  -0.824 -0.4790  1.3178 -0.0827
  195MOL0     H25696   1.260   7.799  -0.827  1.8273  1.3854 -1.0681
  195MOL0     H25697   1.326   7.665  -0.715  1.2396 -1.1209 -0.3578
  195MOL0     H25698   1.327   7.567  -0.935  0.3548 -0.2127  0.6348
  195MOL0     H25699   1.396   7.709  -0.994 -0.7266 -0.5085 -0.9406
  195MOL0     H25700   1.516   7.526  -0.784 -1.1834  0.6112  0.2330
  195MOL0     H25701   1.605   7.660  -0.847 -1.3388  0.5305  1.9691
  195MOL0     H25702   1.683   7.465  -1.223  1.7647 -0.5630 -1.5070
  195MOL0     H25703   1.905   7.386  -1.282  1.0384  1.0786 -0.1464
  195MOL0     H25704   2.360   7.356  -1.087 -0.5491  1.9712 -1.5535
  195MOL0     H25705   2.574   7.213  -1.118 -1.3527  0.4226  1.9206
  195MOL0     H25706   2.754   7.070  -1.170  0.1095 -1.9475  1.3484
  195MOL0     H25707   2.729   7.140  -1.321  0.8251 -0.0751  1.2949
  195MOL0     H25708   2.773   6.916  -1.433 -1.1155 -0.9956  0.3608
  195MOL0     H25709   2.770   6.841  -1.280 -3.3749  0.6156  0.1236
  195MOL0     H25710   2.990   6.843  -1.332  0.2862  0.8428 -1.4907
  195MOL0     H25711   2.975   6.958  -1.190 -2.3752  0.1607  0.7509
  195MOL0     H25712   2.993   7.059  -1.477  0.1971  0.4473 -0.9937
  195MOL0     H25713   3.038   7.138  -1.313  1.1859 -0.5333 -0.0440
  195MOL0     H25714   3.249   7.062  -1.293 -1.5165  3.2004 -0.7369
  195MOL0     H25715   3.247   7.086  -1.457  0.9581 -0.1038  0.0577
  195MOL0     H25716   3.174   6.857  -1.516 -0.2669 -0.0584  0.0022
  195MOL0     H25717   3.195   6.814  -1.337 -2.0128  0.7465  0.0673
  195MOL0     H25718   3.427   6.947  -1.503  0.1769 -1.8674 -2.0732
  195MOL0     H25719   3.438   6.864  -1.344 -2.6350  0.2734  2.1369
  195MOL0     H25720   3.382   6.652  -1.453  0.4892  1.0554  2.9011
  195MOL0     H25721   3.538   6.719  -1.499  0.0493 -1.3518 -2.4596
  195MOL0     H25722   2.360   6.996  -1.419  0.2676 -0.2284  0.1862
  195MOL0     H25723   2.170   7.142  -1.415 -0.6145 -3.5024  2.3537
  195MOL0     H25724   1.987   7.371  -0.852 -1.3657 -0.6125  0.1411
  195MOL0     H25725   1.765   7.458  -0.814  2.1261 -0.4153  0.2089
  195MOL0     H25726   2.095   8.326  -0.125  1.6351  0.4175  0.1793
  195MOL0     H25727   2.269   8.474  -0.157  0.6248  0.8513  2.8432
  195MOL0     H25728   2.592   8.882   0.078  2.0045  0.3709 -0.6725
  195MOL0     H25729   2.698   9.113   0.014 -0.8908  2.2624 -0.8768
  195MOL0     H25730   2.667   9.208  -0.376  0.7014  1.9398 -2.1784
  195MOL0     H25731   2.815   9.229  -0.292  0.6240  0.3798 -0.3090
  195MOL0     H25732   2.616   9.455  -0.333 -1.6031 -3.9483 -0.1023
  195MOL0     H25733   2.768   9.481  -0.247  3.2415 -1.0686 -1.2016
  195MOL0     H25734   2.733   9.507  -0.507 -3.9648 -2.2466  0.9547
  195MOL0     H25735   2.810   9.349  -0.506  1.0311  0.4560  0.0305
  195MOL0     H25736   2.948   9.597  -0.369  1.5643  0.9626 -2.1852
  195MOL0     H25737   2.992   9.438  -0.344 -1.4869 -0.6700  1.4096
  195MOL0     H25738   3.175   9.559  -0.713  0.5680 -2.0037 -0.8176
  195MOL0     H25739   2.435   9.121  -0.326  0.6798  1.1163 -0.4320
  195MOL0     H25740   2.348   8.899  -0.260  0.3807 -2.0395  0.8544
  196MOL0     O25741   6.750   1.720   3.444  0.5204 -0.7388 -0.1798
  196MOL0     C25742   6.803   1.619   3.480 -0.4983  0.2493 -0.5351
  196MOL0     O25743   6.933   1.586   3.450  0.3700 -0.8197 -0.6565
  196MOL0     C25744   7.015   1.675   3.380 -0.3842 -0.6448 -0.5376
  196MOL0     C25745   7.084   1.630   3.264  0.1427 -0.1000 -0.1239
  196MOL0     C25746   7.152   1.733   3.194 -0.1459  0.3761  0.5474
  196MOL0     C25747   7.152   1.871   3.225  0.0808  0.0481 -0.1892
  196MOL0     O25748   7.222   1.960   3.143 -0.3143  0.1392  0.1886
  196MOL0     C25749   7.265   2.081   3.200 -0.2075  0.1628 -0.3126
  196MOL0     C25750   7.318   2.177   3.090  0.0837  0.5175  1.0108
  196MOL0     C25751   7.431   2.120   3.001 -0.3992  0.6133 -0.2692
  196MOL0     C25752   7.546   2.054   3.067  0.3777 -0.8095  0.1936
  196MOL0     C25753   7.660   2.010   2.986 -0.1086  0.7127  0.1100
  196MOL0     C25754   7.723   2.122   2.892  0.0748 -0.8394 -0.5101
  196MOL0     C25755   7.818   2.055   2.781 -0.4883 -0.1007  0.1537
  196MOL0     C25756   7.930   1.956   2.842 -0.6218  0.4319  1.0311
  196MOL0     N25757   8.038   2.038   2.894  0.2130 -0.0331 -0.3377
  196MOL0     C25758   8.040   2.081   3.029  0.4364  0.8306  0.2475
  196MOL0     C25759   8.157   2.146   3.036 -0.8025  0.4314  0.4059
  196MOL0     C25760   8.212   2.219   3.156 -0.8286 -0.6279  0.7017
  196MOL0     C25761   8.284   2.118   3.246  0.9906  0.4928  0.3808
  196MOL0     C25762   8.350   2.200   3.355 -0.5688 -0.4471 -0.5107
  196MOL0     C25763   8.468   2.135   3.418 -0.1464 -0.6016 -0.3822
  196MOL0     O25764   8.573   2.099   3.326  0.6821  0.2860  0.2887
  196MOL0     C25765   8.659   2.198   3.275  0.1875  0.4725  0.2106
  196MOL0     C25766   8.657   2.332   3.304  0.4864  0.8138 -0.1750
  196MOL0     C25767   8.747   2.430   3.260 -0.2722 -0.9027 -0.4543
  196MOL0     C25768   8.835   2.388   3.158 -0.9625  0.3676 -0.7986
  196MOL0     C25769   8.911   2.496   3.090 -0.8145 -0.6655  0.4022
  196MOL0     O25770   8.860   2.625   3.096 -0.1021  0.9340 -0.5459
  196MOL0     C25771   8.913   2.723   3.015  0.8351  0.1162  0.4665
  196MOL0     C25772   8.982   2.833   3.063  0.6951  0.2324 -0.2389
  196MOL0     C25773   9.027   2.940   2.981 -0.0983 -0.5233  0.3904
  196MOL0     C25774   9.002   2.935   2.839  0.2717 -0.2027 -0.1705
  196MOL0     O25775   9.054   3.045   2.761  0.4663 -0.1322  0.2650
  196MOL0     C25776   9.105   3.034   2.627 -0.2759 -1.2055  0.6287
  196MOL0     C25777   9.222   2.939   2.628  0.2750 -0.3396  0.0110
  196MOL0     C25778   9.337   2.998   2.709  0.3087 -1.3206 -0.4462
  196MOL0     C25779   9.470   2.917   2.664  0.0060 -0.2299 -0.5241
  196MOL0     C25780   9.597   2.974   2.721  0.5986 -0.0274  0.3883
  196MOL0     C25781   9.632   3.119   2.661 -0.7695 -0.4006 -0.2149
  196MOL0     C25782   9.780   3.151   2.701  0.8089 -0.2293  0.2259
  196MOL0     C25783   9.837   3.237   2.595 -1.0449 -0.0229 -0.3190
  196MOL0    Cl25784   9.998   3.262   2.644  0.0606  0.0972  0.4536
  196MOL0     C25785   8.937   2.815   2.790  0.5153  0.1333  0.2428
  196MOL0     C25786   8.902   2.710   2.877 -0.0828  0.6173  0.2525
  196MOL0     O25787   8.999   2.458   3.008  0.4883 -0.4603  0.4230
  196MOL0     C25788   8.837   2.254   3.121 -0.6417  0.9413 -0.2441
  196MOL0     C25789   8.761   2.157   3.185 -0.3947  1.6070 -0.3764
  196MOL0     N25790   8.220   2.130   2.917 -0.0549 -0.3891 -0.5992
  196MOL0     N25791   8.149   2.069   2.830 -0.4770  0.8815  0.0406
  196MOL0     C25792   7.090   1.908   3.348  0.3696  1.2531 -0.9456
  196MOL0     C25793   7.031   1.807   3.426 -0.1664 -0.1879  0.0117
  196MOL0     C25794   6.729   1.524   3.559  0.6389 -0.1973 -0.1108
  196MOL0     C25795   6.621   1.557   3.639  0.0825 -0.3735  0.8989
  196MOL0     C25796   6.549   1.470   3.716 -0.1872  0.1991 -0.3330
  196MOL0     C25797   6.592   1.339   3.724 -0.2013  0.0046  0.5484
  196MOL0     O25798   6.533   1.241   3.794  0.7132 -0.7203 -0.1277
  196MOL0     C25799   6.384   1.220   3.792  0.4698  0.4196 -0.7735
  196MOL0     C25800   6.305   1.256   3.916  1.2487  0.2803 -0.2961
  196MOL0     C25801   6.327   1.172   4.043  0.0061 -0.2035 -0.7563
  196MOL0     C25802   6.258   1.209   4.167  0.5694 -0.2748 -0.6670
  196MOL0     C25803   6.317   1.174   4.292 -0.0982 -0.6877 -1.3639
  196MOL0     C25804   6.359   1.129   4.399  1.1494 -0.3084  0.2232
  196MOL0     C25805   6.719   1.305   3.668  0.7467  0.7077 -0.8105
  196MOL0     C25806   6.778   1.394   3.572 -0.4663 -0.9407  0.5754
  196MOL0     H25807   7.078   1.533   3.216 -3.0591  1.1878 -2.7075
  196MOL0     H25808   7.188   1.711   3.094 -2.6079 -0.0827 -0.3251
  196MOL0     H25809   7.348   2.056   3.267  1.4766  0.1670 -2.3207
  196MOL0     H25810   7.186   2.138   3.250 -1.0216 -0.9678 -0.2775
  196MOL0     H25811   7.361   2.267   3.136  2.5679 -0.0349 -0.0859
  196MOL0     H25812   7.237   2.211   3.025  0.3666 -1.1711 -0.2923
  196MOL0     H25813   7.462   2.209   2.946 -1.1013  1.1039  0.1056
  196MOL0     H25814   7.384   2.052   2.929 -2.5641  1.0324  0.6386
  196MOL0     H25815   7.578   2.130   3.140 -1.7272 -0.8043  1.1938
  196MOL0     H25816   7.511   1.962   3.115 -2.9954  1.0312  1.6453
  196MOL0     H25817   7.626   1.928   2.922  2.0538  1.2027 -1.7993
  196MOL0     H25818   7.733   1.971   3.059  1.7185  0.7489 -1.6150
  196MOL0     H25819   7.769   2.198   2.956 -0.6489 -1.0186  0.2505
  196MOL0     H25820   7.652   2.182   2.833 -2.1799 -1.2524  1.6290
  196MOL0     H25821   7.751   1.993   2.721 -2.5563  2.3938 -0.2382
  196MOL0     H25822   7.857   2.122   2.704  1.8986 -0.6098  0.8273
  196MOL0     H25823   7.973   1.894   2.762  0.6082  2.2919  0.1745
  196MOL0     H25824   7.880   1.897   2.919 -1.2279  1.7994  1.7160
  196MOL0     H25825   7.969   2.062   3.109 -0.4871 -0.4716 -0.8241
  196MOL0     H25826   8.145   2.278   3.219 -0.1565 -0.5562  1.3648
  196MOL0     H25827   8.285   2.284   3.109 -4.4480  1.1662 -3.0620
  196MOL0     H25828   8.348   2.049   3.191 -1.4022  0.4823 -2.6531
  196MOL0     H25829   8.206   2.058   3.293  4.1226 -3.0641  1.4731
  196MOL0     H25830   8.399   2.286   3.309  1.6663 -0.8833  0.9297
  196MOL0     H25831   8.279   2.238   3.428 -1.6799 -0.7270 -1.4169
  196MOL0     H25832   8.432   2.045   3.467 -0.7673 -1.0958 -1.7008
  196MOL0     H25833   8.512   2.203   3.492 -2.2787  1.0762 -0.5401
  196MOL0     H25834   8.587   2.352   3.384 -0.8121  0.1983 -1.1010
  196MOL0     H25835   8.729   2.532   3.290 -3.6196 -1.9707  1.6760
  196MOL0     H25836   9.007   2.835   3.169  2.3040 -2.2804 -0.4870
  196MOL0     H25837   9.077   3.027   3.024  1.2437 -1.1949  0.2499
  196MOL0     H25838   9.134   3.134   2.593 -2.1632 -0.9885 -0.5036
  196MOL0     H25839   9.025   3.000   2.560  0.7048 -2.9314  0.2749
  196MOL0     H25840   9.251   2.940   2.523 -2.9912  1.3722 -1.0193
  196MOL0     H25841   9.207   2.834   2.654  1.5239 -0.8376 -1.2150
  196MOL0     H25842   9.317   2.993   2.817 -3.1606  0.8372 -0.8534
  196MOL0     H25843   9.349   3.104   2.688  0.3073 -1.1965  0.1507
  196MOL0     H25844   9.461   2.815   2.701 -0.1678  0.4890  1.5801
  196MOL0     H25845   9.479   2.921   2.555  2.0059  2.0145 -0.3653
  196MOL0     H25846   9.681   2.905   2.709  1.9013  1.1983  1.9614
  196MOL0     H25847   9.587   2.976   2.830  0.7680 -0.1621  0.4067
  196MOL0     H25848   9.566   3.184   2.719  0.4507 -1.6235  2.7266
  196MOL0     H25849   9.614   3.131   2.554 -1.5516 -1.6379 -0.2470
  196MOL0     H25850   9.785   3.212   2.791 -4.7655  1.3496 -0.1714
  196MOL0     H25851   9.833   3.055   2.703  2.5148  0.6360 -1.2384
  196MOL0     H25852   9.798   3.339   2.599  0.3877  0.5866 -1.2506
  196MOL0     H25853   9.830   3.193   2.495  2.4506 -0.2034 -0.5936
  196MOL0     H25854   8.922   2.794   2.685  2.4529 -1.8400  0.3021
  196MOL0     H25855   8.862   2.619   2.833 -0.1544  0.8904 -0.2558
  196MOL0     H25856   8.893   2.232   3.030 -1.1479 -0.8201 -0.1713
  196MOL0     H25857   8.762   2.053   3.153  1.6209  1.5104 -0.1492
  196MOL0     H25858   7.076   2.009   3.386 -0.7379  0.4302  0.9579
  196MOL0     H25859   6.967   1.831   3.511 -0.6418  2.3230 -0.9633
  196MOL0     H25860   6.598   1.663   3.642 -1.8651 -0.7367  0.3714
  196MOL0     H25861   6.467   1.511   3.773 -0.7469 -0.0914 -0.9064
  196MOL0     H25862   6.358   1.121   3.753  3.3740 -1.1146  0.7815
  196MOL0     H25863   6.351   1.282   3.708  1.7963 -1.9661 -3.2271
  196MOL0     H25864   6.331   1.360   3.936  3.0769  0.4708 -3.1977
  196MOL0     H25865   6.198   1.261   3.896  1.0334  2.3007  1.0978
  196MOL0     H25866   6.429   1.190   4.079 -0.5918  1.7732  0.0910
  196MOL0     H25867   6.310   1.065   4.028  1.4680 -0.5431 -0.2458
  196MOL0     H25868   6.240   1.317   4.169 -3.8575 -0.8367  0.9951
  196MOL0     H25869   6.159   1.162   4.158  1.3067 -1.4296 -4.2307
  196MOL0     H25870   6.389   1.110   4.500  1.2852  3.0039  0.9245
  196MOL0     H25871   6.752   1.206   3.696  0.3410  0.9929  0.8293
  196MOL0     H25872   6.859   1.357   3.511 -1.4283  1.0688 -2.0956
  197MOL0     O25873   8.471   8.753   7.286  0.1332  0.1805  0.1351
  197MOL0     C25874   8.419   8.722   7.183 -1.1319 -0.6766  0.1411
  197MOL0     O25875   8.453   8.778   7.065  0.5747 -0.0049 -0.2008
  197MOL0     C25876   8.560   8.859   7.062 -0.3374 -0.7286 -0.1939
  197MOL0     C25877   8.544   8.996   7.085  0.4627 -0.5797 -0.4196
  197MOL0     C25878   8.653   9.082   7.095 -0.0272 -0.5547 -0.2167
  197MOL0     C25879   8.779   9.028   7.087  0.2426  0.2319 -0.0203
  197MOL0     O25880   8.879   9.119   7.106 -0.0501 -0.2372  0.1642
  197MOL0     C25881   9.008   9.063   7.112 -0.7169  0.1049 -0.2503
  197MOL0     C25882   9.121   9.174   7.123 -0.3989 -0.0801  0.1454
  197MOL0     C25883   9.136   9.245   6.994 -0.2029  0.0308  0.1470
  197MOL0     C25884   9.223   9.365   7.024  0.3735  0.4665 -0.1573
  197MOL0     C25885   9.241   9.471   6.909 -0.6573  0.4423 -0.2356
  197MOL0     C25886   9.175   9.604   6.964  0.4606 -0.9511  0.3150
  197MOL0     C25887   9.258   9.674   7.077  1.0195 -0.6892  0.1478
  197MOL0     C25888   9.403   9.716   7.013 -0.5212  1.0415 -0.8031
  197MOL0     N25889   9.449   9.827   7.099  0.3527 -0.1241  0.6588
  197MOL0     C25890   9.378   9.933   7.136  0.6322 -0.6140 -0.4475
  197MOL0     C25891   9.456  10.015   7.213  0.6849  0.5812  0.7252
  197MOL0     C25892   9.414  10.148   7.267  0.0303 -0.1745  0.0649
  197MOL0     C25893   9.527  10.247   7.277 -0.0746 -0.1870 -0.2595
  197MOL0     C25894   9.634  10.207   7.386 -0.0997  0.9449 -0.8569
  197MOL0     C25895   9.763  10.261   7.352  0.2536 -1.3373  0.4366
  197MOL0     O25896   9.747  10.403   7.352  0.0075  0.9337  0.5299
  197MOL0     C25897   9.861  10.478   7.359  0.2856 -0.9316 -0.9326
  197MOL0     C25898   9.871  10.595   7.274 -0.4329  1.3262 -1.2516
  197MOL0     C25899   9.991  10.662   7.289 -0.9156  0.9045  0.0687
  197MOL0     C25900  10.077  10.648   7.401  0.5041 -0.4650 -0.1762
  197MOL0     C25901  10.182  10.745   7.424  0.5678  0.5944 -0.0740
  197MOL0     O25902  10.279  10.706   7.504 -0.8223  0.3493 -0.5145
  197MOL0     C25903  10.365  10.793   7.562  0.1560 -0.4253 -0.3587
  197MOL0     C25904  10.346  10.929   7.595 -0.2927 -0.4118  0.1827
  197MOL0     C25905  10.445  11.012   7.652 -0.4143  0.4628 -0.2492
  197MOL0     C25906  10.571  10.946   7.686 -0.1245  1.2022  0.3260
  197MOL0     O25907  10.658  11.036   7.735  0.4084  0.0044  0.5427
  197MOL0     C25908  10.792  11.028   7.705 -0.5696 -0.1035  0.6982
  197MOL0     C25909  10.862  11.120   7.810 -0.5386  0.4723 -0.0155
  197MOL0     C25910  10.813  11.114   7.956 -0.0709 -0.5387 -0.2139
  197MOL0     C25911  10.907  11.138   8.065  0.2717  0.1150  0.3886
  197MOL0     C25912  10.930  11.289   8.067 -0.1505  0.3383 -0.5480
  197MOL0     C25913  11.063  11.312   8.149 -0.7911 -0.1706  0.2283
  197MOL0     C25914  11.189  11.294   8.060  0.4182 -0.6909  0.1581
  197MOL0     C25915  11.320  11.334   8.121  1.3819 -0.6011  0.0611
  197MOL0    Cl25916  11.398  11.173   8.177 -0.1809 -0.0683 -0.5510
  197MOL0     C25917  10.596  10.809   7.659 -0.3845  0.5363 -0.2398
  197MOL0     C25918  10.492  10.743   7.592  0.6369  0.5656 -0.1879
  197MOL0     O25919  10.175  10.854   7.367 -0.3320  0.2541  0.0191
  197MOL0     C25920  10.040  10.554   7.494 -0.3004 -0.5132 -0.6694
  197MOL0     C25921   9.943  10.461   7.468 -0.7763 -0.4881 -0.5568
  197MOL0     N25922   9.574   9.953   7.216 -0.9731 -0.1221  0.9116
  197MOL0     N25923   9.574   9.844   7.146 -0.0129 -0.4278 -0.4770
  197MOL0     C25924   8.796   8.894   7.058  0.3305  0.5988  1.1511
  197MOL0     C25925   8.689   8.813   7.036 -0.3763  0.2247 -0.3346
  197MOL0     C25926   8.325   8.603   7.187 -0.2653  0.2407  0.9198
  197MOL0     C25927   8.289   8.530   7.307  1.0163  1.1144  0.2798
  197MOL0     C25928   8.220   8.412   7.301  0.2872 -0.7681  0.0415
  197MOL0     C25929   8.179   8.362   7.173  0.1682  0.5511 -0.1684
  197MOL0     O25930   8.126   8.239   7.143  0.2566  0.0016  0.0421
  197MOL0     C25931   8.105   8.145   7.253  0.2079 -0.0598  0.0807
  197MOL0     C25932   7.978   8.177   7.327  0.0283 -0.7550  0.1391
  197MOL0     C25933   7.858   8.152   7.243  0.7492 -0.4656  0.8871
  197MOL0     C25934   7.734   8.198   7.322 -0.4468 -0.2776 -0.8163
  197MOL0     C25935   7.616   8.140   7.264  0.1594 -0.3104  0.6986
  197MOL0     C25936   7.511   8.107   7.207  0.1603  0.3642  0.1011
  197MOL0     C25937   8.203   8.439   7.057 -1.0886 -0.3898  0.4832
  197MOL0     C25938   8.275   8.552   7.065 -0.6648 -0.0138 -0.3632
  197MOL0     H25939   8.441   9.027   7.103  0.4541 -1.5955  1.4664
  197MOL0     H25940   8.654   9.186   7.126 -3.5177 -0.3867 -0.2805
  197MOL0     H25941   9.034   9.018   7.016  1.3047  3.4917 -1.4761
  197MOL0     H25942   9.033   8.996   7.196  1.7337  1.2210  0.0196
  197MOL0     H25943   9.212   9.117   7.139  0.7334  1.5201 -0.3241
  197MOL0     H25944   9.107   9.248   7.202 -3.3791  0.3036 -0.5819
  197MOL0     H25945   9.045   9.285   6.950 -2.7582 -5.1576  0.0098
  197MOL0     H25946   9.191   9.185   6.922  2.8293 -0.8464  2.9300
  197MOL0     H25947   9.183   9.427   7.105 -0.2992  1.8792 -1.4927
  197MOL0     H25948   9.321   9.325   7.048 -0.2822 -1.7590 -0.9358
  197MOL0     H25949   9.178   9.443   6.824 -1.0128  0.5102  0.0041
  197MOL0     H25950   9.347   9.487   6.890 -0.2360  0.2020  1.6450
  197MOL0     H25951   9.070   9.593   6.990  0.0184  2.4254  0.3391
  197MOL0     H25952   9.175   9.674   6.880  0.5226 -0.5396  0.6561
  197MOL0     H25953   9.205   9.761   7.115  1.9168 -0.0041 -0.1210
  197MOL0     H25954   9.273   9.601   7.157 -0.5963 -1.6687 -0.3977
  197MOL0     H25955   9.398   9.743   6.907  0.9261  1.9631 -0.6562
  197MOL0     H25956   9.472   9.632   7.023 -2.0710 -0.4820 -2.1562
  197MOL0     H25957   9.284   9.964   7.093  0.3300 -1.9087 -0.7779
  197MOL0     H25958   9.378  10.141   7.370  0.3898  4.4980  0.7113
  197MOL0     H25959   9.338  10.182   7.196  2.7061  0.0408 -2.9239
  197MOL0     H25960   9.496  10.351   7.293  3.0095  1.1292 -1.7562
  197MOL0     H25961   9.575  10.245   7.178  0.2640 -1.1438 -0.0840
  197MOL0     H25962   9.597  10.241   7.483  1.6299 -1.1865  0.6434
  197MOL0     H25963   9.657  10.101   7.399 -0.1433  0.9549 -0.6968
  197MOL0     H25964   9.801  10.226   7.255 -0.5304  0.8980 -0.7485
  197MOL0     H25965   9.835  10.232   7.429  1.6232  0.8160  0.0482
  197MOL0     H25966   9.793  10.627   7.206 -0.3657  0.3890 -1.7890
  197MOL0     H25967   9.993  10.744   7.218 -1.9671  2.4332  1.7195
  197MOL0     H25968  10.258  10.977   7.554  0.4756  0.5811 -0.3720
  197MOL0     H25969  10.426  11.117   7.671 -1.9473  0.2013 -0.2486
  197MOL0     H25970  10.814  11.053   7.601  3.1198 -0.3863  1.2506
  197MOL0     H25971  10.830  10.926   7.694 -1.8774 -0.6143  0.8490
  197MOL0     H25972  10.838  11.221   7.775  0.4751  0.9866  0.7253
  197MOL0     H25973  10.968  11.100   7.798 -0.5862  1.6455 -3.4926
  197MOL0     H25974  10.775  11.013   7.970 -1.8298  0.0345 -0.6543
  197MOL0     H25975  10.724  11.177   7.961  1.4017  1.6039  1.1770
  197MOL0     H25976  10.844  11.110   8.150 -1.0900 -0.2071 -0.6798
  197MOL0     H25977  10.997  11.077   8.055  0.5849 -0.0357  3.3494
  197MOL0     H25978  10.844  11.345   8.105 -0.8939  1.2320 -3.3124
  197MOL0     H25979  10.956  11.333   7.970 -0.5092  1.2000 -0.2636
  197MOL0     H25980  11.058  11.246   8.236  3.2791  0.5413  1.1963
  197MOL0     H25981  11.054  11.412   8.194 -1.1816 -1.1367  2.4359
  197MOL0     H25982  11.185  11.191   8.025 -2.2634 -0.1710 -1.3290
  197MOL0     H25983  11.167  11.363   7.978 -1.2345 -2.5857 -1.0818
  197MOL0     H25984  11.309  11.416   8.193  3.1359  0.2418 -0.5765
  197MOL0     H25985  11.374  11.363   8.030  1.7522 -3.7210 -0.8289
  197MOL0     H25986  10.686  10.760   7.694 -0.9076  1.6651  2.9564
  197MOL0     H25987  10.509  10.638   7.572  1.6989  0.8151 -0.6813
  197MOL0     H25988  10.107  10.547   7.580  0.1141 -2.6228 -1.1045
  197MOL0     H25989   9.949  10.371   7.529 -1.5439 -0.9152 -1.0965
  197MOL0     H25990   8.897   8.854   7.049 -0.0699 -0.4417  1.1264
  197MOL0     H25991   8.705   8.706   7.030 -1.8136 -0.2411  2.4820
  197MOL0     H25992   8.332   8.558   7.402 -1.0870 -0.5803  1.8332
  197MOL0     H25993   8.189   8.366   7.394 -0.5374 -2.0411 -0.8163
  197MOL0     H25994   8.184   8.133   7.327 -1.8612 -1.6843  2.1724
  197MOL0     H25995   8.093   8.046   7.208 -0.8547 -0.6768  1.6377
  197MOL0     H25996   7.969   8.128   7.424 -1.7608  2.8354  1.9892
  197MOL0     H25997   7.985   8.285   7.343  0.6630 -0.9191  1.0389
  197MOL0     H25998   7.861   8.044   7.225  0.4570 -0.4921  0.9891
  197MOL0     H25999   7.862   8.204   7.147 -0.2831 -2.4229 -0.2857
  197MOL0     H26000   7.733   8.189   7.431  3.4168  1.2116 -0.4829
  197MOL0     H26001   7.726   8.306   7.307  1.4414  0.4461  2.4099
  197MOL0     H26002   7.426   8.065   7.157 -0.1809  0.8676  0.2487
  197MOL0     H26003   8.166   8.406   6.961 -2.8652  2.7925 -0.0621
  197MOL0     H26004   8.307   8.592   6.969  1.8091  0.7331  0.6716
  198MOL0     O26005   1.349   6.820   9.519 -0.3829 -0.0424 -1.1768
  198MOL0     C26006   1.447   6.891   9.540  0.1132  0.5623 -0.1023
  198MOL0     O26007   1.560   6.889   9.468  0.7664  0.1759 -0.2375
  198MOL0     C26008   1.608   6.771   9.432 -0.0536  0.4751 -0.2513
  198MOL0     C26009   1.620   6.652   9.509  0.3848 -0.4137 -0.3312
  198MOL0     C26010   1.660   6.535   9.458 -1.3166 -1.2998  0.1012
  198MOL0     C26011   1.695   6.517   9.317 -1.0346  0.2073 -0.7405
  198MOL0     O26012   1.716   6.400   9.250 -0.9613 -0.3297 -0.0953
  198MOL0     C26013   1.700   6.281   9.333 -0.4358  0.2502  0.7582
  198MOL0     C26014   1.727   6.156   9.246  1.0370  0.7067 -0.0255
  198MOL0     C26015   1.873   6.139   9.197 -0.7193  0.5066  0.7687
  198MOL0     C26016   1.896   6.031   9.093 -0.0947  0.6457 -0.4298
  198MOL0     C26017   1.878   5.884   9.142 -0.0128 -0.4411  1.1811
  198MOL0     C26018   2.003   5.811   9.186 -0.9544 -0.2962 -0.6917
  198MOL0     C26019   1.977   5.710   9.296 -0.9051 -0.2505  0.4604
  198MOL0     C26020   2.105   5.625   9.330  1.3121  0.2405 -0.6343
  198MOL0     N26021   2.060   5.512   9.413 -0.0842 -0.2811 -0.6757
  198MOL0     C26022   2.026   5.514   9.542 -0.7137 -0.9289  0.0432
  198MOL0     C26023   2.018   5.385   9.590 -0.2202 -0.6355 -0.0755
  198MOL0     C26024   1.957   5.349   9.720  0.8654 -0.0037  1.2892
  198MOL0     C26025   1.840   5.440   9.781 -0.1737  1.2643  0.2640
  198MOL0     C26026   1.794   5.378   9.917  0.8045 -0.5304 -1.1950
  198MOL0     C26027   1.698   5.466   9.999  0.1848  0.1809  0.2055
  198MOL0     O26028   1.594   5.500   9.910 -0.0008  0.6013  0.0950
  198MOL0     C26029   1.490   5.567   9.967 -0.8868  1.0080 -0.3737
  198MOL0     C26030   1.380   5.591   9.887  0.1401  0.3859 -0.5229
  198MOL0     C26031   1.268   5.670   9.938 -0.7390 -0.5579  0.8248
  198MOL0     C26032   1.276   5.739  10.062 -0.8896  0.5337  0.3436
  198MOL0     C26033   1.176   5.824  10.110  0.2095 -0.7419  0.1985
  198MOL0     O26034   1.070   5.849  10.032  0.2632  0.7862 -0.4074
  198MOL0     C26035   0.948   5.903  10.080  0.0363  1.3818 -0.3407
  198MOL0     C26036   0.851   5.821  10.139  0.0216  0.0681 -0.3568
  198MOL0     C26037   0.725   5.886  10.171 -0.6542  0.4841 -0.1174
  198MOL0     C26038   0.700   6.023  10.158 -0.3856  0.3928 -0.1917
  198MOL0     O26039   0.583   6.084  10.202  0.1591 -0.0853  0.2781
  198MOL0     C26040   0.466   6.010  10.173 -1.0301 -0.5608  0.6466
  198MOL0     C26041   0.341   6.095  10.197 -0.8905 -1.2361  0.0078
  198MOL0     C26042   0.326   6.133  10.351  0.3490  0.4532  1.0446
  198MOL0     C26043   0.205   6.219  10.391 -0.5131  0.7404 -0.4061
  198MOL0     C26044   0.220   6.257  10.544  0.0052 -0.2841  0.1823
  198MOL0     C26045   0.078   6.279  10.596  0.6582 -0.1372 -0.5180
  198MOL0     C26046   0.085   6.332  10.741  0.8980  0.6488  0.3230
  198MOL0     C26047  -0.060   6.296  10.794  0.5488 -0.3568 -0.3944
  198MOL0    Cl26048  -0.087   6.380  10.945 -0.1373  0.4428 -0.0658
  198MOL0     C26049   0.809   6.101  10.119 -0.7254 -0.2651  0.6578
  198MOL0     C26050   0.933   6.045  10.082  0.4348 -0.4619 -0.9719
  198MOL0     O26051   1.183   5.861  10.221 -0.9940 -0.3417 -0.1563
  198MOL0     C26052   1.384   5.701  10.141 -0.9546 -0.4995  0.4851
  198MOL0     C26053   1.491   5.623  10.093 -0.2125  1.0793 -1.0545
  198MOL0     N26054   2.047   5.305   9.479  0.1658  0.8985 -0.4701
  198MOL0     N26055   2.079   5.386   9.377  0.4483 -0.1218  0.2042
  198MOL0     C26056   1.681   6.632   9.237  0.0689  0.1159  0.0955
  198MOL0     C26057   1.640   6.754   9.293 -0.0143 -0.4424 -0.0823
  198MOL0     C26058   1.430   6.983   9.652 -0.1759  0.3391  0.2474
  198MOL0     C26059   1.547   6.999   9.731 -0.0878  0.1572 -0.2177
  198MOL0     C26060   1.533   7.096   9.836 -0.1595 -0.3377 -0.3314
  198MOL0     C26061   1.405   7.135   9.888  0.5041  1.0223 -0.2101
  198MOL0     O26062   1.381   7.213  10.001 -0.2075  0.4676 -0.1900
  198MOL0     C26063   1.478   7.207  10.104 -0.0602  0.4400  0.7990
  198MOL0     C26064   1.412   7.247  10.234  0.4154 -0.2751 -0.1034
  198MOL0     C26065   1.307   7.149  10.297 -0.1334 -1.1214  0.7851
  198MOL0     C26066   1.216   7.072  10.208  0.3862 -0.2696 -0.6150
  198MOL0     C26067   1.117   7.162  10.148 -0.2759  1.4648  0.1428
  198MOL0     C26068   1.033   7.232  10.087  0.4445 -0.0141 -0.1881
  198MOL0     C26069   1.295   7.108   9.806 -0.5701  0.2358 -1.1352
  198MOL0     C26070   1.302   7.032   9.694  0.0636 -0.6096  0.0327
  198MOL0     H26071   1.589   6.654   9.613  1.2667  3.5702 -0.0082
  198MOL0     H26072   1.662   6.446   9.520  0.0464 -2.5356 -1.6039
  198MOL0     H26073   1.599   6.274   9.375 -0.6177 -2.0163  0.0805
  198MOL0     H26074   1.776   6.284   9.412 -0.9988 -1.8515  1.4534
  198MOL0     H26075   1.669   6.151   9.153  1.0519 -0.6590  0.0155
  198MOL0     H26076   1.701   6.064   9.299  0.1424 -0.2159 -1.9386
  198MOL0     H26077   1.940   6.107   9.278  2.3243 -1.3372 -2.1840
  198MOL0     H26078   1.910   6.236   9.160 -0.1782 -0.4412 -1.3204
  198MOL0     H26079   1.816   6.043   9.019 -1.3012 -1.5833  0.4246
  198MOL0     H26080   1.990   6.054   9.041 -0.5612 -0.0102 -1.6086
  198MOL0     H26081   1.838   5.821   9.062  0.4125 -0.7994  1.2452
  198MOL0     H26082   1.805   5.884   9.224 -0.1732 -0.8547  1.0449
  198MOL0     H26083   2.074   5.886   9.221  1.1367 -1.7619 -1.6353
  198MOL0     H26084   2.061   5.759   9.109  2.6808 -2.6193  3.1833
  198MOL0     H26085   1.936   5.764   9.382 -2.6662 -1.8315  0.6800
  198MOL0     H26086   1.899   5.648   9.249  0.6427  0.9363 -4.1799
  198MOL0     H26087   2.187   5.677   9.380  1.4763 -0.7864  0.2054
  198MOL0     H26088   2.149   5.584   9.239 -1.5861 -2.4486 -1.0120
  198MOL0     H26089   1.978   5.603   9.583 -0.9410 -0.1785 -1.7802
  198MOL0     H26090   2.029   5.368   9.799  1.3056  2.5645  0.3518
  198MOL0     H26091   1.911   5.250   9.707  2.8808 -0.8387  0.1954
  198MOL0     H26092   1.762   5.434   9.704  1.6788  1.6729 -1.7355
  198MOL0     H26093   1.866   5.545   9.790 -0.0807  1.1785  1.0567
  198MOL0     H26094   1.747   5.282   9.894  0.2506 -1.1937  2.2149
  198MOL0     H26095   1.883   5.364   9.980  0.9725  0.9358 -1.0727
  198MOL0     H26096   1.746   5.557  10.035 -0.3620  0.8937 -0.7936
  198MOL0     H26097   1.664   5.403  10.081  1.2236 -1.7990 -0.7988
  198MOL0     H26098   1.371   5.548   9.787  0.7896  0.8201 -0.7777
  198MOL0     H26099   1.186   5.675   9.867  1.5107 -2.0326 -2.1182
  198MOL0     H26100   0.855   5.714  10.158  0.7831  0.2976  0.9031
  198MOL0     H26101   0.642   5.821  10.196  0.4351 -0.4575  1.1565
  198MOL0     H26102   0.466   5.928  10.245 -1.7497 -1.5529 -0.4572
  198MOL0     H26103   0.462   5.960  10.076 -1.5170 -0.6682  0.7217
  198MOL0     H26104   0.251   6.038  10.173 -0.7309 -1.8093  0.7266
  198MOL0     H26105   0.352   6.188  10.140 -1.2056  0.5225  2.6009
  198MOL0     H26106   0.418   6.176  10.392  1.1736  1.9043 -2.0206
  198MOL0     H26107   0.309   6.034  10.393  1.8602 -0.5024 -0.4737
  198MOL0     H26108   0.214   6.310  10.331  3.7019  1.1389  0.5369
  198MOL0     H26109   0.110   6.173  10.363 -1.3117  1.1312  1.4878
  198MOL0     H26110   0.295   6.334  10.565  0.3569 -0.2819 -0.9924
  198MOL0     H26111   0.242   6.161  10.590  2.1461 -1.8793 -3.6995
  198MOL0     H26112   0.017   6.188  10.592 -1.6750  1.2083  1.7326
  198MOL0     H26113   0.012   6.350  10.545  0.0286 -0.1308  0.2880
  198MOL0     H26114   0.167   6.293  10.802  1.8999  0.9442 -0.7834
  198MOL0     H26115   0.091   6.441  10.730  2.3179  0.3879 -2.5114
  198MOL0     H26116  -0.084   6.190  10.806  0.0566 -0.2253 -0.1639
  198MOL0     H26117  -0.141   6.329  10.728  0.2143 -1.9449 -0.8383
  198MOL0     H26118   0.792   6.207  10.107 -0.9205 -0.4818 -1.2999
  198MOL0     H26119   1.009   6.114  10.047  0.1273 -0.8334 -2.4265
  198MOL0     H26120   1.386   5.718  10.248  0.4187  2.6635  0.0813
  198MOL0     H26121   1.562   5.586  10.167 -1.3612 -2.0913 -1.3876
  198MOL0     H26122   1.687   6.632   9.129 -0.6337  1.6846  0.0247
  198MOL0     H26123   1.624   6.846   9.239  1.6401  0.1424  0.3679
  198MOL0     H26124   1.646   6.964   9.704 -2.0811 -3.8185 -3.3628
  198MOL0     H26125   1.624   7.119   9.890  1.4829 -2.3819 -2.0783
  198MOL0     H26126   1.573   7.248  10.070  1.5910 -3.0832  0.7660
  198MOL0     H26127   1.505   7.102  10.121 -1.8487 -0.0871  0.6054
  198MOL0     H26128   1.488   7.269  10.310 -0.1936  0.1434  0.3964
  198MOL0     H26129   1.362   7.344  10.221 -0.6472 -1.0296 -2.0087
  198MOL0     H26130   1.247   7.199  10.374  0.0549 -0.3450  0.4324
  198MOL0     H26131   1.369   7.076  10.350  2.0579 -1.3094 -1.8133
  198MOL0     H26132   1.267   7.015  10.130 -0.0556  0.0519 -1.1408
  198MOL0     H26133   1.155   7.008  10.272  0.4737  1.2343  1.0768
  198MOL0     H26134   0.965   7.277  10.019 -1.0789 -0.7482  0.7870
  198MOL0     H26135   1.200   7.133   9.852  0.6339  1.2067  0.9888
  198MOL0     H26136   1.206   7.012   9.646 -0.7505  1.8613  0.4775
  199MOL0     O26137   9.853   0.174   8.454 -0.4670 -0.1095 -0.0008
  199MOL0     C26138   9.772   0.089   8.499 -0.0796  0.2149 -0.8217
  199MOL0     O26139   9.786   0.018   8.609  0.5966 -0.1539  0.1325
  199MOL0     C26140   9.906   0.037   8.673  0.0008  0.3159 -0.0274
  199MOL0     C26141  10.005  -0.058   8.667 -0.2754  0.5109 -0.3495
  199MOL0     C26142  10.132  -0.040   8.716 -0.4369  0.4323  0.2527
  199MOL0     C26143  10.150   0.066   8.804 -0.2421 -0.7022  0.4083
  199MOL0     O26144  10.256   0.106   8.885 -0.5825 -0.2933 -0.3944
  199MOL0     C26145  10.360   0.005   8.902 -0.8176 -1.2781 -0.2647
  199MOL0     C26146  10.319  -0.096   9.015 -0.0120 -0.8849  0.1509
  199MOL0     C26147  10.327  -0.043   9.161  0.2581 -0.1987 -0.7193
  199MOL0     C26148  10.258  -0.125   9.263  1.6121 -0.0430 -0.1436
  199MOL0     C26149  10.287  -0.076   9.403 -0.4767  0.7555 -0.2658
  199MOL0     C26150  10.208  -0.160   9.497 -1.1364  0.5091 -0.3406
  199MOL0     C26151  10.257  -0.146   9.642  0.0312 -0.3558  0.8656
  199MOL0     C26152  10.160  -0.058   9.732 -0.0876  0.1282 -0.4168
  199MOL0     N26153  10.025  -0.107   9.751 -0.9673 -0.3641 -0.3278
  199MOL0     C26154   9.993  -0.230   9.779 -0.7939 -0.3948  0.8316
  199MOL0     C26155   9.860  -0.218   9.807  0.4310  0.2560 -0.2651
  199MOL0     C26156   9.785  -0.339   9.871 -0.0202  1.1986 -0.2150
  199MOL0     C26157   9.811  -0.368  10.021  0.1696  0.9206 -0.3857
  199MOL0     C26158   9.678  -0.440  10.097 -0.2311 -0.2914  0.0452
  199MOL0     C26159   9.706  -0.497  10.231  0.5956  0.0747 -0.3370
  199MOL0     O26160   9.593  -0.562  10.286 -0.3005 -0.2103  0.5188
  199MOL0     C26161   9.496  -0.502  10.359 -0.0454  0.6639 -0.0196
  199MOL0     C26162   9.510  -0.365  10.391 -0.3259 -0.4531 -0.0757
  199MOL0     C26163   9.415  -0.300  10.482 -0.4182 -0.4475  0.2614
  199MOL0     C26164   9.328  -0.378  10.562  0.7221 -0.6795 -0.4091
  199MOL0     C26165   9.230  -0.320  10.653  0.2808  0.4687 -0.1922
  199MOL0     O26166   9.162  -0.410  10.731 -0.1700 -0.4466  0.4229
  199MOL0     C26167   9.058  -0.367  10.811  0.5172  0.1306  0.3532
  199MOL0     C26168   8.976  -0.262  10.781  0.1935 -0.2679  0.5943
  199MOL0     C26169   8.884  -0.220  10.872  0.2729  0.6065  0.5124
  199MOL0     C26170   8.868  -0.295  10.993 -0.1202 -0.6010 -0.0801
  199MOL0     O26171   8.783  -0.252  11.093 -0.4618 -0.5325 -0.7311
  199MOL0     C26172   8.692  -0.145  11.061  0.7577 -0.7192  0.1501
  199MOL0     C26173   8.578  -0.177  11.162  0.3843 -1.1964  0.0894
  199MOL0     C26174   8.628  -0.176  11.313  0.8017  0.2577 -0.3753
  199MOL0     C26175   8.529  -0.239  11.411  0.3118  0.0454  0.5290
  199MOL0     C26176   8.593  -0.247  11.558  0.2753  0.6532 -0.2021
  199MOL0     C26177   8.488  -0.272  11.659  0.0793 -0.0235 -0.1946
  199MOL0     C26178   8.562  -0.262  11.785 -0.5323 -0.7799 -0.7850
  199MOL0     C26179   8.467  -0.272  11.910 -0.9111 -0.9993  0.6264
  199MOL0    Cl26180   8.366  -0.416  11.919 -0.1863  0.1935  0.4608
  199MOL0     C26181   8.940  -0.410  11.011  0.4824 -0.2363 -0.0073
  199MOL0     C26182   9.032  -0.450  10.922 -0.7930  0.4240  0.2923
  199MOL0     O26183   9.224  -0.199  10.662 -0.3026 -0.0833 -0.1860
  199MOL0     C26184   9.319  -0.515  10.532  0.5930 -0.1752  0.1513
  199MOL0     C26185   9.397  -0.578  10.437 -0.2376 -0.4188  0.5491
  199MOL0     N26186   9.804  -0.094   9.787  0.2538 -0.2452  0.0694
  199MOL0     N26187   9.909  -0.031   9.750 -0.0492 -0.5039  0.2494
  199MOL0     C26188  10.052   0.158   8.830  0.0416 -0.5585 -0.2216
  199MOL0     C26189   9.927   0.146   8.764 -0.1120  0.4080 -0.6733
  199MOL0     C26190   9.653   0.061   8.419  0.0655 -0.1218 -0.2622
  199MOL0     C26191   9.555  -0.029   8.468  0.0571 -0.9689  0.0812
  199MOL0     C26192   9.436  -0.046   8.405 -0.4311  0.6138  0.0757
  199MOL0     C26193   9.404   0.037   8.296 -0.4690 -0.0021 -0.7737
  199MOL0     O26194   9.277   0.036   8.246 -0.1785  0.3566 -0.0983
  199MOL0     C26195   9.260   0.056   8.103 -0.0687 -0.9744 -0.4000
  199MOL0     C26196   9.119   0.024   8.062 -0.1667  0.6170 -0.4200
  199MOL0     C26197   9.109   0.036   7.904 -0.3505 -0.4476 -0.1531
  199MOL0     C26198   8.971  -0.004   7.854  0.7144  0.1689 -0.2327
  199MOL0     C26199   8.880   0.096   7.911  0.5718  1.0962  0.2416
  199MOL0     C26200   8.813   0.184   7.958 -0.7025 -0.0972 -0.1114
  199MOL0     C26201   9.501   0.127   8.247  0.1004 -0.8583  0.3665
  199MOL0     C26202   9.623   0.140   8.308 -0.6958  0.8731  0.9353
  199MOL0     H26203   9.974  -0.148   8.614  0.0176  1.3619 -2.0145
  199MOL0     H26204  10.202  -0.119   8.693 -0.6250  1.1706 -3.5613
  199MOL0     H26205  10.449   0.063   8.929 -2.1367  0.5799  0.2858
  199MOL0     H26206  10.386  -0.050   8.811  0.7532  0.3016 -0.8371
  199MOL0     H26207  10.389  -0.180   9.007  0.5757 -0.2814 -1.4265
  199MOL0     H26208  10.214  -0.127   9.006 -0.2512 -1.0654  2.7471
  199MOL0     H26209  10.294   0.062   9.160  3.3893  0.8803 -1.3527
  199MOL0     H26210  10.434  -0.045   9.181  0.2958  1.7314 -0.5518
  199MOL0     H26211  10.149  -0.115   9.257  1.3041  0.8693  4.1433
  199MOL0     H26212  10.286  -0.230   9.249  1.2620 -0.5288  2.3984
  199MOL0     H26213  10.249   0.024   9.423 -5.2897 -1.5669  4.5361
  199MOL0     H26214  10.393  -0.089   9.427 -1.1009 -3.3660  1.1277
  199MOL0     H26215  10.234  -0.265   9.476  1.3116  0.4455  2.3710
  199MOL0     H26216  10.101  -0.140   9.489 -1.0930  1.2214  0.7106
  199MOL0     H26217  10.269  -0.245   9.686  2.6417  0.8085  2.9899
  199MOL0     H26218  10.359  -0.110   9.631  0.3449 -1.6844 -1.3197
  199MOL0     H26219  10.153   0.048   9.704  1.8190  0.8381  1.5099
  199MOL0     H26220  10.205  -0.049   9.832 -1.0559  1.2064 -0.0498
  199MOL0     H26221  10.063  -0.312   9.787  1.4029  1.1266 -1.4257
  199MOL0     H26222   9.805  -0.430   9.813 -3.3331 -1.8378  2.8207
  199MOL0     H26223   9.679  -0.314   9.876 -0.0656  0.8134  1.5269
  199MOL0     H26224   9.851  -0.277  10.068  3.0289  0.1083 -1.0706
  199MOL0     H26225   9.899  -0.432  10.026 -0.3386  0.2904  0.9945
  199MOL0     H26226   9.600  -0.363  10.101 -1.9345 -1.7653 -2.2911
  199MOL0     H26227   9.652  -0.522  10.030 -1.7017 -0.1268  0.3849
  199MOL0     H26228   9.758  -0.416  10.283  1.2315  0.4902 -1.5531
  199MOL0     H26229   9.780  -0.577  10.223 -0.5155 -0.8241 -3.2316
  199MOL0     H26230   9.587  -0.308  10.341 -1.0756  0.5506 -0.1147
  199MOL0     H26231   9.427  -0.196  10.512 -2.7267 -0.2837  0.8423
  199MOL0     H26232   8.972  -0.190  10.700 -2.7347 -3.4483 -2.4208
  199MOL0     H26233   8.833  -0.125  10.861 -1.0699 -0.1608 -0.1008
  199MOL0     H26234   8.661  -0.137  10.957  2.0522  0.4780 -0.1635
  199MOL0     H26235   8.748  -0.053  11.075  0.1604 -0.1699 -0.9476
  199MOL0     H26236   8.530  -0.271  11.132 -1.0887  0.5226 -3.5744
  199MOL0     H26237   8.502  -0.100  11.149  1.7730  0.4995  1.4135
  199MOL0     H26238   8.673  -0.084  11.352  2.6650 -1.3062  1.3582
  199MOL0     H26239   8.713  -0.244  11.309  1.6248  1.2228  0.2239
  199MOL0     H26240   8.442  -0.173  11.411 -0.4467 -0.8651  2.7624
  199MOL0     H26241   8.501  -0.336  11.370  0.1442 -1.2524  3.4233
  199MOL0     H26242   8.627  -0.146  11.584 -1.0727  0.8982  0.7138
  199MOL0     H26243   8.673  -0.321  11.568 -0.7297 -0.4883 -0.3596
  199MOL0     H26244   8.444  -0.370  11.639  1.7975 -0.5027 -1.9509
  199MOL0     H26245   8.403  -0.206  11.646  0.2957 -0.1340 -2.5503
  199MOL0     H26246   8.633  -0.344  11.797  1.9800  1.3046 -0.4186
  199MOL0     H26247   8.615  -0.166  11.789 -2.6904  0.4566  0.6336
  199MOL0     H26248   8.407  -0.181  11.907  2.0394  1.0784 -0.1043
  199MOL0     H26249   8.523  -0.277  12.004  2.8410 -1.6555 -1.4268
  199MOL0     H26250   8.924  -0.463  11.105  0.2872  1.2312  0.8271
  199MOL0     H26251   9.075  -0.547  10.947 -2.6401 -0.1805  1.2670
  199MOL0     H26252   9.251  -0.568  10.597  0.6174  2.5754  2.5994
  199MOL0     H26253   9.403  -0.685  10.422 -0.5523 -0.5555  1.3233
  199MOL0     H26254  10.060   0.234   8.907 -1.9568 -0.8271  0.3179
  199MOL0     H26255   9.851   0.221   8.782  1.7615  2.6291 -1.3590
  199MOL0     H26256   9.563  -0.082   8.562 -1.4750  2.6067  2.4333
  199MOL0     H26257   9.378  -0.127   8.445  2.5423 -1.6433  0.1855
  199MOL0     H26258   9.332  -0.005   8.049  1.8455 -0.4062  1.3436
  199MOL0     H26259   9.296   0.157   8.080 -1.1850 -0.2136  1.0049
  199MOL0     H26260   9.091  -0.076   8.094  0.9554  0.5880  0.5285
  199MOL0     H26261   9.055   0.097   8.111 -0.4114  0.1156  0.0069
  199MOL0     H26262   9.188  -0.028   7.864  0.8173 -0.5185  2.1313
  199MOL0     H26263   9.130   0.141   7.882 -2.4620  0.4676  1.7779
  199MOL0     H26264   8.966  -0.018   7.746 -0.7128 -0.3590 -0.1212
  199MOL0     H26265   8.944  -0.100   7.898 -0.1028  0.6936  0.4279
  199MOL0     H26266   8.756   0.263   8.003  1.4273  2.3011 -1.3474
  199MOL0     H26267   9.477   0.208   8.179 -0.0735 -1.0586  0.1892
  199MOL0     H26268   9.700   0.207   8.269 -0.4046  1.2098  2.0639
  200MOL0     O26269  10.790   5.049   6.284 -0.8340  0.2938  0.4281
  200MOL0     C26270  10.840   4.951   6.343  0.1424 -0.2654  0.1289
  200MOL0     O26271  10.978   4.940   6.375  0.4747  0.2936 -0.8600
  200MOL0     C26272  11.064   5.029   6.319  0.1546  0.6706 -0.7269
  200MOL0     C26273  11.063   5.078   6.195 -0.7856  0.7538  0.1407
  200MOL0     C26274  11.159   5.168   6.163 -0.7007  0.7523  0.0936
  200MOL0     C26275  11.257   5.219   6.249 -0.0893  0.5249  0.7026
  200MOL0     O26276  11.350   5.313   6.217  0.1745 -0.4487  0.4815
  200MOL0     C26277  11.284   5.432   6.160 -0.4404  0.3330 -0.9255
  200MOL0     C26278  11.383   5.545   6.119 -0.2694  0.6315  0.0326
  200MOL0     C26279  11.444   5.531   5.976 -0.2522  1.3575  0.5371
  200MOL0     C26280  11.343   5.533   5.870  0.3460 -0.4221  0.5426
  200MOL0     C26281  11.399   5.582   5.737 -0.3000  0.4863  0.6867
  200MOL0     C26282  11.292   5.584   5.625 -0.0999 -0.3766  1.2679
  200MOL0     C26283  11.184   5.698   5.626 -0.0675 -0.6835  0.1229
  200MOL0     C26284  11.041   5.648   5.583  0.1786 -0.0713  0.1442
  200MOL0     N26285  11.021   5.598   5.446 -0.2901 -0.0531 -0.7412
  200MOL0     C26286  11.050   5.676   5.338  0.6147 -0.2789 -0.1107
  200MOL0     C26287  11.038   5.588   5.240  0.0784  0.4550  0.2370
  200MOL0     C26288  11.055   5.622   5.100 -0.9815 -1.0398 -0.1053
  200MOL0     C26289  11.207   5.594   5.063 -0.2037  0.4716  0.1972
  200MOL0     C26290  11.255   5.659   4.933 -0.1117  1.0154 -0.1271
  200MOL0     C26291  11.270   5.814   4.944 -0.2230  1.1772  0.3031
  200MOL0     O26292  11.323   5.860   4.820  0.5841 -0.0681 -0.2444
  200MOL0     C26293  11.248   5.870   4.707 -0.3771 -0.5856  0.0718
  200MOL0     C26294  11.303   5.922   4.592  0.0231  0.0508  0.1861
  200MOL0     C26295  11.221   5.923   4.470 -1.4176 -0.5048 -0.0394
  200MOL0     C26296  11.093   5.877   4.461  1.1716  0.4388 -0.4199
  200MOL0     C26297  11.012   5.877   4.335 -0.9640  0.0915  0.0581
  200MOL0     O26298  11.079   5.931   4.223  0.4469  0.2617 -0.0291
  200MOL0     C26299  11.029   5.889   4.101  0.0620  0.2837  0.3829
  200MOL0     C26300  11.040   5.969   3.989  0.2388  0.7974 -0.3177
  200MOL0     C26301  10.976   5.942   3.870  0.0346  0.1491  0.5966
  200MOL0     C26302  10.901   5.825   3.857 -0.8176 -0.4855 -0.4436
  200MOL0     O26303  10.835   5.823   3.742  0.0810 -0.5720  0.6214
  200MOL0     C26304  10.760   5.710   3.702  0.8047 -0.0815 -0.8685
  200MOL0     C26305  10.667   5.753   3.591  0.4769  0.8563 -0.7651
  200MOL0     C26306  10.725   5.750   3.454  0.0029  0.5519 -0.6959
  200MOL0     C26307  10.756   5.615   3.381 -0.1307 -0.0251 -0.2514
  200MOL0     C26308  10.783   5.613   3.227 -0.2514  0.1535  0.2902
  200MOL0     C26309  10.905   5.700   3.198 -0.5344  0.2388  0.5581
  200MOL0     C26310  10.946   5.701   3.050 -0.0619  0.3035 -1.0662
  200MOL0     C26311  11.053   5.596   3.013  0.2091  0.2204  0.3551
  200MOL0    Cl26312  10.977   5.431   3.024 -0.7146  0.4679 -0.1766
  200MOL0     C26313  10.896   5.728   3.965 -0.1931 -0.5029  0.7116
  200MOL0     C26314  10.966   5.758   4.081 -0.2173 -0.0231 -0.3966
  200MOL0     O26315  10.897   5.840   4.341  0.2994 -0.3504  0.2403
  200MOL0     C26316  11.045   5.832   4.583  0.4736 -0.2021  0.6405
  200MOL0     C26317  11.111   5.830   4.702 -0.6321  1.4661 -0.3120
  200MOL0     N26318  11.011   5.458   5.299 -0.6529 -1.2684 -0.4289
  200MOL0     N26319  10.995   5.471   5.427 -1.1888 -1.5158 -0.3938
  200MOL0     C26320  11.253   5.174   6.379  0.6741  0.9120 -0.5510
  200MOL0     C26321  11.160   5.071   6.416  0.0033  0.3743  1.0939
  200MOL0     C26322  10.744   4.840   6.394 -1.3769 -0.1974  0.0846
  200MOL0     C26323  10.800   4.742   6.476 -0.1407 -0.2736 -0.3736
  200MOL0     C26324  10.717   4.639   6.535  0.0694 -0.5794 -0.3259
  200MOL0     C26325  10.573   4.639   6.511 -0.0875 -0.1234 -0.4876
  200MOL0     O26326  10.495   4.552   6.587  0.3087  0.1677  0.1448
  200MOL0     C26327  10.542   4.415   6.613  0.8942 -0.0563  0.0288
  200MOL0     C26328  10.411   4.331   6.622 -0.1371  0.0858 -0.1545
  200MOL0     C26329  10.288   4.349   6.530  0.0091 -0.3008 -0.3987
  200MOL0     C26330  10.324   4.352   6.378  1.1943  0.5026 -0.1917
  200MOL0     C26331  10.380   4.235   6.318 -0.7658 -0.6341 -0.6701
  200MOL0     C26332  10.419   4.132   6.275 -0.0547  0.3568  1.1668
  200MOL0     C26333  10.524   4.727   6.422  0.8281  0.0906  0.5146
  200MOL0     C26334  10.606   4.827   6.370 -0.0210 -0.3215 -0.4109
  200MOL0     H26335  11.000   5.030   6.121  1.8848  1.1404 -2.5814
  200MOL0     H26336  11.152   5.201   6.060 -3.1432 -2.1401 -0.7912
  200MOL0     H26337  11.216   5.469   6.237 -1.5827  3.2970 -3.1893
  200MOL0     H26338  11.217   5.409   6.077 -3.7392  1.0202  1.3764
  200MOL0     H26339  11.465   5.527   6.189 -1.4735 -0.5521  1.2032
  200MOL0     H26340  11.337   5.640   6.146 -1.0390  0.1691  0.3733
  200MOL0     H26341  11.502   5.439   5.965 -2.0285  0.0658  1.4397
  200MOL0     H26342  11.505   5.622   5.969  0.7260  0.7178  0.5081
  200MOL0     H26343  11.291   5.438   5.857  1.1170 -0.9642  1.3575
  200MOL0     H26344  11.264   5.604   5.896  1.6416  2.7064 -3.0343
  200MOL0     H26345  11.474   5.509   5.704  0.1850  1.1979  0.1825
  200MOL0     H26346  11.451   5.678   5.742  0.7046 -0.0866  1.7241
  200MOL0     H26347  11.243   5.486   5.618  0.1877 -0.4576  0.3193
  200MOL0     H26348  11.351   5.605   5.535 -1.4261 -1.7762 -0.0064
  200MOL0     H26349  11.173   5.735   5.729  2.7563 -0.1131  0.3049
  200MOL0     H26350  11.218   5.789   5.577  0.4891  0.8723  3.1387
  200MOL0     H26351  10.967   5.726   5.604  0.4938 -0.1726  1.8271
  200MOL0     H26352  11.013   5.576   5.660 -0.3263  2.2911  2.3381
  200MOL0     H26353  11.063   5.784   5.332 -0.2733 -0.2321 -1.4149
  200MOL0     H26354  11.044   5.726   5.067 -0.2621 -1.9650 -3.7453
  200MOL0     H26355  10.982   5.566   5.041 -2.1705  1.2363 -0.9187
  200MOL0     H26356  11.229   5.487   5.055 -1.8033  0.0542  0.8066
  200MOL0     H26357  11.266   5.633   5.146 -1.3468  0.4848  1.0243
  200MOL0     H26358  11.359   5.626   4.921 -0.3836 -0.9986  2.2789
  200MOL0     H26359  11.202   5.614   4.849  1.4426 -0.6681 -0.2617
  200MOL0     H26360  11.343   5.840   5.022  0.4069 -2.0132  0.9050
  200MOL0     H26361  11.174   5.864   4.963 -0.6933  1.2841 -2.0511
  200MOL0     H26362  11.405   5.949   4.566 -0.7260  0.8533 -2.2379
  200MOL0     H26363  11.263   5.956   4.375 -4.9406  0.3428 -1.4745
  200MOL0     H26364  11.086   6.066   3.996 -1.1493  1.4484  0.2091
  200MOL0     H26365  10.974   6.017   3.792 -0.6493  0.8925  1.3173
  200MOL0     H26366  10.690   5.691   3.784 -1.0229 -0.9356 -2.5544
  200MOL0     H26367  10.816   5.619   3.680 -2.9459 -3.1034  0.9054
  200MOL0     H26368  10.625   5.854   3.598  2.0787  1.4452  1.8600
  200MOL0     H26369  10.583   5.683   3.596 -0.5226  2.0716  0.9997
  200MOL0     H26370  10.812   5.817   3.446 -1.3194  2.4382 -0.0222
  200MOL0     H26371  10.659   5.798   3.380 -0.1909 -0.4647 -1.1982
  200MOL0     H26372  10.845   5.571   3.427 -1.3954 -0.0312  2.3671
  200MOL0     H26373  10.675   5.543   3.395  1.2101 -1.3505  1.0957
  200MOL0     H26374  10.702   5.654   3.166  1.3112  3.5831  0.3320
  200MOL0     H26375  10.799   5.510   3.193  0.0388  0.6378 -1.1205
  200MOL0     H26376  10.989   5.652   3.250 -0.9681 -1.0082  0.1374
  200MOL0     H26377  10.905   5.806   3.227  1.3827  0.2854  0.5405
  200MOL0     H26378  10.856   5.701   2.988 -0.7580  1.1222 -0.0875
  200MOL0     H26379  10.995   5.797   3.030  3.3158 -0.5735  1.9327
  200MOL0     H26380  11.128   5.593   3.092  1.3232 -1.1382 -0.7115
  200MOL0     H26381  11.086   5.611   2.910 -0.1786 -0.5046  0.1180
  200MOL0     H26382  10.855   5.629   3.951 -2.1906  0.3605  0.0679
  200MOL0     H26383  10.969   5.676   4.151  0.9319 -1.2264 -1.7874
  200MOL0     H26384  10.945   5.788   4.585 -0.3940  1.5937 -0.6520
  200MOL0     H26385  11.056   5.802   4.792 -1.8147 -0.4662 -1.5672
  200MOL0     H26386  11.313   5.193   6.468  0.5525 -0.3791 -0.1762
  200MOL0     H26387  11.174   5.022   6.512  1.0907 -0.9343  0.2961
  200MOL0     H26388  10.908   4.735   6.486 -0.0891 -0.2087 -0.8402
  200MOL0     H26389  10.764   4.567   6.600  1.4317  0.3557 -0.2350
  200MOL0     H26390  10.602   4.407   6.705 -0.8386 -0.4731  1.1711
  200MOL0     H26391  10.608   4.381   6.532  0.9358 -2.4384  0.9679
  200MOL0     H26392  10.431   4.224   6.610 -1.2033  0.0369 -1.8567
  200MOL0     H26393  10.387   4.329   6.729  2.1964  0.1438  0.4367
  200MOL0     H26394  10.243   4.445   6.557  1.8278  0.3536  0.4596
  200MOL0     H26395  10.213   4.275   6.558 -0.6382  0.5696  0.1985
  200MOL0     H26396  10.230   4.373   6.325  1.4823  3.6550  0.3676
  200MOL0     H26397  10.398   4.430   6.356 -1.6340  3.3063 -0.5326
  200MOL0     H26398  10.453   4.040   6.231 -1.6549  0.3133 -0.1124
  200MOL0     H26399  10.416   4.737   6.414  0.7217 -1.1579  0.1872
  200MOL0     H26400  10.573   4.896   6.293  0.4689  0.4898  0.0969
  201MOL0     O26401  10.175   7.486   4.321 -0.3778 -0.0599  0.1991
  201MOL0     C26402  10.121   7.593   4.340  0.9213  0.6094  0.8077
  201MOL0     O26403  10.181   7.717   4.349  0.0222  0.7715  0.3368
  201MOL0     C26404  10.315   7.734   4.351 -0.1806 -1.5318 -0.1597
  201MOL0     C26405  10.366   7.855   4.297  0.5185 -0.0275 -0.7344
  201MOL0     C26406  10.503   7.877   4.294 -1.6386 -0.1178 -0.1700
  201MOL0     C26407  10.597   7.783   4.351  0.5036 -1.0185  0.8566
  201MOL0     O26408  10.727   7.819   4.362 -0.4510  0.0616 -0.1058
  201MOL0     C26409  10.834   7.717   4.364  0.3306 -0.3175  0.1254
  201MOL0     C26410  10.960   7.800   4.381  0.3720 -0.4403  0.3992
  201MOL0     C26411  10.984   7.898   4.270  0.0757  0.2375  0.5205
  201MOL0     C26412  11.119   7.967   4.262 -0.3694 -0.0477  0.4317
  201MOL0     C26413  11.242   7.881   4.281 -0.7454 -0.5738 -0.0667
  201MOL0     C26414  11.374   7.971   4.286  0.4223  0.0613 -0.0731
  201MOL0     C26415  11.490   7.880   4.307 -0.3921  0.2292  0.3215
  201MOL0     C26416  11.614   7.967   4.323 -0.4828 -0.1148 -0.0714
  201MOL0     N26417  11.738   7.890   4.359  0.4032  0.0822 -0.2725
  201MOL0     C26418  11.857   7.947   4.328  0.8103  0.7622  0.3377
  201MOL0     C26419  11.946   7.855   4.383  0.0964  1.0241 -0.6365
  201MOL0     C26420  12.091   7.849   4.372 -0.3953  1.1363  0.7611
  201MOL0     C26421  12.164   7.847   4.512 -0.2996  0.9241  0.7284
  201MOL0     C26422  12.140   7.722   4.605  0.4647 -0.6362 -0.7307
  201MOL0     C26423  12.269   7.658   4.661 -0.3467  0.6646 -0.1345
  201MOL0     O26424  12.356   7.752   4.728  0.4207 -0.3358  0.5442
  201MOL0     C26425  12.454   7.704   4.811  0.6627 -0.3003  0.5164
  201MOL0     C26426  12.504   7.569   4.820  0.0494  0.3963 -0.2401
  201MOL0     C26427  12.606   7.536   4.901 -0.1998  0.1176 -0.1017
  201MOL0     C26428  12.664   7.633   4.985  0.5281 -0.4912 -1.2985
  201MOL0     C26429  12.772   7.603   5.075  1.2966 -0.2957  1.0074
  201MOL0     O26430  12.769   7.670   5.193 -1.1373 -0.2363  0.3500
  201MOL0     C26431  12.827   7.603   5.295  0.4492  0.6709  0.0783
  201MOL0     C26432  12.946   7.633   5.347  0.5239 -0.2158  0.1769
  201MOL0     C26433  13.015   7.548   5.435 -0.0574 -0.0324 -0.5265
  201MOL0     C26434  12.951   7.440   5.489 -0.5545  0.6311  1.1955
  201MOL0     O26435  13.009   7.344   5.564 -0.3997 -0.2437 -0.4719
  201MOL0     C26436  13.072   7.254   5.484 -1.1528  0.2520  0.0084
  201MOL0     C26437  13.155   7.152   5.559  0.4663 -0.1825  0.1611
  201MOL0     C26438  13.070   7.077   5.671 -0.7073 -0.3430  0.2566
  201MOL0     C26439  13.171   6.977   5.738  0.3054 -0.5415 -0.4126
  201MOL0     C26440  13.116   6.918   5.866  0.2037  0.0521  0.0819
  201MOL0     C26441  13.019   6.797   5.834 -0.6139 -0.0028  0.3851
  201MOL0     C26442  13.011   6.696   5.958 -0.1287  1.2367 -0.0229
  201MOL0     C26443  12.949   6.753   6.078  0.2450  0.0707  0.0254
  201MOL0    Cl26444  12.782   6.740   6.036  0.6450  0.3086  0.4900
  201MOL0     C26445  12.820   7.413   5.438 -0.6531 -0.4861 -0.0383
  201MOL0     C26446  12.755   7.496   5.345 -0.2863  0.4489  0.1247
  201MOL0     O26447  12.859   7.526   5.036  0.1355 -0.9175  0.1746
  201MOL0     C26448  12.612   7.764   4.972 -0.1076  0.9394 -0.5995
  201MOL0     C26449  12.507   7.794   4.894  0.3965 -0.1297  0.4946
  201MOL0     N26450  11.879   7.772   4.475 -0.5298 -1.0165 -1.0649
  201MOL0     N26451  11.750   7.781   4.441  0.4247  0.6715 -0.3751
  201MOL0     C26452  10.540   7.662   4.408  0.2565 -0.1235 -0.5771
  201MOL0     C26453  10.403   7.640   4.406 -0.1173 -1.3353  0.2463
  201MOL0     C26454   9.973   7.605   4.378  0.3518  0.5244  0.5565
  201MOL0     C26455   9.905   7.724   4.393 -0.4342 -0.1913  0.0707
  201MOL0     C26456   9.766   7.731   4.426  0.3501 -0.4602  0.6869
  201MOL0     C26457   9.688   7.614   4.442  0.4790 -0.1398 -0.9190
  201MOL0     O26458   9.552   7.624   4.469  0.3505  0.1651  0.6668
  201MOL0     C26459   9.452   7.514   4.458  0.6105 -0.2607  0.2770
  201MOL0     C26460   9.403   7.485   4.319  0.6492  0.0412 -0.2812
  201MOL0     C26461   9.330   7.608   4.254 -0.3116  0.7231 -0.1207
  201MOL0     C26462   9.198   7.637   4.330 -0.7075 -0.1663  0.2769
  201MOL0     C26463   9.091   7.690   4.239 -0.0472  0.7257 -0.6081
  201MOL0     C26464   8.994   7.716   4.172 -0.4812 -1.1879 -0.2283
  201MOL0     C26465   9.759   7.494   4.445  0.2988 -0.5592 -0.7201
  201MOL0     C26466   9.897   7.486   4.410 -0.1546  0.5969 -0.3668
  201MOL0     H26467  10.303   7.937   4.265  0.1525  0.0510  0.1531
  201MOL0     H26468  10.558   7.963   4.258  0.2176 -1.1543  0.0899
  201MOL0     H26469  10.835   7.675   4.263  0.0151 -1.0761  0.4349
  201MOL0     H26470  10.819   7.644   4.444  0.9772 -0.3409  0.2314
  201MOL0     H26471  11.035   7.721   4.382  0.1067 -0.7958  4.0769
  201MOL0     H26472  10.955   7.847   4.479 -0.8301  0.5949 -0.1216
  201MOL0     H26473  10.917   7.985   4.274  1.0579  1.0003  0.7178
  201MOL0     H26474  10.964   7.848   4.175  2.3386  0.4704 -0.1140
  201MOL0     H26475  11.118   8.004   4.160 -2.1803  2.4853  1.2688
  201MOL0     H26476  11.121   8.043   4.341 -1.5055 -1.6963  2.1356
  201MOL0     H26477  11.242   7.799   4.208 -3.5210  0.1166 -0.9701
  201MOL0     H26478  11.226   7.829   4.375  0.5195  0.2297  0.6206
  201MOL0     H26479  11.369   8.047   4.365  0.8429  0.1177 -0.1017
  201MOL0     H26480  11.390   8.023   4.192  0.6894 -0.6384 -0.4240
  201MOL0     H26481  11.477   7.814   4.393 -0.3828 -2.1393 -1.4129
  201MOL0     H26482  11.496   7.805   4.228 -1.8404 -0.0089  0.4140
  201MOL0     H26483  11.575   8.019   4.412  0.1013 -0.3682  0.3416
  201MOL0     H26484  11.624   8.027   4.233 -1.5421 -0.0560 -0.1661
  201MOL0     H26485  11.876   8.031   4.262  0.0132  0.9879  0.3929
  201MOL0     H26486  12.146   7.923   4.314 -1.9167  0.6936 -1.3409
  201MOL0     H26487  12.103   7.757   4.314  0.9638  1.3779  0.6277
  201MOL0     H26488  12.143   7.938   4.567  0.3374  1.9304 -0.6290
  201MOL0     H26489  12.273   7.858   4.502 -0.2416  1.9316  2.2753
  201MOL0     H26490  12.079   7.752   4.691 -0.3934 -0.9268 -1.2327
  201MOL0     H26491  12.078   7.648   4.554 -0.3505 -1.2437  1.0255
  201MOL0     H26492  12.316   7.607   4.577  1.6369 -1.8402  2.2937
  201MOL0     H26493  12.243   7.572   4.723  0.1202 -0.8005 -1.9008
  201MOL0     H26494  12.477   7.486   4.756 -0.1467  1.1498 -1.1687
  201MOL0     H26495  12.645   7.435   4.892 -0.2551  0.2345 -1.9658
  201MOL0     H26496  13.013   7.714   5.319 -1.4707  1.1897 -0.7166
  201MOL0     H26497  13.118   7.567   5.462  0.5410  0.1132 -2.7095
  201MOL0     H26498  13.142   7.304   5.416 -2.3368 -0.3713 -1.7694
  201MOL0     H26499  13.007   7.194   5.419  1.4011 -3.6922  0.7677
  201MOL0     H26500  13.246   7.188   5.609 -0.5759 -1.9220  3.6689
  201MOL0     H26501  13.178   7.075   5.485  4.3034  0.2380  0.7171
  201MOL0     H26502  12.993   7.025   5.614 -1.4175  1.0671 -0.1082
  201MOL0     H26503  13.027   7.152   5.738  0.4452  1.7043 -1.1692
  201MOL0     H26504  13.199   6.896   5.670  1.8389 -0.8106  0.5071
  201MOL0     H26505  13.259   7.028   5.777 -0.4572 -0.1795  0.9072
  201MOL0     H26506  13.061   6.989   5.928  0.1502 -0.0216  0.1181
  201MOL0     H26507  13.203   6.878   5.917 -0.1887 -1.9882 -0.7651
  201MOL0     H26508  13.065   6.735   5.757 -0.7279 -1.2682  1.3114
  201MOL0     H26509  12.917   6.816   5.798 -0.2770 -0.8224 -1.0591
  201MOL0     H26510  12.956   6.606   5.926  1.2298  0.0364  0.8786
  201MOL0     H26511  13.117   6.677   5.979 -0.5356  0.5508  1.5009
  201MOL0     H26512  12.985   6.850   6.113 -0.0324  0.3366 -0.4062
  201MOL0     H26513  12.958   6.686   6.164  0.9558  0.8062  0.5371
  201MOL0     H26514  12.766   7.324   5.467  0.5028 -1.8726 -1.8966
  201MOL0     H26515  12.657   7.469   5.307 -0.2143  1.4126 -0.7984
  201MOL0     H26516  12.655   7.839   5.038  0.2002  1.0843 -0.9664
  201MOL0     H26517  12.472   7.897   4.891 -2.2413 -0.9582  0.5748
  201MOL0     H26518  10.609   7.598   4.462  0.3176  0.2245 -0.2418
  201MOL0     H26519  10.370   7.546   4.449 -2.0173 -0.0951  1.6422
  201MOL0     H26520   9.961   7.814   4.373 -0.2725 -0.2028  0.4616
  201MOL0     H26521   9.705   7.819   4.438  0.6412 -0.0638 -0.5610
  201MOL0     H26522   9.372   7.534   4.530  0.9832 -0.3239  0.7125
  201MOL0     H26523   9.487   7.421   4.505  0.1631  0.4054  2.0080
  201MOL0     H26524   9.500   7.468   4.271  1.6374  3.7432  0.0611
  201MOL0     H26525   9.341   7.396   4.313 -1.6950  1.5683 -0.1397
  201MOL0     H26526   9.308   7.587   4.149 -2.2294  0.6836  0.2432
  201MOL0     H26527   9.398   7.693   4.251 -1.0463  1.3237 -0.1061
  201MOL0     H26528   9.157   7.542   4.366 -0.6994 -1.7276 -3.3647
  201MOL0     H26529   9.212   7.693   4.423  3.1558  0.3261 -0.4142
  201MOL0     H26530   8.916   7.765   4.118 -0.2791  0.3776  0.8215
  201MOL0     H26531   9.708   7.406   4.482  0.1901  0.0515  0.6444
  201MOL0     H26532   9.948   7.390   4.410  1.0929  1.2437 -0.8153
  202MOL0     O26533   8.371  10.278   3.794 -0.1357  0.2114  0.0313
  202MOL0     C26534   8.291  10.312   3.700  0.3810 -0.3000  0.3263
  202MOL0     O26535   8.330  10.354   3.575  0.2553  0.0739 -0.0217
  202MOL0     C26536   8.457  10.329   3.539  0.2535 -0.3826  0.0423
  202MOL0     C26537   8.531  10.210   3.553  0.8576 -0.4688  0.3190
  202MOL0     C26538   8.665  10.206   3.507  1.1212 -1.2650 -0.1962
  202MOL0     C26539   8.723  10.315   3.439  0.0035 -0.2336  0.2398
  202MOL0     O26540   8.854  10.311   3.381  0.5990 -0.4019 -0.4535
  202MOL0     C26541   8.940  10.202   3.430 -0.0152 -0.1707  1.0055
  202MOL0     C26542   9.077  10.212   3.348  0.7776  0.2378  0.7883
  202MOL0     C26543   9.152  10.338   3.380  0.1449  1.0097 -0.1906
  202MOL0     C26544   9.289  10.356   3.314 -0.3412 -0.6855  0.3378
  202MOL0     C26545   9.389  10.269   3.384 -0.5173  1.1698  0.2730
  202MOL0     C26546   9.535  10.287   3.328 -0.1138 -0.8044  0.1565
  202MOL0     C26547   9.636  10.180   3.372  0.0639 -0.5212 -0.2950
  202MOL0     C26548   9.706  10.206   3.503  0.0469 -0.7281  0.3822
  202MOL0     N26549   9.813  10.301   3.467 -0.0682  0.5858 -0.2601
  202MOL0     C26550   9.945  10.275   3.445 -1.3330  0.0409  0.1888
  202MOL0     C26551  10.002  10.384   3.395  0.3821  0.0582  0.4096
  202MOL0     C26552  10.146  10.391   3.380 -0.0923 -0.4210 -0.1681
  202MOL0     C26553  10.198  10.325   3.255 -0.7583 -0.5903 -0.1824
  202MOL0     C26554  10.215  10.409   3.127  0.8233  0.5295 -0.2956
  202MOL0     C26555  10.335  10.357   3.049 -0.3807 -0.5150 -0.0645
  202MOL0     O26556  10.347  10.441   2.936  0.3188 -0.2763  0.0273
  202MOL0     C26557  10.466  10.484   2.907 -0.3306 -0.5268  0.0650
  202MOL0     C26558  10.516  10.588   2.980 -0.7310 -0.3510  0.0108
  202MOL0     C26559  10.642  10.641   2.942 -0.4575  0.0780 -0.3567
  202MOL0     C26560  10.725  10.590   2.838  0.3005 -0.3547 -0.4663
  202MOL0     C26561  10.857  10.641   2.796 -0.7904  0.7663  0.1398
  202MOL0     O26562  10.914  10.581   2.681 -0.4081  0.2376  0.4223
  202MOL0     C26563  11.036  10.613   2.630  0.2960  0.8352  0.2485
  202MOL0     C26564  11.084  10.519   2.541 -0.5152 -1.0314  0.1266
  202MOL0     C26565  11.196  10.552   2.465  0.5898  0.7310 -0.2533
  202MOL0     C26566  11.276  10.668   2.477 -0.4252  0.3718 -0.5429
  202MOL0     O26567  11.389  10.694   2.408 -0.0586 -1.4578 -0.4022
  202MOL0     C26568  11.452  10.828   2.419  0.2603  0.9647 -0.9076
  202MOL0     C26569  11.548  10.853   2.312 -0.4744 -0.2014  0.1219
  202MOL0     C26570  11.683  10.784   2.319 -0.2039  0.3610  0.2802
  202MOL0     C26571  11.750  10.770   2.175 -0.0795 -0.5870  0.3188
  202MOL0     C26572  11.900  10.748   2.183 -0.3518  0.9659  0.3764
  202MOL0     C26573  11.979  10.861   2.243 -0.0262  1.7157  0.1447
  202MOL0     C26574  12.127  10.809   2.282 -0.0896  0.0652  0.2170
  202MOL0     C26575  12.218  10.929   2.283  0.5443  0.1956  0.5978
  202MOL0    Cl26576  12.366  10.901   2.382  0.2065  0.0698 -0.2443
  202MOL0     C26577  11.231  10.756   2.579 -0.3315 -0.0117 -0.2073
  202MOL0     C26578  11.110  10.731   2.651 -0.8250  1.0882 -0.3729
  202MOL0     O26579  10.915  10.718   2.874 -0.5165 -0.2661  0.4387
  202MOL0     C26580  10.664  10.477   2.766  0.3913  0.1714 -0.2562
  202MOL0     C26581  10.541  10.432   2.796  1.3104  0.6093 -0.7195
  202MOL0     N26582   9.911  10.488   3.412 -0.7577  0.2092  0.0737
  202MOL0     N26583   9.803  10.433   3.445 -0.1396  0.0590 -0.1721
  202MOL0     C26584   8.647  10.436   3.441 -0.0052 -0.1658 -0.1599
  202MOL0     C26585   8.521  10.448   3.497 -0.5818  0.8113 -1.1889
  202MOL0     C26586   8.153  10.330   3.742 -0.2441 -0.0882  0.2519
  202MOL0     C26587   8.060  10.382   3.654  1.6094 -0.4378  0.7316
  202MOL0     C26588   7.923  10.399   3.700  0.1099 -0.2519 -0.6466
  202MOL0     C26589   7.870  10.341   3.816 -1.2082 -0.6747 -0.1237
  202MOL0     O26590   7.738  10.348   3.855 -0.9329 -0.0449  0.5829
  202MOL0     C26591   7.689  10.263   3.959  1.0887 -0.7786 -1.0716
  202MOL0     C26592   7.531  10.234   3.958 -0.4679 -0.3270  0.0797
  202MOL0     C26593   7.460  10.378   3.949 -0.6846  0.0822  0.7571
  202MOL0     C26594   7.307  10.367   3.968  0.1133  0.0402  0.5092
  202MOL0     C26595   7.239  10.288   3.859  0.0714 -0.8601  1.1063
  202MOL0     C26596   7.178  10.229   3.772  0.9886  0.1788 -0.3273
  202MOL0     C26597   7.975  10.293   3.900 -0.5702 -0.1373  0.0100
  202MOL0     C26598   8.107  10.281   3.867 -0.7987 -0.3391  0.1765
  202MOL0     H26599   8.461  10.139   3.594 -0.1715  0.5219  0.3417
  202MOL0     H26600   8.713  10.111   3.528 -0.5883 -2.1522 -0.0586
  202MOL0     H26601   8.891  10.108   3.404  1.2104  0.0734 -2.7227
  202MOL0     H26602   8.940  10.224   3.538  1.6448  1.2009  0.7744
  202MOL0     H26603   9.050  10.199   3.243 -0.0987 -2.0602  1.2349
  202MOL0     H26604   9.131  10.123   3.381 -0.0592 -0.1856  1.0380
  202MOL0     H26605   9.151  10.341   3.490  1.7510 -3.2698  0.1086
  202MOL0     H26606   9.090  10.424   3.349  0.3104  0.4997 -2.0209
  202MOL0     H26607   9.282  10.335   3.207 -0.2990 -1.3982  0.4673
  202MOL0     H26608   9.317  10.461   3.323  2.9728 -1.4868  0.7488
  202MOL0     H26609   9.365  10.168   3.351  0.2209  1.7081 -2.1728
  202MOL0     H26610   9.382  10.278   3.492 -0.3083 -2.1308  0.6497
  202MOL0     H26611   9.559  10.393   3.342  0.7648 -0.6978 -1.8891
  202MOL0     H26612   9.517  10.284   3.220 -2.0456  0.9242  0.3554
  202MOL0     H26613   9.587  10.083   3.383  0.6196 -0.8690 -0.8456
  202MOL0     H26614   9.713  10.157   3.298  0.1407 -0.7630 -0.1382
  202MOL0     H26615   9.730  10.105   3.537 -3.4992 -1.1153  2.1622
  202MOL0     H26616   9.645  10.243   3.586  0.6104 -3.3031  2.0358
  202MOL0     H26617   9.994  10.179   3.459 -2.2105 -0.2465  1.5373
  202MOL0     H26618  10.187  10.336   3.466 -0.4019 -2.9673 -1.5494
  202MOL0     H26619  10.183  10.493   3.384  0.2380 -0.4841 -1.3352
  202MOL0     H26620  10.141  10.236   3.228 -1.0732 -1.1987  2.2036
  202MOL0     H26621  10.296  10.285   3.283 -1.1038 -0.6671  1.0082
  202MOL0     H26622  10.127  10.392   3.065 -1.8806  2.0746  2.8547
  202MOL0     H26623  10.227  10.516   3.148 -1.9814  0.5278  1.7723
  202MOL0     H26624  10.326  10.253   3.018  2.9023 -1.1806  0.8680
  202MOL0     H26625  10.430  10.365   3.101 -0.9464  2.8528  0.6719
  202MOL0     H26626  10.451  10.636   3.053 -2.9955 -1.0660 -1.4244
  202MOL0     H26627  10.680  10.719   3.008 -2.0813  0.0748  0.6198
  202MOL0     H26628  11.019  10.436   2.516 -0.6584 -0.8353 -0.1641
  202MOL0     H26629  11.235  10.486   2.388  0.8282  0.6001 -0.0226
  202MOL0     H26630  11.515  10.838   2.508  2.2038 -3.1455 -1.6276
  202MOL0     H26631  11.374  10.905   2.408  0.7163  1.2520 -2.2211
  202MOL0     H26632  11.569  10.960   2.312  1.3853 -0.4810  2.3715
  202MOL0     H26633  11.509  10.815   2.217  1.2274 -0.7676 -0.3844
  202MOL0     H26634  11.674  10.683   2.359 -1.1893  0.9075  1.5009
  202MOL0     H26635  11.753  10.837   2.385  0.0495  2.0234 -1.2327
  202MOL0     H26636  11.708  10.687   2.118  3.7403 -2.0372 -0.7081
  202MOL0     H26637  11.736  10.854   2.107  3.1246 -1.3550 -1.4803
  202MOL0     H26638  11.947  10.727   2.087  1.4038 -1.2994  1.6418
  202MOL0     H26639  11.917  10.659   2.244  0.5437  0.7497 -0.1847
  202MOL0     H26640  11.930  10.898   2.334 -1.9907  0.1426 -0.1841
  202MOL0     H26641  11.991  10.936   2.163  5.8332 -0.3240 -1.3311
  202MOL0     H26642  12.125  10.765   2.382  1.9163 -0.4761  0.0633
  202MOL0     H26643  12.172  10.742   2.209  3.2544  1.4193  0.8594
  202MOL0     H26644  12.164  11.005   2.340 -2.3008 -0.6719 -0.7619
  202MOL0     H26645  12.251  10.966   2.186  0.2821  2.2771  1.2565
  202MOL0     H26646  11.268  10.857   2.592 -0.3898  0.2341 -1.7514
  202MOL0     H26647  11.071  10.803   2.722 -1.6633 -0.8581  1.2343
  202MOL0     H26648  10.712  10.435   2.679 -3.6905 -1.9356 -1.7759
  202MOL0     H26649  10.501  10.346   2.744 -0.8317  1.7571 -1.0961
  202MOL0     H26650   8.694  10.524   3.400  2.3879  0.6889  3.7702
  202MOL0     H26651   8.460  10.537   3.486 -0.2949  0.7735 -3.4274
  202MOL0     H26652   8.087  10.413   3.553 -1.6504 -0.2240 -0.1932
  202MOL0     H26653   7.848  10.447   3.637 -0.2246  1.6111  1.0543
  202MOL0     H26654   7.720  10.294   4.059 -2.4715 -1.8993  0.5299
  202MOL0     H26655   7.733  10.165   3.939 -0.5496 -1.8565  0.3917
  202MOL0     H26656   7.518  10.181   3.863 -1.7996  0.3379 -0.1232
  202MOL0     H26657   7.486  10.171   4.036  0.2650 -1.2674 -0.2265
  202MOL0     H26658   7.483  10.427   3.854  1.3520 -2.1627 -0.0230
  202MOL0     H26659   7.504  10.437   4.029  3.2115 -0.0191 -1.0660
  202MOL0     H26660   7.280  10.316   4.061  0.4725 -1.0503  0.0336
  202MOL0     H26661   7.277  10.471   3.954 -3.1823 -0.8634 -0.0810
  202MOL0     H26662   7.119  10.169   3.706 -1.9236  2.3349  0.1204
  202MOL0     H26663   7.943  10.255   3.997  1.7583 -1.7671  0.2106
  202MOL0     H26664   8.183  10.246   3.937 -0.4446  3.0637  1.7085
  203MOL0     O26665   6.859  10.832   7.961 -0.0496  0.3646 -0.2096
  203MOL0     C26666   6.980  10.842   7.985 -0.2959 -0.0943 -0.0022
  203MOL0     O26667   7.064  10.757   8.057  0.0681 -0.0610 -0.3763
  203MOL0     C26668   7.032  10.642   8.124 -0.1079  0.1096 -0.2697
  203MOL0     C26669   7.136  10.546   8.149 -0.8930  0.6744  0.0672
  203MOL0     C26670   7.107  10.422   8.211  0.2714 -1.2306  0.2343
  203MOL0     C26671   6.979  10.379   8.226  0.7002  0.3764 -0.7934
  203MOL0     O26672   6.956  10.254   8.281  0.4967 -0.0539  0.4646
  203MOL0     C26673   6.817  10.206   8.279 -0.0940  0.5919 -0.4541
  203MOL0     C26674   6.765  10.153   8.142  0.5990 -0.3247  1.3815
  203MOL0     C26675   6.814  10.014   8.107 -0.0874  0.3929 -0.6604
  203MOL0     C26676   6.752   9.958   7.974  0.4469  0.0972  0.0477
  203MOL0     C26677   6.600   9.931   7.987 -0.6319  0.3353 -0.4017
  203MOL0     C26678   6.531   9.893   7.859 -0.7947 -0.3425 -0.9066
  203MOL0     C26679   6.387   9.845   7.887  1.0261  0.5945 -0.4371
  203MOL0     C26680   6.304   9.822   7.762  0.4101 -0.1731  0.4124
  203MOL0     N26681   6.215   9.928   7.729  0.7266  0.0107 -0.3615
  203MOL0     C26682   6.111   9.974   7.804  0.6769  0.2027  0.1139
  203MOL0     C26683   6.061  10.068   7.725 -0.5618 -0.2698  0.2376
  203MOL0     C26684   5.950  10.161   7.763  0.6127  0.1888  0.7095
  203MOL0     C26685   5.949  10.208   7.904 -0.1811 -0.6230 -1.1248
  203MOL0     C26686   5.817  10.266   7.966 -0.0823 -0.1704  0.1964
  203MOL0     C26687   5.808  10.290   8.115  0.5719 -0.2676  0.9981
  203MOL0     O26688   5.890  10.400   8.146  0.2039  0.2191  0.3401
  203MOL0     C26689   5.951  10.403   8.270  1.0235  0.5763 -0.7949
  203MOL0     C26690   5.966  10.295   8.353 -0.5434 -0.2959 -0.4707
  203MOL0     C26691   6.028  10.309   8.482  1.1172  0.3581 -0.0629
  203MOL0     C26692   6.060  10.431   8.528 -0.7230 -0.5047  0.7628
  203MOL0     C26693   6.118  10.436   8.666  0.0070 -0.9701  0.0600
  203MOL0     O26694   6.106  10.325   8.743 -0.7587  0.7143 -0.2062
  203MOL0     C26695   6.145  10.345   8.876  0.0168  0.8692 -0.6020
  203MOL0     C26696   6.270  10.376   8.918  0.6069 -0.1482  0.0779
  203MOL0     C26697   6.296  10.379   9.054  0.0061  0.1016  0.5586
  203MOL0     C26698   6.201  10.353   9.151 -0.2908 -0.8935  0.2383
  203MOL0     O26699   6.245  10.345   9.281  0.1576 -0.7345 -0.4153
  203MOL0     C26700   6.157  10.325   9.382  0.2647 -0.0702 -0.3959
  203MOL0     C26701   6.142  10.176   9.423  0.0197 -0.8461  0.3218
  203MOL0     C26702   6.082  10.171   9.563  0.9168  0.2367  0.6787
  203MOL0     C26703   5.928  10.176   9.551 -0.1022 -0.6116 -1.2645
  203MOL0     C26704   5.848  10.304   9.592  1.2571  0.0197  0.1209
  203MOL0     C26705   5.703  10.279   9.622  0.3260  0.7612 -1.0374
  203MOL0     C26706   5.624  10.394   9.683 -1.0593 -0.2583 -0.2700
  203MOL0     C26707   5.478  10.366   9.664 -0.0356  0.0904  0.0793
  203MOL0    Cl26708   5.440  10.232   9.763  0.3496  0.4582 -0.2225
  203MOL0     C26709   6.075  10.315   9.113  0.6583 -0.2827  0.2322
  203MOL0     C26710   6.044  10.310   8.971  0.7248 -1.1696 -0.9436
  203MOL0     O26711   6.163  10.546   8.702 -0.2692 -0.3679 -0.3061
  203MOL0     C26712   6.048  10.546   8.450  0.1230  0.4588  0.2071
  203MOL0     C26713   5.991  10.532   8.319  0.3882 -0.4761  0.2377
  203MOL0     N26714   6.127  10.068   7.598 -0.2555  0.0890 -0.4216
  203MOL0     N26715   6.216   9.982   7.608  0.1817  1.2800 -0.5988
  203MOL0     C26716   6.866  10.471   8.196  0.1183 -0.1954 -0.4742
  203MOL0     C26717   6.901  10.608   8.156 -0.1244  1.1610  0.1222
  203MOL0     C26718   7.035  10.968   7.947 -0.8355  0.0989  0.4839
  203MOL0     C26719   7.177  10.988   7.962 -0.4280 -0.0825 -0.1378
  203MOL0     C26720   7.240  11.106   7.922  1.1206  0.0188  0.3646
  203MOL0     C26721   7.162  11.207   7.869 -0.3268 -0.0530 -0.9893
  203MOL0     O26722   7.234  11.310   7.809  0.3692 -0.7463  1.5695
  203MOL0     C26723   7.171  11.438   7.780 -0.0631  1.0558 -0.1128
  203MOL0     C26724   7.258  11.526   7.689  0.2468 -0.1682  0.4973
  203MOL0     C26725   7.192  11.657   7.650 -0.8644  0.1195 -0.7410
  203MOL0     C26726   7.141  11.738   7.770  0.3542 -0.2896 -0.4514
  203MOL0     C26727   6.995  11.695   7.787 -0.5013  1.1169 -0.6235
  203MOL0     C26728   6.884  11.645   7.787  0.3465 -0.7253  0.1366
  203MOL0     C26729   7.024  11.191   7.868  0.2703 -0.1301 -0.0233
  203MOL0     C26730   6.957  11.076   7.898  0.4372 -0.1108  0.0095
  203MOL0     H26731   7.242  10.556   8.127 -0.3239  0.3018  2.3611
  203MOL0     H26732   7.192  10.366   8.249  1.1637  0.5762  0.9675
  203MOL0     H26733   6.755  10.284   8.324  3.7721  1.6271  3.8203
  203MOL0     H26734   6.827  10.122   8.349  3.0081 -0.8608 -2.3992
  203MOL0     H26735   6.791  10.223   8.062 -0.6059  0.3545  1.5722
  203MOL0     H26736   6.657  10.164   8.137  0.8423  2.0040 -0.2718
  203MOL0     H26737   6.784   9.937   8.179  0.3918  1.6485  0.9438
  203MOL0     H26738   6.923  10.021   8.111 -0.1800  2.4375 -0.4547
  203MOL0     H26739   6.780  10.017   7.887 -2.2526 -2.2855 -2.6672
  203MOL0     H26740   6.801   9.863   7.948 -0.1980  0.3075 -2.0735
  203MOL0     H26741   6.556  10.025   8.023  1.4721  0.3862  2.3404
  203MOL0     H26742   6.588   9.858   8.067 -1.9525  1.0489  0.0892
  203MOL0     H26743   6.588   9.812   7.811 -0.8071 -1.0715  0.2605
  203MOL0     H26744   6.525   9.976   7.789  2.7483  0.7316 -0.1335
  203MOL0     H26745   6.390   9.748   7.938  1.0100 -0.7078 -2.7692
  203MOL0     H26746   6.338   9.924   7.944 -2.6593 -0.5352 -1.7285
  203MOL0     H26747   6.249   9.731   7.786 -1.6188  0.7917 -0.2937
  203MOL0     H26748   6.370   9.813   7.675 -0.3969  1.5390 -0.4360
  203MOL0     H26749   6.084   9.950   7.907 -0.0445  1.4995  0.2456
  203MOL0     H26750   5.852  10.113   7.752 -0.1727  1.7544  0.5082
  203MOL0     H26751   5.958  10.253   7.704  0.8480  1.6303  2.8713
  203MOL0     H26752   6.033  10.278   7.911  0.7529 -1.6532 -1.5949
  203MOL0     H26753   5.971  10.118   7.963  1.5224 -0.7505 -1.8985
  203MOL0     H26754   5.807  10.365   7.921  2.8532 -0.9573 -2.5333
  203MOL0     H26755   5.734  10.197   7.947 -1.3522  0.5729  2.5926
  203MOL0     H26756   5.828  10.195   8.166  0.5517 -0.7199  0.1698
  203MOL0     H26757   5.702  10.307   8.136  0.3849  0.9335 -0.7404
  203MOL0     H26758   5.948  10.196   8.312  1.3801  0.0259 -2.2816
  203MOL0     H26759   6.046  10.216   8.535  2.5293  1.1220  0.8581
  203MOL0     H26760   6.337  10.397   8.835  0.2390 -4.2086 -1.4950
  203MOL0     H26761   6.402  10.392   9.073  1.2340 -1.5668 -3.8249
  203MOL0     H26762   6.063  10.378   9.363  0.6109  1.8359  2.4735
  203MOL0     H26763   6.200  10.378   9.468  1.5331 -1.6378 -0.0087
  203MOL0     H26764   6.242  10.131   9.429  0.2537 -0.1150  2.4336
  203MOL0     H26765   6.089  10.127   9.341  0.9326  2.5874 -2.5954
  203MOL0     H26766   6.108  10.263   9.617 -2.7573  2.9039 -1.6269
  203MOL0     H26767   6.105  10.078   9.616 -0.9144 -0.5458  0.1631
  203MOL0     H26768   5.888  10.161   9.450 -3.3377  0.7476 -0.2917
  203MOL0     H26769   5.896  10.092   9.614  1.4681 -0.7848 -0.6579
  203MOL0     H26770   5.857  10.383   9.517 -1.5239  0.9617  0.6491
  203MOL0     H26771   5.899  10.340   9.682  0.5919 -1.3598  1.0863
  203MOL0     H26772   5.711  10.195   9.691  1.4703 -1.1345 -3.3513
  203MOL0     H26773   5.658  10.228   9.536  0.2295 -1.5820  0.3229
  203MOL0     H26774   5.659  10.406   9.786 -0.1562 -0.7368 -0.5081
  203MOL0     H26775   5.645  10.482   9.621  1.0352 -0.8611 -0.5146
  203MOL0     H26776   5.459  10.337   9.560 -0.0066  1.2003 -0.2502
  203MOL0     H26777   5.411  10.447   9.695  0.2171 -0.8827  3.5877
  203MOL0     H26778   5.997  10.290   9.184 -0.5474 -1.0781 -1.3196
  203MOL0     H26779   5.940  10.282   8.960 -0.4767  2.3024  0.2049
  203MOL0     H26780   6.078  10.641   8.492 -2.6490  0.6877  1.9313
  203MOL0     H26781   5.969  10.621   8.262  1.2219 -0.9902 -0.9161
  203MOL0     H26782   6.763  10.440   8.215  0.2054  0.7223  1.7814
  203MOL0     H26783   6.817  10.676   8.153 -2.1923 -1.2101  0.8458
  203MOL0     H26784   7.242  10.909   7.999  0.8578  1.8669  2.0356
  203MOL0     H26785   7.348  11.115   7.923  1.1320  0.1706  2.1551
  203MOL0     H26786   7.148  11.483   7.877  2.1571 -0.6737  1.3039
  203MOL0     H26787   7.076  11.413   7.732  1.3095  1.4177 -3.2928
  203MOL0     H26788   7.344  11.553   7.752  0.3450 -1.3782  0.9109
  203MOL0     H26789   7.283  11.473   7.597 -0.1642  1.8500 -0.8233
  203MOL0     H26790   7.114  11.645   7.574 -2.8163 -0.1455  1.2027
  203MOL0     H26791   7.263  11.721   7.596 -0.9794 -0.2570 -1.3438
  203MOL0     H26792   7.189  11.729   7.867  0.7406 -1.3787 -0.7313
  203MOL0     H26793   7.126  11.846   7.758  1.7720  0.1174  1.0985
  203MOL0     H26794   6.785  11.609   7.773  0.7927 -2.0475  0.2953
  203MOL0     H26795   6.959  11.269   7.830  0.0051 -1.3134 -2.1414
  203MOL0     H26796   6.851  11.070   7.877  0.5650 -3.8879 -0.2093
  204MOL0     O26797   0.214   1.116   0.971  0.6751 -0.4405 -0.4706
  204MOL0     C26798   0.135   1.186   1.035  0.6045  0.6663  0.1357
  204MOL0     O26799   0.158   1.309   1.099 -0.5157  0.1299 -0.3094
  204MOL0     C26800   0.295   1.344   1.109  0.5359  0.0746  0.1227
  204MOL0     C26801   0.378   1.273   1.199  0.3781  0.7128 -0.2967
  204MOL0     C26802   0.503   1.320   1.235 -0.5562  1.0414 -0.9321
  204MOL0     C26803   0.547   1.440   1.189 -0.0759 -0.5798 -0.0867
  204MOL0     O26804   0.661   1.507   1.217 -0.7199 -0.0207  0.0713
  204MOL0     C26805   0.725   1.464   1.343 -0.2340 -0.4724 -0.6133
  204MOL0     C26806   0.857   1.533   1.358  0.6130  0.1068 -0.3716
  204MOL0     C26807   0.845   1.691   1.371 -0.0451 -0.0962 -0.7544
  204MOL0     C26808   0.988   1.747   1.388  0.3746  0.1561  0.2544
  204MOL0     C26809   0.999   1.895   1.399  0.1858 -0.7681  0.2831
  204MOL0     C26810   1.149   1.937   1.420  0.5116  0.7383 -0.4415
  204MOL0     C26811   1.165   2.087   1.466 -0.1893  0.0803  0.7261
  204MOL0     C26812   1.299   2.108   1.531 -0.5481 -0.4083 -0.7916
  204MOL0     N26813   1.300   2.032   1.661 -0.9937 -0.6293 -0.3688
  204MOL0     C26814   1.411   2.029   1.740  0.0226 -0.3910 -0.9975
  204MOL0     C26815   1.369   1.961   1.855 -0.4030  0.6803  0.3812
  204MOL0     C26816   1.450   1.914   1.967 -0.2088 -0.0286  0.0667
  204MOL0     C26817   1.462   2.021   2.084  0.5457  0.0964  1.0030
  204MOL0     C26818   1.500   2.161   2.066 -0.0756 -0.0920  0.0858
  204MOL0     C26819   1.649   2.171   2.025  0.0926  0.1013  0.1200
  204MOL0     O26820   1.670   2.315   2.019  1.2849 -0.0507  0.1323
  204MOL0     C26821   1.797   2.369   2.002  0.9175  0.0382  0.7489
  204MOL0     C26822   1.818   2.495   2.041 -0.6331 -0.3978  0.1749
  204MOL0     C26823   1.939   2.565   2.022 -0.6849  0.0471 -0.4180
  204MOL0     C26824   2.053   2.498   1.965  0.7888  0.1512 -0.0274
  204MOL0     C26825   2.169   2.575   1.929 -0.3446  0.2548  1.1655
  204MOL0     O26826   2.276   2.501   1.880 -0.1374  0.0810  0.2421
  204MOL0     C26827   2.386   2.564   1.824 -0.5929  1.0318 -0.2735
  204MOL0     C26828   2.511   2.548   1.891  0.6812 -0.1951  1.2599
  204MOL0     C26829   2.630   2.603   1.853  0.8001 -0.1192  0.3943
  204MOL0     C26830   2.624   2.682   1.739  0.2345  0.1457  0.3284
  204MOL0     O26831   2.731   2.758   1.691 -0.1448 -0.4424  0.0010
  204MOL0     C26832   2.862   2.719   1.727  0.0825 -1.0314  0.6329
  204MOL0     C26833   2.900   2.578   1.666 -0.7490 -0.2855 -1.6654
  204MOL0     C26834   2.868   2.571   1.511  0.1887  0.4838 -0.5920
  204MOL0     C26835   2.916   2.436   1.470 -0.3267 -0.2588  0.2295
  204MOL0     C26836   2.852   2.380   1.341 -0.2753 -0.2133  0.3618
  204MOL0     C26837   2.851   2.490   1.235  0.9476 -0.4611  0.3179
  204MOL0     C26838   2.786   2.459   1.101 -0.2225  0.4734 -0.0935
  204MOL0     C26839   2.635   2.483   1.094  0.0848 -0.0458 -0.6571
  204MOL0    Cl26840   2.574   2.477   0.941  0.1849  0.0253  0.2255
  204MOL0     C26841   2.508   2.684   1.661  0.5188  0.3295 -0.5107
  204MOL0     C26842   2.387   2.625   1.698  0.6138  0.5267  0.6368
  204MOL0     O26843   2.167   2.697   1.922  0.3400 -0.5825 -0.1538
  204MOL0     C26844   2.034   2.360   1.930 -0.4968 -0.8079  0.3326
  204MOL0     C26845   1.909   2.296   1.955  0.4572  0.2006 -0.0132
  204MOL0     N26846   1.231   1.945   1.844 -0.2013  0.3497 -0.1193
  204MOL0     N26847   1.191   1.987   1.724  0.3208  1.1484 -0.1001
  204MOL0     C26848   0.452   1.511   1.096 -0.5177 -0.1993  1.0303
  204MOL0     C26849   0.332   1.465   1.064  0.7808  0.2026 -0.6183
  204MOL0     C26850  -0.006   1.137   1.073 -1.2659 -0.0836 -0.9611
  204MOL0     C26851  -0.085   1.204   1.165  0.1496  0.0666  0.1774
  204MOL0     C26852  -0.210   1.151   1.203  0.1229 -0.2028 -0.1672
  204MOL0     C26853  -0.257   1.035   1.131 -0.5184 -0.1675  0.0336
  204MOL0     O26854  -0.378   0.981   1.159  0.3386  0.1027  0.2015
  204MOL0     C26855  -0.464   1.031   1.253 -0.9508  1.0319 -0.7202
  204MOL0     C26856  -0.585   0.929   1.271 -0.3844 -0.0658  0.6780
  204MOL0     C26857  -0.674   0.926   1.149 -0.1049 -0.4921 -1.1429
  204MOL0     C26858  -0.766   0.806   1.132 -0.4565  0.1259 -0.5054
  204MOL0     C26859  -0.882   0.799   1.220 -0.1202 -0.4589 -0.1089
  204MOL0     C26860  -0.987   0.809   1.281  0.6755 -0.9168 -0.2178
  204MOL0     C26861  -0.178   0.979   1.029  0.4018  0.5509 -0.4640
  204MOL0     C26862  -0.053   1.023   1.011 -0.6118  0.1228  0.2575
  204MOL0     H26863   0.335   1.184   1.244 -0.2981 -0.0614 -2.3352
  204MOL0     H26864   0.559   1.263   1.308  0.4585  0.2603 -2.2695
  204MOL0     H26865   0.724   1.355   1.355 -0.7634 -0.2636  1.6297
  204MOL0     H26866   0.660   1.500   1.423 -0.9368 -0.5186 -1.1481
  204MOL0     H26867   0.922   1.511   1.272  2.0287 -1.6285  1.0593
  204MOL0     H26868   0.904   1.480   1.441 -1.7091 -3.5742 -1.1512
  204MOL0     H26869   0.778   1.728   1.450  3.5514  2.2068  1.5185
  204MOL0     H26870   0.796   1.729   1.281 -0.7159 -2.0216 -1.2567
  204MOL0     H26871   1.038   1.693   1.468  1.8110  2.6467  1.1444
  204MOL0     H26872   1.046   1.717   1.300 -0.9569  1.1837 -1.0481
  204MOL0     H26873   0.939   1.929   1.484  0.1504 -0.2843  0.0663
  204MOL0     H26874   0.953   1.949   1.316  0.6135 -1.5783 -0.4998
  204MOL0     H26875   1.204   1.933   1.325  0.3433  1.6890 -0.5958
  204MOL0     H26876   1.204   1.870   1.487  1.2285 -0.3266 -2.0368
  204MOL0     H26877   1.163   2.148   1.376 -1.3341 -1.3481 -0.2506
  204MOL0     H26878   1.076   2.124   1.518 -0.2884 -0.6650  1.0966
  204MOL0     H26879   1.320   2.215   1.544 -1.8278 -0.0489 -1.4813
  204MOL0     H26880   1.387   2.076   1.474  2.0353  0.1657  2.6024
  204MOL0     H26881   1.512   2.062   1.716  0.1121  0.8117  0.8922
  204MOL0     H26882   1.549   1.882   1.934  0.0688 -0.9210  1.6408
  204MOL0     H26883   1.398   1.825   2.004  0.4912  0.1273  1.4906
  204MOL0     H26884   1.538   1.975   2.147  2.0169  0.0248 -0.7208
  204MOL0     H26885   1.360   2.032   2.120  0.4655  2.4453  0.2470
  204MOL0     H26886   1.448   2.205   1.980  1.6050  1.1227 -0.3609
  204MOL0     H26887   1.471   2.218   2.155 -1.8694  1.6197 -1.4997
  204MOL0     H26888   1.676   2.128   1.928 -1.4475 -3.0722  0.9541
  204MOL0     H26889   1.712   2.140   2.108 -0.6632  1.0703  1.0762
  204MOL0     H26890   1.737   2.554   2.081 -1.3892  0.4462 -2.3832
  204MOL0     H26891   1.957   2.665   2.062 -2.6708  0.5643 -0.7469
  204MOL0     H26892   2.524   2.483   1.978  0.8805 -2.4543 -0.3721
  204MOL0     H26893   2.713   2.586   1.920  1.4351  1.0360 -0.0586
  204MOL0     H26894   2.862   2.714   1.836 -0.6185 -0.6047  0.6632
  204MOL0     H26895   2.917   2.803   1.684 -1.7620  0.1163  0.3806
  204MOL0     H26896   2.849   2.509   1.733  1.1881  2.1889  2.8570
  204MOL0     H26897   3.007   2.557   1.677 -1.0139 -2.2047 -2.3729
  204MOL0     H26898   2.929   2.638   1.450  0.0930 -2.7431 -4.7051
  204MOL0     H26899   2.762   2.590   1.495 -0.2503  0.4398  1.9101
  204MOL0     H26900   3.024   2.449   1.457 -0.5069  0.0139 -1.0851
  204MOL0     H26901   2.911   2.356   1.545 -1.1184  1.1337  1.7026
  204MOL0     H26902   2.749   2.358   1.371 -0.8070  2.2141  0.5439
  204MOL0     H26903   2.902   2.290   1.305  0.1746 -0.0181  0.5013
  204MOL0     H26904   2.952   2.527   1.213  1.2975 -1.1780  0.7068
  204MOL0     H26905   2.800   2.575   1.281  0.8048 -1.1539  1.4741
  204MOL0     H26906   2.838   2.517   1.024  0.3503 -1.2197 -1.0235
  204MOL0     H26907   2.812   2.354   1.087  0.6448  0.4705  1.3900
  204MOL0     H26908   2.621   2.587   1.127 -3.3744 -0.3918 -0.6600
  204MOL0     H26909   2.574   2.419   1.159  1.4402 -1.2828 -0.5617
  204MOL0     H26910   2.524   2.734   1.566  1.1034 -0.3090 -0.7616
  204MOL0     H26911   2.301   2.638   1.632  1.3494  0.3400 -0.3823
  204MOL0     H26912   2.118   2.301   1.894  0.6898 -0.1090  1.8168
  204MOL0     H26913   1.911   2.196   1.914  3.2091  1.9037 -4.8281
  204MOL0     H26914   0.490   1.607   1.062 -3.7634  0.8293 -0.1883
  204MOL0     H26915   0.262   1.515   0.998 -0.1223 -0.9185 -0.5339
  204MOL0     H26916  -0.060   1.296   1.216  0.0156  3.0146 -4.4352
  204MOL0     H26917  -0.275   1.190   1.280 -0.4022 -3.1118  0.9914
  204MOL0     H26918  -0.498   1.134   1.241  0.0086  1.2753 -1.4863
  204MOL0     H26919  -0.418   1.013   1.351 -0.6629  1.5963 -0.7443
  204MOL0     H26920  -0.542   0.828   1.279  3.1584  1.2804  0.5132
  204MOL0     H26921  -0.640   0.953   1.362  0.9584  0.3228  1.4182
  204MOL0     H26922  -0.616   0.938   1.057 -0.2500 -3.3555 -1.7282
  204MOL0     H26923  -0.731   1.019   1.162  0.0354 -0.8041  4.9260
  204MOL0     H26924  -0.800   0.800   1.028  0.0557  0.3114 -0.6860
  204MOL0     H26925  -0.696   0.723   1.143  1.3324  1.4910 -1.1839
  204MOL0     H26926  -1.066   0.827   1.351  3.0478 -2.2520  3.0649
  204MOL0     H26927  -0.209   0.885   0.984  1.2036 -0.4680  1.0040
  204MOL0     H26928   0.004   0.954   0.949 -3.7572 -3.4431  0.9279
  205MOL0     O26929  10.723   1.993   6.904  0.4438  0.4954  0.6272
  205MOL0     C26930  10.723   2.115   6.911  0.4768  0.5234 -0.5734
  205MOL0     O26931  10.634   2.192   6.858  0.5463  0.4677  0.1136
  205MOL0     C26932  10.543   2.145   6.768  1.2784  0.5011  0.2719
  205MOL0     C26933  10.537   2.204   6.641  0.9444  0.1499  0.3945
  205MOL0     C26934  10.447   2.153   6.539 -1.0092 -1.1424 -0.9392
  205MOL0     C26935  10.357   2.050   6.569 -1.7288 -0.2191 -0.0011
  205MOL0     O26936  10.285   2.004   6.464 -0.7298  0.3758 -0.3080
  205MOL0     C26937  10.213   1.877   6.480  0.1174  0.0454 -0.1545
  205MOL0     C26938  10.054   1.914   6.496  0.3537 -0.6212 -1.1996
  205MOL0     C26939   9.970   1.791   6.459 -0.1859 -0.1855 -0.0042
  205MOL0     C26940   9.822   1.808   6.480 -0.1894  1.1042  0.3384
  205MOL0     C26941   9.762   1.868   6.360 -0.4838  0.1894  0.0187
  205MOL0     C26942   9.623   1.921   6.405 -0.2327  0.1315  0.8993
  205MOL0     C26943   9.536   1.799   6.457  0.5766  0.6703  0.3886
  205MOL0     C26944   9.380   1.835   6.453 -0.3268 -0.2364 -0.4278
  205MOL0     N26945   9.313   1.744   6.551 -1.0549  0.4632  1.1098
  205MOL0     C26946   9.240   1.638   6.500  0.1672 -1.2162  0.3580
  205MOL0     C26947   9.185   1.580   6.607 -0.3432  0.8153  0.2405
  205MOL0     C26948   9.101   1.451   6.593 -0.4275  0.4544  0.5548
  205MOL0     C26949   8.981   1.477   6.502 -0.4813  0.8031  0.1417
  205MOL0     C26950   8.876   1.365   6.531  0.1849 -0.3102 -0.1577
  205MOL0     C26951   8.744   1.378   6.454 -0.5793 -0.5009  0.1997
  205MOL0     O26952   8.795   1.397   6.323  0.4589  0.4708 -0.1152
  205MOL0     C26953   8.718   1.491   6.261 -0.6063  0.0856 -0.1063
  205MOL0     C26954   8.737   1.628   6.305 -0.6370 -0.3843 -0.0422
  205MOL0     C26955   8.667   1.730   6.235 -1.0555 -0.3756 -0.2434
  205MOL0     C26956   8.574   1.698   6.139 -0.5277 -0.6487 -0.1259
  205MOL0     C26957   8.516   1.802   6.056 -0.0859 -1.1952 -0.3477
  205MOL0     O26958   8.578   1.916   6.029 -0.0718  0.2766 -1.0388
  205MOL0     C26959   8.513   2.025   5.972 -1.0543 -0.8365  0.7975
  205MOL0     C26960   8.464   2.006   5.837  0.3186  1.0658 -0.0202
  205MOL0     C26961   8.408   2.091   5.754  0.0917  0.0109 -0.2794
  205MOL0     C26962   8.383   2.217   5.812  0.9657  0.1669  0.4926
  205MOL0     O26963   8.332   2.316   5.741 -0.2231 -0.5414 -0.7924
  205MOL0     C26964   8.425   2.347   5.639  0.1323 -1.2381  0.0563
  205MOL0     C26965   8.344   2.449   5.555  0.7436  0.3312 -0.9366
  205MOL0     C26966   8.412   2.486   5.423 -0.3298  0.4641  0.9104
  205MOL0     C26967   8.330   2.590   5.362  0.6734 -1.2643 -0.3927
  205MOL0     C26968   8.376   2.614   5.214  0.0575 -0.0147 -0.4668
  205MOL0     C26969   8.291   2.715   5.142  0.1623  0.5488 -0.7193
  205MOL0     C26970   8.356   2.727   4.999  0.7518 -0.7870 -0.1804
  205MOL0     C26971   8.303   2.852   4.925  0.3985 -0.2863  0.5310
  205MOL0    Cl26972   8.127   2.860   4.960 -0.1813  0.3217 -0.3143
  205MOL0     C26973   8.428   2.252   5.939 -0.2644  0.6417  0.2825
  205MOL0     C26974   8.495   2.150   6.018 -0.0317 -0.6864  0.7265
  205MOL0     O26975   8.395   1.774   6.030 -0.7566 -0.9634 -0.4468
  205MOL0     C26976   8.545   1.559   6.109  0.1128  0.0049 -0.7509
  205MOL0     C26977   8.621   1.454   6.169  0.8513  0.0416 -0.0364
  205MOL0     N26978   9.223   1.655   6.719  0.3285  0.3089  0.1507
  205MOL0     N26979   9.291   1.754   6.681  0.1009 -0.8417  0.2581
  205MOL0     C26980  10.362   1.995   6.695 -0.0776  0.3635 -0.7073
  205MOL0     C26981  10.463   2.035   6.793  0.6783 -0.0287  0.6300
  205MOL0     C26982  10.842   2.169   6.982 -0.4244 -0.5352 -0.4862
  205MOL0     C26983  10.850   2.312   7.006  0.6182  0.2636  0.1451
  205MOL0     C26984  10.958   2.377   7.064 -0.0317 -0.2756 -0.7180
  205MOL0     C26985  11.065   2.292   7.109  0.8768  0.7636  0.4376
  205MOL0     O26986  11.167   2.362   7.156 -0.8514 -0.1448 -1.2856
  205MOL0     C26987  11.282   2.286   7.196 -0.5553  0.3741 -0.0488
  205MOL0     C26988  11.287   2.274   7.350 -0.1635  0.6074  0.0493
  205MOL0     C26989  11.331   2.402   7.415 -0.6037 -1.4888 -0.4548
  205MOL0     C26990  11.485   2.442   7.396  1.2239 -0.1221  0.4439
  205MOL0     C26991  11.577   2.358   7.460  0.5106  0.5676 -0.1070
  205MOL0     C26992  11.643   2.275   7.520 -0.0738 -0.0877 -0.5016
  205MOL0     C26993  11.050   2.153   7.098 -0.3554  0.2398  0.6872
  205MOL0     C26994  10.945   2.094   7.031 -0.2715  0.5957 -0.7755
  205MOL0     H26995  10.602   2.289   6.624  0.1305  1.7045  4.0105
  205MOL0     H26996  10.452   2.202   6.443  1.1835 -0.3829 -0.5037
  205MOL0     H26997  10.241   1.814   6.565  1.6121  0.9823  0.0847
  205MOL0     H26998  10.226   1.829   6.382 -2.2739 -0.4565 -0.2984
  205MOL0     H26999  10.032   1.999   6.431 -0.9193 -0.5637 -0.7070
  205MOL0     H27000  10.044   1.950   6.599 -2.1749 -0.5177 -1.4315
  205MOL0     H27001  10.013   1.709   6.517  1.8790  0.8297 -0.0060
  205MOL0     H27002   9.995   1.764   6.356 -3.4349  1.7680 -1.4633
  205MOL0     H27003   9.792   1.706   6.502 -1.1207  1.8806  2.9814
  205MOL0     H27004   9.820   1.864   6.574  5.1314  2.0823  0.2172
  205MOL0     H27005   9.765   1.792   6.280  1.4898 -0.9965  1.1227
  205MOL0     H27006   9.822   1.955   6.332 -0.6343  0.2181 -0.2247
  205MOL0     H27007   9.580   1.970   6.317 -4.6102 -0.0051  2.7355
  205MOL0     H27008   9.633   1.996   6.484 -0.2725  0.3785  0.6722
  205MOL0     H27009   9.555   1.711   6.395  0.6282  2.1222 -1.7797
  205MOL0     H27010   9.560   1.781   6.562 -0.5890 -0.0270  0.5497
  205MOL0     H27011   9.349   1.825   6.349  0.8211 -0.5940 -0.7530
  205MOL0     H27012   9.364   1.942   6.471 -0.8116 -0.2806 -0.6045
  205MOL0     H27013   9.219   1.614   6.396 -1.7625 -0.3633  0.4952
  205MOL0     H27014   9.077   1.410   6.691 -3.1784  1.0538  0.2136
  205MOL0     H27015   9.156   1.378   6.533 -1.1116 -3.1409  3.9483
  205MOL0     H27016   9.020   1.471   6.400  1.5394 -1.9204  0.9636
  205MOL0     H27017   8.940   1.575   6.529 -2.8957 -0.0445 -0.1996
  205MOL0     H27018   8.917   1.266   6.511 -4.0851 -2.0942 -1.2772
  205MOL0     H27019   8.852   1.377   6.637  1.1033 -1.5753  0.2095
  205MOL0     H27020   8.684   1.458   6.499 -2.1375 -2.6479  2.1862
  205MOL0     H27021   8.681   1.289   6.464 -1.0704 -0.1755  0.0236
  205MOL0     H27022   8.815   1.668   6.369 -1.6580  0.6634  0.6012
  205MOL0     H27023   8.687   1.836   6.244 -1.7946 -0.3354  1.2110
  205MOL0     H27024   8.473   1.905   5.798  0.0249  2.1361 -3.1470
  205MOL0     H27025   8.373   2.071   5.653  1.4689 -1.3126 -0.5316
  205MOL0     H27026   8.463   2.270   5.571 -0.2923 -0.5335 -1.0087
  205MOL0     H27027   8.511   2.401   5.678  1.1899 -1.2871 -2.0522
  205MOL0     H27028   8.327   2.542   5.611  2.1573 -1.2214  2.3555
  205MOL0     H27029   8.245   2.410   5.533  0.2493  0.5735  0.6899
  205MOL0     H27030   8.414   2.399   5.356  0.9734  0.8063  0.4721
  205MOL0     H27031   8.511   2.530   5.438 -0.2755  0.5786  0.2481
  205MOL0     H27032   8.226   2.556   5.372  0.8601 -1.5704  0.6439
  205MOL0     H27033   8.346   2.682   5.420  1.0599 -0.4249 -1.7802
  205MOL0     H27034   8.384   2.524   5.152 -0.5019  0.8225 -1.8025
  205MOL0     H27035   8.477   2.652   5.232 -0.1952 -0.2789  1.9261
  205MOL0     H27036   8.283   2.806   5.202  0.0528 -0.8801  1.5257
  205MOL0     H27037   8.196   2.661   5.140  0.1004  0.6642 -0.9751
  205MOL0     H27038   8.463   2.747   5.003  0.5667  0.1148  0.4478
  205MOL0     H27039   8.325   2.637   4.945 -1.7073 -2.5395  3.6608
  205MOL0     H27040   8.325   2.852   4.818  1.0938  0.0271  0.6626
  205MOL0     H27041   8.347   2.946   4.960  0.8118 -0.4908  0.5761
  205MOL0     H27042   8.393   2.346   5.980 -0.1009  0.8622 -0.0841
  205MOL0     H27043   8.506   2.173   6.124 -1.8191  0.8352  0.6425
  205MOL0     H27044   8.478   1.531   6.029  2.5888  0.4349 -3.1475
  205MOL0     H27045   8.602   1.348   6.156  2.2510 -0.4152  1.3452
  205MOL0     H27046  10.291   1.919   6.726  0.5123 -0.5276 -1.4981
  205MOL0     H27047  10.464   1.978   6.885 -1.9531 -0.5409  0.4172
  205MOL0     H27048  10.769   2.378   6.977  0.9376  1.2155  1.3498
  205MOL0     H27049  10.962   2.485   7.077  0.0935 -0.5678  2.3659
  205MOL0     H27050  11.362   2.354   7.166  1.3594 -1.4940  0.5995
  205MOL0     H27051  11.298   2.191   7.143 -2.0747 -1.1648  2.0414
  205MOL0     H27052  11.190   2.248   7.392 -1.4251  0.9589 -2.4771
  205MOL0     H27053  11.375   2.209   7.359  1.4442  2.6405 -0.2017
  205MOL0     H27054  11.304   2.411   7.521 -0.4750  0.2689 -0.5439
  205MOL0     H27055  11.280   2.481   7.360  2.1835  0.5304 -0.3829
  205MOL0     H27056  11.503   2.436   7.288 -3.1959 -0.2350 -0.4635
  205MOL0     H27057  11.501   2.548   7.420 -0.6226 -0.2623  2.5865
  205MOL0     H27058  11.707   2.210   7.576  0.4227  0.3220 -0.5847
  205MOL0     H27059  11.121   2.088   7.148 -1.0560  0.3689  1.8735
  205MOL0     H27060  10.936   1.987   7.017  1.4572  0.7577 -4.3138
  206MOL0     O27061   7.303   1.405   1.350  0.8566 -0.2089 -0.2317
  206MOL0     C27062   7.232   1.483   1.405  0.1361 -0.0622 -0.6552
  206MOL0     O27063   7.103   1.460   1.444 -0.8179 -0.1168 -0.8091
  206MOL0     C27064   7.036   1.355   1.392 -0.6451 -0.4360  0.3866
  206MOL0     C27065   6.950   1.288   1.481 -0.4389 -0.4553  0.8812
  206MOL0     C27066   6.873   1.176   1.433 -0.3783  0.4758 -0.6522
  206MOL0     C27067   6.877   1.132   1.301 -0.4060  0.2717 -0.0060
  206MOL0     O27068   6.808   1.025   1.241 -0.2674  0.6234  0.3301
  206MOL0     C27069   6.739   0.926   1.320 -0.2085  0.1634  0.9820
  206MOL0     C27070   6.818   0.827   1.385 -0.0475  0.1681 -0.6531
  206MOL0     C27071   6.741   0.731   1.469  0.5816  1.0297 -0.4955
  206MOL0     C27072   6.654   0.645   1.384  0.4477  0.5396 -0.7040
  206MOL0     C27073   6.581   0.540   1.473 -0.2296 -0.4460 -0.0740
  206MOL0     C27074   6.512   0.595   1.609 -0.0130  0.2427  0.3571
  206MOL0     C27075   6.399   0.509   1.652 -0.0685 -0.3362 -0.2739
  206MOL0     C27076   6.321   0.573   1.777 -0.1622  0.9487  0.7425
  206MOL0     N27077   6.405   0.569   1.900  0.1538  1.0814  1.0438
  206MOL0     C27078   6.451   0.447   1.962  0.2095 -0.6586 -0.7694
  206MOL0     C27079   6.507   0.476   2.081  0.8292 -1.1703  0.5314
  206MOL0     C27080   6.551   0.398   2.200  0.3889 -0.1030  0.0655
  206MOL0     C27081   6.451   0.327   2.287  0.7207  0.0331 -0.1331
  206MOL0     C27082   6.381   0.209   2.222 -0.2945 -0.6450  0.0585
  206MOL0     C27083   6.292   0.130   2.325  0.4023 -0.2335 -0.5600
  206MOL0     O27084   6.252   0.014   2.247  0.0570  0.4384 -0.4612
  206MOL0     C27085   6.202  -0.095   2.313 -0.0288  0.5559 -0.0268
  206MOL0     C27086   6.205  -0.120   2.452 -0.6841  0.2166 -0.1680
  206MOL0     C27087   6.150  -0.239   2.499  0.4875  0.4226 -0.8934
  206MOL0     C27088   6.090  -0.333   2.416  0.2191 -0.2489  0.2993
  206MOL0     C27089   6.041  -0.462   2.472 -0.4422  0.2920  0.3158
  206MOL0     O27090   6.070  -0.485   2.605  0.1985 -0.8411  0.2815
  206MOL0     C27091   6.057  -0.602   2.675  0.2532 -0.0748  0.6107
  206MOL0     C27092   6.079  -0.586   2.807 -1.3631 -0.7781 -0.5946
  206MOL0     C27093   6.061  -0.690   2.900 -0.0554  0.5569 -0.2656
  206MOL0     C27094   6.045  -0.818   2.851 -0.2524  0.8844  0.1352
  206MOL0     O27095   6.041  -0.929   2.938  0.0682  0.4412 -0.2157
  206MOL0     C27096   5.914  -0.989   2.940  0.0051  0.2905  0.2775
  206MOL0     C27097   5.911  -1.103   3.036 -0.1135 -0.5071  0.7729
  206MOL0     C27098   5.929  -1.071   3.182  0.0175  0.2320 -0.1115
  206MOL0     C27099   5.967  -1.194   3.272 -0.5961 -0.1886 -0.1737
  206MOL0     C27100   6.027  -1.141   3.400  0.2773  0.1103 -0.2728
  206MOL0     C27101   6.178  -1.134   3.402 -0.3409  0.0528 -0.9297
  206MOL0     C27102   6.227  -1.068   3.530 -0.1425 -0.8206 -0.4858
  206MOL0     C27103   6.375  -1.079   3.552 -1.0485 -0.0434  0.0973
  206MOL0    Cl27104   6.446  -1.018   3.705  0.2489  0.0319 -0.3593
  206MOL0     C27105   6.031  -0.845   2.713 -0.6006  0.1284  0.2957
  206MOL0     C27106   6.029  -0.733   2.624  0.5454  0.1974  0.4133
  206MOL0     O27107   5.992  -0.539   2.399  1.4179  0.1225 -0.2310
  206MOL0     C27108   6.085  -0.310   2.275  0.4029  0.3967  0.3496
  206MOL0     C27109   6.145  -0.194   2.226  0.0327  0.5478 -0.0603
  206MOL0     N27110   6.494   0.619   2.088 -1.6453  0.1586  0.3153
  206MOL0     N27111   6.454   0.674   1.978  0.6943 -0.6962  0.5998
  206MOL0     C27112   6.957   1.216   1.212  1.3793 -0.6722  0.4438
  206MOL0     C27113   7.035   1.325   1.253  0.2379  0.3229  0.8831
  206MOL0     C27114   7.286   1.605   1.469 -0.1748  0.5607  0.1095
  206MOL0     C27115   7.395   1.675   1.418 -0.7855 -0.3826 -0.1683
  206MOL0     C27116   7.442   1.799   1.477  0.9614  0.3266 -0.1018
  206MOL0     C27117   7.374   1.846   1.596  0.2052 -0.0574 -0.0217
  206MOL0     O27118   7.407   1.970   1.648 -0.3196  0.3544  0.3786
  206MOL0     C27119   7.527   2.048   1.603 -0.4146 -0.2712 -0.8456
  206MOL0     C27120   7.667   1.986   1.639  0.5417  0.3807 -0.4223
  206MOL0     C27121   7.669   1.951   1.792 -0.3428 -1.1598  0.2257
  206MOL0     C27122   7.683   2.080   1.887 -0.2772 -0.7546  0.6598
  206MOL0     C27123   7.787   2.177   1.847 -0.3882 -1.0463 -0.5782
  206MOL0     C27124   7.882   2.244   1.813 -0.0462 -0.1131 -0.4164
  206MOL0     C27125   7.269   1.766   1.652 -0.8862 -0.2029 -0.3413
  206MOL0     C27126   7.222   1.653   1.587 -0.2211  0.1944 -0.2420
  206MOL0     H27127   6.963   1.297   1.589 -1.7039 -0.6449  1.0579
  206MOL0     H27128   6.807   1.123   1.501  0.1944  1.9339  1.1126
  206MOL0     H27129   6.686   0.875   1.240 -0.9318 -1.5563  2.4834
  206MOL0     H27130   6.663   0.971   1.384 -0.8858  1.4613 -0.6585
  206MOL0     H27131   6.877   0.875   1.464  5.0692  0.1289 -3.9677
  206MOL0     H27132   6.882   0.780   1.309  0.2075 -0.1847 -0.2250
  206MOL0     H27133   6.679   0.788   1.539 -0.6449  1.9045 -2.2315
  206MOL0     H27134   6.810   0.669   1.527  0.8202 -0.2912 -2.1210
  206MOL0     H27135   6.577   0.690   1.320  0.5514  3.4342  1.0131
  206MOL0     H27136   6.715   0.591   1.311 -0.3462  0.7985 -1.5690
  206MOL0     H27137   6.657   0.468   1.502  1.6385  1.8624  1.1580
  206MOL0     H27138   6.505   0.496   1.408 -0.4889  0.2256 -0.2393
  206MOL0     H27139   6.456   0.688   1.592 -2.9280 -1.4191  0.1648
  206MOL0     H27140   6.577   0.596   1.697  0.1621 -2.4440  0.3261
  206MOL0     H27141   6.336   0.498   1.563  4.0322 -1.3700 -3.3759
  206MOL0     H27142   6.435   0.409   1.678  1.9532 -0.5213 -3.2685
  206MOL0     H27143   6.230   0.513   1.778  1.0184 -0.9977 -1.3923
  206MOL0     H27144   6.281   0.672   1.754 -2.6186  0.2517  1.7398
  206MOL0     H27145   6.430   0.351   1.917  1.2693 -2.1701  1.7329
  206MOL0     H27146   6.619   0.461   2.257  2.0611 -1.2521 -0.5860
  206MOL0     H27147   6.612   0.320   2.155  1.2711  0.0797  0.9319
  206MOL0     H27148   6.379   0.405   2.316  1.1445  1.1959 -2.0000
  206MOL0     H27149   6.495   0.310   2.386  0.2791  0.2805  0.1105
  206MOL0     H27150   6.317   0.228   2.136 -0.3578 -2.0873 -0.2295
  206MOL0     H27151   6.458   0.141   2.185  0.6733  1.0078 -1.1314
  206MOL0     H27152   6.208   0.186   2.368  1.0138  0.0433  0.3116
  206MOL0     H27153   6.355   0.105   2.412 -0.0799  1.0593  0.1926
  206MOL0     H27154   6.250  -0.050   2.521 -1.3067  0.6285 -0.1779
  206MOL0     H27155   6.164  -0.253   2.606  1.5163  1.3624 -0.8851
  206MOL0     H27156   6.105  -0.495   2.860  4.2515 -1.3266 -1.7496
  206MOL0     H27157   6.080  -0.684   3.006  0.8749  0.3321 -0.4047
  206MOL0     H27158   5.895  -1.024   2.838 -0.1126  0.8068  0.1191
  206MOL0     H27159   5.835  -0.913   2.950 -1.7263 -1.4830  0.7388
  206MOL0     H27160   5.985  -1.178   3.005  1.2279  1.1100 -0.1614
  206MOL0     H27161   5.814  -1.152   3.021 -1.4667  2.4473 -1.0803
  206MOL0     H27162   5.830  -1.034   3.211 -0.6383 -1.6460  0.1427
  206MOL0     H27163   5.994  -0.983   3.189 -3.3717  3.0421 -1.2599
  206MOL0     H27164   5.876  -1.254   3.286  0.2552 -1.8569 -1.3854
  206MOL0     H27165   6.047  -1.256   3.231  0.4206 -0.2235  1.7527
  206MOL0     H27166   5.994  -1.206   3.481 -0.4938 -1.1597 -1.5501
  206MOL0     H27167   5.989  -1.039   3.412  1.1882  0.3051  1.1867
  206MOL0     H27168   6.218  -1.078   3.317  1.1764 -0.7410 -0.7886
  206MOL0     H27169   6.215  -1.237   3.396  0.1192  0.0994  0.5894
  206MOL0     H27170   6.187  -0.966   3.527 -0.2307 -0.8721 -1.5169
  206MOL0     H27171   6.188  -1.123   3.616 -0.3621 -0.4098 -0.3191
  206MOL0     H27172   6.412  -1.011   3.475 -2.2412 -0.1994 -0.6401
  206MOL0     H27173   6.415  -1.181   3.548  0.5676  0.6197 -2.5832
  206MOL0     H27174   6.015  -0.945   2.674  2.0152 -0.2526  0.0068
  206MOL0     H27175   5.998  -0.754   2.522 -0.8562 -0.4755  0.9630
  206MOL0     H27176   6.031  -0.376   2.208  1.3003  0.4625 -0.4748
  206MOL0     H27177   6.151  -0.175   2.119 -0.2302  0.0404 -0.1694
  206MOL0     H27178   6.956   1.184   1.108 -0.0915  0.7401 -0.0144
  206MOL0     H27179   7.094   1.379   1.179  0.5756  0.5855  1.3380
  206MOL0     H27180   7.438   1.644   1.323 -1.4708 -0.3124 -0.5110
  206MOL0     H27181   7.521   1.852   1.424  0.8193  2.0667  1.3734
  206MOL0     H27182   7.531   2.144   1.656 -0.8540 -0.5499 -0.2854
  206MOL0     H27183   7.513   2.065   1.496 -1.8729 -0.4507 -0.7135
  206MOL0     H27184   7.677   1.898   1.575 -1.3225  2.4805 -3.9842
  206MOL0     H27185   7.738   2.061   1.601 -2.0384  3.1520 -0.2156
  206MOL0     H27186   7.752   1.886   1.819  0.4918  0.2372  1.1819
  206MOL0     H27187   7.579   1.889   1.802 -0.4688 -1.3285 -1.5936
  206MOL0     H27188   7.586   2.131   1.881 -1.2637 -2.7034 -1.4473
  206MOL0     H27189   7.706   2.038   1.985 -0.3396 -1.4378  0.3865
  206MOL0     H27190   7.975   2.294   1.798  1.9380 -2.8440  1.7781
  206MOL0     H27191   7.203   1.806   1.729 -0.3683 -2.2757  1.2625
  206MOL0     H27192   7.130   1.612   1.628  0.0684 -1.5384 -1.2286
  207MOL0     O27193   2.946  10.898   3.103  0.9934 -0.3148  0.2355
  207MOL0     C27194   2.876  10.881   2.998  0.1377 -1.4960  0.4611
  207MOL0     O27195   2.927  10.886   2.865 -0.0056 -0.4337 -0.0626
  207MOL0     C27196   3.060  10.886   2.827  0.7618 -0.4510  0.1201
  207MOL0     C27197   3.167  10.846   2.907 -0.7394  0.1925  0.0021
  207MOL0     C27198   3.289  10.836   2.862  0.0103  0.6581  0.1943
  207MOL0     C27199   3.322  10.869   2.727  0.3739  0.3545 -0.0542
  207MOL0     O27200   3.443  10.854   2.668  0.3579  0.2292 -0.4796
  207MOL0     C27201   3.546  10.791   2.746  0.8399  0.3037  0.1395
  207MOL0     C27202   3.647  10.770   2.625  1.0837 -0.7082 -0.1870
  207MOL0     C27203   3.697  10.895   2.553  0.6978 -0.1456 -0.1820
  207MOL0     C27204   3.807  10.856   2.456 -0.5402  0.0852  0.0301
  207MOL0     C27205   3.852  10.971   2.361 -0.9851 -0.4012 -0.6668
  207MOL0     C27206   3.956  10.913   2.263 -0.6634  0.2964  0.4903
  207MOL0     C27207   4.039  11.016   2.177  0.1775 -0.8203 -0.1978
  207MOL0     C27208   3.956  11.130   2.129 -0.7169  0.1850 -0.3807
  207MOL0     N27209   3.862  11.092   2.035  0.2972  0.4099  1.0637
  207MOL0     C27210   3.872  11.100   1.894  0.2202 -0.1942 -0.1792
  207MOL0     C27211   3.757  11.053   1.855  0.1206  0.1778 -0.2856
  207MOL0     C27212   3.721  11.067   1.709 -0.0704  0.0182  0.1287
  207MOL0     C27213   3.738  10.928   1.648  0.1347  0.2331 -0.1354
  207MOL0     C27214   3.884  10.889   1.631  0.3069  1.0549 -0.2010
  207MOL0     C27215   3.878  10.737   1.606  0.5644  0.5876  0.2144
  207MOL0     O27216   3.980  10.662   1.670  1.0722  0.2166 -0.1037
  207MOL0     C27217   3.990  10.612   1.796 -0.4490  0.0066 -0.0247
  207MOL0     C27218   4.087  10.526   1.820  0.2808  0.7935 -0.4171
  207MOL0     C27219   4.108  10.478   1.951  0.0263  1.2602 -0.0045
  207MOL0     C27220   4.028  10.517   2.056  1.1995 -1.1316 -0.4332
  207MOL0     C27221   4.051  10.479   2.194  0.5381  0.4749 -0.4612
  207MOL0     O27222   3.968  10.525   2.293  0.5487  0.3121 -0.3990
  207MOL0     C27223   3.997  10.511   2.432 -0.2987  0.5317  0.3444
  207MOL0     C27224   3.887  10.529   2.517  0.5130  0.1711  0.4798
  207MOL0     C27225   3.898  10.511   2.659  0.3911 -0.2418  0.5795
  207MOL0     C27226   4.021  10.470   2.716 -0.5074 -0.1673  0.0970
  207MOL0     O27227   4.039  10.447   2.851 -0.3894 -0.3265  0.0956
  207MOL0     C27228   3.947  10.340   2.904 -0.0029 -0.1511  1.4064
  207MOL0     C27229   3.918  10.364   3.049 -1.1834  0.0370 -0.3275
  207MOL0     C27230   3.813  10.269   3.111 -0.0874  0.3223 -0.8294
  207MOL0     C27231   3.772  10.326   3.250  0.6800 -0.1220 -0.8084
  207MOL0     C27232   3.694  10.234   3.343  0.5306  0.4340  0.1941
  207MOL0     C27233   3.648  10.302   3.476 -0.6168  0.4027  0.0020
  207MOL0     C27234   3.517  10.385   3.481 -0.9219 -0.6687  0.3207
  207MOL0     C27235   3.498  10.419   3.627  0.0506 -0.4504 -0.6657
  207MOL0    Cl27236   3.606  10.554   3.675  0.5533 -0.0311 -0.3285
  207MOL0     C27237   4.133  10.489   2.635 -0.0794 -0.1274 -0.3792
  207MOL0     C27238   4.127  10.484   2.491  0.1890  0.0888 -0.1838
  207MOL0     O27239   4.133  10.389   2.214  0.0124 -0.0956  0.1417
  207MOL0     C27240   3.926  10.609   2.027  0.2669 -0.4580  1.1355
  207MOL0     C27241   3.907  10.660   1.900 -0.9377 -0.0062 -0.5487
  207MOL0     N27242   3.672  11.013   1.951  0.6036 -0.6451  0.5808
  207MOL0     N27243   3.742  11.038   2.060 -0.2389  0.1778  0.1327
  207MOL0     C27244   3.215  10.917   2.645 -1.0339 -0.3085  0.4920
  207MOL0     C27245   3.085  10.927   2.697  0.5236 -0.2568 -0.4116
  207MOL0     C27246   2.729  10.873   3.004 -0.1818 -0.1690 -0.8251
  207MOL0     C27247   2.661  10.898   3.121  1.0034  0.8269 -1.2844
  207MOL0     C27248   2.521  10.893   3.125  0.5285  0.6798 -0.4846
  207MOL0     C27249   2.438  10.860   3.025  0.6017  0.1866 -0.8316
  207MOL0     O27250   2.304  10.868   3.048 -0.1461 -0.0924  0.1092
  207MOL0     C27251   2.220  10.849   2.935 -0.4688 -0.1750 -0.1202
  207MOL0     C27252   2.083  10.822   2.990  0.7312  0.2238 -0.0790
  207MOL0     C27253   2.002  10.746   2.870  0.1834 -0.2533 -0.6241
  207MOL0     C27254   1.869  10.704   2.920 -0.6542 -0.2799 -0.0894
  207MOL0     C27255   1.784  10.821   2.959  1.0943 -0.2082  0.5232
  207MOL0     C27256   1.706  10.916   2.990 -1.3444 -0.8790 -0.2279
  207MOL0     C27257   2.499  10.846   2.897 -0.6030 -0.4211  0.1273
  207MOL0     C27258   2.650  10.850   2.892 -0.0888  0.0351 -0.3561
  207MOL0     H27259   3.146  10.810   3.007 -0.5861  1.2487  0.4269
  207MOL0     H27260   3.358  10.788   2.931 -0.5942 -1.2100 -0.4408
  207MOL0     H27261   3.501  10.698   2.781  0.0003  1.2771  1.7291
  207MOL0     H27262   3.594  10.844   2.829  3.1198 -2.2394  0.5685
  207MOL0     H27263   3.593  10.709   2.552 -0.7757  2.5793 -1.8287
  207MOL0     H27264   3.738  10.722   2.662  0.2594 -0.4351  2.4546
  207MOL0     H27265   3.736  10.962   2.630  2.6171 -1.4025  0.0155
  207MOL0     H27266   3.618  10.941   2.493 -0.2145 -0.7714  0.5017
  207MOL0     H27267   3.894  10.816   2.509  0.2715  0.4417 -1.0002
  207MOL0     H27268   3.778  10.765   2.403 -0.0905 -0.6952  1.0816
  207MOL0     H27269   3.879  11.058   2.421 -1.8523  0.7843 -1.9365
  207MOL0     H27270   3.772  11.003   2.292  0.1196  0.6811 -1.4950
  207MOL0     H27271   3.900  10.845   2.199  1.7425 -0.1153 -1.2924
  207MOL0     H27272   4.031  10.851   2.312  1.9522  2.2079 -0.8745
  207MOL0     H27273   4.122  11.062   2.232  2.3190 -2.3898 -1.9470
  207MOL0     H27274   4.088  10.964   2.095  2.0006 -0.4946  0.6478
  207MOL0     H27275   4.018  11.206   2.082 -2.1436  1.8533  0.2880
  207MOL0     H27276   3.907  11.179   2.214 -2.0457 -2.1123  0.2841
  207MOL0     H27277   3.952  11.130   1.827  2.1866  0.3283  2.2756
  207MOL0     H27278   3.780  11.141   1.656  0.4362 -0.7968 -0.4669
  207MOL0     H27279   3.616  11.099   1.713  0.3406  1.4219  0.2861
  207MOL0     H27280   3.694  10.915   1.549 -0.7788  0.5989  0.2108
  207MOL0     H27281   3.697  10.863   1.725  0.5914 -0.1605 -0.2165
  207MOL0     H27282   3.925  10.946   1.547 -0.2212  1.2468 -0.3289
  207MOL0     H27283   3.939  10.903   1.725  0.6770  1.8923 -0.5400
  207MOL0     H27284   3.906  10.731   1.500  2.8633 -0.7897  0.8176
  207MOL0     H27285   3.779  10.693   1.622 -0.9654  3.3280 -1.0295
  207MOL0     H27286   4.154  10.495   1.741  0.8240 -0.6682  0.5502
  207MOL0     H27287   4.197  10.417   1.964  1.4914  3.2605 -0.1347
  207MOL0     H27288   3.783  10.538   2.488  1.3017  2.5053 -2.0506
  207MOL0     H27289   3.799  10.510   2.702  0.5477  0.8110  1.0171
  207MOL0     H27290   3.976  10.240   2.872 -1.8381  0.2567 -1.9145
  207MOL0     H27291   3.851  10.354   2.855  0.8769  0.9141 -0.1067
  207MOL0     H27292   3.889  10.469   3.059  1.0161  0.7056 -0.6678
  207MOL0     H27293   4.015  10.352   3.099  0.0226  1.6676 -2.1608
  207MOL0     H27294   3.868  10.175   3.118 -0.1623  0.2910 -0.6896
  207MOL0     H27295   3.721  10.260   3.053 -0.5853  3.7918 -0.7994
  207MOL0     H27296   3.854  10.374   3.304 -0.2199  2.5550 -1.7015
  207MOL0     H27297   3.719  10.421   3.243  0.4012 -0.1458  0.7034
  207MOL0     H27298   3.757  10.147   3.363  0.2871  0.5289  1.4205
  207MOL0     H27299   3.607  10.194   3.290  3.0182  1.2539 -5.2018
  207MOL0     H27300   3.731  10.364   3.509  0.0879 -1.0992  1.1554
  207MOL0     H27301   3.639  10.216   3.543 -1.3722  1.0417  0.7334
  207MOL0     H27302   3.531  10.472   3.416 -2.7105 -2.3524 -2.5212
  207MOL0     H27303   3.423  10.334   3.458 -3.2394  1.8461  3.2613
  207MOL0     H27304   3.524  10.342   3.701 -0.2020  1.6436  1.7364
  207MOL0     H27305   3.392  10.433   3.646  0.2509 -1.9392  2.1359
  207MOL0     H27306   4.229  10.463   2.679 -0.2691 -4.0387 -1.8423
  207MOL0     H27307   4.221  10.475   2.437 -0.1538  0.3411 -0.8361
  207MOL0     H27308   3.864  10.648   2.106  0.1728 -0.1727  0.9203
  207MOL0     H27309   3.836  10.740   1.883 -0.2259  0.6609 -0.4072
  207MOL0     H27310   3.238  10.951   2.544 -0.1103 -1.4613  0.3037
  207MOL0     H27311   3.005  10.977   2.642  0.6284  0.4225  0.0565
  207MOL0     H27312   2.722  10.919   3.208  2.3597 -2.9498 -1.1325
  207MOL0     H27313   2.477  10.937   3.215  1.5757 -2.2525  1.6001
  207MOL0     H27314   2.258  10.765   2.875  2.1066 -0.9393  2.3768
  207MOL0     H27315   2.217  10.945   2.882  0.4454  0.5126  1.0325
  207MOL0     H27316   2.073  10.749   3.072 -2.3930  0.6709  0.0799
  207MOL0     H27317   2.031  10.915   3.012 -0.2219 -0.3152  0.0078
  207MOL0     H27318   2.057  10.655   2.845  2.0915 -0.0227  2.3084
  207MOL0     H27319   1.999  10.807   2.779 -0.0847 -0.5019 -0.7856
  207MOL0     H27320   1.818  10.637   2.849 -1.6766  0.5085 -0.1200
  207MOL0     H27321   1.877  10.641   3.009  1.0058 -1.6353 -1.1406
  207MOL0     H27322   1.635  10.995   3.002 -1.0381 -0.3234 -1.8073
  207MOL0     H27323   2.433  10.845   2.810 -0.6133  2.4808  0.0085
  207MOL0     H27324   2.696  10.830   2.795 -1.4918 -2.4245 -0.6189
  208MOL0     O27325   3.368   7.132   1.024  0.3740 -0.1345  0.5484
  208MOL0     C27326   3.290   7.045   1.062 -0.0914 -0.3633 -0.5526
  208MOL0     O27327   3.200   7.060   1.167 -0.0723  0.5264 -1.0284
  208MOL0     C27328   3.160   7.187   1.196  0.8051 -0.6726  0.4346
  208MOL0     C27329   3.154   7.293   1.109  0.8071  0.6881  0.4796
  208MOL0     C27330   3.115   7.421   1.158 -0.1265 -0.1923  0.7477
  208MOL0     C27331   3.102   7.448   1.298 -0.1429  1.5789  1.0076
  208MOL0     O27332   3.073   7.569   1.336  0.1845  0.1772 -0.9415
  208MOL0     C27333   3.114   7.622   1.462 -0.3153  0.7276  0.3095
  208MOL0     C27334   3.090   7.773   1.478  1.3156  0.1872  0.2054
  208MOL0     C27335   3.181   7.863   1.403  0.0192  0.4291 -0.0744
  208MOL0     C27336   3.187   8.016   1.437  0.0223  0.9223 -1.6151
  208MOL0     C27337   3.318   8.042   1.505  0.0277 -0.2039 -0.3227
  208MOL0     C27338   3.346   8.194   1.511 -0.3705 -0.9596 -0.4940
  208MOL0     C27339   3.482   8.200   1.582  0.1441 -0.5050  0.8392
  208MOL0     C27340   3.509   8.347   1.627 -0.0109  0.0633  0.2427
  208MOL0     N27341   3.540   8.433   1.503 -0.1280 -0.6813 -0.3610
  208MOL0     C27342   3.452   8.532   1.464 -1.4313 -0.3259 -0.6499
  208MOL0     C27343   3.526   8.605   1.389  1.0999  0.0574 -0.4711
  208MOL0     C27344   3.490   8.741   1.332  0.9577  0.4711  0.1026
  208MOL0     C27345   3.604   8.842   1.332 -0.5678 -0.1923 -0.7917
  208MOL0     C27346   3.563   8.988   1.303 -0.2626  0.2378 -1.0233
  208MOL0     C27347   3.481   9.016   1.178 -0.8852 -0.5245 -0.4470
  208MOL0     O27348   3.345   8.969   1.185 -0.7648  0.0397 -0.0719
  208MOL0     C27349   3.262   9.016   1.085 -0.6971  0.0378  0.5482
  208MOL0     C27350   3.136   8.949   1.095  0.3641 -1.3407  0.1225
  208MOL0     C27351   3.043   8.991   0.992  0.1063  0.4333 -0.3661
  208MOL0     C27352   3.076   9.077   0.885 -0.6221 -0.3657  0.2494
  208MOL0     C27353   2.987   9.114   0.772  0.1376 -0.8527 -0.3379
  208MOL0     O27354   2.861   9.075   0.791  0.6579  0.6921  0.7668
  208MOL0     C27355   2.767   9.093   0.695 -0.0884  0.1858  0.4618
  208MOL0     C27356   2.764   9.018   0.586  0.1454 -0.3295  1.3489
  208MOL0     C27357   2.660   9.030   0.487  0.5708 -0.1772 -0.2558
  208MOL0     C27358   2.566   9.133   0.492 -0.2091 -0.1093 -0.4575
  208MOL0     O27359   2.478   9.174   0.395  0.0114  0.7642  0.2881
  208MOL0     C27360   2.456   9.086   0.284  0.5774  0.7159  0.1655
  208MOL0     C27361   2.340   9.131   0.193  0.2027 -0.1661  0.2153
  208MOL0     C27362   2.195   9.116   0.243  0.7496  0.7190 -0.4027
  208MOL0     C27363   2.155   9.211   0.360 -0.2239 -0.7087 -0.9097
  208MOL0     C27364   2.161   9.361   0.320  0.0387  0.6754 -0.3039
  208MOL0     C27365   2.109   9.461   0.427 -0.5849  0.0244 -0.1583
  208MOL0     C27366   1.948   9.441   0.433  0.9644 -0.1289 -0.6043
  208MOL0     C27367   1.894   9.527   0.547  0.0803  0.0568  0.2373
  208MOL0    Cl27368   1.869   9.689   0.483  0.9234  0.1104  0.2650
  208MOL0     C27369   2.564   9.216   0.603  0.5660 -0.4316 -0.7215
  208MOL0     C27370   2.667   9.194   0.706 -1.1205  0.4632  0.2110
  208MOL0     O27371   3.030   9.173   0.671 -0.5045  0.2980 -0.4695
  208MOL0     C27372   3.207   9.137   0.885 -0.3232  0.1515  0.4888
  208MOL0     C27373   3.298   9.102   0.983 -0.3477 -0.4180  0.2639
  208MOL0     N27374   3.652   8.546   1.369  0.9713 -0.0417 -0.1959
  208MOL0     N27375   3.657   8.434   1.428 -0.4182 -0.5869 -0.2812
  208MOL0     C27376   3.117   7.333   1.386  0.2560  0.3710 -0.1793
  208MOL0     C27377   3.128   7.206   1.333  0.2278 -0.1851 -0.9332
  208MOL0     C27378   3.298   6.900   1.008  0.4310 -0.7896  0.1333
  208MOL0     C27379   3.408   6.861   0.927 -0.2710 -0.4803  1.2925
  208MOL0     C27380   3.418   6.730   0.882 -0.3280  0.6189  0.3923
  208MOL0     C27381   3.324   6.634   0.912  0.1960  1.1225 -0.8182
  208MOL0     O27382   3.336   6.502   0.860 -0.2502 -0.9698  0.3714
  208MOL0     C27383   3.453   6.473   0.786  0.5196 -0.0670  0.0455
  208MOL0     C27384   3.449   6.319   0.765 -0.3556 -0.0292  0.1804
  208MOL0     C27385   3.329   6.274   0.682 -1.0461  0.0762 -0.2521
  208MOL0     C27386   3.284   6.123   0.699 -0.0908 -0.2525  0.7524
  208MOL0     C27387   3.209   6.069   0.583 -0.0603 -0.1712 -0.6868
  208MOL0     C27388   3.138   6.012   0.504 -0.0903  0.7099  1.4307
  208MOL0     C27389   3.214   6.676   0.985 -0.5834  0.6677  0.0661
  208MOL0     C27390   3.204   6.806   1.035  0.0193 -0.1600 -0.5306
  208MOL0     H27391   3.149   7.276   1.002  1.0946  0.7320  0.4565
  208MOL0     H27392   3.103   7.515   1.106 -2.2904  0.1624  1.7996
  208MOL0     H27393   3.217   7.600   1.493 -0.0904  1.2342 -0.0649
  208MOL0     H27394   3.044   7.574   1.531  1.5280 -0.7764  1.2418
  208MOL0     H27395   3.100   7.781   1.587 -5.5000 -3.3789  1.6550
  208MOL0     H27396   2.985   7.783   1.450  0.2565 -3.5516  2.1825
  208MOL0     H27397   3.142   7.871   1.301 -1.4964 -0.3726  0.4274
  208MOL0     H27398   3.286   7.831   1.400 -0.3075 -0.6194 -2.7134
  208MOL0     H27399   3.176   8.077   1.347 -0.4888  1.8452 -0.9437
  208MOL0     H27400   3.110   8.040   1.511  2.4137  3.9452  0.1652
  208MOL0     H27401   3.399   8.000   1.445 -0.2577 -1.0792 -0.1022
  208MOL0     H27402   3.310   7.993   1.602 -3.3778 -0.3751 -0.5587
  208MOL0     H27403   3.280   8.243   1.584  2.3743  0.8591  0.9141
  208MOL0     H27404   3.353   8.249   1.417  0.4267  0.4666  0.3777
  208MOL0     H27405   3.485   8.123   1.660  2.1696 -1.7957 -0.4203
  208MOL0     H27406   3.550   8.178   1.499  0.2056 -1.1606  1.0592
  208MOL0     H27407   3.599   8.351   1.690  1.5163  1.6274 -1.8870
  208MOL0     H27408   3.419   8.382   1.677 -0.6809  2.3352 -2.3270
  208MOL0     H27409   3.354   8.545   1.510 -0.9545 -3.4327  1.5614
  208MOL0     H27410   3.399   8.778   1.380 -1.2017 -3.7174 -0.2871
  208MOL0     H27411   3.452   8.734   1.230 -1.9521  2.6738  0.8844
  208MOL0     H27412   3.677   8.819   1.254  0.6514 -2.1463  0.8467
  208MOL0     H27413   3.663   8.852   1.423 -0.1655 -0.6642 -1.0026
  208MOL0     H27414   3.503   9.030   1.384 -0.6400 -0.5365 -0.8907
  208MOL0     H27415   3.654   9.048   1.301 -0.3148  0.7673  3.1049
  208MOL0     H27416   3.524   8.975   1.086 -1.3865  0.2150 -1.0345
  208MOL0     H27417   3.483   9.124   1.158 -0.8039 -0.8967 -2.8083
  208MOL0     H27418   3.106   8.892   1.182 -0.4076  1.5106  1.8720
  208MOL0     H27419   2.943   8.949   1.004 -0.5188  1.6264 -1.1423
  208MOL0     H27420   2.845   8.946   0.573  0.3927  0.2354 -0.5389
  208MOL0     H27421   2.660   8.956   0.408 -1.4911  0.0060 -0.4854
  208MOL0     H27422   2.428   8.985   0.315 -2.4692  1.5016  0.3647
  208MOL0     H27423   2.552   9.076   0.233  2.2352  1.6152  2.9210
  208MOL0     H27424   2.340   9.067   0.104  2.3761 -1.7611  1.2682
  208MOL0     H27425   2.347   9.238   0.173 -1.4850  0.9606  4.4258
  208MOL0     H27426   2.176   9.011   0.266 -0.1824  0.1961 -3.2501
  208MOL0     H27427   2.122   9.140   0.166  2.0262  1.4265 -1.4413
  208MOL0     H27428   2.057   9.186   0.402 -0.0675  0.4802  0.1937
  208MOL0     H27429   2.222   9.218   0.446 -0.3576  2.2643 -0.9602
  208MOL0     H27430   2.096   9.379   0.233  0.7124 -1.0343 -1.2047
  208MOL0     H27431   2.262   9.387   0.288  0.1108 -1.0755 -1.6570
  208MOL0     H27432   2.115   9.568   0.403  1.6960  0.3370  1.4565
  208MOL0     H27433   2.158   9.447   0.523  0.4081 -2.7998 -0.9711
  208MOL0     H27434   1.899   9.466   0.338 -0.5715 -2.5705 -0.5480
  208MOL0     H27435   1.902   9.345   0.458 -1.8022  0.7316 -1.9322
  208MOL0     H27436   1.971   9.535   0.623 -0.2131 -0.5458  0.6009
  208MOL0     H27437   1.799   9.493   0.588  1.5582 -2.6960  1.6308
  208MOL0     H27438   2.491   9.295   0.620  1.0844  0.6914 -3.2626
  208MOL0     H27439   2.648   9.251   0.797 -0.4135 -4.3156  3.6836
  208MOL0     H27440   3.233   9.208   0.807 -3.8011  3.6362  2.1703
  208MOL0     H27441   3.391   9.156   0.971  0.0393 -1.4102 -1.5526
  208MOL0     H27442   3.101   7.331   1.493  5.2622 -0.1920  0.7671
  208MOL0     H27443   3.121   7.123   1.402 -1.4681 -0.3286 -1.2180
  208MOL0     H27444   3.489   6.925   0.894 -0.0407 -1.3244  0.1451
  208MOL0     H27445   3.497   6.714   0.809 -1.8311  1.6932 -1.5572
  208MOL0     H27446   3.531   6.492   0.859 -2.9306  1.1917  3.7720
  208MOL0     H27447   3.465   6.525   0.690 -1.7673 -1.2258 -0.9659
  208MOL0     H27448   3.545   6.301   0.716 -0.8192  1.5377 -1.4077
  208MOL0     H27449   3.439   6.276   0.865 -1.5923  1.2035  0.6272
  208MOL0     H27450   3.350   6.279   0.574  0.0414  0.3076 -0.0403
  208MOL0     H27451   3.246   6.343   0.701  0.0862  1.8364 -1.3403
  208MOL0     H27452   3.369   6.055   0.704  1.0429  1.2034  2.1501
  208MOL0     H27453   3.226   6.115   0.792 -0.2390  1.1662  0.8060
  208MOL0     H27454   3.077   5.954   0.438 -1.4840  0.6167  2.7649
  208MOL0     H27455   3.143   6.601   1.015  0.8257 -1.3056 -1.2583
  208MOL0     H27456   3.122   6.843   1.096  1.6715  2.1682  0.4349
  209MOL0     O27457   3.792   8.356   5.164 -0.2007 -0.5319 -0.1506
  209MOL0     C27458   3.883   8.322   5.093 -0.3494 -0.6118 -0.1246
  209MOL0     O27459   3.995   8.243   5.139  0.1356 -0.2810 -0.0448
  209MOL0     C27460   3.975   8.158   5.242 -0.0669 -0.3408  0.2163
  209MOL0     C27461   3.864   8.059   5.236 -0.0989  0.3233  0.0366
  209MOL0     C27462   3.846   7.966   5.337 -0.6637 -0.3631  0.2117
  209MOL0     C27463   3.932   7.962   5.443 -0.4464 -0.1013 -0.6642
  209MOL0     O27464   3.930   7.854   5.533 -0.5533 -0.0840  0.1078
  209MOL0     C27465   4.055   7.774   5.551 -0.1340 -0.7726  0.1376
  209MOL0     C27466   4.020   7.683   5.667  0.9851 -0.7364 -0.2638
  209MOL0     C27467   3.921   7.576   5.631 -0.2979  0.3393 -0.3647
  209MOL0     C27468   3.987   7.467   5.555 -0.0979 -0.1097  0.4647
  209MOL0     C27469   3.956   7.346   5.631  0.1470  0.0729  0.0840
  209MOL0     C27470   3.999   7.212   5.575  0.6550 -0.5586  0.1099
  209MOL0     C27471   3.938   7.104   5.665 -0.0089 -0.8132 -0.1870
  209MOL0     C27472   4.029   7.085   5.786 -0.1532  0.0571  0.0950
  209MOL0     N27473   4.166   7.068   5.762 -1.5528  0.6239  0.6139
  209MOL0     C27474   4.245   6.969   5.696  0.2432 -0.3335  0.0147
  209MOL0     C27475   4.371   7.022   5.695  0.0524  0.4563  0.3616
  209MOL0     C27476   4.489   6.946   5.651 -0.3767 -0.2660  0.2142
  209MOL0     C27477   4.589   7.051   5.594 -0.2622  0.8132  0.1680
  209MOL0     C27478   4.551   7.111   5.458  0.2884 -0.5503  0.2484
  209MOL0     C27479   4.564   7.003   5.352 -0.1121  0.3567  0.1986
  209MOL0     O27480   4.507   7.045   5.229  0.4395  0.4501  0.7912
  209MOL0     C27481   4.377   7.019   5.207  0.7749  0.0959 -1.3420
  209MOL0     C27482   4.343   7.045   5.076 -0.0847 -0.0157  0.5479
  209MOL0     C27483   4.213   7.034   5.034  0.0330 -0.8996  0.2777
  209MOL0     C27484   4.111   7.001   5.131 -0.1294  0.8692  0.0168
  209MOL0     C27485   3.973   6.987   5.091  0.0007 -0.9569  0.0404
  209MOL0     O27486   3.898   6.895   5.149  0.5841 -0.2051 -0.0935
  209MOL0     C27487   3.772   6.876   5.113  0.4218  0.6906 -0.0236
  209MOL0     C27488   3.676   6.973   5.093 -0.8823  0.4884 -0.4032
  209MOL0     C27489   3.539   6.951   5.069 -0.3512  0.1475 -0.1947
  209MOL0     C27490   3.495   6.819   5.063 -0.2585  0.0989  0.7294
  209MOL0     O27491   3.372   6.775   5.040  0.3685  0.4708  0.1942
  209MOL0     C27492   3.283   6.885   4.991 -0.1521  0.3851 -0.8154
  209MOL0     C27493   3.145   6.837   4.963 -0.1230 -0.0484  0.8480
  209MOL0     C27494   3.055   6.953   4.917  0.3153  0.4122 -0.6040
  209MOL0     C27495   2.912   6.906   4.894  0.4363  0.0771 -0.3200
  209MOL0     C27496   2.796   7.008   4.902  0.3375  0.5737 -0.6298
  209MOL0     C27497   2.745   7.050   5.035 -0.2592  0.1068 -0.7327
  209MOL0     C27498   2.689   7.191   5.040  0.0899 -1.1076  0.3925
  209MOL0     C27499   2.576   7.223   4.941  0.2885  0.1814 -0.6208
  209MOL0    Cl27500   2.437   7.115   4.987  0.1304 -0.3232 -0.4519
  209MOL0     C27501   3.581   6.715   5.084  0.1157 -0.1824 -0.0270
  209MOL0     C27502   3.719   6.746   5.113 -0.0570  0.2224  0.3514
  209MOL0     O27503   3.936   7.069   5.010 -0.1841  0.3004  0.0333
  209MOL0     C27504   4.151   6.971   5.263 -0.5280  0.7064 -0.8452
  209MOL0     C27505   4.282   6.973   5.299 -0.3908  0.6760 -0.2494
  209MOL0     N27506   4.384   7.137   5.776  0.0997  0.3464 -0.5888
  209MOL0     N27507   4.260   7.151   5.819  0.4509  0.8940 -0.1272
  209MOL0     C27508   4.046   8.053   5.449  0.8387  0.6923  0.7035
  209MOL0     C27509   4.060   8.153   5.350 -0.4247  0.3731 -0.0063
  209MOL0     C27510   3.891   8.366   4.954 -0.1856  0.1204  0.6891
  209MOL0     C27511   3.834   8.485   4.914 -0.3024  0.3409 -0.2756
  209MOL0     C27512   3.851   8.535   4.782 -0.0205  0.0747 -0.0160
  209MOL0     C27513   3.939   8.479   4.701 -0.6075 -0.1113  0.4256
  209MOL0     O27514   3.956   8.543   4.580 -0.7281  0.7524 -0.1445
  209MOL0     C27515   4.047   8.492   4.480  0.7968  0.2656  0.0253
  209MOL0     C27516   4.106   8.608   4.399 -0.2469 -0.5337  0.4465
  209MOL0     C27517   4.202   8.693   4.484 -0.5818 -0.7555 -0.0667
  209MOL0     C27518   4.275   8.786   4.394  0.1546 -0.0095  0.6189
  209MOL0     C27519   4.333   8.897   4.469 -1.0137 -0.3072  0.5130
  209MOL0     C27520   4.390   8.978   4.538 -1.0791 -0.1632  0.3186
  209MOL0     C27521   3.982   8.345   4.728 -0.0108  0.9780 -1.1450
  209MOL0     C27522   3.971   8.292   4.858 -0.0328 -0.7622  0.4362
  209MOL0     H27523   3.791   8.056   5.156 -1.7866  0.9906  1.4821
  209MOL0     H27524   3.762   7.898   5.323  1.0684 -2.5118 -0.3960
  209MOL0     H27525   4.142   7.840   5.556 -0.1000 -0.3068 -3.7516
  209MOL0     H27526   4.076   7.717   5.460 -1.5683  1.9672 -2.0392
  209MOL0     H27527   3.975   7.746   5.745  0.1638 -3.3080  1.4941
  209MOL0     H27528   4.110   7.655   5.723  1.2076  0.6978  0.1410
  209MOL0     H27529   3.837   7.623   5.578 -0.9241 -0.6315 -0.2657
  209MOL0     H27530   3.876   7.543   5.725  1.6562 -1.3876  0.0210
  209MOL0     H27531   3.948   7.453   5.454 -2.2752  0.2286  1.1953
  209MOL0     H27532   4.096   7.468   5.545 -0.1014  1.8224  0.3623
  209MOL0     H27533   3.848   7.342   5.650  0.6479 -0.4564  3.5607
  209MOL0     H27534   4.014   7.357   5.723 -1.6172  1.3713  1.1105
  209MOL0     H27535   4.107   7.215   5.558  0.9640  0.3755  2.0113
  209MOL0     H27536   3.951   7.195   5.478  4.2691 -1.6190 -1.6897
  209MOL0     H27537   3.837   7.129   5.696  0.4016  2.5115 -1.1023
  209MOL0     H27538   3.943   7.010   5.610 -1.1395 -3.1835  3.4738
  209MOL0     H27539   3.990   6.994   5.833 -0.2131  0.2573  0.4420
  209MOL0     H27540   4.026   7.173   5.851  2.0204  0.4550 -0.2861
  209MOL0     H27541   4.217   6.871   5.657  2.2980 -0.5699 -0.9887
  209MOL0     H27542   4.481   6.866   5.577 -1.2174  0.4954 -0.5435
  209MOL0     H27543   4.540   6.910   5.741 -0.2872 -2.5459 -0.6958
  209MOL0     H27544   4.678   6.988   5.584 -1.1932 -1.2022  3.1500
  209MOL0     H27545   4.618   7.123   5.671 -1.5369 -0.1492  1.6183
  209MOL0     H27546   4.447   7.146   5.463  0.7407  0.9757 -0.4831
  209MOL0     H27547   4.621   7.190   5.430 -0.2144 -0.2345 -0.1515
  209MOL0     H27548   4.509   6.912   5.377 -1.9093  0.9259 -1.4811
  209MOL0     H27549   4.673   6.991   5.355  0.1200  2.3325  2.1622
  209MOL0     H27550   4.411   7.078   4.998 -1.5947 -1.5922 -1.5538
  209MOL0     H27551   4.187   7.040   4.929  0.9377 -2.9256 -0.1193
  209MOL0     H27552   3.705   7.077   5.092 -1.5269  0.6726 -0.6252
  209MOL0     H27553   3.462   7.026   5.052 -0.0213  0.2340 -1.4779
  209MOL0     H27554   3.324   6.937   4.904 -2.8872  0.3034 -2.2586
  209MOL0     H27555   3.277   6.960   5.071  2.2623 -1.7520  1.5445
  209MOL0     H27556   3.109   6.784   5.052 -0.6606 -1.3516 -0.1063
  209MOL0     H27557   3.143   6.757   4.888 -1.7677  1.4681 -0.8252
  209MOL0     H27558   3.084   7.008   4.828 -0.3490 -0.5803 -1.4515
  209MOL0     H27559   3.051   7.023   5.001  2.2412 -0.7541  0.5323
  209MOL0     H27560   2.908   6.854   4.797  1.7530 -1.8141  0.5694
  209MOL0     H27561   2.880   6.828   4.964  0.9998  0.1341  0.0095
  209MOL0     H27562   2.724   6.974   4.826  0.3959 -0.8296 -0.0830
  209MOL0     H27563   2.830   7.106   4.868  0.8696  0.2108 -1.1595
  209MOL0     H27564   2.837   7.055   5.094 -0.7704 -0.0174  0.0946
  209MOL0     H27565   2.668   6.983   5.075  1.5908 -0.9531  1.2749
  209MOL0     H27566   2.660   7.217   5.142 -0.4926 -1.7570  0.4051
  209MOL0     H27567   2.771   7.257   5.014 -0.9236  0.8850  1.9952
  209MOL0     H27568   2.608   7.211   4.837 -0.1309  2.1593 -1.0229
  209MOL0     H27569   2.544   7.326   4.960 -2.1373 -0.7769  0.9841
  209MOL0     H27570   3.541   6.614   5.087 -0.8143  0.0677 -2.2555
  209MOL0     H27571   3.798   6.672   5.117  0.1357  0.4750  1.4382
  209MOL0     H27572   4.079   6.939   5.337 -0.2204 -1.0820 -1.2897
  209MOL0     H27573   4.305   6.931   5.397 -0.3550  0.2012 -0.4577
  209MOL0     H27574   4.108   8.059   5.538 -3.5412  1.6094  4.0285
  209MOL0     H27575   4.140   8.226   5.360  3.1847 -3.2920  0.7326
  209MOL0     H27576   3.787   8.550   4.986 -1.2715 -0.2243 -0.3803
  209MOL0     H27577   3.804   8.629   4.754  0.7249  0.8018  1.0680
  209MOL0     H27578   3.992   8.420   4.419  1.6234  0.9456 -1.5635
  209MOL0     H27579   4.130   8.434   4.523  0.2748 -1.4414 -1.1750
  209MOL0     H27580   4.153   8.559   4.313  0.1366 -3.6222  2.2832
  209MOL0     H27581   4.026   8.671   4.359  0.1350  0.3690  1.0768
  209MOL0     H27582   4.275   8.639   4.544  0.3823  1.3731  0.7733
  209MOL0     H27583   4.141   8.751   4.554  1.5226 -0.4624  1.6456
  209MOL0     H27584   4.369   8.742   4.360 -1.0676  0.2270 -3.5777
  209MOL0     H27585   4.208   8.814   4.312 -2.2014 -1.5179  1.9313
  209MOL0     H27586   4.447   9.062   4.572  0.7516 -1.5494  0.8045
  209MOL0     H27587   4.018   8.291   4.641 -1.3805 -1.8251 -0.1081
  209MOL0     H27588   4.009   8.198   4.894  0.8018 -0.0340  1.5203
  210MOL0     O27589   5.378   1.349   2.769  0.4684 -0.2848 -0.2538
  210MOL0     C27590   5.457   1.263   2.743 -0.1218  0.0860 -0.0605
  210MOL0     O27591   5.458   1.140   2.810  0.2484 -0.4339 -0.4022
  210MOL0     C27592   5.356   1.085   2.893 -0.2441  1.0242 -0.3699
  210MOL0     C27593   5.383   0.962   2.947 -0.9920  0.5217  0.0998
  210MOL0     C27594   5.288   0.896   3.029  0.9051 -0.3848  0.4706
  210MOL0     C27595   5.152   0.937   3.041  0.2229 -0.5007  0.2061
  210MOL0     O27596   5.057   0.857   3.098 -0.5824  0.8484 -0.0018
  210MOL0     C27597   4.929   0.921   3.124  0.0388 -0.3200 -0.4395
  210MOL0     C27598   4.835   0.821   3.193 -0.4588 -0.3317 -0.3645
  210MOL0     C27599   4.698   0.878   3.216  1.1879  0.1347 -0.0358
  210MOL0     C27600   4.604   0.784   3.288 -0.5944 -0.1555 -1.1285
  210MOL0     C27601   4.479   0.859   3.357 -0.6251  0.2798 -0.0611
  210MOL0     C27602   4.360   0.765   3.375  0.2532  0.9198  0.0355
  210MOL0     C27603   4.237   0.822   3.453  0.1521  0.2599  0.0729
  210MOL0     C27604   4.155   0.919   3.367 -0.1626 -0.0803 -1.3459
  210MOL0     N27605   4.051   0.960   3.465 -0.7186 -0.5434 -0.0671
  210MOL0     C27606   4.056   1.056   3.565  0.3249 -0.8553 -0.1596
  210MOL0     C27607   3.940   1.064   3.619  0.3982 -0.1941 -0.3316
  210MOL0     C27608   3.892   1.167   3.721  0.1848  0.0297 -0.7274
  210MOL0     C27609   3.827   1.293   3.688 -0.8113 -0.4485  0.3712
  210MOL0     C27610   3.706   1.274   3.607  0.0979 -0.6623  0.4690
  210MOL0     C27611   3.599   1.186   3.676 -0.8914  1.2115  0.3222
  210MOL0     O27612   3.493   1.158   3.579  0.4787 -0.0739 -0.1510
  210MOL0     C27613   3.406   1.074   3.621  0.4064  0.4393  0.3852
  210MOL0     C27614   3.369   1.035   3.752  0.2730 -0.2198 -0.6392
  210MOL0     C27615   3.257   0.958   3.775 -0.3494  0.5401 -0.3990
  210MOL0     C27616   3.187   0.901   3.673 -0.0595  0.6999  0.4213
  210MOL0     C27617   3.058   0.821   3.695  0.1137  0.1216  0.7005
  210MOL0     O27618   2.982   0.771   3.585 -0.1750 -0.3837  0.8042
  210MOL0     C27619   2.856   0.719   3.600 -0.6882  0.6682 -0.1446
  210MOL0     C27620   2.824   0.615   3.687 -0.5404  0.0130 -0.4826
  210MOL0     C27621   2.688   0.578   3.709  0.5753  0.7590 -0.0552
  210MOL0     C27622   2.591   0.626   3.617  1.0435 -0.3947 -0.0454
  210MOL0     O27623   2.458   0.579   3.628 -0.3461  0.5254 -0.6410
  210MOL0     C27624   2.355   0.618   3.538 -0.6370  0.8508 -0.3610
  210MOL0     C27625   2.224   0.564   3.606  0.6237 -0.2574  0.1522
  210MOL0     C27626   2.105   0.655   3.568  0.7574 -0.1148 -0.2828
  210MOL0     C27627   2.091   0.784   3.655  0.8955 -1.3226 -0.6804
  210MOL0     C27628   1.977   0.879   3.610  0.3315 -0.0393 -0.0241
  210MOL0     C27629   1.966   0.991   3.710 -0.1247 -0.2135 -0.1945
  210MOL0     C27630   1.877   1.097   3.635 -0.8080 -0.4130 -0.2611
  210MOL0     C27631   1.772   1.169   3.729 -0.7155 -0.3411  0.1357
  210MOL0    Cl27632   1.641   1.055   3.765  0.3110  0.2828  0.2036
  210MOL0     C27633   2.624   0.712   3.514 -0.2182 -0.2597  0.4594
  210MOL0     C27634   2.757   0.764   3.520  0.6772  0.3421  0.9351
  210MOL0     O27635   3.028   0.806   3.817  0.5787 -0.4702  0.0253
  210MOL0     C27636   3.224   0.929   3.545  0.4450 -0.0255 -0.4654
  210MOL0     C27637   3.327   1.019   3.525  0.3640  1.1492 -0.1990
  210MOL0     N27638   3.854   0.977   3.558  0.4261 -0.1619  0.0595
  210MOL0     N27639   3.922   0.925   3.460 -0.0818  0.3467 -0.8597
  210MOL0     C27640   5.122   1.065   2.983  0.2800  0.6747 -0.4140
  210MOL0     C27641   5.226   1.140   2.921 -1.1502  0.1935  0.4431
  210MOL0     C27642   5.574   1.278   2.644 -0.3565  0.5772 -0.0524
  210MOL0     C27643   5.592   1.383   2.561 -0.3120 -0.2706 -0.3744
  210MOL0     C27644   5.706   1.400   2.482 -0.0118  0.8934  0.2935
  210MOL0     C27645   5.811   1.304   2.487 -0.5105 -0.3940  0.7589
  210MOL0     O27646   5.918   1.323   2.403  0.1810 -0.9978  0.7655
  210MOL0     C27647   5.991   1.206   2.376 -0.1589 -0.5481  0.4263
  210MOL0     C27648   6.092   1.246   2.270  0.4781 -0.4905 -0.0451
  210MOL0     C27649   6.141   1.391   2.283  0.3357 -0.3565  0.3303
  210MOL0     C27650   6.270   1.391   2.204 -0.3484 -0.2158  0.0583
  210MOL0     C27651   6.328   1.526   2.221 -1.2169 -0.1586  0.6939
  210MOL0     C27652   6.397   1.625   2.233  0.4346  0.0261  0.6399
  210MOL0     C27653   5.783   1.192   2.561 -0.4169 -0.6475 -0.7410
  210MOL0     C27654   5.678   1.186   2.650  0.7807  0.8875  0.7198
  210MOL0     H27655   5.482   0.918   2.935 -2.2066 -1.9732 -1.6942
  210MOL0     H27656   5.311   0.809   3.089  0.3203  1.6048  3.8108
  210MOL0     H27657   4.887   0.963   3.032  0.0417 -1.2726 -0.8858
  210MOL0     H27658   4.949   1.012   3.183  0.7783  1.1449 -2.8205
  210MOL0     H27659   4.882   0.777   3.281 -2.0229 -3.6403 -1.0422
  210MOL0     H27660   4.815   0.741   3.122  1.0366  0.9546 -2.3437
  210MOL0     H27661   4.647   0.918   3.128 -1.4679  0.2477  1.4412
  210MOL0     H27662   4.697   0.968   3.278  0.5607 -0.1134  0.3327
  210MOL0     H27663   4.569   0.714   3.212  2.3146 -0.5674 -2.2067
  210MOL0     H27664   4.664   0.733   3.364 -1.3150 -0.1890 -0.5710
  210MOL0     H27665   4.454   0.942   3.290 -0.5238 -0.8153 -1.5036
  210MOL0     H27666   4.512   0.902   3.452  0.5444 -0.4687 -0.1082
  210MOL0     H27667   4.400   0.678   3.427 -0.5170 -0.1049 -1.0154
  210MOL0     H27668   4.314   0.735   3.280 -1.3481  1.6693  0.5329
  210MOL0     H27669   4.167   0.741   3.476  1.1739 -0.8933 -0.7414
  210MOL0     H27670   4.275   0.868   3.544 -0.5895 -3.6212  2.5736
  210MOL0     H27671   4.113   0.878   3.275 -1.0386  0.1632 -1.0587
  210MOL0     H27672   4.220   1.002   3.340  0.2354 -0.9318 -3.1333
  210MOL0     H27673   4.138   1.123   3.590 -1.2179  2.1269 -2.5470
  210MOL0     H27674   3.982   1.193   3.778 -0.3122  0.6010 -0.1964
  210MOL0     H27675   3.825   1.109   3.784 -1.8660  2.8829 -0.1204
  210MOL0     H27676   3.882   1.358   3.620 -0.8561 -0.1192  0.6478
  210MOL0     H27677   3.806   1.342   3.783 -2.4479 -3.0620  1.4851
  210MOL0     H27678   3.657   1.371   3.596 -0.0689 -0.8949 -1.0508
  210MOL0     H27679   3.734   1.238   3.508  0.0473  1.7203 -0.4849
  210MOL0     H27680   3.567   1.242   3.764  1.2073  1.3393  1.0579
  210MOL0     H27681   3.640   1.087   3.699 -1.5321  1.3042  1.9762
  210MOL0     H27682   3.422   1.085   3.833  2.3158 -0.8591 -1.5186
  210MOL0     H27683   3.238   0.928   3.878  1.3368  2.2599  0.4801
  210MOL0     H27684   2.898   0.565   3.747 -1.2518 -1.2701 -0.6498
  210MOL0     H27685   2.651   0.509   3.784 -1.4708  1.4517 -0.3647
  210MOL0     H27686   2.375   0.575   3.440  1.0087  1.5654 -0.3717
  210MOL0     H27687   2.343   0.726   3.536  0.5411  1.1631  3.0093
  210MOL0     H27688   2.235   0.560   3.714 -1.0896  3.5495  0.6234
  210MOL0     H27689   2.203   0.462   3.572 -1.6460 -0.1813  1.2112
  210MOL0     H27690   2.015   0.594   3.580 -1.4001  2.0962 -3.5228
  210MOL0     H27691   2.107   0.680   3.461  0.0098  2.8144  0.3174
  210MOL0     H27692   2.073   0.762   3.760  2.6981  1.1699  0.2402
  210MOL0     H27693   2.177   0.850   3.642 -0.9587  1.6426  0.8335
  210MOL0     H27694   1.882   0.826   3.612  2.0860 -3.5251 -1.1329
  210MOL0     H27695   2.011   0.919   3.514  4.0553 -0.4426  0.9793
  210MOL0     H27696   2.065   1.023   3.741 -0.7306  1.8863 -0.2879
  210MOL0     H27697   1.917   0.954   3.801  2.7835 -0.4125  1.3877
  210MOL0     H27698   1.938   1.170   3.582 -1.8435  0.3459 -0.4250
  210MOL0     H27699   1.818   1.045   3.559 -0.9560 -2.0045  0.8744
  210MOL0     H27700   1.729   1.256   3.678 -1.6340  0.2775  1.8844
  210MOL0     H27701   1.821   1.193   3.824  0.9386 -1.3692 -0.4227
  210MOL0     H27702   2.544   0.736   3.444  0.2413 -5.6359 -2.3930
  210MOL0     H27703   2.796   0.841   3.455  0.7400 -2.1438 -2.1931
  210MOL0     H27704   3.180   0.882   3.457  2.4576 -0.2858 -1.3882
  210MOL0     H27705   3.371   1.028   3.426  0.2699 -1.9547 -0.6350
  210MOL0     H27706   5.027   1.117   2.982 -1.1630 -1.7736  0.3552
  210MOL0     H27707   5.203   1.238   2.880  1.0997  1.6010  2.2970
  210MOL0     H27708   5.509   1.453   2.552 -0.2711 -0.1565  0.1349
  210MOL0     H27709   5.704   1.474   2.402  3.9739  1.6727  0.6746
  210MOL0     H27710   5.940   1.113   2.348  0.8820 -0.4498 -2.0580
  210MOL0     H27711   6.054   1.186   2.463  1.7813  1.1772 -0.5108
  210MOL0     H27712   6.166   1.166   2.263 -4.5881 -5.6513 -1.5616
  210MOL0     H27713   6.032   1.243   2.178  1.8777 -2.6104 -0.9632
  210MOL0     H27714   6.172   1.426   2.381 -1.2863  1.3622  0.2907
  210MOL0     H27715   6.057   1.449   2.243 -1.5910 -3.4129 -0.3930
  210MOL0     H27716   6.342   1.310   2.220  1.9567  1.7139  0.0061
  210MOL0     H27717   6.242   1.380   2.098 -2.1389 -2.0790  0.6679
  210MOL0     H27718   6.456   1.715   2.237  2.0347 -0.7026 -2.6808
  210MOL0     H27719   5.866   1.123   2.576 -1.1379 -1.2440  0.7665
  210MOL0     H27720   5.655   1.094   2.703  0.2701  1.3499  1.3123
  211MOL0     O27721   2.053   1.490   8.274  0.6069  0.5093 -0.3476
  211MOL0     C27722   2.056   1.527   8.396  0.8325  0.1829 -0.0306
  211MOL0     O27723   1.949   1.568   8.476 -0.6368  0.2822  0.2776
  211MOL0     C27724   1.822   1.583   8.416  0.7956  0.0676  0.5425
  211MOL0     C27725   1.803   1.623   8.283  0.9172 -0.5768  0.3329
  211MOL0     C27726   1.673   1.636   8.227 -0.2460  0.0799 -0.0586
  211MOL0     C27727   1.557   1.602   8.295 -0.6344 -0.4097  0.1977
  211MOL0     O27728   1.427   1.610   8.258  0.5719 -0.3122  0.2825
  211MOL0     C27729   1.402   1.683   8.135  0.4588  0.3107  0.4893
  211MOL0     C27730   1.259   1.733   8.126  0.1884 -0.3028 -0.6362
  211MOL0     C27731   1.157   1.619   8.110 -0.5434 -0.7235 -1.3334
  211MOL0     C27732   1.173   1.545   7.973 -0.1436 -0.3371  0.9543
  211MOL0     C27733   1.085   1.422   7.970 -0.3254  1.0828  0.2091
  211MOL0     C27734   1.136   1.319   8.063  0.3278  0.8321 -0.6226
  211MOL0     C27735   1.080   1.179   8.021 -0.5216 -0.2283 -0.8014
  211MOL0     C27736   1.138   1.076   8.111 -1.2767 -0.0154 -0.0973
  211MOL0     N27737   1.284   1.062   8.096 -0.0005  0.4228 -0.4138
  211MOL0     C27738   1.352   0.995   7.996 -0.1549 -0.0732  0.0785
  211MOL0     C27739   1.483   0.988   8.042 -0.0739 -0.0561  0.1405
  211MOL0     C27740   1.608   0.919   7.979  0.7836  0.6429 -0.3002
  211MOL0     C27741   1.682   0.829   8.066  0.8428 -0.5256 -0.0720
  211MOL0     C27742   1.636   0.686   8.071  0.2981  1.1812  0.1950
  211MOL0     C27743   1.487   0.674   8.090  0.2969 -0.3923 -0.6400
  211MOL0     O27744   1.447   0.543   8.123 -0.1349  0.4533  0.6114
  211MOL0     C27745   1.456   0.438   8.026  0.2958 -0.9822  0.2133
  211MOL0     C27746   1.448   0.453   7.886 -0.6024  0.1375 -1.3069
  211MOL0     C27747   1.459   0.340   7.803  0.5762  0.3604  0.0459
  211MOL0     C27748   1.464   0.214   7.860 -0.0824  0.6891  0.5301
  211MOL0     C27749   1.477   0.095   7.765  0.5378 -0.1019 -0.1382
  211MOL0     O27750   1.514   0.119   7.643 -0.5714  0.0649  1.0604
  211MOL0     C27751   1.558   0.015   7.558 -0.2388  0.1695 -0.1623
  211MOL0     C27752   1.648  -0.087   7.597  1.1322  0.2721 -0.1016
  211MOL0     C27753   1.700  -0.174   7.504  0.6338  0.2360 -0.1565
  211MOL0     C27754   1.658  -0.177   7.369  0.4021  0.5974 -0.3604
  211MOL0     O27755   1.719  -0.259   7.278  0.3241 -0.0868 -0.1542
  211MOL0     C27756   1.844  -0.332   7.303 -0.6153  0.6667  0.3060
  211MOL0     C27757   1.915  -0.367   7.170 -1.2351 -0.2601 -0.6826
  211MOL0     C27758   2.062  -0.407   7.188  0.0253  0.4361  0.0858
  211MOL0     C27759   2.142  -0.425   7.057  0.4934 -0.0839 -0.3965
  211MOL0     C27760   2.255  -0.528   7.074  0.7301 -0.3104  0.4053
  211MOL0     C27761   2.381  -0.485   6.988  0.2095  1.2947  0.7748
  211MOL0     C27762   2.346  -0.480   6.838 -0.5280 -0.0148 -0.8995
  211MOL0     C27763   2.469  -0.453   6.757 -0.3161  0.6644  0.3166
  211MOL0    Cl27764   2.411  -0.400   6.605  0.2738  0.5550 -0.2548
  211MOL0     C27765   1.546  -0.093   7.345  0.5538  0.7172  0.5370
  211MOL0     C27766   1.509   0.008   7.433 -0.2317 -0.1212  0.2578
  211MOL0     O27767   1.459  -0.020   7.813  0.7908  0.2434 -0.4879
  211MOL0     C27768   1.476   0.198   7.993  0.7459 -0.1686  0.4124
  211MOL0     C27769   1.476   0.311   8.083 -0.1959  0.4067  0.1330
  211MOL0     N27770   1.492   1.053   8.162 -0.0113 -0.9367 -1.0252
  211MOL0     N27771   1.372   1.087   8.189 -0.3406  0.1426 -0.5908
  211MOL0     C27772   1.578   1.568   8.434  0.9691 -0.7850 -0.2929
  211MOL0     C27773   1.703   1.552   8.492 -0.0780  1.0643  0.2231
  211MOL0     C27774   2.197   1.495   8.470  0.9252 -0.4758  0.8827
  211MOL0     C27775   2.276   1.392   8.431  1.1042 -0.4004  0.0211
  211MOL0     C27776   2.393   1.361   8.491 -0.8178 -0.3348 -1.1056
  211MOL0     C27777   2.424   1.425   8.612  0.7131  0.6472  0.3094
  211MOL0     O27778   2.533   1.379   8.672 -0.3563  0.2539  0.1121
  211MOL0     C27779   2.582   1.440   8.791  0.8624  0.3986 -0.1577
  211MOL0     C27780   2.696   1.357   8.854 -0.2741 -0.2381 -0.4569
  211MOL0     C27781   2.669   1.211   8.870  0.2328 -0.0723 -0.9564
  211MOL0     C27782   2.719   1.150   8.995 -0.0619 -0.0354 -1.5660
  211MOL0     C27783   2.870   1.141   8.991  0.1105 -0.0415  0.0894
  211MOL0     C27784   2.990   1.155   8.975 -1.0453 -0.1894 -1.0670
  211MOL0     C27785   2.333   1.529   8.655 -0.5058  0.6263 -0.8599
  211MOL0     C27786   2.228   1.567   8.582  0.4424  0.5116  0.1731
  211MOL0     H27787   1.878   1.639   8.206  0.8032  1.1964  0.5555
  211MOL0     H27788   1.666   1.667   8.123  1.7935  0.1150 -0.2281
  211MOL0     H27789   1.420   1.615   8.051 -2.8240  2.4549 -2.2463
  211MOL0     H27790   1.469   1.769   8.125  0.5863  0.4240  2.1623
  211MOL0     H27791   1.249   1.804   8.043  0.5337 -0.1169 -0.5229
  211MOL0     H27792   1.236   1.780   8.222  1.0940 -0.3278 -0.3962
  211MOL0     H27793   1.053   1.647   8.125  0.1493  0.4185  2.1355
  211MOL0     H27794   1.178   1.553   8.195  0.6673  0.2411 -0.8519
  211MOL0     H27795   1.136   1.611   7.894  1.3842  0.6953  1.0545
  211MOL0     H27796   1.276   1.521   7.946 -0.2413  0.7941 -0.5322
  211MOL0     H27797   1.107   1.387   7.868  0.1214 -1.3547  1.0781
  211MOL0     H27798   0.977   1.435   7.971 -0.7790 -1.8750  2.3742
  211MOL0     H27799   1.102   1.348   8.163 -0.0399  3.7304 -1.5154
  211MOL0     H27800   1.244   1.305   8.052 -0.0092 -3.7489 -0.2043
  211MOL0     H27801   0.971   1.171   8.036 -0.5852  1.9137  0.3144
  211MOL0     H27802   1.108   1.162   7.917  1.2510 -1.2160 -0.1959
  211MOL0     H27803   1.085   0.986   8.079 -1.9245  0.9016 -1.7084
  211MOL0     H27804   1.117   1.096   8.216 -0.9243  0.3405 -0.0922
  211MOL0     H27805   1.314   0.938   7.912  1.5574 -0.8864 -0.1962
  211MOL0     H27806   1.670   1.000   7.939  2.4398 -1.1784 -1.5942
  211MOL0     H27807   1.570   0.855   7.899 -0.2761  0.8171  0.0451
  211MOL0     H27808   1.663   0.868   8.166  0.8840 -1.8444  0.4795
  211MOL0     H27809   1.789   0.846   8.063  1.3515 -2.0541  3.7378
  211MOL0     H27810   1.658   0.647   7.971  0.9838  0.1012  0.7498
  211MOL0     H27811   1.704   0.633   8.139  1.4484  1.1630 -0.9341
  211MOL0     H27812   1.432   0.711   8.004  0.2340  1.4007  0.1354
  211MOL0     H27813   1.464   0.752   8.164  0.2656  0.9215 -1.9971
  211MOL0     H27814   1.443   0.554   7.845  1.5500  1.0435  0.4741
  211MOL0     H27815   1.458   0.349   7.695  0.6887  0.2380  0.0344
  211MOL0     H27816   1.668  -0.099   7.703 -1.3684 -1.5385  0.2889
  211MOL0     H27817   1.781  -0.237   7.539 -0.7976 -2.7506 -1.8241
  211MOL0     H27818   1.827  -0.424   7.359  0.6334  1.4778  2.1431
  211MOL0     H27819   1.912  -0.267   7.358  0.6733 -0.6491  0.3084
  211MOL0     H27820   1.917  -0.282   7.102 -2.9804  0.0762 -0.3566
  211MOL0     H27821   1.863  -0.456   7.134 -0.7813 -0.5946 -0.5325
  211MOL0     H27822   2.055  -0.496   7.252  1.0840  1.8347  2.2938
  211MOL0     H27823   2.125  -0.344   7.252  4.6360 -4.5134  1.1948
  211MOL0     H27824   2.089  -0.476   6.977  1.8632  0.7639 -1.8922
  211MOL0     H27825   2.180  -0.326   7.031  1.5794 -0.1534  0.8015
  211MOL0     H27826   2.225  -0.628   7.043 -1.3343  0.2233  0.5264
  211MOL0     H27827   2.281  -0.541   7.179 -0.2502 -1.4271  0.5323
  211MOL0     H27828   2.446  -0.571   7.008 -1.6796 -0.2025  0.8384
  211MOL0     H27829   2.427  -0.389   7.014  0.1436  1.7477 -0.6876
  211MOL0     H27830   2.307  -0.579   6.811  1.7251 -0.9894 -0.7918
  211MOL0     H27831   2.275  -0.399   6.821 -0.5536 -0.0264 -0.8465
  211MOL0     H27832   2.535  -0.540   6.753 -1.5567 -0.4359  2.2080
  211MOL0     H27833   2.518  -0.365   6.801 -2.2889  1.7472  0.4399
  211MOL0     H27834   1.505  -0.101   7.245  1.2958  1.2550  0.1829
  211MOL0     H27835   1.444   0.084   7.393 -0.2280  0.3997  1.2195
  211MOL0     H27836   1.488   0.100   8.036  0.4277 -0.1077  0.6456
  211MOL0     H27837   1.501   0.307   8.189 -0.6051 -0.3090  0.2083
  211MOL0     H27838   1.496   1.561   8.505  1.5642 -1.4273  0.3553
  211MOL0     H27839   1.719   1.513   8.593 -0.0054  2.5627  0.8152
  211MOL0     H27840   2.258   1.339   8.338 -0.5925 -2.3612  1.3776
  211MOL0     H27841   2.454   1.276   8.463  0.1725  0.1189 -0.3819
  211MOL0     H27842   2.503   1.440   8.866 -0.8445  1.0630 -1.8632
  211MOL0     H27843   2.613   1.545   8.789 -0.0552  0.7509  1.9204
  211MOL0     H27844   2.772   1.360   8.776  0.1743 -1.0745 -0.0685
  211MOL0     H27845   2.736   1.402   8.946  3.4072 -2.1999 -0.9023
  211MOL0     H27846   2.706   1.153   8.785 -1.9800 -1.7108 -0.8944
  211MOL0     H27847   2.560   1.201   8.877  0.1086  1.0367 -1.1094
  211MOL0     H27848   2.691   1.213   9.081  1.2911  0.5633 -1.5315
  211MOL0     H27849   2.681   1.048   9.005 -2.8706  1.0611  0.1279
  211MOL0     H27850   3.095   1.159   8.954 -1.0283 -0.9925 -1.1821
  211MOL0     H27851   2.362   1.577   8.748  2.1306 -1.7243 -0.3271
  211MOL0     H27852   2.167   1.645   8.627  0.3833  0.4466  0.2069
  212MOL0     O27853   7.214   8.612   2.113  0.4370  0.1234  0.0970
  212MOL0     C27854   7.102   8.661   2.119  0.4323  0.2998  0.5652
  212MOL0     O27855   7.009   8.631   2.223  0.2834 -0.5408 -0.1108
  212MOL0     C27856   7.025   8.542   2.331  0.0317 -0.3841 -1.2556
  212MOL0     C27857   7.141   8.550   2.401 -1.0464 -0.9531 -0.1827
  212MOL0     C27858   7.154   8.484   2.529  0.1349 -0.1598  0.3335
  212MOL0     C27859   7.053   8.399   2.579 -0.0997 -0.3629  0.9470
  212MOL0     O27860   7.068   8.315   2.693  0.7065  0.3488 -0.0389
  212MOL0     C27861   7.198   8.249   2.707  0.2526 -0.2194 -0.0824
  212MOL0     C27862   7.274   8.291   2.834 -0.0973  0.9367 -0.0514
  212MOL0     C27863   7.208   8.273   2.974  0.0868  0.3380  0.6442
  212MOL0     C27864   7.282   8.341   3.082 -0.5087 -0.5427  0.3098
  212MOL0     C27865   7.174   8.344   3.192 -0.6807  0.2476  0.2769
  212MOL0     C27866   7.236   8.383   3.322  0.4721 -0.0068 -0.2264
  212MOL0     C27867   7.124   8.409   3.431 -0.5301 -0.6291  0.1387
  212MOL0     C27868   7.102   8.562   3.442  0.9179 -0.1269  0.1068
  212MOL0     N27869   6.979   8.590   3.517  0.1390  0.6400 -0.4711
  212MOL0     C27870   6.850   8.558   3.484 -0.3172  0.4844 -0.5800
  212MOL0     C27871   6.781   8.606   3.588  0.0747  0.2995  0.0130
  212MOL0     C27872   6.633   8.622   3.590  0.1165 -0.5295 -0.1569
  212MOL0     C27873   6.582   8.706   3.474  0.6619 -0.4040 -0.6056
  212MOL0     C27874   6.426   8.700   3.453  0.3516  0.0106  0.2452
  212MOL0     C27875   6.335   8.765   3.562 -0.3807 -0.4447 -0.2179
  212MOL0     O27876   6.304   8.905   3.523 -0.4099 -0.6438 -0.0550
  212MOL0     C27877   6.246   8.994   3.608  0.4892  0.0966  0.1231
  212MOL0     C27878   6.258   9.131   3.580 -0.4922  0.3274 -1.0582
  212MOL0     C27879   6.203   9.221   3.673 -0.6026 -0.4842  0.0085
  212MOL0     C27880   6.127   9.188   3.779  0.6816  0.4110 -1.4665
  212MOL0     C27881   6.059   9.296   3.864 -0.4138  0.5351  0.0923
  212MOL0     O27882   5.971   9.256   3.959 -1.1109 -0.3825 -0.0735
  212MOL0     C27883   5.909   9.354   4.041 -0.6936  0.4296 -0.1516
  212MOL0     C27884   5.932   9.490   4.051 -0.1049  0.2005  0.1051
  212MOL0     C27885   5.837   9.572   4.126 -0.4109 -0.1034  0.2491
  212MOL0     C27886   5.720   9.517   4.186  0.1548  0.3409  0.5505
  212MOL0     O27887   5.638   9.606   4.247 -0.6197 -0.0343  0.3010
  212MOL0     C27888   5.529   9.567   4.320 -0.5072  0.0350  0.0591
  212MOL0     C27889   5.439   9.676   4.368 -0.4074 -0.3303  0.8840
  212MOL0     C27890   5.332   9.624   4.470 -1.0821  0.2601 -0.3398
  212MOL0     C27891   5.232   9.730   4.504 -0.2821 -0.0421  0.1083
  212MOL0     C27892   5.143   9.698   4.626  0.0356 -0.4781  1.1212
  212MOL0     C27893   5.217   9.663   4.744 -0.0941 -0.2447  0.9899
  212MOL0     C27894   5.316   9.772   4.792  0.2299  0.0616 -0.1115
  212MOL0     C27895   5.251   9.869   4.886 -0.5106 -0.3338 -0.3098
  212MOL0    Cl27896   5.137   9.982   4.808  0.0261  0.2532 -0.1001
  212MOL0     C27897   5.702   9.379   4.177 -0.2328  0.7766 -0.2211
  212MOL0     C27898   5.799   9.305   4.113 -0.0735  0.5965  0.0521
  212MOL0     O27899   6.101   9.408   3.841 -0.2549  0.0453 -0.4607
  212MOL0     C27900   6.131   9.045   3.809  0.0864 -0.4057  0.1980
  212MOL0     C27901   6.181   8.948   3.718 -1.0734  0.0337  0.2160
  212MOL0     N27902   6.856   8.636   3.692 -0.1324 -0.0524 -0.7630
  212MOL0     N27903   6.980   8.617   3.651  0.8475  0.7502  0.3683
  212MOL0     C27904   6.935   8.397   2.499 -0.3628 -0.0087 -0.0719
  212MOL0     C27905   6.916   8.479   2.387  0.0651  0.6784  0.3373
  212MOL0     C27906   7.052   8.759   2.021 -0.6455  0.8532  0.0611
  212MOL0     C27907   6.924   8.816   2.025  0.1473  0.2088  0.3119
  212MOL0     C27908   6.881   8.917   1.937  0.2742  0.2679  0.8984
  212MOL0     C27909   6.975   8.956   1.840 -0.7818  1.1685 -0.5570
  212MOL0     O27910   6.932   9.044   1.747  0.5058 -0.4572  0.7105
  212MOL0     C27911   7.016   9.150   1.710 -0.1747 -0.6234 -0.5517
  212MOL0     C27912   6.933   9.272   1.753 -1.1123 -0.0944 -0.7206
  212MOL0     C27913   7.001   9.402   1.707  1.1793 -1.2158  1.1329
  212MOL0     C27914   6.916   9.477   1.596 -0.1820 -0.6038  0.2486
  212MOL0     C27915   6.884   9.387   1.485  0.6652 -0.6265 -0.3569
  212MOL0     C27916   6.849   9.308   1.398 -0.0365 -0.1963 -0.3827
  212MOL0     C27917   7.104   8.915   1.837 -0.5033 -0.0926 -0.7924
  212MOL0     C27918   7.150   8.814   1.928 -0.2058 -0.8096  0.1423
  212MOL0     H27919   7.222   8.614   2.366 -0.5094 -0.6264  1.5861
  212MOL0     H27920   7.252   8.487   2.577 -0.9608 -0.2704  2.7140
  212MOL0     H27921   7.265   8.262   2.621 -1.1118  1.5154 -0.9329
  212MOL0     H27922   7.184   8.142   2.724  0.5990 -0.2616 -0.0379
  212MOL0     H27923   7.279   8.399   2.815 -0.5395  1.0372  0.3604
  212MOL0     H27924   7.372   8.242   2.834 -1.1511 -1.3276 -1.3325
  212MOL0     H27925   7.195   8.168   3.001  1.7705  0.3301  1.5382
  212MOL0     H27926   7.109   8.319   2.964 -0.7461 -1.3027  0.9095
  212MOL0     H27927   7.360   8.273   3.119  0.6636 -0.4462 -1.7957
  212MOL0     H27928   7.315   8.439   3.047  0.8092 -0.7867  0.8270
  212MOL0     H27929   7.134   8.244   3.209  0.9818 -0.1294  2.3208
  212MOL0     H27930   7.089   8.410   3.171 -3.8519 -2.2783  3.7608
  212MOL0     H27931   7.295   8.473   3.300 -0.7924  1.1645  0.9672
  212MOL0     H27932   7.299   8.298   3.347  0.8012  0.1258 -0.5922
  212MOL0     H27933   7.029   8.372   3.391  0.1298 -2.3946  0.1408
  212MOL0     H27934   7.142   8.367   3.530  1.7924 -0.4635 -0.1549
  212MOL0     H27935   7.103   8.620   3.349  0.7574 -0.8832 -0.3746
  212MOL0     H27936   7.177   8.602   3.511 -1.8526  2.0436  2.1020
  212MOL0     H27937   6.807   8.530   3.389 -2.0972 -0.2770  0.3986
  212MOL0     H27938   6.593   8.670   3.680  1.4707  1.7861 -0.7150
  212MOL0     H27939   6.604   8.516   3.589  1.9014 -1.0678 -2.3109
  212MOL0     H27940   6.612   8.657   3.381  3.5675 -1.7281  0.9109
  212MOL0     H27941   6.600   8.814   3.478 -1.5837  0.0244 -0.2660
  212MOL0     H27942   6.393   8.741   3.357 -0.4363 -1.0232  0.0645
  212MOL0     H27943   6.408   8.593   3.457  2.0135 -0.2657  1.9121
  212MOL0     H27944   6.389   8.773   3.657 -2.5711  0.8326  1.0144
  212MOL0     H27945   6.246   8.709   3.590 -0.3235  0.9184  3.2875
  212MOL0     H27946   6.333   9.156   3.506  3.0201 -1.6153  1.5117
  212MOL0     H27947   6.209   9.325   3.642  3.3664 -0.8388 -0.8598
  212MOL0     H27948   6.008   9.551   4.003  1.4558  0.4261  2.6404
  212MOL0     H27949   5.842   9.681   4.131 -0.3263 -0.1488  1.2228
  212MOL0     H27950   5.578   9.522   4.406  0.5147  0.9039 -0.0450
  212MOL0     H27951   5.467   9.492   4.270 -1.6711  0.4974  0.7762
  212MOL0     H27952   5.392   9.739   4.292  1.0842 -0.3626 -0.1063
  212MOL0     H27953   5.511   9.748   4.407  1.7019 -3.1308  2.5711
  212MOL0     H27954   5.388   9.609   4.563 -1.3232 -0.0852 -0.2512
  212MOL0     H27955   5.282   9.528   4.455 -2.4238  0.4339  2.3828
  212MOL0     H27956   5.287   9.823   4.522 -1.0093  0.0591  2.0078
  212MOL0     H27957   5.174   9.745   4.412  1.6073  1.2839 -0.9642
  212MOL0     H27958   5.070   9.622   4.599  0.2325  0.5536 -2.9994
  212MOL0     H27959   5.076   9.784   4.634 -0.9238 -0.9739 -0.9587
  212MOL0     H27960   5.269   9.567   4.734 -0.1185 -0.3716  1.9641
  212MOL0     H27961   5.144   9.660   4.825  0.1609  1.2086  1.3014
  212MOL0     H27962   5.383   9.726   4.865  0.4032  1.4810  0.6496
  212MOL0     H27963   5.380   9.813   4.714  1.6590  0.4673  1.2199
  212MOL0     H27964   5.328   9.934   4.929 -0.9394  0.7413 -1.1214
  212MOL0     H27965   5.203   9.817   4.969  0.6366  0.7050  1.0666
  212MOL0     H27966   5.616   9.337   4.228 -0.3423  0.9661 -0.2495
  212MOL0     H27967   5.788   9.198   4.098 -0.7710  0.9303 -2.2878
  212MOL0     H27968   6.077   9.015   3.898 -0.6424 -1.5358 -0.6018
  212MOL0     H27969   6.165   8.841   3.731  2.1420 -0.7016 -0.8556
  212MOL0     H27970   6.851   8.329   2.511  0.5705 -0.8703  2.2586
  212MOL0     H27971   6.827   8.474   2.326  0.4865  4.5463 -0.9003
  212MOL0     H27972   6.861   8.781   2.106 -0.4019 -2.9194 -1.3204
  212MOL0     H27973   6.784   8.964   1.941  1.5904  3.1658  1.1543
  212MOL0     H27974   7.041   9.160   1.605 -1.1376  3.2913 -0.5683
  212MOL0     H27975   7.109   9.158   1.767 -0.1714  0.2402 -0.6586
  212MOL0     H27976   6.833   9.264   1.711 -1.2196  3.0904 -1.3032
  212MOL0     H27977   6.903   9.261   1.858 -1.1761 -3.1801 -0.9753
  212MOL0     H27978   7.097   9.374   1.661  0.7506 -3.1826  1.3402
  212MOL0     H27979   7.007   9.474   1.788  0.5353 -0.4678  0.5273
  212MOL0     H27980   6.820   9.515   1.632  1.2347  1.1564  2.4312
  212MOL0     H27981   6.977   9.565   1.574  3.1754 -2.8256 -0.0579
  212MOL0     H27982   6.825   9.244   1.316 -0.1773  0.3116 -0.7455
  212MOL0     H27983   7.168   8.929   1.751 -0.8622 -2.6961 -1.5981
  212MOL0     H27984   7.256   8.798   1.913 -0.1481 -0.0713 -0.2927
  213MOL0     O27985  10.622   9.395   5.669 -0.2936 -0.0913  0.1113
  213MOL0     C27986  10.525   9.432   5.603  0.2746 -0.4485 -0.0424
  213MOL0     O27987  10.517   9.441   5.466  0.0282 -0.2947 -0.5987
  213MOL0     C27988  10.636   9.390   5.399  0.0288  0.1115 -0.1653
  213MOL0     C27989  10.738   9.478   5.381  0.7255  0.0259 -0.6907
  213MOL0     C27990  10.846   9.447   5.302 -0.5526  0.1506  0.3414
  213MOL0     C27991  10.850   9.323   5.244 -0.0879  0.4924 -0.1963
  213MOL0     O27992  10.952   9.279   5.162 -0.1154  0.1580 -0.0852
  213MOL0     C27993  11.075   9.357   5.160 -0.5477  0.2534  0.1968
  213MOL0     C27994  11.070   9.453   5.039  1.2951  0.6415  0.9051
  213MOL0     C27995  11.207   9.513   5.029 -0.0971 -0.0027 -0.2250
  213MOL0     C27996  11.221   9.626   4.926 -0.4514  0.8570 -0.3040
  213MOL0     C27997  11.363   9.676   4.912 -0.7628  1.1793 -0.2466
  213MOL0     C27998  11.470   9.568   4.888  0.6531  1.8506  0.2861
  213MOL0     C27999  11.607   9.624   4.905 -0.1772  0.9996 -0.3983
  213MOL0     C28000  11.708   9.510   4.913 -0.0757  0.2727 -0.3270
  213MOL0     N28001  11.708   9.429   4.790  0.1010 -0.6821  0.3643
  213MOL0     C28002  11.669   9.303   4.774  0.4624 -0.3005 -0.5519
  213MOL0     C28003  11.675   9.278   4.641 -0.5482 -0.7780  0.5741
  213MOL0     C28004  11.650   9.154   4.561  1.2032  0.0501 -0.4702
  213MOL0     C28005  11.771   9.065   4.552  0.4996 -0.8507 -0.9438
  213MOL0     C28006  11.877   9.145   4.468  0.5707 -0.1835 -0.6079
  213MOL0     C28007  12.002   9.064   4.453  0.1074  0.6237 -0.0755
  213MOL0     O28008  12.101   9.113   4.361 -0.0087 -0.0221  0.1483
  213MOL0     C28009  12.230   9.089   4.368 -0.2640  0.3680  0.7501
  213MOL0     C28010  12.300   9.065   4.485 -0.1782  0.2225  0.0620
  213MOL0     C28011  12.437   9.018   4.472 -0.3737 -0.5394 -0.8587
  213MOL0     C28012  12.517   9.049   4.354 -0.2108  0.3247 -0.4611
  213MOL0     C28013  12.661   9.021   4.356  0.1253 -0.5987  0.3120
  213MOL0     O28014  12.712   8.911   4.419  0.1308 -0.3578 -0.4748
  213MOL0     C28015  12.841   8.887   4.431 -0.7709 -0.1566  0.3210
  213MOL0     C28016  12.931   8.888   4.321 -0.3641 -0.0924 -0.0149
  213MOL0     C28017  13.065   8.846   4.334 -0.0177  0.1831  0.0192
  213MOL0     C28018  13.112   8.799   4.456  0.4394 -1.2007 -0.6450
  213MOL0     O28019  13.247   8.760   4.459 -0.7557 -0.3223  0.4721
  213MOL0     C28020  13.356   8.829   4.382 -0.9223 -0.2491  0.6043
  213MOL0     C28021  13.495   8.773   4.426  0.7364 -0.1877 -0.2315
  213MOL0     C28022  13.546   8.788   4.567 -0.5023 -0.4510 -0.1954
  213MOL0     C28023  13.570   8.945   4.598 -0.2065  0.3933 -0.5111
  213MOL0     C28024  13.660   8.981   4.717 -0.6233  0.8022  0.2018
  213MOL0     C28025  13.806   8.960   4.677  0.8253  0.1229 -0.3033
  213MOL0     C28026  13.903   8.937   4.797  0.1645 -0.4166  0.3937
  213MOL0     C28027  14.025   9.023   4.771  0.0512  0.9527  0.2887
  213MOL0    Cl28028  14.122   8.947   4.639 -0.0823  0.1047 -0.6531
  213MOL0     C28029  13.032   8.789   4.562  0.5638  0.0972  0.2812
  213MOL0     C28030  12.898   8.844   4.549 -0.3657  0.6948  0.5408
  213MOL0     O28031  12.721   9.096   4.281 -1.0114 -0.6273  0.2583
  213MOL0     C28032  12.443   9.096   4.243  0.5680 -0.2519  0.0166
  213MOL0     C28033  12.304   9.125   4.256 -0.0775 -0.5908 -0.1472
  213MOL0     N28034  11.722   9.394   4.581 -0.6666 -0.9629 -0.5316
  213MOL0     N28035  11.741   9.484   4.673  0.2027 -0.7399 -0.1124
  213MOL0     C28036  10.746   9.234   5.273 -0.6702  0.3403 -0.3493
  213MOL0     C28037  10.640   9.268   5.350 -0.5334  0.0494 -0.2821
  213MOL0     C28038  10.398   9.447   5.674  0.8681  0.5000  0.8067
  213MOL0     C28039  10.295   9.511   5.611  0.6730 -0.4202  0.1953
  213MOL0     C28040  10.174   9.520   5.678 -0.1409 -0.1512  0.5970
  213MOL0     C28041  10.148   9.468   5.804 -0.6684  0.4289  0.2356
  213MOL0     O28042  10.023   9.484   5.861 -0.0481 -0.0239  0.6316
  213MOL0     C28043   9.928   9.406   5.786  0.3436  0.7690 -0.1644
  213MOL0     C28044   9.873   9.286   5.861  0.6190 -0.5389 -0.3430
  213MOL0     C28045   9.776   9.330   5.977 -0.0962 -0.0630  0.4471
  213MOL0     C28046   9.667   9.213   5.998 -0.1636 -1.0248 -0.1275
  213MOL0     C28047   9.608   9.217   6.125  1.0392  1.3354 -0.4782
  213MOL0     C28048   9.564   9.239   6.242  0.6043 -0.1832 -0.3216
  213MOL0     C28049  10.257   9.421   5.879 -0.5779  0.2049 -0.0536
  213MOL0     C28050  10.385   9.405   5.810 -0.3372  0.7416 -0.8572
  213MOL0     H28051  10.731   9.581   5.413  1.1825 -0.0643 -0.2874
  213MOL0     H28052  10.923   9.524   5.299 -2.3683  2.1255 -3.9758
  213MOL0     H28053  11.160   9.291   5.143  0.4133  1.3738  0.4859
  213MOL0     H28054  11.092   9.389   5.264  2.5670  0.6466 -0.3433
  213MOL0     H28055  10.998   9.535   5.040  0.8686  0.2890 -0.2222
  213MOL0     H28056  11.051   9.396   4.948  1.0448 -1.8953  2.4593
  213MOL0     H28057  11.281   9.438   5.000  0.3871  0.1702  0.5263
  213MOL0     H28058  11.232   9.557   5.126 -0.1029 -2.2564  0.8556
  213MOL0     H28059  11.189   9.588   4.829  1.9309 -1.1314 -0.4038
  213MOL0     H28060  11.155   9.711   4.948 -2.4208 -0.5029 -0.7634
  213MOL0     H28061  11.382   9.722   5.009 -2.0387 -0.5654  0.8779
  213MOL0     H28062  11.365   9.755   4.836  3.7821  0.4924 -1.1613
  213MOL0     H28063  11.454   9.533   4.785  1.6703  2.2954 -0.0346
  213MOL0     H28064  11.459   9.482   4.955 -0.0782  1.7634  0.0612
  213MOL0     H28065  11.633   9.696   4.827 -0.4717  0.5188 -0.9413
  213MOL0     H28066  11.610   9.676   5.002  0.1767 -0.6831  0.5258
  213MOL0     H28067  11.674   9.446   4.994 -2.3796 -0.7035 -1.9670
  213MOL0     H28068  11.809   9.551   4.917 -0.1456  0.5021 -0.8091
  213MOL0     H28069  11.654   9.231   4.854  1.9623 -2.1760 -1.8658
  213MOL0     H28070  11.604   9.190   4.468  0.8085  5.0906  1.3936
  213MOL0     H28071  11.568   9.108   4.618 -1.1421  3.2125 -1.0134
  213MOL0     H28072  11.740   8.977   4.495  0.4136 -0.8935 -0.8290
  213MOL0     H28073  11.804   9.042   4.654 -5.7621 -4.3311  0.7996
  213MOL0     H28074  11.838   9.152   4.366  0.5120 -3.5005 -0.9117
  213MOL0     H28075  11.912   9.243   4.503  3.0633 -1.2487  0.0415
  213MOL0     H28076  11.978   8.965   4.413  1.1450  0.1493  0.4154
  213MOL0     H28077  12.038   9.053   4.556 -0.2292 -0.6022 -0.0714
  213MOL0     H28078  12.243   9.053   4.577  1.1837 -0.8743  0.7966
  213MOL0     H28079  12.496   8.982   4.556  3.9989  0.7216 -3.0544
  213MOL0     H28080  12.896   8.913   4.222 -0.6327 -0.1479  0.0639
  213MOL0     H28081  13.118   8.853   4.240  0.0204 -2.6192 -0.2481
  213MOL0     H28082  13.358   8.935   4.409 -1.3120  0.7308 -2.7739
  213MOL0     H28083  13.341   8.819   4.274 -0.1285 -1.2202  0.5679
  213MOL0     H28084  13.569   8.810   4.354 -0.0131 -2.4131 -2.2646
  213MOL0     H28085  13.490   8.671   4.388  1.7799 -0.7944  1.1794
  213MOL0     H28086  13.639   8.732   4.578  0.2743  0.2857 -2.3758
  213MOL0     H28087  13.467   8.747   4.631  0.3260  0.1424  1.2522
  213MOL0     H28088  13.612   8.998   4.512 -1.4252  2.5961  0.1542
  213MOL0     H28089  13.466   8.977   4.610 -0.6173 -1.4451  1.6444
  213MOL0     H28090  13.631   8.906   4.791 -2.2751 -0.1505 -1.3169
  213MOL0     H28091  13.646   9.084   4.752  1.4792  0.4931  2.1327
  213MOL0     H28092  13.833   9.046   4.615 -0.3766  2.2949  1.9968
  213MOL0     H28093  13.815   8.866   4.622 -1.8733  0.4110 -1.4125
  213MOL0     H28094  13.863   8.955   4.897 -0.2865  1.0383 -0.0339
  213MOL0     H28095  13.933   8.832   4.798  0.5628 -0.4772 -3.3314
  213MOL0     H28096  14.095   9.041   4.853  3.6917  1.9017 -2.7000
  213MOL0     H28097  13.981   9.118   4.737 -2.5162 -0.4838 -0.6785
  213MOL0     H28098  13.075   8.756   4.655  1.1767 -1.1177 -0.4193
  213MOL0     H28099  12.832   8.848   4.635  0.7151 -1.9430  1.5714
  213MOL0     H28100  12.494   9.123   4.152  0.1184 -2.0640 -0.8149
  213MOL0     H28101  12.234   9.151   4.177  0.0069  3.1370  0.8486
  213MOL0     H28102  10.737   9.143   5.213 -0.1114  1.5489 -2.3832
  213MOL0     H28103  10.558   9.198   5.355  0.0300 -0.7957 -1.9836
  213MOL0     H28104  10.304   9.558   5.513 -1.6533  0.3304  0.2694
  213MOL0     H28105  10.092   9.569   5.627  1.4680 -0.2236 -2.2688
  213MOL0     H28106   9.974   9.361   5.698 -0.1352 -0.0978  0.0256
  213MOL0     H28107   9.843   9.468   5.757 -0.7452 -0.4869  0.2587
  213MOL0     H28108   9.817   9.228   5.787 -1.8436 -1.5677  2.1050
  213MOL0     H28109   9.953   9.227   5.907 -0.3684 -0.8205  1.0947
  213MOL0     H28110   9.728   9.421   5.940 -1.1141 -0.3206  1.1143
  213MOL0     H28111   9.833   9.357   6.066 -0.5854  1.5400  0.3059
  213MOL0     H28112   9.594   9.218   5.916  1.4123 -1.2698 -1.6030
  213MOL0     H28113   9.716   9.117   5.982 -0.4018 -1.3658  1.1017
  213MOL0     H28114   9.525   9.261   6.339  1.9806  1.3705 -0.0670
  213MOL0     H28115  10.236   9.378   5.976 -2.0185  0.7325 -0.1064
  213MOL0     H28116  10.467   9.347   5.849  1.2917  3.1380 -0.5275
  214MOL0     O28117   4.378   3.722   1.907  0.2809  0.1381  0.6994
  214MOL0     C28118   4.476   3.786   1.933  0.6242  0.2739 -0.5343
  214MOL0     O28119   4.494   3.849   2.051 -0.0394  0.6277 -0.1779
  214MOL0     C28120   4.392   3.847   2.145 -0.3020 -0.3240  1.5047
  214MOL0     C28121   4.355   3.720   2.202  0.1953  0.0301  0.1800
  214MOL0     C28122   4.241   3.708   2.281  0.8304  0.0004  0.3137
  214MOL0     C28123   4.157   3.818   2.315  0.2075  0.1822  1.2874
  214MOL0     O28124   4.049   3.798   2.394 -0.6581 -0.0195  0.4645
  214MOL0     C28125   4.011   3.910   2.485 -0.4329 -0.0237  0.5474
  214MOL0     C28126   3.927   3.865   2.603 -0.0207  0.2020 -0.1755
  214MOL0     C28127   3.839   3.971   2.668  0.7499 -1.3467 -0.0455
  214MOL0     C28128   3.716   4.005   2.585  0.0291  0.1983  0.4194
  214MOL0     C28129   3.648   4.130   2.627  0.1512  0.1733  0.6464
  214MOL0     C28130   3.732   4.257   2.608 -0.8407 -0.5136 -0.2031
  214MOL0     C28131   3.796   4.277   2.470  0.2404 -0.3504 -0.3561
  214MOL0     C28132   3.792   4.429   2.437  1.0373 -0.9176 -0.1644
  214MOL0     N28133   3.651   4.478   2.427  0.3997 -0.1550 -0.0786
  214MOL0     C28134   3.547   4.426   2.353  0.0600 -0.1417 -0.3348
  214MOL0     C28135   3.438   4.506   2.372 -0.2435 -0.1468 -0.0997
  214MOL0     C28136   3.302   4.511   2.314 -0.7863  0.7335  0.1805
  214MOL0     C28137   3.188   4.441   2.382  0.8783 -1.1007 -0.8802
  214MOL0     C28138   3.155   4.489   2.521  0.5031 -0.0879 -0.3179
  214MOL0     C28139   3.063   4.383   2.571  0.3572 -0.2033 -0.5472
  214MOL0     O28140   2.934   4.372   2.508 -0.7085 -0.1697 -0.1381
  214MOL0     C28141   2.816   4.379   2.582 -0.3685 -0.0718 -0.6416
  214MOL0     C28142   2.804   4.329   2.710  0.4289  0.3023  0.0463
  214MOL0     C28143   2.684   4.347   2.784  0.2157  0.4859 -1.0778
  214MOL0     C28144   2.576   4.414   2.730 -0.1755  0.6394  0.1988
  214MOL0     C28145   2.449   4.426   2.803 -0.2826 -0.1020 -0.4439
  214MOL0     O28146   2.350   4.499   2.745  0.3086 -1.0978 -0.6325
  214MOL0     C28147   2.242   4.536   2.817  0.6187 -0.1357 -0.7069
  214MOL0     C28148   2.253   4.604   2.940 -0.6224  0.2105 -0.3372
  214MOL0     C28149   2.137   4.634   3.019  0.2058 -0.7094  0.4146
  214MOL0     C28150   2.003   4.625   2.968 -0.2787 -0.0788  0.2275
  214MOL0     O28151   1.898   4.660   3.045 -0.3013 -0.0020 -0.5310
  214MOL0     C28152   1.807   4.551   3.053 -0.3805  0.0701  0.4699
  214MOL0     C28153   1.836   4.434   3.153 -0.0142 -0.6157  0.3127
  214MOL0     C28154   1.966   4.362   3.142 -0.2799 -0.6871  0.6247
  214MOL0     C28155   1.964   4.290   3.018  0.4604  0.8299 -0.0021
  214MOL0     C28156   2.098   4.215   2.991  0.2590  0.1198  0.3342
  214MOL0     C28157   2.148   4.134   3.110 -0.4752 -0.6367 -0.2867
  214MOL0     C28158   2.270   4.051   3.064 -0.4968 -0.6536 -0.3365
  214MOL0     C28159   2.349   4.021   3.201  0.5314  0.5511  0.4408
  214MOL0    Cl28160   2.233   3.936   3.304  0.2993  0.0326 -0.1552
  214MOL0     C28161   1.995   4.594   2.831 -0.0965  0.5370  0.2226
  214MOL0     C28162   2.111   4.545   2.760  0.3959  0.9740 -1.1148
  214MOL0     O28163   2.441   4.372   2.907  0.3185 -0.4851  0.2388
  214MOL0     C28164   2.591   4.459   2.600 -0.4252  0.2138 -0.3736
  214MOL0     C28165   2.712   4.447   2.532  0.2790  1.1221  0.3879
  214MOL0     N28166   3.478   4.599   2.466 -0.5244  0.8890  0.0310
  214MOL0     N28167   3.602   4.582   2.504  1.1315 -0.0958  0.1652
  214MOL0     C28168   4.214   3.947   2.283 -0.5278  0.1453  0.4450
  214MOL0     C28169   4.327   3.964   2.196 -0.7170 -0.5386 -0.1682
  214MOL0     C28170   4.570   3.783   1.825 -0.4573  0.9027 -0.1808
  214MOL0     C28171   4.705   3.808   1.849  0.1564 -1.0665  0.1799
  214MOL0     C28172   4.798   3.799   1.743  0.9745 -0.3862 -0.2023
  214MOL0     C28173   4.755   3.774   1.609  0.2149  0.1892 -0.1026
  214MOL0     O28174   4.855   3.770   1.520 -0.3634 -0.0280  0.4180
  214MOL0     C28175   4.829   3.748   1.378  1.2019  0.3445 -0.3690
  214MOL0     C28176   4.826   3.598   1.347 -1.6506 -0.8211 -0.8793
  214MOL0     C28177   4.770   3.490   1.444 -0.0049  0.8531 -0.0258
  214MOL0     C28178   4.790   3.341   1.379 -0.6353 -0.2021 -0.4645
  214MOL0     C28179   4.738   3.244   1.470  0.2414 -0.4894  0.1166
  214MOL0     C28180   4.709   3.157   1.552  0.3404 -0.8980  0.8313
  214MOL0     C28181   4.614   3.764   1.583  0.4375 -0.5850 -0.4555
  214MOL0     C28182   4.526   3.774   1.683  0.6283 -0.3479  0.1840
  214MOL0     H28183   4.401   3.628   2.167 -2.5989  0.5716 -6.1814
  214MOL0     H28184   4.206   3.610   2.310 -2.0552  0.6728 -0.5569
  214MOL0     H28185   3.954   3.974   2.418  1.1945  0.1569 -0.7180
  214MOL0     H28186   4.088   3.974   2.529 -2.2439  1.2146  2.0865
  214MOL0     H28187   3.989   3.835   2.688 -0.5203  0.5288  0.3113
  214MOL0     H28188   3.859   3.784   2.573 -2.3040  2.3876 -1.2647
  214MOL0     H28189   3.899   4.060   2.687 -2.9608  1.3599  0.1514
  214MOL0     H28190   3.794   3.932   2.760 -2.0947  2.5531  0.5098
  214MOL0     H28191   3.737   4.007   2.478  0.8018  3.6989  0.5181
  214MOL0     H28192   3.643   3.924   2.595 -1.3563  0.7266 -3.6441
  214MOL0     H28193   3.625   4.134   2.733  0.6422 -1.5549  0.8458
  214MOL0     H28194   3.554   4.130   2.571 -0.9059  2.2095  2.3032
  214MOL0     H28195   3.801   4.264   2.692 -4.2278 -1.0679  2.8686
  214MOL0     H28196   3.666   4.338   2.642 -1.6093 -2.0511  2.2012
  214MOL0     H28197   3.898   4.244   2.454  0.0829 -0.6890 -0.6692
  214MOL0     H28198   3.730   4.222   2.402 -0.6435 -2.4405  2.0251
  214MOL0     H28199   3.840   4.462   2.344 -0.3861  1.2896 -0.1867
  214MOL0     H28200   3.852   4.479   2.514 -2.2469  0.4024  1.7422
  214MOL0     H28201   3.540   4.343   2.283  1.3727  0.7160 -1.5197
  214MOL0     H28202   3.316   4.465   2.216 -1.3219 -0.9040  0.8373
  214MOL0     H28203   3.274   4.611   2.278  1.7172  1.3535 -0.2776
  214MOL0     H28204   3.218   4.336   2.376  2.5572 -0.7615  0.8394
  214MOL0     H28205   3.101   4.454   2.316 -0.5081 -0.8851  0.9219
  214MOL0     H28206   3.248   4.494   2.577  0.7025  1.3179 -0.7266
  214MOL0     H28207   3.111   4.589   2.517 -2.6679 -1.3814 -1.2891
  214MOL0     H28208   3.056   4.405   2.678  0.7527  1.5088 -0.8398
  214MOL0     H28209   3.111   4.286   2.562  0.4283 -0.1215 -1.0716
  214MOL0     H28210   2.891   4.286   2.758  1.3043  1.0783 -0.8090
  214MOL0     H28211   2.675   4.289   2.876 -2.3151 -0.7487 -2.0019
  214MOL0     H28212   2.349   4.630   2.984 -1.0074  0.5545  0.3185
  214MOL0     H28213   2.154   4.675   3.117  1.6959  1.1835 -0.5645
  214MOL0     H28214   1.780   4.510   2.955  3.6792 -3.8385  0.6547
  214MOL0     H28215   1.727   4.591   3.116 -0.7229 -0.4535  0.3719
  214MOL0     H28216   1.742   4.381   3.135  0.0371  0.1674 -2.8926
  214MOL0     H28217   1.826   4.460   3.258  1.1325  0.7989  0.1030
  214MOL0     H28218   1.975   4.288   3.222  0.8213  0.5668  1.7204
  214MOL0     H28219   2.059   4.419   3.153  0.7449 -1.9529 -0.9804
  214MOL0     H28220   1.880   4.221   3.008  1.0265  0.3396 -1.9260
  214MOL0     H28221   1.952   4.355   2.931  2.3845  3.4788  1.5610
  214MOL0     H28222   2.173   4.289   2.963 -1.3390  1.0094 -1.8764
  214MOL0     H28223   2.083   4.151   2.904 -2.9177 -2.6468  2.6459
  214MOL0     H28224   2.070   4.067   3.146  0.3347 -2.3931 -1.6808
  214MOL0     H28225   2.175   4.203   3.190  2.6914 -1.1119 -0.8195
  214MOL0     H28226   2.247   3.955   3.017  0.5294 -1.1686  0.1778
  214MOL0     H28227   2.334   4.105   2.993 -1.5634  1.4108  0.1950
  214MOL0     H28228   2.386   4.111   3.251  2.6276  0.4148 -0.7337
  214MOL0     H28229   2.430   3.949   3.182 -0.0515 -0.5424  1.9349
  214MOL0     H28230   1.899   4.600   2.780 -0.0639 -1.2654 -0.0824
  214MOL0     H28231   2.093   4.516   2.657  0.8894 -0.0432 -0.9301
  214MOL0     H28232   2.510   4.505   2.544 -2.1229 -1.7892  0.3010
  214MOL0     H28233   2.730   4.481   2.431  2.1564 -1.1311 -0.1375
  214MOL0     H28234   4.143   4.027   2.303 -1.6992 -0.8943  0.5485
  214MOL0     H28235   4.362   4.061   2.162  0.9183 -0.5573  1.3085
  214MOL0     H28236   4.741   3.838   1.946  1.2618 -0.0130 -0.5352
  214MOL0     H28237   4.903   3.816   1.762  0.8363  0.8915 -0.5185
  214MOL0     H28238   4.901   3.804   1.317  0.5129  0.2036 -1.3302
  214MOL0     H28239   4.734   3.790   1.345  0.6016 -0.2914  0.5184
  214MOL0     H28240   4.775   3.575   1.253 -2.0024 -1.3711 -0.5568
  214MOL0     H28241   4.931   3.590   1.318 -1.8013 -0.1500 -1.6404
  214MOL0     H28242   4.662   3.510   1.447 -0.3693 -0.8587 -0.8110
  214MOL0     H28243   4.810   3.502   1.545 -1.2592 -0.1123  0.6099
  214MOL0     H28244   4.744   3.344   1.280 -0.1645 -1.7465 -0.7491
  214MOL0     H28245   4.897   3.324   1.366 -0.3388  0.8588  0.4391
  214MOL0     H28246   4.684   3.094   1.636 -1.5742 -1.0950  0.1765
  214MOL0     H28247   4.569   3.739   1.488 -2.4006  0.3517  0.5292
  214MOL0     H28248   4.420   3.768   1.665  0.9328  0.1086 -1.9722
  215MOL0     O28249   5.218   2.440   7.507  0.2538  0.3381 -0.3410
  215MOL0     C28250   5.117   2.512   7.514 -0.1479 -0.4407  0.1993
  215MOL0     O28251   5.049   2.544   7.628 -0.3905 -0.6300  0.1427
  215MOL0     C28252   5.068   2.467   7.748  0.2019 -0.5529 -0.6836
  215MOL0     C28253   4.951   2.455   7.831 -0.6613 -0.4427  0.4297
  215MOL0     C28254   4.943   2.403   7.958 -0.5888 -1.3151 -0.9932
  215MOL0     C28255   5.067   2.352   8.016 -0.8412 -0.2175  0.9124
  215MOL0     O28256   5.081   2.290   8.137  0.0823  0.2420  0.1301
  215MOL0     C28257   5.010   2.349   8.249  0.8498 -0.6048 -0.4528
  215MOL0     C28258   5.043   2.282   8.391  0.3244  0.5620 -0.4570
  215MOL0     C28259   5.152   2.178   8.412 -0.3469  0.0353  0.0213
  215MOL0     C28260   5.120   2.100   8.537 -0.4842 -0.7171  0.2509
  215MOL0     C28261   5.211   1.976   8.542  0.2626 -0.2213 -0.1050
  215MOL0     C28262   5.196   1.879   8.651 -0.2898 -0.3327  0.1673
  215MOL0     C28263   5.200   1.945   8.793 -0.3087 -0.0520 -0.1466
  215MOL0     C28264   5.224   1.857   8.912 -0.0000 -0.5099  0.2235
  215MOL0     N28265   5.215   1.938   9.033  0.4219 -1.2323  0.0483
  215MOL0     C28266   5.091   1.962   9.101 -0.0110 -0.4057 -0.1359
  215MOL0     C28267   5.132   2.034   9.210 -0.2347 -0.8200 -0.6317
  215MOL0     C28268   5.045   2.088   9.320  0.1052 -0.6837 -0.2455
  215MOL0     C28269   5.097   2.067   9.470  0.2472 -0.3034  0.1742
  215MOL0     C28270   5.031   2.175   9.564  0.7595 -1.1781 -0.2359
  215MOL0     C28271   5.067   2.152   9.713  0.7593 -0.7004 -0.1870
  215MOL0     O28272   4.993   2.051   9.786 -0.0903  0.2326  0.2945
  215MOL0     C28273   4.860   2.055   9.791 -0.3582 -1.0163 -0.7010
  215MOL0     C28274   4.794   1.944   9.833  0.3968  0.0740 -0.3053
  215MOL0     C28275   4.658   1.932   9.866  0.6886 -0.0619 -0.9548
  215MOL0     C28276   4.574   2.044   9.847 -0.3567 -0.9023  0.2448
  215MOL0     C28277   4.433   2.031   9.875 -0.2343  0.0989 -0.3277
  215MOL0     O28278   4.392   1.905   9.927  0.1084  0.3461 -0.3467
  215MOL0     C28279   4.262   1.900   9.961 -0.0672 -0.2625  0.5588
  215MOL0     C28280   4.162   1.895   9.865 -0.7493  0.1092 -1.2595
  215MOL0     C28281   4.030   1.882   9.913  0.8665  0.4609  0.6931
  215MOL0     C28282   3.995   1.878  10.043 -0.6312 -0.1127  0.4871
  215MOL0     O28283   3.863   1.881  10.056  0.4737 -0.2234 -0.2421
  215MOL0     C28284   3.809   1.879  10.189 -0.4874  0.7634 -0.6432
  215MOL0     C28285   3.664   1.839  10.180  0.2179  0.2671  0.1183
  215MOL0     C28286   3.574   1.921  10.075 -0.5133  0.1991 -0.6929
  215MOL0     C28287   3.440   1.849  10.052 -0.3187  1.0938 -0.4033
  215MOL0     C28288   3.371   1.886   9.921  0.8478 -0.4443  0.5406
  215MOL0     C28289   3.452   1.865   9.788 -0.3522  0.5483  0.1769
  215MOL0     C28290   3.366   1.872   9.663 -0.3405  0.0506  0.6184
  215MOL0     C28291   3.331   2.022   9.645 -0.2735  0.8217 -0.3095
  215MOL0    Cl28292   3.232   2.038   9.493  0.1379 -0.0006  0.1848
  215MOL0     C28293   4.102   1.890  10.136  0.6167 -1.0650 -0.5233
  215MOL0     C28294   4.230   1.902  10.100 -0.4304  0.2580  0.5720
  215MOL0     O28295   4.357   2.119   9.836 -0.5856  0.0541 -0.5933
  215MOL0     C28296   4.636   2.168   9.808 -0.5161 -0.3637  0.2707
  215MOL0     C28297   4.774   2.167   9.774 -0.5630  0.2393 -0.2362
  215MOL0     N28298   5.276   2.046   9.215  0.2216  0.5062  0.3204
  215MOL0     N28299   5.312   2.013   9.091  0.2799 -1.4662 -0.2306
  215MOL0     C28300   5.188   2.361   7.938 -0.1738 -0.2963  0.5057
  215MOL0     C28301   5.186   2.414   7.803  0.2340 -0.8115 -0.3641
  215MOL0     C28302   5.072   2.591   7.400 -0.0135  0.1453  0.3015
  215MOL0     C28303   5.151   2.611   7.289  0.0838  0.1891 -0.8842
  215MOL0     C28304   5.104   2.675   7.173 -0.0646 -0.0895  0.2448
  215MOL0     C28305   4.978   2.729   7.163  1.0681  0.0174 -0.5681
  215MOL0     O28306   4.939   2.806   7.059 -0.5026 -0.0825  0.2122
  215MOL0     C28307   4.800   2.846   7.045 -0.2738 -0.0704  0.2776
  215MOL0     C28308   4.788   2.926   6.912  0.2914  0.9762 -0.3265
  215MOL0     C28309   4.831   3.077   6.921  0.2300 -0.6566  0.1086
  215MOL0     C28310   4.832   3.149   6.782 -0.7569  0.4139 -0.2226
  215MOL0     C28311   4.698   3.181   6.745  0.2402  0.5132  0.3926
  215MOL0     C28312   4.581   3.196   6.720  0.1003  1.1067 -0.0360
  215MOL0     C28313   4.894   2.704   7.271  0.5418 -0.1325  0.5140
  215MOL0     C28314   4.936   2.642   7.386  0.3916 -0.4453  0.5954
  215MOL0     H28315   4.857   2.502   7.801  0.0764  2.4916  2.3174
  215MOL0     H28316   4.845   2.399   8.004 -1.4754  1.4961 -2.3921
  215MOL0     H28317   4.902   2.342   8.233  0.2702  1.5090  1.8243
  215MOL0     H28318   5.029   2.456   8.260  2.1964 -0.8467 -0.2314
  215MOL0     H28319   4.948   2.233   8.416  0.4031  0.4893 -0.3046
  215MOL0     H28320   5.058   2.367   8.458 -0.8903  1.0439 -0.7649
  215MOL0     H28321   5.251   2.221   8.427 -1.0370  2.0787 -0.8935
  215MOL0     H28322   5.164   2.112   8.326 -1.7452  1.1051 -1.0508
  215MOL0     H28323   5.130   2.153   8.632 -0.6870 -3.1894  1.7571
  215MOL0     H28324   5.019   2.062   8.555  0.2388 -1.4354  3.5079
  215MOL0     H28325   5.316   2.007   8.545  0.4823 -1.0232  1.0868
  215MOL0     H28326   5.197   1.917   8.451 -0.3061 -2.8363  1.5680
  215MOL0     H28327   5.275   1.803   8.641 -1.9243 -1.9914 -0.7682
  215MOL0     H28328   5.094   1.842   8.641 -0.5765 -0.6951  3.2561
  215MOL0     H28329   5.263   2.034   8.786 -2.0402  1.2210  0.0070
  215MOL0     H28330   5.097   1.978   8.802 -0.3099 -0.1986  0.3926
  215MOL0     H28331   5.326   1.819   8.910 -0.0584 -0.6619 -1.8660
  215MOL0     H28332   5.152   1.775   8.910 -1.2774  0.5573 -2.9096
  215MOL0     H28333   4.989   1.929   9.084 -0.0739 -0.9235  1.1757
  215MOL0     H28334   4.945   2.043   9.318 -2.3154  3.6949  3.3431
  215MOL0     H28335   5.035   2.195   9.299 -1.3190 -1.0258 -1.5556
  215MOL0     H28336   5.205   2.083   9.459  0.2324  0.7866  1.4045
  215MOL0     H28337   5.072   1.965   9.501  0.2327  0.0061  1.2264
  215MOL0     H28338   5.064   2.276   9.537  0.1684 -1.2402 -1.2064
  215MOL0     H28339   4.922   2.178   9.562  0.7738  1.1842 -0.2415
  215MOL0     H28340   5.054   2.245   9.769  3.3535 -0.9915  1.0369
  215MOL0     H28341   5.174   2.140   9.727  0.5189 -0.9248  1.8104
  215MOL0     H28342   4.855   1.859   9.864 -1.5858  0.0247  4.1321
  215MOL0     H28343   4.619   1.834   9.892 -0.6151 -0.0501 -2.6598
  215MOL0     H28344   4.178   1.893   9.758  1.0010  0.9040 -1.0461
  215MOL0     H28345   3.956   1.871   9.835  1.3649 -1.6304  0.4736
  215MOL0     H28346   3.813   1.984  10.219  1.1050  0.7293 -0.6492
  215MOL0     H28347   3.855   1.816  10.266 -1.8339 -0.0464 -0.4700
  215MOL0     H28348   3.619   1.849  10.279 -0.2356 -1.4373  0.1175
  215MOL0     H28349   3.659   1.730  10.167 -0.6504  0.0053  2.2189
  215MOL0     H28350   3.623   1.932   9.978  2.1196 -1.1631  0.3921
  215MOL0     H28351   3.558   2.015  10.129 -0.0698 -0.4953  0.7066
  215MOL0     H28352   3.452   1.741  10.035  0.3551  1.3073 -1.4021
  215MOL0     H28353   3.364   1.864  10.130 -1.5803 -0.1648 -1.3381
  215MOL0     H28354   3.355   1.994   9.932  1.6407 -0.1586 -0.8565
  215MOL0     H28355   3.275   1.835   9.910  0.2627  0.8444 -0.6729
  215MOL0     H28356   3.487   1.761   9.787 -3.4553 -0.6980 -3.4757
  215MOL0     H28357   3.541   1.927   9.772 -0.3444 -0.0802 -2.7984
  215MOL0     H28358   3.422   1.838   9.575 -2.2652  0.6691 -0.9331
  215MOL0     H28359   3.278   1.810   9.682  0.1589 -0.1623  2.3632
  215MOL0     H28360   3.418   2.088   9.644  0.2025  0.2062  0.1111
  215MOL0     H28361   3.268   2.031   9.733  2.2454 -5.6010  2.8072
  215MOL0     H28362   4.074   1.888  10.240  0.1699  1.9345 -0.5111
  215MOL0     H28363   4.302   1.926  10.178  0.6931  0.2149 -0.4243
  215MOL0     H28364   4.580   2.261   9.813 -1.3535 -0.9284  1.9377
  215MOL0     H28365   4.816   2.266   9.758 -3.6842  2.3715  3.1800
  215MOL0     H28366   5.285   2.325   7.973 -0.3441  0.5971  1.9776
  215MOL0     H28367   5.274   2.397   7.743  0.1267 -3.1871  0.0605
  215MOL0     H28368   5.253   2.574   7.293  0.3619  0.9929  2.6021
  215MOL0     H28369   5.182   2.680   7.097 -0.1849  1.8953  0.2115
  215MOL0     H28370   4.775   2.909   7.131  2.1446 -1.0240  1.7866
  215MOL0     H28371   4.744   2.753   7.032 -1.2886  0.6592 -0.6669
  215MOL0     H28372   4.841   2.871   6.834 -2.4177 -2.3240 -0.0664
  215MOL0     H28373   4.683   2.916   6.887 -0.1916 -3.3071  2.4243
  215MOL0     H28374   4.930   3.086   6.967  0.7420  2.3319 -1.2986
  215MOL0     H28375   4.774   3.139   6.990  4.4914  1.6429  1.9288
  215MOL0     H28376   4.891   3.241   6.787  0.4303 -0.3424  0.1091
  215MOL0     H28377   4.876   3.094   6.699 -0.4999  0.2841 -0.0001
  215MOL0     H28378   4.476   3.207   6.705 -0.2171 -0.2284  1.0090
  215MOL0     H28379   4.795   2.747   7.268  0.5053 -0.1917  0.8811
  215MOL0     H28380   4.871   2.628   7.472 -0.2903  1.4059  0.4035
  216MOL0     O28381   1.877   1.005   6.648 -0.7646 -0.0282 -0.4788
  216MOL0     C28382   1.796   1.087   6.603 -0.1731 -0.8606 -0.0945
  216MOL0     O28383   1.741   1.092   6.468  0.2694  0.6612 -0.8753
  216MOL0     C28384   1.765   0.998   6.378  1.1716  0.1283 -0.0296
  216MOL0     C28385   1.762   1.043   6.239 -0.6966  0.2545  0.1686
  216MOL0     C28386   1.782   0.950   6.139  0.3183 -0.5500 -0.8612
  216MOL0     C28387   1.782   0.812   6.170  0.8372 -1.3402  0.6633
  216MOL0     O28388   1.779   0.741   6.054  0.0672  0.4570 -0.5129
  216MOL0     C28389   1.913   0.734   6.009  0.1884 -1.5403  0.5471
  216MOL0     C28390   1.908   0.638   5.887 -0.0731  0.2860  0.3463
  216MOL0     C28391   2.058   0.606   5.849  0.1200  0.3990 -0.3379
  216MOL0     C28392   2.061   0.532   5.712  0.1524 -0.7408  0.3764
  216MOL0     C28393   2.199   0.470   5.689 -0.1109 -0.2240 -0.8939
  216MOL0     C28394   2.214   0.413   5.542  0.1538 -0.0542 -0.0545
  216MOL0     C28395   2.346   0.346   5.506 -0.5617  0.6282 -0.0334
  216MOL0     C28396   2.389   0.226   5.593 -0.1098  0.2429  0.3112
  216MOL0     N28397   2.288   0.114   5.577 -0.2157  0.3157  0.4515
  216MOL0     C28398   2.226   0.067   5.689 -0.4500  0.0737  0.2984
  216MOL0     C28399   2.142  -0.033   5.646 -0.5464 -0.5129  0.4055
  216MOL0     C28400   2.029  -0.104   5.734 -0.5517 -0.0601 -0.1393
  216MOL0     C28401   1.919  -0.009   5.794  0.3225  0.4430  0.3398
  216MOL0     C28402   1.976   0.073   5.903  0.4397  0.4610 -0.5145
  216MOL0     C28403   1.866   0.131   5.988  0.9770 -0.6291  0.6394
  216MOL0     O28404   1.927   0.222   6.073  0.1126  0.3452 -0.6413
  216MOL0     C28405   1.855   0.276   6.178  0.5424  0.5980 -1.2750
  216MOL0     C28406   1.716   0.300   6.185  0.1705  0.0154  0.0646
  216MOL0     C28407   1.664   0.365   6.295 -0.3153 -1.1527  1.2940
  216MOL0     C28408   1.741   0.409   6.394  0.1536 -0.7672 -0.2587
  216MOL0     C28409   1.669   0.474   6.504  0.2074  0.4520 -0.9260
  216MOL0     O28410   1.753   0.528   6.598 -0.4690  0.1733  0.1044
  216MOL0     C28411   1.703   0.581   6.717  0.3243 -0.4885  0.2765
  216MOL0     C28412   1.763   0.706   6.759 -0.0348  0.6088  0.1919
  216MOL0     C28413   1.734   0.758   6.887 -0.1734 -0.1015  0.1157
  216MOL0     C28414   1.648   0.688   6.971  0.0056 -0.3736 -0.6037
  216MOL0     O28415   1.604   0.748   7.085 -0.0166  0.1051  0.4284
  216MOL0     C28416   1.501   0.847   7.068  0.0741  0.3245 -0.8401
  216MOL0     C28417   1.562   0.988   7.077  0.5367 -0.7326  0.3868
  216MOL0     C28418   1.469   1.113   7.077  0.5215  0.4542 -0.2421
  216MOL0     C28419   1.386   1.128   7.210  0.0210 -0.0139  0.4946
  216MOL0     C28420   1.280   1.239   7.211  0.9817  0.7077  0.3036
  216MOL0     C28421   1.329   1.385   7.171 -0.1675 -0.4714  0.1118
  216MOL0     C28422   1.432   1.433   7.269 -0.6401  1.1226 -0.1913
  216MOL0     C28423   1.476   1.572   7.252 -0.2494 -0.6072 -0.5162
  216MOL0    Cl28424   1.580   1.647   7.383  0.7435  0.4418 -0.0300
  216MOL0     C28425   1.594   0.569   6.930  0.1934 -0.4528  0.0574
  216MOL0     C28426   1.614   0.512   6.800  0.4684 -0.3534  0.4774
  216MOL0     O28427   1.543   0.493   6.508 -0.3526 -0.4712 -0.1491
  216MOL0     C28428   1.881   0.385   6.388 -0.0034  1.3044 -0.2477
  216MOL0     C28429   1.933   0.324   6.286  0.3420  0.4872  0.3447
  216MOL0     N28430   2.163  -0.056   5.510  0.0469 -0.9339 -0.5251
  216MOL0     N28431   2.254   0.033   5.465 -0.2069 -0.1148  0.1059
  216MOL0     C28432   1.782   0.770   6.299 -0.1040  0.0804 -0.5151
  216MOL0     C28433   1.779   0.858   6.406  0.6848  0.7554  0.2025
  216MOL0     C28434   1.736   1.194   6.690  0.4184 -0.8058  0.8450
  216MOL0     C28435   1.657   1.292   6.635 -0.1518 -0.3070 -0.6947
  216MOL0     C28436   1.628   1.411   6.714 -0.6193  0.3679  0.7420
  216MOL0     C28437   1.684   1.419   6.842 -0.3608 -0.1004  0.1954
  216MOL0     O28438   1.682   1.529   6.921  0.1137 -0.4352  0.1458
  216MOL0     C28439   1.653   1.657   6.863 -0.4059  0.4045 -0.6495
  216MOL0     C28440   1.629   1.774   6.963  0.6268  1.0317 -0.0451
  216MOL0     C28441   1.611   1.915   6.887  0.7814  0.4014 -0.2003
  216MOL0     C28442   1.529   1.923   6.755  0.7734 -0.3229 -0.3678
  216MOL0     C28443   1.399   1.861   6.772  0.7702  0.6870  0.2357
  216MOL0     C28444   1.301   1.804   6.792 -0.9490  0.3485 -0.4306
  216MOL0     C28445   1.748   1.316   6.896 -0.6252 -0.2597  0.0267
  216MOL0     C28446   1.784   1.200   6.822  0.0080 -0.2926  0.7437
  216MOL0     H28447   1.755   1.145   6.203  1.7727  0.0106 -1.2139
  216MOL0     H28448   1.779   0.983   6.036 -3.5182 -3.1086 -1.7929
  216MOL0     H28449   1.973   0.687   6.088  0.5986 -1.5234  0.2474
  216MOL0     H28450   1.949   0.828   5.968 -1.5432 -1.5705 -1.1951
  216MOL0     H28451   1.860   0.690   5.803 -0.7544 -2.8650 -1.3720
  216MOL0     H28452   1.847   0.552   5.914 -1.9414  0.5114 -2.6815
  216MOL0     H28453   2.083   0.534   5.927 -1.6555  1.6068  1.4275
  216MOL0     H28454   2.118   0.698   5.845  0.8270 -0.0839 -1.1842
  216MOL0     H28455   1.982   0.457   5.702  2.0173 -2.5642 -1.9179
  216MOL0     H28456   2.041   0.600   5.628 -0.9571 -2.8216 -1.1233
  216MOL0     H28457   2.228   0.395   5.763 -0.9096  0.2490 -0.0854
  216MOL0     H28458   2.275   0.547   5.707  1.9502 -2.8682  3.2863
  216MOL0     H28459   2.190   0.486   5.464 -1.4909 -0.2002  0.2713
  216MOL0     H28460   2.139   0.335   5.531 -0.5235  0.3646  1.3843
  216MOL0     H28461   2.338   0.308   5.404  0.1770 -2.9270  1.1036
  216MOL0     H28462   2.424   0.422   5.502 -2.5641  2.7787 -2.3738
  216MOL0     H28463   2.390   0.255   5.699 -2.5328 -1.3812  0.8629
  216MOL0     H28464   2.491   0.196   5.570  0.0348 -0.0814  1.3246
  216MOL0     H28465   2.251   0.104   5.787 -0.1882 -1.8768  1.0043
  216MOL0     H28466   2.077  -0.146   5.823 -0.0771 -0.1414 -0.4310
  216MOL0     H28467   1.984  -0.192   5.688  1.5186 -3.2831  3.4108
  216MOL0     H28468   1.840  -0.074   5.833  1.7443 -1.1951  0.6276
  216MOL0     H28469   1.888   0.055   5.712 -3.5983 -1.1472  0.3862
  216MOL0     H28470   2.038   0.017   5.973 -3.6776 -1.1350  2.2640
  216MOL0     H28471   2.025   0.150   5.843 -1.3062  1.5484 -0.6098
  216MOL0     H28472   1.808   0.054   6.041  1.3384  1.4979  4.4929
  216MOL0     H28473   1.799   0.184   5.920 -0.5032 -3.2398 -0.0723
  216MOL0     H28474   1.648   0.267   6.107 -1.1801  0.0079  1.2031
  216MOL0     H28475   1.557   0.382   6.298 -0.3798 -1.0441 -0.7028
  216MOL0     H28476   1.839   0.749   6.693  2.4035 -0.2692  2.2397
  216MOL0     H28477   1.772   0.857   6.912  0.9433 -0.8484  1.5205
  216MOL0     H28478   1.420   0.826   7.138  0.2487  0.7993 -0.4949
  216MOL0     H28479   1.459   0.825   6.969  1.0592 -1.9187 -0.8292
  216MOL0     H28480   1.622   1.007   6.988 -0.4411 -1.8435 -0.5501
  216MOL0     H28481   1.637   0.986   7.157  0.4341 -2.2447  0.4863
  216MOL0     H28482   1.393   1.107   6.998  0.7357  1.2931 -0.5155
  216MOL0     H28483   1.543   1.193   7.079  0.3692  0.5979  2.0521
  216MOL0     H28484   1.342   1.032   7.238 -3.9191  1.1670 -1.0181
  216MOL0     H28485   1.467   1.152   7.279  1.6376 -0.6310 -1.0991
  216MOL0     H28486   1.238   1.238   7.311  1.9422  0.3589  0.7188
  216MOL0     H28487   1.208   1.213   7.132 -1.4057  0.0106  2.5777
  216MOL0     H28488   1.247   1.457   7.160  0.5172  0.4195  0.8054
  216MOL0     H28489   1.380   1.383   7.074  0.0068  0.5872  0.1712
  216MOL0     H28490   1.404   1.416   7.373 -1.8544  0.3213 -0.6284
  216MOL0     H28491   1.523   1.375   7.254 -1.9738 -1.1493  0.0625
  216MOL0     H28492   1.382   1.628   7.256 -0.2436 -0.5192 -1.4241
  216MOL0     H28493   1.517   1.584   7.151  1.3468 -1.6994 -0.0329
  216MOL0     H28494   1.510   0.521   6.979  2.4722 -0.6553  4.1867
  216MOL0     H28495   1.558   0.424   6.769 -2.2930  1.4449 -0.0252
  216MOL0     H28496   1.954   0.421   6.459  0.2205  1.8423 -0.7433
  216MOL0     H28497   2.041   0.320   6.287  0.5314  3.2578  0.6014
  216MOL0     H28498   1.780   0.663   6.317  2.7567  0.2822  1.8568
  216MOL0     H28499   1.789   0.814   6.505  2.0274 -3.3979 -1.5505
  216MOL0     H28500   1.641   1.284   6.528  0.1880 -0.4203 -0.7391
  216MOL0     H28501   1.578   1.495   6.667 -1.2025  0.5107  1.5842
  216MOL0     H28502   1.561   1.646   6.806 -0.3308 -0.2543 -0.6464
  216MOL0     H28503   1.749   1.688   6.820 -1.3697 -0.2757 -3.5048
  216MOL0     H28504   1.538   1.763   7.021  0.1423  3.2975 -0.2844
  216MOL0     H28505   1.710   1.769   7.037  1.3516  0.3168 -0.8574
  216MOL0     H28506   1.712   1.957   6.877  0.0432  3.6274  3.4600
  216MOL0     H28507   1.562   1.969   6.968  0.4429 -3.4843  2.4718
  216MOL0     H28508   1.513   2.026   6.723 -1.4491 -0.9613 -1.4978
  216MOL0     H28509   1.581   1.885   6.667  1.9283  1.3643 -0.4536
  216MOL0     H28510   1.206   1.754   6.788 -1.8665  2.0948 -1.6119
  216MOL0     H28511   1.779   1.321   7.000  3.3604 -2.6159 -0.8391
  216MOL0     H28512   1.866   1.139   6.859  2.4560  1.5739 -1.2108
  217MOL0     O28513   8.446   9.629   4.968 -0.1573 -0.4835 -0.3232
  217MOL0     C28514   8.414   9.745   4.928  1.0158  0.6821 -0.1780
  217MOL0     O28515   8.486   9.823   4.844 -0.4098  0.9586  0.1632
  217MOL0     C28516   8.617   9.785   4.811  0.8145 -0.2914 -0.3519
  217MOL0     C28517   8.705   9.756   4.913 -0.2633 -0.6334  0.5429
  217MOL0     C28518   8.840   9.725   4.891 -0.2473  0.6818  0.3650
  217MOL0     C28519   8.885   9.716   4.751 -0.2854  0.5935 -0.3497
  217MOL0     O28520   9.019   9.701   4.732 -0.5811 -1.2339 -0.0171
  217MOL0     C28521   9.068   9.646   4.604  1.4911 -0.1178 -0.6204
  217MOL0     C28522   9.204   9.580   4.617  0.2133  0.1941 -0.0491
  217MOL0     C28523   9.219   9.481   4.737 -0.7268  0.8379  0.0347
  217MOL0     C28524   9.120   9.360   4.725 -0.5524  0.2557  0.4953
  217MOL0     C28525   9.163   9.256   4.828 -0.8346  0.4412 -0.2009
  217MOL0     C28526   9.118   9.294   4.967  0.3313  0.5541 -0.4133
  217MOL0     C28527   8.960   9.297   4.972 -0.5022 -0.2501  0.2049
  217MOL0     C28528   8.930   9.330   5.115  0.5464 -0.9131  0.3299
  217MOL0     N28529   8.795   9.310   5.152 -0.3397 -1.7878  0.3355
  217MOL0     C28530   8.685   9.396   5.123  0.1913  0.0669 -0.1522
  217MOL0     C28531   8.605   9.361   5.225  0.6655 -0.6790 -0.9523
  217MOL0     C28532   8.460   9.407   5.237 -0.1172 -0.0535  0.2619
  217MOL0     C28533   8.459   9.548   5.312 -0.6089  0.0142  0.4161
  217MOL0     C28534   8.483   9.521   5.461  0.3516  0.4474  0.3837
  217MOL0     C28535   8.436   9.652   5.540 -0.2932 -0.0348  0.3378
  217MOL0     O28536   8.290   9.666   5.537 -0.8461  0.3195  0.2015
  217MOL0     C28537   8.215   9.597   5.626  0.1811  0.0013 -0.4241
  217MOL0     C28538   8.079   9.634   5.607 -0.4106  0.1145  0.3945
  217MOL0     C28539   7.978   9.570   5.680  0.3409 -0.1942  0.5262
  217MOL0     C28540   8.007   9.474   5.769 -0.5102  0.2640 -0.1276
  217MOL0     C28541   7.900   9.413   5.847 -0.7837  0.5134 -0.6666
  217MOL0     O28542   7.948   9.326   5.948 -0.0923 -0.4542 -0.5654
  217MOL0     C28543   7.862   9.268   6.042 -0.0171  0.2570  0.2331
  217MOL0     C28544   7.734   9.239   6.017 -0.0499 -0.1424 -0.6303
  217MOL0     C28545   7.660   9.164   6.116  1.1705 -0.3419 -0.1565
  217MOL0     C28546   7.714   9.131   6.242  0.8177  0.0344 -0.3615
  217MOL0     O28547   7.631   9.062   6.327  0.5918  0.0586 -0.7735
  217MOL0     C28548   7.630   9.089   6.466  0.8364 -0.2188 -0.6584
  217MOL0     C28549   7.486   9.035   6.500 -0.5185 -0.7676  0.5288
  217MOL0     C28550   7.433   9.067   6.638  0.0255  0.7294 -0.2269
  217MOL0     C28551   7.290   9.013   6.655  0.5321  0.2234 -0.0669
  217MOL0     C28552   7.243   9.005   6.809 -0.0497  0.5001  0.6474
  217MOL0     C28553   7.254   9.140   6.876  0.8260 -0.7742  0.2456
  217MOL0     C28554   7.200   9.129   7.017 -0.5458 -0.2951  0.3823
  217MOL0     C28555   7.309   9.121   7.125  0.1273 -0.3623  0.3935
  217MOL0    Cl28556   7.240   9.129   7.295  0.1350 -0.2534 -0.0683
  217MOL0     C28557   7.850   9.152   6.260 -0.2972  0.5767  0.4454
  217MOL0     C28558   7.916   9.231   6.166 -0.8047 -0.2362  0.6650
  217MOL0     O28559   7.782   9.451   5.833 -0.7039 -0.2427 -0.2523
  217MOL0     C28560   8.147   9.451   5.800  0.8126 -0.6573  0.4079
  217MOL0     C28561   8.254   9.515   5.723  0.8032 -0.3389 -0.1808
  217MOL0     N28562   8.663   9.283   5.325 -0.1548 -0.9417  0.5461
  217MOL0     N28563   8.775   9.248   5.276 -0.7799 -0.1096  0.4134
  217MOL0     C28564   8.799   9.745   4.654 -0.6818  0.1924  0.4709
  217MOL0     C28565   8.672   9.783   4.684  0.5668  0.4236  0.2429
  217MOL0     C28566   8.283   9.792   4.971  0.0427  0.6301 -0.0331
  217MOL0     C28567   8.234   9.917   4.946  0.1069  0.2811  0.5499
  217MOL0     C28568   8.109   9.957   4.989 -0.1532  0.0728  0.2449
  217MOL0     C28569   8.039   9.877   5.078  0.2862  0.0788  0.1289
  217MOL0     O28570   7.926   9.921   5.141  0.6399  0.0022  0.1659
  217MOL0     C28571   7.803   9.907   5.060  0.0414  0.4515 -1.4031
  217MOL0     C28572   7.713   9.801   5.113  0.2704  0.2669  0.5456
  217MOL0     C28573   7.626   9.858   5.230 -0.1190 -0.7971 -0.5938
  217MOL0     C28574   7.530   9.743   5.281 -0.0046  0.5922 -0.0241
  217MOL0     C28575   7.420   9.812   5.360 -0.1522  0.4595  0.1496
  217MOL0     C28576   7.327   9.882   5.407  1.0419 -0.0299  0.4025
  217MOL0     C28577   8.091   9.758   5.119  0.0347 -0.1743  0.1322
  217MOL0     C28578   8.205   9.717   5.064 -1.0518 -0.1530  0.2408
  217MOL0     H28579   8.674   9.749   5.017  1.1097  0.2252  1.0415
  217MOL0     H28580   8.898   9.707   4.980  1.0984 -0.3045 -0.6682
  217MOL0     H28581   9.063   9.730   4.535 -1.7157  0.6265  0.3194
  217MOL0     H28582   8.997   9.576   4.559 -1.4692  0.1842  3.0005
  217MOL0     H28583   9.288   9.650   4.622  0.0032  0.5256 -0.9320
  217MOL0     H28584   9.214   9.528   4.521 -1.4023  1.8283 -1.1716
  217MOL0     H28585   9.210   9.534   4.832  0.2373 -1.0285  1.2348
  217MOL0     H28586   9.320   9.439   4.738  0.2555  3.0469 -1.0364
  217MOL0     H28587   9.014   9.379   4.706 -0.3084  0.1947 -1.0388
  217MOL0     H28588   9.143   9.318   4.627  0.5036 -0.9079  1.2174
  217MOL0     H28589   9.271   9.237   4.822 -1.1945 -1.6362 -0.7569
  217MOL0     H28590   9.118   9.162   4.798  1.5835 -2.1056  3.2457
  217MOL0     H28591   9.163   9.391   4.991  1.2487 -0.6347  3.2497
  217MOL0     H28592   9.155   9.219   5.038 -1.9580 -0.6464 -0.3958
  217MOL0     H28593   8.920   9.370   4.901  3.9688  0.2860 -2.0932
  217MOL0     H28594   8.920   9.197   4.953 -0.8978 -0.0872  0.1535
  217MOL0     H28595   8.965   9.433   5.125  0.6523 -1.0164  1.1037
  217MOL0     H28596   8.995   9.276   5.184 -0.6223 -1.0782  1.3340
  217MOL0     H28597   8.668   9.469   5.045 -0.6107 -0.6913 -0.7054
  217MOL0     H28598   8.403   9.335   5.297  1.5919 -0.6970  1.1819
  217MOL0     H28599   8.422   9.416   5.135 -1.5107  2.0859  0.8973
  217MOL0     H28600   8.360   9.592   5.295  0.0601  1.2587 -0.4077
  217MOL0     H28601   8.529   9.619   5.267 -1.1486  0.6727  0.6043
  217MOL0     H28602   8.424   9.433   5.484  1.6250 -0.7353 -0.6320
  217MOL0     H28603   8.592   9.509   5.472  1.0289  1.8060 -3.3817
  217MOL0     H28604   8.480   9.741   5.495  0.6447  0.1247  1.5243
  217MOL0     H28605   8.480   9.667   5.640  3.2255 -0.6742 -0.9812
  217MOL0     H28606   8.048   9.701   5.528 -0.8246 -1.5709 -0.9509
  217MOL0     H28607   7.874   9.594   5.662 -0.0436  1.2152  3.8607
  217MOL0     H28608   7.688   9.263   5.922  3.2634 -0.0503 -2.3217
  217MOL0     H28609   7.558   9.138   6.087  0.6387 -3.9603  3.9902
  217MOL0     H28610   7.640   9.196   6.487 -0.8592 -0.4062  1.3991
  217MOL0     H28611   7.704   9.030   6.520 -0.7823 -2.6009 -0.8975
  217MOL0     H28612   7.489   8.932   6.461 -1.3238 -0.1001 -1.4448
  217MOL0     H28613   7.412   9.088   6.440 -0.3321 -0.4338  0.5947
  217MOL0     H28614   7.432   9.174   6.664  1.2688  0.7659 -0.2794
  217MOL0     H28615   7.498   9.018   6.712  0.4379  1.5762 -0.0133
  217MOL0     H28616   7.215   9.071   6.599  2.2909  0.2019 -2.6107
  217MOL0     H28617   7.281   8.916   6.606 -3.1964  0.2576  0.2542
  217MOL0     H28618   7.310   8.937   6.863 -1.1168 -0.0524  1.3215
  217MOL0     H28619   7.146   8.957   6.826  0.4988 -0.8560  0.0238
  217MOL0     H28620   7.183   9.205   6.824 -0.7970 -0.9325  2.1320
  217MOL0     H28621   7.358   9.175   6.873  0.1453  1.3520 -2.0383
  217MOL0     H28622   7.139   9.219   7.028 -0.5891 -0.2641 -0.0921
  217MOL0     H28623   7.127   9.048   7.028  0.4172 -1.4796 -1.3131
  217MOL0     H28624   7.386   9.197   7.110  0.0983 -0.3380  0.3662
  217MOL0     H28625   7.360   9.026   7.109 -0.8104 -1.5044  3.5475
  217MOL0     H28626   7.906   9.133   6.352 -2.0818  4.2405  2.5180
  217MOL0     H28627   8.012   9.277   6.184 -0.9597  1.1712 -1.6138
  217MOL0     H28628   8.169   9.370   5.870 -0.4910 -0.2049  1.3968
  217MOL0     H28629   8.356   9.482   5.740  1.9841  2.8572 -0.4761
  217MOL0     H28630   8.825   9.762   4.550 -0.0293 -1.5938  0.2950
  217MOL0     H28631   8.610   9.802   4.596  3.5287  1.8655 -1.6968
  217MOL0     H28632   8.284   9.995   4.890 -0.3952  0.0657 -0.2109
  217MOL0     H28633   8.080  10.059   4.964  0.4081 -0.0531 -1.0141
  217MOL0     H28634   7.821   9.881   4.955 -2.8417  0.7385 -2.0434
  217MOL0     H28635   7.753  10.004   5.063  1.3033  1.1067  1.0813
  217MOL0     H28636   7.641   9.763   5.040 -3.3225 -0.9774  4.3070
  217MOL0     H28637   7.766   9.711   5.146  1.8634  1.1166  0.4243
  217MOL0     H28638   7.564   9.941   5.195 -0.9160 -2.6366 -4.0384
  217MOL0     H28639   7.694   9.885   5.311  0.9281 -2.7993 -0.7407
  217MOL0     H28640   7.497   9.679   5.198 -0.7855 -0.4033  1.0147
  217MOL0     H28641   7.584   9.685   5.357 -2.8602  0.6318  2.2359
  217MOL0     H28642   7.254   9.953   5.438 -2.3928 -3.1567  0.2061
  217MOL0     H28643   8.036   9.709   5.198 -0.5015  0.5977  0.2555
  217MOL0     H28644   8.234   9.613   5.078  3.6785  1.2776  3.1910
  218MOL0     O28645   5.104   6.593  10.358 -0.8856 -1.3061 -0.3305
  218MOL0     C28646   5.035   6.618  10.456  0.0407  0.0029 -0.6091
  218MOL0     O28647   4.904   6.671  10.448 -0.5114  0.2210 -0.1111
  218MOL0     C28648   4.849   6.728  10.339 -0.9938  0.7036 -0.0600
  218MOL0     C28649   4.921   6.805  10.243 -0.5160  0.1857 -0.5036
  218MOL0     C28650   4.862   6.871  10.142 -0.5506  0.1038 -0.9460
  218MOL0     C28651   4.731   6.861  10.110 -0.0092  0.2391  0.0215
  218MOL0     O28652   4.658   6.931  10.018 -0.0843 -0.2362  1.2469
  218MOL0     C28653   4.725   6.929   9.888 -0.4194 -0.0372 -0.1619
  218MOL0     C28654   4.634   6.976   9.774  0.3878  1.0028  0.1591
  218MOL0     C28655   4.548   6.869   9.713  0.3752 -0.3847 -0.1805
  218MOL0     C28656   4.448   6.813   9.815  0.6047  0.1025 -0.1995
  218MOL0     C28657   4.333   6.743   9.739  0.2022  0.3090 -0.4762
  218MOL0     C28658   4.204   6.725   9.814  0.2252  0.2676 -0.2443
  218MOL0     C28659   4.209   6.619   9.929  0.0049 -0.6645  0.1814
  218MOL0     C28660   4.252   6.685  10.062  0.8882 -0.0581  0.2473
  218MOL0     N28661   4.295   6.588  10.157 -1.0138  0.5573 -0.0844
  218MOL0     C28662   4.419   6.527  10.159 -0.0996 -0.4972 -1.0267
  218MOL0     C28663   4.418   6.426  10.256  0.0200 -0.5121 -0.3086
  218MOL0     C28664   4.535   6.343  10.279 -0.3187 -0.1374  0.9030
  218MOL0     C28665   4.537   6.207  10.217 -0.3385  0.8115  1.7275
  218MOL0     C28666   4.658   6.123  10.276 -0.3863  0.1866  2.3657
  218MOL0     C28667   4.645   5.968  10.260  0.6779  0.6448  0.4812
  218MOL0     O28668   4.599   5.956  10.129 -0.0958 -0.2011  0.1923
  218MOL0     C28669   4.503   5.863  10.108  0.3341 -0.5471  0.0722
  218MOL0     C28670   4.381   5.900  10.042 -0.2772  0.3274  0.2561
  218MOL0     C28671   4.277   5.800  10.031  0.4584 -1.2035 -0.0751
  218MOL0     C28672   4.290   5.672  10.079  0.2671 -0.6598 -0.1671
  218MOL0     C28673   4.193   5.560  10.045  1.4602 -0.4961 -0.8435
  218MOL0     O28674   4.066   5.592   9.991 -0.4374 -0.2123 -0.2360
  218MOL0     C28675   3.966   5.491   9.979  0.0697 -0.0514 -0.9799
  218MOL0     C28676   3.979   5.374   9.911  0.1248 -0.5928  0.3735
  218MOL0     C28677   3.870   5.282   9.895 -0.2023 -0.5960 -0.2537
  218MOL0     C28678   3.750   5.312   9.958  1.0346  0.2806  0.0102
  218MOL0     O28679   3.643   5.231   9.950  0.0493  0.7607  0.1165
  218MOL0     C28680   3.564   5.262   9.832  0.4051 -0.0653  0.4548
  218MOL0     C28681   3.428   5.193   9.844 -0.0021  0.4466  0.1507
  218MOL0     C28682   3.351   5.233   9.967  0.3393 -0.8251 -0.3428
  218MOL0     C28683   3.221   5.160   9.976 -0.0579 -0.5399  0.0561
  218MOL0     C28684   3.120   5.228  10.076 -0.1771 -0.2670 -0.0497
  218MOL0     C28685   3.165   5.244  10.218 -1.0248  0.1130 -0.1222
  218MOL0     C28686   3.051   5.277  10.312  0.3388  0.1781 -0.1882
  218MOL0     C28687   3.112   5.301  10.450  0.6019  0.2965  0.1029
  218MOL0    Cl28688   2.984   5.362  10.571  1.0033 -0.1311 -0.1301
  218MOL0     C28689   3.735   5.435  10.028 -0.4422  0.3748 -0.2012
  218MOL0     C28690   3.845   5.524  10.034  0.4725  0.4272  0.1444
  218MOL0     O28691   4.235   5.452  10.064  0.2904  0.5352 -0.1975
  218MOL0     C28692   4.414   5.643  10.149  1.0237 -0.1469 -0.3184
  218MOL0     C28693   4.515   5.742  10.159 -0.4850  0.4135  0.2493
  218MOL0     N28694   4.294   6.430  10.315  1.2849  0.4898  0.6020
  218MOL0     N28695   4.224   6.526  10.256  0.1924 -0.2561  0.2250
  218MOL0     C28696   4.651   6.784  10.201 -0.2722  0.0071  0.3609
  218MOL0     C28697   4.714   6.714  10.302  0.2088  0.1203 -0.4458
  218MOL0     C28698   5.077   6.559  10.591 -0.8342 -1.0988  0.0776
  218MOL0     C28699   4.990   6.548  10.690  0.9219  0.8119  0.0271
  218MOL0     C28700   5.023   6.498  10.816  0.7675 -0.5983 -0.6536
  218MOL0     C28701   5.161   6.474  10.855 -0.5315 -0.5281 -0.5039
  218MOL0     O28702   5.195   6.442  10.988  0.3626 -0.1114  0.2361
  218MOL0     C28703   5.316   6.498  11.040  0.4768 -0.4681  0.3071
  218MOL0     C28704   5.424   6.383  11.056 -0.2912  0.4443 -0.2953
  218MOL0     C28705   5.568   6.441  11.081  0.3391  0.2764  0.9014
  218MOL0     C28706   5.682   6.341  11.095  0.0746 -0.0275  0.7774
  218MOL0     C28707   5.703   6.273  10.963 -0.3755 -0.4264  0.2705
  218MOL0     C28708   5.729   6.212  10.865  0.5616  0.1877 -0.2983
  218MOL0     C28709   5.250   6.495  10.752  0.7416  0.3346 -0.1426
  218MOL0     C28710   5.213   6.526  10.616  0.2074 -0.1257  0.2640
  218MOL0     H28711   5.022   6.843  10.253 -1.3558  2.1762  1.0001
  218MOL0     H28712   4.921   6.946  10.091  0.8417 -0.3952 -0.1122
  218MOL0     H28713   4.762   6.829   9.864 -1.8831 -1.0905  1.6211
  218MOL0     H28714   4.813   6.993   9.894  0.0925 -0.8709  2.0006
  218MOL0     H28715   4.698   7.001   9.689 -0.8272 -2.4680 -2.0128
  218MOL0     H28716   4.575   7.056   9.818  0.5220  0.4472  1.3904
  218MOL0     H28717   4.610   6.786   9.678  0.8325 -0.9384  1.7843
  218MOL0     H28718   4.495   6.900   9.623  0.7314 -3.3699 -1.5418
  218MOL0     H28719   4.489   6.728   9.871 -2.2714 -1.3406 -0.0348
  218MOL0     H28720   4.403   6.889   9.879 -1.2409 -2.4066  1.7477
  218MOL0     H28721   4.371   6.645   9.710 -0.9836 -1.6114  3.7624
  218MOL0     H28722   4.300   6.802   9.653  1.2227  4.6604  1.8245
  218MOL0     H28723   4.138   6.688   9.734  2.6164  1.1841 -2.7821
  218MOL0     H28724   4.173   6.825   9.843  2.4668  0.3733  2.1421
  218MOL0     H28725   4.108   6.576   9.937 -2.6302  2.8585 -6.3507
  218MOL0     H28726   4.274   6.535   9.902  2.7980  1.0288  1.1898
  218MOL0     H28727   4.165   6.728  10.113  0.3242 -1.1526  0.2411
  218MOL0     H28728   4.322   6.768  10.050  0.9506  0.1358  1.7034
  218MOL0     H28729   4.504   6.560  10.100 -0.5218  0.8209 -0.9330
  218MOL0     H28730   4.527   6.326  10.387 -4.3521 -0.3836  0.7296
  218MOL0     H28731   4.621   6.406  10.259 -0.7634  0.5964  1.2411
  218MOL0     H28732   4.561   6.218  10.111  1.2948  2.9328  2.2467
  218MOL0     H28733   4.441   6.155  10.219 -0.1251  0.2613 -0.1511
  218MOL0     H28734   4.753   6.150  10.229 -1.9097  1.2504 -0.3491
  218MOL0     H28735   4.662   6.143  10.383 -1.1560 -0.0087  2.4378
  218MOL0     H28736   4.579   5.917  10.331 -1.0323  2.0614 -0.0366
  218MOL0     H28737   4.746   5.926  10.273  0.0753 -0.6722  1.1844
  218MOL0     H28738   4.365   5.996   9.996  0.3337  0.8847  1.1777
  218MOL0     H28739   4.191   5.827   9.970  1.8725  1.0231 -1.2262
  218MOL0     H28740   4.074   5.369   9.859  0.3585  0.2843  0.6918
  218MOL0     H28741   3.884   5.197   9.829  0.1227  0.5242 -1.6721
  218MOL0     H28742   3.616   5.230   9.741 -1.4344  0.2812 -0.7639
  218MOL0     H28743   3.551   5.369   9.815 -1.2166 -0.2281  0.4950
  218MOL0     H28744   3.454   5.086   9.849  3.3383  0.9812 -2.3394
  218MOL0     H28745   3.371   5.217   9.753 -1.9086  3.2697  1.9412
  218MOL0     H28746   3.338   5.341   9.962 -3.4315 -1.1271  0.2036
  218MOL0     H28747   3.402   5.216  10.062 -1.4342 -1.4171  0.5390
  218MOL0     H28748   3.186   5.143   9.874 -1.6314  1.8309  0.1251
  218MOL0     H28749   3.244   5.060  10.014 -0.6207 -1.2799 -1.4995
  218MOL0     H28750   3.035   5.160  10.061  1.7537 -2.9354  0.3079
  218MOL0     H28751   3.096   5.327  10.038  1.5345  1.2431  2.4790
  218MOL0     H28752   3.237   5.327  10.218 -0.1868 -0.5924 -0.1075
  218MOL0     H28753   3.216   5.152  10.251  0.6818  1.4754  1.2446
  218MOL0     H28754   3.001   5.370  10.284  3.5637  1.6186 -1.6794
  218MOL0     H28755   2.986   5.189  10.319 -0.6282  0.4912 -3.3626
  218MOL0     H28756   3.187   5.381  10.443  0.8382  0.0336 -0.3627
  218MOL0     H28757   3.155   5.207  10.486  2.0952 -0.5868 -3.5751
  218MOL0     H28758   3.640   5.464  10.071  0.7567  2.0165  1.4832
  218MOL0     H28759   3.841   5.609  10.102  0.1337 -2.7898  4.6057
  218MOL0     H28760   4.442   5.548  10.193  5.3220  1.2379  0.4118
  218MOL0     H28761   4.603   5.707  10.212 -0.5196 -0.4341 -0.2255
  218MOL0     H28762   4.543   6.780  10.206 -0.3148  1.8210  4.5782
  218MOL0     H28763   4.660   6.642  10.362  1.0422 -1.1214 -1.1556
  218MOL0     H28764   4.888   6.567  10.660  1.1065  1.7580 -0.0425
  218MOL0     H28765   4.935   6.489  10.879 -1.1602 -1.1398 -3.2454
  218MOL0     H28766   5.304   6.557  11.131 -0.5140  1.8423 -1.2416
  218MOL0     H28767   5.361   6.564  10.966  0.4448 -2.8095 -1.9539
  218MOL0     H28768   5.395   6.315  11.137 -1.1313  1.5460  0.3426
  218MOL0     H28769   5.425   6.317  10.968 -0.0929  2.8111 -2.1561
  218MOL0     H28770   5.571   6.502  11.172  2.8432  0.0417  1.0276
  218MOL0     H28771   5.594   6.505  10.997 -1.1267  0.5592  0.6278
  218MOL0     H28772   5.778   6.393  11.106  0.7143 -1.0152  0.0383
  218MOL0     H28773   5.664   6.268  11.175  2.5319  0.9058  2.2931
  218MOL0     H28774   5.760   6.157  10.779 -1.3636 -0.6285 -0.5176
  218MOL0     H28775   5.352   6.471  10.778 -0.0461 -2.7508  0.4639
  218MOL0     H28776   5.289   6.533  10.538  1.3035 -0.7803  1.2555
  219MOL0     O28777   8.635   7.134   2.402 -0.3098 -0.2064  0.0024
  219MOL0     C28778   8.682   7.062   2.315 -0.9218 -0.4984  0.4473
  219MOL0     O28779   8.609   6.982   2.231 -0.3487  0.1103 -0.0880
  219MOL0     C28780   8.475   6.972   2.241  0.1191  0.8486  0.7418
  219MOL0     C28781   8.393   7.081   2.222  0.6298  0.0573 -0.7038
  219MOL0     C28782   8.256   7.069   2.218  0.2972 -0.1760 -0.9161
  219MOL0     C28783   8.191   6.945   2.225 -0.7409  0.6918  0.1161
  219MOL0     O28784   8.052   6.932   2.219  0.2839 -0.6141 -0.4982
  219MOL0     C28785   8.006   6.890   2.092  0.8334 -0.0853  0.2126
  219MOL0     C28786   7.860   6.922   2.081  0.2777  0.1735 -0.1282
  219MOL0     C28787   7.781   6.800   2.128  0.9655 -0.6995  0.4431
  219MOL0     C28788   7.641   6.852   2.169  0.1876 -0.3175 -0.4697
  219MOL0     C28789   7.545   6.732   2.202  0.2202  0.4062 -0.1966
  219MOL0     C28790   7.426   6.778   2.284 -0.0448  0.1470 -1.7980
  219MOL0     C28791   7.332   6.654   2.307  0.5172 -1.0519  0.0231
  219MOL0     C28792   7.251   6.603   2.184  0.0896 -0.0316  0.2665
  219MOL0     N28793   7.287   6.474   2.127  0.5031 -0.4008 -0.1725
  219MOL0     C28794   7.193   6.411   2.048 -0.7328 -0.5048 -0.3854
  219MOL0     C28795   7.255   6.304   1.989 -0.7102  0.7101  0.5150
  219MOL0     C28796   7.209   6.216   1.879 -0.0694 -0.3888 -0.7650
  219MOL0     C28797   7.067   6.153   1.904 -0.2794 -0.0050 -0.6501
  219MOL0     C28798   7.003   6.093   1.783  0.2220  0.1130  0.5781
  219MOL0     C28799   6.874   6.022   1.831 -0.0998  0.6641 -0.4081
  219MOL0     O28800   6.893   5.914   1.928 -0.4784 -0.1749  0.1289
  219MOL0     C28801   6.984   5.824   1.888 -0.8115 -0.3985 -0.3540
  219MOL0     C28802   6.998   5.774   1.763  0.5693  0.5172 -0.4190
  219MOL0     C28803   7.105   5.693   1.726 -0.3499 -0.5086 -0.2364
  219MOL0     C28804   7.204   5.666   1.826  0.2943 -0.2647 -0.3743
  219MOL0     C28805   7.319   5.583   1.786 -0.4662 -0.0101 -0.0193
  219MOL0     O28806   7.408   5.582   1.881  0.0696  0.1478  0.5766
  219MOL0     C28807   7.531   5.520   1.874 -0.5930 -0.4245 -0.0702
  219MOL0     C28808   7.633   5.594   1.922 -0.3968 -0.1538 -0.0091
  219MOL0     C28809   7.763   5.536   1.927 -0.0878  0.0082 -0.2265
  219MOL0     C28810   7.785   5.412   1.878 -0.6894  0.1241  0.4123
  219MOL0     O28811   7.917   5.370   1.875  0.5186  0.0939 -0.0444
  219MOL0     C28812   7.937   5.235   1.924  0.3528  0.2103 -0.3219
  219MOL0     C28813   8.078   5.222   1.977 -0.0211  0.5168 -0.3387
  219MOL0     C28814   8.094   5.086   2.045  0.4015  0.0718 -0.7250
  219MOL0     C28815   8.070   4.952   1.974  1.1034 -0.0036  0.7009
  219MOL0     C28816   8.162   4.929   1.857 -0.3294 -0.3089  0.1385
  219MOL0     C28817   8.147   4.788   1.814 -0.0319 -0.7347  0.1404
  219MOL0     C28818   8.262   4.741   1.720 -0.7428  0.5550  0.0400
  219MOL0     C28819   8.352   4.631   1.793  0.4047  0.6419 -0.9994
  219MOL0    Cl28820   8.385   4.694   1.962  0.3057  0.0505 -0.3343
  219MOL0     C28821   7.673   5.333   1.833 -0.5135 -0.9049  0.8757
  219MOL0     C28822   7.554   5.394   1.810  0.1935  0.5009  0.4539
  219MOL0     O28823   7.339   5.542   1.670  0.0394 -0.0040 -0.2302
  219MOL0     C28824   7.182   5.710   1.955 -0.1112  0.1448  0.1145
  219MOL0     C28825   7.070   5.788   1.989  0.2390  0.3601  0.1705
  219MOL0     N28826   7.385   6.301   2.043  0.4985 -0.0097  0.0661
  219MOL0     N28827   7.401   6.399   2.129 -0.3073 -0.9270  0.2741
  219MOL0     C28828   8.273   6.834   2.243  0.3698  0.5544 -0.4824
  219MOL0     C28829   8.416   6.840   2.260 -0.0089 -0.8398 -0.7228
  219MOL0     C28830   8.828   7.061   2.303  0.4242  0.7648  0.2889
  219MOL0     C28831   8.892   6.939   2.273  0.1106 -1.2929  0.7992
  219MOL0     C28832   9.033   6.932   2.281  0.6098 -0.5952 -1.0281
  219MOL0     C28833   9.102   7.051   2.328 -0.9018  0.6427  0.2265
  219MOL0     O28834   9.244   7.039   2.334 -0.3975 -0.5898  0.5691
  219MOL0     C28835   9.304   6.920   2.398 -0.3398 -0.8763 -0.2712
  219MOL0     C28836   9.409   6.854   2.305  0.7030 -0.5072 -0.5813
  219MOL0     C28837   9.529   6.953   2.301 -0.1936 -0.0115 -0.0275
  219MOL0     C28838   9.634   6.923   2.205  0.2190  0.8381  0.1345
  219MOL0     C28839   9.577   6.915   2.067  0.4618 -0.2476 -0.6892
  219MOL0     C28840   9.537   6.924   1.951 -0.2402 -0.2836 -0.1574
  219MOL0     C28841   9.043   7.171   2.352  0.5257  0.7463  0.1048
  219MOL0     C28842   8.899   7.175   2.341 -0.1272 -0.1429  0.4295
  219MOL0     H28843   8.452   7.172   2.223 -0.0864  0.5423  0.6524
  219MOL0     H28844   8.193   7.158   2.215 -0.8586 -0.8357  1.3759
  219MOL0     H28845   8.035   6.786   2.070  4.0966 -0.0717  3.4482
  219MOL0     H28846   8.055   6.947   2.012  0.9832 -1.2605 -0.5608
  219MOL0     H28847   7.822   6.951   1.983 -0.5812 -1.9063 -0.4431
  219MOL0     H28848   7.833   7.012   2.137 -0.8834  0.0179 -0.4268
  219MOL0     H28849   7.820   6.739   2.210 -4.3875 -4.5647  0.6514
  219MOL0     H28850   7.771   6.727   2.048  0.0468 -3.6789  3.0724
  219MOL0     H28851   7.652   6.914   2.258 -0.9969  1.9484 -1.8177
  219MOL0     H28852   7.588   6.917   2.099  0.5783 -0.0904 -0.5574
  219MOL0     H28853   7.588   6.651   2.261  0.7494  1.8034  1.4068
  219MOL0     H28854   7.514   6.693   2.105  1.9802  3.4008 -2.1199
  219MOL0     H28855   7.376   6.865   2.240 -2.9117 -0.2961  0.2359
  219MOL0     H28856   7.468   6.811   2.379  0.2417  0.1913 -1.9415
  219MOL0     H28857   7.388   6.573   2.354  0.3685 -0.8021  0.6441
  219MOL0     H28858   7.261   6.696   2.379  3.4258  2.1300  1.2910
  219MOL0     H28859   7.265   6.675   2.102 -1.6679  0.0157 -0.0284
  219MOL0     H28860   7.146   6.599   2.214 -0.4052  1.5457 -1.0834
  219MOL0     H28861   7.094   6.443   2.016 -1.3172 -1.0961  0.7533
  219MOL0     H28862   7.286   6.139   1.868  1.6808  0.9804  1.0430
  219MOL0     H28863   7.207   6.278   1.789 -0.1064  0.7955  0.0279
  219MOL0     H28864   6.994   6.224   1.946  0.1818  1.2315 -1.8935
  219MOL0     H28865   7.078   6.072   1.977 -3.3170 -0.0283 -0.0662
  219MOL0     H28866   7.002   6.172   1.707  3.3599  1.8978  2.2071
  219MOL0     H28867   7.073   6.018   1.744 -0.0669 -0.2267  0.7010
  219MOL0     H28868   6.823   5.984   1.742 -0.0370  3.4726 -1.7506
  219MOL0     H28869   6.810   6.099   1.876 -0.1358  0.2975  0.1874
  219MOL0     H28870   6.924   5.798   1.688 -1.1333 -0.1049  0.9817
  219MOL0     H28871   7.107   5.646   1.628  0.2138 -2.3673  0.6239
  219MOL0     H28872   7.621   5.698   1.952  0.4522  0.0063 -0.2091
  219MOL0     H28873   7.844   5.595   1.970 -2.0514  1.9533  0.9785
  219MOL0     H28874   7.925   5.169   1.837 -2.0361 -1.0145  0.8479
  219MOL0     H28875   7.875   5.212   2.011 -1.3556  1.4976 -1.1172
  219MOL0     H28876   8.094   5.304   2.048  1.1294 -0.6291  0.7720
  219MOL0     H28877   8.150   5.223   1.894  0.5979 -0.5848  0.1636
  219MOL0     H28878   8.019   5.081   2.124  0.7920  0.2767 -0.3395
  219MOL0     H28879   8.195   5.077   2.084 -0.5136 -3.1045  1.2488
  219MOL0     H28880   8.087   4.872   2.046 -0.0423 -0.1184  0.8639
  219MOL0     H28881   7.963   4.955   1.951  0.5254  2.1409  3.1417
  219MOL0     H28882   8.266   4.943   1.889 -0.8178  0.3171  1.5258
  219MOL0     H28883   8.134   4.998   1.777  1.0559 -0.9699 -0.9512
  219MOL0     H28884   8.060   4.767   1.751 -0.0925 -6.0307  1.4847
  219MOL0     H28885   8.126   4.720   1.898  1.4253 -2.1999 -0.6213
  219MOL0     H28886   8.214   4.701   1.630  0.2011 -0.0235 -0.2234
  219MOL0     H28887   8.324   4.827   1.691  0.1697 -0.3855 -0.9183
  219MOL0     H28888   8.437   4.581   1.747 -0.5914 -2.6841  0.4996
  219MOL0     H28889   8.287   4.543   1.796 -2.7663  2.8238  0.8446
  219MOL0     H28890   7.700   5.244   1.776  2.6504  1.2449 -1.3739
  219MOL0     H28891   7.477   5.330   1.769  1.0560 -0.2726  0.0230
  219MOL0     H28892   7.252   5.693   2.036 -1.4263  2.6050  1.9141
  219MOL0     H28893   7.047   5.830   2.086 -1.2335 -2.3314  1.1040
  219MOL0     H28894   8.227   6.736   2.234  0.7652  0.3538 -0.3252
  219MOL0     H28895   8.469   6.745   2.266 -2.7821 -2.4414 -0.0990
  219MOL0     H28896   8.828   6.853   2.255 -0.4022 -0.2218 -3.6172
  219MOL0     H28897   9.073   6.831   2.280 -0.6833 -1.2971  2.3078
  219MOL0     H28898   9.229   6.845   2.424 -0.9312  0.1467  1.1273
  219MOL0     H28899   9.354   6.943   2.493  0.0097  0.0867 -0.6713
  219MOL0     H28900   9.443   6.760   2.350  0.7914  0.2939  1.1220
  219MOL0     H28901   9.354   6.840   2.211 -3.9100  1.4339  1.5069
  219MOL0     H28902   9.572   6.945   2.401  1.3548 -1.4587 -0.7682
  219MOL0     H28903   9.497   7.058   2.296 -1.7207 -0.5108 -2.4128
  219MOL0     H28904   9.704   7.006   2.216 -1.7861  2.3634  2.7989
  219MOL0     H28905   9.688   6.834   2.239  1.2157  0.4849 -2.1857
  219MOL0     H28906   9.521   6.924   1.845 -0.2684 -1.3271 -0.1645
  219MOL0     H28907   9.092   7.260   2.389  1.2935  0.0048  0.9066
  219MOL0     H28908   8.848   7.269   2.358 -2.0185 -1.2129  0.8391
  220MOL0     O28909   9.493  10.510  10.668  0.6174  0.9982  0.0262
  220MOL0     C28910   9.508  10.437  10.765  1.0213 -0.4811 -0.3677
  220MOL0     O28911   9.625  10.375  10.804  0.9236 -0.2475 -0.0385
  220MOL0     C28912   9.716  10.338  10.707 -0.5082 -0.1207 -0.7828
  220MOL0     C28913   9.763  10.204  10.727  0.0581  0.1746  0.4263
  220MOL0     C28914   9.870  10.161  10.647  0.3517 -0.4564  1.7150
  220MOL0     C28915   9.933  10.248  10.546  0.8205 -0.1202 -0.6998
  220MOL0     O28916  10.037  10.202  10.478  0.0864  0.2527 -0.0927
  220MOL0     C28917  10.133  10.299  10.425  0.2009 -0.4393  0.0495
  220MOL0     C28918  10.164  10.244  10.292  0.0651  0.6044 -0.0457
  220MOL0     C28919  10.301  10.169  10.292  0.5887  0.5505  0.4716
  220MOL0     C28920  10.413  10.269  10.278 -0.3814  0.1016  0.0966
  220MOL0     C28921  10.539  10.187  10.271  0.8081  0.4476 -0.4004
  220MOL0     C28922  10.596  10.163  10.413  0.2430  0.4319  0.3907
  220MOL0     C28923  10.731  10.091  10.405  0.2300 -0.4223  0.7437
  220MOL0     C28924  10.757  10.004  10.527  0.5782 -0.1003  0.2216
  220MOL0     N28925  10.809  10.068  10.639 -0.0192 -0.2698 -0.0460
  220MOL0     C28926  10.794  10.011  10.767 -0.1533 -0.2166  0.4194
  220MOL0     C28927  10.873  10.073  10.854  0.1840 -0.5089 -0.1751
  220MOL0     C28928  10.897  10.048  11.006 -0.1142 -0.1442 -0.0735
  220MOL0     C28929  10.934   9.906  11.030 -1.6235 -0.3039 -0.7342
  220MOL0     C28930  10.908   9.866  11.169 -1.1679  0.1819 -0.0890
  220MOL0     C28931  10.906   9.709  11.193  0.2918  0.4986 -0.2547
  220MOL0     O28932  10.804   9.632  11.129 -0.1347  0.2676 -0.2883
  220MOL0     C28933  10.681   9.656  11.191 -0.4340  1.5575 -0.8296
  220MOL0     C28934  10.588   9.745  11.129  0.2977 -0.4815 -0.3134
  220MOL0     C28935  10.467   9.786  11.186  0.8391 -0.3384 -0.5029
  220MOL0     C28936  10.436   9.731  11.315  1.3029  0.7761 -0.2348
  220MOL0     C28937  10.309   9.760  11.389 -0.2758  0.2586 -0.4419
  220MOL0     O28938  10.216   9.844  11.317 -0.6421  0.0625  0.1821
  220MOL0     C28939  10.096   9.878  11.373 -0.2511 -0.1989  0.4066
  220MOL0     C28940  10.012   9.787  11.435  0.2504 -0.6363  0.0259
  220MOL0     C28941   9.888   9.832  11.489 -0.1808  0.0032 -0.6153
  220MOL0     C28942   9.834   9.956  11.466  0.9073 -1.3197  0.5806
  220MOL0     O28943   9.708  10.001  11.518 -0.5369 -0.1183 -0.4244
  220MOL0     C28944   9.616   9.902  11.583  0.2015  0.3873  0.0829
  220MOL0     C28945   9.484   9.972  11.639  0.3192 -0.3342  0.1236
  220MOL0     C28946   9.409   9.857  11.724 -0.4172 -0.2003  0.6896
  220MOL0     C28947   9.285   9.915  11.789  0.0131 -0.4724  0.2076
  220MOL0     C28948   9.195   9.809  11.850 -0.5195  0.3325  0.1452
  220MOL0     C28949   9.128   9.722  11.752 -1.3348  0.8670 -0.6059
  220MOL0     C28950   9.043   9.615  11.820  0.2607 -0.1714 -1.0453
  220MOL0     C28951   8.930   9.574  11.719  0.8613  0.1376  0.1030
  220MOL0    Cl28952   8.797   9.464  11.776  0.6484  0.0220  0.0333
  220MOL0     C28953   9.910  10.051  11.385 -0.8330  0.0552  0.2354
  220MOL0     C28954  10.038  10.009  11.343  0.9868 -0.5805 -0.4646
  220MOL0     O28955  10.300   9.722  11.506 -0.4556  0.7298  0.4396
  220MOL0     C28956  10.530   9.638  11.370 -0.3718  0.8891  0.2935
  220MOL0     C28957  10.646   9.598  11.309  0.2725 -0.1518  0.5343
  220MOL0     N28958  10.930  10.171  10.782 -0.2290 -0.2554  0.5315
  220MOL0     N28959  10.898  10.156  10.653 -0.6947  0.0937 -0.1357
  220MOL0     C28960   9.878  10.377  10.528 -0.5920 -0.1379 -0.5032
  220MOL0     C28961   9.775  10.422  10.613  0.7156  0.8580 -0.2094
  220MOL0     C28962   9.385  10.420  10.856 -0.0097 -0.2161  0.1329
  220MOL0     C28963   9.261  10.495  10.841 -0.7947 -0.0694  0.1474
  220MOL0     C28964   9.150  10.485  10.922 -0.2764  0.4301  0.9455
  220MOL0     C28965   9.158  10.402  11.038 -1.0511  0.2487  0.9122
  220MOL0     O28966   9.043  10.373  11.120 -0.8101  0.1467 -0.1051
  220MOL0     C28967   8.916  10.441  11.102 -0.0134 -1.0550  0.9614
  220MOL0     C28968   8.930  10.583  11.166  0.3810  0.3090 -0.2666
  220MOL0     C28969   8.974  10.573  11.309  1.1092 -0.3386  0.0331
  220MOL0     C28970   8.856  10.541  11.407 -0.3778  0.6050 -0.2095
  220MOL0     C28971   8.774  10.666  11.436  0.8427  0.0631  0.1583
  220MOL0     C28972   8.693  10.750  11.474  0.1531 -0.2241 -0.6344
  220MOL0     C28973   9.278  10.322  11.052  1.1505 -0.8852  1.0057
  220MOL0     C28974   9.387  10.334  10.964 -0.5621  0.9812  0.5562
  220MOL0     H28975   9.722  10.133  10.798 -1.0926 -0.9297 -1.2676
  220MOL0     H28976   9.909  10.060  10.659 -3.1754 -2.3512 -1.0313
  220MOL0     H28977  10.220  10.307  10.490  0.0714 -3.8088  0.8331
  220MOL0     H28978  10.097  10.401  10.409  0.1060 -0.6657 -1.3218
  220MOL0     H28979  10.182  10.325  10.221 -0.1522  0.8628  0.1957
  220MOL0     H28980  10.087  10.179  10.250 -2.0786  1.6434  2.0937
  220MOL0     H28981  10.306  10.100  10.208  0.3159 -0.3992  1.2130
  220MOL0     H28982  10.322  10.116  10.386  3.4989  0.1925 -0.2980
  220MOL0     H28983  10.411  10.327  10.186  1.2912  2.4395  1.4231
  220MOL0     H28984  10.411  10.349  10.352 -1.1980  0.7946 -0.6509
  220MOL0     H28985  10.621  10.231  10.214  0.9229  1.6361  0.6435
  220MOL0     H28986  10.521  10.093  10.219 -3.2715  2.0097 -2.1944
  220MOL0     H28987  10.519  10.100  10.458 -1.2932  0.8550 -1.4860
  220MOL0     H28988  10.599  10.261  10.460 -1.8848  1.8758 -2.1528
  220MOL0     H28989  10.727  10.021  10.322 -0.0889 -1.9466  1.9966
  220MOL0     H28990  10.810  10.166  10.397 -0.2710 -0.0938 -2.3335
  220MOL0     H28991  10.814   9.913  10.509  1.7304  0.0756  2.5946
  220MOL0     H28992  10.654   9.974  10.551 -1.2066  4.6195 -0.2999
  220MOL0     H28993  10.731   9.931  10.804  1.0964 -0.3854  2.3583
  220MOL0     H28994  10.811  10.068  11.069  0.7767 -0.9374  1.4530
  220MOL0     H28995  10.983  10.104  11.044  0.9258 -2.1806  0.7270
  220MOL0     H28996  11.042   9.913  11.010 -1.5735 -1.4129 -0.9154
  220MOL0     H28997  10.883   9.828  10.972 -0.2853 -1.7958  0.0245
  220MOL0     H28998  10.993   9.905  11.227  1.9436 -3.5082 -1.7337
  220MOL0     H28999  10.812   9.904  11.205 -2.6117 -1.8964 -1.4865
  220MOL0     H29000  10.888   9.709  11.301 -0.5538  2.1825 -0.3735
  220MOL0     H29001  11.006   9.665  11.180  0.3316  0.6529 -0.4696
  220MOL0     H29002  10.627   9.780  11.034 -0.7447  0.6904 -0.3339
  220MOL0     H29003  10.399   9.856  11.139  0.4648  1.3005  2.2591
  220MOL0     H29004  10.043   9.686  11.460  3.4813 -0.3222 -2.1618
  220MOL0     H29005   9.842   9.761  11.557  0.7483 -1.5631 -1.5868
  220MOL0     H29006   9.666   9.860  11.671  1.2539  1.3233 -0.0492
  220MOL0     H29007   9.603   9.814  11.519 -0.1421 -0.4228  1.2318
  220MOL0     H29008   9.434  10.012  11.550 -0.5778  0.6255  1.0327
  220MOL0     H29009   9.514  10.057  11.700 -0.9778  2.4125 -2.7757
  220MOL0     H29010   9.478   9.818  11.800  0.4661  0.7735  0.4087
  220MOL0     H29011   9.382   9.767  11.668  0.2500  1.1479 -1.9306
  220MOL0     H29012   9.308   9.991  11.865 -0.8782  0.4072 -0.3734
  220MOL0     H29013   9.239   9.982  11.716 -0.1313 -0.2419  0.5054
  220MOL0     H29014   9.119   9.847  11.918 -1.9381  0.8928 -1.6914
  220MOL0     H29015   9.260   9.755  11.920 -1.5469  0.2016  1.0206
  220MOL0     H29016   9.197   9.665  11.688 -2.1434 -1.3852  0.4450
  220MOL0     H29017   9.072   9.794  11.692  1.8369  2.8525 -1.4407
  220MOL0     H29018   9.091   9.519  11.840 -3.1841 -1.6361  1.0086
  220MOL0     H29019   9.012   9.650  11.919  3.7108  0.8645 -0.1892
  220MOL0     H29020   8.975   9.529  11.630  0.5946  1.7047 -0.8517
  220MOL0     H29021   8.893   9.665  11.671 -1.7521 -1.2440 -0.7254
  220MOL0     H29022   9.861  10.144  11.360  0.8863  1.7982  2.8012
  220MOL0     H29023  10.106  10.065  11.279  0.4362 -1.2616 -1.6770
  220MOL0     H29024  10.507   9.592  11.466  1.8931 -0.5697  0.2217
  220MOL0     H29025  10.708   9.520  11.353 -0.3700  0.5039  2.7480
  220MOL0     H29026   9.901  10.441  10.443 -0.6546 -2.4572 -2.3643
  220MOL0     H29027   9.723  10.515  10.591  0.9743  0.1319 -4.9015
  220MOL0     H29028   9.264  10.563  10.757  0.0526 -0.2694  0.0040
  220MOL0     H29029   9.062  10.545  10.905  0.2194  1.6750  2.4749
  220MOL0     H29030   8.846  10.376  11.156  1.0329 -2.7320  0.3728
  220MOL0     H29031   8.887  10.460  10.998  0.1902  1.4965  1.3004
  220MOL0     H29032   8.995  10.655  11.116 -1.0068  2.1737  0.5118
  220MOL0     H29033   8.836  10.638  11.165  1.7902  2.8509 -0.6237
  220MOL0     H29034   9.018  10.667  11.342  0.0511  0.1393  0.1068
  220MOL0     H29035   9.052  10.496  11.320 -0.1249 -1.4351  1.5756
  220MOL0     H29036   8.793  10.462  11.365 -2.1950  1.7584  0.2492
  220MOL0     H29037   8.894  10.503  11.502  0.6983 -0.0700 -0.8921
  220MOL0     H29038   8.618  10.815  11.515  1.7221  1.9969 -1.1145
  220MOL0     H29039   9.264  10.255  11.136  1.3985  0.0287  1.8041
  220MOL0     H29040   9.475  10.272  10.979  0.2074  2.0669  0.5713
  221MOL0     O29041   2.604   7.137   7.036  0.1692  0.4349 -0.0064
  221MOL0     C29042   2.691   7.169   7.118  0.2460 -0.2697  0.5486
  221MOL0     O29043   2.667   7.194   7.252 -0.8894 -0.4694  0.9750
  221MOL0     C29044   2.549   7.162   7.305  0.0818 -0.1406  0.3798
  221MOL0     C29045   2.536   7.044   7.367  0.6427  0.3889 -0.0336
  221MOL0     C29046   2.413   7.007   7.418  0.0822  0.5780 -0.5715
  221MOL0     C29047   2.306   7.096   7.439 -0.8234 -1.0478  0.3849
  221MOL0     O29048   2.188   7.044   7.486  0.4027  0.0784 -0.1340
  221MOL0     C29049   2.103   7.134   7.568 -0.1232  0.0456 -0.2680
  221MOL0     C29050   1.957   7.137   7.512 -0.2911  0.5343  0.0950
  221MOL0     C29051   1.868   7.258   7.559  1.4325 -0.3805 -0.1912
  221MOL0     C29052   1.725   7.232   7.502  0.3464  0.4970  0.1390
  221MOL0     C29053   1.629   7.348   7.531 -0.1091 -0.1410  0.5548
  221MOL0     C29054   1.602   7.369   7.682 -0.4116 -0.0607  0.0443
  221MOL0     C29055   1.497   7.477   7.709  0.3727 -0.3425  0.5586
  221MOL0     C29056   1.357   7.420   7.755 -0.6422  0.7893  0.5707
  221MOL0     N29057   1.241   7.510   7.774  0.6528 -0.3821  0.4764
  221MOL0     C29058   1.105   7.474   7.760 -0.7975 -0.6510 -0.3123
  221MOL0     C29059   1.038   7.589   7.736 -0.6899  0.0980  0.4151
  221MOL0     C29060   0.889   7.592   7.726  0.2258  1.3470 -0.4921
  221MOL0     C29061   0.829   7.734   7.720  0.3809  0.4569 -0.0414
  221MOL0     C29062   0.682   7.727   7.728 -0.0241  0.0940 -0.2220
  221MOL0     C29063   0.616   7.859   7.732  0.6776 -0.0026 -0.5439
  221MOL0     O29064   0.474   7.829   7.741  0.5825 -0.2248 -0.3062
  221MOL0     C29065   0.399   7.829   7.624  1.0342 -0.0534  0.0219
  221MOL0     C29066   0.448   7.815   7.503 -0.1298  1.0243 -0.7459
  221MOL0     C29067   0.370   7.822   7.393  0.2238  1.0063  0.1492
  221MOL0     C29068   0.224   7.845   7.401 -0.3555  0.9730  0.1083
  221MOL0     C29069   0.151   7.885   7.281  0.0207  0.5268  0.1717
  221MOL0     O29070   0.207   7.865   7.161 -0.8370 -0.3960  0.1189
  221MOL0     C29071   0.147   7.905   7.047  0.0689 -0.2069  0.2586
  221MOL0     C29072   0.229   7.994   6.973 -0.0183  0.1696 -0.4458
  221MOL0     C29073   0.190   8.049   6.856 -1.1721 -0.0498 -0.2144
  221MOL0     C29074   0.059   8.035   6.821 -0.0444  0.4853 -0.0432
  221MOL0     O29075   0.007   8.095   6.712 -0.1349 -0.7657  0.6098
  221MOL0     C29076   0.082   8.182   6.625 -0.5443  0.0001  0.1178
  221MOL0     C29077  -0.003   8.198   6.505 -0.1804 -0.7730 -0.2374
  221MOL0     C29078  -0.143   8.262   6.524 -0.3290 -0.5066 -0.0785
  221MOL0     C29079  -0.202   8.282   6.388 -0.5428 -0.6233 -0.3110
  221MOL0     C29080  -0.354   8.296   6.405  0.5680 -0.7935  0.2596
  221MOL0     C29081  -0.423   8.173   6.460 -0.2669 -0.6181 -0.2354
  221MOL0     C29082  -0.545   8.211   6.549 -0.1355 -0.0935 -0.6551
  221MOL0     C29083  -0.653   8.099   6.551 -0.2756  0.6328 -0.0456
  221MOL0    Cl29084  -0.810   8.158   6.618 -0.3314 -0.0941 -0.3205
  221MOL0     C29085  -0.030   7.969   6.901  0.4216 -0.0643 -0.3282
  221MOL0     C29086   0.009   7.895   7.007 -0.6369 -0.0093 -0.0600
  221MOL0     O29087   0.042   7.943   7.306 -0.4478  0.1289 -0.1680
  221MOL0     C29088   0.173   7.850   7.538  0.2280  0.4526  0.9145
  221MOL0     C29089   0.262   7.844   7.643 -0.1964 -0.1756  0.1364
  221MOL0     N29090   1.124   7.695   7.733  0.9517  0.1418  0.0906
  221MOL0     N29091   1.240   7.645   7.757 -0.5121 -0.0609 -0.7417
  221MOL0     C29092   2.338   7.229   7.397  0.2903 -0.7672  0.9290
  221MOL0     C29093   2.451   7.259   7.323  0.2746  0.2575 -0.0202
  221MOL0     C29094   2.832   7.180   7.074 -0.3219  0.3783  0.4949
  221MOL0     C29095   2.871   7.227   6.951 -0.0718 -0.5931 -0.0890
  221MOL0     C29096   3.010   7.246   6.919  0.4561 -0.1366 -0.4052
  221MOL0     C29097   3.107   7.205   7.011 -0.5839 -1.2792  0.2161
  221MOL0     O29098   3.241   7.221   6.971  0.7394 -0.1796 -0.3691
  221MOL0     C29099   3.352   7.208   7.060  0.2666  0.7455  0.5321
  221MOL0     C29100   3.376   7.336   7.145  0.7179  0.1521 -0.1220
  221MOL0     C29101   3.389   7.468   7.065 -0.8558  0.8771  0.1527
  221MOL0     C29102   3.471   7.459   6.937  0.2972 -0.3295  0.4514
  221MOL0     C29103   3.603   7.412   6.954  0.1679  0.3731  0.0298
  221MOL0     C29104   3.715   7.366   6.951  0.4859 -0.5190  0.7208
  221MOL0     C29105   3.067   7.144   7.128  0.8251  0.3485  0.7407
  221MOL0     C29106   2.938   7.146   7.164 -0.1975 -0.4915 -0.5564
  221MOL0     H29107   2.609   6.964   7.372  0.4863  0.3280  4.4178
  221MOL0     H29108   2.409   6.903   7.450  1.9694 -0.6877 -3.9170
  221MOL0     H29109   2.135   7.239   7.573  0.7619 -0.2591  0.5624
  221MOL0     H29110   2.100   7.096   7.670  0.1306  0.0048 -0.2750
  221MOL0     H29111   1.907   7.040   7.527 -1.1152  0.5943 -1.8891
  221MOL0     H29112   1.971   7.144   7.403  0.4418  1.0991  0.2248
  221MOL0     H29113   1.902   7.348   7.509 -0.5634  0.0342 -0.8849
  221MOL0     H29114   1.868   7.277   7.667 -0.7264  1.7514 -0.4898
  221MOL0     H29115   1.725   7.220   7.393 -0.3091 -1.7572  0.3295
  221MOL0     H29116   1.694   7.138   7.549 -0.1549 -0.2566 -1.5905
  221MOL0     H29117   1.540   7.337   7.468  0.8750 -0.4949 -0.8135
  221MOL0     H29118   1.674   7.439   7.492  1.5960 -1.2743 -0.2429
  221MOL0     H29119   1.694   7.406   7.730 -0.9401  1.1191  0.1954
  221MOL0     H29120   1.574   7.274   7.728  1.4110 -1.1424 -0.9372
  221MOL0     H29121   1.513   7.548   7.790 -0.2921  0.1818  0.2475
  221MOL0     H29122   1.481   7.535   7.617 -0.7339  0.0378  0.9673
  221MOL0     H29123   1.369   7.374   7.854  2.6050 -1.0290 -0.5092
  221MOL0     H29124   1.323   7.339   7.691 -0.4423  1.3646 -0.2782
  221MOL0     H29125   1.068   7.372   7.772 -1.3896 -0.7450 -2.4293
  221MOL0     H29126   0.831   7.543   7.805 -0.4585  2.6603 -0.1413
  221MOL0     H29127   0.859   7.543   7.634 -3.5379 -1.0687  1.7359
  221MOL0     H29128   0.864   7.777   7.626  1.2508  1.1901  0.5913
  221MOL0     H29129   0.873   7.796   7.799  4.6334 -0.9199 -1.0475
  221MOL0     H29130   0.650   7.667   7.642 -0.2655  3.4558 -2.6356
  221MOL0     H29131   0.642   7.682   7.819  0.0992 -0.1028 -0.2644
  221MOL0     H29132   0.642   7.914   7.641  3.7408  0.0110  0.2442
  221MOL0     H29133   0.643   7.917   7.821  0.7404  0.3586 -0.7982
  221MOL0     H29134   0.553   7.812   7.475 -0.3063  2.1672 -1.6309
  221MOL0     H29135   0.425   7.831   7.300 -0.1658 -1.3759 -0.3702
  221MOL0     H29136   0.334   8.009   6.994 -0.1048  3.4997 -1.7617
  221MOL0     H29137   0.267   8.101   6.801  0.5069 -1.5614  0.5887
  221MOL0     H29138   0.169   8.126   6.592 -3.4167 -2.7991 -3.6398
  221MOL0     H29139   0.105   8.276   6.675  1.6658 -1.2030  1.5071
  221MOL0     H29140  -0.016   8.104   6.451 -0.5822 -0.6010 -0.4485
  221MOL0     H29141   0.055   8.257   6.434  3.0449 -2.0379  1.1599
  221MOL0     H29142  -0.148   8.356   6.580  1.0791  1.9235 -3.6789
  221MOL0     H29143  -0.201   8.195   6.587  2.5670 -1.9435  1.2465
  221MOL0     H29144  -0.170   8.378   6.347 -1.8475  0.1156  0.3374
  221MOL0     H29145  -0.192   8.195   6.323 -0.2244  1.4638 -3.2569
  221MOL0     H29146  -0.394   8.319   6.305  1.4683 -0.5955 -0.0665
  221MOL0     H29147  -0.377   8.385   6.465 -0.7495  0.1771 -1.5745
  221MOL0     H29148  -0.356   8.100   6.507 -2.0286 -1.5910  0.9197
  221MOL0     H29149  -0.458   8.123   6.370 -0.6989  0.3161 -0.5944
  221MOL0     H29150  -0.501   8.230   6.648  2.4979 -0.3905 -1.6868
  221MOL0     H29151  -0.593   8.303   6.513 -1.6029 -0.5146  0.1399
  221MOL0     H29152  -0.609   8.014   6.604 -0.3872  1.3640  1.2891
  221MOL0     H29153  -0.676   8.063   6.451  1.4037 -0.9158  0.0745
  221MOL0     H29154  -0.132   7.964   6.866  1.4145 -0.4623 -3.4500
  221MOL0     H29155  -0.068   7.834   7.052 -2.1911  3.3920  2.3383
  221MOL0     H29156   0.070   7.861   7.569  0.2562  0.8891  0.8611
  221MOL0     H29157   0.232   7.845   7.747 -3.5348 -0.8716 -0.7149
  221MOL0     H29158   2.269   7.304   7.435  0.4015  1.3833 -2.6546
  221MOL0     H29159   2.468   7.356   7.278  1.4787 -1.8068 -4.7277
  221MOL0     H29160   2.801   7.236   6.869 -0.3479 -0.8261  0.1178
  221MOL0     H29161   3.045   7.279   6.822 -3.9499  2.0996 -1.4889
  221MOL0     H29162   3.435   7.175   6.996 -2.4699 -0.9641 -2.4105
  221MOL0     H29163   3.322   7.134   7.135 -1.5236  1.0992  0.1900
  221MOL0     H29164   3.282   7.344   7.200  0.7515  0.8408 -0.1551
  221MOL0     H29165   3.451   7.308   7.219  0.3031  1.3759  0.7896
  221MOL0     H29166   3.424   7.549   7.130 -3.0201  1.3073  0.8679
  221MOL0     H29167   3.289   7.487   7.026 -1.0509 -0.9021 -0.3200
  221MOL0     H29168   3.414   7.398   6.866  0.7441 -1.9803  1.4513
  221MOL0     H29169   3.479   7.559   6.892 -0.8627 -0.8940 -1.0839
  221MOL0     H29170   3.816   7.331   6.957  1.1992  1.1290 -0.9667
  221MOL0     H29171   3.132   7.080   7.188 -0.2399 -3.3836 -1.7351
  221MOL0     H29172   2.918   7.111   7.265  0.4549 -2.0488 -0.9277
  222MOL0     O29173   7.479   5.522   3.920  0.3752 -0.5825 -1.0778
  222MOL0     C29174   7.518   5.501   3.810  0.0500  0.5915  0.2917
  222MOL0     O29175   7.459   5.526   3.686 -0.5456  0.1750  0.0170
  222MOL0     C29176   7.323   5.542   3.697  0.7520 -0.3841 -0.1679
  222MOL0     C29177   7.229   5.446   3.747 -0.0949  0.1553  0.6656
  222MOL0     C29178   7.087   5.471   3.764  0.5160  0.1502  0.7202
  222MOL0     C29179   7.035   5.597   3.725  0.2115 -0.5726  0.4753
  222MOL0     O29180   6.893   5.635   3.733  0.2527  0.3185 -0.3429
  222MOL0     C29181   6.803   5.543   3.797 -0.3114 -0.6953  0.0487
  222MOL0     C29182   6.669   5.614   3.832 -0.2155 -0.2687  0.0408
  222MOL0     C29183   6.575   5.621   3.709 -0.3592  0.2212 -0.4048
  222MOL0     C29184   6.447   5.711   3.741  0.0685  0.1809  0.0691
  222MOL0     C29185   6.474   5.857   3.759 -0.4067 -0.1449 -0.4670
  222MOL0     C29186   6.365   5.925   3.837  0.4485 -0.3220 -0.5556
  222MOL0     C29187   6.223   5.922   3.763  0.6200 -0.0350 -0.7356
  222MOL0     C29188   6.117   6.003   3.846 -0.4445  0.6079 -0.0174
  222MOL0     N29189   5.985   5.978   3.794  0.5300  0.3890 -0.2540
  222MOL0     C29190   5.877   5.950   3.870 -0.3113 -0.3096 -0.1260
  222MOL0     C29191   5.771   5.942   3.785 -0.4145  0.3185 -0.5128
  222MOL0     C29192   5.632   5.934   3.811  0.2363 -0.4364 -0.1889
  222MOL0     C29193   5.583   6.063   3.874 -0.2716  0.1766 -0.6186
  222MOL0     C29194   5.462   6.037   3.965  0.6229  0.1896  0.9619
  222MOL0     C29195   5.419   6.187   4.016  0.5670  1.0531  0.3166
  222MOL0     O29196   5.545   6.261   4.050  0.3005 -0.3036 -0.4700
  222MOL0     C29197   5.546   6.387   4.119  0.1749 -0.0326  0.7289
  222MOL0     C29198   5.427   6.456   4.137 -0.1745  0.0106 -0.5920
  222MOL0     C29199   5.442   6.585   4.195 -0.2350 -0.1657 -0.7971
  222MOL0     C29200   5.573   6.638   4.223 -0.4680 -0.6500 -1.3906
  222MOL0     C29201   5.573   6.777   4.272  0.5481  0.0995 -0.5407
  222MOL0     O29202   5.459   6.854   4.291 -0.0010  0.5684  0.0819
  222MOL0     C29203   5.454   6.966   4.363 -0.0709  0.0524  0.5178
  222MOL0     C29204   5.498   7.090   4.308  0.1970  0.2183  0.5238
  222MOL0     C29205   5.497   7.206   4.369 -0.5749  1.0457  0.1482
  222MOL0     C29206   5.449   7.214   4.500 -0.3457 -0.1188 -0.2077
  222MOL0     O29207   5.483   7.327   4.568 -0.7250  0.0638  0.1207
  222MOL0     C29208   5.436   7.336   4.696  0.0208  0.0974 -0.4807
  222MOL0     C29209   5.482   7.469   4.763  0.3737  0.6825  0.6321
  222MOL0     C29210   5.459   7.489   4.906  0.0203  0.3736  0.3151
  222MOL0     C29211   5.472   7.357   4.990  0.2872 -0.0132  0.6834
  222MOL0     C29212   5.429   7.378   5.139 -0.2710  0.0787 -0.3943
  222MOL0     C29213   5.458   7.253   5.218 -0.0541  0.1345  0.7053
  222MOL0     C29214   5.437   7.259   5.371  0.2364 -0.5550  0.7559
  222MOL0     C29215   5.283   7.268   5.403 -0.4491  0.1931 -1.0211
  222MOL0    Cl29216   5.243   7.437   5.413  0.1184  0.2019 -0.6075
  222MOL0     C29217   5.389   7.096   4.558 -0.1487  0.3428  0.1304
  222MOL0     C29218   5.387   6.978   4.481  0.1434 -0.1050 -0.7097
  222MOL0     O29219   5.682   6.823   4.300  0.2124 -0.3094 -0.0204
  222MOL0     C29220   5.684   6.570   4.190 -0.2953 -0.0630  0.2434
  222MOL0     C29221   5.671   6.445   4.144 -0.1161 -0.1484  0.3795
  222MOL0     N29222   5.823   5.972   3.660  0.4864  0.4561 -0.3526
  222MOL0     N29223   5.947   5.987   3.667 -0.8234 -0.0860 -0.5002
  222MOL0     C29224   7.124   5.693   3.671  0.3286  0.9694  0.5313
  222MOL0     C29225   7.266   5.669   3.668  1.4369 -0.5536  0.0157
  222MOL0     C29226   7.651   5.444   3.807 -0.4417 -0.0072  1.4095
  222MOL0     C29227   7.741   5.458   3.909  0.0058  0.4219  0.2398
  222MOL0     C29228   7.858   5.386   3.909  0.4003  0.0624  1.1843
  222MOL0     C29229   7.908   5.321   3.796 -0.2517  0.2023  0.1335
  222MOL0     O29230   8.019   5.245   3.787  0.5688  0.5532  0.2190
  222MOL0     C29231   8.118   5.264   3.886 -0.7498  0.3781 -0.0589
  222MOL0     C29232   8.242   5.198   3.828  0.0861  0.1091 -0.1322
  222MOL0     C29233   8.375   5.243   3.879  0.5855  0.5089 -0.0262
  222MOL0     C29234   8.474   5.168   3.807 -0.3740 -0.5524  0.1624
  222MOL0     C29235   8.607   5.178   3.879  0.0583  0.3567 -0.0431
  222MOL0     C29236   8.722   5.184   3.928  1.0956  0.1374  0.2294
  222MOL0     C29237   7.823   5.316   3.687  0.0570  1.4685 -0.5007
  222MOL0     C29238   7.700   5.377   3.691  0.9450 -1.4397 -0.5332
  222MOL0     H29239   7.273   5.349   3.770 -0.3521 -0.1000  0.0778
  222MOL0     H29240   7.034   5.384   3.803  0.0252  0.5048  0.8534
  222MOL0     H29241   6.833   5.497   3.891 -0.8718 -2.8201 -0.7600
  222MOL0     H29242   6.779   5.456   3.736  1.6087 -2.5326  1.7850
  222MOL0     H29243   6.693   5.715   3.868 -1.9631  0.1726  0.0417
  222MOL0     H29244   6.613   5.569   3.915  1.0294  0.8161  1.5457
  222MOL0     H29245   6.544   5.523   3.674  1.4846 -0.3610 -0.5131
  222MOL0     H29246   6.632   5.667   3.627 -1.2454  0.6216 -0.8082
  222MOL0     H29247   6.388   5.692   3.650  1.3857 -0.0166 -0.7696
  222MOL0     H29248   6.397   5.674   3.831  2.4847  1.6547  2.1559
  222MOL0     H29249   6.492   5.907   3.664  1.9677  2.4072  1.1878
  222MOL0     H29250   6.562   5.876   3.821 -1.4199 -0.5740  1.1478
  222MOL0     H29251   6.399   6.026   3.865  1.5656 -0.7829 -0.1752
  222MOL0     H29252   6.342   5.872   3.930 -3.1999 -1.7775 -2.1097
  222MOL0     H29253   6.247   5.965   3.666  1.6137 -2.1415 -1.4743
  222MOL0     H29254   6.185   5.821   3.746 -0.1188 -0.3474  2.1323
  222MOL0     H29255   6.148   6.108   3.841  1.8405 -0.0455 -0.5716
  222MOL0     H29256   6.124   5.969   3.949 -2.8281 -0.1507 -0.0512
  222MOL0     H29257   5.870   5.933   3.977 -0.6515 -2.3306 -0.4358
  222MOL0     H29258   5.611   5.845   3.871 -2.0230 -2.6274 -3.8194
  222MOL0     H29259   5.572   5.920   3.720  0.5875 -1.3488 -0.3006
  222MOL0     H29260   5.560   6.132   3.792  1.5662 -0.3596 -1.6278
  222MOL0     H29261   5.664   6.098   3.938 -0.1317 -2.0732  0.5198
  222MOL0     H29262   5.391   5.997   3.893  2.0207  1.1212 -1.0303
  222MOL0     H29263   5.493   5.977   4.051  0.7383 -0.2199  0.6360
  222MOL0     H29264   5.350   6.180   4.100 -0.5062 -1.9259 -0.6771
  222MOL0     H29265   5.367   6.234   3.931 -0.5509 -0.2232  0.2677
  222MOL0     H29266   5.330   6.420   4.105  0.4581 -0.8712 -1.6168
  222MOL0     H29267   5.346   6.635   4.209 -0.7914 -0.6812 -2.5271
  222MOL0     H29268   5.541   7.077   4.209 -1.1860 -2.9239  0.2211
  222MOL0     H29269   5.535   7.290   4.311  0.2965  1.6210  1.5202
  222MOL0     H29270   5.481   7.253   4.751  1.4550 -0.2756 -2.1274
  222MOL0     H29271   5.328   7.324   4.684  0.5716 -4.0859 -3.3186
  222MOL0     H29272   5.430   7.550   4.710  0.5383  2.2282  2.7207
  222MOL0     H29273   5.590   7.474   4.752  0.4077 -0.2913  0.4348
  222MOL0     H29274   5.374   7.550   4.935  0.5308  0.8713  0.7874
  222MOL0     H29275   5.539   7.557   4.937  0.6093 -0.7831  1.4406
  222MOL0     H29276   5.413   7.277   4.943  0.0308 -2.0874  4.1875
  222MOL0     H29277   5.571   7.311   4.989 -0.3998 -1.5519  0.7695
  222MOL0     H29278   5.323   7.403   5.139  0.0519  1.9857  2.8594
  222MOL0     H29279   5.478   7.461   5.191 -3.1681  1.5067  0.2696
  222MOL0     H29280   5.560   7.219   5.199 -0.2745 -0.5300  0.6547
  222MOL0     H29281   5.401   7.167   5.182  0.0502  0.6068 -0.6237
  222MOL0     H29282   5.476   7.171   5.423  2.1855 -0.4554 -0.4189
  222MOL0     H29283   5.496   7.343   5.410  0.3529 -1.2113  2.0547
  222MOL0     H29284   5.252   7.211   5.492  2.6042 -0.6757 -0.4110
  222MOL0     H29285   5.222   7.225   5.323 -1.4369  0.5877 -0.5052
  222MOL0     H29286   5.352   7.088   4.660  3.1272 -3.5776  1.2839
  222MOL0     H29287   5.339   6.886   4.513  0.8607 -0.9150 -1.8841
  222MOL0     H29288   5.782   6.616   4.198 -0.2379  0.0083 -0.7232
  222MOL0     H29289   5.754   6.393   4.098  0.7123  2.0242 -0.7510
  222MOL0     H29290   7.092   5.794   3.651 -0.5995  0.1029 -3.1324
  222MOL0     H29291   7.326   5.753   3.636  0.5985  1.1928  2.7410
  222MOL0     H29292   7.715   5.519   3.994 -1.6548  1.8988 -1.2348
  222MOL0     H29293   7.922   5.398   3.996 -0.8541 -0.8712  2.2720
  222MOL0     H29294   8.093   5.227   3.985  0.4325 -1.0222 -0.2499
  222MOL0     H29295   8.121   5.373   3.900 -0.3161  0.0959  2.3092
  222MOL0     H29296   8.216   5.093   3.844 -2.0323 -0.4424 -5.1459
  222MOL0     H29297   8.264   5.214   3.722  1.7627 -3.4148 -0.4729
  222MOL0     H29298   8.381   5.216   3.985  0.6377  2.8292  0.6190
  222MOL0     H29299   8.396   5.349   3.866  0.1273  0.3597 -2.5522
  222MOL0     H29300   8.438   5.064   3.805 -0.1387 -0.6461  0.7368
  222MOL0     H29301   8.499   5.206   3.707  2.7293 -0.2895  0.9388
  222MOL0     H29302   8.820   5.178   3.970  0.4339 -1.2144  1.6997
  222MOL0     H29303   7.861   5.276   3.594 -0.5245 -1.3228  0.3332
  222MOL0     H29304   7.634   5.366   3.605 -1.1625  0.9307  0.6589
  223MOL0     O29305   6.646   6.812   7.227 -0.4004  0.3972  0.6428
  223MOL0     C29306   6.527   6.776   7.199 -0.1836  0.1636  0.1485
  223MOL0     O29307   6.497   6.700   7.092  1.0126 -0.3187 -0.6799
  223MOL0     C29308   6.585   6.655   7.001 -0.0384  1.5826 -0.5606
  223MOL0     C29309   6.675   6.552   7.029 -0.2412 -0.2279  0.2279
  223MOL0     C29310   6.742   6.487   6.928 -0.7230 -0.4659  0.0597
  223MOL0     C29311   6.716   6.510   6.791  0.0107 -1.0475  0.0042
  223MOL0     O29312   6.767   6.434   6.684  0.5110  0.0850 -0.2291
  223MOL0     C29313   6.772   6.293   6.702 -0.9001  0.3210  0.1331
  223MOL0     C29314   6.916   6.230   6.671  0.2023  0.9735 -0.5421
  223MOL0     C29315   7.028   6.258   6.776  0.2734  1.1810 -0.2964
  223MOL0     C29316   7.155   6.187   6.744  0.3235 -0.2669 -0.8201
  223MOL0     C29317   7.260   6.210   6.853 -0.3269  0.2271  0.4973
  223MOL0     C29318   7.388   6.138   6.821 -0.5131  0.0299 -0.5640
  223MOL0     C29319   7.504   6.200   6.902  0.2619  0.6499 -0.7386
  223MOL0     C29320   7.495   6.200   7.057  0.9617  0.3895  0.3878
  223MOL0     N29321   7.524   6.061   7.099  1.2076 -0.3158 -0.6667
  223MOL0     C29322   7.645   6.002   7.136  0.2440 -0.0769  0.0533
  223MOL0     C29323   7.618   5.885   7.204  0.0425 -0.2098  0.8925
  223MOL0     C29324   7.710   5.787   7.267 -0.0185  0.5786  0.0921
  223MOL0     C29325   7.769   5.843   7.392 -0.4048  0.6581  0.3884
  223MOL0     C29326   7.850   5.735   7.471  0.9594  0.3715  0.8070
  223MOL0     C29327   7.922   5.802   7.589 -0.2900  0.1257 -0.1480
  223MOL0     O29328   8.012   5.708   7.651  0.3101  0.1107 -0.3871
  223MOL0     C29329   8.080   5.750   7.762 -0.2706 -0.1132 -0.5009
  223MOL0     C29330   8.205   5.685   7.781  0.6244  1.2312 -0.2685
  223MOL0     C29331   8.289   5.704   7.889 -0.2481 -0.3908  0.2029
  223MOL0     C29332   8.245   5.803   7.978 -0.2605  0.2621  0.0892
  223MOL0     C29333   8.327   5.830   8.104  0.1684  0.3641  0.0188
  223MOL0     O29334   8.411   5.725   8.143  0.2570  0.4480  0.1573
  223MOL0     C29335   8.508   5.754   8.243  0.3438 -0.3372 -0.1244
  223MOL0     C29336   8.628   5.684   8.233 -0.7285 -0.9037  0.6028
  223MOL0     C29337   8.734   5.723   8.318  0.2351  0.8930  0.3464
  223MOL0     C29338   8.719   5.814   8.425 -0.0900 -0.3842  0.2197
  223MOL0     O29339   8.826   5.849   8.506 -0.0476 -0.0263  0.4878
  223MOL0     C29340   8.879   5.742   8.584 -0.2469 -0.3219  0.3501
  223MOL0     C29341   8.971   5.809   8.693  0.0651  0.3704  0.7253
  223MOL0     C29342   8.882   5.866   8.801 -0.1461  1.1418  0.1698
  223MOL0     C29343   8.833   6.009   8.773 -0.4466  0.5537 -0.2907
  223MOL0     C29344   8.719   6.055   8.868 -0.1226 -0.0204  0.6080
  223MOL0     C29345   8.751   6.029   9.013 -0.7885  0.0681 -0.0552
  223MOL0     C29346   8.865   6.104   9.082 -0.1623  0.0552  0.2210
  223MOL0     C29347   8.855   6.077   9.231 -0.2860 -0.6604  0.2336
  223MOL0    Cl29348   8.867   5.902   9.271 -0.5763 -0.0654  0.3782
  223MOL0     C29349   8.598   5.875   8.446  0.7588  0.4790 -0.9303
  223MOL0     C29350   8.497   5.844   8.349 -0.1387 -0.9092 -0.2524
  223MOL0     O29351   8.325   5.943   8.147  0.7467  0.6875 -0.8479
  223MOL0     C29352   8.126   5.872   7.965 -1.1288 -0.5296 -0.2884
  223MOL0     C29353   8.042   5.843   7.855  0.1251 -0.0537  0.5215
  223MOL0     N29354   7.479   5.869   7.202  0.3671 -0.3148 -0.2149
  223MOL0     N29355   7.432   5.964   7.125 -0.4689  0.2172  0.8322
  223MOL0     C29356   6.622   6.612   6.760  0.5182 -0.2262  0.4395
  223MOL0     C29357   6.553   6.681   6.866  1.0518  0.0499  0.2413
  223MOL0     C29358   6.415   6.850   7.268  0.2447  0.4448 -0.3609
  223MOL0     C29359   6.435   6.927   7.380  0.6843  0.6864 -0.3410
  223MOL0     C29360   6.334   6.983   7.451 -0.2648 -0.5704  1.0747
  223MOL0     C29361   6.199   6.973   7.414 -0.5892  0.1868  0.7955
  223MOL0     O29362   6.099   7.051   7.474  0.2708 -0.4054 -0.1554
  223MOL0     C29363   6.144   7.157   7.565  0.3793  1.1836  0.4591
  223MOL0     C29364   6.008   7.203   7.622 -0.1007 -0.2803  0.0022
  223MOL0     C29365   5.959   7.115   7.737  0.9777 -0.3812 -0.9868
  223MOL0     C29366   5.810   7.151   7.790  0.4158 -0.0295  0.2550
  223MOL0     C29367   5.793   7.117   7.931 -0.8930 -0.0464 -0.0828
  223MOL0     C29368   5.784   7.085   8.050  0.6286 -1.4655  0.0281
  223MOL0     C29369   6.177   6.895   7.300  0.2509 -0.1158  0.3769
  223MOL0     C29370   6.276   6.836   7.224 -0.8307 -0.8856 -0.5936
  223MOL0     H29371   6.699   6.526   7.132  3.3143  0.5870 -0.2790
  223MOL0     H29372   6.819   6.413   6.951 -2.1011 -1.6603  0.9689
  223MOL0     H29373   6.702   6.243   6.634 -0.2732  1.1904 -1.1710
  223MOL0     H29374   6.734   6.258   6.799 -1.0279 -0.7951 -0.3055
  223MOL0     H29375   6.948   6.257   6.570 -1.6424  1.1506 -1.1108
  223MOL0     H29376   6.888   6.124   6.676  2.2094  0.3044 -2.0503
  223MOL0     H29377   6.999   6.229   6.877  1.3490 -1.0734 -0.5697
  223MOL0     H29378   7.045   6.366   6.768  2.2038  0.8942 -0.6253
  223MOL0     H29379   7.142   6.079   6.735  0.4420 -0.2185 -1.6439
  223MOL0     H29380   7.193   6.220   6.647  5.9158  0.4732  1.2539
  223MOL0     H29381   7.227   6.160   6.945  2.4714 -1.4552  0.7223
  223MOL0     H29382   7.274   6.318   6.860 -1.3046  0.2562  2.7751
  223MOL0     H29383   7.408   6.168   6.718 -2.5250 -1.0234 -1.3223
  223MOL0     H29384   7.361   6.032   6.824 -0.7200  0.0915 -0.0890
  223MOL0     H29385   7.591   6.144   6.868 -0.4606 -0.3009 -1.0525
  223MOL0     H29386   7.510   6.306   6.875 -1.8000  0.6303 -1.5047
  223MOL0     H29387   7.400   6.237   7.097  1.0125 -0.5586  1.4188
  223MOL0     H29388   7.577   6.261   7.096  0.5594  1.6044 -0.5965
  223MOL0     H29389   7.743   6.036   7.102 -0.1838 -0.0890 -1.2360
  223MOL0     H29390   7.791   5.763   7.197  0.6840  0.6310  0.8717
  223MOL0     H29391   7.657   5.694   7.288  1.8162 -0.4558  0.3791
  223MOL0     H29392   7.685   5.873   7.456 -0.2057 -1.4324  1.7275
  223MOL0     H29393   7.847   5.912   7.356  1.4746 -1.8349 -0.5830
  223MOL0     H29394   7.768   5.679   7.517  0.6802  1.3837  1.5737
  223MOL0     H29395   7.911   5.678   7.399 -0.4498  2.6849 -2.4926
  223MOL0     H29396   7.848   5.847   7.657 -0.5271  0.2539 -0.4903
  223MOL0     H29397   7.980   5.888   7.552 -2.5721  1.4593 -0.8231
  223MOL0     H29398   8.242   5.616   7.706 -1.8572 -0.2540 -0.2513
  223MOL0     H29399   8.390   5.668   7.906  0.9537  3.6827  3.3663
  223MOL0     H29400   8.637   5.618   8.148 -0.2811  0.0906 -0.1403
  223MOL0     H29401   8.834   5.682   8.305 -0.3357 -0.3280 -0.3164
  223MOL0     H29402   8.957   5.693   8.525 -2.3740 -0.4205 -2.6287
  223MOL0     H29403   8.799   5.675   8.617 -1.1543  0.9860  0.9303
  223MOL0     H29404   9.049   5.876   8.659  0.8291 -0.9147 -0.1238
  223MOL0     H29405   9.034   5.733   8.740  1.2717  0.3378 -0.8813
  223MOL0     H29406   8.940   5.859   8.893 -2.4481 -0.0336  1.6191
  223MOL0     H29407   8.796   5.799   8.809  0.5040 -0.0359 -1.9648
  223MOL0     H29408   8.925   6.068   8.773 -0.0088  0.1427  3.5746
  223MOL0     H29409   8.791   6.012   8.672 -0.8469  2.2098 -0.0957
  223MOL0     H29410   8.629   6.000   8.842  1.2087 -0.7233 -3.1689
  223MOL0     H29411   8.698   6.161   8.851 -1.0927 -0.4347 -1.0015
  223MOL0     H29412   8.757   5.920   9.014  0.9379  0.1181 -0.4625
  223MOL0     H29413   8.667   6.066   9.071 -0.6599  2.6083 -1.3297
  223MOL0     H29414   8.966   6.075   9.052  0.2012  0.0305  1.4114
  223MOL0     H29415   8.852   6.208   9.052  1.1575  0.5073  1.1131
  223MOL0     H29416   8.763   6.117   9.275  1.1176  0.6382  2.1870
  223MOL0     H29417   8.934   6.139   9.276 -2.1073  0.8687  1.4969
  223MOL0     H29418   8.582   5.936   8.535  3.2231 -1.1739  0.7656
  223MOL0     H29419   8.397   5.885   8.360  0.9414  3.6194 -4.0900
  223MOL0     H29420   8.101   5.954   8.032  0.0767 -2.3394  2.5590
  223MOL0     H29421   7.952   5.903   7.845 -0.3825 -1.1588 -2.5298
  223MOL0     H29422   6.612   6.630   6.653  0.6241 -1.3272  0.2307
  223MOL0     H29423   6.486   6.766   6.860  0.5423 -0.3473  0.2289
  223MOL0     H29424   6.536   6.936   7.420  2.4681  2.2998 -4.6050
  223MOL0     H29425   6.373   7.054   7.522 -0.2955  5.5370 -4.0948
  223MOL0     H29426   6.191   7.236   7.506  2.1346 -1.6928 -2.3489
  223MOL0     H29427   6.214   7.123   7.642 -0.8614 -0.1325  1.0505
  223MOL0     H29428   6.016   7.308   7.651 -0.7236 -0.2905  0.2325
  223MOL0     H29429   5.926   7.204   7.549  0.5568  1.8913 -0.7874
  223MOL0     H29430   6.030   7.132   7.818  1.9089  0.3334 -1.9305
  223MOL0     H29431   5.963   7.008   7.715  1.3176 -1.0603  1.9231
  223MOL0     H29432   5.782   7.250   7.753  1.7491  0.0089 -0.7283
  223MOL0     H29433   5.738   7.084   7.742  1.2924 -1.0511  0.3101
  223MOL0     H29434   5.785   7.049   8.151 -4.0688 -0.6689  0.5733
  223MOL0     H29435   6.077   6.876   7.260  0.5013 -1.6079  0.3981
  223MOL0     H29436   6.253   6.783   7.133 -2.2027  1.6682 -1.8563
  224MOL0     O29437   0.960   2.643   2.943 -0.2375 -0.1576 -0.4547
  224MOL0     C29438   0.900   2.658   3.050 -0.1215 -0.1329  0.1993
  224MOL0     O29439   0.776   2.619   3.078  0.4858 -0.0172 -0.4608
  224MOL0     C29440   0.699   2.539   2.991  0.1032 -0.0500 -0.4491
  224MOL0     C29441   0.738   2.400   2.958  0.4866  0.4276  0.8768
  224MOL0     C29442   0.649   2.323   2.877 -1.4378  0.5604  0.6185
  224MOL0     C29443   0.525   2.370   2.833  0.1676 -0.3962 -1.1239
  224MOL0     O29444   0.439   2.293   2.760 -0.6787 -0.3504  0.0111
  224MOL0     C29445   0.315   2.256   2.822  0.2761  0.1315 -0.3604
  224MOL0     C29446   0.193   2.347   2.768 -0.8360  0.2502 -0.5983
  224MOL0     C29447   0.080   2.352   2.878 -0.2678  1.1897 -0.5781
  224MOL0     C29448  -0.046   2.423   2.822  0.1900 -0.0629  1.3458
  224MOL0     C29449  -0.146   2.453   2.935 -0.2137 -0.5351  0.0559
  224MOL0     C29450  -0.237   2.570   2.899  0.1555 -0.1264 -0.3054
  224MOL0     C29451  -0.353   2.584   2.999  0.3133  0.5140  0.2021
  224MOL0     C29452  -0.445   2.699   2.961  0.4853 -0.2612  0.5295
  224MOL0     N29453  -0.572   2.709   3.035 -0.2714 -0.3259  0.0724
  224MOL0     C29454  -0.660   2.610   3.031  0.4410  0.8293  1.3719
  224MOL0     C29455  -0.744   2.634   3.135  0.1311  0.4083  0.8313
  224MOL0     C29456  -0.857   2.551   3.188  0.1384 -0.2453  0.1038
  224MOL0     C29457  -0.960   2.627   3.270  0.2314 -0.3222  0.2479
  224MOL0     C29458  -1.055   2.723   3.188 -0.3718  0.6496 -0.3718
  224MOL0     C29459  -1.118   2.818   3.294 -0.6605  0.4161  0.3785
  224MOL0     O29460  -1.156   2.759   3.411  0.6202 -0.8833  0.5098
  224MOL0     C29461  -1.277   2.693   3.418  1.2160 -0.7392 -0.2522
  224MOL0     C29462  -1.296   2.628   3.532 -0.1587  0.6289 -0.0782
  224MOL0     C29463  -1.420   2.571   3.563 -0.8993  0.2307 -1.2171
  224MOL0     C29464  -1.529   2.584   3.475 -1.0513 -1.0342 -0.5565
  224MOL0     C29465  -1.659   2.526   3.519  0.0008  0.1556  0.4014
  224MOL0     O29466  -1.767   2.548   3.427  0.1598 -0.1117  0.4946
  224MOL0     C29467  -1.897   2.503   3.461 -0.7852  0.7610  0.4424
  224MOL0     C29468  -1.986   2.580   3.534 -1.6097 -0.1904  0.2479
  224MOL0     C29469  -2.112   2.537   3.566  0.5323  1.1539 -0.1346
  224MOL0     C29470  -2.155   2.407   3.514 -0.6582 -0.4374 -0.2081
  224MOL0     O29471  -2.285   2.358   3.537 -0.8224  0.6259 -0.0602
  224MOL0     C29472  -2.348   2.396   3.656  0.3854 -0.7180 -0.1611
  224MOL0     C29473  -2.451   2.512   3.631  0.3554 -0.4958 -0.3307
  224MOL0     C29474  -2.523   2.550   3.766  0.2639  0.8127 -0.3490
  224MOL0     C29475  -2.428   2.563   3.892 -1.1748  1.0001  0.1221
  224MOL0     C29476  -2.498   2.637   3.997 -0.2515 -0.0048 -0.8189
  224MOL0     C29477  -2.412   2.712   4.094  0.0709  0.8216  0.0754
  224MOL0     C29478  -2.365   2.635   4.219  0.0207 -0.1300  1.6382
  224MOL0     C29479  -2.304   2.741   4.320  0.2418 -0.4337  0.2962
  224MOL0    Cl29480  -2.223   2.654   4.450  0.0773 -0.0986  0.3725
  224MOL0     C29481  -2.063   2.326   3.443  0.5315 -0.3250 -0.0384
  224MOL0     C29482  -1.935   2.378   3.413 -0.9379  0.6143  0.3234
  224MOL0     O29483  -1.666   2.477   3.636  0.0791 -0.7192  0.3233
  224MOL0     C29484  -1.508   2.645   3.349  0.2411  0.1508 -0.2138
  224MOL0     C29485  -1.382   2.706   3.329 -0.1347 -0.2601 -0.7176
  224MOL0     N29486  -0.700   2.746   3.201  0.6490  0.3558 -0.0819
  224MOL0     N29487  -0.603   2.788   3.137 -0.3108 -0.3388  0.1417
  224MOL0     C29488   0.486   2.504   2.880 -0.3150  0.3567  0.7472
  224MOL0     C29489   0.572   2.585   2.956 -0.4237  0.6546 -0.1351
  224MOL0     C29490   0.961   2.749   3.143 -0.0272  0.5850  0.4314
  224MOL0     C29491   0.903   2.869   3.179 -0.1087 -0.1404 -0.0334
  224MOL0     C29492   0.948   2.938   3.288 -0.8754 -0.3717 -0.1745
  224MOL0     C29493   1.072   2.906   3.359 -0.3306 -0.1521  0.6271
  224MOL0     O29494   1.127   2.970   3.471  0.4531 -0.2827 -0.0133
  224MOL0     C29495   1.109   3.115   3.494  0.0691  0.2415 -0.5399
  224MOL0     C29496   1.233   3.183   3.451 -0.1509  0.0775 -0.3302
  224MOL0     C29497   1.226   3.336   3.483 -0.2985 -0.8742 -0.6075
  224MOL0     C29498   1.249   3.379   3.634  0.2770  0.4707  0.1912
  224MOL0     C29499   1.361   3.311   3.698  0.3753  0.1294  0.6696
  224MOL0     C29500   1.451   3.256   3.756 -0.9691  0.4962 -0.2804
  224MOL0     C29501   1.129   2.781   3.316  0.4411 -0.6542  0.0628
  224MOL0     C29502   1.076   2.706   3.208 -0.3189  0.1923 -0.6212
  224MOL0     H29503   0.836   2.364   2.985  1.5449  1.1053 -1.7419
  224MOL0     H29504   0.679   2.222   2.848  0.8344  1.7485 -1.4984
  224MOL0     H29505   0.321   2.264   2.931 -1.4338 -2.6167  0.0328
  224MOL0     H29506   0.295   2.150   2.805  2.6951 -0.8303  2.0974
  224MOL0     H29507   0.146   2.320   2.673 -0.3804 -3.8436  0.1676
  224MOL0     H29508   0.223   2.452   2.776  2.1225 -0.4796 -1.0074
  224MOL0     H29509   0.119   2.416   2.957 -1.1268  0.7576  0.2260
  224MOL0     H29510   0.057   2.250   2.911 -0.9197  1.5849  0.2285
  224MOL0     H29511  -0.001   2.510   2.773  1.1707 -1.6425 -0.7219
  224MOL0     H29512  -0.094   2.375   2.736 -1.0334  4.9137 -1.1354
  224MOL0     H29513  -0.096   2.481   3.029 -2.8669 -0.1786  1.4540
  224MOL0     H29514  -0.198   2.357   2.948 -1.6361  0.1694 -0.3136
  224MOL0     H29515  -0.289   2.554   2.804 -0.0920  0.4763 -0.2764
  224MOL0     H29516  -0.177   2.662   2.895  0.0959 -0.0534  0.3863
  224MOL0     H29517  -0.404   2.488   3.012  0.2839  0.4769 -0.1831
  224MOL0     H29518  -0.302   2.615   3.091  3.9280 -4.5069  0.3410
  224MOL0     H29519  -0.472   2.675   2.858  1.3999 -0.6987  0.3802
  224MOL0     H29520  -0.401   2.797   2.940 -0.8463  0.2005 -0.2523
  224MOL0     H29521  -0.655   2.522   2.968  1.2046  1.9649 -0.2003
  224MOL0     H29522  -0.818   2.473   3.253  2.6500  0.2386 -0.7105
  224MOL0     H29523  -0.907   2.502   3.104  1.5695  0.2418 -1.0595
  224MOL0     H29524  -0.901   2.687   3.341 -0.2183  2.6432 -1.6947
  224MOL0     H29525  -1.029   2.556   3.315 -0.3352 -1.6007 -2.4978
  224MOL0     H29526  -0.997   2.775   3.110  1.7936 -0.8359  0.1495
  224MOL0     H29527  -1.132   2.657   3.146  1.1155 -0.1106 -2.0225
  224MOL0     H29528  -1.206   2.869   3.252 -0.8467 -0.3514 -0.1841
  224MOL0     H29529  -1.051   2.900   3.320  0.9251 -1.4342  2.4699
  224MOL0     H29530  -1.207   2.619   3.593  1.1662  0.3678 -1.9487
  224MOL0     H29531  -1.419   2.508   3.651 -0.2294  1.6838 -0.1369
  224MOL0     H29532  -1.947   2.678   3.560  1.1370 -1.7767  2.6599
  224MOL0     H29533  -2.169   2.610   3.622 -2.0535  0.3128 -1.5248
  224MOL0     H29534  -2.282   2.432   3.736 -1.9095  3.8231  0.0257
  224MOL0     H29535  -2.403   2.307   3.689  1.7100 -0.9286  1.6305
  224MOL0     H29536  -2.521   2.473   3.557 -0.2951 -2.5155  1.2537
  224MOL0     H29537  -2.423   2.610   3.590 -2.8662 -0.6254 -3.3173
  224MOL0     H29538  -2.592   2.467   3.784  0.2124  1.4694  2.9953
  224MOL0     H29539  -2.598   2.629   3.758  0.3007  1.0979  1.6624
  224MOL0     H29540  -2.379   2.470   3.924  2.3513  3.2488  2.0010
  224MOL0     H29541  -2.346   2.631   3.866 -1.0854  1.6887  2.0099
  224MOL0     H29542  -2.548   2.558   4.054  1.6444 -0.9337 -0.3338
  224MOL0     H29543  -2.574   2.709   3.965  0.3800  1.0743  0.0409
  224MOL0     H29544  -2.487   2.782   4.134 -0.5584  0.6450 -0.7829
  224MOL0     H29545  -2.329   2.765   4.047  3.1292 -1.1271  2.8113
  224MOL0     H29546  -2.453   2.592   4.267  0.2550 -1.2412  1.1023
  224MOL0     H29547  -2.294   2.554   4.201 -1.1699 -0.4643 -2.4614
  224MOL0     H29548  -2.382   2.803   4.366 -0.6374 -0.8500 -0.6001
  224MOL0     H29549  -2.235   2.811   4.271 -2.9791  0.6903 -3.1349
  224MOL0     H29550  -2.093   2.231   3.400  2.7939 -1.5129  0.8458
  224MOL0     H29551  -1.864   2.316   3.359 -2.9657 -2.0105  0.4675
  224MOL0     H29552  -1.570   2.650   3.260  0.5606  2.8573 -0.3608
  224MOL0     H29553  -1.371   2.750   3.230  0.9507 -1.6108 -1.2300
  224MOL0     H29554   0.385   2.535   2.855 -1.4838 -4.1021 -0.9234
  224MOL0     H29555   0.549   2.681   3.002  1.9331  1.7876 -1.1336
  224MOL0     H29556   0.806   2.900   3.143 -1.3001 -3.0596  0.3171
  224MOL0     H29557   0.906   3.038   3.297 -0.1567 -0.0766 -0.0151
  224MOL0     H29558   1.099   3.121   3.603 -0.7930 -2.8429 -0.3540
  224MOL0     H29559   1.020   3.159   3.446 -2.0792 -2.4349  0.6907
  224MOL0     H29560   1.322   3.138   3.495 -0.1175  0.3960 -0.0724
  224MOL0     H29561   1.243   3.180   3.342  1.2888  2.6582 -0.3568
  224MOL0     H29562   1.123   3.373   3.471 -0.4994 -1.0088  0.5843
  224MOL0     H29563   1.296   3.388   3.418 -2.0517  0.2677 -1.6528
  224MOL0     H29564   1.281   3.484   3.638  5.8653 -0.9969  2.0575
  224MOL0     H29565   1.162   3.368   3.699  0.5724  1.5584  0.7979
  224MOL0     H29566   1.526   3.212   3.819 -1.4549 -0.3362 -0.2703
  224MOL0     H29567   1.212   2.745   3.376 -0.0420  1.9555  2.4881
  224MOL0     H29568   1.113   2.607   3.185 -1.3903 -0.6752  1.2045
  225MOL0     O29569   1.970   6.410   1.560 -0.6924 -0.5595  0.0758
  225MOL0     C29570   2.031   6.500   1.497  1.4065 -0.5205 -0.5640
  225MOL0     O29571   1.991   6.636   1.488 -0.2698  0.3875  0.1621
  225MOL0     C29572   1.873   6.664   1.550 -0.1853  0.6067 -0.3900
  225MOL0     C29573   1.866   6.678   1.695 -0.3502  0.2774  0.1701
  225MOL0     C29574   1.744   6.702   1.761 -0.1033 -0.9417 -0.0146
  225MOL0     C29575   1.627   6.718   1.687 -0.2028 -0.9028  0.2828
  225MOL0     O29576   1.512   6.737   1.756 -0.2281  0.7601 -0.7847
  225MOL0     C29577   1.432   6.839   1.692  0.5903  0.4554 -0.9476
  225MOL0     C29578   1.325   6.877   1.787 -0.4580  0.1079 -0.2512
  225MOL0     C29579   1.210   6.770   1.786  0.3793  0.1364 -0.0177
  225MOL0     C29580   1.070   6.839   1.774  0.6216  1.1429  0.1303
  225MOL0     C29581   0.959   6.728   1.779  0.2182 -0.0891  0.3177
  225MOL0     C29582   0.931   6.688   1.924  0.0861  0.0125 -0.6594
  225MOL0     C29583   0.853   6.558   1.940  0.0958  0.3693 -0.5915
  225MOL0     C29584   0.700   6.567   1.905  0.5404  0.5220  1.5233
  225MOL0     N29585   0.637   6.449   1.936 -0.0762 -0.1587  0.2532
  225MOL0     C29586   0.575   6.428   2.054 -0.8064  0.0223 -0.2997
  225MOL0     C29587   0.489   6.324   2.029  0.3254 -0.0988  0.2447
  225MOL0     C29588   0.377   6.269   2.125  0.2353  0.0468  0.0772
  225MOL0     C29589   0.270   6.198   2.039 -0.5677  0.1067 -0.2073
  225MOL0     C29590   0.173   6.114   2.129 -1.6247  0.3288 -0.6518
  225MOL0     C29591   0.094   6.206   2.218 -0.1232 -0.3791  0.6633
  225MOL0     O29592   0.002   6.118   2.286  0.0498 -0.5810 -0.1127
  225MOL0     C29593  -0.100   6.186   2.352  0.0383 -0.7466 -1.3999
  225MOL0     C29594  -0.085   6.304   2.435  1.7442  0.3088  0.7266
  225MOL0     C29595  -0.201   6.367   2.489  0.1904  0.2776 -1.0392
  225MOL0     C29596  -0.324   6.313   2.458 -0.4866 -0.2808 -0.0150
  225MOL0     C29597  -0.451   6.386   2.505 -0.0305  1.5036 -0.1048
  225MOL0     O29598  -0.575   6.335   2.458 -0.5296 -0.1663  0.6395
  225MOL0     C29599  -0.696   6.399   2.493 -0.2104  0.7946  0.8700
  225MOL0     C29600  -0.717   6.535   2.506  0.1033 -0.9715  0.6080
  225MOL0     C29601  -0.838   6.587   2.554 -0.2574 -0.5861 -0.8228
  225MOL0     C29602  -0.932   6.510   2.611  0.4031 -0.0780  0.5664
  225MOL0     O29603  -1.054   6.553   2.663  0.2488  0.1982  0.4027
  225MOL0     C29604  -1.049   6.631   2.784  0.7824  1.3386  1.0529
  225MOL0     C29605  -1.059   6.550   2.913 -0.1945 -1.2719  0.0538
  225MOL0     C29606  -1.192   6.486   2.939 -0.2954 -0.5564  0.5371
  225MOL0     C29607  -1.298   6.597   2.978 -0.1910 -0.0261  0.5531
  225MOL0     C29608  -1.406   6.545   3.074  0.4781 -0.0552 -1.6698
  225MOL0     C29609  -1.475   6.406   3.047 -0.2265  0.0332  0.5819
  225MOL0     C29610  -1.557   6.403   2.912  0.0832 -0.5668  0.8031
  225MOL0     C29611  -1.619   6.267   2.902  0.4939 -0.3276 -0.0150
  225MOL0    Cl29612  -1.681   6.244   2.736 -0.0551 -0.3457  0.1490
  225MOL0     C29613  -0.916   6.369   2.592 -0.6141  0.3567 -0.2424
  225MOL0     C29614  -0.801   6.321   2.528  0.2132 -0.0507 -1.0000
  225MOL0     O29615  -0.431   6.478   2.588  0.7884  0.0683  0.2607
  225MOL0     C29616  -0.339   6.193   2.381  0.3602 -1.0233 -0.0915
  225MOL0     C29617  -0.220   6.122   2.337  1.0428 -0.0120  0.1067
  225MOL0     N29618   0.511   6.278   1.898  0.7062  0.3693  0.5451
  225MOL0     N29619   0.593   6.353   1.842  0.1180 -0.8503 -0.1097
  225MOL0     C29620   1.634   6.714   1.538  0.5977 -0.1922 -0.4601
  225MOL0     C29621   1.759   6.693   1.477 -0.0681 -0.2193  0.8819
  225MOL0     C29622   2.160   6.468   1.448  0.5860 -0.1639  0.2699
  225MOL0     C29623   2.195   6.338   1.409 -1.0221  0.1693  0.2692
  225MOL0     C29624   2.313   6.306   1.340 -0.4115 -0.2619  0.2429
  225MOL0     C29625   2.402   6.407   1.311 -0.8341  0.3998 -0.6440
  225MOL0     O29626   2.512   6.365   1.237 -0.2898 -0.2351  0.0736
  225MOL0     C29627   2.618   6.461   1.213  0.0266 -0.0721 -0.1025
  225MOL0     C29628   2.727   6.408   1.123 -0.2152  0.6004 -0.7957
  225MOL0     C29629   2.676   6.393   0.981 -0.1803 -0.6462  0.4082
  225MOL0     C29630   2.743   6.283   0.907 -0.2646 -0.5379  0.3274
  225MOL0     C29631   2.878   6.326   0.880 -0.1627  0.3869  0.5344
  225MOL0     C29632   2.986   6.374   0.857  0.5525  1.7516 -0.2209
  225MOL0     C29633   2.383   6.537   1.372  0.4806  0.5681  0.8606
  225MOL0     C29634   2.260   6.563   1.436 -0.1994  0.1052 -0.1092
  225MOL0     H29635   1.960   6.667   1.748 -1.2727 -0.6954  1.6965
  225MOL0     H29636   1.746   6.705   1.869  1.0285 -2.1315  0.0190
  225MOL0     H29637   1.375   6.798   1.607  1.7386 -0.6838 -1.1906
  225MOL0     H29638   1.487   6.930   1.667  0.3324  0.7330 -0.5274
  225MOL0     H29639   1.290   6.975   1.753  2.7518  2.0620  1.5453
  225MOL0     H29640   1.378   6.906   1.879  1.8804  1.6867 -1.9723
  225MOL0     H29641   1.231   6.702   1.870  1.7659  0.5981  0.0359
  225MOL0     H29642   1.218   6.704   1.699  0.5935 -0.0609  0.1475
  225MOL0     H29643   1.053   6.908   1.857 -1.4508  2.3455 -1.1849
  225MOL0     H29644   1.054   6.905   1.688  0.0775 -0.4752 -1.0572
  225MOL0     H29645   0.991   6.641   1.721  2.7047  0.6364  0.4803
  225MOL0     H29646   0.861   6.765   1.748  0.3331 -0.2592 -0.2639
  225MOL0     H29647   0.868   6.766   1.967  0.0614 -0.7721  0.8112
  225MOL0     H29648   1.022   6.681   1.984 -1.8298  0.2878  2.5132
  225MOL0     H29649   0.890   6.486   1.866 -0.2208 -2.1597  1.5745
  225MOL0     H29650   0.862   6.519   2.042 -1.5885 -2.4810 -1.4272
  225MOL0     H29651   0.698   6.576   1.796  0.9063  1.1953  1.5692
  225MOL0     H29652   0.646   6.647   1.957  0.5506  1.9168 -0.4482
  225MOL0     H29653   0.591   6.484   2.145  0.2461 -1.1685  0.2703
  225MOL0     H29654   0.353   6.357   2.184  2.8473  0.9391 -0.0260
  225MOL0     H29655   0.421   6.200   2.198  0.0223 -1.0583 -0.8072
  225MOL0     H29656   0.318   6.118   1.983  0.2409 -0.4693  1.2623
  225MOL0     H29657   0.213   6.266   1.975  1.4152 -1.4736 -3.9899
  225MOL0     H29658   0.117   6.047   2.063 -1.7920 -2.2278  1.8946
  225MOL0     H29659   0.230   6.052   2.199  2.7139  4.1107 -0.3152
  225MOL0     H29660   0.044   6.279   2.153  1.4364 -0.7014 -0.9794
  225MOL0     H29661   0.165   6.255   2.286  1.1655 -1.3171  0.0306
  225MOL0     H29662   0.018   6.336   2.448  2.4837 -1.1131 -1.1784
  225MOL0     H29663  -0.193   6.448   2.560  1.2309 -0.9872  0.3604
  225MOL0     H29664  -0.642   6.605   2.468 -0.1355 -1.0009  0.0741
  225MOL0     H29665  -0.838   6.696   2.553  1.5570 -0.1953  5.1899
  225MOL0     H29666  -1.146   6.681   2.779 -0.2926 -0.7286 -0.0744
  225MOL0     H29667  -0.959   6.693   2.794  2.3922 -0.6166 -0.4125
  225MOL0     H29668  -1.037   6.626   2.989 -1.7856  1.9044 -2.4592
  225MOL0     H29669  -0.992   6.463   2.914  1.4992 -0.0426  2.1398
  225MOL0     H29670  -1.183   6.412   3.019  0.3094 -2.0587 -0.8685
  225MOL0     H29671  -1.220   6.426   2.852 -0.5229  0.5959 -0.2026
  225MOL0     H29672  -1.252   6.680   3.033  2.3773 -1.1091  0.1540
  225MOL0     H29673  -1.330   6.628   2.878  1.8869  0.8764  0.1365
  225MOL0     H29674  -1.482   6.624   3.066 -0.7407 -0.9630  0.1987
  225MOL0     H29675  -1.368   6.532   3.176 -1.3712 -0.6881 -1.0118
  225MOL0     H29676  -1.555   6.383   3.118 -1.2690  2.7353  0.3973
  225MOL0     H29677  -1.389   6.338   3.048  0.7081  1.1064 -1.3211
  225MOL0     H29678  -1.635   6.478   2.926  0.1845 -0.3991  0.4767
  225MOL0     H29679  -1.497   6.424   2.823  0.1195 -0.7187  0.7922
  225MOL0     H29680  -1.705   6.250   2.967  0.3913 -0.6731 -0.2403
  225MOL0     H29681  -1.543   6.191   2.922  2.4465  1.4465 -0.3562
  225MOL0     H29682  -0.988   6.292   2.619  2.4718 -3.1218 -1.1336
  225MOL0     H29683  -0.788   6.214   2.514  0.1379  0.0613 -2.0265
  225MOL0     H29684  -0.433   6.154   2.342 -0.5292  0.7096  0.2248
  225MOL0     H29685  -0.240   6.031   2.282 -1.5598  1.6546 -1.9666
  225MOL0     H29686   1.539   6.726   1.486 -0.4203 -0.1151  1.3288
  225MOL0     H29687   1.756   6.697   1.369  0.1232  0.2692  0.8958
  225MOL0     H29688   2.130   6.255   1.435  0.6215  0.1447  5.4347
  225MOL0     H29689   2.352   6.205   1.327  1.3553  0.5748 -1.4563
  225MOL0     H29690   2.666   6.489   1.308 -0.2945  0.2092 -0.0203
  225MOL0     H29691   2.580   6.554   1.170  1.7986  1.5474  1.6193
  225MOL0     H29692   2.820   6.466   1.132  0.9472 -1.3452  0.2979
  225MOL0     H29693   2.767   6.315   1.164  1.0661  2.3802  2.3737
  225MOL0     H29694   2.701   6.488   0.932 -0.3434  0.0650  1.6558
  225MOL0     H29695   2.567   6.383   0.982 -0.5347  1.9949 -1.3708
  225MOL0     H29696   2.742   6.181   0.944 -0.7592 -0.9827 -0.8744
  225MOL0     H29697   2.689   6.287   0.812 -2.2041  1.7370  1.4030
  225MOL0     H29698   3.086   6.410   0.843  1.5956 -0.5609  0.8228
  225MOL0     H29699   2.463   6.609   1.387  3.6483 -1.7585 -2.9870
  225MOL0     H29700   2.230   6.661   1.472 -2.5234 -0.8867  0.8508
  226MOL0     O29701   5.031   1.827   5.875  0.1826 -0.2244 -0.5728
  226MOL0     C29702   5.038   1.809   5.994 -0.2538  0.7338 -0.6756
  226MOL0     O29703   4.955   1.859   6.087 -1.0995 -0.1938 -0.2636
  226MOL0     C29704   4.853   1.951   6.060 -0.1857 -0.5874 -0.0149
  226MOL0     C29705   4.806   1.992   5.934  0.2444  0.1660 -0.5945
  226MOL0     C29706   4.699   2.088   5.925 -0.0609  0.4981 -0.6258
  226MOL0     C29707   4.647   2.152   6.040  0.7296  0.3356 -0.4052
  226MOL0     O29708   4.553   2.248   6.031 -0.2782  0.1010  0.0172
  226MOL0     C29709   4.503   2.328   6.147  0.0557  0.2099 -0.0110
  226MOL0     C29710   4.390   2.255   6.218  0.0581 -0.1992  0.2617
  226MOL0     C29711   4.258   2.254   6.142 -0.8502 -1.1736 -0.4563
  226MOL0     C29712   4.157   2.153   6.196 -0.3391 -0.0959  0.0260
  226MOL0     C29713   4.042   2.156   6.104  0.5792  0.1677 -0.4364
  226MOL0     C29714   4.043   2.056   5.992 -0.7859 -0.4398 -0.1491
  226MOL0     C29715   3.922   2.065   5.910  0.5858 -0.6975 -0.7464
  226MOL0     C29716   3.927   1.958   5.806 -1.5175  0.0684 -0.2328
  226MOL0     N29717   3.812   1.966   5.725 -0.2133  0.2971 -0.4138
  226MOL0     C29718   3.681   2.004   5.757 -0.4103  0.2012  0.9171
  226MOL0     C29719   3.620   2.024   5.646  0.3864 -0.5793  1.4253
  226MOL0     C29720   3.475   2.046   5.605  0.1994 -0.0087  0.7716
  226MOL0     C29721   3.397   2.089   5.732  0.9159 -0.6208 -0.2465
  226MOL0     C29722   3.252   2.115   5.692  1.8815  0.1778  0.3185
  226MOL0     C29723   3.172   2.166   5.821 -0.5575  1.1335  0.0921
  226MOL0     O29724   3.090   2.266   5.752  0.0411 -0.0062 -0.1526
  226MOL0     C29725   2.968   2.211   5.719  1.2175 -0.4146  0.6615
  226MOL0     C29726   2.871   2.201   5.816 -0.1622 -0.5289  0.0272
  226MOL0     C29727   2.740   2.147   5.783 -0.0511  0.9125 -0.1403
  226MOL0     C29728   2.703   2.112   5.653 -0.3170  0.1341  0.3029
  226MOL0     C29729   2.581   2.051   5.612  0.1838 -0.0251 -0.1025
  226MOL0     O29730   2.589   1.998   5.480 -0.2087  0.1073 -0.6339
  226MOL0     C29731   2.466   1.963   5.427 -0.2031  0.2237 -0.7662
  226MOL0     C29732   2.393   2.046   5.342 -0.0864 -0.6970  0.4943
  226MOL0     C29733   2.283   1.994   5.279  0.5185  0.7488 -0.0521
  226MOL0     C29734   2.241   1.860   5.311  0.4410  0.3905 -0.0929
  226MOL0     O29735   2.116   1.836   5.258 -0.3282 -0.0847 -0.4453
  226MOL0     C29736   2.118   1.720   5.170 -0.8837 -0.4449  1.0799
  226MOL0     C29737   1.972   1.664   5.160 -0.2525 -1.2083 -0.7863
  226MOL0     C29738   1.876   1.760   5.085  0.2749 -0.3491 -0.1604
  226MOL0     C29739   1.899   1.762   4.929 -0.0303  0.5715 -1.0304
  226MOL0     C29740   1.815   1.874   4.867 -0.5928  0.3178  0.8891
  226MOL0     C29741   1.843   1.866   4.712  0.7024  0.4043 -0.1061
  226MOL0     C29742   1.742   1.946   4.627 -0.4514 -0.2955  0.0052
  226MOL0     C29743   1.746   1.920   4.478  0.2558  0.8873 -0.1239
  226MOL0    Cl29744   1.694   1.743   4.438 -0.4292 -0.1165 -0.1467
  226MOL0     C29745   2.315   1.783   5.398 -0.9429 -0.2127 -0.2117
  226MOL0     C29746   2.423   1.834   5.458  0.2150 -0.5970 -0.2646
  226MOL0     O29747   2.488   2.043   5.683  0.1997 -0.5014  0.6409
  226MOL0     C29748   2.803   2.144   5.557 -0.4999 -0.0641 -0.6033
  226MOL0     C29749   2.938   2.184   5.587 -0.3929  0.0018  0.2274
  226MOL0     N29750   3.707   1.990   5.544  1.8335  0.2676 -0.1854
  226MOL0     N29751   3.827   1.971   5.589  0.7716 -0.4640 -0.0326
  226MOL0     C29752   4.716   2.133   6.164  0.5898 -0.1323  0.2145
  226MOL0     C29753   4.798   2.026   6.168 -0.3171  0.6032  0.1464
  226MOL0     C29754   5.154   1.732   6.042 -0.8693 -0.8231  0.4458
  226MOL0     C29755   5.194   1.737   6.177  0.5247  0.0791 -0.0869
  226MOL0     C29756   5.302   1.663   6.228 -0.6970  0.8016  0.4086
  226MOL0     C29757   5.378   1.588   6.141 -0.3609  0.4222  0.4784
  226MOL0     O29758   5.493   1.522   6.181  0.1541  0.3327  0.1298
  226MOL0     C29759   5.530   1.511   6.320 -0.1121 -0.4628  0.2777
  226MOL0     C29760   5.638   1.418   6.360 -0.2776  1.2261 -0.9319
  226MOL0     C29761   5.600   1.269   6.334 -0.1467 -0.4049  0.4330
  226MOL0     C29762   5.717   1.195   6.387 -0.7270  0.0444 -0.2771
  226MOL0     C29763   5.692   1.046   6.368 -0.0652 -0.1516 -0.6051
  226MOL0     C29764   5.678   0.928   6.360  0.3937  0.4343 -0.2414
  226MOL0     C29765   5.346   1.583   5.999 -0.3366  0.2129 -0.1264
  226MOL0     C29766   5.236   1.661   5.956 -0.7826 -0.5306  0.2485
  226MOL0     H29767   4.848   1.962   5.838 -0.1851  1.8822 -1.3527
  226MOL0     H29768   4.661   2.109   5.826  0.4742 -2.4610 -1.5510
  226MOL0     H29769   4.461   2.422   6.111  1.1690  0.4596 -0.7077
  226MOL0     H29770   4.584   2.360   6.214  2.3563 -2.7144 -1.1507
  226MOL0     H29771   4.390   2.323   6.303  0.2456  0.9418 -0.6264
  226MOL0     H29772   4.426   2.153   6.233  0.5069 -0.1934 -0.6685
  226MOL0     H29773   4.281   2.211   6.044  1.2913 -2.9724  0.7386
  226MOL0     H29774   4.216   2.353   6.123 -1.0181 -0.0598  4.2907
  226MOL0     H29775   4.218   2.063   6.202 -0.6422 -0.3867 -1.1977
  226MOL0     H29776   4.129   2.161   6.302 -0.7408 -1.3816  0.0254
  226MOL0     H29777   4.028   2.257   6.063  1.1177  0.6207  0.4747
  226MOL0     H29778   3.958   2.136   6.171  0.5759  1.4075 -0.0529
  226MOL0     H29779   4.041   1.962   6.048  2.1860  0.2795  1.3384
  226MOL0     H29780   4.128   2.072   5.926 -1.2269  4.9784  0.1953
  226MOL0     H29781   3.829   2.074   5.967 -0.6564  3.9445 -3.0171
  226MOL0     H29782   3.929   2.163   5.862 -3.2364  0.2739  0.3187
  226MOL0     H29783   3.931   1.866   5.865 -1.7804  0.7861  0.9343
  226MOL0     H29784   4.019   1.964   5.746 -0.1786  0.7506  1.7754
  226MOL0     H29785   3.623   2.004   5.849 -3.1114 -2.1341 -0.6261
  226MOL0     H29786   3.425   1.956   5.567 -0.7043  0.7288  0.1704
  226MOL0     H29787   3.484   2.118   5.523  0.3573 -2.8377 -1.8545
  226MOL0     H29788   3.445   2.177   5.775 -2.4380  0.1863  2.2770
  226MOL0     H29789   3.420   2.007   5.800 -0.3051 -1.5810 -0.9315
  226MOL0     H29790   3.258   2.196   5.619  0.1720  0.7564  0.7716
  226MOL0     H29791   3.184   2.049   5.637 -1.1713  2.4784  1.0491
  226MOL0     H29792   3.246   2.207   5.889 -0.0008  2.3061 -1.1668
  226MOL0     H29793   3.121   2.078   5.862  0.2001  0.9356  0.6210
  226MOL0     H29794   2.893   2.226   5.919  0.2066  0.0512 -0.1916
  226MOL0     H29795   2.657   2.148   5.853 -0.2228  0.6452 -0.3376
  226MOL0     H29796   2.432   2.143   5.313 -2.4096  0.3104  0.5580
  226MOL0     H29797   2.221   2.062   5.221  1.1556  1.5266  0.1664
  226MOL0     H29798   2.173   1.636   5.214  3.9087  0.7124 -1.9248
  226MOL0     H29799   2.162   1.740   5.072 -2.4444 -2.2909 -0.0801
  226MOL0     H29800   1.929   1.662   5.260 -0.4998  4.1383 -0.4839
  226MOL0     H29801   1.954   1.561   5.129  0.9091 -1.5174 -0.4828
  226MOL0     H29802   1.882   1.861   5.126  1.9191 -0.2886 -0.4889
  226MOL0     H29803   1.775   1.719   5.098  0.4163 -1.1272 -1.3238
  226MOL0     H29804   2.006   1.782   4.910  0.5401  0.3488  1.5963
  226MOL0     H29805   1.865   1.663   4.899 -2.0138 -0.1830  3.0773
  226MOL0     H29806   1.829   1.977   4.902 -2.0745  1.2347 -1.0075
  226MOL0     H29807   1.708   1.851   4.879 -1.4103  0.5503 -4.0365
  226MOL0     H29808   1.848   1.760   4.687 -1.1896  0.5295 -1.1854
  226MOL0     H29809   1.942   1.908   4.694  0.2423  0.4835 -2.8718
  226MOL0     H29810   1.637   1.925   4.653 -0.9875 -1.2779 -2.6262
  226MOL0     H29811   1.759   2.052   4.649  1.7372 -0.3448 -1.1415
  226MOL0     H29812   1.845   1.943   4.439  0.2689 -0.9446 -1.2623
  226MOL0     H29813   1.677   1.995   4.439 -1.7380  0.0915  1.6843
  226MOL0     H29814   2.282   1.680   5.415 -0.9193 -0.0557  0.8520
  226MOL0     H29815   2.483   1.772   5.524 -1.6186  0.8539  3.0563
  226MOL0     H29816   2.783   2.120   5.453  3.3062 -2.9504 -0.8833
  226MOL0     H29817   3.002   2.201   5.501 -1.5511  2.8253 -0.1742
  226MOL0     H29818   4.707   2.184   6.259  2.2843  0.2985  0.1761
  226MOL0     H29819   4.846   2.005   6.263 -0.3122  0.8291  0.1956
  226MOL0     H29820   5.134   1.799   6.242 -0.7897 -0.0210 -1.1663
  226MOL0     H29821   5.337   1.682   6.329  2.5360 -1.4177 -0.1044
  226MOL0     H29822   5.439   1.493   6.378 -0.3112 -0.0092  0.1163
  226MOL0     H29823   5.568   1.609   6.352  2.0624 -1.3535  0.5591
  226MOL0     H29824   5.736   1.446   6.322  0.9724 -3.1060 -1.4152
  226MOL0     H29825   5.653   1.429   6.468  4.2117  1.0531 -1.3586
  226MOL0     H29826   5.588   1.252   6.227 -0.2537 -0.9806  0.5336
  226MOL0     H29827   5.506   1.241   6.383 -0.4169 -0.6939 -0.2451
  226MOL0     H29828   5.813   1.224   6.344 -1.1652 -1.8243 -2.7108
  226MOL0     H29829   5.720   1.209   6.496 -0.8570  0.8314 -0.3625
  226MOL0     H29830   5.654   0.827   6.334  0.1585 -0.1054  1.8448
  226MOL0     H29831   5.407   1.518   5.936  0.1537 -0.9815  1.5085
  226MOL0     H29832   5.223   1.657   5.848 -1.4251 -0.4781  0.3157
  227MOL0     O29833   4.448   3.114   2.460  0.4213  0.0813  0.5061
  227MOL0     C29834   4.482   3.081   2.571  0.2111 -0.0354 -0.0153
  227MOL0     O29835   4.594   3.013   2.599  1.2033  0.0783  0.1936
  227MOL0     C29836   4.665   2.984   2.487  0.5223 -0.2759 -1.1922
  227MOL0     C29837   4.635   2.858   2.428  0.3347 -1.0123  0.8687
  227MOL0     C29838   4.710   2.823   2.315  0.1263 -0.0399  0.7776
  227MOL0     C29839   4.815   2.902   2.273 -0.1621  0.2155  0.0198
  227MOL0     O29840   4.884   2.853   2.158 -0.1241  0.5263 -0.8528
  227MOL0     C29841   5.007   2.918   2.134  0.0906  0.8339  0.2340
  227MOL0     C29842   5.086   2.848   2.024  0.1185 -0.2674  0.2189
  227MOL0     C29843   5.232   2.880   2.025 -0.1002  0.5769 -0.2030
  227MOL0     C29844   5.264   3.024   1.974  0.9674  0.2953 -0.7079
  227MOL0     C29845   5.415   3.038   1.957 -0.7478  1.6067 -0.2633
  227MOL0     C29846   5.440   3.164   1.879 -0.1220 -0.2361 -0.5390
  227MOL0     C29847   5.406   3.289   1.967 -0.3636  0.1597  0.6693
  227MOL0     C29848   5.492   3.293   2.099 -1.2031  0.8246  0.6084
  227MOL0     N29849   5.474   3.411   2.182 -0.2493  0.2599 -0.0336
  227MOL0     C29850   5.373   3.425   2.277  0.2802  1.1323 -0.2952
  227MOL0     C29851   5.364   3.563   2.291 -0.7345 -0.1833 -0.4290
  227MOL0     C29852   5.253   3.629   2.377 -0.0754  0.6704  0.5386
  227MOL0     C29853   5.187   3.744   2.308 -0.1961  0.3223  0.8480
  227MOL0     C29854   5.135   3.836   2.414  0.1107 -0.1300  1.0300
  227MOL0     C29855   4.989   3.814   2.452 -0.4606  0.5308  0.8012
  227MOL0     O29856   4.907   3.876   2.347 -0.3654 -0.3645  0.5080
  227MOL0     C29857   4.786   3.928   2.388  0.3211  0.6209 -0.7127
  227MOL0     C29858   4.706   3.877   2.491 -0.2927  0.3308 -0.4024
  227MOL0     C29859   4.595   3.942   2.529 -0.2183 -0.1764 -0.0022
  227MOL0     C29860   4.548   4.050   2.467 -0.1385 -0.2751  0.6194
  227MOL0     C29861   4.424   4.112   2.514 -0.2692  0.2495  0.9589
  227MOL0     O29862   4.395   4.097   2.646 -0.0058  0.6141  0.2110
  227MOL0     C29863   4.300   4.165   2.721  0.2947  0.2412 -0.5920
  227MOL0     C29864   4.224   4.274   2.687 -0.7143  0.1707  0.9357
  227MOL0     C29865   4.116   4.311   2.761 -0.8279  0.2875 -0.5812
  227MOL0     C29866   4.092   4.248   2.883 -0.3724 -0.1722 -0.2085
  227MOL0     O29867   3.983   4.296   2.960 -0.5431 -0.6827  0.2614
  227MOL0     C29868   3.962   4.271   3.101  0.1279 -0.1927 -0.0134
  227MOL0     C29869   3.817   4.282   3.150 -0.2569 -0.0435  0.8263
  227MOL0     C29870   3.771   4.426   3.178 -0.2314 -0.0123 -0.4497
  227MOL0     C29871   3.671   4.424   3.302 -0.4111  0.0354  0.4593
  227MOL0     C29872   3.541   4.363   3.262 -0.4562 -0.6192  0.7549
  227MOL0     C29873   3.428   4.365   3.371  0.3312 -0.0654  0.1431
  227MOL0     C29874   3.294   4.341   3.295 -0.2773 -0.6633 -0.2682
  227MOL0     C29875   3.180   4.320   3.400  1.0979 -0.2625 -0.0616
  227MOL0    Cl29876   3.193   4.428   3.538 -0.1663  0.2498  0.0653
  227MOL0     C29877   4.191   4.162   2.933 -0.1904  0.7823 -0.3422
  227MOL0     C29878   4.288   4.104   2.850 -0.6371 -0.7052 -0.3817
  227MOL0     O29879   4.358   4.185   2.434 -0.0344 -0.2268  0.0570
  227MOL0     C29880   4.619   4.087   2.351  0.5082 -0.5091 -0.0907
  227MOL0     C29881   4.738   4.035   2.317  0.3046  0.2605  0.0002
  227MOL0     N29882   5.474   3.616   2.225 -1.0368 -0.1726 -0.2229
  227MOL0     N29883   5.530   3.528   2.150  0.3756 -0.3750 -0.1026
  227MOL0     C29884   4.849   3.014   2.348 -0.6387  0.4330 -0.0325
  227MOL0     C29885   4.766   3.052   2.454  0.2296 -0.3362  0.2462
  227MOL0     C29886   4.404   3.125   2.687  0.0778  0.1818  0.2249
  227MOL0     C29887   4.461   3.123   2.815 -0.2460  0.1990 -0.0651
  227MOL0     C29888   4.385   3.170   2.912  0.8454 -0.2829 -0.0309
  227MOL0     C29889   4.252   3.199   2.894 -0.2365 -0.5692 -0.3133
  227MOL0     O29890   4.174   3.240   3.001  0.2506 -0.1272 -0.0156
  227MOL0     C29891   4.038   3.218   2.999  0.1086  0.3044 -0.1223
  227MOL0     C29892   3.993   3.233   3.145  1.1759  0.2315  0.1236
  227MOL0     C29893   3.842   3.199   3.165 -0.4451  0.6778 -0.1581
  227MOL0     C29894   3.733   3.304   3.140 -0.2561 -0.0108 -1.0258
  227MOL0     C29895   3.606   3.247   3.173  0.5627  0.0130  0.6543
  227MOL0     C29896   3.506   3.189   3.200 -0.3041  0.4537 -0.4819
  227MOL0     C29897   4.195   3.199   2.765 -0.2097  0.7556 -0.5382
  227MOL0     C29898   4.277   3.185   2.660 -0.5063 -0.6064 -0.5691
  227MOL0     H29899   4.553   2.790   2.449  0.9685 -1.8954  0.5435
  227MOL0     H29900   4.693   2.734   2.256  1.3463  0.0160  0.3130
  227MOL0     H29901   5.068   2.914   2.225  3.7665 -0.2395 -2.0667
  227MOL0     H29902   4.995   3.021   2.101  0.7527  0.1059 -2.6263
  227MOL0     H29903   5.054   2.876   1.923  0.8645  0.2532  0.1090
  227MOL0     H29904   5.072   2.741   2.041  0.9632 -0.1116  2.1136
  227MOL0     H29905   5.284   2.805   1.965 -0.7426  0.3380 -0.4731
  227MOL0     H29906   5.267   2.862   2.126  2.4307 -2.8630 -1.4849
  227MOL0     H29907   5.220   3.057   1.879 -0.0631  2.5699  0.4844
  227MOL0     H29908   5.218   3.090   2.048  1.8062  0.0570  0.0372
  227MOL0     H29909   5.453   2.960   1.890  1.1504  1.6259  0.7301
  227MOL0     H29910   5.466   3.016   2.051 -0.3372 -1.2009 -1.0333
  227MOL0     H29911   5.389   3.177   1.783  2.4798  0.1177 -1.9850
  227MOL0     H29912   5.544   3.170   1.844  0.1162  3.3430  0.4595
  227MOL0     H29913   5.429   3.377   1.907  1.2895 -0.0686  0.9309
  227MOL0     H29914   5.300   3.295   1.995 -0.5707 -1.6006  0.4273
  227MOL0     H29915   5.598   3.286   2.073 -1.1809 -1.1811  1.1189
  227MOL0     H29916   5.460   3.206   2.157 -1.2134  0.0204 -0.5882
  227MOL0     H29917   5.314   3.339   2.309  1.8330  0.3395  0.5614
  227MOL0     H29918   5.310   3.661   2.465  2.1289 -0.4359 -0.4155
  227MOL0     H29919   5.173   3.561   2.409 -0.3733  0.2695 -0.9861
  227MOL0     H29920   5.111   3.694   2.248 -0.0541 -5.3611  4.6268
  227MOL0     H29921   5.268   3.784   2.247  0.1752 -0.5236  0.7713
  227MOL0     H29922   5.196   3.839   2.505  1.0046  3.3100  0.4743
  227MOL0     H29923   5.146   3.938   2.376 -0.9608  0.3099  1.8466
  227MOL0     H29924   4.979   3.864   2.549  3.3361 -0.5911  1.9354
  227MOL0     H29925   4.969   3.708   2.472  1.7610 -0.3298 -1.1409
  227MOL0     H29926   4.739   3.799   2.560  1.1074  2.0219  0.9607
  227MOL0     H29927   4.532   3.905   2.610 -1.6354  0.4153 -0.7875
  227MOL0     H29928   4.235   4.319   2.589  1.2261  0.6902  1.3617
  227MOL0     H29929   4.038   4.381   2.733 -1.1807 -0.0083 -0.3640
  227MOL0     H29930   4.021   4.340   3.163  1.0013  0.3058 -1.3377
  227MOL0     H29931   3.988   4.165   3.112  1.7077 -0.0395 -1.7025
  227MOL0     H29932   3.807   4.227   3.244 -1.7900 -2.1502 -0.4905
  227MOL0     H29933   3.745   4.240   3.080  0.4297  0.3994 -0.1704
  227MOL0     H29934   3.722   4.478   3.095 -0.1690  0.6688 -0.0616
  227MOL0     H29935   3.861   4.479   3.210  0.3129 -1.6986  0.9466
  227MOL0     H29936   3.725   4.376   3.384 -0.2361  2.4510  1.8387
  227MOL0     H29937   3.650   4.528   3.327  3.2652  0.3795  2.9139
  227MOL0     H29938   3.554   4.260   3.228 -1.1635 -0.7128  0.7510
  227MOL0     H29939   3.517   4.416   3.170  2.6564 -1.2280 -0.5230
  227MOL0     H29940   3.441   4.455   3.431 -0.5287  1.5874 -2.0318
  227MOL0     H29941   3.435   4.273   3.431 -0.3880  0.1864  0.6189
  227MOL0     H29942   3.282   4.418   3.219 -1.6768 -1.3738 -0.8000
  227MOL0     H29943   3.301   4.240   3.253  2.2182 -1.2077  1.2339
  227MOL0     H29944   3.168   4.213   3.420  1.2780 -0.9279 -3.0316
  227MOL0     H29945   3.082   4.336   3.355  1.3800 -3.2104 -1.9692
  227MOL0     H29946   4.168   4.114   3.027 -0.5255  0.7396 -0.4422
  227MOL0     H29947   4.345   4.020   2.887 -0.2176  0.0769  0.8322
  227MOL0     H29948   4.581   4.176   2.302  0.8462  0.0582  0.6644
  227MOL0     H29949   4.799   4.083   2.242  1.6410 -2.0440 -0.5084
  227MOL0     H29950   4.930   3.074   2.307  0.3335 -1.7442 -1.4929
  227MOL0     H29951   4.800   3.127   2.524 -1.9218  0.0065  0.9800
  227MOL0     H29952   4.560   3.083   2.836  0.4111  1.3130 -0.9578
  227MOL0     H29953   4.412   3.170   3.017 -0.3114  0.4832  0.2859
  227MOL0     H29954   4.016   3.113   2.979 -1.4594  0.6783 -0.4699
  227MOL0     H29955   3.991   3.291   2.933 -1.2587 -1.6234 -1.3719
  227MOL0     H29956   4.046   3.162   3.208  0.6995 -1.2883 -1.1251
  227MOL0     H29957   4.013   3.335   3.180  1.0684  0.4367 -0.4045
  227MOL0     H29958   3.821   3.162   3.266 -1.9708 -1.3728 -1.1325
  227MOL0     H29959   3.814   3.127   3.088 -2.3501  0.6644  0.4759
  227MOL0     H29960   3.757   3.381   3.214  0.9667 -1.4946  0.1780
  227MOL0     H29961   3.733   3.362   3.047  0.1090  2.4504  0.4119
  227MOL0     H29962   3.419   3.131   3.226  0.7798 -0.2924  1.7463
  227MOL0     H29963   4.092   3.223   2.740 -0.3562  0.5270 -0.1567
  227MOL0     H29964   4.246   3.210   2.559 -2.3095 -0.1291  0.0491
  228MOL0     O29965   7.452   6.649   5.540 -0.2839  0.1169  0.0388
  228MOL0     C29966   7.560   6.649   5.477 -0.1316  0.4629 -0.1355
  228MOL0     O29967   7.606   6.736   5.383  0.3557  0.1789  0.1500
  228MOL0     C29968   7.514   6.828   5.340 -0.0269 -0.2297  0.2609
  228MOL0     C29969   7.524   6.957   5.385 -0.0597 -0.0265  0.1401
  228MOL0     C29970   7.434   7.052   5.345  0.8054 -0.7891 -0.0952
  228MOL0     C29971   7.321   7.018   5.263 -0.1352 -0.5035 -0.4905
  228MOL0     O29972   7.237   7.123   5.222  0.4470 -0.3136  0.7641
  228MOL0     C29973   7.124   7.094   5.140  0.3510  0.1599  0.5866
  228MOL0     C29974   7.057   7.226   5.123  0.3612 -0.6656 -0.7042
  228MOL0     C29975   7.133   7.339   5.057 -0.0037 -0.4782  0.2815
  228MOL0     C29976   7.072   7.470   5.093  0.3261  0.3731  0.6663
  228MOL0     C29977   7.128   7.584   5.010 -0.3177  0.8207 -0.9163
  228MOL0     C29978   7.272   7.622   5.053 -0.4784  0.3764 -0.2853
  228MOL0     C29979   7.341   7.718   4.953 -0.6546 -0.0045 -0.5775
  228MOL0     C29980   7.496   7.737   4.979  0.3171 -0.6193 -0.4317
  228MOL0     N29981   7.565   7.809   4.874 -0.1989  0.7793  0.5035
  228MOL0     C29982   7.606   7.945   4.863 -0.4199  0.0153 -0.0831
  228MOL0     C29983   7.658   7.963   4.739  0.0007  0.0927  0.7275
  228MOL0     C29984   7.747   8.079   4.702  0.3015 -0.2133 -0.2417
  228MOL0     C29985   7.867   8.035   4.629 -0.1258 -0.2538  0.3476
  228MOL0     C29986   7.990   8.129   4.624 -1.1621 -0.1046 -0.4034
  228MOL0     C29987   8.107   8.066   4.544 -0.3605  0.4959 -0.4398
  228MOL0     O29988   8.181   7.973   4.635  0.8782  0.0261 -0.2273
  228MOL0     C29989   8.261   7.881   4.581 -1.1086  1.2602  0.3367
  228MOL0     C29990   8.304   7.790   4.664 -0.5605 -0.8765 -0.7090
  228MOL0     C29991   8.389   7.687   4.607  1.1295  0.0822 -0.4184
  228MOL0     C29992   8.434   7.674   4.479  0.7086  0.0796  0.1209
  228MOL0     C29993   8.520   7.562   4.436 -0.2693  0.5623 -0.1869
  228MOL0     O29994   8.582   7.586   4.317 -0.3539  0.3150 -0.0033
  228MOL0     C29995   8.663   7.492   4.265  1.3279 -0.2302 -0.5928
  228MOL0     C29996   8.623   7.409   4.151 -0.2303 -0.0478 -0.7236
  228MOL0     C29997   8.719   7.332   4.090  0.1922  0.7609 -0.7416
  228MOL0     C29998   8.841   7.309   4.156 -0.3187 -0.9487 -0.0005
  228MOL0     O29999   8.925   7.215   4.107 -0.2939 -0.3969 -0.2815
  228MOL0     C30000   8.985   7.249   3.975  0.2050 -0.1901 -0.7862
  228MOL0     C30001   9.132   7.292   3.988  0.5213  0.1111 -0.1707
  228MOL0     C30002   9.233   7.193   4.035  0.8290 -0.1316  0.4412
  228MOL0     C30003   9.213   7.049   3.994  0.2212  0.0526 -0.2751
  228MOL0     C30004   9.258   7.022   3.856  0.9517  0.2898 -0.0929
  228MOL0     C30005   9.238   6.885   3.798  0.0116  0.4102 -0.5806
  228MOL0     C30006   9.332   6.878   3.668 -0.3168 -0.0253 -0.1191
  228MOL0     C30007   9.346   6.738   3.616 -0.1303  1.3333 -0.1948
  228MOL0    Cl30008   9.461   6.638   3.716 -0.1148  0.3324  1.0654
  228MOL0     C30009   8.878   7.378   4.265  0.3426  0.1993  0.1195
  228MOL0     C30010   8.781   7.465   4.315 -1.2551  0.1626 -0.3123
  228MOL0     O30011   8.563   7.483   4.522 -0.0791  0.2217 -0.4295
  228MOL0     C30012   8.395   7.777   4.404  0.2979  0.1338  0.2843
  228MOL0     C30013   8.307   7.875   4.451 -1.0476 -0.5378  0.0373
  228MOL0     N30014   7.644   7.833   4.676  0.0113 -0.3093  0.2077
  228MOL0     N30015   7.593   7.746   4.755 -0.6360 -0.1388 -0.3517
  228MOL0     C30016   7.308   6.878   5.226 -0.4572 -1.2324  0.6719
  228MOL0     C30017   7.407   6.785   5.269  0.1419 -0.1934  0.5441
  228MOL0     C30018   7.639   6.524   5.510 -0.5074 -0.9653 -1.2868
  228MOL0     C30019   7.624   6.469   5.639  1.0033 -0.5439  0.3573
  228MOL0     C30020   7.690   6.344   5.669 -0.2786  0.8103  1.3737
  228MOL0     C30021   7.761   6.279   5.562  0.0391 -0.0631 -0.7297
  228MOL0     O30022   7.815   6.153   5.556  0.4028 -0.3796 -0.1727
  228MOL0     C30023   7.789   6.051   5.654  0.1882  0.5131  0.4360
  228MOL0     C30024   7.862   6.064   5.792 -0.0262  0.2760  0.3556
  228MOL0     C30025   7.868   5.930   5.869  0.4109 -0.5429  0.1139
  228MOL0     C30026   7.866   5.946   6.031 -0.4395  0.1682  1.0789
  228MOL0     C30027   7.779   6.056   6.074  0.8810 -0.1728  0.4517
  228MOL0     C30028   7.700   6.139   6.122 -0.7456 -0.0747  0.7646
  228MOL0     C30029   7.781   6.350   5.438  0.5373  0.3261  0.0688
  228MOL0     C30030   7.711   6.464   5.406 -0.1410  0.6822  0.1616
  228MOL0     H30031   7.602   6.988   5.453 -0.2099  1.5985 -0.3679
  228MOL0     H30032   7.452   7.157   5.369  0.3606 -0.9025  0.7861
  228MOL0     H30033   7.055   7.034   5.200 -0.3784 -0.1022 -0.4812
  228MOL0     H30034   7.155   7.063   5.040 -0.3420 -0.5199  0.5730
  228MOL0     H30035   7.021   7.258   5.221 -0.8927  2.3847 -2.0353
  228MOL0     H30036   6.961   7.207   5.074  0.3214 -1.1769 -0.4360
  228MOL0     H30037   7.124   7.329   4.948  0.0883  2.9853 -0.1489
  228MOL0     H30038   7.238   7.333   5.086 -0.3458 -3.0557  1.2250
  228MOL0     H30039   6.968   7.481   5.059  1.6690  2.2642 -3.5519
  228MOL0     H30040   7.074   7.482   5.202  0.0294  1.6727  0.5471
  228MOL0     H30041   7.071   7.677   5.021  1.3734  2.3932 -4.0701
  228MOL0     H30042   7.119   7.554   4.906 -2.0202 -3.5873  0.2829
  228MOL0     H30043   7.326   7.527   5.051 -1.0465  0.0146 -3.9319
  228MOL0     H30044   7.274   7.663   5.155  1.3918 -2.8324  1.1217
  228MOL0     H30045   7.321   7.688   4.850 -4.4499 -0.6378  0.1818
  228MOL0     H30046   7.291   7.815   4.953 -2.4511 -0.8755 -0.5492
  228MOL0     H30047   7.532   7.635   4.998  2.3683  0.1871  0.2895
  228MOL0     H30048   7.499   7.790   5.075 -2.4584  0.6864 -0.9714
  228MOL0     H30049   7.600   8.017   4.944  0.1377 -1.6356  1.4857
  228MOL0     H30050   7.777   8.145   4.783 -3.3803  1.6165 -0.1554
  228MOL0     H30051   7.692   8.149   4.638 -0.4052 -0.0528  0.5211
  228MOL0     H30052   7.837   8.002   4.529 -2.2109  0.1588  0.7878
  228MOL0     H30053   7.892   7.944   4.685 -1.6666 -2.3959 -2.2159
  228MOL0     H30054   7.953   8.214   4.567  0.3998 -2.1190 -4.8383
  228MOL0     H30055   8.034   8.153   4.721 -0.6270  0.4448 -0.7804
  228MOL0     H30056   8.168   8.152   4.515 -1.5763  1.6280  0.2359
  228MOL0     H30057   8.073   8.010   4.456 -0.6539 -1.3140  0.7787
  228MOL0     H30058   8.260   7.785   4.763 -2.7713 -1.0103 -1.6333
  228MOL0     H30059   8.404   7.602   4.674  0.3927 -0.0013 -0.3502
  228MOL0     H30060   8.522   7.409   4.111 -1.4099 -2.9124  1.8758
  228MOL0     H30061   8.698   7.276   3.999  0.6498 -0.7724  0.0650
  228MOL0     H30062   8.925   7.325   3.924 -2.0811  1.1584  3.4062
  228MOL0     H30063   8.992   7.164   3.908  1.4272  1.1671 -2.4850
  228MOL0     H30064   9.127   7.386   4.045  6.5140  1.2922 -1.0073
  228MOL0     H30065   9.161   7.320   3.886 -4.0619  2.3417 -1.1833
  228MOL0     H30066   9.224   7.205   4.143 -1.8891  0.8320  0.1749
  228MOL0     H30067   9.331   7.226   3.999  1.5362 -3.3135 -0.9304
  228MOL0     H30068   9.284   6.995   4.058  1.8283  1.6779 -0.5772
  228MOL0     H30069   9.119   7.007   4.029  0.2544  0.1293 -0.0898
  228MOL0     H30070   9.365   7.043   3.850  1.6279 -2.9255 -1.4118
  228MOL0     H30071   9.196   7.082   3.790 -2.9291 -4.0340 -0.8653
  228MOL0     H30072   9.134   6.859   3.775 -0.4085  2.2234 -0.8656
  228MOL0     H30073   9.279   6.807   3.863 -1.1506 -1.3325 -1.8499
  228MOL0     H30074   9.306   6.943   3.584 -0.0832 -1.1260 -1.0781
  228MOL0     H30075   9.431   6.904   3.705 -0.9962 -0.2405  1.9987
  228MOL0     H30076   9.369   6.741   3.509 -1.3098  0.9471 -0.4693
  228MOL0     H30077   9.245   6.698   3.623 -0.9707  3.0248 -1.9130
  228MOL0     H30078   8.972   7.357   4.314  1.1873  0.2845 -1.3966
  228MOL0     H30079   8.801   7.517   4.409  0.1835 -1.5021  0.3484
  228MOL0     H30080   8.435   7.774   4.303 -0.1847 -2.5832  0.1049
  228MOL0     H30081   8.279   7.951   4.379  2.4846 -1.3605 -2.4221
  228MOL0     H30082   7.219   6.847   5.172  0.5774 -0.7142 -1.4244
  228MOL0     H30083   7.406   6.681   5.239 -1.3161  0.0645 -0.3937
  228MOL0     H30084   7.573   6.522   5.718 -5.2313 -1.4812 -2.4898
  228MOL0     H30085   7.686   6.299   5.768 -0.9373 -1.2799  0.4580
  228MOL0     H30086   7.827   5.960   5.606 -0.7569 -0.4856  1.5269
  228MOL0     H30087   7.682   6.044   5.676  0.4859 -0.4485  1.7179
  228MOL0     H30088   7.965   6.101   5.778 -0.2430  0.4083 -1.1253
  228MOL0     H30089   7.802   6.130   5.853  2.2301  1.6609  1.2153
  228MOL0     H30090   7.959   5.881   5.832  2.9703  2.9140  1.2780
  228MOL0     H30091   7.785   5.866   5.838  0.1761 -0.0589 -0.2719
  228MOL0     H30092   7.833   5.848   6.067  0.6546 -0.1653  1.2299
  228MOL0     H30093   7.972   5.953   6.058  0.6730 -3.4189 -1.6287
  228MOL0     H30094   7.636   6.215   6.162 -0.5760  0.5059 -0.0321
  228MOL0     H30095   7.853   6.310   5.367  0.6366  1.4157 -0.4666
  228MOL0     H30096   7.703   6.522   5.314 -1.7679  1.4471  0.7438
  229MOL0     O30097   7.005   7.324   0.420 -1.1888 -0.6318  0.1655
  229MOL0     C30098   7.117   7.346   0.457 -0.2370  0.1534 -0.7647
  229MOL0     O30099   7.213   7.421   0.396 -0.4212 -0.1974  0.2048
  229MOL0     C30100   7.201   7.492   0.287  0.8346 -0.4804  0.1324
  229MOL0     C30101   7.307   7.498   0.197 -0.1471  0.0873  0.2941
  229MOL0     C30102   7.307   7.590   0.090 -0.1876 -0.2337 -0.0645
  229MOL0     C30103   7.205   7.676   0.069  0.9123  0.3861  0.0507
  229MOL0     O30104   7.193   7.762  -0.031  0.1562 -0.3354  0.6470
  229MOL0     C30105   7.226   7.717  -0.168  0.5340  0.0403  0.7373
  229MOL0     C30106   7.106   7.750  -0.256  0.5804 -0.7565  0.2376
  229MOL0     C30107   7.127   7.724  -0.407 -0.0606  0.1415  0.3306
  229MOL0     C30108   6.992   7.750  -0.480  0.9241 -0.1957  0.2231
  229MOL0     C30109   6.999   7.821  -0.624  0.2922  0.7490 -0.1002
  229MOL0     C30110   7.050   7.735  -0.739 -0.5926 -0.0022  0.5009
  229MOL0     C30111   7.062   7.816  -0.868 -0.3432 -0.2171  0.5554
  229MOL0     C30112   7.170   7.921  -0.857 -0.5201  0.0344  0.2033
  229MOL0     N30113   7.178   7.987  -0.991 -1.3626  0.1015 -0.3761
  229MOL0     C30114   7.279   7.966  -1.091 -0.3509 -0.5256 -0.2801
  229MOL0     C30115   7.265   8.059  -1.187 -0.0563 -0.0559 -0.0857
  229MOL0     C30116   7.350   8.092  -1.302 -0.7928  0.7036  0.0330
  229MOL0     C30117   7.344   7.968  -1.399  0.7087  0.7364  0.0505
  229MOL0     C30118   7.234   7.995  -1.498 -0.5702 -1.4656  1.5834
  229MOL0     C30119   7.228   7.876  -1.592 -0.2935  0.3734  0.5677
  229MOL0     O30120   7.190   7.925  -1.718 -0.1166  0.6120  0.3478
  229MOL0     C30121   7.063   7.965  -1.742  0.0764  0.2598 -0.3056
  229MOL0     C30122   6.944   7.925  -1.679  0.1975 -0.3892  0.5717
  229MOL0     C30123   6.821   7.998  -1.698  0.0421 -0.4927 -1.1895
  229MOL0     C30124   6.815   8.109  -1.789 -0.1431  0.5729  1.0107
  229MOL0     C30125   6.684   8.161  -1.828 -0.1695  0.1143 -0.2896
  229MOL0     O30126   6.587   8.142  -1.728 -0.3852 -0.2618  1.1440
  229MOL0     C30127   6.456   8.108  -1.759 -0.6298 -0.0557  1.2965
  229MOL0     C30128   6.404   8.095  -1.885 -0.2212 -0.4182 -0.0815
  229MOL0     C30129   6.269   8.055  -1.909 -0.2228  0.3140  0.6271
  229MOL0     C30130   6.178   8.026  -1.801 -0.5095 -0.5043 -0.2817
  229MOL0     O30131   6.058   7.971  -1.834 -0.2425  0.5464  0.8966
  229MOL0     C30132   5.976   7.933  -1.730  0.1997 -0.4572 -0.0540
  229MOL0     C30133   5.844   7.877  -1.790  0.4396 -0.3006  0.4010
  229MOL0     C30134   5.731   7.878  -1.686 -0.3484 -0.0824  0.0517
  229MOL0     C30135   5.599   7.840  -1.755 -0.1151  0.0322 -0.1503
  229MOL0     C30136   5.478   7.848  -1.661  0.5269  0.4674 -0.0961
  229MOL0     C30137   5.480   7.740  -1.556 -0.0608 -0.3010 -0.8078
  229MOL0     C30138   5.348   7.716  -1.481 -0.3591 -1.0711  0.0563
  229MOL0     C30139   5.366   7.784  -1.345 -0.0053 -0.3996  0.0463
  229MOL0    Cl30140   5.236   7.777  -1.238  0.2526 -0.0832  0.2102
  229MOL0     C30141   6.240   8.038  -1.674  0.9958 -0.1887 -0.2027
  229MOL0     C30142   6.368   8.080  -1.654 -0.0126 -0.1657  0.6105
  229MOL0     O30143   6.665   8.212  -1.939  0.9818 -0.1950 -0.0929
  229MOL0     C30144   6.935   8.145  -1.848  0.0897  0.0803 -0.4954
  229MOL0     C30145   7.053   8.079  -1.824  0.6391 -0.0845  0.1926
  229MOL0     N30146   7.142   8.133  -1.156  0.1860  0.4240  0.2530
  229MOL0     N30147   7.107   8.091  -1.032  0.8598  0.5241  0.2260
  229MOL0     C30148   7.091   7.660   0.154  0.2949 -0.2374 -0.9533
  229MOL0     C30149   7.095   7.571   0.257  0.5559 -0.3829  0.6349
  229MOL0     C30150   7.163   7.274   0.574 -0.6544 -0.2106 -0.7914
  229MOL0     C30151   7.073   7.220   0.666  0.2812 -0.0138  0.7801
  229MOL0     C30152   7.103   7.135   0.778 -0.2468 -0.3533  0.3990
  229MOL0     C30153   7.240   7.101   0.794  0.1111  0.2563  0.2037
  229MOL0     O30154   7.273   7.014   0.894 -0.2315  0.4972 -0.0856
  229MOL0     C30155   7.405   6.962   0.909 -0.1636 -0.5254 -0.0708
  229MOL0     C30156   7.424   6.914   1.048 -0.6459  0.3192  0.3706
  229MOL0     C30157   7.363   6.777   1.077 -0.4925 -0.3239  0.8276
  229MOL0     C30158   7.395   6.730   1.220 -0.1638 -0.0855  0.3384
  229MOL0     C30159   7.323   6.613   1.266 -0.1503  0.1041 -0.5132
  229MOL0     C30160   7.263   6.504   1.284  0.6765  0.4713 -0.2623
  229MOL0     C30161   7.338   7.151   0.702 -0.4299  0.0318  0.5351
  229MOL0     C30162   7.291   7.239   0.607  0.8288  0.4985  0.3614
  229MOL0     H30163   7.394   7.436   0.215 -1.2278 -1.1848  1.3078
  229MOL0     H30164   7.394   7.598   0.026 -0.5353  1.5254 -0.3686
  229MOL0     H30165   7.247   7.610  -0.170  1.8734  0.2708 -2.2293
  229MOL0     H30166   7.313   7.766  -0.212 -0.4217 -0.2455 -1.5886
  229MOL0     H30167   7.079   7.855  -0.240 -1.8721 -1.4448  0.9584
  229MOL0     H30168   7.025   7.685  -0.223 -0.9050  1.0033  0.2226
  229MOL0     H30169   7.148   7.617  -0.399  0.9129  0.1020 -1.9573
  229MOL0     H30170   7.219   7.770  -0.443 -0.8125  1.8488  0.4583
  229MOL0     H30171   6.929   7.661  -0.480 -1.3081  1.3040  0.0116
  229MOL0     H30172   6.938   7.816  -0.412  1.2360 -0.3254  0.5986
  229MOL0     H30173   7.051   7.917  -0.616  0.6085  0.4837  1.3631
  229MOL0     H30174   6.900   7.854  -0.657  0.3873 -0.8128 -2.1426
  229MOL0     H30175   6.979   7.653  -0.756 -1.5795  1.1994 -1.5536
  229MOL0     H30176   7.148   7.693  -0.716 -0.7834 -0.7072  0.0613
  229MOL0     H30177   7.085   7.744  -0.947 -0.4837 -0.2402  0.5350
  229MOL0     H30178   6.968   7.859  -0.904 -1.4397 -1.0415  2.2995
  229MOL0     H30179   7.265   7.872  -0.833 -1.2153 -0.3881  2.2658
  229MOL0     H30180   7.147   7.997  -0.782  0.3964 -0.2836  0.8302
  229MOL0     H30181   7.372   7.909  -1.087  0.5639  0.9128 -0.5965
  229MOL0     H30182   7.455   8.091  -1.269 -0.5592 -1.3529 -0.6621
  229MOL0     H30183   7.323   8.187  -1.348 -1.3336  0.0567 -1.0001
  229MOL0     H30184   7.323   7.876  -1.343 -0.0584  0.5758 -0.4853
  229MOL0     H30185   7.441   7.949  -1.446  0.8219  0.0950  0.5163
  229MOL0     H30186   7.144   8.014  -1.440  1.2517  1.5230  3.7440
  229MOL0     H30187   7.263   8.081  -1.560 -1.7005 -0.6253  2.1884
  229MOL0     H30188   7.169   7.794  -1.551  0.7746 -0.9502 -0.4756
  229MOL0     H30189   7.326   7.829  -1.600 -0.5618 -1.1078  4.2113
  229MOL0     H30190   6.942   7.844  -1.608  0.8764 -0.0530  0.9884
  229MOL0     H30191   6.738   7.955  -1.643  0.6721 -1.1477 -0.7357
  229MOL0     H30192   6.455   8.123  -1.977  1.8399 -0.1022  1.1000
  229MOL0     H30193   6.233   8.034  -2.009  0.3779 -1.7727  0.8072
  229MOL0     H30194   5.949   8.018  -1.667  0.0939  1.0126 -1.9855
  229MOL0     H30195   6.030   7.854  -1.676  2.3381 -0.2459 -1.7416
  229MOL0     H30196   5.851   7.779  -1.838  0.1269  0.5408 -1.4625
  229MOL0     H30197   5.812   7.943  -1.872  1.1232 -0.5679 -0.0888
  229MOL0     H30198   5.736   7.980  -1.647  1.2827 -1.0496  2.6412
  229MOL0     H30199   5.758   7.808  -1.605  1.5186  0.3634 -0.1485
  229MOL0     H30200   5.577   7.907  -1.839  0.9451  2.4924  1.3926
  229MOL0     H30201   5.615   7.739  -1.791  2.1507  0.8680 -1.7119
  229MOL0     H30202   5.392   7.837  -1.727  2.1677 -0.3859 -2.2054
  229MOL0     H30203   5.480   7.941  -1.603 -2.2762 -0.5412  1.8079
  229MOL0     H30204   5.563   7.753  -1.487 -1.0689 -0.6397  0.5135
  229MOL0     H30205   5.498   7.644  -1.606 -0.8191 -1.3479  0.8320
  229MOL0     H30206   5.256   7.748  -1.531  0.0390  1.4328  0.7741
  229MOL0     H30207   5.327   7.609  -1.477 -1.0826 -0.9126  0.9047
  229MOL0     H30208   5.403   7.884  -1.367  0.0579 -1.0610 -3.4734
  229MOL0     H30209   5.444   7.732  -1.287  2.5803  0.3228 -2.5468
  229MOL0     H30210   6.180   8.022  -1.585  0.0476  0.0427 -0.7851
  229MOL0     H30211   6.418   8.086  -1.557  0.2687 -0.4259  0.4813
  229MOL0     H30212   6.941   8.230  -1.915  1.8238  1.4427  1.2708
  229MOL0     H30213   7.148   8.109  -1.867 -0.4444  2.0662 -0.8823
  229MOL0     H30214   7.000   7.719   0.160 -0.4180 -1.2235 -1.6013
  229MOL0     H30215   7.015   7.561   0.331  0.8650 -0.3345  0.9776
  229MOL0     H30216   6.970   7.253   0.670  0.4974  0.6545  1.0775
  229MOL0     H30217   7.040   7.096   0.857  1.5181 -0.7520  1.6672
  229MOL0     H30218   7.484   7.038   0.899  0.1507 -0.9436 -0.8545
  229MOL0     H30219   7.445   6.883   0.845  3.7251  1.4050 -0.3745
  229MOL0     H30220   7.531   6.908   1.070 -0.6622  3.5111  1.8100
  229MOL0     H30221   7.386   6.999   1.105  1.9274 -0.8812  4.2826
  229MOL0     H30222   7.412   6.706   1.010 -0.6537  0.7524 -0.4816
  229MOL0     H30223   7.259   6.783   1.045 -0.0336 -0.8105 -0.8981
  229MOL0     H30224   7.502   6.712   1.233 -0.1921  1.0452  2.7487
  229MOL0     H30225   7.375   6.821   1.277  0.9876  0.7556 -0.5680
  229MOL0     H30226   7.224   6.404   1.290  0.9977  0.3255 -0.6156
  229MOL0     H30227   7.440   7.116   0.715 -1.4323 -2.7943  1.6850
  229MOL0     H30228   7.371   7.279   0.545  1.3477 -0.3234  0.4935
  230MOL0     O30229   2.194   4.960   6.640  0.0645  0.5365  0.1065
  230MOL0     C30230   2.186   4.899   6.529  0.4638  0.0135 -0.1745
  230MOL0     O30231   2.083   4.896   6.450 -0.0173 -0.7966  0.0230
  230MOL0     C30232   1.963   4.961   6.462  0.0915 -0.3562 -0.1323
  230MOL0     C30233   1.898   5.013   6.358  0.3835  0.0790  0.7341
  230MOL0     C30234   1.779   5.088   6.368 -0.0421 -0.9137 -1.4147
  230MOL0     C30235   1.717   5.104   6.492  0.2334 -0.4495 -0.1159
  230MOL0     O30236   1.608   5.183   6.499  0.1387 -0.2601 -0.5788
  230MOL0     C30237   1.532   5.188   6.617  0.4197 -0.8055 -0.3362
  230MOL0     C30238   1.408   5.271   6.598 -1.1619 -0.0823  0.4203
  230MOL0     C30239   1.334   5.222   6.473  0.2799  0.3113  0.1627
  230MOL0     C30240   1.193   5.280   6.452  0.1397  0.1836 -0.6091
  230MOL0     C30241   1.107   5.226   6.565  0.8843 -0.5471  0.2432
  230MOL0     C30242   0.971   5.300   6.570 -0.3114 -0.0854  0.1223
  230MOL0     C30243   0.862   5.234   6.647  0.6062 -1.3037 -0.9262
  230MOL0     C30244   0.732   5.317   6.655  0.6093  0.2512  0.3946
  230MOL0     N30245   0.621   5.236   6.716 -0.0342  0.1198  0.1664
  230MOL0     C30246   0.611   5.234   6.855 -0.0353 -0.0104  0.0148
  230MOL0     C30247   0.505   5.156   6.876 -0.7318  0.1359 -0.0203
  230MOL0     C30248   0.431   5.131   7.010 -1.2452 -0.2515 -0.1560
  230MOL0     C30249   0.517   5.049   7.105  0.3372  0.8340  0.5447
  230MOL0     C30250   0.474   5.046   7.254  0.0178 -0.6239 -1.5509
  230MOL0     C30251   0.449   5.190   7.311  0.4938  0.5421 -0.0042
  230MOL0     O30252   0.560   5.272   7.276  0.1812  0.9760 -0.1511
  230MOL0     C30253   0.579   5.392   7.342  0.2989  0.7891  0.5510
  230MOL0     C30254   0.708   5.450   7.347 -0.1082  0.3992  0.9202
  230MOL0     C30255   0.724   5.566   7.420  0.0835  1.1660 -0.6925
  230MOL0     C30256   0.627   5.614   7.498 -0.2086  1.0266 -0.4317
  230MOL0     C30257   0.656   5.715   7.599  0.3277  0.2419  0.2726
  230MOL0     O30258   0.561   5.754   7.694  0.2228 -0.9877  0.3665
  230MOL0     C30259   0.598   5.837   7.796  0.0321  1.0366 -0.5074
  230MOL0     C30260   0.524   5.950   7.817 -0.6192 -0.3419  0.1354
  230MOL0     C30261   0.540   6.025   7.931  0.4478  0.1625 -0.1588
  230MOL0     C30262   0.646   5.993   8.020 -0.1145  0.5371 -0.3084
  230MOL0     O30263   0.669   6.065   8.135 -0.3321  0.1288 -0.1097
  230MOL0     C30264   0.569   6.158   8.184 -0.2342 -0.9742  0.1647
  230MOL0     C30265   0.624   6.222   8.316  0.2967  0.8226 -0.2085
  230MOL0     C30266   0.747   6.296   8.306 -0.6464 -0.3723 -0.5133
  230MOL0     C30267   0.766   6.379   8.432  0.3032  0.3104  0.3900
  230MOL0     C30268   0.914   6.440   8.438 -0.1515  0.4790  0.1094
  230MOL0     C30269   1.023   6.334   8.418 -0.2219 -0.4631 -0.5728
  230MOL0     C30270   1.157   6.377   8.479 -0.5096  0.1128  0.0094
  230MOL0     C30271   1.269   6.274   8.450 -0.3260 -0.9810  0.9898
  230MOL0    Cl30272   1.324   6.259   8.280 -0.7565  0.3154  0.2293
  230MOL0     C30273   0.729   5.883   7.993  0.1561  0.1259  0.4085
  230MOL0     C30274   0.702   5.804   7.886 -0.2421 -0.2708  0.1247
  230MOL0     O30275   0.774   5.749   7.605 -1.1540 -0.1801 -0.0291
  230MOL0     C30276   0.493   5.555   7.499 -1.7173 -1.0216 -0.9119
  230MOL0     C30277   0.469   5.449   7.416  0.0257  0.6731  0.8485
  230MOL0     N30278   0.457   5.104   6.757 -0.6944  0.3868 -0.3227
  230MOL0     N30279   0.524   5.157   6.658 -0.5205  0.1633 -0.2761
  230MOL0     C30280   1.775   5.045   6.599  0.0528  0.4200  0.0919
  230MOL0     C30281   1.897   4.975   6.586  0.6318  0.0496 -0.0915
  230MOL0     C30282   2.315   4.837   6.478  0.9311 -0.5115 -0.5971
  230MOL0     C30283   2.435   4.822   6.548 -0.0455 -0.6038  0.3769
  230MOL0     C30284   2.550   4.776   6.489 -0.4431 -0.5188  0.3496
  230MOL0     C30285   2.547   4.743   6.349 -0.5158  0.3644  0.0368
  230MOL0     O30286   2.653   4.687   6.286  0.1295 -0.2560  0.1167
  230MOL0     C30287   2.704   4.768   6.182  0.0886  0.5680  0.4362
  230MOL0     C30288   2.784   4.666   6.090  0.1145  0.2201  0.0273
  230MOL0     C30289   2.887   4.726   5.985  1.2426 -0.2121 -0.9613
  230MOL0     C30290   2.828   4.825   5.884 -0.3314 -0.0917 -0.1429
  230MOL0     C30291   2.800   4.951   5.955  0.5346 -0.3464 -0.4005
  230MOL0     C30292   2.776   5.060   5.996 -1.2141 -0.6194  0.5494
  230MOL0     C30293   2.421   4.743   6.286 -0.0162 -0.6147  0.8555
  230MOL0     C30294   2.307   4.798   6.349 -1.0222 -0.4260  0.0852
  230MOL0     H30295   1.942   4.997   6.260  0.2245  1.2348  0.4591
  230MOL0     H30296   1.726   5.137   6.288 -0.8981  1.0986  0.2995
  230MOL0     H30297   1.600   5.231   6.691  0.9391 -0.5155 -0.9581
  230MOL0     H30298   1.490   5.089   6.638 -0.4592 -0.2838  0.4236
  230MOL0     H30299   1.436   5.375   6.580  0.9020 -0.6886 -0.1360
  230MOL0     H30300   1.348   5.246   6.686 -0.1929 -1.9489  0.6015
  230MOL0     H30301   1.313   5.115   6.474  2.3911 -0.1720 -1.2523
  230MOL0     H30302   1.399   5.256   6.392  2.0131 -1.6277  0.6545
  230MOL0     H30303   1.187   5.389   6.442 -0.8709  0.0740 -1.3656
  230MOL0     H30304   1.157   5.246   6.354 -3.5974  3.2981 -0.5677
  230MOL0     H30305   1.155   5.244   6.662  2.4400 -0.6922 -0.4597
  230MOL0     H30306   1.085   5.119   6.553  1.2999 -0.3612 -2.9023
  230MOL0     H30307   0.930   5.314   6.470  1.1027  1.3109 -0.3031
  230MOL0     H30308   0.985   5.398   6.615  0.1948  0.0053 -0.2259
  230MOL0     H30309   0.846   5.140   6.592  3.8972 -2.9923  0.7055
  230MOL0     H30310   0.887   5.205   6.749 -2.4746 -1.5767 -0.1504
  230MOL0     H30311   0.708   5.355   6.555 -0.4274  1.7859  1.1895
  230MOL0     H30312   0.749   5.401   6.722 -2.3775  1.7811 -0.5666
  230MOL0     H30313   0.662   5.299   6.926 -0.8957 -0.8514  1.4333
  230MOL0     H30314   0.338   5.080   6.982 -0.2641 -1.1171 -2.0164
  230MOL0     H30315   0.398   5.225   7.056  0.6047 -0.1838  1.1301
  230MOL0     H30316   0.626   5.062   7.105  0.9951 -3.1755  2.1890
  230MOL0     H30317   0.502   4.951   7.058  1.4173  1.4433 -1.1692
  230MOL0     H30318   0.385   4.986   7.273  0.0129 -0.0447  0.5115
  230MOL0     H30319   0.542   4.998   7.326 -1.7575  0.1261  0.7470
  230MOL0     H30320   0.425   5.189   7.418  0.6189  3.7890  0.1816
  230MOL0     H30321   0.364   5.232   7.257 -1.8694 -1.0721  2.2171
  230MOL0     H30322   0.792   5.393   7.309  0.0346  1.1728  0.0273
  230MOL0     H30323   0.827   5.600   7.432  0.8963 -0.6021 -2.1527
  230MOL0     H30324   0.447   5.973   7.744 -1.3459 -0.0847  0.9638
  230MOL0     H30325   0.477   6.112   7.941 -1.5806 -0.7826 -3.1471
  230MOL0     H30326   0.476   6.101   8.198 -1.7350  1.3265  0.0043
  230MOL0     H30327   0.547   6.237   8.112 -0.0770  0.9743  2.1506
  230MOL0     H30328   0.646   6.136   8.379 -1.4555 -1.0428 -1.9804
  230MOL0     H30329   0.543   6.280   8.361 -1.2790  1.4557 -3.5844
  230MOL0     H30330   0.728   6.369   8.227  1.2953  0.6258 -0.1251
  230MOL0     H30331   0.831   6.230   8.282 -0.4652 -0.4585  0.3041
  230MOL0     H30332   0.692   6.459   8.441 -0.3716 -0.2107 -0.4692
  230MOL0     H30333   0.743   6.304   8.508 -3.3200  0.5240 -0.3125
  230MOL0     H30334   0.922   6.492   8.535  2.9367 -0.5461  0.5151
  230MOL0     H30335   0.912   6.508   8.352 -0.3042  0.5742  0.1871
  230MOL0     H30336   1.023   6.315   8.311  0.1240  1.5193 -0.9711
  230MOL0     H30337   0.987   6.247   8.474 -1.2582 -0.6136 -1.4566
  230MOL0     H30338   1.191   6.467   8.427 -0.5836 -0.2399 -0.6533
  230MOL0     H30339   1.154   6.396   8.587 -1.3294 -0.2671  0.0654
  230MOL0     H30340   1.226   6.175   8.468 -2.0408 -0.8108 -1.6519
  230MOL0     H30341   1.358   6.292   8.511 -0.0161 -2.0131  0.8720
  230MOL0     H30342   0.804   5.857   8.067  0.0025 -4.1667 -0.6973
  230MOL0     H30343   0.768   5.722   7.857  4.8036  3.1412  0.7795
  230MOL0     H30344   0.425   5.585   7.577  0.1139 -1.4786  0.9531
  230MOL0     H30345   0.365   5.421   7.406  0.4534 -1.0399  0.7804
  230MOL0     H30346   1.742   5.058   6.702 -0.5002  1.9525 -0.2615
  230MOL0     H30347   1.937   4.928   6.675 -0.5244 -0.7804  0.0174
  230MOL0     H30348   2.443   4.835   6.656  0.8070  0.9476  0.1513
  230MOL0     H30349   2.645   4.758   6.537 -0.6981  1.0801  1.5794
  230MOL0     H30350   2.768   4.845   6.225  0.4841  0.7162 -0.4033
  230MOL0     H30351   2.629   4.816   6.118  1.0660  2.4219  0.6434
  230MOL0     H30352   2.831   4.589   6.151 -0.6020  0.5735  1.0576
  230MOL0     H30353   2.706   4.605   6.044  0.8930 -1.6868  1.1443
  230MOL0     H30354   2.937   4.645   5.931 -0.9841 -0.7153 -2.3973
  230MOL0     H30355   2.960   4.775   6.050  0.5985  0.5258 -0.7723
  230MOL0     H30356   2.904   4.849   5.810 -0.0143  1.7226  0.7243
  230MOL0     H30357   2.734   4.786   5.844  0.6201 -1.4495 -1.1366
  230MOL0     H30358   2.776   5.167   6.006 -0.6827 -0.2943 -2.2012
  230MOL0     H30359   2.428   4.717   6.180 -0.0746 -0.1823  0.7455
  230MOL0     H30360   2.216   4.816   6.292 -0.6771  1.0166 -0.0416
  231MOL0     O30361   7.783   5.126   2.357  0.1558 -0.0407  0.2564
  231MOL0     C30362   7.843   5.222   2.310  0.2429 -0.4639 -0.2121
  231MOL0     O30363   7.788   5.322   2.222 -0.7045 -0.0290 -0.7003
  231MOL0     C30364   7.666   5.298   2.170  0.4513  0.1746 -1.0697
  231MOL0     C30365   7.625   5.173   2.124 -0.0835  0.9875  0.8538
  231MOL0     C30366   7.498   5.158   2.076 -0.9747 -0.0820 -0.4425
  231MOL0     C30367   7.407   5.257   2.073 -0.7446 -0.0220 -0.4017
  231MOL0     O30368   7.290   5.208   2.022  0.4192 -0.5482  0.0780
  231MOL0     C30369   7.179   5.304   2.018 -0.4325 -1.1534  0.4183
  231MOL0     C30370   7.067   5.236   1.936  0.2784  0.2706  0.0848
  231MOL0     C30371   6.946   5.338   1.912 -0.3134  0.0706 -0.6946
  231MOL0     C30372   6.868   5.380   2.035 -0.2835 -0.4548  0.6942
  231MOL0     C30373   6.778   5.505   2.016 -0.5369  0.2820  0.2428
  231MOL0     C30374   6.660   5.459   1.928  0.6153 -0.6420  0.6108
  231MOL0     C30375   6.565   5.578   1.888 -0.1290 -0.5867  0.3850
  231MOL0     C30376   6.630   5.675   1.782  0.1527 -0.4725  0.1599
  231MOL0     N30377   6.535   5.768   1.722  0.2216 -0.7724  0.1961
  231MOL0     C30378   6.409   5.741   1.666  0.0415  0.0619 -0.7708
  231MOL0     C30379   6.375   5.851   1.604  0.8226 -0.3759  0.9256
  231MOL0     C30380   6.244   5.858   1.527  0.0075 -0.7593  0.6062
  231MOL0     C30381   6.245   5.957   1.409 -0.8059  0.2800  0.5970
  231MOL0     C30382   6.117   5.948   1.325 -0.8126 -0.2592 -0.0849
  231MOL0     C30383   6.102   5.823   1.228 -0.8794 -0.1908 -0.0747
  231MOL0     O30384   5.962   5.834   1.183 -0.1995 -0.4032 -0.1048
  231MOL0     C30385   5.856   5.768   1.248 -0.4199  0.5443  0.3824
  231MOL0     C30386   5.871   5.656   1.328 -0.2856 -0.5655  1.0334
  231MOL0     C30387   5.752   5.590   1.376  0.1518 -0.2355  0.5683
  231MOL0     C30388   5.628   5.644   1.349  0.1527  0.8385  0.2458
  231MOL0     C30389   5.503   5.588   1.416 -0.1208 -0.4236 -0.5896
  231MOL0     O30390   5.380   5.649   1.391  0.9966 -0.3431 -0.9937
  231MOL0     C30391   5.262   5.609   1.455  0.3131  0.2511  0.4866
  231MOL0     C30392   5.152   5.555   1.389 -0.4912 -0.6248 -0.6702
  231MOL0     C30393   5.040   5.546   1.453  1.5699  1.2021  0.5475
  231MOL0     C30394   5.013   5.580   1.587 -0.4619 -0.5321  0.8468
  231MOL0     O30395   4.902   5.546   1.657 -0.4579  0.0809 -0.2724
  231MOL0     C30396   4.782   5.519   1.590 -0.1378 -0.8879  0.3119
  231MOL0     C30397   4.760   5.371   1.582 -1.0377  1.2319  1.0199
  231MOL0     C30398   4.650   5.350   1.476 -0.2112 -0.6173 -0.0004
  231MOL0     C30399   4.623   5.195   1.455  0.0053  0.3585 -0.1089
  231MOL0     C30400   4.558   5.128   1.575 -0.1235 -0.4892  0.5100
  231MOL0     C30401   4.551   4.966   1.555  0.1420 -0.0185  1.2043
  231MOL0     C30402   4.487   4.899   1.674 -0.1348 -0.4422 -0.7972
  231MOL0     C30403   4.488   4.749   1.655  0.3060 -0.0513 -0.4082
  231MOL0    Cl30404   4.449   4.671   1.816  0.0179 -0.2459 -0.2107
  231MOL0     C30405   5.121   5.637   1.657 -0.1018 -0.4823  0.6507
  231MOL0     C30406   5.250   5.656   1.591  0.7431 -0.8403 -0.2068
  231MOL0     O30407   5.525   5.493   1.486  0.5221  0.3507 -0.3995
  231MOL0     C30408   5.624   5.764   1.280  0.9315 -0.0393  0.1439
  231MOL0     C30409   5.728   5.821   1.225 -0.6088 -0.6703  0.3237
  231MOL0     N30410   6.462   5.953   1.632  0.2587 -0.4118  0.5358
  231MOL0     N30411   6.556   5.904   1.704  0.1802  0.4810  0.4368
  231MOL0     C30412   7.444   5.387   2.120 -0.7606  1.3487  0.3385
  231MOL0     C30413   7.571   5.404   2.162  0.5188 -0.0060 -0.2854
  231MOL0     C30414   7.986   5.248   2.353  0.1569 -0.1491 -0.4026
  231MOL0     C30415   8.054   5.359   2.305 -0.6751 -0.0491 -0.5301
  231MOL0     C30416   8.184   5.389   2.352  0.5190  0.4699  0.6741
  231MOL0     C30417   8.247   5.307   2.444 -0.2166 -1.2771  0.7373
  231MOL0     O30418   8.373   5.324   2.490 -0.2152 -0.0699  0.0176
  231MOL0     C30419   8.456   5.427   2.435 -0.3495 -0.0107 -0.0908
  231MOL0     C30420   8.595   5.409   2.498  0.1386  0.0714  0.5261
  231MOL0     C30421   8.593   5.467   2.639  0.5750 -0.1701 -0.4910
  231MOL0     C30422   8.732   5.534   2.673  0.0698 -0.8701  0.0346
  231MOL0     C30423   8.845   5.448   2.655  0.4028  0.4376 -0.1560
  231MOL0     C30424   8.930   5.375   2.616  0.0990  0.9104  0.3406
  231MOL0     C30425   8.185   5.193   2.486  1.3552 -0.0953  0.1924
  231MOL0     C30426   8.047   5.167   2.447 -0.5129  0.0442 -0.2355
  231MOL0     H30427   7.691   5.087   2.136 -1.1957 -0.1959 -1.0249
  231MOL0     H30428   7.471   5.059   2.039  0.4188 -0.5955 -0.1703
  231MOL0     H30429   7.215   5.393   1.966  1.7238 -0.7571  2.4499
  231MOL0     H30430   7.141   5.333   2.116  0.8965 -0.5586  0.7778
  231MOL0     H30431   7.033   5.147   1.990 -3.5150 -1.2429 -4.1881
  231MOL0     H30432   7.108   5.201   1.841  1.1241  3.2983 -0.7752
  231MOL0     H30433   6.879   5.287   1.842 -2.3719 -1.5868  2.2965
  231MOL0     H30434   6.988   5.434   1.880 -2.2915  1.7441  1.3575
  231MOL0     H30435   6.802   5.295   2.052 -1.0214 -0.0398  0.0056
  231MOL0     H30436   6.938   5.404   2.116 -0.6243  1.0566  0.5755
  231MOL0     H30437   6.835   5.595   1.993 -1.8738  0.9845 -0.4269
  231MOL0     H30438   6.734   5.518   2.116 -0.9321 -0.3176  0.1503
  231MOL0     H30439   6.592   5.389   1.979 -3.2526  0.6148 -2.3002
  231MOL0     H30440   6.690   5.417   1.832 -0.3190  1.7924 -0.8457
  231MOL0     H30441   6.484   5.535   1.830 -0.6304 -2.6764  2.4921
  231MOL0     H30442   6.514   5.619   1.976 -1.2910 -1.4789  0.1534
  231MOL0     H30443   6.677   5.608   1.709 -0.1887 -0.3321 -0.1925
  231MOL0     H30444   6.710   5.735   1.824 -0.4051  1.1769 -1.0476
  231MOL0     H30445   6.363   5.644   1.684  0.7382  0.1290  1.8166
  231MOL0     H30446   6.163   5.879   1.598 -1.3130  0.6161 -1.2006
  231MOL0     H30447   6.233   5.759   1.482 -0.1214 -0.9295  1.0141
  231MOL0     H30448   6.325   5.937   1.336 -2.8335  2.2800 -2.4220
  231MOL0     H30449   6.257   6.060   1.445  2.7297 -0.1791  1.1680
  231MOL0     H30450   6.029   5.958   1.390 -0.2098 -0.3517  0.7486
  231MOL0     H30451   6.134   6.038   1.265  1.3031 -1.4035 -1.3161
  231MOL0     H30452   6.120   5.726   1.275 -0.3360 -1.1139 -2.0605
  231MOL0     H30453   6.181   5.822   1.151 -1.2614  0.0818 -0.4731
  231MOL0     H30454   5.966   5.614   1.360  0.2592 -1.0839 -1.0654
  231MOL0     H30455   5.778   5.500   1.431  2.9489 -0.7166 -1.3409
  231MOL0     H30456   5.157   5.532   1.283 -3.0840 -0.5692 -0.8644
  231MOL0     H30457   4.963   5.497   1.395  4.5829 -0.3218 -2.5317
  231MOL0     H30458   4.781   5.576   1.497  0.1249  0.9550  1.3795
  231MOL0     H30459   4.706   5.555   1.661 -0.7448 -2.0983  0.3168
  231MOL0     H30460   4.726   5.328   1.677  2.7321 -1.7348  1.2910
  231MOL0     H30461   4.852   5.318   1.555 -1.6711  1.5937 -2.2879
  231MOL0     H30462   4.693   5.390   1.384  1.0903  0.4678  1.0371
  231MOL0     H30463   4.554   5.392   1.506  1.8694  4.2472  0.7178
  231MOL0     H30464   4.563   5.188   1.364  0.5627 -0.0788 -0.4514
  231MOL0     H30465   4.714   5.136   1.436 -0.5403  0.4521 -3.8634
  231MOL0     H30466   4.455   5.164   1.578 -0.9734 -2.6716 -0.2540
  231MOL0     H30467   4.608   5.156   1.668 -0.4428  0.8542  0.2929
  231MOL0     H30468   4.651   4.928   1.534 -1.6180 -4.5731 -0.3941
  231MOL0     H30469   4.488   4.954   1.466 -1.3523 -1.1262  2.3446
  231MOL0     H30470   4.557   4.911   1.758  0.5334  0.6923 -1.4966
  231MOL0     H30471   4.390   4.947   1.687  1.7328  3.3869  0.4796
  231MOL0     H30472   4.584   4.715   1.616  0.2008 -1.6724  0.6569
  231MOL0     H30473   4.409   4.716   1.587 -2.6042  5.2449 -0.1360
  231MOL0     H30474   5.116   5.660   1.763 -2.6150 -2.9548  1.1703
  231MOL0     H30475   5.332   5.699   1.647 -1.8853  2.6003  1.3269
  231MOL0     H30476   5.526   5.808   1.263  1.7451  1.3568 -1.0970
  231MOL0     H30477   5.712   5.898   1.150 -3.4935 -2.2973 -0.9164
  231MOL0     H30478   7.370   5.465   2.108 -3.0394 -0.7277  0.0023
  231MOL0     H30479   7.587   5.504   2.203 -3.7867  1.4215 -1.5052
  231MOL0     H30480   8.018   5.425   2.227 -0.1215  2.9000  1.5548
  231MOL0     H30481   8.227   5.479   2.310 -3.0153  3.3102  2.5268
  231MOL0     H30482   8.411   5.526   2.447 -2.6842 -1.1203  1.0564
  231MOL0     H30483   8.457   5.402   2.328  0.5747  0.8426 -0.2968
  231MOL0     H30484   8.616   5.302   2.505  1.7622  0.4521  2.5486
  231MOL0     H30485   8.667   5.465   2.437  0.8629  2.8784  3.7011
  231MOL0     H30486   8.571   5.383   2.705  1.0275  0.1012  0.0073
  231MOL0     H30487   8.512   5.539   2.655 -0.8126 -2.2413  2.9786
  231MOL0     H30488   8.745   5.605   2.591 -2.4911  0.3514  0.5568
  231MOL0     H30489   8.738   5.582   2.772 -0.2585  5.7531 -2.5959
  231MOL0     H30490   9.016   5.315   2.591 -1.2698  0.0821 -2.7485
  231MOL0     H30491   8.245   5.125   2.545  0.3551 -1.2778 -0.1138
  231MOL0     H30492   7.986   5.087   2.487 -0.4427 -0.4332 -1.0731
  232MOL0     O30493   4.696   3.927   8.319  0.5677  0.5452  0.1287
  232MOL0     C30494   4.754   3.854   8.392 -0.2781  0.0354 -1.2847
  232MOL0     O30495   4.700   3.756   8.471  0.6577  0.7367 -0.1449
  232MOL0     C30496   4.568   3.774   8.504  1.0100  0.3397 -0.3160
  232MOL0     C30497   4.512   3.882   8.576  0.1170 -0.3908 -0.1963
  232MOL0     C30498   4.382   3.908   8.592 -0.4153  0.0084  0.0871
  232MOL0     C30499   4.292   3.819   8.529  0.0459  0.0505 -0.9417
  232MOL0     O30500   4.154   3.841   8.539  0.2724  0.6824 -0.5006
  232MOL0     C30501   4.093   3.897   8.425 -0.9501  0.8221 -0.5530
  232MOL0     C30502   3.968   3.967   8.462 -0.2812 -1.1052 -0.8130
  232MOL0     C30503   3.990   4.068   8.572  0.0335 -0.1376  0.0488
  232MOL0     C30504   3.853   4.137   8.626  0.5189  0.2361  0.1738
  232MOL0     C30505   3.870   4.286   8.654  0.7127 -0.5019 -0.0974
  232MOL0     C30506   3.919   4.368   8.544 -0.6530 -0.3802 -0.0890
  232MOL0     C30507   3.864   4.351   8.402  0.3682  0.8382  0.5406
  232MOL0     C30508   3.732   4.429   8.370  0.2365 -0.3059  0.6112
  232MOL0     N30509   3.626   4.343   8.350  0.3192  0.2484 -0.3333
  232MOL0     C30510   3.536   4.324   8.459  0.5105 -0.1596  0.7727
  232MOL0     C30511   3.415   4.301   8.395 -0.5603 -0.9208  1.0456
  232MOL0     C30512   3.281   4.276   8.468  0.6578  0.2900  0.5705
  232MOL0     C30513   3.204   4.403   8.483  0.0086  0.2371 -0.1752
  232MOL0     C30514   3.061   4.388   8.506  0.3601  0.2427  1.0021
  232MOL0     C30515   3.030   4.331   8.647 -0.2604  1.0986  0.4226
  232MOL0     O30516   2.894   4.305   8.665  0.5083  0.0958 -0.2138
  232MOL0     C30517   2.837   4.275   8.792 -0.2803  0.1391  0.0194
  232MOL0     C30518   2.698   4.261   8.808  0.9211  0.9662 -0.3317
  232MOL0     C30519   2.646   4.231   8.932  0.1511 -0.9943 -0.3982
  232MOL0     C30520   2.725   4.198   9.048 -0.1100  1.1979 -0.1709
  232MOL0     C30521   2.660   4.172   9.180 -0.3647  0.0586 -0.3052
  232MOL0     O30522   2.738   4.113   9.272  0.0703 -0.6676  0.0827
  232MOL0     C30523   2.678   4.058   9.387 -0.2068  0.5060 -0.4978
  232MOL0     C30524   2.582   4.122   9.471  0.3784  0.4449  0.4683
  232MOL0     C30525   2.512   4.058   9.573 -0.6488 -0.3735 -0.0784
  232MOL0     C30526   2.540   3.923   9.602  0.3917  0.3898  0.6284
  232MOL0     O30527   2.491   3.854   9.708  0.0724 -0.9459 -0.8920
  232MOL0     C30528   2.410   3.924   9.804  0.4129  0.9388 -0.3922
  232MOL0     C30529   2.329   3.818   9.883  0.6475  0.2997 -0.8519
  232MOL0     C30530   2.404   3.715   9.950  0.3485  0.5342 -0.8314
  232MOL0     C30531   2.522   3.778  10.029  0.3766  0.1237 -0.1603
  232MOL0     C30532   2.601   3.681  10.110  0.1584  0.0658  0.1445
  232MOL0     C30533   2.532   3.615  10.222 -0.8836 -1.0011 -0.7033
  232MOL0     C30534   2.628   3.600  10.344 -0.3525  0.1559 -0.1750
  232MOL0     C30535   2.562   3.520  10.451  0.4625 -0.8691 -0.5802
  232MOL0    Cl30536   2.428   3.630  10.521 -0.2941 -0.0158  0.2177
  232MOL0     C30537   2.633   3.860   9.526  0.3033  0.2407 -0.4346
  232MOL0     C30538   2.699   3.922   9.415  0.2237 -0.3348 -0.8469
  232MOL0     O30539   2.542   4.199   9.194 -1.1190  0.4162  0.8403
  232MOL0     C30540   2.868   4.202   9.024 -0.4921 -0.2814 -0.4142
  232MOL0     C30541   2.917   4.244   8.903 -0.4588 -0.0664 -0.4241
  232MOL0     N30542   3.439   4.299   8.259 -0.1283 -0.1088  0.5066
  232MOL0     N30543   3.565   4.327   8.234  0.3600  0.3201  0.6258
  232MOL0     C30544   4.339   3.699   8.475  0.5204 -0.7776 -0.5672
  232MOL0     C30545   4.472   3.678   8.462  0.4674  0.0685 -0.2626
  232MOL0     C30546   4.904   3.873   8.398 -0.7364 -0.6172 -0.0161
  232MOL0     C30547   4.977   3.994   8.356  0.4127 -0.0492  0.1660
  232MOL0     C30548   5.120   4.001   8.363 -0.0191 -0.2877 -0.3899
  232MOL0     C30549   5.192   3.889   8.391 -0.3825  0.2008 -0.1464
  232MOL0     O30550   5.332   3.890   8.393  0.3988  0.0987 -0.2622
  232MOL0     C30551   5.402   3.994   8.467  0.3951 -0.5732  0.6505
  232MOL0     C30552   5.477   3.935   8.589  0.5202 -0.7129  1.1935
  232MOL0     C30553   5.368   3.871   8.678  0.6502 -0.1228  0.0584
  232MOL0     C30554   5.291   3.972   8.771 -0.1951  0.6378 -0.5021
  232MOL0     C30555   5.158   3.914   8.813 -0.0916  0.1660 -0.7265
  232MOL0     C30556   5.055   3.869   8.858 -0.1738 -0.7784  1.1644
  232MOL0     C30557   5.121   3.777   8.432  0.2027 -0.2175 -0.2999
  232MOL0     C30558   4.987   3.764   8.442  0.1049 -0.6100  0.1541
  232MOL0     H30559   4.579   3.960   8.610  1.0138 -2.3242  2.9138
  232MOL0     H30560   4.342   3.993   8.646 -1.9345 -1.1104  0.7914
  232MOL0     H30561   4.069   3.817   8.354 -1.1958  3.1017 -3.2023
  232MOL0     H30562   4.159   3.976   8.388  0.2341  0.3360  0.4437
  232MOL0     H30563   3.885   3.908   8.504 -0.2797  0.4430  1.6260
  232MOL0     H30564   3.921   4.019   8.378  1.5949  0.6620 -0.8479
  232MOL0     H30565   4.065   4.140   8.539  0.4205 -1.0904 -1.2143
  232MOL0     H30566   4.035   4.007   8.650  0.4714 -3.0738 -2.3053
  232MOL0     H30567   3.772   4.110   8.558  0.5113  0.1847  0.2027
  232MOL0     H30568   3.820   4.090   8.719  0.5545  0.8995  0.5262
  232MOL0     H30569   3.936   4.291   8.741  0.4738 -2.0193  0.1990
  232MOL0     H30570   3.777   4.329   8.692  1.2474  2.1407 -1.5155
  232MOL0     H30571   4.027   4.352   8.541 -0.8384 -1.8700  0.0948
  232MOL0     H30572   3.888   4.469   8.573  1.0088  0.6316 -1.6351
  232MOL0     H30573   3.939   4.390   8.333  2.2964 -3.2548  0.0410
  232MOL0     H30574   3.867   4.248   8.367 -0.8486  1.1016 -0.3757
  232MOL0     H30575   3.749   4.489   8.280 -1.1676 -0.9501 -0.1154
  232MOL0     H30576   3.711   4.507   8.444 -0.9957 -0.1701  0.1316
  232MOL0     H30577   3.559   4.325   8.565 -3.3573 -1.4569  1.7791
  232MOL0     H30578   3.300   4.229   8.565 -5.8010 -0.1365  2.0763
  232MOL0     H30579   3.225   4.198   8.417  0.9433 -1.8817  3.3329
  232MOL0     H30580   3.229   4.449   8.387  2.0707 -3.8910 -1.8545
  232MOL0     H30581   3.257   4.468   8.554 -1.8793  1.2023  0.4087
  232MOL0     H30582   3.011   4.484   8.490 -0.0963 -0.6629 -5.5329
  232MOL0     H30583   3.015   4.320   8.433 -0.6854  0.5444  1.3580
  232MOL0     H30584   3.064   4.409   8.716  2.0923 -0.3292  0.9718
  232MOL0     H30585   3.088   4.240   8.663 -1.2946  0.4173  0.3967
  232MOL0     H30586   2.632   4.282   8.725 -2.3375 -0.9032  1.5436
  232MOL0     H30587   2.539   4.246   8.930  0.3736  0.8415 -1.0859
  232MOL0     H30588   2.547   4.224   9.456 -2.3846 -0.5445 -0.4895
  232MOL0     H30589   2.438   4.118   9.626 -1.0160  0.2284 -1.2379
  232MOL0     H30590   2.340   3.985   9.746  0.2341 -1.5961 -3.0808
  232MOL0     H30591   2.471   3.985   9.872 -0.4157 -1.5085  2.8055
  232MOL0     H30592   2.260   3.782   9.805 -0.9769  0.6079  0.3890
  232MOL0     H30593   2.265   3.867   9.957 -0.7411  1.2100 -2.5735
  232MOL0     H30594   2.441   3.641   9.877 -2.0786 -1.1130 -0.5170
  232MOL0     H30595   2.347   3.667  10.030  2.4334 -1.1208 -0.2495
  232MOL0     H30596   2.596   3.820   9.960 -0.8975 -0.3901 -1.8916
  232MOL0     H30597   2.484   3.856  10.095 -0.4896 -0.8499  0.5167
  232MOL0     H30598   2.671   3.749  10.159  0.5853  0.3385 -0.8261
  232MOL0     H30599   2.652   3.618  10.037  1.3556  2.0022 -0.7673
  232MOL0     H30600   2.478   3.522  10.201 -1.2700 -0.4563 -2.2137
  232MOL0     H30601   2.452   3.682  10.254 -0.8955 -1.1011 -0.5196
  232MOL0     H30602   2.720   3.551  10.311 -1.8288 -2.2598 -0.9593
  232MOL0     H30603   2.650   3.690  10.401 -2.6128 -0.7740  2.3881
  232MOL0     H30604   2.622   3.483  10.534  0.3799 -1.7275 -0.8883
  232MOL0     H30605   2.513   3.436  10.400  2.8657 -1.8959 -1.3478
  232MOL0     H30606   2.665   3.758   9.545  0.0412  0.6421  2.9289
  232MOL0     H30607   2.755   3.873   9.337 -0.1945 -1.0782 -0.6854
  232MOL0     H30608   2.939   4.193   9.106  0.3594 -0.1313 -1.1236
  232MOL0     H30609   3.023   4.259   8.887 -0.4698 -0.4314 -0.8677
  232MOL0     H30610   4.266   3.626   8.444  2.4380 -2.3762 -1.5662
  232MOL0     H30611   4.515   3.584   8.433  5.1533  1.8854 -0.0222
  232MOL0     H30612   4.926   4.089   8.342  2.6962  1.0582 -1.4955
  232MOL0     H30613   5.171   4.094   8.343 -0.1983 -0.2844 -0.8398
  232MOL0     H30614   5.326   4.068   8.493 -0.7780 -1.5502  0.1466
  232MOL0     H30615   5.475   4.044   8.403 -0.4633 -3.4444 -2.9300
  232MOL0     H30616   5.550   3.862   8.551  0.7073  0.6625 -1.3499
  232MOL0     H30617   5.526   4.018   8.639  0.9462 -0.8487  1.0037
  232MOL0     H30618   5.417   3.788   8.730  2.9108  0.3175 -1.2436
  232MOL0     H30619   5.296   3.810   8.622 -1.0341  0.1078  1.8525
  232MOL0     H30620   5.352   3.982   8.861 -2.8711  0.1155  1.4982
  232MOL0     H30621   5.272   4.070   8.726 -1.0773  1.3318  1.3034
  232MOL0     H30622   4.967   3.826   8.902 -1.4287  0.9179  0.4399
  232MOL0     H30623   5.179   3.689   8.459  0.6984  0.2889  0.3010
  232MOL0     H30624   4.943   3.672   8.478 -0.0099 -1.0960 -1.1765
  233MOL0     O30625   7.626   7.708   1.996 -0.4657 -0.0942 -0.1086
  233MOL0     C30626   7.696   7.745   2.087  0.7152  0.0066  1.5998
  233MOL0     O30627   7.660   7.751   2.212 -0.0384  0.1690 -0.5352
  233MOL0     C30628   7.536   7.726   2.242 -0.0011 -0.4060 -0.3552
  233MOL0     C30629   7.414   7.775   2.195 -0.3410  0.5345 -0.6826
  233MOL0     C30630   7.294   7.732   2.258  0.5197 -0.5020  1.2452
  233MOL0     C30631   7.288   7.653   2.373  0.9905 -0.2512  1.4149
  233MOL0     O30632   7.168   7.599   2.423  0.2330 -0.4262  0.3968
  233MOL0     C30633   7.058   7.586   2.333  0.0348 -0.2429 -0.1405
  233MOL0     C30634   6.960   7.497   2.407  0.6329 -0.0076  0.0714
  233MOL0     C30635   6.874   7.576   2.509  0.1079  0.1616  0.4146
  233MOL0     C30636   6.732   7.605   2.469  0.6271 -0.1600 -0.3421
  233MOL0     C30637   6.655   7.681   2.577 -0.0130 -0.6420  0.6499
  233MOL0     C30638   6.502   7.705   2.542  0.0155  0.9855  0.2118
  233MOL0     C30639   6.439   7.817   2.628 -0.5209 -0.0603  1.2574
  233MOL0     C30640   6.309   7.858   2.575 -0.0044 -0.5668  1.4447
  233MOL0     N30641   6.190   7.773   2.611  0.1776  0.3657  0.0058
  233MOL0     C30642   6.192   7.631   2.629  0.4746 -0.3391 -0.0881
  233MOL0     C30643   6.063   7.605   2.662 -0.6028  0.2101 -0.6238
  233MOL0     C30644   6.004   7.471   2.715 -0.8716 -0.0585  0.2804
  233MOL0     C30645   5.980   7.470   2.865  0.8938 -0.3808  0.5306
  233MOL0     C30646   6.081   7.367   2.929  0.1149 -0.2244 -0.2765
  233MOL0     C30647   6.022   7.311   3.058 -0.2130 -0.4247 -0.1768
  233MOL0     O30648   6.027   7.405   3.163  0.2946  0.4870 -0.7445
  233MOL0     C30649   5.916   7.439   3.237  0.2120 -0.8374  0.1570
  233MOL0     C30650   5.855   7.571   3.235 -0.6646 -1.0234  0.1664
  233MOL0     C30651   5.729   7.602   3.282 -0.1134 -0.3184 -0.0149
  233MOL0     C30652   5.662   7.502   3.361  0.1115 -0.5620 -0.3097
  233MOL0     C30653   5.531   7.540   3.416  0.0852 -0.2354  0.6870
  233MOL0     O30654   5.481   7.669   3.384  0.6721 -0.1126 -0.0340
  233MOL0     C30655   5.385   7.731   3.464 -0.4892  0.1391 -0.3564
  233MOL0     C30656   5.307   7.827   3.398  0.5381 -0.2141 -0.2046
  233MOL0     C30657   5.188   7.879   3.444 -0.5349 -0.4166  0.4359
  233MOL0     C30658   5.151   7.844   3.574  0.0208 -0.2226  0.3558
  233MOL0     O30659   5.052   7.916   3.635 -0.2528 -0.2838  0.9016
  233MOL0     C30660   5.090   7.968   3.761 -0.6235  0.0146  0.2319
  233MOL0     C30661   5.016   8.108   3.758 -0.2234 -0.6057  0.4132
  233MOL0     C30662   5.082   8.208   3.652 -0.2782 -0.0975  0.8051
  233MOL0     C30663   5.025   8.352   3.665  0.2883  0.7568  0.4098
  233MOL0     C30664   4.874   8.360   3.614 -0.5730 -0.8034  0.3855
  233MOL0     C30665   4.839   8.511   3.584  0.4991  0.1460 -0.7406
  233MOL0     C30666   4.845   8.599   3.710 -1.3199 -0.1662  0.0449
  233MOL0     C30667   4.795   8.740   3.684 -0.0587 -0.8210 -0.4374
  233MOL0    Cl30668   4.619   8.738   3.658 -0.0748 -0.4560  0.5321
  233MOL0     C30669   5.230   7.751   3.640 -0.4944  0.3199 -0.3521
  233MOL0     C30670   5.342   7.690   3.585  0.3249  0.1890  0.3496
  233MOL0     O30671   5.471   7.454   3.477 -0.4663 -0.3527  0.0013
  233MOL0     C30672   5.725   7.373   3.374 -0.9472 -0.2855 -0.3638
  233MOL0     C30673   5.848   7.345   3.312  0.3638 -0.2584  0.7190
  233MOL0     N30674   5.992   7.723   2.667  0.2312  0.4478  0.0856
  233MOL0     N30675   6.065   7.825   2.633  0.8726 -0.2198 -0.7802
  233MOL0     C30676   7.409   7.624   2.426 -0.2798 -0.2527  0.3116
  233MOL0     C30677   7.530   7.646   2.352 -0.3036 -0.4451  0.6256
  233MOL0     C30678   7.832   7.796   2.061 -0.0835  0.9141 -0.5085
  233MOL0     C30679   7.886   7.896   2.141 -0.0648 -0.0968 -0.1263
  233MOL0     C30680   8.010   7.943   2.122 -0.3867 -0.1069 -0.2397
  233MOL0     C30681   8.086   7.893   2.018 -0.5573 -0.6588 -0.1185
  233MOL0     O30682   8.207   7.946   1.969  0.0771 -0.5995  0.0363
  233MOL0     C30683   8.314   7.891   2.040 -0.8066 -0.5105 -0.1590
  233MOL0     C30684   8.420   7.828   1.948  0.6392 -0.4860  0.1768
  233MOL0     C30685   8.559   7.859   2.003 -0.1515  0.1941  0.2296
  233MOL0     C30686   8.665   7.787   1.919  0.3766 -0.3317  0.4867
  233MOL0     C30687   8.800   7.810   1.963 -0.9812 -0.0085  0.0673
  233MOL0     C30688   8.913   7.794   2.007  1.0186 -0.0915 -0.6682
  233MOL0     C30689   8.038   7.777   1.948  0.3143  0.5562 -0.9334
  233MOL0     C30690   7.914   7.729   1.976  0.4092 -0.0312 -0.2043
  233MOL0     H30691   7.414   7.850   2.117 -2.8373  1.8385  0.4479
  233MOL0     H30692   7.196   7.762   2.220  0.2662 -0.9892  1.5207
  233MOL0     H30693   7.082   7.545   2.234  1.2029 -7.0290  2.4224
  233MOL0     H30694   7.022   7.687   2.311  0.6543  0.6459  2.5404
  233MOL0     H30695   7.020   7.425   2.463  0.8934 -0.0123 -0.2119
  233MOL0     H30696   6.895   7.436   2.343  1.4739  1.3938 -2.2448
  233MOL0     H30697   6.916   7.671   2.541 -0.9663  0.6464  0.4417
  233MOL0     H30698   6.868   7.512   2.598  1.7260 -0.7531 -0.0954
  233MOL0     H30699   6.723   7.653   2.371 -0.6603  0.8595  0.2501
  233MOL0     H30700   6.678   7.511   2.459 -0.1511  0.3109 -0.6176
  233MOL0     H30701   6.698   7.781   2.589 -1.8212  0.1721  0.7023
  233MOL0     H30702   6.656   7.621   2.668 -1.3676 -1.0666  0.4135
  233MOL0     H30703   6.447   7.611   2.551 -1.9699  1.8493 -1.7941
  233MOL0     H30704   6.487   7.743   2.440  1.7452  3.8392  0.9065
  233MOL0     H30705   6.443   7.791   2.734  0.6080 -0.5816  1.0993
  233MOL0     H30706   6.509   7.901   2.619  0.0992 -0.7525 -1.0786
  233MOL0     H30707   6.295   7.871   2.468  0.0422  1.0278  1.6089
  233MOL0     H30708   6.292   7.959   2.613 -2.0811 -0.1474 -0.3583
  233MOL0     H30709   6.269   7.556   2.618  2.5261  1.1183  2.9629
  233MOL0     H30710   6.071   7.392   2.683 -1.7560 -0.2240 -1.2640
  233MOL0     H30711   5.913   7.444   2.662 -0.0976  0.1133 -1.1671
  233MOL0     H30712   5.876   7.441   2.878  0.1708  1.9296  0.3407
  233MOL0     H30713   5.972   7.569   2.911 -3.2755  0.1245 -0.9203
  233MOL0     H30714   6.099   7.278   2.868 -0.2319 -1.4569  1.3789
  233MOL0     H30715   6.178   7.417   2.940  0.1880  0.0371 -1.7765
  233MOL0     H30716   6.071   7.218   3.088  0.4839  0.0823  0.2877
  233MOL0     H30717   5.916   7.290   3.040 -0.3528  1.4755 -1.9318
  233MOL0     H30718   5.906   7.657   3.193 -3.4444  0.0123 -1.3534
  233MOL0     H30719   5.695   7.703   3.263 -1.0184 -1.1101 -3.0335
  233MOL0     H30720   5.341   7.877   3.308 -1.2095 -0.0487 -0.8132
  233MOL0     H30721   5.145   7.957   3.383  0.7096  0.0445  0.1202
  233MOL0     H30722   5.199   7.970   3.771 -0.7252 -0.2583  1.6529
  233MOL0     H30723   5.053   7.914   3.849  0.7036 -1.4595 -0.0906
  233MOL0     H30724   5.029   8.166   3.850  1.5802  0.4301 -0.4368
  233MOL0     H30725   4.911   8.082   3.742  0.0261 -1.6002  0.3367
  233MOL0     H30726   5.070   8.193   3.544  3.4306 -0.6626  0.3150
  233MOL0     H30727   5.191   8.200   3.660 -0.1125 -0.5347 -1.2230
  233MOL0     H30728   5.039   8.387   3.768 -1.2719  0.6888  0.6767
  233MOL0     H30729   5.082   8.418   3.599  1.6266  0.3694  1.1267
  233MOL0     H30730   4.814   8.319   3.695  0.9789  0.1632  2.0948
  233MOL0     H30731   4.852   8.298   3.527 -1.4305 -2.2500  1.5950
  233MOL0     H30732   4.745   8.524   3.530  0.0812 -2.0526 -0.6411
  233MOL0     H30733   4.924   8.534   3.518  1.0168 -2.5776 -1.1470
  233MOL0     H30734   4.791   8.559   3.796  1.2636 -2.7904  0.6042
  233MOL0     H30735   4.947   8.604   3.750 -1.8435 -1.0115  1.5923
  233MOL0     H30736   4.852   8.785   3.603 -0.9491  0.8550 -0.1834
  233MOL0     H30737   4.796   8.797   3.778  2.5627  0.4246 -1.1157
  233MOL0     H30738   5.205   7.722   3.741  0.5919 -0.6696 -0.3503
  233MOL0     H30739   5.399   7.624   3.650  0.1913 -0.4103 -0.1341
  233MOL0     H30740   5.705   7.283   3.430  1.3668  0.1444  1.2577
  233MOL0     H30741   5.893   7.247   3.319 -0.8346 -0.7848  1.3635
  233MOL0     H30742   7.407   7.557   2.511  0.5078 -0.2651  0.3282
  233MOL0     H30743   7.616   7.603   2.401  3.3969 -0.6209 -5.1516
  233MOL0     H30744   7.831   7.951   2.217  1.2646  0.0722  0.7622
  233MOL0     H30745   8.054   8.017   2.187 -0.8918  1.1819 -1.3197
  233MOL0     H30746   8.287   7.823   2.121  0.9919 -1.2009 -0.0866
  233MOL0     H30747   8.357   7.977   2.092 -0.8673  0.8065 -2.1786
  233MOL0     H30748   8.400   7.720   1.949 -0.2063 -0.3356  1.1775
  233MOL0     H30749   8.411   7.874   1.849 -1.1264  2.4830  1.5719
  233MOL0     H30750   8.565   7.828   2.108  4.4289 -0.1531  0.0636
  233MOL0     H30751   8.587   7.965   2.005  1.6026 -0.0325 -3.7440
  233MOL0     H30752   8.642   7.680   1.908 -0.0943  0.0340 -3.5155
  233MOL0     H30753   8.658   7.822   1.816  1.5309 -0.2792  0.4145
  233MOL0     H30754   9.004   7.793   2.064  0.5325  1.3708  0.1808
  233MOL0     H30755   8.096   7.727   1.871  0.1044 -2.1863  0.5698
  233MOL0     H30756   7.868   7.646   1.923 -1.9713  0.0272  1.6145
  234MOL0     O30757   1.331   7.518   3.950 -0.6295 -0.0862 -0.3267
  234MOL0     C30758   1.330   7.418   3.883  0.4199  0.2545 -0.7852
  234MOL0     O30759   1.442   7.359   3.811  0.3588 -0.2452  0.3834
  234MOL0     C30760   1.565   7.371   3.872  0.1753  0.6864  0.0031
  234MOL0     C30761   1.585   7.296   3.994 -0.4307 -0.3158  0.6478
  234MOL0     C30762   1.713   7.281   4.043  0.1932  0.0838 -0.1826
  234MOL0     C30763   1.822   7.349   3.979  0.1660  0.8846 -0.3184
  234MOL0     O30764   1.944   7.345   4.033  0.4146  0.4493  0.2932
  234MOL0     C30765   1.965   7.459   4.111 -0.3366  0.2132 -0.4895
  234MOL0     C30766   2.085   7.439   4.216 -0.6632  0.1453 -0.2919
  234MOL0     C30767   2.220   7.411   4.141  1.1976 -0.5946 -0.1684
  234MOL0     C30768   2.333   7.429   4.245  0.4002 -0.0800 -0.0601
  234MOL0     C30769   2.479   7.438   4.186 -0.2630 -0.0351 -0.0058
  234MOL0     C30770   2.507   7.317   4.095 -0.4626  0.0611 -0.4200
  234MOL0     C30771   2.656   7.305   4.057 -0.3889  0.3349 -0.1394
  234MOL0     C30772   2.688   7.391   3.929  0.3520  1.2130 -0.7611
  234MOL0     N30773   2.621   7.341   3.818  0.3809  0.9678 -0.2680
  234MOL0     C30774   2.683   7.288   3.710  0.3068  0.2863  0.3005
  234MOL0     C30775   2.608   7.306   3.597  0.0353 -0.8614  0.1162
  234MOL0     C30776   2.639   7.272   3.449 -0.0181  0.3397 -0.7042
  234MOL0     C30777   2.519   7.233   3.377 -0.2946 -0.4555 -0.1700
  234MOL0     C30778   2.551   7.191   3.238 -0.6223 -0.4533 -0.0906
  234MOL0     C30779   2.417   7.148   3.174  0.5216  0.6049  0.4598
  234MOL0     O30780   2.380   7.020   3.244 -0.0632  0.3646 -0.8580
  234MOL0     C30781   2.256   6.986   3.204  0.2616 -0.0521 -0.2583
  234MOL0     C30782   2.151   7.064   3.258  1.0135 -0.5672 -0.6877
  234MOL0     C30783   2.020   7.041   3.204  0.5444  1.5240 -0.5038
  234MOL0     C30784   1.995   6.947   3.101  0.9254 -1.2013 -0.2424
  234MOL0     C30785   1.855   6.937   3.056 -0.7264  0.6051  0.2168
  234MOL0     O30786   1.762   6.972   3.143  0.9368  0.4188 -0.7996
  234MOL0     C30787   1.625   6.962   3.134 -0.3530  0.3859  0.9514
  234MOL0     C30788   1.555   6.951   3.019  0.4578  0.5865 -0.1873
  234MOL0     C30789   1.416   6.930   3.022  0.2047  1.1343  0.8873
  234MOL0     C30790   1.352   6.919   3.149 -0.1074  0.0484 -0.4078
  234MOL0     O30791   1.222   6.883   3.170 -0.1289  0.4183  0.8062
  234MOL0     C30792   1.128   6.894   3.057 -0.2743 -0.3820 -0.0882
  234MOL0     C30793   0.996   6.837   3.095  0.1463 -1.1843  0.1698
  234MOL0     C30794   0.892   6.855   2.989 -0.2527  0.0472 -0.5725
  234MOL0     C30795   0.763   6.790   3.057 -0.1968 -0.1314  0.0344
  234MOL0     C30796   0.657   6.758   2.953  1.1991 -0.4707  0.9690
  234MOL0     C30797   0.520   6.749   3.019 -0.1869  0.2036 -0.1739
  234MOL0     C30798   0.409   6.777   2.912 -0.0297 -0.1613  0.4305
  234MOL0     C30799   0.263   6.785   2.959  0.2466 -0.9550 -0.3516
  234MOL0    Cl30800   0.166   6.872   2.830 -0.0015  0.1519  0.3385
  234MOL0     C30801   1.424   6.933   3.276 -0.4237 -0.4604  0.4441
  234MOL0     C30802   1.556   6.962   3.259  0.2434  0.4663 -0.4685
  234MOL0     O30803   1.843   6.891   2.940  0.7620  0.1870  0.2290
  234MOL0     C30804   2.101   6.869   3.058  0.2314 -0.4836 -0.0353
  234MOL0     C30805   2.229   6.891   3.102  0.5225 -1.2960  1.0386
  234MOL0     N30806   2.494   7.376   3.639 -0.4060  0.9739 -0.2782
  234MOL0     N30807   2.505   7.395   3.765  0.2423 -0.4422 -0.8543
  234MOL0     C30808   1.801   7.411   3.857 -0.5965 -0.0764  0.3945
  234MOL0     C30809   1.674   7.411   3.798 -0.5065 -0.3292  0.7203
  234MOL0     C30810   1.205   7.350   3.857  0.4825 -0.8789 -0.0975
  234MOL0     C30811   1.132   7.354   3.736 -0.7140  0.4212 -0.3781
  234MOL0     C30812   1.002   7.318   3.710 -0.1424 -0.5803 -0.2127
  234MOL0     C30813   0.933   7.266   3.820  0.6328 -0.3461 -0.2393
  234MOL0     O30814   0.805   7.215   3.808  0.0484 -1.1907 -0.3514
  234MOL0     C30815   0.703   7.294   3.752 -0.5986 -0.5672  0.0582
  234MOL0     C30816   0.563   7.260   3.793  0.4983  0.1813 -0.3876
  234MOL0     C30817   0.452   7.337   3.718  0.0850  0.9372 -0.7159
  234MOL0     C30818   0.317   7.310   3.792 -0.1462 -0.5240  0.1759
  234MOL0     C30819   0.233   7.213   3.724 -0.4647 -0.1836 -1.1334
  234MOL0     C30820   0.164   7.132   3.667 -1.1023  0.1301  0.5575
  234MOL0     C30821   0.994   7.259   3.949  0.0182 -0.6710  0.3406
  234MOL0     C30822   1.130   7.304   3.970  0.2523  0.7722  0.9709
  234MOL0     H30823   1.503   7.236   4.032  0.7400 -1.2559  1.7774
  234MOL0     H30824   1.733   7.232   4.138 -0.2860 -0.0587 -0.1555
  234MOL0     H30825   1.882   7.478   4.181  0.3055 -4.1684  1.8003
  234MOL0     H30826   1.980   7.549   4.050 -0.5507  1.5868  1.3863
  234MOL0     H30827   2.057   7.358   4.284 -3.3931 -0.5421 -2.0560
  234MOL0     H30828   2.087   7.530   4.277 -3.5003  0.1067 -0.0065
  234MOL0     H30829   2.221   7.485   4.060  1.5124 -0.2141  0.1801
  234MOL0     H30830   2.221   7.315   4.090 -1.0354 -0.9596  0.3654
  234MOL0     H30831   2.307   7.516   4.306  1.2987 -1.3882  2.3625
  234MOL0     H30832   2.330   7.346   4.317 -0.0822  1.3404  1.6334
  234MOL0     H30833   2.539   7.449   4.277 -1.7838  5.5128  0.7131
  234MOL0     H30834   2.499   7.528   4.127 -0.6839 -1.2518 -2.0763
  234MOL0     H30835   2.436   7.323   4.013  0.9071  0.7575 -1.6109
  234MOL0     H30836   2.490   7.223   4.149 -3.2683  0.1569 -1.0122
  234MOL0     H30837   2.720   7.344   4.137  1.6957 -3.3248  0.1766
  234MOL0     H30838   2.686   7.203   4.031 -1.6960 -0.5209  1.4952
  234MOL0     H30839   2.794   7.386   3.902  0.0330 -2.0222 -1.8550
  234MOL0     H30840   2.664   7.494   3.953  3.0631  1.5398  1.0076
  234MOL0     H30841   2.781   7.242   3.704  0.2460  0.0270  1.1204
  234MOL0     H30842   2.716   7.195   3.441 -1.4323 -1.0027 -2.0391
  234MOL0     H30843   2.676   7.362   3.399 -0.9844  0.4299 -1.2855
  234MOL0     H30844   2.460   7.325   3.383  1.1716  0.5079 -0.1068
  234MOL0     H30845   2.476   7.149   3.433  1.7074 -1.1662  0.3663
  234MOL0     H30846   2.609   7.265   3.182  1.9318 -1.9336  0.4346
  234MOL0     H30847   2.611   7.099   3.240  1.8857  1.0786  2.1683
  234MOL0     H30848   2.422   7.128   3.066 -0.9044 -2.4102  0.8472
  234MOL0     H30849   2.337   7.222   3.174  0.8903  1.3378 -4.2596
  234MOL0     H30850   2.172   7.130   3.341 -0.8921  0.1900 -0.7497
  234MOL0     H30851   1.935   7.088   3.252 -0.0933  0.3018 -0.4013
  234MOL0     H30852   1.605   6.964   2.924  1.0489  2.0434  0.2939
  234MOL0     H30853   1.360   6.930   2.929  0.1785  1.1766  0.9028
  234MOL0     H30854   1.160   6.832   2.972  1.6601  1.6444 -0.9342
  234MOL0     H30855   1.120   7.000   3.030  0.4324  0.3819  2.4832
  234MOL0     H30856   0.964   6.912   3.169  1.0474  0.1567 -0.7652
  234MOL0     H30857   1.013   6.738   3.138 -2.2091 -0.6342  2.6525
  234MOL0     H30858   0.915   6.793   2.902 -1.7290 -0.9489 -0.2942
  234MOL0     H30859   0.877   6.960   2.962 -0.5627 -0.6011 -3.1687
  234MOL0     H30860   0.796   6.702   3.114 -1.7853 -3.0205 -3.1596
  234MOL0     H30861   0.728   6.865   3.128  0.1985 -0.6258  0.7658
  234MOL0     H30862   0.674   6.656   2.919  0.3444 -0.0633 -0.7734
  234MOL0     H30863   0.659   6.839   2.880  0.0560 -0.3735  1.0250
  234MOL0     H30864   0.520   6.826   3.097 -0.1801 -1.2096  1.2750
  234MOL0     H30865   0.508   6.650   3.064  1.8246  0.3296  0.7442
  234MOL0     H30866   0.431   6.878   2.876  3.7038 -0.9301  0.1842
  234MOL0     H30867   0.408   6.709   2.827 -3.8992 -0.7443  0.7795
  234MOL0     H30868   0.269   6.855   3.043 -0.6535  0.4593 -1.4206
  234MOL0     H30869   0.232   6.684   2.987  1.3772 -1.0539  0.6485
  234MOL0     H30870   1.374   6.915   3.370 -0.7253  2.0404  0.8123
  234MOL0     H30871   1.614   6.963   3.352 -0.3806 -1.1687 -0.0236
  234MOL0     H30872   2.087   6.789   2.986  1.0461 -0.6491 -0.0269
  234MOL0     H30873   2.317   6.837   3.069  1.3122  0.6483 -0.2649
  234MOL0     H30874   1.886   7.454   3.804  0.7687 -0.1144  2.4728
  234MOL0     H30875   1.660   7.452   3.698  4.1730  0.9007  0.3089
  234MOL0     H30876   1.179   7.390   3.646  0.0574 -0.9736 -0.5432
  234MOL0     H30877   0.944   7.324   3.618 -2.6595 -0.3416  1.3129
  234MOL0     H30878   0.705   7.285   3.643 -1.6674  0.2257 -0.0492
  234MOL0     H30879   0.720   7.399   3.776  0.5595 -0.5212 -0.8464
  234MOL0     H30880   0.560   7.151   3.785  1.2267  0.2394 -1.7093
  234MOL0     H30881   0.551   7.293   3.897 -1.4134  0.3103 -0.6243
  234MOL0     H30882   0.438   7.300   3.616  0.8394 -6.0305  1.2262
  234MOL0     H30883   0.476   7.444   3.726  0.7669  0.8685 -1.6716
  234MOL0     H30884   0.330   7.292   3.899  2.1479 -3.4957 -0.4780
  234MOL0     H30885   0.263   7.405   3.787 -1.0929 -1.1097 -1.6424
  234MOL0     H30886   0.100   7.064   3.616 -0.7207 -0.3352  0.6898
  234MOL0     H30887   0.944   7.207   4.029  0.9887 -2.3561 -0.1172
  234MOL0     H30888   1.163   7.288   4.072 -2.8085 -4.6729  1.5127
  235MOL0     O30889   6.901   1.435   7.695 -0.4458 -0.8003  0.1642
  235MOL0     C30890   6.861   1.537   7.631 -0.5378  0.5363 -0.0418
  235MOL0     O30891   6.944   1.608   7.561  0.7544  0.1691  0.6833
  235MOL0     C30892   7.086   1.594   7.565  0.7816  0.9931  0.1638
  235MOL0     C30893   7.169   1.668   7.648 -0.1547 -1.2747  0.6708
  235MOL0     C30894   7.311   1.654   7.645 -0.4622  0.0818  0.1612
  235MOL0     C30895   7.364   1.579   7.544 -0.2601 -0.6380 -0.9565
  235MOL0     O30896   7.499   1.573   7.543  0.1374 -0.0122 -0.2181
  235MOL0     C30897   7.563   1.594   7.421 -0.5962 -0.2844  0.0334
  235MOL0     C30898   7.610   1.740   7.401  0.9787 -0.1686  0.4847
  235MOL0     C30899   7.680   1.798   7.527 -0.0918  0.1878  0.4960
  235MOL0     C30900   7.826   1.753   7.553 -0.3251  0.1685  0.4300
  235MOL0     C30901   7.891   1.850   7.650  0.7249 -0.0025 -0.1343
  235MOL0     C30902   8.013   1.784   7.706 -0.2586 -0.3589 -0.7873
  235MOL0     C30903   8.095   1.870   7.811  0.3929 -0.2170  0.0386
  235MOL0     C30904   8.021   1.934   7.932  0.5698  0.8245  0.0672
  235MOL0     N30905   7.943   1.832   8.012  0.4751  0.0948  0.0754
  235MOL0     C30906   7.815   1.790   8.013 -0.7523  0.6758 -0.3182
  235MOL0     C30907   7.801   1.702   8.115 -0.7157  0.4656 -0.5269
  235MOL0     C30908   7.691   1.625   8.163  0.7741  1.1077 -0.1540
  235MOL0     C30909   7.706   1.484   8.105 -0.0412 -0.4434 -0.7906
  235MOL0     C30910   7.697   1.465   7.954 -0.1328  0.1230 -0.8606
  235MOL0     C30911   7.556   1.412   7.906 -0.1086  1.1819 -0.3556
  235MOL0     O30912   7.551   1.385   7.768 -1.2134 -0.2104  0.6949
  235MOL0     C30913   7.439   1.321   7.714  0.4069 -0.9606 -0.1329
  235MOL0     C30914   7.304   1.348   7.763  0.4386  0.2774  0.0321
  235MOL0     C30915   7.202   1.267   7.727 -0.3473  0.6123  0.0365
  235MOL0     C30916   7.228   1.158   7.636  0.6890 -0.9779 -1.0225
  235MOL0     C30917   7.115   1.074   7.592 -0.2421  0.9366 -0.4841
  235MOL0     O30918   6.988   1.099   7.616  0.6685 -0.5267  0.5199
  235MOL0     C30919   6.889   0.999   7.614 -0.9032  0.4441 -0.5869
  235MOL0     C30920   6.764   1.044   7.579  0.4536  0.1706 -0.2923
  235MOL0     C30921   6.662   0.954   7.574 -0.0954 -1.0187 -0.3474
  235MOL0     C30922   6.670   0.815   7.604  0.0024 -0.2814  0.4469
  235MOL0     O30923   6.553   0.751   7.594  0.3343  0.0036 -0.3080
  235MOL0     C30924   6.524   0.657   7.697  0.5459 -0.3432  0.1368
  235MOL0     C30925   6.375   0.651   7.713 -0.4593  0.0113  0.4565
  235MOL0     C30926   6.339   0.512   7.763  0.2717  0.0254  0.4275
  235MOL0     C30927   6.426   0.475   7.885  0.0633  0.7569  0.0011
  235MOL0     C30928   6.388   0.339   7.947  0.4803  0.0520  0.1512
  235MOL0     C30929   6.474   0.218   7.893  1.6367 -0.1415  0.2830
  235MOL0     C30930   6.425   0.095   7.949 -0.9256  0.4857 -0.1497
  235MOL0     C30931   6.491  -0.020   7.875 -0.1386 -0.3159 -0.2373
  235MOL0    Cl30932   6.456  -0.163   7.975  0.1762 -0.0057  0.3034
  235MOL0     C30933   6.792   0.773   7.640  0.3574 -0.0976  0.4759
  235MOL0     C30934   6.901   0.859   7.644 -0.1474 -0.4274 -0.2860
  235MOL0     O30935   7.147   0.967   7.536 -0.1313  0.7978  0.0238
  235MOL0     C30936   7.364   1.131   7.596  0.2262  0.0842  0.4959
  235MOL0     C30937   7.468   1.212   7.633  0.0646 -0.2478 -0.5022
  235MOL0     N30938   7.926   1.697   8.173 -0.1268  1.3073 -0.7729
  235MOL0     N30939   8.004   1.773   8.117 -0.0139 -0.8026  0.4320
  235MOL0     C30940   7.279   1.519   7.452  0.4840  0.7382 -0.3371
  235MOL0     C30941   7.146   1.527   7.457 -0.3779  0.4937 -0.0627
  235MOL0     C30942   6.716   1.560   7.628  0.0764 -0.2777  0.4032
  235MOL0     C30943   6.626   1.464   7.686 -0.9742  0.0356  0.3702
  235MOL0     C30944   6.487   1.471   7.654  0.5060 -0.8712  0.4319
  235MOL0     C30945   6.440   1.580   7.580 -0.0741 -0.7913 -0.6826
  235MOL0     O30946   6.306   1.577   7.552  0.3388  0.1628 -0.4674
  235MOL0     C30947   6.254   1.674   7.453 -0.4169 -1.5142  0.0868
  235MOL0     C30948   6.106   1.645   7.427 -0.6751  0.1880 -0.8676
  235MOL0     C30949   6.046   1.760   7.341  0.6211  0.0433 -0.7126
  235MOL0     C30950   5.904   1.736   7.269  0.3040  0.5006 -0.6717
  235MOL0     C30951   5.798   1.755   7.366 -0.1646 -0.9106 -0.0614
  235MOL0     C30952   5.707   1.771   7.445 -0.3848  0.2296 -0.2939
  235MOL0     C30953   6.524   1.682   7.549 -0.3346 -0.5888 -0.0281
  235MOL0     C30954   6.660   1.674   7.569 -0.3737  0.3525 -0.8063
  235MOL0     H30955   7.131   1.730   7.729  0.1280 -0.5023  0.2129
  235MOL0     H30956   7.381   1.702   7.712  1.0244 -0.8040 -0.6981
  235MOL0     H30957   7.507   1.562   7.332  1.6292 -1.2964 -1.1128
  235MOL0     H30958   7.654   1.533   7.414 -0.4557 -0.2605  1.3968
  235MOL0     H30959   7.521   1.799   7.377  1.9935  0.9903 -0.5464
  235MOL0     H30960   7.677   1.750   7.315  1.6822 -0.8846  0.9417
  235MOL0     H30961   7.620   1.766   7.612  0.4030  1.3907  1.3171
  235MOL0     H30962   7.677   1.907   7.516  0.1170  0.1172 -0.3738
  235MOL0     H30963   7.838   1.653   7.594  0.8826 -0.5460 -1.5465
  235MOL0     H30964   7.877   1.748   7.456 -2.0647  0.7604 -0.5777
  235MOL0     H30965   7.817   1.875   7.726 -2.3542 -1.6818 -2.3486
  235MOL0     H30966   7.930   1.941   7.603 -0.1068  1.0848  1.2114
  235MOL0     H30967   8.086   1.755   7.629  2.5642 -1.2051  2.0024
  235MOL0     H30968   7.979   1.692   7.754 -1.9483  0.3124 -0.6404
  235MOL0     H30969   8.175   1.808   7.853  1.7432  2.1420  1.1161
  235MOL0     H30970   8.143   1.950   7.755 -0.6856  1.1295  0.9708
  235MOL0     H30971   7.956   2.010   7.889 -1.5053 -0.5425  0.6253
  235MOL0     H30972   8.098   1.986   7.990  0.3110  1.2118  0.0618
  235MOL0     H30973   7.741   1.814   7.937 -0.1376 -0.5433 -1.3391
  235MOL0     H30974   7.603   1.682   8.131  1.2110  0.4065 -2.8309
  235MOL0     H30975   7.690   1.615   8.272  1.5318  1.6103 -0.0958
  235MOL0     H30976   7.643   1.410   8.154 -0.6548  0.5831  0.0110
  235MOL0     H30977   7.812   1.459   8.116  0.6302  0.8343 -3.3547
  235MOL0     H30978   7.726   1.559   7.905 -1.2581  0.0471 -1.7142
  235MOL0     H30979   7.762   1.385   7.917  0.3489 -1.0419  2.2472
  235MOL0     H30980   7.495   1.502   7.921  0.3160  1.3973  0.1438
  235MOL0     H30981   7.522   1.323   7.960 -0.2770 -0.5075 -3.0598
  235MOL0     H30982   7.284   1.430   7.832  2.5921 -1.8472  3.5032
  235MOL0     H30983   7.097   1.290   7.740 -1.2902 -0.9598 -3.4510
  235MOL0     H30984   6.748   1.146   7.547 -0.1266  0.3607  0.5516
  235MOL0     H30985   6.567   0.992   7.538  0.2208  1.8997  1.5120
  235MOL0     H30986   6.567   0.687   7.793 -1.2329  2.7479  0.0950
  235MOL0     H30987   6.556   0.561   7.656 -1.1012 -1.0678  0.4706
  235MOL0     H30988   6.323   0.673   7.620 -1.9185 -1.3449  0.9037
  235MOL0     H30989   6.344   0.732   7.780  2.7211  1.5477  0.2577
  235MOL0     H30990   6.365   0.438   7.687  3.1638 -0.8025  2.0581
  235MOL0     H30991   6.232   0.510   7.786  0.2642 -4.0976  0.7258
  235MOL0     H30992   6.532   0.469   7.857 -0.3253  1.5293 -1.8221
  235MOL0     H30993   6.413   0.557   7.957  2.8679  1.3642 -0.0588
  235MOL0     H30994   6.282   0.311   7.944  0.4960 -0.2219  1.5756
  235MOL0     H30995   6.412   0.360   8.051 -3.2569  0.4119  1.0870
  235MOL0     H30996   6.579   0.225   7.922  1.2712  1.0827  1.4268
  235MOL0     H30997   6.458   0.219   7.785  2.4823 -0.7570  0.1450
  235MOL0     H30998   6.459   0.082   8.052  1.2749  1.0869 -0.7570
  235MOL0     H30999   6.317   0.075   7.945 -1.5575  3.4742 -0.3982
  235MOL0     H31000   6.597  -0.016   7.848 -0.3451 -0.8731 -1.1674
  235MOL0     H31001   6.441  -0.035   7.779  0.6256 -0.3443 -0.6317
  235MOL0     H31002   6.804   0.666   7.657 -0.8052 -0.7963 -2.3874
  235MOL0     H31003   7.004   0.832   7.664  0.8494  2.8661 -0.4534
  235MOL0     H31004   7.380   1.040   7.539  0.6108  0.4469  0.0153
  235MOL0     H31005   7.572   1.191   7.613 -0.4106 -2.7204 -0.6925
  235MOL0     H31006   7.319   1.469   7.364 -1.2127  1.2794 -1.4719
  235MOL0     H31007   7.089   1.468   7.386  1.9953 -2.6372  0.4488
  235MOL0     H31008   6.667   1.380   7.742  3.1026  0.7049 -1.2516
  235MOL0     H31009   6.415   1.392   7.674 -2.0456  0.7165 -1.8172
  235MOL0     H31010   6.313   1.668   7.361  2.4082  1.3804  1.5126
  235MOL0     H31011   6.272   1.775   7.490 -0.2896 -0.5418 -2.4128
  235MOL0     H31012   6.093   1.541   7.395  3.4435 -0.4064 -1.0901
  235MOL0     H31013   6.053   1.652   7.523  0.3790 -0.9355 -0.1787
  235MOL0     H31014   6.119   1.787   7.264 -0.1234  1.3607 -0.9833
  235MOL0     H31015   6.042   1.845   7.410  2.9244  1.7543 -2.5144
  235MOL0     H31016   5.896   1.818   7.197 -2.1611  2.0847  1.2691
  235MOL0     H31017   5.902   1.643   7.210  0.0187 -0.2655  0.5171
  235MOL0     H31018   5.628   1.791   7.514 -1.4262  0.8422 -1.6050
  235MOL0     H31019   6.488   1.772   7.498  2.0200 -0.1639 -1.0744
  235MOL0     H31020   6.720   1.759   7.538  0.1693  0.0412 -0.6303
  236MOL0     O31021  10.301   8.212   4.196 -0.3237  0.0179 -0.6387
  236MOL0     C31022  10.269   8.249   4.306  0.1484 -0.6691 -0.5048
  236MOL0     O31023  10.338   8.332   4.390 -1.3609  0.6788 -0.2864
  236MOL0     C31024  10.470   8.367   4.379 -0.5719 -0.2438  0.2829
  236MOL0     C31025  10.571   8.318   4.296  1.2008  1.0093  0.5728
  236MOL0     C31026  10.700   8.370   4.282  0.1783  0.8174  0.1096
  236MOL0     C31027  10.736   8.465   4.373  0.3015 -0.1858 -0.2747
  236MOL0     O31028  10.860   8.520   4.363 -0.6635 -0.2719 -0.3687
  236MOL0     C31029  10.896   8.651   4.419  1.2499  0.3398 -0.6845
  236MOL0     C31030  11.026   8.712   4.355 -0.2696  0.1109  0.3404
  236MOL0     C31031  11.018   8.730   4.211  0.2940 -0.4160  0.3901
  236MOL0     C31032  11.121   8.837   4.177  0.1305 -0.4203  0.3691
  236MOL0     C31033  11.143   8.862   4.021 -0.0270 -0.6482 -0.4427
  236MOL0     C31034  11.026   8.941   3.958 -0.5029 -0.0069 -0.4281
  236MOL0     C31035  11.057   9.026   3.832  0.1458 -0.1639  0.6278
  236MOL0     C31036  11.025   8.945   3.712 -0.5042  0.2873  0.2834
  236MOL0     N31037  11.088   9.004   3.590  0.0563 -0.4811 -0.1918
  236MOL0     C31038  11.156   8.932   3.492  0.0298 -0.4421  0.0424
  236MOL0     C31039  11.154   9.009   3.376 -0.0494  0.6142 -0.3430
  236MOL0     C31040  11.210   8.978   3.233 -0.0802  0.3521 -0.3751
  236MOL0     C31041  11.357   8.974   3.214 -0.7478 -0.7002  0.4927
  236MOL0     C31042  11.422   9.110   3.176 -0.5747  0.5197 -0.9617
  236MOL0     C31043  11.567   9.088   3.139 -0.0864  0.2082 -0.2765
  236MOL0     O31044  11.650   9.053   3.252  0.5177 -0.1662  0.0734
  236MOL0     C31045  11.784   9.089   3.263  0.2807  0.5595 -0.4505
  236MOL0     C31046  11.866   8.989   3.325  0.4580 -0.6964 -0.3480
  236MOL0     C31047  12.003   9.009   3.322 -0.0226 -0.0185 -0.3663
  236MOL0     C31048  12.067   9.126   3.270 -0.3158  0.2433 -0.2669
  236MOL0     C31049  12.214   9.148   3.280  0.2806 -1.2278 -0.3378
  236MOL0     O31050  12.281   9.058   3.348 -0.5774  0.5976  0.3208
  236MOL0     C31051  12.412   9.066   3.386  0.2154 -0.1845  0.4527
  236MOL0     C31052  12.476   9.186   3.418 -0.4798 -0.4405 -0.2580
  236MOL0     C31053  12.611   9.182   3.457  0.2102  0.6289 -0.4752
  236MOL0     C31054  12.680   9.063   3.475  0.1427  0.4168 -0.5929
  236MOL0     O31055  12.806   9.044   3.533  0.7139 -0.0374  0.1745
  236MOL0     C31056  12.913   9.146   3.517 -0.0247  0.2367 -0.3763
  236MOL0     C31057  12.993   9.144   3.379 -0.8668 -0.5390 -0.0388
  236MOL0     C31058  13.006   9.027   3.281 -0.6742 -1.3146 -0.2396
  236MOL0     C31059  13.065   8.906   3.347  0.7207  0.0326  0.2275
  236MOL0     C31060  13.209   8.925   3.382 -0.0221  0.0622  0.0638
  236MOL0     C31061  13.302   8.822   3.435  0.0412 -0.0540 -0.9809
  236MOL0     C31062  13.424   8.870   3.504 -0.1428 -0.4998  0.5041
  236MOL0     C31063  13.479   8.776   3.615 -0.3744  0.2614 -0.9679
  236MOL0    Cl31064  13.538   8.616   3.549  0.4764 -0.2194 -0.2242
  236MOL0     C31065  12.612   8.951   3.446 -0.1546 -0.1458 -0.8312
  236MOL0     C31066  12.484   8.942   3.393 -0.1441 -0.2093  0.3860
  236MOL0     O31067  12.257   9.250   3.235 -0.9215 -0.2198  0.4330
  236MOL0     C31068  11.984   9.224   3.224  0.5480  0.3293  0.2340
  236MOL0     C31069  11.842   9.205   3.216 -0.2764 -0.0922 -0.1862
  236MOL0     N31070  11.089   9.132   3.412 -0.2542 -0.0354 -0.0018
  236MOL0     N31071  11.042   9.116   3.528  0.1521 -0.0351  0.2517
  236MOL0     C31072  10.646   8.509   4.472 -0.4694  0.5495  0.1120
  236MOL0     C31073  10.507   8.468   4.467 -0.6676 -0.0034 -0.9852
  236MOL0     C31074  10.132   8.217   4.349 -0.7459 -0.4237 -0.0749
  236MOL0     C31075  10.065   8.105   4.307 -0.1419 -0.0296  0.8258
  236MOL0     C31076   9.941   8.073   4.354 -0.4398 -0.7436 -0.0631
  236MOL0     C31077   9.884   8.142   4.465  0.0246 -0.2151  0.2437
  236MOL0     O31078   9.772   8.077   4.522  0.2485 -0.3794  0.1699
  236MOL0     C31079   9.723   8.118   4.649 -0.4558  0.7958 -0.1979
  236MOL0     C31080   9.640   7.998   4.703 -0.5834  0.0293 -0.5459
  236MOL0     C31081   9.506   8.004   4.629  0.7046  0.0440 -0.5313
  236MOL0     C31082   9.409   7.879   4.663 -0.4092 -0.3143 -0.4252
  236MOL0     C31083   9.389   7.841   4.802  0.3027  0.4549  0.0425
  236MOL0     C31084   9.375   7.809   4.921 -1.0057 -0.6758 -0.2790
  236MOL0     C31085   9.959   8.251   4.520  0.1885  0.1059 -0.6178
  236MOL0     C31086  10.078   8.287   4.463  0.3803 -0.3482 -0.3796
  236MOL0     H31087  10.543   8.245   4.221 -0.6138  0.6437  1.5479
  236MOL0     H31088  10.763   8.326   4.205 -1.3724  1.1510 -1.4006
  236MOL0     H31089  10.902   8.636   4.527 -2.5405  4.4653  0.3872
  236MOL0     H31090  10.811   8.716   4.398 -1.5731 -3.0743 -0.6074
  236MOL0     H31091  11.109   8.642   4.372  2.3765  2.3832 -2.1837
  236MOL0     H31092  11.032   8.803   4.415 -1.8353  0.3736  0.1381
  236MOL0     H31093  10.926   8.781   4.184 -0.4074 -1.5944  0.4733
  236MOL0     H31094  11.023   8.632   4.162 -1.7239 -2.8567  4.5183
  236MOL0     H31095  11.083   8.928   4.223 -0.1163 -0.0582 -0.5398
  236MOL0     H31096  11.219   8.804   4.215  0.7778 -2.6975 -2.8488
  236MOL0     H31097  11.151   8.760   3.982  0.6962 -1.1787  1.0077
  236MOL0     H31098  11.236   8.915   3.996 -1.7524  2.1387 -1.4132
  236MOL0     H31099  10.996   9.014   4.034 -0.5713  0.0771 -0.5355
  236MOL0     H31100  10.940   8.875   3.944 -0.5194 -0.3195  0.9670
  236MOL0     H31101  10.990   9.111   3.818  0.7427  0.2030 -0.0591
  236MOL0     H31102  11.158   9.069   3.838 -0.6603  2.1772 -1.1563
  236MOL0     H31103  10.919   8.939   3.687 -0.6865  1.0925  0.8159
  236MOL0     H31104  11.066   8.846   3.734  1.4287  1.4181  2.2134
  236MOL0     H31105  11.199   8.833   3.503 -1.4589 -1.2775 -1.1406
  236MOL0     H31106  11.161   9.041   3.158  0.9174 -0.2482 -1.5563
  236MOL0     H31107  11.170   8.878   3.210 -1.8360  0.9628 -0.1451
  236MOL0     H31108  11.385   8.902   3.136 -0.2359 -1.0441  0.9906
  236MOL0     H31109  11.408   8.933   3.302  2.4531  1.8861  0.0143
  236MOL0     H31110  11.368   9.154   3.092 -1.4804 -0.9882 -1.2072
  236MOL0     H31111  11.412   9.181   3.258  0.9680  0.2182 -0.4720
  236MOL0     H31112  11.599   9.185   3.098  0.3523  0.0980 -0.2000
  236MOL0     H31113  11.570   9.016   3.057  2.2574 -0.9133  0.7082
  236MOL0     H31114  11.815   8.897   3.351 -2.0100  0.6593 -0.0763
  236MOL0     H31115  12.064   8.929   3.362  0.0871 -0.5443 -1.5521
  236MOL0     H31116  12.422   9.280   3.419  0.6113  0.3289 -3.0919
  236MOL0     H31117  12.647   9.281   3.482  1.7954  0.0523 -0.3837
  236MOL0     H31118  12.993   9.143   3.591  0.3631  2.1724 -0.6570
  236MOL0     H31119  12.864   9.243   3.532 -0.3452  0.1830 -1.0568
  236MOL0     H31120  13.093   9.168   3.414 -0.2727 -0.6582 -1.5552
  236MOL0     H31121  12.952   9.226   3.318  1.6732 -0.4521 -1.7685
  236MOL0     H31122  13.056   9.055   3.188 -0.5633 -0.6899 -0.0011
  236MOL0     H31123  12.907   8.997   3.245 -0.0025 -3.3971 -0.4609
  236MOL0     H31124  13.008   8.875   3.435  0.9750  0.8425  0.6890
  236MOL0     H31125  13.077   8.824   3.275  1.5783 -1.3931  1.9229
  236MOL0     H31126  13.217   9.008   3.452 -3.2925  1.0275 -0.5413
  236MOL0     H31127  13.247   8.976   3.293 -1.9591  0.0746 -0.8091
  236MOL0     H31128  13.329   8.767   3.345  1.1174 -0.4653 -0.4211
  236MOL0     H31129  13.244   8.751   3.495 -0.3148  1.6344  0.7631
  236MOL0     H31130  13.501   8.875   3.427 -0.2450  1.8514  0.4898
  236MOL0     H31131  13.410   8.971   3.544  0.1847 -0.3625  0.2857
  236MOL0     H31132  13.402   8.753   3.690  1.6595 -0.9943  0.8822
  236MOL0     H31133  13.561   8.819   3.674 -0.0956  0.6059 -1.5945
  236MOL0     H31134  12.646   8.855   3.483 -2.3020 -1.1460 -1.3289
  236MOL0     H31135  12.444   8.847   3.359 -0.3393  0.4176 -1.2578
  236MOL0     H31136  12.026   9.316   3.184 -1.3918  1.0293 -0.3345
  236MOL0     H31137  11.770   9.276   3.177 -1.5350 -0.5411  1.2343
  236MOL0     H31138  10.672   8.586   4.544 -1.6809  0.6666  0.4482
  236MOL0     H31139  10.438   8.510   4.540  0.0722  0.5491 -0.5858
  236MOL0     H31140  10.091   8.042   4.223 -1.0536 -3.2688  2.7822
  236MOL0     H31141   9.886   8.004   4.291  0.8623  2.0077 -4.7429
  236MOL0     H31142   9.664   8.210   4.643 -1.0902  0.3113 -2.4347
  236MOL0     H31143   9.800   8.139   4.723 -0.9844  0.1838  0.5481
  236MOL0     H31144   9.701   7.911   4.679 -0.1022  0.3850 -0.6257
  236MOL0     H31145   9.625   8.001   4.812 -1.5523  3.8319 -0.6188
  236MOL0     H31146   9.511   8.024   4.521  0.4035  3.0133 -0.0875
  236MOL0     H31147   9.461   8.093   4.675  4.4578  2.3146 -0.8251
  236MOL0     H31148   9.313   7.917   4.627 -1.3734 -0.9261  1.3949
  236MOL0     H31149   9.454   7.792   4.615 -0.0038 -0.5266  0.3323
  236MOL0     H31150   9.378   7.787   5.026 -3.3222 -3.8000 -0.7153
  236MOL0     H31151   9.910   8.297   4.605 -0.6500  1.0092 -1.5686
  236MOL0     H31152  10.131   8.376   4.495  3.8410 -2.4772  0.3320
  237MOL0     O31153   3.066   6.594   4.465 -0.3499  0.0683 -0.2115
  237MOL0     C31154   3.058   6.705   4.492 -0.1574 -0.5575 -0.6521
  237MOL0     O31155   2.940   6.777   4.492 -0.5003  0.1944  0.0335
  237MOL0     C31156   2.824   6.729   4.449 -0.4308  0.3021  1.1344
  237MOL0     C31157   2.806   6.658   4.329 -0.2548  0.2291 -0.3797
  237MOL0     C31158   2.683   6.614   4.284 -0.5575  0.1582  0.8406
  237MOL0     C31159   2.564   6.634   4.356  0.0328 -0.0964 -0.6666
  237MOL0     O31160   2.457   6.579   4.299  0.4871 -0.5501 -0.5677
  237MOL0     C31161   2.343   6.573   4.389 -0.2286  0.1558  0.4183
  237MOL0     C31162   2.226   6.506   4.324 -0.1309  0.3034  0.2613
  237MOL0     C31163   2.255   6.366   4.259 -0.6952  0.6802 -0.1156
  237MOL0     C31164   2.126   6.305   4.230  0.7762  0.3885  0.6442
  237MOL0     C31165   2.136   6.208   4.112  0.2196 -0.4483  0.7448
  237MOL0     C31166   2.026   6.105   4.092 -0.2021  0.3521  0.0324
  237MOL0     C31167   2.047   6.009   3.983  0.3927  0.1469 -0.5476
  237MOL0     C31168   1.908   5.941   3.962 -0.5516 -0.8649  0.2639
  237MOL0     N31169   1.827   6.020   3.874  1.1906  0.4227 -0.7791
  237MOL0     C31170   1.839   6.023   3.736  0.6601 -0.1442 -0.1684
  237MOL0     C31171   1.755   6.134   3.696  0.1801 -0.2700  0.0964
  237MOL0     C31172   1.725   6.162   3.552  0.0501  0.0392 -0.7972
  237MOL0     C31173   1.575   6.184   3.527  0.2887 -0.0016 -0.5886
  237MOL0     C31174   1.542   6.145   3.382 -0.9680  0.4678  0.3375
  237MOL0     C31175   1.404   6.150   3.355  0.8953 -0.0172 -0.2798
  237MOL0     O31176   1.334   6.266   3.405 -0.4730 -0.3044  0.4755
  237MOL0     C31177   1.198   6.256   3.427 -0.3270 -1.1942  0.6690
  237MOL0     C31178   1.114   6.150   3.398  1.0814 -0.1289 -0.3470
  237MOL0     C31179   0.978   6.168   3.437  0.1323  0.6117  0.9765
  237MOL0     C31180   0.924   6.278   3.508  0.2335  0.3156 -0.1627
  237MOL0     C31181   0.773   6.277   3.538 -0.4713 -0.7521 -0.5962
  237MOL0     O31182   0.692   6.192   3.461  0.3300  0.4100 -0.3377
  237MOL0     C31183   0.558   6.191   3.492  0.4219 -0.9640 -0.1777
  237MOL0     C31184   0.495   6.073   3.532 -0.0676  0.0159  1.0060
  237MOL0     C31185   0.356   6.077   3.546  0.1912 -0.3599 -0.8412
  237MOL0     C31186   0.272   6.186   3.548 -1.7111  0.2641  0.3372
  237MOL0     O31187   0.137   6.165   3.556 -0.9293 -0.1423 -0.4360
  237MOL0     C31188   0.039   6.264   3.584  0.3338  1.1104  0.0400
  237MOL0     C31189  -0.038   6.291   3.452 -0.1539 -0.0784 -0.0694
  237MOL0     C31190  -0.153   6.186   3.447  0.5362 -0.0347  0.3258
  237MOL0     C31191  -0.242   6.208   3.321 -0.7730  0.1327 -0.0688
  237MOL0     C31192  -0.355   6.112   3.306 -0.6669  0.0694 -0.0152
  237MOL0     C31193  -0.439   6.095   3.431  0.1522  0.9555 -0.1441
  237MOL0     C31194  -0.513   6.224   3.477 -0.8961 -0.5725  0.4692
  237MOL0     C31195  -0.646   6.198   3.563  0.0451  0.4141  0.4499
  237MOL0    Cl31196  -0.706   6.362   3.606 -0.2340  0.3440 -0.3480
  237MOL0     C31197   0.336   6.302   3.508  0.8204  0.0594  0.0163
  237MOL0     C31198   0.475   6.309   3.478 -0.1737  0.9241 -0.8584
  237MOL0     O31199   0.736   6.358   3.624 -0.0804 -0.0069  0.2726
  237MOL0     C31200   1.016   6.385   3.525  0.3037 -0.1975  0.4443
  237MOL0     C31201   1.149   6.370   3.490  0.4998 -1.1718 -0.5208
  237MOL0     N31202   1.700   6.186   3.815 -0.2105 -0.8747  0.3587
  237MOL0     N31203   1.736   6.116   3.913 -0.0204 -0.2658  0.3679
  237MOL0     C31204   2.575   6.714   4.475 -0.0575 -0.1048 -0.0406
  237MOL0     C31205   2.705   6.763   4.519 -0.1070  0.0004 -0.6293
  237MOL0     C31206   3.180   6.782   4.535  0.3042 -0.4098 -0.1087
  237MOL0     C31207   3.199   6.919   4.533  0.3698  0.0776 -0.5840
  237MOL0     C31208   3.312   6.987   4.575  0.8481 -0.5287  0.7443
  237MOL0     C31209   3.416   6.908   4.624 -0.2732  0.0394 -0.1556
  237MOL0     O31210   3.527   6.978   4.678 -0.4116  0.5587  0.5057
  237MOL0     C31211   3.559   7.114   4.644 -0.5798 -0.0725  0.2621
  237MOL0     C31212   3.620   7.133   4.505 -0.4021 -0.1443  0.4683
  237MOL0     C31213   3.652   7.278   4.476  0.1515  0.2751 -0.4122
  237MOL0     C31214   3.749   7.302   4.354 -0.1532  0.1185 -0.5186
  237MOL0     C31215   3.772   7.446   4.343  0.0912  0.1683 -0.0926
  237MOL0     C31216   3.795   7.565   4.328 -0.8757  0.0876  0.0992
  237MOL0     C31217   3.410   6.774   4.634 -0.1033 -0.4559 -0.2272
  237MOL0     C31218   3.292   6.712   4.580  0.4024 -0.6594  0.1830
  237MOL0     H31219   2.889   6.624   4.268  0.6185 -0.5879  1.2100
  237MOL0     H31220   2.683   6.566   4.186 -0.9835 -2.7457  2.1478
  237MOL0     H31221   2.297   6.665   4.427 -1.6180 -0.5130  0.4448
  237MOL0     H31222   2.355   6.515   4.482  4.8499 -0.3732 -0.3132
  237MOL0     H31223   2.203   6.566   4.236  1.5414  1.1595  0.3635
  237MOL0     H31224   2.142   6.501   4.393 -2.6092  1.5762 -2.4640
  237MOL0     H31225   2.311   6.287   4.310 -2.6505 -2.0418 -1.8939
  237MOL0     H31226   2.305   6.390   4.165 -0.5087  0.2745 -0.1196
  237MOL0     H31227   2.092   6.248   4.317  3.6889 -1.9641  0.4092
  237MOL0     H31228   2.049   6.381   4.213 -0.9788 -2.1172 -4.7030
  237MOL0     H31229   2.236   6.166   4.113  1.2367  1.6231 -2.0588
  237MOL0     H31230   2.134   6.281   4.030 -1.3698 -0.6505  0.5574
  237MOL0     H31231   1.925   6.146   4.104 -1.0098 -1.8117  1.4092
  237MOL0     H31232   2.024   6.042   4.182 -2.8142  1.0364  0.5273
  237MOL0     H31233   2.077   6.056   3.889  1.0443 -0.1904 -0.5091
  237MOL0     H31234   2.113   5.926   4.009 -1.3928 -1.0747  0.2876
  237MOL0     H31235   1.853   5.921   4.054  0.1913  0.2958  0.9853
  237MOL0     H31236   1.934   5.851   3.906  2.6356  0.5126 -0.6967
  237MOL0     H31237   1.896   5.947   3.685 -0.0679 -1.5305  0.9944
  237MOL0     H31238   1.763   6.072   3.501  2.3648  0.6030 -0.1755
  237MOL0     H31239   1.777   6.248   3.510 -0.5385  1.0566  0.4994
  237MOL0     H31240   1.545   6.288   3.546  0.9057 -0.2465  2.1716
  237MOL0     H31241   1.511   6.134   3.600 -0.5143  1.5083 -0.2155
  237MOL0     H31242   1.590   6.216   3.315  0.5133 -2.2218 -1.5976
  237MOL0     H31243   1.569   6.042   3.359 -2.3163  0.4718 -1.4895
  237MOL0     H31244   1.355   6.062   3.399 -1.3279 -0.1020 -2.6204
  237MOL0     H31245   1.383   6.143   3.247  1.1628  0.5957 -0.3734
  237MOL0     H31246   1.140   6.057   3.350  2.7797 -0.7607  1.6566
  237MOL0     H31247   0.926   6.080   3.401  2.1074  1.2070 -4.1690
  237MOL0     H31248   0.551   5.980   3.529  0.6681  0.4184  1.8024
  237MOL0     H31249   0.312   5.986   3.586 -1.3396  1.9772  3.3261
  237MOL0     H31250   0.080   6.353   3.632 -0.4962  1.2539  0.5081
  237MOL0     H31251  -0.045   6.223   3.642 -0.0432 -2.0201 -2.3939
  237MOL0     H31252   0.024   6.294   3.362  0.1706  1.0425  0.1748
  237MOL0     H31253  -0.080   6.390   3.472  0.8736  0.2436  0.6139
  237MOL0     H31254  -0.213   6.199   3.538 -2.1258  0.8582 -1.4487
  237MOL0     H31255  -0.118   6.083   3.443  3.8303  0.9025  1.8024
  237MOL0     H31256  -0.283   6.309   3.323  0.2978  0.6114 -1.3283
  237MOL0     H31257  -0.173   6.205   3.236  1.3724  1.4514  1.5168
  237MOL0     H31258  -0.317   6.013   3.282 -0.3784 -0.4924  2.4536
  237MOL0     H31259  -0.402   6.147   3.214  3.3477  1.3006 -1.8193
  237MOL0     H31260  -0.377   6.058   3.513  2.9989  2.6396 -1.3581
  237MOL0     H31261  -0.517   6.025   3.399  1.1543 -1.1751  1.8661
  237MOL0     H31262  -0.447   6.292   3.533 -1.7113  2.3560 -1.8831
  237MOL0     H31263  -0.539   6.280   3.387  0.0703 -0.2983  0.3515
  237MOL0     H31264  -0.641   6.137   3.654 -2.8370  1.2208  1.2476
  237MOL0     H31265  -0.700   6.150   3.482 -0.0131 -0.1224  0.8020
  237MOL0     H31266   0.276   6.392   3.499  0.3167 -0.3600 -1.0277
  237MOL0     H31267   0.516   6.406   3.451  0.7635  0.5098 -0.9763
  237MOL0     H31268   0.978   6.482   3.555 -0.7600 -1.1598  2.4095
  237MOL0     H31269   1.212   6.455   3.516 -2.2797  0.4300  1.5632
  237MOL0     H31270   2.479   6.733   4.523 -0.2837  2.5407 -1.3692
  237MOL0     H31271   2.716   6.816   4.613 -0.7302 -1.4130  0.2824
  237MOL0     H31272   3.127   6.988   4.490  2.7549  3.7275  0.7641
  237MOL0     H31273   3.317   7.092   4.551  1.4799 -0.9228 -1.0308
  237MOL0     H31274   3.634   7.146   4.717  3.6155 -4.2341 -1.6949
  237MOL0     H31275   3.472   7.180   4.655 -0.1876  0.0180  4.1401
  237MOL0     H31276   3.709   7.069   4.505 -0.3195 -0.0303  0.2257
  237MOL0     H31277   3.554   7.087   4.431  1.6389  0.5931 -1.9636
  237MOL0     H31278   3.708   7.321   4.560 -2.5433  0.9995  1.1260
  237MOL0     H31279   3.558   7.332   4.460  0.9236  1.9408  0.3955
  237MOL0     H31280   3.845   7.255   4.377 -0.6603 -0.7026 -0.0120
  237MOL0     H31281   3.693   7.250   4.276 -2.1405  3.3076 -1.3979
  237MOL0     H31282   3.814   7.671   4.319 -1.4954  0.1029 -1.3047
  237MOL0     H31283   3.484   6.712   4.685 -0.5853 -1.1856 -0.3996
  237MOL0     H31284   3.275   6.607   4.559 -0.5776  0.2673 -4.8027
  238MOL0     O31285   4.516   3.713   3.079 -0.5186 -0.3622  0.1662
  238MOL0     C31286   4.430   3.633   3.090  0.2787 -0.5161  0.4270
  238MOL0     O31287   4.453   3.496   3.077 -0.0401 -0.1726 -0.2843
  238MOL0     C31288   4.574   3.440   3.052  0.2008 -0.0327 -0.3814
  238MOL0     C31289   4.600   3.332   3.127  0.7627 -0.5420 -0.0672
  238MOL0     C31290   4.707   3.248   3.109  0.1871 -0.5237  0.9471
  238MOL0     C31291   4.791   3.276   3.003 -0.9022  0.2416  0.6986
  238MOL0     O31292   4.897   3.185   2.987  0.0261 -0.0541  0.3663
  238MOL0     C31293   5.010   3.218   2.908 -0.1093 -0.4121  0.0460
  238MOL0     C31294   5.120   3.125   2.924  0.2716  0.5427 -0.9969
  238MOL0     C31295   5.254   3.166   2.858 -0.5363  0.3950  0.9335
  238MOL0     C31296   5.374   3.058   2.881  0.3095 -0.1425 -0.1049
  238MOL0     C31297   5.518   3.110   2.843 -0.1947  0.5733  0.0576
  238MOL0     C31298   5.618   2.998   2.838 -0.2710  0.3726 -0.3008
  238MOL0     C31299   5.752   3.024   2.755  0.2278 -0.7073 -0.7287
  238MOL0     C31300   5.838   2.896   2.730  0.7124  0.0298  0.1476
  238MOL0     N31301   5.960   2.944   2.675 -0.5469  0.0617  0.1548
  238MOL0     C31302   5.971   2.992   2.543  0.0520  0.3003  0.0352
  238MOL0     C31303   6.106   3.005   2.531  0.1253  0.0228  0.3462
  238MOL0     C31304   6.177   3.059   2.409 -0.5945  1.2534 -0.6462
  238MOL0     C31305   6.139   3.204   2.383 -0.1128  0.5735 -0.7784
  238MOL0     C31306   6.147   3.278   2.522 -0.6926 -1.2038 -0.6470
  238MOL0     C31307   6.103   3.426   2.493  0.1262 -0.3242 -0.2929
  238MOL0     O31308   5.964   3.450   2.457  0.7602  0.0897 -0.6132
  238MOL0     C31309   5.859   3.414   2.537  0.1583 -0.1407  0.2902
  238MOL0     C31310   5.875   3.385   2.678  0.3433  0.7488 -0.1418
  238MOL0     C31311   5.753   3.394   2.752  1.4549  0.9460 -0.1215
  238MOL0     C31312   5.625   3.415   2.695  1.2275  0.0588  0.3136
  238MOL0     C31313   5.506   3.446   2.769  0.2876  0.1277 -0.2763
  238MOL0     O31314   5.390   3.471   2.689 -0.9680  0.7659 -0.0434
  238MOL0     C31315   5.294   3.561   2.733  0.7887  0.2481 -0.7286
  238MOL0     C31316   5.164   3.537   2.692 -0.9319  0.2437  1.3455
  238MOL0     C31317   5.064   3.628   2.721 -0.0143 -0.0001  0.6094
  238MOL0     C31318   5.093   3.749   2.793  0.6563  0.6039  1.0101
  238MOL0     O31319   4.989   3.839   2.803  0.2753 -0.1697  0.7961
  238MOL0     C31320   4.952   3.863   2.935  0.2071 -0.3561  0.2130
  238MOL0     C31321   4.822   3.950   2.954 -0.3313  0.0766 -0.3287
  238MOL0     C31322   4.796   4.059   2.853  0.2361 -0.6488  0.5589
  238MOL0     C31323   4.701   4.168   2.907  0.3283  0.6504  0.6484
  238MOL0     C31324   4.689   4.282   2.812 -0.3729 -0.6123 -0.4468
  238MOL0     C31325   4.643   4.416   2.866 -0.6759 -0.4762 -1.1566
  238MOL0     C31326   4.591   4.508   2.749 -0.7856 -0.3484  1.0708
  238MOL0     C31327   4.694   4.578   2.677 -0.6203 -0.8576  0.1302
  238MOL0    Cl31328   4.632   4.671   2.532 -0.2324 -0.0965  0.1658
  238MOL0     C31329   5.218   3.766   2.844  0.6224 -0.1368  0.5173
  238MOL0     C31330   5.320   3.672   2.814 -0.2734  0.3762 -0.6390
  238MOL0     O31331   5.508   3.446   2.897  0.0508  0.0742  0.7548
  238MOL0     C31332   5.619   3.407   2.554  1.4871 -0.3746 -1.1292
  238MOL0     C31333   5.736   3.420   2.484 -1.3766  0.5617  0.1865
  238MOL0     N31334   6.171   2.978   2.652 -0.2487 -0.2376 -0.8993
  238MOL0     N31335   6.083   2.935   2.741 -0.0969  0.3450  0.3422
  238MOL0     C31336   4.760   3.387   2.919 -0.0257  0.1028  0.1939
  238MOL0     C31337   4.649   3.464   2.936 -0.5711  0.6542  0.6131
  238MOL0     C31338   4.288   3.667   3.128 -0.1321  0.2343  0.3973
  238MOL0     C31339   4.174   3.579   3.116 -1.0727  0.3388 -0.2223
  238MOL0     C31340   4.043   3.620   3.139  1.0313 -0.9453  0.3011
  238MOL0     C31341   4.022   3.756   3.155 -0.2610  0.7212  0.5390
  238MOL0     O31342   3.888   3.787   3.173  0.1948  0.3923  0.1062
  238MOL0     C31343   3.852   3.922   3.205 -0.1819 -1.1157  0.1308
  238MOL0     C31344   3.704   3.928   3.234 -0.2802 -0.2144 -0.0761
  238MOL0     C31345   3.670   3.863   3.369 -0.4509  0.3539  0.2753
  238MOL0     C31346   3.754   3.896   3.489 -0.2082  0.0326 -0.6323
  238MOL0     C31347   3.708   4.031   3.519  0.6713  0.0047  0.0239
  238MOL0     C31348   3.666   4.138   3.553  1.0001 -0.0692  0.7137
  238MOL0     C31349   4.132   3.843   3.155 -0.3109  0.6840  0.0617
  238MOL0     C31350   4.259   3.794   3.151 -0.6416  0.8329 -1.2039
  238MOL0     H31351   4.534   3.310   3.210 -1.2265 -0.7465 -1.6485
  238MOL0     H31352   4.729   3.165   3.175  1.6083  0.5558  1.8996
  238MOL0     H31353   5.042   3.314   2.949 -3.2732  0.7972 -0.0054
  238MOL0     H31354   4.986   3.229   2.802 -0.5524 -1.4321  0.0294
  238MOL0     H31355   5.078   3.029   2.891  0.1838 -0.0896  0.8608
  238MOL0     H31356   5.145   3.119   3.030  0.1910 -1.8062 -1.0523
  238MOL0     H31357   5.282   3.266   2.890  1.3608 -0.8636  3.5789
  238MOL0     H31358   5.234   3.161   2.750  1.6829 -0.0241  0.4964
  238MOL0     H31359   5.376   3.041   2.989 -2.8325 -1.6329 -0.1622
  238MOL0     H31360   5.367   2.964   2.825  0.5534 -0.6540  0.7094
  238MOL0     H31361   5.568   3.173   2.917  0.3778 -0.5154  0.6107
  238MOL0     H31362   5.518   3.164   2.748 -0.2108 -1.1570 -0.9661
  238MOL0     H31363   5.579   2.923   2.769  1.1086 -0.1507 -0.5465
  238MOL0     H31364   5.626   2.944   2.932 -2.2711 -1.6827 -1.2128
  238MOL0     H31365   5.726   3.081   2.665  1.4479 -1.7652 -1.8071
  238MOL0     H31366   5.803   3.094   2.822 -0.0704  0.0723 -1.3080
  238MOL0     H31367   5.782   2.825   2.668 -0.8449  1.2494  0.0776
  238MOL0     H31368   5.849   2.841   2.824 -2.1501  0.6947  0.9881
  238MOL0     H31369   5.893   3.004   2.469 -2.5428  0.4752  2.6079
  238MOL0     H31370   6.148   3.003   2.320  0.4767 -0.9677  0.3344
  238MOL0     H31371   6.286   3.050   2.419  0.3471  6.5241 -2.6605
  238MOL0     H31372   6.034   3.207   2.353 -0.3141  0.5250 -0.0937
  238MOL0     H31373   6.211   3.239   2.308 -0.1053 -1.8778 -2.0152
  238MOL0     H31374   6.083   3.239   2.602 -2.5033  2.5242 -0.0597
  238MOL0     H31375   6.248   3.272   2.562 -1.5648  4.8313  3.8095
  238MOL0     H31376   6.167   3.468   2.415  1.5447 -3.0430 -0.7294
  238MOL0     H31377   6.131   3.484   2.582  2.8166 -0.1957 -1.1329
  238MOL0     H31378   5.975   3.384   2.718  2.3712  1.4661 -4.5450
  238MOL0     H31379   5.752   3.401   2.860  1.8173  0.2908 -0.0681
  238MOL0     H31380   5.149   3.451   2.628 -1.1683  0.2120  1.4421
  238MOL0     H31381   4.963   3.600   2.695  0.2753  3.0045 -5.1056
  238MOL0     H31382   5.031   3.924   2.979  0.7037  1.7996 -3.2795
  238MOL0     H31383   4.949   3.771   2.995 -4.3456 -0.2060  0.6156
  238MOL0     H31384   4.835   3.992   3.054 -0.6083 -0.1379 -0.2043
  238MOL0     H31385   4.736   3.882   2.955 -1.1628  1.1055 -0.0362
  238MOL0     H31386   4.746   4.017   2.765 -2.1455  1.4785  0.7824
  238MOL0     H31387   4.885   4.105   2.807  1.3416 -0.2218  2.9715
  238MOL0     H31388   4.598   4.136   2.926 -0.3137  2.0976 -0.2279
  238MOL0     H31389   4.736   4.209   3.002  1.4799  1.7838 -0.2333
  238MOL0     H31390   4.631   4.256   2.723  0.6457 -1.9739 -0.7373
  238MOL0     H31391   4.783   4.298   2.758 -1.0582 -1.2339 -1.8705
  238MOL0     H31392   4.726   4.467   2.915  1.3462 -3.0928 -1.6095
  238MOL0     H31393   4.564   4.397   2.938 -0.3131 -2.2071 -1.1554
  238MOL0     H31394   4.524   4.464   2.675 -1.8780  1.7812  0.7180
  238MOL0     H31395   4.531   4.583   2.800 -0.9611 -0.2332  0.7003
  238MOL0     H31396   4.775   4.514   2.640 -2.2948 -4.0517  1.5018
  238MOL0     H31397   4.733   4.653   2.747  1.0550 -0.9258 -0.6656
  238MOL0     H31398   5.232   3.851   2.910 -0.3687  1.8138 -1.6230
  238MOL0     H31399   5.422   3.688   2.848 -1.1440  2.3957  1.2864
  238MOL0     H31400   5.521   3.398   2.509  0.8579 -2.5837  0.5018
  238MOL0     H31401   5.736   3.433   2.376  0.2943 -1.6625 -0.1514
  238MOL0     H31402   4.829   3.420   2.842 -2.2151 -1.2170 -2.5041
  238MOL0     H31403   4.612   3.538   2.866 -0.6711  2.1968  2.2350
  238MOL0     H31404   4.192   3.480   3.076 -1.7963  0.4789 -0.9243
  238MOL0     H31405   3.966   3.545   3.119 -0.2491  0.2561  0.5588
  238MOL0     H31406   3.885   3.983   3.120  0.2138 -0.3232  0.8501
  238MOL0     H31407   3.914   3.953   3.289 -0.6092  0.8733 -0.2301
  238MOL0     H31408   3.684   4.036   3.234  0.2679 -0.1055  0.8842
  238MOL0     H31409   3.647   3.888   3.149  3.0914 -0.1464 -2.6185
  238MOL0     H31410   3.666   3.757   3.342  0.7180  0.7385 -1.6176
  238MOL0     H31411   3.564   3.889   3.381 -0.6100  0.8847 -1.7847
  238MOL0     H31412   3.712   3.849   3.578 -1.2797 -0.4553 -1.3704
  238MOL0     H31413   3.863   3.885   3.488 -0.1131  0.8578 -0.4373
  238MOL0     H31414   3.653   4.238   3.588  0.4807  0.6433 -1.3347
  238MOL0     H31415   4.122   3.951   3.159  0.5763  0.7311  2.5465
  238MOL0     H31416   4.341   3.865   3.151 -2.0341  2.6122  1.5305
  239MOL0     O31417   3.621   3.859   8.448  0.2206 -0.8352  0.7427
  239MOL0     C31418   3.531   3.779   8.469  0.7780 -0.4805 -0.4265
  239MOL0     O31419   3.420   3.789   8.554  0.1425  0.1827 -0.0505
  239MOL0     C31420   3.398   3.891   8.641  0.1411 -0.9082 -0.9863
  239MOL0     C31421   3.488   4.002   8.659 -0.1410  0.2901 -0.0147
  239MOL0     C31422   3.458   4.105   8.746 -0.0581  0.7919  0.0487
  239MOL0     C31423   3.330   4.101   8.817  0.0894 -0.6632 -0.1817
  239MOL0     O31424   3.320   4.169   8.938 -0.2268 -0.5249 -0.3819
  239MOL0     C31425   3.282   4.109   9.067  0.2673 -0.0135 -0.0004
  239MOL0     C31426   3.396   4.048   9.142 -0.0319  1.0951  0.6341
  239MOL0     C31427   3.487   4.151   9.228  0.7712 -0.0356 -0.5930
  239MOL0     C31428   3.622   4.089   9.280  1.1339  0.0153  0.6817
  239MOL0     C31429   3.724   4.074   9.161  0.3702  0.3400 -0.0232
  239MOL0     C31430   3.873   4.079   9.225 -0.6953  0.0077 -0.1961
  239MOL0     C31431   3.970   4.157   9.132  0.7064  0.0163 -0.8556
  239MOL0     C31432   3.957   4.304   9.154 -0.1854 -0.6941  1.1129
  239MOL0     N31433   4.062   4.388   9.091 -0.6284 -0.7406  0.2189
  239MOL0     C31434   4.190   4.345   9.073 -0.6850  0.1640 -0.1354
  239MOL0     C31435   4.230   4.408   8.963 -0.6958 -1.1913 -1.0287
  239MOL0     C31436   4.349   4.396   8.883  0.1940  0.3247  0.1349
  239MOL0     C31437   4.333   4.347   8.741  1.0519 -0.1592 -0.3896
  239MOL0     C31438   4.478   4.340   8.683  0.3015  0.2059  0.6910
  239MOL0     C31439   4.515   4.454   8.581 -0.6666  0.6371 -0.2166
  239MOL0     O31440   4.623   4.406   8.506  0.3142 -0.3872  0.1410
  239MOL0     C31441   4.628   4.414   8.371 -0.0030  0.4880  0.2328
  239MOL0     C31442   4.575   4.521   8.293  0.4665  0.3076 -0.5133
  239MOL0     C31443   4.579   4.509   8.153 -0.9278 -0.0909  0.4362
  239MOL0     C31444   4.629   4.396   8.098 -0.6341 -1.0072  0.6386
  239MOL0     C31445   4.611   4.380   7.943  0.4744  0.0930 -0.7546
  239MOL0     O31446   4.630   4.257   7.889  0.0227 -0.9109  0.3823
  239MOL0     C31447   4.631   4.234   7.748 -0.7929 -0.3023  0.5313
  239MOL0     C31448   4.733   4.151   7.687 -0.0794 -0.4598  0.4908
  239MOL0     C31449   4.726   4.104   7.554  0.2376 -0.2453  0.8727
  239MOL0     C31450   4.615   4.153   7.476 -0.4292 -0.3523 -0.7739
  239MOL0     O31451   4.597   4.132   7.348 -0.0009 -0.3596  0.5640
  239MOL0     C31452   4.715   4.109   7.262  0.2474  0.2312 -0.2132
  239MOL0     C31453   4.715   4.203   7.143  0.3285 -0.1586 -0.4093
  239MOL0     C31454   4.724   4.353   7.188 -0.7123  0.0185  1.0628
  239MOL0     C31455   4.688   4.460   7.077 -0.4305  0.3302 -0.5879
  239MOL0     C31456   4.796   4.460   6.982  0.0401  0.5398  0.1381
  239MOL0     C31457   4.737   4.542   6.861 -0.5686  0.3636  0.2974
  239MOL0     C31458   4.699   4.697   6.886 -0.4028 -0.2770 -0.0111
  239MOL0     C31459   4.655   4.769   6.766 -0.3000 -1.1590  0.1481
  239MOL0    Cl31460   4.496   4.700   6.736  0.1395 -0.1182 -0.0956
  239MOL0     C31461   4.512   4.226   7.539 -0.3467 -1.1072  0.3662
  239MOL0     C31462   4.525   4.277   7.668 -0.6381  0.3979  0.1579
  239MOL0     O31463   4.584   4.482   7.876  0.0999  0.5391 -0.4991
  239MOL0     C31464   4.691   4.302   8.174 -0.1928 -0.5296 -0.7792
  239MOL0     C31465   4.681   4.306   8.314 -0.3207  0.3553  0.4962
  239MOL0     N31466   4.130   4.494   8.925 -0.6462 -1.0760 -0.4176
  239MOL0     N31467   4.034   4.476   8.995  0.4451  0.0056 -0.1549
  239MOL0     C31468   3.239   4.001   8.786  0.7307  0.7667  0.6961
  239MOL0     C31469   3.273   3.894   8.700  0.2740  0.4354  0.2540
  239MOL0     C31470   3.535   3.655   8.375  0.2126 -0.4029  0.0631
  239MOL0     C31471   3.634   3.640   8.272  0.8903 -0.6359  0.0225
  239MOL0     C31472   3.630   3.527   8.189 -0.6153 -0.0738  1.0845
  239MOL0     C31473   3.524   3.430   8.216  0.2127 -0.1226 -0.0337
  239MOL0     O31474   3.527   3.299   8.151  0.0987  0.0773 -0.4821
  239MOL0     C31475   3.620   3.272   8.041  0.2411  0.4077  0.4498
  239MOL0     C31476   3.615   3.124   7.981 -0.4853  0.0462 -0.0412
  239MOL0     C31477   3.473   3.084   7.934  0.9827 -0.0823  0.0049
  239MOL0     C31478   3.481   2.951   7.851  0.4800  0.2645 -0.0386
  239MOL0     C31479   3.349   2.918   7.805 -0.7621  0.1720 -0.3379
  239MOL0     C31480   3.242   2.895   7.785  0.7779  0.0282  0.1201
  239MOL0     C31481   3.426   3.452   8.312 -1.1458 -0.2395 -0.1869
  239MOL0     C31482   3.440   3.559   8.397 -0.0036 -0.5439  0.8657
  239MOL0     H31483   3.585   4.004   8.609  0.8235 -2.6906  1.5287
  239MOL0     H31484   3.529   4.186   8.759  2.0428 -0.5724 -2.0563
  239MOL0     H31485   3.215   4.024   9.046  1.3128 -0.5868 -1.1455
  239MOL0     H31486   3.228   4.187   9.121 -1.9742 -0.2645 -1.7085
  239MOL0     H31487   3.464   3.998   9.072 -0.1091  0.3875  1.0581
  239MOL0     H31488   3.351   3.969   9.202 -3.2658  1.4063 -1.1413
  239MOL0     H31489   3.426   4.187   9.312  2.0998 -1.3388  0.9961
  239MOL0     H31490   3.509   4.241   9.170 -1.6073  2.1852  1.6883
  239MOL0     H31491   3.656   4.157   9.359  0.2130  2.5160 -0.9690
  239MOL0     H31492   3.602   3.991   9.324  3.8680 -0.5857  0.7880
  239MOL0     H31493   3.717   4.156   9.089 -1.6456 -1.4343 -2.0203
  239MOL0     H31494   3.707   3.983   9.102 -3.5517  2.1855 -2.1229
  239MOL0     H31495   3.906   3.974   9.228 -2.1210 -0.5477 -2.2212
  239MOL0     H31496   3.872   4.109   9.330 -1.8174  1.4321 -0.5893
  239MOL0     H31497   4.068   4.116   9.157  0.5404  0.8883  1.4987
  239MOL0     H31498   3.947   4.122   9.031  0.4664 -0.1983 -0.7260
  239MOL0     H31499   3.956   4.314   9.263  0.6324 -1.3021  1.1828
  239MOL0     H31500   3.861   4.340   9.117 -0.3708 -3.5271 -1.4796
  239MOL0     H31501   4.240   4.283   9.148  1.4886  0.6057 -1.1275
  239MOL0     H31502   4.424   4.329   8.927  0.6270  1.3783  1.0456
  239MOL0     H31503   4.400   4.492   8.874 -2.9303  1.9510 -1.5697
  239MOL0     H31504   4.269   4.406   8.675  1.0974  0.8290  0.4195
  239MOL0     H31505   4.294   4.246   8.728 -0.0707  0.0944  0.7567
  239MOL0     H31506   4.559   4.335   8.756 -1.7566 -0.4420  3.0836
  239MOL0     H31507   4.475   4.248   8.625 -1.8755  0.2994  0.5669
  239MOL0     H31508   4.550   4.538   8.641  0.9489 -0.7291  0.8285
  239MOL0     H31509   4.431   4.483   8.516 -0.3744  6.0197  1.3053
  239MOL0     H31510   4.543   4.609   8.346 -3.2239 -0.4872 -1.1495
  239MOL0     H31511   4.544   4.590   8.090 -1.4302 -0.3956  0.3147
  239MOL0     H31512   4.815   4.113   7.748  0.9068  1.1619  0.2378
  239MOL0     H31513   4.798   4.033   7.514  1.4657  1.0930  0.6120
  239MOL0     H31514   4.693   4.011   7.218 -2.6593  0.5334  0.3672
  239MOL0     H31515   4.815   4.107   7.305 -0.9072 -0.0074  2.6643
  239MOL0     H31516   4.619   4.185   7.094  0.9458 -0.2316 -1.6386
  239MOL0     H31517   4.790   4.181   7.067 -1.5105 -2.7992 -1.6472
  239MOL0     H31518   4.829   4.369   7.214  0.3325  0.0677 -2.6140
  239MOL0     H31519   4.651   4.367   7.268 -3.0006  1.0695 -1.0842
  239MOL0     H31520   4.598   4.406   7.045 -1.7177 -0.4044  3.6522
  239MOL0     H31521   4.668   4.564   7.105  0.9834  0.5501 -0.3552
  239MOL0     H31522   4.825   4.360   6.949 -0.7178  0.8919 -1.7867
  239MOL0     H31523   4.890   4.507   7.012  1.6876 -1.4157 -1.6262
  239MOL0     H31524   4.646   4.491   6.828 -0.9403  1.2258 -0.0717
  239MOL0     H31525   4.811   4.543   6.780  2.2387 -1.8917  2.6372
  239MOL0     H31526   4.621   4.712   6.961  0.9882 -0.9519  1.6212
  239MOL0     H31527   4.785   4.753   6.922 -1.3573  0.2054  1.6197
  239MOL0     H31528   4.719   4.757   6.678  0.0766  1.9980 -0.1019
  239MOL0     H31529   4.654   4.876   6.788 -0.6661 -0.4383 -2.9979
  239MOL0     H31530   4.422   4.255   7.487  0.9105  2.0592 -0.2788
  239MOL0     H31531   4.445   4.330   7.719 -1.7813 -1.4867  0.4115
  239MOL0     H31532   4.744   4.224   8.120 -0.0958 -2.5974  2.0917
  239MOL0     H31533   4.736   4.234   8.374  0.8238  0.1743 -0.7299
  239MOL0     H31534   3.143   4.015   8.835  0.3704 -1.8657  0.8964
  239MOL0     H31535   3.207   3.808   8.692  1.0103 -0.2254  1.1324
  239MOL0     H31536   3.696   3.725   8.246 -2.1022  1.2896 -1.3047
  239MOL0     H31537   3.716   3.504   8.126 -1.7367 -3.2064  0.5156
  239MOL0     H31538   3.723   3.288   8.071  0.4159 -1.6572  1.0991
  239MOL0     H31539   3.591   3.336   7.957  2.6068 -1.8242 -2.2669
  239MOL0     H31540   3.692   3.106   7.906 -0.2634  3.1181 -0.7145
  239MOL0     H31541   3.638   3.068   8.072  1.7492  0.7899 -0.0944
  239MOL0     H31542   3.432   3.169   7.877  2.9940  0.8550 -0.1322
  239MOL0     H31543   3.408   3.069   8.020 -3.7262  1.2610 -2.9448
  239MOL0     H31544   3.550   2.960   7.767  1.9716  1.6447  1.2645
  239MOL0     H31545   3.510   2.871   7.920 -2.3791 -1.1579 -0.3441
  239MOL0     H31546   3.138   2.870   7.781  0.5292  1.1874 -1.0910
  239MOL0     H31547   3.353   3.375   8.333  1.6393 -1.9583  4.4816
  239MOL0     H31548   3.377   3.557   8.485  2.8882 -0.9063  3.0637
  240MOL0     O31549   1.984   7.567   5.664  0.2175  0.5456 -0.3803
  240MOL0     C31550   1.940   7.625   5.762 -0.5923 -0.7351 -0.1492
  240MOL0     O31551   1.968   7.763   5.783  0.7715  0.5109  0.3180
  240MOL0     C31552   2.039   7.838   5.701 -1.4345 -0.5853  0.7239
  240MOL0     C31553   1.983   7.956   5.660 -0.2013  0.8492 -0.1827
  240MOL0     C31554   2.053   8.046   5.581  1.1648  0.2862 -0.6310
  240MOL0     C31555   2.186   8.007   5.533  0.0801  0.1088  0.1435
  240MOL0     O31556   2.221   8.105   5.436 -0.2990  0.1553  0.0766
  240MOL0     C31557   2.322   8.065   5.335  0.1277  0.0335 -0.1094
  240MOL0     C31558   2.298   8.161   5.226 -0.6312  0.1200 -0.5181
  240MOL0     C31559   2.367   8.118   5.098  1.3273  0.5586  0.2539
  240MOL0     C31560   2.343   8.223   4.986  0.0140 -0.8404  0.5378
  240MOL0     C31561   2.433   8.179   4.868  0.2405 -0.4471  0.1021
  240MOL0     C31562   2.392   8.256   4.740 -0.1367 -0.2416  0.3271
  240MOL0     C31563   2.469   8.222   4.617  0.0987 -0.3092  0.5541
  240MOL0     C31564   2.415   8.103   4.540  0.1685 -0.5468 -0.0069
  240MOL0     N31565   2.503   8.084   4.424 -0.4319 -0.3870 -0.3568
  240MOL0     C31566   2.460   8.113   4.302  0.2471 -0.7122 -0.1149
  240MOL0     C31567   2.550   8.078   4.219 -0.9015  0.0101 -0.4506
  240MOL0     C31568   2.556   8.088   4.070  0.3856 -0.2366 -0.3855
  240MOL0     C31569   2.509   7.971   3.986 -0.9353  0.1047 -0.8052
  240MOL0     C31570   2.580   7.840   4.030 -0.0970 -0.5606  0.1433
  240MOL0     C31571   2.726   7.845   3.992  0.7481 -0.6305  1.2658
  240MOL0     O31572   2.720   7.869   3.854  0.6107 -0.3901  0.6555
  240MOL0     C31573   2.814   7.801   3.787 -0.7586  1.1035  0.1436
  240MOL0     C31574   2.935   7.858   3.779 -0.1374  0.7046 -0.0899
  240MOL0     C31575   3.038   7.788   3.710  0.0155 -1.1901  0.2429
  240MOL0     C31576   3.012   7.659   3.652  0.8370  0.6187 -0.4904
  240MOL0     C31577   3.107   7.573   3.573 -0.8106  0.1526 -0.3980
  240MOL0     O31578   3.058   7.466   3.513  0.1977  0.1772  0.6321
  240MOL0     C31579   3.136   7.361   3.482 -0.8865  0.1208  0.4755
  240MOL0     C31580   3.271   7.355   3.529 -0.5608  0.3269  0.2236
  240MOL0     C31581   3.342   7.229   3.507  0.8800  0.4310 -0.0789
  240MOL0     C31582   3.286   7.122   3.429 -0.0410 -0.1978 -0.4950
  240MOL0     O31583   3.347   7.006   3.431 -0.3706  0.2048  0.0957
  240MOL0     C31584   3.284   6.922   3.531  0.7335 -0.2488 -0.1402
  240MOL0     C31585   3.350   6.785   3.534 -0.3463  0.3031  0.4919
  240MOL0     C31586   3.322   6.693   3.421  0.2505 -0.1677  1.0841
  240MOL0     C31587   3.182   6.630   3.454  0.1056  0.7272  1.7964
  240MOL0     C31588   3.108   6.533   3.360  0.9031 -0.8191  0.3942
  240MOL0     C31589   3.104   6.564   3.205 -0.8383  0.0285 -0.4699
  240MOL0     C31590   3.034   6.701   3.163 -0.8184 -0.0126  0.0210
  240MOL0     C31591   3.017   6.692   3.007 -0.9575  0.5871 -0.4851
  240MOL0    Cl31592   2.909   6.563   2.955 -0.1113 -0.2094  0.0277
  240MOL0     C31593   3.157   7.135   3.376 -0.4181  0.2866 -0.4183
  240MOL0     C31594   3.085   7.258   3.399 -0.3591 -0.1469  0.8480
  240MOL0     O31595   3.220   7.617   3.561 -0.3634  0.5098 -0.2519
  240MOL0     C31596   2.887   7.603   3.679  0.3762  0.4221 -0.2874
  240MOL0     C31597   2.789   7.668   3.745 -1.3651  0.4467  0.1152
  240MOL0     N31598   2.659   8.030   4.289  0.3566 -0.0488 -0.9738
  240MOL0     N31599   2.626   8.027   4.414  0.8433 -0.1796 -0.0094
  240MOL0     C31600   2.249   7.887   5.573  0.0310 -0.1180 -0.6733
  240MOL0     C31601   2.172   7.808   5.660  0.1400 -0.0355 -0.1259
  240MOL0     C31602   1.838   7.557   5.848  0.6348  0.6117  0.4334
  240MOL0     C31603   1.776   7.621   5.965 -0.4046 -0.1925  0.1752
  240MOL0     C31604   1.692   7.557   6.058  0.2312 -0.3329  0.3242
  240MOL0     C31605   1.680   7.417   6.047 -0.0880  0.5665  0.0171
  240MOL0     O31606   1.596   7.364   6.147 -0.0085 -0.1339 -0.6307
  240MOL0     C31607   1.537   7.237   6.119 -0.0298 -1.0183 -1.0786
  240MOL0     C31608   1.581   7.130   6.227  0.3546  0.0017 -0.2391
  240MOL0     C31609   1.569   7.194   6.366  0.1161 -0.3984 -1.1830
  240MOL0     C31610   1.625   7.106   6.476  0.3125 -0.5229  0.5903
  240MOL0     C31611   1.535   6.982   6.473 -0.9808 -0.0607 -0.4208
  240MOL0     C31612   1.488   6.866   6.470 -0.8458 -0.5025 -0.6768
  240MOL0     C31613   1.740   7.352   5.941  1.0088 -0.2917 -0.1853
  240MOL0     C31614   1.817   7.418   5.839  1.2965  0.3760  0.8579
  240MOL0     H31615   1.880   7.981   5.684 -0.5412  0.8376 -1.5122
  240MOL0     H31616   2.008   8.143   5.561 -1.3698 -0.9887 -1.6647
  240MOL0     H31617   2.304   7.961   5.305 -1.2839 -0.2415  1.5394
  240MOL0     H31618   2.425   8.077   5.369  0.9500 -2.1233 -1.5934
  240MOL0     H31619   2.333   8.262   5.250  2.0809 -0.2951 -2.3293
  240MOL0     H31620   2.190   8.168   5.217 -0.8941 -2.3472  0.1682
  240MOL0     H31621   2.332   8.020   5.065 -1.8688  1.8204 -0.4317
  240MOL0     H31622   2.475   8.111   5.113  1.4432  1.4717 -0.1415
  240MOL0     H31623   2.237   8.220   4.961  0.0059  3.9094 -1.0674
  240MOL0     H31624   2.360   8.325   5.022 -1.6296 -1.2631  2.7066
  240MOL0     H31625   2.422   8.073   4.842  1.6464 -0.3301 -1.0762
  240MOL0     H31626   2.538   8.204   4.879 -0.3557  1.6572  1.7070
  240MOL0     H31627   2.393   8.363   4.765  0.3662 -0.1001 -0.2703
  240MOL0     H31628   2.292   8.233   4.704 -1.1286  4.2924 -0.3930
  240MOL0     H31629   2.459   8.307   4.549 -0.3391  0.2977  1.3758
  240MOL0     H31630   2.573   8.207   4.649  0.4736 -3.1230 -1.5653
  240MOL0     H31631   2.316   8.132   4.504  0.5845  0.7388 -0.1862
  240MOL0     H31632   2.413   8.018   4.608  0.9084 -0.0974  0.5884
  240MOL0     H31633   2.364   8.158   4.276  0.9611  0.8839 -0.1307
  240MOL0     H31634   2.653   8.121   4.030 -0.5273  1.3576 -1.4112
  240MOL0     H31635   2.488   8.170   4.044  1.9043  1.3174  0.3005
  240MOL0     H31636   2.530   7.999   3.882  0.6335 -0.2889 -0.6189
  240MOL0     H31637   2.403   7.953   4.009 -0.4905 -1.1570  0.4331
  240MOL0     H31638   2.574   7.826   4.138  4.2579 -1.9928  0.4025
  240MOL0     H31639   2.525   7.754   3.992 -0.3642  0.3117 -1.5238
  240MOL0     H31640   2.772   7.748   4.014 -1.8228 -1.9822  1.1091
  240MOL0     H31641   2.779   7.922   4.048 -0.7027  1.5649 -0.2079
  240MOL0     H31642   2.942   7.955   3.827 -2.1805  0.1305  1.5050
  240MOL0     H31643   3.132   7.837   3.688 -0.2380  1.5723  4.2414
  240MOL0     H31644   3.314   7.419   3.605 -0.0394 -2.0133  2.0180
  240MOL0     H31645   3.440   7.212   3.549 -0.6422 -2.5805  2.6741
  240MOL0     H31646   3.180   6.909   3.501  0.6721  0.1254 -0.0994
  240MOL0     H31647   3.272   6.959   3.633 -0.0106  1.3122 -0.7521
  240MOL0     H31648   3.340   6.736   3.632  2.2666  1.7207  1.5643
  240MOL0     H31649   3.455   6.813   3.538 -0.9735  2.8430  0.7847
  240MOL0     H31650   3.385   6.605   3.408 -1.2602 -0.8106 -3.7986
  240MOL0     H31651   3.323   6.757   3.333  1.5870  0.0611  1.2501
  240MOL0     H31652   3.194   6.568   3.543 -1.0373 -2.5314 -0.1296
  240MOL0     H31653   3.112   6.713   3.461  0.0491  0.7740  0.8277
  240MOL0     H31654   3.002   6.541   3.384  0.8078  0.5937 -0.4088
  240MOL0     H31655   3.141   6.429   3.364  0.4877 -1.1323 -2.2879
  240MOL0     H31656   3.056   6.476   3.162  1.0389 -1.3650  0.1993
  240MOL0     H31657   3.205   6.564   3.162 -0.8879 -0.8970 -0.5979
  240MOL0     H31658   2.947   6.714   3.227 -0.4251 -1.2477  0.8362
  240MOL0     H31659   3.106   6.781   3.184 -1.0595  0.2349 -0.0953
  240MOL0     H31660   3.116   6.683   2.961  0.2292  2.4426  1.5396
  240MOL0     H31661   2.980   6.791   2.979  2.7171  2.7696  1.4529
  240MOL0     H31662   3.120   7.051   3.318 -1.7878 -1.1022  2.3054
  240MOL0     H31663   2.996   7.262   3.337 -0.7189  3.8295  1.4026
  240MOL0     H31664   2.862   7.498   3.666 -3.0342  1.2230 -1.1254
  240MOL0     H31665   2.692   7.619   3.758  0.1147 -2.9085 -0.3376
  240MOL0     H31666   2.339   7.858   5.520  1.5751 -2.1572  2.7608
  240MOL0     H31667   2.224   7.714   5.673 -2.5160 -1.7232 -0.8608
  240MOL0     H31668   1.795   7.723   5.995  0.1821 -1.0357  2.9318
  240MOL0     H31669   1.640   7.601   6.142  0.7707  0.8450  0.0565
  240MOL0     H31670   1.553   7.202   6.017 -0.1578  1.1635 -1.9031
  240MOL0     H31671   1.430   7.255   6.132  0.0717 -0.7176 -0.6121
  240MOL0     H31672   1.517   7.042   6.211  1.8296 -1.1362 -0.0809
  240MOL0     H31673   1.679   7.092   6.199  0.0639 -1.9582  1.1764
  240MOL0     H31674   1.464   7.215   6.390  0.5873 -2.2825  3.6990
  240MOL0     H31675   1.629   7.286   6.377 -1.6263  0.5062  2.0310
  240MOL0     H31676   1.729   7.078   6.457  0.1383 -0.6506 -0.2391
  240MOL0     H31677   1.601   7.161   6.567 -0.6480  6.0271 -3.0391
  240MOL0     H31678   1.443   6.769   6.483 -1.9376 -0.0920 -1.2490
  240MOL0     H31679   1.742   7.244   5.931 -3.2166 -0.6473  0.8771
  240MOL0     H31680   1.853   7.352   5.760  0.1122 -0.6327  1.1352
  241MOL0     O31681   8.414   9.197   2.972 -0.4498 -0.1000 -0.4016
  241MOL0     C31682   8.341   9.183   2.871 -0.8954  0.2236 -0.8516
  241MOL0     O31683   8.205   9.173   2.861 -0.2443  0.7882 -0.1979
  241MOL0     C31684   8.134   9.206   2.974  0.6961 -0.0495 -0.5361
  241MOL0     C31685   8.152   9.329   3.046 -0.7194  0.1809 -0.6986
  241MOL0     C31686   8.074   9.351   3.164  0.3075 -0.6829  0.7055
  241MOL0     C31687   7.962   9.263   3.197 -1.0161 -0.1433  1.0650
  241MOL0     O31688   7.877   9.287   3.299  0.3705  0.3990  0.3129
  241MOL0     C31689   7.854   9.183   3.395  0.5902  0.7462  1.0818
  241MOL0     C31690   7.716   9.115   3.372 -0.1246 -0.0428 -0.0088
  241MOL0     C31691   7.687   8.972   3.423 -0.3187 -0.2284 -0.5196
  241MOL0     C31692   7.742   8.946   3.568 -0.1705 -0.4852 -0.3641
  241MOL0     C31693   7.726   8.796   3.609  0.3245  0.4910  1.6166
  241MOL0     C31694   7.811   8.689   3.540 -0.3732 -0.4986 -1.5162
  241MOL0     C31695   7.971   8.704   3.573 -1.0838 -0.0120 -0.5225
  241MOL0     C31696   8.058   8.603   3.486  0.1396  0.3076  0.1908
  241MOL0     N31697   8.067   8.623   3.343 -0.1904 -0.8555 -0.2289
  241MOL0     C31698   8.091   8.528   3.244 -1.0547  0.2292 -0.1931
  241MOL0     C31699   8.128   8.590   3.136 -0.1994 -0.0565  0.2501
  241MOL0     C31700   8.164   8.518   3.011 -0.3175 -0.0561  0.1368
  241MOL0     C31701   8.271   8.577   2.932 -0.6248 -0.1649  0.2492
  241MOL0     C31702   8.240   8.718   2.876 -0.2839  0.4570  0.3315
  241MOL0     C31703   8.361   8.750   2.786 -0.3912 -0.2495  0.1635
  241MOL0     O31704   8.359   8.683   2.667 -0.2129 -0.1704  0.6364
  241MOL0     C31705   8.469   8.712   2.585  0.2302 -0.3857  0.0699
  241MOL0     C31706   8.441   8.725   2.441  0.5640  0.2172 -0.0403
  241MOL0     C31707   8.537   8.756   2.346  0.4099 -0.4489 -0.3555
  241MOL0     C31708   8.666   8.768   2.392  0.0641  0.2109  0.2957
  241MOL0     C31709   8.772   8.790   2.294  0.4635 -1.1811 -0.9584
  241MOL0     O31710   8.892   8.812   2.345 -0.8137 -0.1223 -1.1514
  241MOL0     C31711   8.992   8.842   2.257  0.2053  0.1250 -0.5997
  241MOL0     C31712   9.084   8.943   2.288  0.0605  0.5084  0.5581
  241MOL0     C31713   9.194   8.963   2.195 -0.7476  0.7189  0.1500
  241MOL0     C31714   9.204   8.875   2.077  0.6087 -0.8039 -0.0246
  241MOL0     O31715   9.277   8.904   1.967 -0.7225 -0.6770 -0.1380
  241MOL0     C31716   9.375   9.008   1.954  0.9881  0.4667 -0.2079
  241MOL0     C31717   9.442   8.982   1.823  0.1173 -0.1711  0.2023
  241MOL0     C31718   9.528   9.099   1.791  0.1128 -0.6430 -0.1544
  241MOL0     C31719   9.665   9.083   1.852  1.0820  0.3072  0.4197
  241MOL0     C31720   9.769   9.189   1.819  0.3293  0.4631  0.1771
  241MOL0     C31721   9.792   9.224   1.672  0.1237 -1.2172 -0.1392
  241MOL0     C31722   9.851   9.360   1.646  1.2459  0.4428 -0.3827
  241MOL0     C31723   9.903   9.369   1.508  0.2244 -0.1617  0.0455
  241MOL0    Cl31724   9.983   9.529   1.474  0.0528 -0.0618  0.0553
  241MOL0     C31725   9.111   8.771   2.067  0.4954  0.7438  0.5364
  241MOL0     C31726   9.014   8.749   2.161  0.3385 -0.9293  0.9252
  241MOL0     O31727   8.750   8.799   2.176  0.6634 -0.0307  0.4551
  241MOL0     C31728   8.695   8.752   2.527 -0.0844  0.1403 -0.3834
  241MOL0     C31729   8.600   8.718   2.623  0.9472 -0.1408  0.0349
  241MOL0     N31730   8.120   8.727   3.169 -0.0264 -0.6300 -0.2899
  241MOL0     N31731   8.098   8.748   3.290  0.5157 -0.3765 -0.0475
  241MOL0     C31732   7.946   9.149   3.117  0.4252 -0.4583 -0.7960
  241MOL0     C31733   8.023   9.128   3.010  0.1681 -0.5189  0.4287
  241MOL0     C31734   8.422   9.165   2.748 -0.2276 -0.7561 -1.0377
  241MOL0     C31735   8.558   9.185   2.742 -0.2505 -0.5814  0.6749
  241MOL0     C31736   8.634   9.182   2.623 -0.5723  0.0364 -0.0234
  241MOL0     C31737   8.568   9.149   2.506  0.1137  0.3208 -1.1016
  241MOL0     O31738   8.612   9.154   2.371  0.8021  0.1720  0.2310
  241MOL0     C31739   8.752   9.177   2.356  0.3340 -0.9346  0.8816
  241MOL0     C31740   8.765   9.182   2.207  0.2878  0.2462 -0.6049
  241MOL0     C31741   8.689   9.284   2.134 -0.3627 -0.6313 -0.5904
  241MOL0     C31742   8.745   9.310   1.988  0.2612  0.2250 -0.2071
  241MOL0     C31743   8.873   9.373   1.992 -0.0493 -0.6676  0.1122
  241MOL0     C31744   8.979   9.425   1.998 -0.6311  0.3821 -0.0589
  241MOL0     C31745   8.430   9.117   2.513  0.4468  1.1656  0.5955
  241MOL0     C31746   8.355   9.124   2.634 -0.3703 -0.6939 -0.3863
  241MOL0     H31747   8.230   9.402   3.030  0.8057 -0.0310  4.1472
  241MOL0     H31748   8.096   9.437   3.226  0.4384 -0.0621 -0.1778
  241MOL0     H31749   7.870   9.224   3.495 -1.4300  2.2641  0.8515
  241MOL0     H31750   7.928   9.104   3.378 -0.0407  0.6405 -1.5019
  241MOL0     H31751   7.681   9.117   3.268 -2.3919  0.6079  0.7274
  241MOL0     H31752   7.635   9.177   3.410  1.0279  1.8259 -0.4409
  241MOL0     H31753   7.741   8.900   3.362  1.5347 -0.2718  1.0558
  241MOL0     H31754   7.585   8.937   3.409  1.1492 -4.7473 -1.3695
  241MOL0     H31755   7.846   8.979   3.580 -1.0802  2.5999 -0.0241
  241MOL0     H31756   7.686   9.013   3.634  2.0221  1.6954 -0.5760
  241MOL0     H31757   7.623   8.764   3.594  1.0033 -1.3874  0.6562
  241MOL0     H31758   7.744   8.789   3.717 -0.4999  0.8091  1.7831
  241MOL0     H31759   7.809   8.715   3.434  2.0383  3.2157 -0.8549
  241MOL0     H31760   7.756   8.601   3.573  0.5209 -0.5745 -0.1562
  241MOL0     H31761   8.002   8.808   3.565  1.6937 -0.6341  0.8799
  241MOL0     H31762   7.991   8.680   3.678  0.5072 -0.3282 -0.8651
  241MOL0     H31763   8.015   8.504   3.502 -2.5491  1.0561 -1.7503
  241MOL0     H31764   8.162   8.611   3.518 -0.0057 -0.6791  0.9394
  241MOL0     H31765   8.083   8.421   3.258 -0.1875  0.1472 -0.2845
  241MOL0     H31766   8.070   8.524   2.955 -0.8637  2.4635  1.1742
  241MOL0     H31767   8.190   8.415   3.037  0.6237 -0.3417 -1.7597
  241MOL0     H31768   8.288   8.512   2.846  1.6347  1.8364 -0.9513
  241MOL0     H31769   8.358   8.570   2.999 -0.3555  0.4861 -0.0276
  241MOL0     H31770   8.148   8.709   2.818  1.2064 -1.2814 -1.9372
  241MOL0     H31771   8.231   8.792   2.956 -2.1957 -0.5159  1.0643
  241MOL0     H31772   8.457   8.739   2.839 -0.2225  3.5616  0.9125
  241MOL0     H31773   8.361   8.854   2.755 -0.2068  0.0407  1.0839
  241MOL0     H31774   8.337   8.720   2.413  0.0227  4.3512  0.6225
  241MOL0     H31775   8.506   8.776   2.244 -0.6803  2.3934  0.4385
  241MOL0     H31776   9.074   9.010   2.372  1.8069  1.3168  0.1718
  241MOL0     H31777   9.258   9.048   2.216 -0.5068  0.6295 -0.1961
  241MOL0     H31778   9.434   9.010   2.046 -1.9058 -1.3304  1.8356
  241MOL0     H31779   9.326   9.105   1.962 -1.7775 -1.0065  3.5289
  241MOL0     H31780   9.365   8.968   1.747 -0.3098 -0.7089  0.7305
  241MOL0     H31781   9.498   8.888   1.817 -1.1499 -0.9337  0.0284
  241MOL0     H31782   9.475   9.186   1.829 -0.7609 -0.8129 -0.9414
  241MOL0     H31783   9.529   9.118   1.683  1.3936 -0.4947 -0.1305
  241MOL0     H31784   9.648   9.054   1.956  1.5783 -1.3884  0.0630
  241MOL0     H31785   9.708   8.993   1.806 -1.1520  0.3729 -2.0285
  241MOL0     H31786   9.871   9.175   1.855  1.1040  2.0064 -1.2702
  241MOL0     H31787   9.730   9.281   1.863 -4.5105 -0.4495 -1.6055
  241MOL0     H31788   9.709   9.213   1.603  1.1278 -1.7350 -1.3051
  241MOL0     H31789   9.862   9.144   1.645 -0.0813 -1.3363 -0.3147
  241MOL0     H31790   9.776   9.434   1.675  1.4782  0.1956  0.8977
  241MOL0     H31791   9.929   9.362   1.722  0.4302  0.4147  0.4745
  241MOL0     H31792   9.820   9.365   1.437  0.5766  0.3514 -0.4029
  241MOL0     H31793   9.980   9.293   1.492 -0.8296 -0.5797 -4.7821
  241MOL0     H31794   9.118   8.703   1.982 -0.3068 -1.1687  1.9455
  241MOL0     H31795   8.946   8.668   2.138  0.1279 -0.2927 -0.8839
  241MOL0     H31796   8.795   8.761   2.569  0.6569  4.2629 -2.5351
  241MOL0     H31797   8.628   8.715   2.727 -0.0092  0.2902  0.3132
  241MOL0     H31798   7.869   9.074   3.137  0.3632 -0.4954 -1.1709
  241MOL0     H31799   7.997   9.046   2.944  1.0500  0.2266 -0.9130
  241MOL0     H31800   8.620   9.218   2.825  2.4152  0.8584 -1.7206
  241MOL0     H31801   8.740   9.205   2.634 -0.7806  1.2899 -0.4507
  241MOL0     H31802   8.811   9.091   2.387  1.3880 -0.7621 -0.5641
  241MOL0     H31803   8.803   9.265   2.397 -0.0889  0.6772 -1.7968
  241MOL0     H31804   8.868   9.219   2.201 -0.3826  2.1987 -0.8793
  241MOL0     H31805   8.750   9.085   2.159 -1.5416  0.4459 -0.4808
  241MOL0     H31806   8.698   9.376   2.193 -4.8134 -3.3430  5.3711
  241MOL0     H31807   8.584   9.254   2.132  0.0958 -2.4261  0.4169
  241MOL0     H31808   8.736   9.214   1.937  3.2851 -1.8297  2.6876
  241MOL0     H31809   8.682   9.368   1.921  1.7586 -0.0230 -1.8959
  241MOL0     H31810   9.079   9.465   1.990  0.0694 -0.7801  2.1481
  241MOL0     H31811   8.375   9.095   2.422  1.9426  0.3273 -0.1322
  241MOL0     H31812   8.250   9.096   2.631 -1.5837  3.1758 -0.6522
  242MOL0     O31813   3.800   8.787   6.619  0.5067 -0.2028 -0.3962
  242MOL0     C31814   3.737   8.849   6.697  0.4415  0.8726 -0.5442
  242MOL0     O31815   3.750   8.838   6.829 -0.0041 -0.2085 -0.5704
  242MOL0     C31816   3.855   8.766   6.874 -0.3461 -0.0844 -0.2646
  242MOL0     C31817   3.992   8.772   6.828  1.2845 -0.4793 -0.7366
  242MOL0     C31818   4.085   8.683   6.875  0.0213  0.0179 -0.1633
  242MOL0     C31819   4.044   8.588   6.970 -0.5382  0.0495 -0.6766
  242MOL0     O31820   4.126   8.494   7.020  0.7707 -0.1497  0.1555
  242MOL0     C31821   4.267   8.502   6.999 -0.1828  0.2196  0.1175
  242MOL0     C31822   4.335   8.399   7.087 -0.5545  0.3460 -0.1087
  242MOL0     C31823   4.485   8.412   7.059  0.8114  0.1914 -0.1063
  242MOL0     C31824   4.560   8.314   7.147 -0.4629 -0.4810 -0.3186
  242MOL0     C31825   4.708   8.299   7.115 -0.2885  0.6920  0.2753
  242MOL0     C31826   4.786   8.188   7.199 -0.0521 -1.1385  0.4902
  242MOL0     C31827   4.940   8.181   7.159 -0.2522  0.4481  0.6923
  242MOL0     C31828   5.023   8.081   7.234 -0.0859  0.2478 -0.0816
  242MOL0     N31829   4.995   7.939   7.204  1.1106 -0.7983 -0.1273
  242MOL0     C31830   4.886   7.863   7.230 -0.4169  0.9658 -0.6368
  242MOL0     C31831   4.915   7.738   7.172  0.6163  0.0805  0.5055
  242MOL0     C31832   4.828   7.613   7.146 -0.0602 -0.3525 -0.9216
  242MOL0     C31833   4.841   7.511   7.258 -0.4064 -0.6688  0.2419
  242MOL0     C31834   4.820   7.567   7.401  0.2581 -0.9175  0.1556
  242MOL0     C31835   4.951   7.540   7.481 -0.2077 -0.3350  0.3244
  242MOL0     O31836   4.931   7.541   7.623 -0.3929  0.5456 -0.1468
  242MOL0     C31837   5.014   7.445   7.682 -0.1513  0.1319  0.8299
  242MOL0     C31838   4.954   7.355   7.762  0.9610  0.0976 -0.3179
  242MOL0     C31839   5.019   7.267   7.847  0.3400 -0.0005 -0.3905
  242MOL0     C31840   5.158   7.257   7.835  0.2675 -0.2067 -0.3172
  242MOL0     C31841   5.240   7.168   7.933 -0.3039 -0.2296  0.3617
  242MOL0     O31842   5.176   7.102   8.036 -0.1661 -0.1225  0.1228
  242MOL0     C31843   5.241   7.004   8.109  0.5227  0.3689  0.1638
  242MOL0     C31844   5.270   6.880   8.051  0.0189  0.6350  0.2359
  242MOL0     C31845   5.338   6.781   8.126  0.6599 -0.2014 -0.5219
  242MOL0     C31846   5.375   6.800   8.257 -0.2726  0.0310  0.8806
  242MOL0     O31847   5.443   6.699   8.322 -0.0506  0.0793  1.3444
  242MOL0     C31848   5.566   6.651   8.268 -0.6267 -0.0148 -0.5431
  242MOL0     C31849   5.619   6.523   8.338 -0.4386 -0.3995 -0.2070
  242MOL0     C31850   5.772   6.539   8.363  0.2674 -0.8035 -0.1880
  242MOL0     C31851   5.837   6.431   8.432 -0.6569  0.2103 -0.1981
  242MOL0     C31852   5.989   6.450   8.456  0.0185 -0.1294 -0.0924
  242MOL0     C31853   6.052   6.360   8.559  0.1074 -0.3311 -0.7664
  242MOL0     C31854   6.044   6.209   8.522 -0.3877  0.5133 -0.2408
  242MOL0     C31855   6.181   6.140   8.521 -0.5815  0.3253 -0.1543
  242MOL0    Cl31856   6.298   6.208   8.395  0.3654  0.0914  0.3150
  242MOL0     C31857   5.341   6.922   8.322  0.8753 -0.0714  0.1217
  242MOL0     C31858   5.269   7.020   8.250 -0.3755  0.4335  0.4603
  242MOL0     O31859   5.361   7.169   7.910  0.2401  0.6836  0.1513
  242MOL0     C31860   5.220   7.358   7.772 -0.2415 -0.4725  0.0105
  242MOL0     C31861   5.155   7.461   7.698  0.8193  0.9434  0.1416
  242MOL0     N31862   5.043   7.751   7.115  0.2003  0.0690 -0.0680
  242MOL0     N31863   5.091   7.871   7.126 -0.0414  0.0273 -0.4813
  242MOL0     C31864   3.919   8.587   7.017  0.1066 -0.1343  0.3654
  242MOL0     C31865   3.829   8.680   6.976 -0.2435 -0.7127 -0.0839
  242MOL0     C31866   3.632   8.932   6.647  0.5557 -0.3076 -0.5967
  242MOL0     C31867   3.558   9.023   6.725  1.1196  0.8671  0.3790
  242MOL0     C31868   3.442   9.086   6.681  0.1315  0.3851  0.1001
  242MOL0     C31869   3.406   9.084   6.547 -1.0384 -0.2804  0.4593
  242MOL0     O31870   3.308   9.160   6.490  0.1235 -0.9445 -0.3675
  242MOL0     C31871   3.330   9.304   6.507  0.4007 -0.7098 -0.6000
  242MOL0     C31872   3.342   9.371   6.373  0.0227  0.7290 -0.3807
  242MOL0     C31873   3.214   9.360   6.277 -0.4527 -0.4254 -0.3208
  242MOL0     C31874   3.241   9.423   6.135 -0.2923  0.1448 -0.2727
  242MOL0     C31875   3.162   9.362   6.029 -0.1155  0.2432  0.2536
  242MOL0     C31876   3.107   9.299   5.938  0.0661  0.5565 -0.6588
  242MOL0     C31877   3.482   9.003   6.466  0.5787  0.4021 -0.1741
  242MOL0     C31878   3.588   8.928   6.508 -0.3467  0.6313  0.0576
  242MOL0     H31879   4.026   8.845   6.756  0.9504 -0.4164 -0.8311
  242MOL0     H31880   4.189   8.682   6.843 -0.0095 -0.2259 -0.2604
  242MOL0     H31881   4.303   8.603   7.023  2.0724 -0.0611 -1.7877
  242MOL0     H31882   4.293   8.477   6.896 -0.9273 -0.1594  0.0121
  242MOL0     H31883   4.275   8.307   7.077 -4.2437  2.3953  1.0329
  242MOL0     H31884   4.313   8.436   7.188 -1.2444 -0.5888  0.1055
  242MOL0     H31885   4.521   8.515   7.059 -0.7117  0.7506  0.9436
  242MOL0     H31886   4.485   8.379   6.954 -4.5291 -2.3813  0.3538
  242MOL0     H31887   4.552   8.340   7.253 -0.4992 -0.0584 -0.4238
  242MOL0     H31888   4.504   8.221   7.134  0.9174 -1.2106 -1.2116
  242MOL0     H31889   4.749   8.397   7.138  0.2226  0.5939 -0.2153
  242MOL0     H31890   4.719   8.272   7.010 -0.7320 -1.5572  0.7462
  242MOL0     H31891   4.738   8.091   7.182  0.1237 -1.3653  1.2408
  242MOL0     H31892   4.780   8.212   7.305  1.7951 -1.3936  0.6890
  242MOL0     H31893   4.951   8.133   7.062  0.9499 -2.0717  1.9721
  242MOL0     H31894   4.990   8.278   7.157 -1.7493  1.2496 -1.9250
  242MOL0     H31895   5.012   8.086   7.343  0.7564  0.0411  0.0152
  242MOL0     H31896   5.128   8.088   7.207 -0.1889  1.9404 -0.1353
  242MOL0     H31897   4.799   7.880   7.292  1.5503  0.2250  2.5549
  242MOL0     H31898   4.839   7.573   7.045  3.3173 -1.3161 -0.2913
  242MOL0     H31899   4.725   7.649   7.146 -0.4258 -1.3594  0.0402
  242MOL0     H31900   4.938   7.462   7.252  0.3823  0.3056  3.0656
  242MOL0     H31901   4.757   7.441   7.259 -0.0383 -1.3677  4.6933
  242MOL0     H31902   4.785   7.671   7.404  2.5014  0.0308 -2.7738
  242MOL0     H31903   4.741   7.505   7.445 -2.0688  0.3629 -1.9440
  242MOL0     H31904   5.009   7.630   7.458 -2.3905  1.5022  1.6416
  242MOL0     H31905   5.002   7.448   7.453  1.7153  0.5316  0.8084
  242MOL0     H31906   4.846   7.350   7.769  0.9605 -1.2002 -1.0463
  242MOL0     H31907   4.970   7.201   7.917 -0.8986  0.9387 -0.3308
  242MOL0     H31908   5.250   6.865   7.946  0.7003 -0.0341  0.1962
  242MOL0     H31909   5.346   6.679   8.089 -0.8647 -0.8319  0.7892
  242MOL0     H31910   5.646   6.725   8.261 -0.6703  0.0315 -0.5466
  242MOL0     H31911   5.560   6.627   8.161 -0.4709  2.5153 -1.1710
  242MOL0     H31912   5.604   6.435   8.274 -0.6499 -0.7975  0.3747
  242MOL0     H31913   5.568   6.510   8.433 -0.1783  2.4453  0.4057
  242MOL0     H31914   5.775   6.632   8.421 -0.5135 -0.9664  0.1224
  242MOL0     H31915   5.825   6.562   8.270  0.5137  2.7390  0.6576
  242MOL0     H31916   5.787   6.415   8.528  2.5226  1.6270  1.8559
  242MOL0     H31917   5.814   6.334   8.388 -0.3593 -0.3872  0.9321
  242MOL0     H31918   6.022   6.547   8.495 -1.3259 -1.2704  4.4763
  242MOL0     H31919   6.040   6.427   8.362  2.6647  2.5000  0.5513
  242MOL0     H31920   6.005   6.373   8.657  0.1086  0.2690 -0.8445
  242MOL0     H31921   6.156   6.387   8.577 -0.5448  0.5583  2.2580
  242MOL0     H31922   5.980   6.165   8.598  0.6740 -2.0446 -0.7152
  242MOL0     H31923   6.002   6.186   8.423  0.6256  0.6870 -0.7337
  242MOL0     H31924   6.162   6.036   8.492 -1.2778  0.1641  0.8230
  242MOL0     H31925   6.236   6.132   8.615 -2.1024 -4.2758  0.5862
  242MOL0     H31926   5.365   6.966   8.419  1.2528  3.0492 -1.2602
  242MOL0     H31927   5.224   7.106   8.300 -1.7121 -1.5199  2.8142
  242MOL0     H31928   5.327   7.371   7.784 -0.5052  2.3511  0.1548
  242MOL0     H31929   5.209   7.533   7.637 -0.3984 -0.1389 -2.3769
  242MOL0     H31930   3.883   8.524   7.097 -3.4972  1.7880  0.4360
  242MOL0     H31931   3.737   8.682   7.033 -0.5004 -1.2005 -0.4773
  242MOL0     H31932   3.569   9.034   6.832 -1.7106  1.1820  0.7125
  242MOL0     H31933   3.376   9.148   6.742 -0.7959 -1.0903  0.6637
  242MOL0     H31934   3.406   9.332   6.579  0.8376 -2.5348 -0.2908
  242MOL0     H31935   3.235   9.338   6.549 -0.1070 -1.0819 -1.3971
  242MOL0     H31936   3.341   9.480   6.382 -2.4856  0.9518 -2.2961
  242MOL0     H31937   3.430   9.336   6.319  0.4312  0.3784  0.5027
  242MOL0     H31938   3.134   9.418   6.324  0.2507 -0.1840  0.6082
  242MOL0     H31939   3.188   9.254   6.263 -1.7340 -0.0753 -0.6771
  242MOL0     H31940   3.203   9.526   6.132 -2.6024 -0.6628 -1.8428
  242MOL0     H31941   3.345   9.411   6.106 -1.0527 -1.1440 -2.7488
  242MOL0     H31942   3.060   9.255   5.852 -1.7875 -0.9963  1.0351
  242MOL0     H31943   3.436   8.991   6.369  0.5786 -2.3871  0.0800
  242MOL0     H31944   3.625   8.862   6.429 -2.6865  0.5381 -1.0263
  243MOL0     O31945   3.257   1.211   2.557 -0.4526 -0.3185  0.7737
  243MOL0     C31946   3.303   1.238   2.670 -0.3093  0.2990 -0.3200
  243MOL0     O31947   3.259   1.188   2.791 -0.0163 -0.5367 -0.5781
  243MOL0     C31948   3.189   1.075   2.766 -0.0542  0.1560 -0.1911
  243MOL0     C31949   3.048   1.082   2.761  1.0865  0.3592  0.1696
  243MOL0     C31950   2.985   0.968   2.701  0.2572 -0.3740  0.1729
  243MOL0     C31951   3.049   0.850   2.659  0.1169 -1.6211 -1.1526
  243MOL0     O31952   2.983   0.743   2.610  0.1420  0.0313  0.1413
  243MOL0     C31953   2.859   0.757   2.531 -0.1900  0.6197 -1.0541
  243MOL0     C31954   2.873   0.852   2.410  0.7247  0.3156 -0.0469
  243MOL0     C31955   2.733   0.901   2.379 -0.3261  0.1781 -0.1911
  243MOL0     C31956   2.727   1.008   2.263  0.0514  0.2010  0.4283
  243MOL0     C31957   2.584   1.058   2.231 -0.8454 -0.3315 -1.4584
  243MOL0     C31958   2.483   1.109   2.349 -0.6415 -0.1303  0.1458
  243MOL0     C31959   2.520   1.234   2.430  0.7319  0.9602 -0.0296
  243MOL0     C31960   2.418   1.269   2.538 -0.4201  0.2162  0.3950
  243MOL0     N31961   2.426   1.181   2.657 -0.1707 -0.1724  1.1243
  243MOL0     C31962   2.535   1.174   2.745 -0.3593 -0.1077  0.5244
  243MOL0     C31963   2.504   1.090   2.835  0.1522  0.6532 -0.2614
  243MOL0     C31964   2.601   1.034   2.931 -1.0445 -0.0980  0.7311
  243MOL0     C31965   2.548   0.985   3.067 -0.6585  0.6662  0.1437
  243MOL0     C31966   2.655   0.922   3.160 -0.5086 -0.2911  0.3339
  243MOL0     C31967   2.779   0.842   3.108 -0.0541  0.2084  0.4848
  243MOL0     O31968   2.882   0.841   3.204 -0.4746  0.2691 -0.0835
  243MOL0     C31969   3.005   0.868   3.153  0.8452  0.3519  0.3629
  243MOL0     C31970   3.069   0.983   3.185 -0.5598 -1.2654 -1.1195
  243MOL0     C31971   3.194   1.007   3.131 -1.1304  0.3680 -0.0255
  243MOL0     C31972   3.262   0.908   3.050 -0.5562  0.0104 -0.1598
  243MOL0     C31973   3.405   0.923   3.028  0.2274 -0.0050  0.3220
  243MOL0     O31974   3.461   1.050   3.035 -0.0325 -0.3869  0.7085
  243MOL0     C31975   3.597   1.069   3.015  0.0571  0.1221 -0.6031
  243MOL0     C31976   3.654   1.092   2.891 -0.3063  0.8452  0.3034
  243MOL0     C31977   3.790   1.128   2.874 -0.0060 -0.2156 -0.0731
  243MOL0     C31978   3.870   1.129   2.985 -0.2955  0.1250 -0.0536
  243MOL0     O31979   4.004   1.139   2.998 -0.2214 -0.3031 -0.4702
  243MOL0     C31980   4.087   1.148   2.888 -0.1621  0.1601  0.6944
  243MOL0     C31981   4.222   1.178   2.944 -0.3926  0.3730  1.3267
  243MOL0     C31982   4.307   1.160   2.818 -1.0012 -0.6406 -0.2731
  243MOL0     C31983   4.459   1.165   2.849 -0.9576 -0.2197  1.4700
  243MOL0     C31984   4.517   1.294   2.915 -0.2654  1.4568  0.5321
  243MOL0     C31985   4.521   1.417   2.824 -0.6773  0.4414 -1.0364
  243MOL0     C31986   4.614   1.527   2.885  0.8827  0.9716  0.3349
  243MOL0     C31987   4.595   1.664   2.812 -0.1059 -0.5604 -0.3660
  243MOL0    Cl31988   4.646   1.660   2.644  0.0208 -0.0288  0.2182
  243MOL0     C31989   3.819   1.092   3.110 -1.3597 -0.5755  1.0316
  243MOL0     C31990   3.685   1.061   3.121 -0.2967 -0.0884  0.4454
  243MOL0     O31991   3.464   0.822   2.999 -0.2991 -0.3562 -0.0132
  243MOL0     C31992   3.195   0.790   3.012  0.5997 -0.6522  0.3778
  243MOL0     C31993   3.060   0.782   3.061  0.5588  0.1592  0.2624
  243MOL0     N31994   2.369   1.048   2.817 -0.0970 -0.3663  0.7373
  243MOL0     N31995   2.330   1.098   2.705 -0.1860 -0.3903  0.3167
  243MOL0     C31996   3.187   0.846   2.687 -0.2764 -0.2796 -0.3737
  243MOL0     C31997   3.253   0.953   2.737  0.3485  0.0132 -0.0544
  243MOL0     C31998   3.416   1.330   2.689 -0.6931  0.1669 -0.1218
  243MOL0     C31999   3.471   1.376   2.815 -0.6653  0.2675  1.4149
  243MOL0     C32000   3.586   1.453   2.823  1.0505  0.1431  0.3113
  243MOL0     C32001   3.648   1.496   2.710  0.4777  0.2665  0.0131
  243MOL0     O32002   3.766   1.563   2.734 -0.2271 -0.5968 -0.0841
  243MOL0     C32003   3.774   1.684   2.816 -0.2894 -0.4367 -0.6232
  243MOL0     C32004   3.753   1.800   2.724 -0.6335 -1.4672 -0.1435
  243MOL0     C32005   3.857   1.832   2.620 -0.5797  0.2181  0.6135
  243MOL0     C32006   3.823   1.966   2.556  0.3805 -1.1057  0.2869
  243MOL0     C32007   3.858   2.079   2.656  0.1349 -0.0040  0.6882
  243MOL0     C32008   3.874   2.174   2.728  0.7329  0.0573  0.9793
  243MOL0     C32009   3.603   1.457   2.586 -0.5056 -0.3040 -1.1910
  243MOL0     C32010   3.487   1.380   2.583 -0.7193 -0.4977 -0.6682
  243MOL0     H32011   2.996   1.176   2.776  1.0104  0.1746  1.1682
  243MOL0     H32012   2.881   0.962   2.673  1.0744 -1.6600 -2.9758
  243MOL0     H32013   2.778   0.785   2.598  0.8354  3.8781 -0.9863
  243MOL0     H32014   2.843   0.655   2.494  3.5729 -1.4833  2.4060
  243MOL0     H32015   2.905   0.801   2.319 -1.4503  2.9856 -2.4778
  243MOL0     H32016   2.939   0.934   2.441 -2.9978  2.3078  3.8073
  243MOL0     H32017   2.691   0.936   2.474  0.7428 -2.0549  1.1861
  243MOL0     H32018   2.664   0.824   2.343 -2.0910  1.2485  0.7446
  243MOL0     H32019   2.779   1.099   2.294  1.6001  0.6680 -2.9894
  243MOL0     H32020   2.766   0.970   2.168 -2.1804 -2.2404  0.3842
  243MOL0     H32021   2.529   0.969   2.200 -0.4699 -0.7333 -0.9786
  243MOL0     H32022   2.597   1.132   2.151  6.0459  1.8368  0.9007
  243MOL0     H32023   2.476   1.022   2.415 -1.3188 -0.2997 -0.1344
  243MOL0     H32024   2.386   1.115   2.298 -0.6378  1.1422  0.2721
  243MOL0     H32025   2.625   1.238   2.459  0.3581 -1.4589  2.0561
  243MOL0     H32026   2.515   1.319   2.363  0.8996  2.4124  1.7305
  243MOL0     H32027   2.315   1.262   2.501 -0.7265 -2.2832  1.5397
  243MOL0     H32028   2.434   1.374   2.563 -1.5901  1.1119 -2.1562
  243MOL0     H32029   2.630   1.227   2.745  0.5197 -1.6359 -0.0945
  243MOL0     H32030   2.671   1.114   2.954  0.1701 -0.2820 -2.0060
  243MOL0     H32031   2.651   0.953   2.878 -1.6967  0.2260 -0.4189
  243MOL0     H32032   2.486   0.900   3.037  1.2793 -0.7308 -0.1055
  243MOL0     H32033   2.487   1.061   3.117 -0.4933 -0.1773  1.6925
  243MOL0     H32034   2.706   1.003   3.213  0.5513 -1.5761  1.3486
  243MOL0     H32035   2.607   0.856   3.233 -0.6157  1.6395  2.1154
  243MOL0     H32036   2.819   0.878   3.013  0.0357 -1.0410  0.0271
  243MOL0     H32037   2.762   0.735   3.092  1.5162 -0.3823  2.3149
  243MOL0     H32038   3.024   1.058   3.249  1.2005 -1.4579  0.4251
  243MOL0     H32039   3.245   1.099   3.156  2.4162 -1.7019  1.1786
  243MOL0     H32040   3.585   1.080   2.808  1.3397  1.8308 -1.2992
  243MOL0     H32041   3.843   1.142   2.781 -1.6367  5.1224 -0.5642
  243MOL0     H32042   4.067   1.225   2.813  0.4429  1.5622  1.9222
  243MOL0     H32043   4.092   1.049   2.842  3.4952  0.5957 -0.1258
  243MOL0     H32044   4.249   1.100   3.016  0.7004 -1.0262 -0.5211
  243MOL0     H32045   4.226   1.282   2.978 -2.4934  0.4329  1.5566
  243MOL0     H32046   4.283   1.247   2.757 -0.6931  0.4523  1.1172
  243MOL0     H32047   4.296   1.062   2.771  4.1785 -2.3644  1.3982
  243MOL0     H32048   4.495   1.097   2.927  3.5467 -0.2883 -0.3256
  243MOL0     H32049   4.516   1.126   2.764  0.8205  1.1637  1.9548
  243MOL0     H32050   4.619   1.275   2.952 -0.7591 -0.3038  1.0570
  243MOL0     H32051   4.457   1.322   3.001 -0.5215  1.1251  0.4601
  243MOL0     H32052   4.422   1.464   2.821  0.4894  3.1761  0.0382
  243MOL0     H32053   4.558   1.378   2.729 -1.1716 -1.8848 -0.3535
  243MOL0     H32054   4.606   1.526   2.994  2.1716 -0.9147  0.4470
  243MOL0     H32055   4.719   1.501   2.868  0.3092  0.2369 -2.6476
  243MOL0     H32056   4.650   1.741   2.867  1.9948 -2.2518  0.0348
  243MOL0     H32057   4.489   1.693   2.815  0.5433  2.0540 -0.7216
  243MOL0     H32058   3.891   1.078   3.189 -2.0101 -3.4589  1.2200
  243MOL0     H32059   3.634   1.038   3.214 -1.8552  4.7973  1.1109
  243MOL0     H32060   3.239   0.707   2.958 -1.0750 -1.1387 -0.3284
  243MOL0     H32061   2.994   0.702   3.026  0.7741 -0.2855  0.8493
  243MOL0     H32062   3.237   0.760   2.644 -1.0848  0.5041 -3.0828
  243MOL0     H32063   3.362   0.956   2.731  0.4818  3.6909  1.4485
  243MOL0     H32064   3.429   1.348   2.911  1.6971 -0.1467  2.4158
  243MOL0     H32065   3.626   1.478   2.921  1.5249 -1.0268  0.4305
  243MOL0     H32066   3.866   1.693   2.875 -0.1820  1.5334 -1.0348
  243MOL0     H32067   3.685   1.689   2.880 -0.2894  0.0997 -0.6610
  243MOL0     H32068   3.662   1.772   2.671 -1.1903  0.6197 -0.3678
  243MOL0     H32069   3.748   1.890   2.786 -1.7177  0.2943 -2.6328
  243MOL0     H32070   3.876   1.757   2.542  3.4678  1.0879  0.5518
  243MOL0     H32071   3.953   1.842   2.670 -0.9696 -0.3668  1.5114
  243MOL0     H32072   3.889   1.983   2.470 -2.9498  2.2438 -1.9106
  243MOL0     H32073   3.719   1.969   2.523  0.7377 -0.5187 -0.8460
  243MOL0     H32074   3.870   2.255   2.797  1.7303  2.0737 -1.2201
  243MOL0     H32075   3.658   1.484   2.497  0.3709 -0.0388 -0.5914
  243MOL0     H32076   3.448   1.352   2.486  0.8632 -0.8141 -1.2473
  244MOL0     O32077   2.657   2.138   1.201  0.9728  0.1869 -0.4067
  244MOL0     C32078   2.669   2.016   1.222  0.6689  0.6122  0.2505
  244MOL0     O32079   2.565   1.919   1.238 -0.1835 -0.5460 -0.0221
  244MOL0     C32080   2.432   1.940   1.207  0.1786  0.6617  1.0071
  244MOL0     C32081   2.336   1.852   1.268  0.7284 -1.4238 -0.2900
  244MOL0     C32082   2.200   1.882   1.242  0.8955 -0.0235 -0.7349
  244MOL0     C32083   2.154   1.971   1.147 -0.0796  0.3585  0.3834
  244MOL0     O32084   2.022   1.971   1.119  0.2426 -0.5204 -0.3601
  244MOL0     C32085   1.974   1.844   1.061  0.7079  0.1310 -0.4019
  244MOL0     C32086   1.830   1.863   1.014 -0.0462 -0.7198 -0.5613
  244MOL0     C32087   1.812   1.976   0.924 -0.1767 -0.4981  0.2048
  244MOL0     C32088   1.666   2.017   0.871  0.4325 -0.1721  0.3800
  244MOL0     C32089   1.585   1.900   0.809 -1.4228  0.7050  0.1400
  244MOL0     C32090   1.440   1.952   0.753 -0.2443 -0.4295 -0.1267
  244MOL0     C32091   1.339   1.855   0.685 -0.6605 -0.6384  0.5342
  244MOL0     C32092   1.279   1.756   0.784  0.4470 -0.2097 -0.4797
  244MOL0     N32093   1.155   1.690   0.742  0.6738 -0.9703 -0.0359
  244MOL0     C32094   1.037   1.749   0.720  0.7468  0.3708 -0.4757
  244MOL0     C32095   0.952   1.656   0.673  0.4397  0.2401 -0.1357
  244MOL0     C32096   0.806   1.671   0.644 -0.3471  0.0222  0.6324
  244MOL0     C32097   0.786   1.753   0.520 -0.0409  0.5661  0.6374
  244MOL0     C32098   0.865   1.719   0.387 -0.1613  1.0508 -0.8467
  244MOL0     C32099   0.860   1.575   0.340 -0.5025 -0.2520 -0.1799
  244MOL0     O32100   0.733   1.520   0.355 -0.5465 -0.3426  0.3657
  244MOL0     C32101   0.628   1.569   0.289 -0.2235 -0.4791 -0.3704
  244MOL0     C32102   0.511   1.567   0.356  0.0385  0.1100  0.5409
  244MOL0     C32103   0.395   1.615   0.286 -0.3016  0.1556 -0.3135
  244MOL0     C32104   0.404   1.667   0.161  1.2958  0.5640  0.9971
  244MOL0     C32105   0.288   1.723   0.088  0.3083  0.2738  0.1813
  244MOL0     O32106   0.308   1.749  -0.050 -0.3869  0.0358 -0.6016
  244MOL0     C32107   0.216   1.816  -0.123  0.2131 -1.2739  0.2959
  244MOL0     C32108   0.116   1.748  -0.203  0.7204 -0.3364  0.0098
  244MOL0     C32109   0.019   1.815  -0.274 -0.1238  0.8333  0.5592
  244MOL0     C32110   0.011   1.948  -0.278  0.1140 -0.2778 -0.0148
  244MOL0     O32111  -0.084   2.021  -0.345  0.4601 -0.3896  0.5387
  244MOL0     C32112  -0.099   1.985  -0.483  0.1887  0.8120  0.6625
  244MOL0     C32113  -0.239   2.017  -0.538  0.6478 -0.1924 -0.1316
  244MOL0     C32114  -0.336   1.917  -0.496  0.3332  0.5170  0.1421
  244MOL0     C32115  -0.473   1.939  -0.551 -0.4709  0.7133 -0.6668
  244MOL0     C32116  -0.570   1.831  -0.496 -0.2711  0.0019  0.6170
  244MOL0     C32117  -0.715   1.840  -0.543  1.1167  0.5125 -0.4658
  244MOL0     C32118  -0.780   1.945  -0.446 -0.4967 -0.4008 -0.7063
  244MOL0     C32119  -0.927   1.965  -0.459 -0.2154 -0.0876 -0.3111
  244MOL0    Cl32120  -0.981   2.102  -0.349  0.0786 -0.2434  0.3350
  244MOL0     C32121   0.109   2.019  -0.199 -0.4365 -0.9541  0.5731
  244MOL0     C32122   0.210   1.952  -0.124 -0.0737  0.1107  0.8664
  244MOL0     O32123   0.181   1.741   0.147  0.2241 -0.8092  0.2269
  244MOL0     C32124   0.528   1.680   0.097  0.0295  0.4827 -0.2814
  244MOL0     C32125   0.641   1.642   0.166  0.0143 -0.2331 -0.4057
  244MOL0     N32126   1.025   1.535   0.682 -0.2669  0.0328 -0.2030
  244MOL0     N32127   1.146   1.557   0.718  0.9285 -0.6687  0.2969
  244MOL0     C32128   2.251   2.061   1.086 -1.0703  0.2196 -0.5778
  244MOL0     C32129   2.385   2.043   1.120 -0.0823  0.3413  0.6513
  244MOL0     C32130   2.811   1.964   1.235  0.9315 -0.2342 -0.0671
  244MOL0     C32131   2.912   2.026   1.163 -0.1741 -0.3479 -0.4559
  244MOL0     C32132   3.040   1.972   1.172 -0.7800  0.1689  0.4455
  244MOL0     C32133   3.066   1.862   1.244  0.3985  0.4582  0.6016
  244MOL0     O32134   3.204   1.825   1.249 -0.3105 -0.1900 -0.3001
  244MOL0     C32135   3.240   1.722   1.340 -0.3529  0.6902  0.6994
  244MOL0     C32136   3.391   1.720   1.346  0.3190  0.0931  0.1754
  244MOL0     C32137   3.470   1.716   1.210 -0.4713  0.3795 -0.2051
  244MOL0     C32138   3.624   1.715   1.226  0.0052  0.4391 -0.1720
  244MOL0     C32139   3.689   1.844   1.257  0.9357 -0.7892  0.2202
  244MOL0     C32140   3.731   1.957   1.287 -0.7777 -0.8360 -0.5813
  244MOL0     C32141   2.959   1.791   1.298 -0.5260  0.2781  0.0548
  244MOL0     C32142   2.830   1.842   1.297 -0.5990 -0.0590  0.5289
  244MOL0     H32143   2.363   1.772   1.337  2.1629 -1.1411 -0.4965
  244MOL0     H32144   2.127   1.818   1.292 -1.0546  2.3610 -0.3747
  244MOL0     H32145   1.986   1.762   1.132 -1.5463 -1.2944 -1.5633
  244MOL0     H32146   2.038   1.814   0.977  1.1403  0.5648 -0.2326
  244MOL0     H32147   1.771   1.874   1.105 -0.1199  0.4812 -0.7410
  244MOL0     H32148   1.812   1.773   0.953  1.4800 -0.6152 -1.2317
  244MOL0     H32149   1.879   1.963   0.839 -0.4759 -0.6449 -0.0103
  244MOL0     H32150   1.852   2.068   0.970  0.3556 -1.4650  1.7599
  244MOL0     H32151   1.601   2.053   0.952 -0.5650  2.0359 -1.2937
  244MOL0     H32152   1.686   2.086   0.789  2.1909 -1.0953 -0.0112
  244MOL0     H32153   1.567   1.815   0.876  4.3196 -3.1418 -2.3798
  244MOL0     H32154   1.635   1.857   0.722  0.7616  1.2191  1.0502
  244MOL0     H32155   1.471   2.035   0.690  3.7543  0.1796  2.2673
  244MOL0     H32156   1.387   1.986   0.843  2.1999  1.9462  0.5392
  244MOL0     H32157   1.257   1.921   0.655 -2.5790 -2.2688  1.8713
  244MOL0     H32158   1.369   1.791   0.602  0.4254  0.5913 -0.0651
  244MOL0     H32159   1.250   1.813   0.873 -0.7655 -0.0994 -0.9200
  244MOL0     H32160   1.358   1.682   0.802  0.4984 -1.2227 -4.0392
  244MOL0     H32161   0.998   1.847   0.747 -0.6542 -0.0442 -0.9024
  244MOL0     H32162   0.772   1.728   0.731 -2.0348  1.0914 -0.6782
  244MOL0     H32163   0.755   1.574   0.649 -0.4952 -0.0201 -1.1046
  244MOL0     H32164   0.822   1.849   0.558 -2.4511  2.7166 -2.0420
  244MOL0     H32165   0.680   1.767   0.493 -0.5847 -3.7982 -0.1258
  244MOL0     H32166   0.824   1.782   0.307  1.1057  1.8707 -0.8683
  244MOL0     H32167   0.966   1.757   0.403  0.3438 -1.0672  1.7693
  244MOL0     H32168   0.924   1.513   0.402 -0.9168 -1.3676 -0.8215
  244MOL0     H32169   0.890   1.562   0.235  0.7088 -0.0316  0.1260
  244MOL0     H32170   0.501   1.520   0.453 -1.3609 -0.6122  0.0665
  244MOL0     H32171   0.296   1.597   0.327 -0.9519  0.4977 -1.6774
  244MOL0     H32172   0.117   1.640  -0.195 -1.2264 -0.4147 -0.3569
  244MOL0     H32173  -0.052   1.769  -0.342 -0.9299  0.4639  1.6307
  244MOL0     H32174  -0.068   1.885  -0.516  1.9286  1.4709  0.1622
  244MOL0     H32175  -0.031   2.049  -0.541 -0.6703  2.5597  1.5103
  244MOL0     H32176  -0.234   2.007  -0.647  0.4583  2.2708 -0.4167
  244MOL0     H32177  -0.252   2.123  -0.517  1.9795 -0.1020  0.3433
  244MOL0     H32178  -0.355   1.920  -0.388 -3.3636 -2.6519 -0.1786
  244MOL0     H32179  -0.314   1.815  -0.527  3.0745  1.4977 -1.4492
  244MOL0     H32180  -0.507   2.033  -0.508 -3.8903 -0.9674  0.6516
  244MOL0     H32181  -0.477   1.950  -0.660  0.2527  1.0440 -0.6640
  244MOL0     H32182  -0.572   1.832  -0.387 -0.0454  0.1021  0.6194
  244MOL0     H32183  -0.536   1.738  -0.543 -1.4642  1.1751 -2.9222
  244MOL0     H32184  -0.752   1.737  -0.545  5.2960 -1.1569 -2.2756
  244MOL0     H32185  -0.720   1.867  -0.649 -1.5654 -1.8813 -1.0671
  244MOL0     H32186  -0.759   1.904  -0.347 -0.9234 -1.5306 -1.0683
  244MOL0     H32187  -0.721   2.037  -0.449  1.1600 -1.4336 -1.1557
  244MOL0     H32188  -0.975   1.872  -0.425 -0.5578 -0.9801 -3.0422
  244MOL0     H32189  -0.947   1.992  -0.563  0.5903 -0.3151 -0.5347
  244MOL0     H32190   0.105   2.127  -0.188  2.0476 -0.4604 -2.1827
  244MOL0     H32191   0.281   2.016  -0.073  0.1731  2.6783 -2.3560
  244MOL0     H32192   0.547   1.731   0.003 -0.5110  1.4605  0.1227
  244MOL0     H32193   0.730   1.659   0.107  0.3142  0.4000  0.2241
  244MOL0     H32194   2.207   2.135   1.020  0.3081  0.9652 -0.6852
  244MOL0     H32195   2.453   2.112   1.070 -2.3114  1.3059 -1.2824
  244MOL0     H32196   2.903   2.121   1.112  0.0333  0.0112  0.1631
  244MOL0     H32197   3.122   2.024   1.124  0.2077 -1.8848 -0.2139
  244MOL0     H32198   3.198   1.629   1.301 -1.4987  0.6681  1.9122
  244MOL0     H32199   3.202   1.743   1.440  3.1979  0.9382  2.1498
  244MOL0     H32200   3.422   1.804   1.409 -0.0919  0.4349 -0.0731
  244MOL0     H32201   3.404   1.627   1.403 -0.5621 -0.6159 -0.7393
  244MOL0     H32202   3.441   1.801   1.148  1.2889  0.0661 -1.5278
  244MOL0     H32203   3.450   1.637   1.138  1.6185 -0.5672  0.1586
  244MOL0     H32204   3.651   1.644   1.304  0.9235 -0.2599 -1.0874
  244MOL0     H32205   3.666   1.670   1.135 -0.4790  2.1676 -1.3145
  244MOL0     H32206   3.753   2.059   1.313  0.4159 -1.1131 -0.4683
  244MOL0     H32207   2.971   1.690   1.338 -1.4294 -0.1139 -0.6210
  244MOL0     H32208   2.744   1.788   1.336  0.8546 -3.4560 -0.6413
  245MOL0     O32209   3.297   9.252   4.887 -0.1121 -0.2115  0.1377
  245MOL0     C32210   3.340   9.214   4.986 -0.5563  0.1000 -0.3296
  245MOL0     O32211   3.445   9.263   5.052  0.0785 -0.5951  0.0457
  245MOL0     C32212   3.514   9.352   4.969  0.2994  0.6440 -0.0951
  245MOL0     C32213   3.520   9.486   5.011 -0.6024  0.6220  1.0838
  245MOL0     C32214   3.578   9.586   4.930 -0.1710  0.9022  0.2585
  245MOL0     C32215   3.632   9.552   4.808 -0.0242  0.7462 -0.2993
  245MOL0     O32216   3.696   9.639   4.731 -0.1236  0.2600  0.0978
  245MOL0     C32217   3.837   9.650   4.743 -0.1200 -0.5067  0.3318
  245MOL0     C32218   3.875   9.792   4.687 -0.0553 -0.0718 -0.2146
  245MOL0     C32219   4.030   9.805   4.676  1.0127  0.1398  0.9620
  245MOL0     C32220   4.075   9.932   4.621 -0.7495 -0.1998 -0.2904
  245MOL0     C32221   4.226   9.931   4.587  1.1548  0.1472  0.5672
  245MOL0     C32222   4.271  10.056   4.521 -1.0780  0.0476 -0.4855
  245MOL0     C32223   4.425  10.064   4.517 -0.5398 -0.1451  0.3585
  245MOL0     C32224   4.482  10.202   4.483  0.9534  0.1968  0.3257
  245MOL0     N32225   4.623  10.209   4.524  0.7437 -0.1797  0.2905
  245MOL0     C32226   4.732  10.201   4.442 -0.1796 -0.5481  0.6023
  245MOL0     C32227   4.835  10.201   4.525 -0.8164 -0.2000 -0.3183
  245MOL0     C32228   4.980  10.218   4.486 -0.1198  0.5211  0.6178
  245MOL0     C32229   5.021  10.104   4.391  0.3111 -1.0503 -0.4739
  245MOL0     C32230   5.178  10.079   4.397  0.5034 -0.0954  0.5458
  245MOL0     C32231   5.247  10.205   4.342  0.2233  0.2086  0.5858
  245MOL0     O32232   5.383  10.173   4.322 -0.3174  0.3827 -1.1636
  245MOL0     C32233   5.460  10.249   4.251  0.3561 -1.4491 -0.8654
  245MOL0     C32234   5.586  10.201   4.235  0.5577 -0.2348  0.0535
  245MOL0     C32235   5.679  10.264   4.148 -0.6207 -0.0510 -0.1830
  245MOL0     C32236   5.637  10.378   4.080 -0.3747  0.1534  0.8743
  245MOL0     C32237   5.728  10.445   3.978 -0.1216  0.1891  0.0757
  245MOL0     O32238   5.673  10.545   3.901  0.7519 -0.1320 -0.0686
  245MOL0     C32239   5.741  10.595   3.794  0.9857  0.0716 -0.2056
  245MOL0     C32240   5.730  10.729   3.774  0.4479 -0.5049  0.1763
  245MOL0     C32241   5.788  10.795   3.672 -0.2872 -1.2486  1.0676
  245MOL0     C32242   5.888  10.734   3.598  0.8128 -0.5811  0.2368
  245MOL0     O32243   5.945  10.810   3.492 -0.4186 -0.5433  0.0374
  245MOL0     C32244   6.057  10.894   3.524 -0.6307  1.0083 -0.7976
  245MOL0     C32245   6.127  10.940   3.392  0.1856 -0.1294 -0.1300
  245MOL0     C32246   6.255  11.025   3.424 -0.0377  0.1726  0.6047
  245MOL0     C32247   6.323  11.076   3.292  0.1894 -0.5054 -0.0301
  245MOL0     C32248   6.469  11.143   3.311  0.5585  0.3163  0.0103
  245MOL0     C32249   6.581  11.031   3.320 -1.0842  0.6651  0.1187
  245MOL0     C32250   6.724  11.076   3.382 -0.0844  0.5613  0.1395
  245MOL0     C32251   6.794  11.191   3.305  0.5495  0.1170 -0.1547
  245MOL0    Cl32252   6.753  11.353   3.378  0.1218  0.3231 -0.1994
  245MOL0     C32253   5.919  10.602   3.626 -0.4690  0.3708  0.6561
  245MOL0     C32254   5.839  10.529   3.719  0.2045 -0.4256  0.4016
  245MOL0     O32255   5.845  10.416   3.977 -0.1311 -0.2124  0.5367
  245MOL0     C32256   5.511  10.427   4.096  0.0540  0.1837 -0.2905
  245MOL0     C32257   5.425  10.368   4.190  0.7007  0.7145  0.1209
  245MOL0     N32258   4.790  10.214   4.654  0.0618  0.0702 -0.9965
  245MOL0     N32259   4.659  10.224   4.652 -0.5646  0.9063 -0.4311
  245MOL0     C32260   3.608   9.425   4.749 -0.0610  0.0635 -0.7432
  245MOL0     C32261   3.569   9.320   4.840  0.1481  0.3645 -0.7155
  245MOL0     C32262   3.245   9.139   5.077  0.0946 -0.2327 -0.9731
  245MOL0     C32263   3.291   9.077   5.196 -0.6113 -0.3896  0.6269
  245MOL0     C32264   3.201   9.014   5.283  0.1306  0.6814 -0.5764
  245MOL0     C32265   3.059   9.007   5.254  0.2467  0.9562  0.0723
  245MOL0     O32266   2.995   8.923   5.343 -0.1723  0.2616 -0.3527
  245MOL0     C32267   2.855   8.891   5.335 -0.6184 -0.4874 -0.5217
  245MOL0     C32268   2.834   8.794   5.451 -0.5884 -0.7307 -0.4363
  245MOL0     C32269   2.708   8.708   5.409 -0.1332 -0.6795  0.2816
  245MOL0     C32270   2.702   8.602   5.512  0.1205 -0.0494 -0.9642
  245MOL0     C32271   2.690   8.640   5.658 -1.0584 -0.5064 -1.2219
  245MOL0     C32272   2.709   8.657   5.780  0.0320  0.4498 -0.4025
  245MOL0     C32273   3.014   9.066   5.142 -0.3924  0.3677  0.8131
  245MOL0     C32274   3.110   9.122   5.050 -0.5912  0.1956  0.8855
  245MOL0     H32275   3.489   9.519   5.109  0.8143  0.9040  1.4647
  245MOL0     H32276   3.575   9.691   4.957 -2.7257  0.9509  0.0328
  245MOL0     H32277   3.890   9.579   4.678  0.8468 -2.3764  3.0036
  245MOL0     H32278   3.871   9.624   4.844 -0.1034 -2.3501 -0.1074
  245MOL0     H32279   3.836   9.860   4.762  1.9103 -0.3096  1.1179
  245MOL0     H32280   3.826   9.810   4.591 -0.7660 -0.4012  0.0786
  245MOL0     H32281   4.066   9.724   4.612  0.1002  1.7877 -1.7919
  245MOL0     H32282   4.085   9.792   4.770  2.0160 -0.1569  0.3495
  245MOL0     H32283   4.018   9.960   4.532 -0.7548  2.6415  0.4924
  245MOL0     H32284   4.064  10.002   4.704 -0.2893 -2.3897  1.7229
  245MOL0     H32285   4.260   9.848   4.525 -0.9540  1.3331 -2.4316
  245MOL0     H32286   4.276   9.915   4.683  2.5453  2.2924  0.2736
  245MOL0     H32287   4.222  10.141   4.570  0.0913  1.6538 -1.9772
  245MOL0     H32288   4.243  10.054   4.415  0.0323  2.2753 -0.8902
  245MOL0     H32289   4.469  10.035   4.613  1.8698  0.1973 -0.5750
  245MOL0     H32290   4.464   9.994   4.443 -0.7470  2.2054 -2.1573
  245MOL0     H32291   4.431  10.286   4.529 -2.4378  0.4115 -3.2699
  245MOL0     H32292   4.474  10.225   4.376 -0.3042 -0.8474  0.1701
  245MOL0     H32293   4.744  10.216   4.335 -0.5299  0.2227  0.6682
  245MOL0     H32294   5.045  10.210   4.573  0.9581 -1.5563 -0.3018
  245MOL0     H32295   5.000  10.313   4.435  0.5118  0.7517  1.2813
  245MOL0     H32296   4.985  10.129   4.291 -0.4800 -1.0009 -0.1808
  245MOL0     H32297   4.961  10.015   4.412 -0.3391 -0.4603  0.2458
  245MOL0     H32298   5.216  10.057   4.497  1.2393  0.5783  0.4234
  245MOL0     H32299   5.210   9.998   4.330  0.3093  0.4138 -0.1743
  245MOL0     H32300   5.226  10.297   4.398 -0.4717  2.0837 -2.4962
  245MOL0     H32301   5.203  10.226   4.244 -1.3201  0.9443  1.3817
  245MOL0     H32302   5.610  10.118   4.300 -0.7334 -0.0242  0.8419
  245MOL0     H32303   5.779  10.223   4.136 -0.3762 -0.1657  1.8009
  245MOL0     H32304   5.662  10.776   3.844  0.2979 -2.4354  1.4085
  245MOL0     H32305   5.765  10.898   3.649  0.0493 -1.2351  0.7764
  245MOL0     H32306   6.130  10.830   3.574 -1.5093 -0.9460 -1.8855
  245MOL0     H32307   6.030  10.972   3.595  0.3701 -0.5686  1.4157
  245MOL0     H32308   6.055  10.994   3.329  0.6536  0.7362  0.0515
  245MOL0     H32309   6.156  10.856   3.328 -0.8544  1.5269 -2.9525
  245MOL0     H32310   6.321  10.960   3.481  0.1965 -0.1810 -0.0519
  245MOL0     H32311   6.230  11.103   3.496  0.1854 -0.3868  1.3057
  245MOL0     H32312   6.329  10.994   3.219 -2.0662 -0.4644 -0.3176
  245MOL0     H32313   6.267  11.161   3.252  0.2429 -0.3834  0.1541
  245MOL0     H32314   6.467  11.199   3.405  1.7216 -2.2912  1.6941
  245MOL0     H32315   6.502  11.200   3.224  4.4890  0.0007  1.1075
  245MOL0     H32316   6.603  10.992   3.220 -2.5473 -1.8976  0.7005
  245MOL0     H32317   6.554  10.954   3.393 -0.9522 -0.0029 -0.5266
  245MOL0     H32318   6.709  11.112   3.484 -1.0782  2.7709 -0.7270
  245MOL0     H32319   6.792  10.990   3.384 -0.8841 -0.1082 -0.6201
  245MOL0     H32320   6.773  11.177   3.199  1.7424 -1.5076 -0.2103
  245MOL0     H32321   6.903  11.180   3.302  0.7477  0.7018  2.4342
  245MOL0     H32322   5.979  10.555   3.549 -1.9868  0.6497 -0.7739
  245MOL0     H32323   5.859  10.422   3.717 -1.5037 -0.8259  1.8384
  245MOL0     H32324   5.481  10.524   4.056 -1.5520  1.0241  2.6597
  245MOL0     H32325   5.324  10.403   4.208  0.3935 -0.5986  1.1298
  245MOL0     H32326   3.637   9.411   4.646 -1.8242 -1.1367 -1.1283
  245MOL0     H32327   3.544   9.226   4.792 -2.8699  1.2492 -1.0985
  245MOL0     H32328   3.396   9.087   5.219 -0.6394  3.8019 -0.2801
  245MOL0     H32329   3.230   8.961   5.374 -1.0537 -2.7002 -2.0073
  245MOL0     H32330   2.834   8.839   5.241 -0.2440  1.0801 -1.5106
  245MOL0     H32331   2.799   8.985   5.336  0.9219  0.6529 -4.3871
  245MOL0     H32332   2.925   8.740   5.479  0.0306  0.1045 -0.7739
  245MOL0     H32333   2.811   8.845   5.545  1.1304 -0.2701 -0.2158
  245MOL0     H32334   2.731   8.660   5.313  2.9646  2.7269 -0.9506
  245MOL0     H32335   2.615   8.765   5.405 -0.8610 -1.8714 -0.7136
  245MOL0     H32336   2.609   8.552   5.484 -1.1136  2.9020 -2.6007
  245MOL0     H32337   2.789   8.536   5.496  0.0499 -0.1385 -0.9771
  245MOL0     H32338   2.704   8.669   5.886 -1.3023 -0.4057 -0.3551
  245MOL0     H32339   2.911   9.066   5.110 -1.5982 -1.7677  4.1630
  245MOL0     H32340   3.073   9.152   4.952 -2.4398 -0.0159  1.4840
  246MOL0     O32341   1.825   6.709   0.897 -0.7944 -0.2038 -0.3483
  246MOL0     C32342   1.726   6.763   0.852  0.4155  0.8796 -0.4223
  246MOL0     O32343   1.715   6.823   0.729  0.2958  0.4509 -0.9175
  246MOL0     C32344   1.828   6.839   0.652  0.3573  0.5116  0.8212
  246MOL0     C32345   1.821   6.805   0.517 -0.2315  0.0533 -0.0805
  246MOL0     C32346   1.932   6.820   0.427  0.5738 -0.0082 -0.0706
  246MOL0     C32347   2.057   6.862   0.482  0.0906  0.2869 -0.7494
  246MOL0     O32348   2.172   6.875   0.410 -0.6068  0.0063 -1.0800
  246MOL0     C32349   2.233   6.754   0.376 -0.5313 -1.4507  0.1686
  246MOL0     C32350   2.381   6.787   0.349 -0.3038 -0.6251  0.1630
  246MOL0     C32351   2.408   6.853   0.217 -0.2231 -0.2251 -0.2160
  246MOL0     C32352   2.558   6.876   0.182  0.5435 -1.2704 -0.7993
  246MOL0     C32353   2.570   6.974   0.062  0.0821  0.3349  1.0952
  246MOL0     C32354   2.541   7.121   0.082 -0.1973  1.2482 -0.3610
  246MOL0     C32355   2.614   7.203  -0.026  0.7930 -0.4787 -0.4551
  246MOL0     C32356   2.595   7.349   0.012  0.2359 -0.1333 -0.3623
  246MOL0     N32357   2.677   7.387   0.131 -0.1429 -0.4327 -0.1354
  246MOL0     C32358   2.637   7.464   0.248  0.9687  0.5467  0.6982
  246MOL0     C32359   2.755   7.487   0.318  0.0983  0.2452  0.3163
  246MOL0     C32360   2.779   7.583   0.436  0.4828 -0.8932  0.4484
  246MOL0     C32361   2.764   7.520   0.571 -1.0186 -0.4560 -0.1463
  246MOL0     C32362   2.848   7.390   0.579  0.6000 -0.7364 -0.5807
  246MOL0     C32363   2.862   7.331   0.718  0.2979 -0.6492 -0.1386
  246MOL0     O32364   2.742   7.270   0.765  0.0306  0.8819  0.3305
  246MOL0     C32365   2.722   7.244   0.896  0.0087 -0.0468 -0.3658
  246MOL0     C32366   2.609   7.302   0.953 -0.0119 -0.0709  0.4442
  246MOL0     C32367   2.557   7.267   1.075 -0.3500  0.0239  0.1787
  246MOL0     C32368   2.642   7.188   1.157  0.2766 -0.7045 -0.6090
  246MOL0     C32369   2.595   7.139   1.288 -0.1007 -0.0041  0.7737
  246MOL0     O32370   2.632   7.009   1.318  0.4773  0.6794  0.0926
  246MOL0     C32371   2.607   6.969   1.451 -0.2966 -0.3957 -0.7592
  246MOL0     C32372   2.678   7.021   1.565  0.7159  0.5707 -0.2464
  246MOL0     C32373   2.651   6.974   1.689 -0.2367  0.5928 -0.0082
  246MOL0     C32374   2.551   6.877   1.711  0.0611 -0.2464 -0.4280
  246MOL0     O32375   2.512   6.834   1.831  0.3941  0.6036  0.0605
  246MOL0     C32376   2.581   6.880   1.950  0.0431 -0.3543 -0.1334
  246MOL0     C32377   2.702   6.799   1.990 -1.0897 -0.2627 -0.3537
  246MOL0     C32378   2.768   6.826   2.128  1.1680  0.8122  0.0804
  246MOL0     C32379   2.816   6.971   2.153  0.0518 -0.0811  0.3528
  246MOL0     C32380   2.931   6.992   2.256  0.0734  1.0874 -0.5134
  246MOL0     C32381   3.073   6.974   2.203 -0.3128 -0.2827  0.6344
  246MOL0     C32382   3.111   7.091   2.103  0.7795 -0.2434  0.1613
  246MOL0     C32383   3.267   7.084   2.056 -0.3341  0.1465 -0.5617
  246MOL0    Cl32384   3.303   6.922   2.000  0.3620  0.3861 -0.1652
  246MOL0     C32385   2.480   6.830   1.605  0.6584 -0.8357 -1.2908
  246MOL0     C32386   2.513   6.875   1.472 -0.1513  0.2340 -0.3202
  246MOL0     O32387   2.528   7.219   1.361 -0.8813 -0.0623  0.0979
  246MOL0     C32388   2.769   7.150   1.114 -0.1637 -0.1143  0.9192
  246MOL0     C32389   2.796   7.156   0.976 -0.7765 -0.0766 -0.1306
  246MOL0     N32390   2.853   7.418   0.247  0.0353  0.4427 -0.1498
  246MOL0     N32391   2.806   7.355   0.135 -0.1386 -0.2520 -1.1291
  246MOL0     C32392   2.066   6.890   0.621  0.5390  0.3598 -0.7565
  246MOL0     C32393   1.956   6.883   0.700  0.4105 -0.2070 -0.2575
  246MOL0     C32394   1.608   6.769   0.946 -0.9215  0.6108 -0.0695
  246MOL0     C32395   1.489   6.822   0.907 -0.5537  0.0932 -0.8943
  246MOL0     C32396   1.383   6.827   1.006 -0.2750  0.0635 -0.0471
  246MOL0     C32397   1.393   6.766   1.134 -0.0617 -0.0313 -0.3052
  246MOL0     O32398   1.299   6.755   1.224 -0.1787  0.0887 -0.8885
  246MOL0     C32399   1.193   6.856   1.235 -0.8415 -0.2944  0.8211
  246MOL0     C32400   1.083   6.819   1.316  0.6143 -0.1342  0.3383
  246MOL0     C32401   0.957   6.915   1.310  0.2469  0.4131  0.0183
  246MOL0     C32402   0.858   6.889   1.421  0.1417 -0.3352  0.3877
  246MOL0     C32403   0.756   7.006   1.406 -0.5568  0.3709  0.8234
  246MOL0     C32404   0.671   7.086   1.378 -0.2652 -0.1484  0.6287
  246MOL0     C32405   1.517   6.709   1.161 -0.1186 -0.0124  0.0893
  246MOL0     C32406   1.621   6.707   1.067  0.0103  0.1894 -0.0507
  246MOL0     H32407   1.723   6.778   0.480 -1.4745  2.1575  1.4750
  246MOL0     H32408   1.923   6.805   0.320 -0.6593  1.8128 -0.2794
  246MOL0     H32409   2.183   6.716   0.287 -0.8472 -0.4442 -0.0985
  246MOL0     H32410   2.232   6.680   0.457 -0.5719 -0.3381  1.2140
  246MOL0     H32411   2.434   6.692   0.356  0.0919 -0.6477 -2.4331
  246MOL0     H32412   2.425   6.845   0.430  2.3836 -4.1705  1.5230
  246MOL0     H32413   2.378   6.954   0.248 -0.3543 -0.0666 -0.8507
  246MOL0     H32414   2.357   6.813   0.129  2.9714  0.9801 -2.8151
  246MOL0     H32415   2.598   6.915   0.277 -0.9050 -0.2666 -0.5577
  246MOL0     H32416   2.603   6.780   0.154  0.5639 -1.0939 -1.3831
  246MOL0     H32417   2.507   6.942  -0.022  1.7401  0.2914 -0.1876
  246MOL0     H32418   2.672   6.954   0.027  0.1491  1.1468  0.8218
  246MOL0     H32419   2.583   7.131   0.183 -1.5432  0.1573  0.3350
  246MOL0     H32420   2.436   7.150   0.086 -0.1884  1.3765 -1.0493
  246MOL0     H32421   2.717   7.167  -0.037  0.1040 -2.2437 -1.6612
  246MOL0     H32422   2.571   7.190  -0.126 -0.5723  1.3797 -0.1614
  246MOL0     H32423   2.495   7.385   0.040 -0.0852  0.1763 -1.8132
  246MOL0     H32424   2.624   7.407  -0.076  1.2022 -1.8478 -1.2189
  246MOL0     H32425   2.538   7.489   0.286  1.2164  2.1287  0.3433
  246MOL0     H32426   2.704   7.662   0.430  0.5022 -1.0001 -1.6366
  246MOL0     H32427   2.878   7.626   0.424 -0.9738  2.6556 -0.0685
  246MOL0     H32428   2.657   7.518   0.595 -1.0100  2.3554  0.4536
  246MOL0     H32429   2.809   7.576   0.653 -4.6840  1.0714  1.0317
  246MOL0     H32430   2.816   7.311   0.510  1.9799 -1.2373 -0.6671
  246MOL0     H32431   2.952   7.418   0.559  1.0592 -0.2364  2.1166
  246MOL0     H32432   2.898   7.410   0.784  0.5483  3.3799 -4.5489
  246MOL0     H32433   2.942   7.257   0.721  0.5954 -0.3013  1.1781
  246MOL0     H32434   2.550   7.364   0.886  0.1642  0.5757  0.8734
  246MOL0     H32435   2.459   7.307   1.099 -1.5135 -0.2127 -3.4559
  246MOL0     H32436   2.748   7.103   1.550  2.9083 -1.2122 -0.3580
  246MOL0     H32437   2.699   7.015   1.778 -1.1835  3.4147 -0.6989
  246MOL0     H32438   2.510   6.870   2.032 -0.6623 -0.9111 -0.7987
  246MOL0     H32439   2.616   6.984   1.948 -0.1214 -0.3091 -0.9739
  246MOL0     H32440   2.780   6.804   1.914 -1.3692 -0.9521 -0.6957
  246MOL0     H32441   2.667   6.695   1.982 -0.5455 -0.4866  0.1330
  246MOL0     H32442   2.843   6.747   2.142 -0.4779 -0.9762 -0.7483
  246MOL0     H32443   2.688   6.812   2.202 -0.6323  0.4572 -1.8319
  246MOL0     H32444   2.838   7.020   2.058 -2.5966  0.8198  0.1243
  246MOL0     H32445   2.737   7.022   2.208  1.0272  0.7765  1.0128
  246MOL0     H32446   2.918   6.910   2.327 -0.1286 -0.5747 -2.3899
  246MOL0     H32447   2.907   7.080   2.316  1.5595  1.5474 -0.5521
  246MOL0     H32448   3.105   6.880   2.158  3.1634  0.6508  0.8672
  246MOL0     H32449   3.136   6.979   2.291  0.9351 -1.0942 -0.1873
  246MOL0     H32450   3.036   7.089   2.023 -0.6033 -0.5887  1.4179
  246MOL0     H32451   3.100   7.181   2.163 -0.5695 -2.1826  3.0430
  246MOL0     H32452   3.334   7.106   2.139 -0.8515 -1.1339  0.2332
  246MOL0     H32453   3.287   7.153   1.973 -1.3120 -0.2977 -1.1869
  246MOL0     H32454   2.393   6.771   1.630  0.8325 -0.5170  0.1655
  246MOL0     H32455   2.474   6.824   1.385  1.9224 -2.0964 -0.0179
  246MOL0     H32456   2.838   7.092   1.174 -1.4619 -0.1972  2.3752
  246MOL0     H32457   2.871   7.089   0.935 -0.8911 -0.1884 -0.1593
  246MOL0     H32458   2.166   6.909   0.658  1.2527 -0.3527 -2.2270
  246MOL0     H32459   1.957   6.907   0.806 -1.0446 -0.1026 -0.2385
  246MOL0     H32460   1.468   6.850   0.805 -1.5870  0.4902 -0.5856
  246MOL0     H32461   1.293   6.874   0.965  1.2948  1.5338 -2.0240
  246MOL0     H32462   1.137   6.875   1.144 -2.1666 -2.6050  1.0556
  246MOL0     H32463   1.246   6.946   1.267 -0.6104  0.3250 -1.1954
  246MOL0     H32464   1.050   6.717   1.293 -0.1971  0.6238 -2.2384
  246MOL0     H32465   1.127   6.813   1.416  2.4188 -4.5850 -0.4873
  246MOL0     H32466   0.906   6.893   1.216 -0.7954 -0.7940  0.8313
  246MOL0     H32467   0.985   7.021   1.310  0.4001  0.3883 -1.3025
  246MOL0     H32468   0.813   6.792   1.397 -3.2619  1.4243 -1.0671
  246MOL0     H32469   0.904   6.877   1.519  0.7875 -4.5442 -0.2485
  246MOL0     H32470   0.593   7.148   1.341  1.6462  1.7690 -0.4192
  246MOL0     H32471   1.527   6.648   1.251  0.4307 -4.5627 -2.7240
  246MOL0     H32472   1.710   6.655   1.101 -1.5623 -1.8829  1.1153
  247MOL0     O32473  11.049   1.397   0.562  0.0185  0.1020  0.2744
  247MOL0     C32474  11.054   1.294   0.622  0.1867 -0.1766 -0.5897
  247MOL0     O32475  11.165   1.228   0.647  0.3135  0.1066  0.6428
  247MOL0     C32476  11.293   1.264   0.615 -0.6254  0.1482 -0.5093
  247MOL0     C32477  11.381   1.178   0.685  0.2791 -0.1346  0.3005
  247MOL0     C32478  11.512   1.191   0.669 -1.3567  0.8069 -0.6251
  247MOL0     C32479  11.572   1.290   0.588 -0.2716  0.6315 -0.0587
  247MOL0     O32480  11.713   1.307   0.580  0.0405 -0.7412 -0.1985
  247MOL0     C32481  11.794   1.257   0.691  0.4844 -0.2401  0.8013
  247MOL0     C32482  11.919   1.340   0.706 -0.5042  0.0800 -0.2630
  247MOL0     C32483  12.010   1.262   0.803  0.1125 -0.3099  0.1440
  247MOL0     C32484  12.127   1.357   0.844 -0.0036  0.4784 -0.8323
  247MOL0     C32485  12.235   1.297   0.926 -0.2103  0.8310 -0.3884
  247MOL0     C32486  12.191   1.192   1.028 -0.8256  0.4732  0.5351
  247MOL0     C32487  12.303   1.175   1.129  0.4759  0.2140  0.3642
  247MOL0     C32488  12.297   1.028   1.201 -0.7240 -0.0624  1.0657
  247MOL0     N32489  12.182   1.019   1.290  0.9212 -0.9439  0.5645
  247MOL0     C32490  12.153   1.088   1.403  0.0742 -0.6421 -0.0755
  247MOL0     C32491  12.025   1.056   1.442 -0.4034 -0.2873 -0.1679
  247MOL0     C32492  11.948   1.137   1.550 -0.0488  1.0244 -0.5525
  247MOL0     C32493  11.808   1.077   1.572  0.5875 -0.7402 -0.2736
  247MOL0     C32494  11.749   1.148   1.698 -0.1299 -0.3797  0.6802
  247MOL0     C32495  11.629   1.075   1.767 -0.2553 -0.7675 -0.6313
  247MOL0     O32496  11.522   1.054   1.670 -0.2666 -0.7484 -0.0925
  247MOL0     C32497  11.389   1.075   1.684 -0.9268  0.3763  0.5943
  247MOL0     C32498  11.325   1.103   1.805  0.2621  0.5294  1.2042
  247MOL0     C32499  11.186   1.125   1.801  0.8350 -0.9392 -0.2277
  247MOL0     C32500  11.104   1.114   1.686 -0.1727 -0.8511 -0.1552
  247MOL0     C32501  10.964   1.140   1.694  0.6292  0.0891 -0.0559
  247MOL0     O32502  10.923   1.214   1.798  0.2228  0.4093  0.3945
  247MOL0     C32503  10.791   1.250   1.800  0.2886  0.3533 -0.3916
  247MOL0     C32504  10.779   1.380   1.844  0.6630 -0.4319 -0.9163
  247MOL0     C32505  10.651   1.431   1.881  0.1531  0.3376 -0.2985
  247MOL0     C32506  10.539   1.353   1.870 -0.4792  0.3768 -0.0259
  247MOL0     O32507  10.417   1.391   1.911  0.0406  0.5356  0.8627
  247MOL0     C32508  10.409   1.421   2.051  0.1218  0.5921  0.4606
  247MOL0     C32509  10.280   1.375   2.102  0.3649  0.4897 -0.0561
  247MOL0     C32510  10.249   1.228   2.067  0.1753  0.0674  0.3064
  247MOL0     C32511  10.125   1.187   2.138  1.5494  0.3924  0.0024
  247MOL0     C32512  10.109   1.028   2.121 -0.6404 -0.6545 -0.9999
  247MOL0     C32513   9.960   0.984   2.118 -0.9678  0.1838  0.4164
  247MOL0     C32514   9.961   0.826   2.080  0.3772 -0.1273 -0.2580
  247MOL0     C32515   9.823   0.756   2.075  0.4507 -0.6943  0.8018
  247MOL0    Cl32516   9.750   0.751   2.241  0.4379 -0.5380  0.3512
  247MOL0     C32517  10.548   1.227   1.805  0.7314  0.8938 -0.8628
  247MOL0     C32518  10.671   1.172   1.781 -0.8607  0.0943  0.2831
  247MOL0     O32519  10.889   1.092   1.603  0.5427 -0.5993  1.0144
  247MOL0     C32520  11.172   1.071   1.570 -0.9357  0.3142 -0.1280
  247MOL0     C32521  11.316   1.056   1.567 -0.4627 -0.3060  0.8813
  247MOL0     N32522  11.980   0.962   1.343 -1.3253 -0.0676 -0.1699
  247MOL0     N32523  12.079   0.947   1.261  0.1693 -0.1804 -0.0259
  247MOL0     C32524  11.487   1.371   0.511  0.1639 -0.5520  1.4572
  247MOL0     C32525  11.345   1.364   0.529 -1.0027 -1.0977 -0.3504
  247MOL0     C32526  10.924   1.275   0.689 -0.4991  0.1378 -0.8306
  247MOL0     C32527  10.920   1.223   0.824  0.2601 -0.3882 -0.1533
  247MOL0     C32528  10.794   1.207   0.891 -0.1206 -0.1027  0.1319
  247MOL0     C32529  10.679   1.249   0.837 -0.0483  0.4155 -0.2646
  247MOL0     O32530  10.569   1.250   0.922 -0.1551 -0.0536 -0.0660
  247MOL0     C32531  10.470   1.149   0.912  0.5220  0.0106 -0.1637
  247MOL0     C32532  10.334   1.219   0.893  0.0809  0.5810  0.4114
  247MOL0     C32533  10.299   1.316   1.010  0.0333 -0.0291 -0.2164
  247MOL0     C32534  10.269   1.249   1.143 -1.2828 -0.2028 -0.3398
  247MOL0     C32535  10.171   1.146   1.129 -0.2477  0.1881 -0.1844
  247MOL0     C32536  10.098   1.053   1.100 -0.4237 -1.1780  0.6024
  247MOL0     C32537  10.682   1.308   0.708 -0.4134  0.8149 -0.8770
  247MOL0     C32538  10.804   1.310   0.639 -0.0584 -0.2731  0.6022
  247MOL0     H32539  11.332   1.108   0.751 -2.9683  0.8597 -0.8552
  247MOL0     H32540  11.570   1.117   0.723 -3.2000 -1.7114 -1.8876
  247MOL0     H32541  11.813   1.151   0.672 -0.7883 -0.4868  0.8340
  247MOL0     H32542  11.742   1.277   0.785 -0.7283 -1.2832  0.3720
  247MOL0     H32543  11.887   1.439   0.738  0.0037  0.3560 -0.5850
  247MOL0     H32544  11.964   1.358   0.608 -1.2793 -1.0688 -0.8527
  247MOL0     H32545  12.033   1.173   0.745 -1.1602 -0.0828 -0.7349
  247MOL0     H32546  11.947   1.241   0.890 -0.3219 -3.3071 -0.8073
  247MOL0     H32547  12.168   1.401   0.752 -1.5112  0.9065 -1.3250
  247MOL0     H32548  12.081   1.439   0.901  1.9988  0.4425  0.9763
  247MOL0     H32549  12.288   1.375   0.981  1.6903 -0.5198 -0.1927
  247MOL0     H32550  12.298   1.245   0.854  2.1355 -0.0483  2.1550
  247MOL0     H32551  12.157   1.096   0.989 -0.4098 -0.8538  3.2104
  247MOL0     H32552  12.116   1.239   1.091  0.8185  0.8288  2.3393
  247MOL0     H32553  12.392   1.182   1.066 -0.6039  1.8479 -1.0584
  247MOL0     H32554  12.301   1.253   1.205  0.0162 -1.2094  1.8788
  247MOL0     H32555  12.377   1.022   1.274 -2.7551  0.4368  3.4912
  247MOL0     H32556  12.303   0.963   1.114 -1.9444  3.8764 -2.3167
  247MOL0     H32557  12.229   1.156   1.438 -2.1500  2.0861 -0.1950
  247MOL0     H32558  11.932   1.242   1.521  2.5300  1.4076 -0.7563
  247MOL0     H32559  12.010   1.142   1.639  2.7082 -3.0194 -1.9713
  247MOL0     H32560  11.811   0.972   1.601 -1.0978 -0.0325  2.8479
  247MOL0     H32561  11.751   1.101   1.481  0.8438 -4.1711 -1.5021
  247MOL0     H32562  11.827   1.163   1.773  1.2449  3.5424 -1.2634
  247MOL0     H32563  11.721   1.250   1.670 -0.1704  0.3576  3.2293
  247MOL0     H32564  11.598   1.139   1.850 -0.2628  0.1279 -1.3162
  247MOL0     H32565  11.653   0.974   1.800 -0.5968 -1.5445 -2.6167
  247MOL0     H32566  11.387   1.095   1.893  1.3122 -3.1441  0.3083
  247MOL0     H32567  11.139   1.139   1.898 -0.3923  0.8939 -1.0377
  247MOL0     H32568  10.860   1.452   1.851  1.0116 -0.7588 -1.5677
  247MOL0     H32569  10.639   1.532   1.921  0.3856 -0.7163  2.6997
  247MOL0     H32570  10.427   1.527   2.073  1.1695  0.3670  0.7693
  247MOL0     H32571  10.487   1.372   2.111  2.5668  1.6065 -1.6827
  247MOL0     H32572  10.202   1.438   2.058  0.4922  0.5026 -0.2582
  247MOL0     H32573  10.282   1.383   2.211  2.5656 -0.2740 -0.0046
  247MOL0     H32574  10.331   1.158   2.084  0.6399  0.7378  0.9004
  247MOL0     H32575  10.222   1.232   1.961  2.7620  1.4814 -0.3756
  247MOL0     H32576  10.123   1.214   2.244  0.6726 -0.2118  0.1487
  247MOL0     H32577  10.040   1.226   2.081 -0.2511 -2.7552  0.3027
  247MOL0     H32578  10.148   0.988   2.215  1.9197  1.5340 -1.0115
  247MOL0     H32579  10.168   1.011   2.030  3.2059  0.5517  1.0592
  247MOL0     H32580   9.918   1.056   2.047  2.9059  2.1395 -0.1979
  247MOL0     H32581   9.907   1.004   2.211 -0.5605 -0.7430  0.8682
  247MOL0     H32582   9.997   0.814   1.977 -2.2988 -0.1253 -1.2721
  247MOL0     H32583  10.015   0.772   2.157  2.5546  2.1375 -0.0746
  247MOL0     H32584   9.818   0.658   2.026  1.0982  0.5900 -2.0551
  247MOL0     H32585   9.759   0.816   2.010  1.6205 -0.8304 -0.5269
  247MOL0     H32586  10.464   1.178   1.757 -0.1278  1.7859 -0.2918
  247MOL0     H32587  10.679   1.076   1.732  1.3516  0.6874 -0.6197
  247MOL0     H32588  11.128   1.037   1.476 -0.7771 -3.2512  0.9240
  247MOL0     H32589  11.366   1.016   1.480 -0.0504  0.3660  0.8030
  247MOL0     H32590  11.525   1.454   0.453 -2.9939  3.2871  4.3575
  247MOL0     H32591  11.281   1.433   0.476 -0.4051 -0.1524  0.1240
  247MOL0     H32592  11.010   1.191   0.874  0.6169 -3.2408 -2.4223
  247MOL0     H32593  10.781   1.156   0.986  0.6091  1.9825  1.4409
  247MOL0     H32594  10.475   1.086   1.002  0.9788  0.1664 -0.0782
  247MOL0     H32595  10.494   1.084   0.827  0.8104 -2.0367  1.3930
  247MOL0     H32596  10.344   1.284   0.806 -1.0782 -2.4881 -2.2216
  247MOL0     H32597  10.255   1.147   0.870  0.3049  1.3650 -3.4861
  247MOL0     H32598  10.218   1.378   0.972 -0.4352 -0.4141  0.1303
  247MOL0     H32599  10.381   1.388   1.016  1.5373 -1.6113 -0.8826
  247MOL0     H32600  10.366   1.214   1.180 -0.9728  2.5716  1.8592
  247MOL0     H32601  10.236   1.321   1.218  2.8867  0.7549  0.8764
  247MOL0     H32602  10.017   0.988   1.075  0.4538 -1.1245 -2.9121
  247MOL0     H32603  10.600   1.362   0.661  0.2725  1.9601 -0.7936
  247MOL0     H32604  10.796   1.346   0.537  3.3516 -0.7842  0.0145
  248MOL0     O32605   8.540   9.640   2.751 -0.3139 -0.7986  0.7562
  248MOL0     C32606   8.549   9.740   2.675 -0.9950  0.4672  0.1456
  248MOL0     O32607   8.494   9.867   2.697  0.0072 -0.6233 -0.0314
  248MOL0     C32608   8.363   9.864   2.748 -0.5326 -0.4833  0.5788
  248MOL0     C32609   8.262   9.882   2.662  0.2251  0.2160  0.3122
  248MOL0     C32610   8.128   9.861   2.711  0.2961  0.1767  0.6122
  248MOL0     C32611   8.107   9.857   2.842  0.2993  0.6351  0.2538
  248MOL0     O32612   7.972   9.850   2.879  0.5397  0.0712  0.0586
  248MOL0     C32613   7.942   9.736   2.956 -0.0187  0.9738  0.6159
  248MOL0     C32614   7.790   9.717   2.966  0.3339 -0.2201 -0.7364
  248MOL0     C32615   7.749   9.580   3.029  0.0015 -0.4005 -0.6867
  248MOL0     C32616   7.598   9.554   2.996  0.7759  0.0952 -0.5032
  248MOL0     C32617   7.536   9.458   3.100  0.2473 -1.0174 -0.1868
  248MOL0     C32618   7.397   9.512   3.125 -0.0916 -1.2495 -0.6028
  248MOL0     C32619   7.313   9.422   3.208  0.2133  0.7414 -0.6295
  248MOL0     C32620   7.371   9.390   3.349 -0.5047 -0.4099 -0.5020
  248MOL0     N32621   7.281   9.294   3.410 -0.0180 -0.4332 -0.2443
  248MOL0     C32622   7.208   9.309   3.521  0.0943  0.6477 -0.4706
  248MOL0     C32623   7.149   9.194   3.541 -1.3151 -0.2709 -0.2931
  248MOL0     C32624   7.042   9.172   3.640  0.1256 -0.0072  0.0571
  248MOL0     C32625   7.056   9.048   3.727 -0.4227  0.8035 -0.4477
  248MOL0     C32626   6.956   9.023   3.839  0.5147 -0.5158 -0.3665
  248MOL0     C32627   6.829   8.932   3.820 -0.3723  0.2572  0.1027
  248MOL0     O32628   6.717   9.015   3.801 -0.9597  0.8668  1.0781
  248MOL0     C32629   6.636   9.041   3.908 -0.7091  0.2511  0.4466
  248MOL0     C32630   6.513   9.093   3.888 -0.2048 -1.2123  0.2906
  248MOL0     C32631   6.432   9.132   3.991 -0.0690  0.1239 -0.3769
  248MOL0     C32632   6.457   9.104   4.122  0.3868  0.2532 -0.7801
  248MOL0     C32633   6.350   9.123   4.220 -0.1320 -0.1553 -0.6797
  248MOL0     O32634   6.225   9.163   4.176 -0.6638 -0.2304 -0.0542
  248MOL0     C32635   6.133   9.177   4.277  0.2578  0.7935  0.4461
  248MOL0     C32636   6.145   9.279   4.368 -0.6041  0.5793  0.1977
  248MOL0     C32637   6.049   9.288   4.465  0.6604 -0.6865 -0.1066
  248MOL0     C32638   5.931   9.220   4.460 -0.2220  0.9432  0.0660
  248MOL0     O32639   5.843   9.240   4.564  0.1494  0.4213  0.1333
  248MOL0     C32640   5.701   9.215   4.551  0.0486  0.0671 -0.3468
  248MOL0     C32641   5.640   9.242   4.691 -0.1852  0.0390  0.4036
  248MOL0     C32642   5.599   9.389   4.718 -0.3933  0.5538  0.6090
  248MOL0     C32643   5.720   9.480   4.726 -0.3307  0.7198  1.0974
  248MOL0     C32644   5.687   9.612   4.799  0.0687  0.2631 -0.1353
  248MOL0     C32645   5.801   9.708   4.806 -0.4738 -0.1049  0.5070
  248MOL0     C32646   5.755   9.836   4.878 -0.4109  0.2747  0.3249
  248MOL0     C32647   5.875   9.940   4.890 -0.4573  1.4036  0.8328
  248MOL0    Cl32648   6.026   9.866   4.956 -0.1974 -0.0040  0.3556
  248MOL0     C32649   5.914   9.118   4.359  0.0004 -1.7479 -0.2885
  248MOL0     C32650   6.013   9.096   4.268  0.0418  0.4980  0.8444
  248MOL0     O32651   6.380   9.085   4.336  0.5961  0.1328 -0.8144
  248MOL0     C32652   6.584   9.053   4.152  0.1468 -0.4750  1.0424
  248MOL0     C32653   6.678   9.034   4.044 -0.0510  0.4148  0.1835
  248MOL0     N32654   7.187   9.102   3.445 -0.1947  0.4283 -0.6024
  248MOL0     N32655   7.269   9.165   3.361  0.2073  0.4191  0.5333
  248MOL0     C32656   8.214   9.858   2.936  0.0750 -0.1919 -0.8940
  248MOL0     C32657   8.339   9.856   2.887  0.4817  0.0870  0.4577
  248MOL0     C32658   8.636   9.731   2.561 -0.6081 -0.2339 -0.1372
  248MOL0     C32659   8.735   9.633   2.561 -0.3129  0.5101 -0.0738
  248MOL0     C32660   8.827   9.620   2.452 -0.2043 -0.0681 -0.0146
  248MOL0     C32661   8.824   9.713   2.351 -0.1627  0.6117 -0.4489
  248MOL0     O32662   8.926   9.701   2.255 -0.5543  0.1262 -0.2959
  248MOL0     C32663   8.920   9.792   2.141 -0.5648 -0.2621 -0.4527
  248MOL0     C32664   9.031   9.773   2.037  0.2620 -0.2675 -0.5502
  248MOL0     C32665   9.022   9.886   1.932 -0.1955  0.2963 -0.3449
  248MOL0     C32666   8.948   9.847   1.793 -0.2456  0.7868 -1.3215
  248MOL0     C32667   8.955   9.939   1.687 -0.1373 -0.0701 -0.2674
  248MOL0     C32668   8.962  10.024   1.602 -0.5712  0.4046  0.3891
  248MOL0     C32669   8.730   9.816   2.346 -0.2932  0.2587  0.0843
  248MOL0     C32670   8.642   9.823   2.454  0.8516  0.4559  0.8774
  248MOL0     H32671   8.276   9.886   2.554 -1.0751  2.0685  0.1696
  248MOL0     H32672   8.045   9.876   2.643  2.3793  2.9767 -1.5702
  248MOL0     H32673   7.974   9.742   3.061 -3.1228  0.9790  1.6573
  248MOL0     H32674   7.983   9.648   2.906 -3.0561 -0.1123 -0.1535
  248MOL0     H32675   7.742   9.731   2.868 -0.6111  1.1092 -0.1211
  248MOL0     H32676   7.737   9.788   3.031  0.1065 -2.3232  1.5023
  248MOL0     H32677   7.758   9.586   3.138 -0.4534  1.1013 -0.7176
  248MOL0     H32678   7.802   9.488   3.002 -1.4133 -0.4885 -3.5902
  248MOL0     H32679   7.536   9.643   2.976 -3.1958 -2.2820  0.1451
  248MOL0     H32680   7.587   9.505   2.898 -2.9830  1.6623 -1.0494
  248MOL0     H32681   7.587   9.484   3.193  0.7262  2.9947 -1.3793
  248MOL0     H32682   7.538   9.354   3.067  1.3594 -1.3454  0.8685
  248MOL0     H32683   7.343   9.525   3.031  1.0772  3.5825 -0.8829
  248MOL0     H32684   7.396   9.608   3.178 -2.3866 -1.5663  0.0448
  248MOL0     H32685   7.212   9.464   3.216  0.3830  1.0185  0.1110
  248MOL0     H32686   7.279   9.330   3.159 -1.6527  0.4953  0.9815
  248MOL0     H32687   7.386   9.481   3.407  1.1978  2.0503 -4.4056
  248MOL0     H32688   7.468   9.342   3.333 -0.5131 -1.8179  2.8871
  248MOL0     H32689   7.204   9.397   3.585  2.2217  0.6632 -0.2819
  248MOL0     H32690   6.946   9.178   3.588 -0.1478  1.5619  0.6754
  248MOL0     H32691   7.031   9.255   3.711  1.9834  0.6204 -0.3341
  248MOL0     H32692   7.158   9.062   3.765 -0.2810 -1.4066  0.1577
  248MOL0     H32693   7.061   8.961   3.660  2.1525  0.7155 -0.2731
  248MOL0     H32694   7.017   8.995   3.925  1.5453  1.3567 -0.4208
  248MOL0     H32695   6.925   9.126   3.861  0.8644 -0.5602  0.3546
  248MOL0     H32696   6.821   8.846   3.887  0.4855  0.8401  0.9713
  248MOL0     H32697   6.837   8.885   3.721 -1.3926  0.3355 -0.0252
  248MOL0     H32698   6.486   9.104   3.783 -1.1939  1.3286  0.7479
  248MOL0     H32699   6.335   9.173   3.968  0.2406  0.4620 -1.1315
  248MOL0     H32700   6.231   9.345   4.368  1.0144 -1.3386 -2.2330
  248MOL0     H32701   6.074   9.360   4.543 -1.1587  2.7853 -2.4501
  248MOL0     H32702   5.685   9.113   4.517  0.0081 -0.0649  0.0698
  248MOL0     H32703   5.650   9.285   4.484 -3.3214 -1.4633  0.3967
  248MOL0     H32704   5.706   9.202   4.769 -0.6824  0.4314  1.0464
  248MOL0     H32705   5.545   9.188   4.695 -1.7374  2.6300  1.1660
  248MOL0     H32706   5.535   9.397   4.806 -2.2556 -1.1329 -0.5003
  248MOL0     H32707   5.536   9.418   4.634  3.4491  1.5219 -2.2240
  248MOL0     H32708   5.790   9.429   4.792  1.4706  1.6518 -0.0354
  248MOL0     H32709   5.765   9.494   4.627  1.9480 -3.2293  1.3496
  248MOL0     H32710   5.653   9.589   4.901 -1.3214 -0.5819 -0.7603
  248MOL0     H32711   5.606   9.649   4.735 -0.1700  0.6742  0.3969
  248MOL0     H32712   5.856   9.737   4.716  2.8247 -0.0065  2.3997
  248MOL0     H32713   5.872   9.659   4.872 -0.5602  0.0346  0.7044
  248MOL0     H32714   5.672   9.884   4.826  1.2966  2.2526 -0.7202
  248MOL0     H32715   5.702   9.814   4.971  0.4360  0.5947  0.8987
  248MOL0     H32716   5.842  10.022   4.954 -1.8788  0.9474  0.7301
  248MOL0     H32717   5.898   9.979   4.790  0.0839  0.3750  0.5394
  248MOL0     H32718   5.825   9.057   4.365  1.3513 -3.6850  3.8623
  248MOL0     H32719   5.988   9.031   4.184 -3.1289  1.6720  0.7450
  248MOL0     H32720   6.607   9.029   4.255  1.1910 -1.9412  0.4982
  248MOL0     H32721   6.775   9.003   4.080  1.1476  5.1480  1.7545
  248MOL0     H32722   8.191   9.860   3.042 -1.5656  3.7315 -1.1785
  248MOL0     H32723   8.420   9.833   2.956  1.7656 -0.0102 -1.0213
  248MOL0     H32724   8.742   9.554   2.635 -0.1681 -0.1374 -0.7614
  248MOL0     H32725   8.907   9.547   2.451  2.6153  2.7897 -1.8408
  248MOL0     H32726   8.934   9.895   2.177 -2.7285  0.4411 -1.4709
  248MOL0     H32727   8.820   9.786   2.097 -0.9343  1.1330  0.1279
  248MOL0     H32728   9.131   9.760   2.078  0.7303  1.5330 -1.0174
  248MOL0     H32729   9.014   9.676   1.989  0.9433 -1.5788  1.7339
  248MOL0     H32730   9.123   9.922   1.909  2.5027 -4.2210  2.9048
  248MOL0     H32731   8.972   9.971   1.980 -1.1244 -0.4383  0.0088
  248MOL0     H32732   9.001   9.759   1.753  2.4748  2.2414 -1.1919
  248MOL0     H32733   8.843   9.828   1.816 -0.4375  0.1417 -2.6033
  248MOL0     H32734   8.959  10.096   1.523 -1.0400  0.3693  0.3730
  248MOL0     H32735   8.722   9.892   2.270 -2.0444 -3.6283 -4.0844
  248MOL0     H32736   8.568   9.903   2.456 -0.8184 -1.0274  1.0788
  249MOL0     O32737   1.155   0.957   7.641  0.5390  0.2005  0.1179
  249MOL0     C32738   1.057   0.972   7.714 -0.5679 -0.6254 -0.3830
  249MOL0     O32739   0.954   1.068   7.691  0.5618 -0.1556 -0.8199
  249MOL0     C32740   1.000   1.183   7.632 -0.6816 -0.3939  0.1858
  249MOL0     C32741   1.131   1.239   7.641 -0.4663 -0.4035  0.5167
  249MOL0     C32742   1.164   1.368   7.599  0.2317 -0.2351  0.1813
  249MOL0     C32743   1.047   1.449   7.549  0.0874 -0.2482 -0.0807
  249MOL0     O32744   1.059   1.571   7.488 -0.2229  0.6487 -0.1712
  249MOL0     C32745   1.169   1.653   7.542  0.3474  0.2451 -0.5238
  249MOL0     C32746   1.113   1.801   7.537  0.1777  0.1125 -0.2673
  249MOL0     C32747   1.073   1.849   7.390  0.5108  0.6639 -0.3453
  249MOL0     C32748   1.175   1.797   7.278  0.8954 -0.0698  0.2810
  249MOL0     C32749   1.144   1.845   7.135  0.2626 -1.0152  1.0394
  249MOL0     C32750   1.199   1.986   7.115 -0.2354 -0.6453  1.0767
  249MOL0     C32751   1.132   2.052   6.986 -1.0201 -0.2918 -0.3108
  249MOL0     C32752   1.222   2.160   6.911  0.4774 -1.2625  0.5668
  249MOL0     N32753   1.167   2.198   6.780  0.1722  0.9015  0.2487
  249MOL0     C32754   1.213   2.174   6.651 -0.7874  0.1658  0.3721
  249MOL0     C32755   1.135   2.250   6.576  0.3446  0.2472 -0.1804
  249MOL0     C32756   1.143   2.259   6.423 -0.7814  0.6480 -0.3202
  249MOL0     C32757   1.021   2.200   6.342 -0.3134  0.1125 -0.1706
  249MOL0     C32758   1.002   2.258   6.211  0.4282  0.3605  0.1741
  249MOL0     C32759   0.864   2.316   6.192 -0.9906  0.0868 -0.1548
  249MOL0     O32760   0.771   2.209   6.173 -0.3789 -0.4300 -0.2652
  249MOL0     C32761   0.643   2.254   6.143 -0.2432  0.3460  0.2878
  249MOL0     C32762   0.569   2.153   6.089  0.3103  0.7714  0.4147
  249MOL0     C32763   0.436   2.180   6.057  0.8809  0.3832 -0.2017
  249MOL0     C32764   0.372   2.305   6.085  0.0548 -0.6672  0.0231
  249MOL0     C32765   0.227   2.329   6.070  0.2444 -0.3208 -0.6004
  249MOL0     O32766   0.167   2.457   6.062 -0.5678  0.3705  0.5301
  249MOL0     C32767   0.032   2.472   6.073 -0.0578  0.3411  0.0935
  249MOL0     C32768  -0.008   2.588   6.146  1.2094  0.2048  0.8587
  249MOL0     C32769  -0.144   2.628   6.136 -0.0191  1.0020 -0.3075
  249MOL0     C32770  -0.238   2.556   6.053  0.0324  0.3111 -0.4479
  249MOL0     O32771  -0.368   2.606   6.052  0.5613 -0.3110 -0.2303
  249MOL0     C32772  -0.486   2.528   6.015  0.4257  0.9335  0.2243
  249MOL0     C32773  -0.574   2.507   6.136  0.6814  0.0596  0.3986
  249MOL0     C32774  -0.701   2.432   6.106 -0.2073 -0.0558 -0.0310
  249MOL0     C32775  -0.790   2.522   6.019 -0.4039 -0.3496 -0.1690
  249MOL0     C32776  -0.927   2.471   6.029  0.4376  0.0067  0.3104
  249MOL0     C32777  -0.996   2.528   6.155 -0.1240  0.5874  0.9372
  249MOL0     C32778  -1.137   2.472   6.169  0.2470 -0.5010 -0.5864
  249MOL0     C32779  -1.211   2.529   6.284  0.5809 -0.0214  0.1198
  249MOL0    Cl32780  -1.377   2.469   6.275  0.6509  0.1215 -0.0804
  249MOL0     C32781  -0.195   2.443   5.987 -0.8170  0.2575  0.2325
  249MOL0     C32782  -0.061   2.397   6.008  0.2364 -0.4268 -0.2550
  249MOL0     O32783   0.166   2.225   6.087  0.4519  0.3534 -0.7179
  249MOL0     C32784   0.456   2.411   6.125  0.4903 -0.0391  0.0179
  249MOL0     C32785   0.586   2.383   6.154 -0.2566  0.3514  0.0597
  249MOL0     N32786   1.059   2.333   6.657  0.7248  0.1824 -0.2580
  249MOL0     N32787   1.090   2.301   6.777 -0.3941  0.1128  0.1282
  249MOL0     C32788   0.920   1.392   7.542 -1.0893  0.0943 -0.1732
  249MOL0     C32789   0.902   1.265   7.584  0.0406  1.0884 -0.1280
  249MOL0     C32790   1.040   0.869   7.824  1.1379  0.1057  0.5733
  249MOL0     C32791   1.144   0.776   7.855 -1.3150 -0.8651 -0.1527
  249MOL0     C32792   1.133   0.695   7.962  0.3050 -0.4081  0.0787
  249MOL0     C32793   1.016   0.703   8.043  1.2753 -0.2051 -0.9053
  249MOL0     O32794   0.979   0.618   8.146 -0.5778  1.0433 -0.5439
  249MOL0     C32795   1.053   0.507   8.183  0.6201 -0.0632  0.1058
  249MOL0     C32796   0.977   0.431   8.303 -0.7081 -0.6461  0.4913
  249MOL0     C32797   1.054   0.347   8.409 -0.3464  0.6925  0.5919
  249MOL0     C32798   1.157   0.256   8.348 -0.8572 -0.7568 -0.0963
  249MOL0     C32799   1.215   0.165   8.453  0.0103 -0.9649  0.7546
  249MOL0     C32800   1.225   0.079   8.539  0.1270  0.3243  0.2959
  249MOL0     C32801   0.914   0.799   8.013  0.0322  0.5834 -1.0364
  249MOL0     C32802   0.921   0.873   7.901  0.4178  0.2081 -0.2582
  249MOL0     H32803   1.216   1.184   7.681 -1.3890 -2.2617  0.0513
  249MOL0     H32804   1.265   1.408   7.600  0.5719 -0.9379 -1.9333
  249MOL0     H32805   1.263   1.640   7.486  0.6630  1.1222 -0.2091
  249MOL0     H32806   1.191   1.628   7.646 -2.8580  3.6591  1.1947
  249MOL0     H32807   1.193   1.872   7.559  0.7694 -0.9621  1.2628
  249MOL0     H32808   1.035   1.812   7.614  2.4483 -2.4581  2.6490
  249MOL0     H32809   1.057   1.957   7.382 -2.7139  0.1775 -1.6878
  249MOL0     H32810   0.977   1.800   7.370  1.6344 -1.8178 -0.0983
  249MOL0     H32811   1.271   1.837   7.312  0.1827  1.5002  0.5574
  249MOL0     H32812   1.176   1.688   7.269 -1.8656 -0.2446  0.8848
  249MOL0     H32813   1.036   1.847   7.125  0.3975 -2.0006 -0.8325
  249MOL0     H32814   1.180   1.785   7.051 -3.2968  0.9251 -2.1681
  249MOL0     H32815   1.308   1.984   7.108 -0.3101 -4.0455 -2.5955
  249MOL0     H32816   1.168   2.047   7.201  1.3887  2.3097 -0.3035
  249MOL0     H32817   1.097   1.981   6.911 -0.9731  0.8383 -1.4463
  249MOL0     H32818   1.036   2.100   7.006 -0.5137  1.1757 -1.2106
  249MOL0     H32819   1.323   2.121   6.899  0.9012 -1.3164  3.5971
  249MOL0     H32820   1.230   2.248   6.976  1.1237 -1.3182  0.5657
  249MOL0     H32821   1.292   2.106   6.620  0.4779  0.6978  2.2331
  249MOL0     H32822   1.234   2.204   6.398  0.0564 -0.3295  4.1131
  249MOL0     H32823   1.146   2.362   6.386 -0.5014  1.8788  2.8157
  249MOL0     H32824   0.933   2.208   6.407  1.0984  0.8000  1.7726
  249MOL0     H32825   1.027   2.091   6.338 -1.9455 -0.0804  1.4160
  249MOL0     H32826   1.079   2.335   6.199  0.6050  0.8936  3.6889
  249MOL0     H32827   1.017   2.179   6.137  1.0190  0.7506 -0.1271
  249MOL0     H32828   0.879   2.383   6.107  1.4700 -0.2220 -0.0461
  249MOL0     H32829   0.839   2.373   6.282  0.8054 -1.4065  1.3725
  249MOL0     H32830   0.613   2.055   6.069 -1.8115 -0.1233 -0.1361
  249MOL0     H32831   0.387   2.092   6.016  1.2954 -0.4662  1.0791
  249MOL0     H32832   0.074   2.633   6.202  1.7829 -0.6102  0.6938
  249MOL0     H32833  -0.186   2.712   6.193 -0.1680  0.4271  0.4504
  249MOL0     H32834  -0.461   2.433   5.965 -1.3679  0.8974 -0.7075
  249MOL0     H32835  -0.536   2.600   5.949  2.5940  0.6654 -1.8578
  249MOL0     H32836  -0.599   2.599   6.191 -0.4592 -1.5341  2.7046
  249MOL0     H32837  -0.504   2.443   6.191  1.1858  0.1432 -0.1316
  249MOL0     H32838  -0.737   2.405   6.205  2.4861  2.2828  1.7547
  249MOL0     H32839  -0.687   2.338   6.052 -0.7592  0.0323 -0.3351
  249MOL0     H32840  -0.790   2.616   6.075  2.5993 -1.5746  2.1871
  249MOL0     H32841  -0.754   2.521   5.916  1.9677  1.8391  0.5561
  249MOL0     H32842  -0.932   2.361   6.029  0.7517 -0.0119  0.6277
  249MOL0     H32843  -0.985   2.509   5.945 -1.3667 -2.1455  0.4874
  249MOL0     H32844  -1.008   2.636   6.140 -1.1696  0.1721 -2.0004
  249MOL0     H32845  -0.928   2.504   6.237 -0.2035 -2.7020  0.1867
  249MOL0     H32846  -1.198   2.493   6.081 -1.3326 -1.6962  0.1689
  249MOL0     H32847  -1.137   2.363   6.183  0.5054 -0.3907  0.3293
  249MOL0     H32848  -1.223   2.636   6.264  0.9432 -0.4069 -2.6507
  249MOL0     H32849  -1.162   2.506   6.379  2.7198  0.2151 -0.8721
  249MOL0     H32850  -0.266   2.374   5.942 -1.4104 -0.6699  2.4281
  249MOL0     H32851  -0.030   2.300   5.970 -3.4309 -1.2790 -1.4210
  249MOL0     H32852   0.423   2.514   6.131 -1.7851 -0.4087 -3.1268
  249MOL0     H32853   0.649   2.458   6.201  0.5037  1.3955 -2.4784
  249MOL0     H32854   0.836   1.450   7.505 -0.6204  0.1253 -1.2141
  249MOL0     H32855   0.801   1.225   7.578  0.1837  0.8240 -0.8903
  249MOL0     H32856   1.235   0.765   7.797 -2.5621  0.6686 -2.5833
  249MOL0     H32857   1.199   0.610   7.969  0.8259  0.0343  0.6386
  249MOL0     H32858   1.142   0.535   8.240 -0.3958 -1.1697  2.3862
  249MOL0     H32859   1.087   0.438   8.105  2.7386  0.2660  0.6762
  249MOL0     H32860   0.921   0.505   8.361 -0.8781 -1.1357  0.9659
  249MOL0     H32861   0.895   0.371   8.261 -1.0227 -1.7890  2.6082
  249MOL0     H32862   1.001   0.290   8.486  1.8258  0.3347  1.9286
  249MOL0     H32863   1.113   0.413   8.473  2.2444  1.0742 -2.0062
  249MOL0     H32864   1.132   0.213   8.251  1.4148  0.8873 -1.5229
  249MOL0     H32865   1.238   0.326   8.325 -0.8312 -0.1066  1.8019
  249MOL0     H32866   1.235  -0.000   8.611  1.7229  0.0450 -0.1821
  249MOL0     H32867   0.829   0.816   8.077 -0.2484  0.1928 -1.3002
  249MOL0     H32868   0.841   0.944   7.883 -1.0666 -0.7305  2.1632
  250MOL0     O32869   2.615   1.048  10.530  0.4954  0.6940 -0.5790
  250MOL0     C32870   2.631   0.927  10.570 -0.4039  0.2305  0.3102
  250MOL0     O32871   2.554   0.818  10.558  0.6762  0.8118  0.3431
  250MOL0     C32872   2.423   0.823  10.508 -0.8005  0.5685 -0.8836
  250MOL0     C32873   2.369   0.920  10.424 -0.4317 -0.0330 -0.6817
  250MOL0     C32874   2.235   0.916  10.393 -0.1435  0.6643 -0.7053
  250MOL0     C32875   2.166   0.798  10.419  0.8073 -0.3281  0.4151
  250MOL0     O32876   2.034   0.768  10.387  0.1043 -0.3499  0.0040
  250MOL0     C32877   1.933   0.878  10.386  0.4415 -0.5275  0.3828
  250MOL0     C32878   1.788   0.815  10.387 -0.1984 -1.1999  0.1597
  250MOL0     C32879   1.692   0.932  10.394  0.1502  0.2389  0.2714
  250MOL0     C32880   1.550   0.876  10.380 -0.2217 -0.8890  0.0126
  250MOL0     C32881   1.456   0.981  10.395 -0.5091 -0.7666 -1.3974
  250MOL0     C32882   1.313   0.924  10.401 -0.1925 -0.1228 -0.8258
  250MOL0     C32883   1.213   1.041  10.439 -0.3248  0.7976 -0.6472
  250MOL0     C32884   1.067   0.999  10.483  0.9748 -0.0069  0.3453
  250MOL0     N32885   1.005   0.901  10.391 -0.4327 -0.5738 -0.3852
  250MOL0     C32886   0.952   0.930  10.272  1.1469  0.0476 -0.0939
  250MOL0     C32887   0.921   0.811  10.222 -0.1840  0.6348  0.3486
  250MOL0     C32888   0.863   0.792  10.088 -0.1362  0.2947 -0.2267
  250MOL0     C32889   0.715   0.816  10.098  0.2317 -0.5612  1.5210
  250MOL0     C32890   0.650   0.713  10.195 -0.1787 -1.1083 -0.3892
  250MOL0     C32891   0.503   0.746  10.193 -0.4710  0.2098 -0.2504
  250MOL0     O32892   0.438   0.665  10.098 -0.4988  0.0202 -0.2026
  250MOL0     C32893   0.382   0.542  10.135 -0.4643  1.0053 -0.2865
  250MOL0     C32894   0.410   0.472  10.252  0.6378 -0.6089  0.0471
  250MOL0     C32895   0.346   0.357  10.284  0.0242  0.3109 -0.2630
  250MOL0     C32896   0.244   0.308  10.200 -0.2447  0.7516  0.6984
  250MOL0     C32897   0.179   0.181  10.220 -1.3793  0.5354  0.2470
  250MOL0     O32898   0.077   0.150  10.143 -0.3561 -0.1845  0.0748
  250MOL0     C32899  -0.005   0.043  10.179 -0.0966  0.2187  0.0764
  250MOL0     C32900  -0.081  -0.007  10.068  0.2475 -0.2959  1.6084
  250MOL0     C32901  -0.145  -0.128  10.072 -0.0662 -0.5078 -0.3102
  250MOL0     C32902  -0.159  -0.189  10.195 -0.3119  0.5041  0.3974
  250MOL0     O32903  -0.241  -0.305  10.202  0.7261  0.0497 -0.1712
  250MOL0     C32904  -0.328  -0.351  10.100  0.0788 -0.9456 -0.1908
  250MOL0     C32905  -0.439  -0.436  10.159  0.3712 -0.2378 -0.5476
  250MOL0     C32906  -0.503  -0.380  10.286 -0.3400 -0.5086 -0.0114
  250MOL0     C32907  -0.612  -0.274  10.268 -0.2804 -0.3485  0.1877
  250MOL0     C32908  -0.670  -0.215  10.391  0.0381 -0.3450  0.2877
  250MOL0     C32909  -0.754  -0.311  10.487  0.6837  0.6020  0.2897
  250MOL0     C32910  -0.899  -0.341  10.433  1.1531 -0.2109 -0.2197
  250MOL0     C32911  -0.984  -0.370  10.552  0.1080  0.9393  0.5365
  250MOL0    Cl32912  -1.152  -0.418  10.527  0.1399 -0.4030  0.3926
  250MOL0     C32913  -0.111  -0.136  10.308 -1.0710  0.6879  0.2348
  250MOL0     C32914  -0.016  -0.033  10.297  0.5541 -0.0114 -0.6063
  250MOL0     O32915   0.217   0.116  10.319 -0.4146  0.3996  1.0480
  250MOL0     C32916   0.213   0.378  10.081  0.5908 -0.7427 -0.3463
  250MOL0     C32917   0.284   0.488  10.050 -0.0860 -0.1548  0.0028
  250MOL0     N32918   0.949   0.720  10.320  0.7935  0.5104  0.0433
  250MOL0     N32919   0.989   0.772  10.423  0.4322 -0.3098  0.3153
  250MOL0     C32920   2.218   0.701  10.494 -0.2160  1.2094 -0.7543
  250MOL0     C32921   2.350   0.708  10.538 -0.6091  0.0452  1.0251
  250MOL0     C32922   2.767   0.891  10.633  0.2187 -0.1164 -0.2015
  250MOL0     C32923   2.863   0.992  10.632  1.1271  0.7883 -1.4018
  250MOL0     C32924   2.994   0.968  10.681  0.1585 -0.8214  0.2667
  250MOL0     C32925   3.018   0.844  10.736 -0.4782  0.7871  0.8390
  250MOL0     O32926   3.143   0.806  10.785  0.3248  1.6493 -0.1917
  250MOL0     C32927   3.262   0.889  10.782 -0.2114  0.1526  0.3705
  250MOL0     C32928   3.381   0.830  10.854  0.5695  0.1652  0.3493
  250MOL0     C32929   3.457   0.712  10.790 -0.2132  0.2344 -0.1368
  250MOL0     C32930   3.561   0.755  10.692 -0.1994 -1.2873 -0.1914
  250MOL0     C32931   3.678   0.827  10.753  0.2113 -0.0341 -1.2778
  250MOL0     C32932   3.788   0.863  10.779  0.3984 -0.6802 -0.2586
  250MOL0     C32933   2.925   0.743  10.744  0.4511 -0.8433  0.2381
  250MOL0     C32934   2.799   0.763  10.688 -0.9867  0.2753 -1.0023
  250MOL0     H32935   2.423   1.003  10.378  0.0608 -0.1087 -0.2507
  250MOL0     H32936   2.183   0.989  10.332 -1.0182 -1.5469 -2.7770
  250MOL0     H32937   1.950   0.935  10.294  1.9044 -0.0472  0.9330
  250MOL0     H32938   1.929   0.956  10.464 -1.1815 -0.2420  0.0538
  250MOL0     H32939   1.789   0.741  10.468  2.2227 -0.6442  0.7237
  250MOL0     H32940   1.768   0.762  10.294  0.1118 -0.1729 -0.5060
  250MOL0     H32941   1.714   0.997  10.309  0.0817 -0.0248  0.0474
  250MOL0     H32942   1.706   0.981  10.490  1.9635 -0.1504  0.2568
  250MOL0     H32943   1.533   0.839  10.279 -1.7993 -2.9654  0.9774
  250MOL0     H32944   1.530   0.800  10.455  1.9000 -1.5220 -0.0091
  250MOL0     H32945   1.470   1.063  10.324  2.4936  0.5803  0.5399
  250MOL0     H32946   1.471   1.026  10.494 -1.8358 -0.1021 -1.4745
  250MOL0     H32947   1.305   0.857  10.488  4.0043  1.5760  1.1253
  250MOL0     H32948   1.280   0.876  10.308 -2.1098  2.4868 -1.6274
  250MOL0     H32949   1.244   1.100  10.526 -2.0957 -2.8123  2.7207
  250MOL0     H32950   1.220   1.111  10.355  1.0609  2.0356  0.4434
  250MOL0     H32951   1.007   1.090  10.488 -1.9078 -1.7098 -0.5509
  250MOL0     H32952   1.065   0.950  10.581 -0.8671 -2.5049 -0.8038
  250MOL0     H32953   0.953   1.020  10.211  3.6231 -1.7946 -3.1189
  250MOL0     H32954   0.885   0.692  10.049 -1.7708  0.0917 -0.7118
  250MOL0     H32955   0.908   0.860  10.016 -0.6925  2.0139  0.9717
  250MOL0     H32956   0.670   0.800  10.000 -2.3192  2.5508  2.0062
  250MOL0     H32957   0.705   0.918  10.135 -0.5976 -0.4583  1.0277
  250MOL0     H32958   0.658   0.609  10.163 -3.6454 -0.4589 -4.2759
  250MOL0     H32959   0.688   0.727  10.296  2.0406  0.5920 -1.3708
  250MOL0     H32960   0.474   0.851  10.176  0.2426  0.0867 -2.5320
  250MOL0     H32961   0.462   0.728  10.293 -1.6596 -0.1489 -0.7768
  250MOL0     H32962   0.488   0.516  10.313  0.7551  1.2912 -1.3833
  250MOL0     H32963   0.375   0.317  10.381  1.0416 -2.5469 -1.6241
  250MOL0     H32964  -0.072   0.051   9.977  1.9806  0.5674  2.2987
  250MOL0     H32965  -0.170  -0.184   9.983  2.8330 -1.2373 -0.7639
  250MOL0     H32966  -0.273  -0.417  10.032 -1.1794 -0.9614 -1.2350
  250MOL0     H32967  -0.377  -0.267  10.050  0.3425 -0.6232  0.0872
  250MOL0     H32968  -0.400  -0.535  10.185  2.6934  0.8074  0.2142
  250MOL0     H32969  -0.518  -0.448  10.085  1.3405 -1.0554 -1.4962
  250MOL0     H32970  -0.430  -0.347  10.361 -0.1432  1.5031 -1.0355
  250MOL0     H32971  -0.545  -0.466  10.340 -0.8973 -1.4794 -1.9027
  250MOL0     H32972  -0.571  -0.196  10.204 -0.9979 -0.0718  0.0546
  250MOL0     H32973  -0.686  -0.335  10.215 -1.6403  0.9731  0.4962
  250MOL0     H32974  -0.747  -0.146  10.357 -0.9977 -0.7717  1.6964
  250MOL0     H32975  -0.585  -0.177  10.449 -0.2297 -0.3484  0.6858
  250MOL0     H32976  -0.758  -0.252  10.579 -1.7376 -0.7318  1.1269
  250MOL0     H32977  -0.703  -0.406  10.500 -1.4804 -0.6227  0.2722
  250MOL0     H32978  -0.947  -0.259  10.380  1.7700  2.0068  2.4423
  250MOL0     H32979  -0.897  -0.433  10.373 -0.5555  0.0032 -0.6523
  250MOL0     H32980  -0.995  -0.290  10.625 -1.3675  1.4606 -0.2124
  250MOL0     H32981  -0.929  -0.457  10.590  1.0706  0.5662 -1.5350
  250MOL0     H32982  -0.130  -0.172  10.408 -0.7550  0.6201  0.2710
  250MOL0     H32983   0.036  -0.010  10.390  1.7466 -3.6972 -0.1828
  250MOL0     H32984   0.139   0.344  10.009  1.9245 -1.9017 -1.2447
  250MOL0     H32985   0.253   0.543   9.961  0.4571 -1.2991 -0.9173
  250MOL0     H32986   2.156   0.613  10.506  0.8251  0.5871  0.2729
  250MOL0     H32987   2.379   0.630  10.607  0.0894  1.3252  2.2331
  250MOL0     H32988   2.848   1.089  10.588 -1.8798 -0.3578 -3.1665
  250MOL0     H32989   3.077   1.038  10.683 -1.1829  0.8435 -0.3320
  250MOL0     H32990   3.240   0.980  10.838 -0.3502 -0.2735  1.0145
  250MOL0     H32991   3.271   0.901  10.674 -3.1554 -0.7097 -0.0728
  250MOL0     H32992   3.453   0.909  10.877  3.7225 -2.2070 -0.7389
  250MOL0     H32993   3.349   0.793  10.952  1.4748 -1.0518  0.2019
  250MOL0     H32994   3.401   0.630  10.744  1.4633 -1.9472  1.5008
  250MOL0     H32995   3.517   0.674  10.873  1.2482  3.4323  0.4583
  250MOL0     H32996   3.604   0.675  10.631 -0.7934 -1.3938 -0.4822
  250MOL0     H32997   3.516   0.827  10.624  2.6598 -1.6803 -2.6871
  250MOL0     H32998   3.893   0.880  10.794  0.4320  2.3254 -2.8555
  250MOL0     H32999   2.942   0.649  10.796 -0.9595 -1.9038 -1.1461
  250MOL0     H33000   2.733   0.677  10.698 -2.2242  1.4900  2.9680
  251MOL0     O33001   7.034   1.180   8.047 -0.3209 -0.3408  1.0934
  251MOL0     C33002   7.061   1.064   8.000 -0.1753 -0.6663  0.6799
  251MOL0     O33003   6.974   0.959   7.988 -0.2497 -0.3851  0.1979
  251MOL0     C33004   6.836   0.955   7.982 -0.5433 -1.3032 -1.1165
  251MOL0     C33005   6.763   1.073   7.971  1.1600  0.2972  0.4918
  251MOL0     C33006   6.627   1.066   8.001 -0.0329  0.1964 -0.7807
  251MOL0     C33007   6.561   0.945   8.036  0.2573  0.1938  0.3755
  251MOL0     O33008   6.430   0.941   8.052 -0.3259  0.1916  0.1263
  251MOL0     C33009   6.347   0.991   7.945  0.3902 -0.5446  0.3931
  251MOL0     C33010   6.192   0.991   7.972  0.4404  0.3008 -0.1251
  251MOL0     C33011   6.153   1.093   8.079 -0.0844  0.6492 -1.2473
  251MOL0     C33012   6.006   1.091   8.111 -0.0348  0.2823  0.2244
  251MOL0     C33013   5.948   1.201   8.202 -0.0984 -0.2810  0.1393
  251MOL0     C33014   5.797   1.152   8.212 -0.3175 -0.6729  0.4409
  251MOL0     C33015   5.699   1.248   8.267 -0.5942 -0.5464 -1.0106
  251MOL0     C33016   5.669   1.364   8.171  0.1316 -0.5125 -0.4710
  251MOL0     N33017   5.614   1.480   8.241 -0.3335 -0.2227  0.2990
  251MOL0     C33018   5.625   1.615   8.209  0.6375 -0.3530  0.0029
  251MOL0     C33019   5.551   1.683   8.300  0.3216 -0.0547 -0.5178
  251MOL0     C33020   5.516   1.829   8.290  0.3116 -0.4078  0.1020
  251MOL0     C33021   5.516   1.881   8.141  0.9817 -0.3554 -0.5565
  251MOL0     C33022   5.379   1.851   8.076 -0.5623 -0.2596  1.1028
  251MOL0     C33023   5.393   1.871   7.930 -0.1858 -0.5985 -0.3109
  251MOL0     O33024   5.276   1.825   7.856  0.8103  0.2734  0.3159
  251MOL0     C33025   5.229   1.916   7.778  0.1294  0.0653  0.9263
  251MOL0     C33026   5.292   1.953   7.661 -0.0900  0.3161  0.6889
  251MOL0     C33027   5.234   2.036   7.564  0.3445 -0.5208 -0.0676
  251MOL0     C33028   5.104   2.098   7.597 -0.2516 -0.8361 -0.1363
  251MOL0     C33029   5.026   2.168   7.496  0.1847  0.2341  0.3801
  251MOL0     O33030   4.910   2.223   7.530 -0.5415 -0.1024  0.6722
  251MOL0     C33031   4.805   2.243   7.438 -0.5790 -0.8800  0.0227
  251MOL0     C33032   4.780   2.148   7.336 -0.2504  0.4997  1.0948
  251MOL0     C33033   4.668   2.169   7.245 -0.0722  0.7970  0.6145
  251MOL0     C33034   4.576   2.277   7.267 -0.2139  0.4707 -0.7271
  251MOL0     O33035   4.458   2.286   7.205  0.1238 -0.0849 -0.8608
  251MOL0     C33036   4.456   2.249   7.065 -0.0931 -0.7362 -0.3567
  251MOL0     C33037   4.314   2.280   7.022  0.0503  0.9988  0.2134
  251MOL0     C33038   4.290   2.263   6.873 -0.9060 -0.5974 -0.4923
  251MOL0     C33039   4.149   2.323   6.833  0.2685  0.1545  0.4269
  251MOL0     C33040   4.153   2.476   6.844  0.2577 -0.5176 -0.0033
  251MOL0     C33041   4.021   2.553   6.830  0.2998 -0.1048  0.8926
  251MOL0     C33042   3.927   2.509   6.714 -0.1849  0.2390  0.1031
  251MOL0     C33043   4.009   2.521   6.584  0.2817 -0.2715  0.4874
  251MOL0    Cl33044   3.917   2.454   6.450  0.1728  0.4251 -0.5014
  251MOL0     C33045   4.605   2.366   7.366  0.8737  0.3757  0.3379
  251MOL0     C33046   4.711   2.345   7.459  1.1069  0.1441  0.5280
  251MOL0     O33047   5.070   2.154   7.379  0.4228 -0.2224  0.2976
  251MOL0     C33048   5.048   2.074   7.718 -0.2981  1.2411  0.0042
  251MOL0     C33049   5.106   1.984   7.808  0.8388 -0.5086 -0.1124
  251MOL0     N33050   5.479   1.596   8.380 -0.4595  0.4046 -0.6172
  251MOL0     N33051   5.531   1.481   8.347 -0.2269 -0.6199  0.2533
  251MOL0     C33052   6.635   0.834   8.047 -0.0721  0.0990  0.1931
  251MOL0     C33053   6.769   0.829   8.003  0.0489 -0.5021  0.5506
  251MOL0     C33054   7.206   1.035   7.980  0.3432  0.4426  0.1897
  251MOL0     C33055   7.243   0.934   7.896  0.2985  0.0626  0.2552
  251MOL0     C33056   7.372   0.878   7.899  0.2182  0.3541 -0.1031
  251MOL0     C33057   7.480   0.945   7.960  0.5826 -0.4807  0.7902
  251MOL0     O33058   7.604   0.880   7.959 -0.7292 -0.2303  0.3666
  251MOL0     C33059   7.718   0.946   8.008 -0.0585 -0.7435  0.4540
  251MOL0     C33060   7.772   1.044   7.902  0.1113 -0.4889  0.3783
  251MOL0     C33061   7.916   1.008   7.876  0.2040 -0.0314  0.8011
  251MOL0     C33062   7.937   0.870   7.818 -0.2071  0.3074  0.7882
  251MOL0     C33063   7.901   0.868   7.668 -0.0352 -0.6352 -0.2896
  251MOL0     C33064   7.878   0.856   7.549  0.5415  0.7427 -0.4330
  251MOL0     C33065   7.447   1.068   8.034  0.0045 -0.4596 -0.0636
  251MOL0     C33066   7.311   1.106   8.048  0.0726 -1.5004 -0.0740
  251MOL0     H33067   6.807   1.169   7.946  2.3955 -0.5507 -0.7441
  251MOL0     H33068   6.573   1.159   7.991 -0.8088 -0.1445  0.1173
  251MOL0     H33069   6.372   0.955   7.845 -0.4737  2.6239 -1.0810
  251MOL0     H33070   6.384   1.091   7.922 -0.9810 -0.2951 -0.8529
  251MOL0     H33071   6.156   0.890   7.994 -0.2034  1.0188  2.4448
  251MOL0     H33072   6.141   1.011   7.878  0.2559 -0.6304 -0.2337
  251MOL0     H33073   6.180   1.191   8.041 -2.9822  1.0370 -2.5018
  251MOL0     H33074   6.212   1.064   8.167  2.2478  2.8464 -1.9626
  251MOL0     H33075   5.952   1.092   8.016  1.6413 -1.0915 -0.7991
  251MOL0     H33076   5.984   1.001   8.169  0.0781 -0.7420 -1.2795
  251MOL0     H33077   5.964   1.300   8.159 -0.3291 -0.2335  0.1611
  251MOL0     H33078   5.993   1.201   8.302 -1.7182  0.2075  0.9085
  251MOL0     H33079   5.804   1.059   8.269  0.6629 -0.9860 -0.1651
  251MOL0     H33080   5.756   1.130   8.112  1.0361  1.3550 -0.6265
  251MOL0     H33081   5.616   1.187   8.300 -0.6307 -0.2195 -0.4846
  251MOL0     H33082   5.738   1.295   8.358 -0.4960 -2.6202  0.0615
  251MOL0     H33083   5.592   1.334   8.099 -0.8233 -1.3338  0.8563
  251MOL0     H33084   5.749   1.407   8.110 -1.0957  2.4980 -0.1318
  251MOL0     H33085   5.686   1.641   8.124  2.1774 -2.8101  0.2673
  251MOL0     H33086   5.586   1.889   8.348 -0.1482 -1.0092  1.3052
  251MOL0     H33087   5.417   1.846   8.332  0.0831 -1.5334  0.0237
  251MOL0     H33088   5.594   1.839   8.077 -1.1318 -1.2503 -2.7397
  251MOL0     H33089   5.541   1.987   8.137 -0.0008 -0.1099 -0.6041
  251MOL0     H33090   5.337   1.752   8.098  0.0025 -1.0474 -1.1283
  251MOL0     H33091   5.304   1.922   8.112 -1.0410  0.6435 -1.4516
  251MOL0     H33092   5.471   1.813   7.881  0.7607  0.9192 -0.6788
  251MOL0     H33093   5.419   1.973   7.900 -2.2165 -0.1325 -0.6227
  251MOL0     H33094   5.390   1.911   7.641  0.0151  0.4007  1.0310
  251MOL0     H33095   5.285   2.044   7.469  2.2183 -0.0708  0.9332
  251MOL0     H33096   4.838   2.059   7.314 -2.0849 -1.2625  2.8192
  251MOL0     H33097   4.654   2.088   7.174  1.1574  3.3540 -2.8292
  251MOL0     H33098   4.475   2.141   7.060  0.0218 -0.7071 -0.5499
  251MOL0     H33099   4.536   2.296   7.006 -0.0198 -2.2993 -1.5543
  251MOL0     H33100   4.301   2.385   7.050  0.9515  0.8441  1.2703
  251MOL0     H33101   4.240   2.229   7.083 -4.4837  2.7419 -3.2606
  251MOL0     H33102   4.298   2.159   6.841 -0.0088  0.0835 -2.6776
  251MOL0     H33103   4.371   2.325   6.831 -3.1995  1.6219 -1.9337
  251MOL0     H33104   4.128   2.292   6.731  0.6381  0.1543  0.3521
  251MOL0     H33105   4.069   2.273   6.890 -0.3014  0.7622  0.1636
  251MOL0     H33106   4.223   2.513   6.769 -1.6135  0.0993 -1.5292
  251MOL0     H33107   4.184   2.521   6.939  1.0172  0.3056 -0.6196
  251MOL0     H33108   4.036   2.659   6.812 -0.2378 -0.2650 -0.6721
  251MOL0     H33109   3.961   2.543   6.920 -0.7089 -0.1956  0.2328
  251MOL0     H33110   3.903   2.403   6.726 -1.7951  0.6964  1.4230
  251MOL0     H33111   3.832   2.563   6.719 -0.0694  0.3613  1.1624
  251MOL0     H33112   4.096   2.458   6.603  1.4375  0.3986 -2.1846
  251MOL0     H33113   4.042   2.622   6.561 -1.6347  0.3008  0.0347
  251MOL0     H33114   4.528   2.433   7.401  2.4171  1.5381  1.6639
  251MOL0     H33115   4.718   2.412   7.545 -2.1808  0.6290  0.5248
  251MOL0     H33116   4.950   2.110   7.750 -0.8702 -0.3890  0.1831
  251MOL0     H33117   5.049   1.970   7.899  1.1966  0.5672  0.2990
  251MOL0     H33118   6.587   0.742   8.081  0.0794  0.2444  0.8100
  251MOL0     H33119   6.824   0.736   7.996 -0.6461 -0.8095 -1.3946
  251MOL0     H33120   7.166   0.880   7.843  0.4397 -0.7293  0.8375
  251MOL0     H33121   7.398   0.782   7.854 -0.6435 -0.0317  0.1901
  251MOL0     H33122   7.795   0.877   8.043  3.4002  1.0294 -2.9444
  251MOL0     H33123   7.686   1.010   8.091 -2.3746 -0.0124 -0.8967
  251MOL0     H33124   7.716   1.049   7.808  0.2864  2.7678  0.3189
  251MOL0     H33125   7.765   1.143   7.948  1.3336  0.8267 -2.0755
  251MOL0     H33126   7.985   1.013   7.961  2.2653 -1.6708 -0.6811
  251MOL0     H33127   7.949   1.068   7.791 -0.4065  0.0173  0.5950
  251MOL0     H33128   8.038   0.842   7.849  1.7145  2.3378 -2.9750
  251MOL0     H33129   7.867   0.795   7.857 -0.7056  0.6167  0.4888
  251MOL0     H33130   7.871   0.840   7.443 -4.7098 -2.0295 -0.0294
  251MOL0     H33131   7.523   1.129   8.082 -0.7869  1.2898 -0.9491
  251MOL0     H33132   7.294   1.179   8.126 -2.1976 -0.9160 -1.0175
  252MOL0     O33133   6.427   4.276   0.450  0.2684 -0.1517  0.0462
  252MOL0     C33134   6.468   4.165   0.434 -0.7001 -0.1356 -0.7406
  252MOL0     O33135   6.605   4.134   0.414  0.5091 -0.2541  0.4352
  252MOL0     C33136   6.711   4.224   0.429  0.1798  0.3062 -0.1677
  252MOL0     C33137   6.736   4.301   0.542  0.2237  0.2007 -0.4189
  252MOL0     C33138   6.857   4.374   0.557  1.1247  0.6699 -0.1509
  252MOL0     C33139   6.947   4.384   0.441  0.1865  1.0785 -0.1647
  252MOL0     O33140   7.067   4.447   0.453  0.4060 -0.7403 -0.5236
  252MOL0     C33141   7.170   4.431   0.358  0.2390 -0.4772  0.3680
  252MOL0     C33142   7.290   4.476   0.442 -0.6215 -0.5417 -0.0133
  252MOL0     C33143   7.289   4.619   0.499  0.5931 -0.5184  0.6243
  252MOL0     C33144   7.421   4.670   0.553  0.2183  0.4422 -0.0460
  252MOL0     C33145   7.420   4.817   0.582 -0.8212 -0.2036  0.9193
  252MOL0     C33146   7.542   4.869   0.640 -0.7332  0.5284 -0.3830
  252MOL0     C33147   7.661   4.880   0.547  0.0812  0.1522  0.6352
  252MOL0     C33148   7.641   4.974   0.428 -0.4152  0.6168 -0.8540
  252MOL0     N33149   7.761   5.033   0.376 -0.6814 -0.4429  0.4907
  252MOL0     C33150   7.838   4.983   0.269 -0.6618  0.2933 -0.9974
  252MOL0     C33151   7.936   5.071   0.250 -0.4817 -0.0755 -0.6399
  252MOL0     C33152   8.055   5.048   0.161  0.0645  0.0073  0.4355
  252MOL0     C33153   8.169   4.970   0.231 -0.3718  0.1474 -0.9143
  252MOL0     C33154   8.256   5.068   0.307 -0.0820  0.2063 -0.2411
  252MOL0     C33155   8.395   5.021   0.359 -0.3837  0.2766  0.4542
  252MOL0     O33156   8.435   5.083   0.480  0.4957  0.6192 -0.0035
  252MOL0     C33157   8.506   5.199   0.481 -0.7570 -0.0389 -0.3708
  252MOL0     C33158   8.527   5.279   0.375 -0.5982 -0.0676  1.0686
  252MOL0     C33159   8.604   5.395   0.391  0.1978 -0.2173  0.3753
  252MOL0     C33160   8.674   5.418   0.510  0.6622 -0.1150 -0.1109
  252MOL0     C33161   8.766   5.536   0.510 -0.2076  0.2103  0.4879
  252MOL0     O33162   8.833   5.567   0.619  0.1238  0.4328 -0.0851
  252MOL0     C33163   8.921   5.671   0.620 -0.7939  0.2891 -0.0314
  252MOL0     C33164   8.869   5.802   0.629  0.5199  0.3487  0.4235
  252MOL0     C33165   8.949   5.915   0.645  0.7876  0.3179 -0.4659
  252MOL0     C33166   9.086   5.904   0.650 -0.1556  0.4546  0.7321
  252MOL0     O33167   9.177   6.002   0.676 -1.0687 -0.5236  0.8420
  252MOL0     C33168   9.129   6.128   0.704 -0.1726 -0.1649 -0.2853
  252MOL0     C33169   9.232   6.254   0.701  0.0990  0.5619 -0.3335
  252MOL0     C33170   9.283   6.274   0.559 -0.4905  0.4658 -0.0211
  252MOL0     C33171   9.425   6.328   0.558  0.1410 -0.6737 -0.2910
  252MOL0     C33172   9.486   6.353   0.416  0.1779 -0.2869 -0.9330
  252MOL0     C33173   9.622   6.434   0.425  0.0392  0.9709 -0.9407
  252MOL0     C33174   9.686   6.471   0.298 -0.4946 -0.8870 -1.3897
  252MOL0     C33175   9.737   6.344   0.230  0.5524  0.1486  0.4743
  252MOL0    Cl33176   9.860   6.261   0.333  0.1404 -0.2253  0.5378
  252MOL0     C33177   9.139   5.776   0.654 -0.0600  0.5498  0.1225
  252MOL0     C33178   9.062   5.659   0.641 -0.2766 -0.1174 -0.0558
  252MOL0     O33179   8.774   5.595   0.400  0.7738 -0.6229  0.4983
  252MOL0     C33180   8.653   5.338   0.619  0.0131  0.4130  0.2477
  252MOL0     C33181   8.576   5.224   0.604 -0.0911 -0.0058  0.7376
  252MOL0     N33182   7.929   5.169   0.348  0.5591 -1.1227  0.0204
  252MOL0     N33183   7.820   5.152   0.422 -0.7362  0.5979 -0.5814
  252MOL0     C33184   6.906   4.312   0.317 -0.1970  0.0881  0.1886
  252MOL0     C33185   6.800   4.232   0.318  0.4113 -0.0650  0.1678
  252MOL0     C33186   6.376   4.049   0.438 -0.8997  0.2331  0.1486
  252MOL0     C33187   6.405   3.916   0.384 -1.7661 -0.3014 -0.5830
  252MOL0     C33188   6.313   3.814   0.383 -0.6684 -0.4408  0.5444
  252MOL0     C33189   6.180   3.831   0.414  0.0755 -0.1343 -0.2775
  252MOL0     O33190   6.088   3.730   0.410 -0.5260  0.1350  0.0267
  252MOL0     C33191   6.130   3.620   0.498 -0.6450 -0.7880  0.3743
  252MOL0     C33192   6.146   3.489   0.413 -0.4028 -0.5674 -0.2398
  252MOL0     C33193   6.164   3.366   0.501  0.1137  0.6776  0.0614
  252MOL0     C33194   6.178   3.233   0.425  0.5393  0.2169  0.3503
  252MOL0     C33195   6.303   3.230   0.340 -0.4181  0.4099 -0.5852
  252MOL0     C33196   6.380   3.213   0.250  0.0082 -1.2513  0.4005
  252MOL0     C33197   6.139   3.960   0.458 -0.3849 -1.2784  0.8508
  252MOL0     C33198   6.238   4.066   0.477  0.9904 -0.2021  0.0646
  252MOL0     H33199   6.677   4.289   0.632 -0.2753 -1.4762 -0.9448
  252MOL0     H33200   6.882   4.424   0.649 -0.3456  3.6627 -1.2463
  252MOL0     H33201   7.172   4.488   0.265  0.9519 -3.3674 -1.5080
  252MOL0     H33202   7.177   4.328   0.322  0.6799 -0.2449 -0.2402
  252MOL0     H33203   7.383   4.473   0.384 -0.8563  0.1088 -0.4363
  252MOL0     H33204   7.308   4.417   0.532  3.1579  1.8390  1.0325
  252MOL0     H33205   7.221   4.626   0.584  0.2419  0.6804  0.2605
  252MOL0     H33206   7.260   4.682   0.415 -1.3352 -2.4507 -0.2716
  252MOL0     H33207   7.435   4.625   0.652 -0.4885  4.1648  1.9159
  252MOL0     H33208   7.506   4.650   0.488  0.1254 -0.1664  0.0124
  252MOL0     H33209   7.344   4.841   0.657 -0.2551  1.5050  1.0027
  252MOL0     H33210   7.405   4.875   0.490  0.4128  1.7184  1.8458
  252MOL0     H33211   7.579   4.808   0.723  0.9339 -1.6842 -2.5815
  252MOL0     H33212   7.524   4.974   0.664 -0.3043  0.7308 -0.9368
  252MOL0     H33213   7.748   4.903   0.609 -1.5275  1.6979  2.4790
  252MOL0     H33214   7.691   4.781   0.512  1.6302  0.2011  1.7050
  252MOL0     H33215   7.577   5.058   0.460 -0.4984  0.1559  0.2257
  252MOL0     H33216   7.592   4.919   0.347  1.3080 -2.2079 -0.1156
  252MOL0     H33217   7.824   4.886   0.220 -2.0140  0.0687 -0.2074
  252MOL0     H33218   8.090   5.139   0.111 -1.1490  0.9522  1.2454
  252MOL0     H33219   8.022   4.991   0.073  1.6579  1.8241 -1.4630
  252MOL0     H33220   8.232   4.904   0.170  2.0535  0.0076  1.5478
  252MOL0     H33221   8.130   4.891   0.296  2.2628  0.4028  1.1486
  252MOL0     H33222   8.272   5.153   0.240  1.2749  0.0648 -0.1180
  252MOL0     H33223   8.193   5.104   0.388  0.4667 -0.7845  0.6522
  252MOL0     H33224   8.483   5.020   0.295  1.8343 -2.4539  3.2010
  252MOL0     H33225   8.370   4.917   0.385 -1.7797  0.7378  1.0134
  252MOL0     H33226   8.472   5.271   0.282  2.0670 -1.2098 -0.4972
  252MOL0     H33227   8.603   5.469   0.313 -3.6030  1.9798  2.2514
  252MOL0     H33228   8.762   5.816   0.639  0.7018  1.9580  0.4390
  252MOL0     H33229   8.902   6.008   0.676  0.0649  0.0848 -0.8356
  252MOL0     H33230   9.095   6.133   0.808 -1.8067 -3.6501 -0.5358
  252MOL0     H33231   9.050   6.158   0.635 -0.9769  1.6093  1.3173
  252MOL0     H33232   9.310   6.233   0.776  1.3242  2.1580 -1.0953
  252MOL0     H33233   9.176   6.338   0.741 -1.0868 -0.9138  1.2742
  252MOL0     H33234   9.226   6.344   0.498 -0.1687 -0.0613 -0.9401
  252MOL0     H33235   9.286   6.182   0.501 -0.0089  0.4177  0.0739
  252MOL0     H33236   9.419   6.423   0.611  2.4425 -0.7338  0.1543
  252MOL0     H33237   9.484   6.263   0.624  1.0774 -1.5695 -1.9418
  252MOL0     H33238   9.414   6.402   0.350  0.1800 -0.6150 -1.1814
  252MOL0     H33239   9.502   6.259   0.362  0.1301 -1.1317  0.4669
  252MOL0     H33240   9.693   6.393   0.498 -1.3851 -0.0146 -0.0653
  252MOL0     H33241   9.596   6.530   0.470  0.6899  1.3611 -1.3887
  252MOL0     H33242   9.617   6.528   0.234 -1.2564  0.9640  0.9407
  252MOL0     H33243   9.775   6.533   0.314 -1.8548  0.4724  1.6755
  252MOL0     H33244   9.788   6.363   0.135 -0.8637  1.1563 -0.1049
  252MOL0     H33245   9.647   6.286   0.208 -0.8729  3.4378 -3.9570
  252MOL0     H33246   9.245   5.756   0.650 -0.2591 -0.4336 -0.8630
  252MOL0     H33247   9.103   5.559   0.646  2.7096  1.0294  0.5322
  252MOL0     H33248   8.705   5.360   0.711  0.8980 -1.8546  0.3665
  252MOL0     H33249   8.565   5.149   0.682 -0.1102 -1.1309 -0.3111
  252MOL0     H33250   6.973   4.324   0.233 -0.5047  1.6952  0.1445
  252MOL0     H33251   6.765   4.183   0.228 -1.6345  3.6070 -1.2673
  252MOL0     H33252   6.503   3.894   0.342 -1.2582 -0.7249  0.7518
  252MOL0     H33253   6.335   3.717   0.341  0.0291 -0.1095  0.1346
  252MOL0     H33254   6.063   3.608   0.584 -0.3416  3.7267  1.4831
  252MOL0     H33255   6.227   3.650   0.539 -0.3819  0.8128 -1.3166
  252MOL0     H33256   6.052   3.494   0.357 -0.0909 -0.0500 -0.7196
  252MOL0     H33257   6.224   3.502   0.338 -1.5021  3.9290 -0.8892
  252MOL0     H33258   6.077   3.360   0.567 -2.1623  0.0575 -2.8086
  252MOL0     H33259   6.262   3.369   0.550  0.6088 -3.4947 -0.2888
  252MOL0     H33260   6.164   3.139   0.479 -2.4431 -0.0090 -0.6221
  252MOL0     H33261   6.104   3.241   0.345 -0.1279 -1.3431  0.7764
  252MOL0     H33262   6.435   3.209   0.158  0.6335  2.0890  0.4916
  252MOL0     H33263   6.035   3.987   0.472 -0.8465 -2.6036  0.1398
  252MOL0     H33264   6.199   4.164   0.503  0.0325  0.3538 -3.1097
  253MOL0     O33265   5.969   7.064   8.958  0.1024 -0.3365 -0.2383
  253MOL0     C33266   6.072   7.131   8.941  0.4933 -0.6482 -0.7092
  253MOL0     O33267   6.183   7.101   8.864  0.3508 -0.3461 -0.9022
  253MOL0     C33268   6.212   6.972   8.843 -0.4219 -0.2394  0.4201
  253MOL0     C33269   6.183   6.854   8.921 -0.4008 -1.2243  0.1366
  253MOL0     C33270   6.231   6.730   8.877 -0.1510  0.1471  0.4509
  253MOL0     C33271   6.299   6.721   8.757 -0.4010 -1.0768  0.7600
  253MOL0     O33272   6.324   6.606   8.688  0.2855  0.1833  0.2564
  253MOL0     C33273   6.462   6.574   8.663  0.3232 -0.6660 -0.9822
  253MOL0     C33274   6.450   6.480   8.537  0.3074 -0.1255  0.0331
  253MOL0     C33275   6.583   6.479   8.466 -0.0106  0.1394  0.5444
  253MOL0     C33276   6.698   6.408   8.530  0.7622  0.2723  0.6409
  253MOL0     C33277   6.842   6.468   8.501  0.4013  0.5559 -0.1234
  253MOL0     C33278   6.932   6.382   8.587  0.1435  0.6517  0.1029
  253MOL0     C33279   7.077   6.427   8.563  0.1391 -0.3691  0.7042
  253MOL0     C33280   7.163   6.349   8.670 -0.5557 -0.5490 -0.0492
  253MOL0     N33281   7.298   6.406   8.671 -0.0681  0.1612  0.1711
  253MOL0     C33282   7.380   6.419   8.553  0.1365  0.8407 -0.5173
  253MOL0     C33283   7.505   6.439   8.604  0.1500  1.0526 -0.1500
  253MOL0     C33284   7.639   6.429   8.539  0.5255  0.1019 -1.0145
  253MOL0     C33285   7.686   6.552   8.468  0.6255 -0.3457 -0.8653
  253MOL0     C33286   7.818   6.541   8.399 -0.5072  0.4162 -0.5263
  253MOL0     C33287   7.902   6.673   8.394 -0.1019 -0.0341 -0.7827
  253MOL0     O33288   7.821   6.784   8.345 -0.0856 -0.1183  0.3804
  253MOL0     C33289   7.843   6.825   8.216  0.0359  0.9655  0.8252
  253MOL0     C33290   7.794   6.946   8.175 -0.6112  0.5504 -0.1608
  253MOL0     C33291   7.798   7.006   8.050 -0.8940 -0.5487  0.7434
  253MOL0     C33292   7.868   6.932   7.954  0.3445  0.8976  0.0510
  253MOL0     C33293   7.876   6.980   7.814 -0.1567 -1.3108 -0.1921
  253MOL0     O33294   7.959   6.909   7.730 -0.5347 -0.3476  0.1423
  253MOL0     C33295   8.006   6.979   7.625 -0.1019 -1.1749 -0.5664
  253MOL0     C33296   8.140   7.010   7.636 -0.4824 -0.3801 -0.0308
  253MOL0     C33297   8.204   7.095   7.543 -0.5609  0.3945  0.3924
  253MOL0     C33298   8.130   7.144   7.435 -0.3175  0.6643  0.1269
  253MOL0     O33299   8.183   7.231   7.349  0.1897 -0.6384  0.3588
  253MOL0     C33300   8.099   7.303   7.248 -0.0392  0.8489 -1.2168
  253MOL0     C33301   8.188   7.418   7.196 -0.0630 -0.3498 -0.6283
  253MOL0     C33302   8.283   7.370   7.088  0.1887 -0.4463  0.7135
  253MOL0     C33303   8.332   7.482   7.000  0.1229 -0.3782  0.7056
  253MOL0     C33304   8.475   7.453   6.950 -0.0351 -0.3606  0.5853
  253MOL0     C33305   8.462   7.354   6.834  0.1840  0.2300 -0.0506
  253MOL0     C33306   8.607   7.300   6.791  0.5881  0.6020 -0.5829
  253MOL0     C33307   8.601   7.184   6.697  0.2790  0.0290  0.0619
  253MOL0    Cl33308   8.525   7.239   6.538  0.4004 -0.2641 -0.0710
  253MOL0     C33309   7.992   7.110   7.420  0.4010 -0.0624 -1.1565
  253MOL0     C33310   7.931   7.033   7.521 -0.3951  0.5111  0.4789
  253MOL0     O33311   7.823   7.086   7.784 -0.1799 -0.1324  0.0441
  253MOL0     C33312   7.947   6.818   7.993  0.0382  0.0775 -1.5014
  253MOL0     C33313   7.923   6.762   8.117  0.7054  0.5906  0.9763
  253MOL0     N33314   7.498   6.454   8.745  0.6124  0.2385 -0.0478
  253MOL0     N33315   7.375   6.432   8.780 -0.2001  0.6605 -0.0263
  253MOL0     C33316   6.331   6.837   8.685 -1.0322  0.0966 -0.8565
  253MOL0     C33317   6.285   6.954   8.727  0.0115 -0.1817  0.0371
  253MOL0     C33318   6.090   7.263   9.010  0.8124  0.4866 -0.0081
  253MOL0     C33319   5.999   7.317   9.095  0.1420  0.0269  0.2168
  253MOL0     C33320   6.010   7.443   9.160 -0.0820 -0.1133  0.7531
  253MOL0     C33321   6.136   7.509   9.152  0.6380  0.4854  0.6890
  253MOL0     O33322   6.164   7.622   9.224  0.2707  0.6368  0.2320
  253MOL0     C33323   6.101   7.647   9.347 -0.8118 -0.3613 -1.4599
  253MOL0     C33324   6.209   7.670   9.455  0.0990  0.0738 -0.0851
  253MOL0     C33325   6.312   7.567   9.464 -0.1164 -1.1087 -0.2119
  253MOL0     C33326   6.404   7.610   9.581 -0.1915 -0.3303  0.5555
  253MOL0     C33327   6.491   7.725   9.544 -0.0645 -0.1647  0.4430
  253MOL0     C33328   6.562   7.812   9.503 -0.2608 -0.2177  0.1759
  253MOL0     C33329   6.226   7.468   9.049  0.0374 -0.2155 -0.4890
  253MOL0     C33330   6.206   7.340   8.985 -0.2341 -0.0766  0.5487
  253MOL0     H33331   6.117   6.873   9.004 -2.1635 -1.2750 -1.2046
  253MOL0     H33332   6.205   6.639   8.930 -1.4006  0.8353  1.0632
  253MOL0     H33333   6.512   6.522   8.745 -1.7521 -0.0232  0.7810
  253MOL0     H33334   6.529   6.659   8.647  2.0692 -2.0173 -1.1820
  253MOL0     H33335   6.367   6.500   8.468  0.7690 -1.5786 -0.9871
  253MOL0     H33336   6.439   6.378   8.574  1.8098  0.2524  1.6522
  253MOL0     H33337   6.625   6.580   8.460  1.4186 -0.1525  3.5632
  253MOL0     H33338   6.569   6.434   8.368  1.4902 -1.2089  0.9093
  253MOL0     H33339   6.676   6.391   8.636 -0.4597 -2.6309  0.0173
  253MOL0     H33340   6.689   6.303   8.501 -0.9210  0.2329  1.1821
  253MOL0     H33341   6.841   6.572   8.536  1.2232  0.9215 -1.1511
  253MOL0     H33342   6.880   6.462   8.399  4.9706 -0.4395  1.4139
  253MOL0     H33343   6.924   6.283   8.542  0.1847  0.9893 -0.6538
  253MOL0     H33344   6.901   6.388   8.692 -2.8627  2.3828 -0.7429
  253MOL0     H33345   7.101   6.400   8.460  0.1969 -1.6799  1.0516
  253MOL0     H33346   7.094   6.535   8.557  1.2649 -0.5851 -0.2805
  253MOL0     H33347   7.169   6.243   8.645 -0.0402 -0.1080 -1.9910
  253MOL0     H33348   7.116   6.359   8.768 -1.3809 -4.1166  0.0470
  253MOL0     H33349   7.364   6.402   8.447 -2.4736  2.2577 -0.4097
  253MOL0     H33350   7.635   6.342   8.474  3.9995 -0.9566 -0.0181
  253MOL0     H33351   7.713   6.403   8.616  0.7941  1.6026 -0.7205
  253MOL0     H33352   7.687   6.640   8.533 -0.5010  0.4950 -1.9454
  253MOL0     H33353   7.605   6.580   8.401  2.3394  1.8183 -2.1492
  253MOL0     H33354   7.867   6.462   8.456 -4.5025  0.1044  2.9337
  253MOL0     H33355   7.820   6.516   8.292  4.7194 -2.7386 -0.0578
  253MOL0     H33356   7.994   6.654   8.338  0.3634  0.1018 -0.0775
  253MOL0     H33357   7.925   6.703   8.497  0.5032 -0.2118 -0.8627
  253MOL0     H33358   7.736   6.998   8.251  0.6474  1.7921 -0.0142
  253MOL0     H33359   7.761   7.107   8.032  1.8349  0.7879  1.9792
  253MOL0     H33360   8.189   6.951   7.713  0.1628 -0.1748 -0.2802
  253MOL0     H33361   8.306   7.131   7.551 -0.5365  0.7220 -1.1455
  253MOL0     H33362   8.012   7.346   7.299  2.0385  3.8967  0.1009
  253MOL0     H33363   8.057   7.232   7.177 -1.7535 -0.2768  0.8104
  253MOL0     H33364   8.243   7.455   7.283  1.2276 -2.4423 -0.4795
  253MOL0     H33365   8.130   7.502   7.158 -2.2707 -1.1099  0.8838
  253MOL0     H33366   8.227   7.299   7.026 -2.8238  0.0896  2.6479
  253MOL0     H33367   8.364   7.313   7.135  0.5804 -0.7925 -0.3302
  253MOL0     H33368   8.263   7.501   6.917  0.7238 -1.1942  0.0100
  253MOL0     H33369   8.336   7.570   7.065  0.5414 -1.5640  2.3552
  253MOL0     H33370   8.527   7.411   7.037  1.8432 -0.3881 -0.4972
  253MOL0     H33371   8.523   7.547   6.923 -2.3665  0.5030 -0.7699
  253MOL0     H33372   8.409   7.388   6.745  0.1462 -1.8910 -0.8883
  253MOL0     H33373   8.396   7.272   6.861 -0.0964 -0.3450 -2.3669
  253MOL0     H33374   8.658   7.380   6.737 -2.0417  1.9776 -1.1590
  253MOL0     H33375   8.672   7.290   6.879 -0.3902  2.0962  0.3541
  253MOL0     H33376   8.546   7.097   6.733  3.3975 -1.5337  1.3684
  253MOL0     H33377   8.705   7.157   6.679  1.2657  2.5483  1.3959
  253MOL0     H33378   7.937   7.156   7.338  2.4210 -0.6144 -2.9176
  253MOL0     H33379   7.824   7.019   7.512 -0.4586 -0.1365  1.9293
  253MOL0     H33380   8.010   6.763   7.924  0.9430  1.4717 -1.8265
  253MOL0     H33381   7.963   6.662   8.130  2.3871  1.1203  0.1461
  253MOL0     H33382   6.381   6.835   8.589  0.4046 -2.2267 -0.1408
  253MOL0     H33383   6.318   7.046   8.680 -2.9207  0.3778 -1.1391
  253MOL0     H33384   5.904   7.265   9.111 -0.2333  0.7170  0.2651
  253MOL0     H33385   5.930   7.503   9.202 -0.8018  0.2180 -1.0048
  253MOL0     H33386   6.053   7.562   9.397 -0.4921  0.0554 -0.4149
  253MOL0     H33387   6.034   7.734   9.342 -0.5787 -0.1118 -0.4705
  253MOL0     H33388   6.246   7.773   9.452 -0.4576  0.4901  3.4591
  253MOL0     H33389   6.158   7.665   9.551  1.5191  0.7394  0.7271
  253MOL0     H33390   6.373   7.564   9.373 -0.0141  0.8539 -0.2364
  253MOL0     H33391   6.269   7.469   9.487 -0.5935 -0.8513  0.0101
  253MOL0     H33392   6.358   7.646   9.673 -0.3800  2.1134 -0.4221
  253MOL0     H33393   6.463   7.519   9.601 -1.3105 -2.7895 -5.1404
  253MOL0     H33394   6.619   7.890   9.456  1.4290 -1.5597 -0.1150
  253MOL0     H33395   6.313   7.526   9.019  0.3874  0.4639  1.6346
  253MOL0     H33396   6.289   7.317   8.920 -3.3288 -4.0559 -2.5271
  254MOL0     O33397   5.497   6.627   2.294  0.4579  0.5409  0.0775
  254MOL0     C33398   5.541   6.719   2.220  0.6670  0.3411 -0.5308
  254MOL0     O33399   5.471   6.790   2.126 -0.4253 -0.8120 -0.2127
  254MOL0     C33400   5.338   6.768   2.125 -1.0125 -0.0262  0.8795
  254MOL0     C33401   5.285   6.650   2.059 -0.3020 -0.2977  0.0804
  254MOL0     C33402   5.149   6.633   2.041  0.0941  0.6401 -0.4311
  254MOL0     C33403   5.059   6.724   2.101 -0.1108 -0.2110 -1.4109
  254MOL0     O33404   4.919   6.707   2.121 -0.1559  1.0062  0.3815
  254MOL0     C33405   4.868   6.578   2.069 -0.1815 -0.6869  0.4581
  254MOL0     C33406   4.892   6.466   2.172  1.1553 -0.1915  0.6719
  254MOL0     C33407   4.797   6.345   2.141  0.9266  0.3655 -0.7809
  254MOL0     C33408   4.840   6.223   2.237  0.4131 -0.0682  1.2366
  254MOL0     C33409   4.751   6.102   2.228 -0.0598 -0.3278 -0.2035
  254MOL0     C33410   4.605   6.125   2.275 -0.3997  0.3432 -0.9009
  254MOL0     C33411   4.513   6.006   2.238 -0.4370  0.0359  0.0435
  254MOL0     C33412   4.369   6.060   2.239 -0.6329 -0.2820 -0.0515
  254MOL0     N33413   4.288   5.954   2.166 -0.2215 -0.3645  0.1644
  254MOL0     C33414   4.197   5.874   2.220  0.0366  1.4309  0.6834
  254MOL0     C33415   4.141   5.806   2.110 -0.0839 -0.3964 -0.3157
  254MOL0     C33416   4.030   5.705   2.110  0.1525 -0.0293  0.2180
  254MOL0     C33417   3.895   5.776   2.092  0.7103 -0.0067 -0.6363
  254MOL0     C33418   3.777   5.690   2.125 -0.0240  1.1099 -0.2813
  254MOL0     C33419   3.740   5.585   2.016 -0.0186 -1.2769 -0.5384
  254MOL0     O33420   3.682   5.459   2.067 -0.5296  0.0083 -0.1932
  254MOL0     C33421   3.555   5.461   2.116  0.4859  1.2957  0.5124
  254MOL0     C33422   3.503   5.333   2.154  0.1096  0.0818 -0.7743
  254MOL0     C33423   3.370   5.318   2.195  0.5400 -0.2338  0.5246
  254MOL0     C33424   3.278   5.423   2.198  0.6806  0.6253  0.7431
  254MOL0     C33425   3.138   5.408   2.233 -0.1464 -0.1160 -0.4122
  254MOL0     O33426   3.052   5.506   2.210  1.0668  0.0882  0.4908
  254MOL0     C33427   2.911   5.516   2.242 -0.9942  0.4703 -0.0120
  254MOL0     C33428   2.853   5.640   2.211  0.1500 -0.5475 -0.5544
  254MOL0     C33429   2.720   5.661   2.240  0.1396 -0.1944 -1.1526
  254MOL0     C33430   2.645   5.565   2.322  0.8836 -0.5180  0.0898
  254MOL0     O33431   2.515   5.602   2.359 -0.3921  0.2748 -0.0944
  254MOL0     C33432   2.491   5.614   2.505 -0.5937 -0.4278 -0.5765
  254MOL0     C33433   2.354   5.676   2.517  0.5424 -0.0744  0.0421
  254MOL0     C33434   2.319   5.800   2.429 -0.2918 -0.1200 -0.1033
  254MOL0     C33435   2.409   5.927   2.454  0.1680 -0.3995  0.0342
  254MOL0     C33436   2.395   6.021   2.334  0.2113  0.4155 -1.2719
  254MOL0     C33437   2.467   5.968   2.208  0.3208 -0.7834  0.7501
  254MOL0     C33438   2.505   6.079   2.117 -1.1741 -1.2648 -0.3278
  254MOL0     C33439   2.560   6.036   1.975  0.1839  0.0788 -0.7309
  254MOL0    Cl33440   2.719   5.938   2.005  0.3931  0.1050  0.1845
  254MOL0     C33441   2.699   5.444   2.340 -0.7472 -0.3505 -0.0319
  254MOL0     C33442   2.836   5.412   2.299  0.2775 -0.4816  0.1834
  254MOL0     O33443   3.106   5.308   2.283  0.5507  0.2732  0.0265
  254MOL0     C33444   3.332   5.544   2.149 -0.1561 -0.2913 -0.4776
  254MOL0     C33445   3.468   5.560   2.107  0.1550  0.3633  0.3420
  254MOL0     N33446   4.204   5.844   1.994  0.4934 -0.3637  0.2830
  254MOL0     N33447   4.284   5.925   2.036 -0.2462 -0.9120 -0.3097
  254MOL0     C33448   5.103   6.841   2.172  0.1670 -0.0842  0.6814
  254MOL0     C33449   5.245   6.856   2.177  0.2517 -0.3019  0.3915
  254MOL0     C33450   5.678   6.761   2.253  0.2844 -0.6996 -0.6134
  254MOL0     C33451   5.771   6.680   2.320 -0.1524  0.5222 -0.4544
  254MOL0     C33452   5.893   6.735   2.363 -1.1756 -0.2392  0.0476
  254MOL0     C33453   5.922   6.868   2.351 -0.5049  1.0600 -0.7112
  254MOL0     O33454   6.031   6.924   2.400  0.2937  0.5463  0.0161
  254MOL0     C33455   6.032   6.934   2.546  0.4315  0.2044 -0.0682
  254MOL0     C33456   5.943   7.055   2.589  0.2186 -0.1177 -0.5086
  254MOL0     C33457   5.812   7.002   2.654 -0.8793  0.0045  0.6061
  254MOL0     C33458   5.789   7.066   2.790 -1.4627 -0.7546 -0.1056
  254MOL0     C33459   5.864   6.996   2.895  0.6392 -0.2697 -0.5860
  254MOL0     C33460   5.924   6.943   2.986  0.5902  0.2870 -0.3112
  254MOL0     C33461   5.832   6.950   2.287 -0.1246 -0.7514 -0.6771
  254MOL0     C33462   5.711   6.898   2.237 -0.1538  0.1986 -0.2012
  254MOL0     H33463   5.352   6.571   2.026  3.4693  3.2492 -1.5810
  254MOL0     H33464   5.111   6.540   2.000 -1.8591  2.2488 -2.5318
  254MOL0     H33465   4.918   6.560   1.974  2.5513  3.1108  0.9830
  254MOL0     H33466   4.758   6.583   2.065 -0.1385  0.7969  0.8707
  254MOL0     H33467   4.894   6.514   2.271  3.0548 -1.2205  1.1862
  254MOL0     H33468   4.994   6.430   2.156  1.8306  1.8144  0.1957
  254MOL0     H33469   4.813   6.323   2.036  4.8131 -2.7732  0.2253
  254MOL0     H33470   4.692   6.373   2.149  1.1112  0.6334  1.4898
  254MOL0     H33471   4.934   6.178   2.203 -0.3383 -1.7201  1.2483
  254MOL0     H33472   4.857   6.257   2.340  0.0039 -1.1177  1.6626
  254MOL0     H33473   4.791   6.030   2.300 -1.9694 -1.9589 -0.6824
  254MOL0     H33474   4.747   6.059   2.127 -0.8075 -3.0885  0.8863
  254MOL0     H33475   4.585   6.212   2.211 -1.1005 -1.6431 -3.5769
  254MOL0     H33476   4.586   6.138   2.382  1.0390  1.0182 -0.6997
  254MOL0     H33477   4.546   5.974   2.139  1.2226  0.1471  0.5303
  254MOL0     H33478   4.521   5.923   2.309 -4.5087 -1.8199 -1.3996
  254MOL0     H33479   4.366   6.162   2.199 -1.4236 -0.4482 -0.4367
  254MOL0     H33480   4.341   6.065   2.345  3.8757 -0.8817  1.3958
  254MOL0     H33481   4.166   5.868   2.324 -0.6058  0.7205  0.4555
  254MOL0     H33482   4.028   5.658   2.208 -1.4664  1.2406  0.8429
  254MOL0     H33483   4.044   5.624   2.037  0.2586 -1.7047  2.0253
  254MOL0     H33484   3.875   5.824   1.996 -2.0526 -3.0789 -1.8321
  254MOL0     H33485   3.887   5.865   2.155  1.6523 -1.4498  1.6519
  254MOL0     H33486   3.787   5.638   2.221 -0.9545  4.3738  1.7253
  254MOL0     H33487   3.682   5.743   2.135 -0.0450  0.7355  2.0030
  254MOL0     H33488   3.836   5.555   1.973  0.6950 -0.8199  0.6868
  254MOL0     H33489   3.681   5.638   1.940  1.5232  0.8230 -0.3461
  254MOL0     H33490   3.561   5.243   2.136  0.2063 -0.1010  0.4016
  254MOL0     H33491   3.331   5.221   2.226  0.3486  0.4881  2.7065
  254MOL0     H33492   2.911   5.715   2.158  1.3461 -1.6924 -0.9273
  254MOL0     H33493   2.654   5.738   2.203  0.4422  1.3584  1.2926
  254MOL0     H33494   2.562   5.687   2.544  2.0254 -0.8508 -4.1060
  254MOL0     H33495   2.495   5.523   2.566 -1.3963  0.4710  0.8845
  254MOL0     H33496   2.325   5.694   2.621  0.3020 -0.6615  0.0827
  254MOL0     H33497   2.286   5.600   2.474 -0.6998  2.0361 -1.9684
  254MOL0     H33498   2.218   5.841   2.434 -0.8048 -1.3204 -0.0991
  254MOL0     H33499   2.322   5.761   2.327  0.3752 -0.4213  0.0267
  254MOL0     H33500   2.384   5.978   2.547  1.0060 -0.0513  0.0852
  254MOL0     H33501   2.515   5.899   2.463  0.2442 -1.1852 -2.4390
  254MOL0     H33502   2.448   6.107   2.376  1.9189 -0.4590 -1.5393
  254MOL0     H33503   2.294   6.054   2.310 -0.6831 -2.0922 -1.2988
  254MOL0     H33504   2.398   5.904   2.152  1.4541  0.7790 -2.6771
  254MOL0     H33505   2.557   5.910   2.231  1.8395  0.0731 -2.4390
  254MOL0     H33506   2.418   6.145   2.109 -0.1082  0.4577  1.2927
  254MOL0     H33507   2.588   6.137   2.160 -0.6194 -0.2820 -2.5600
  254MOL0     H33508   2.572   6.129   1.918 -0.6110 -1.0786 -2.8943
  254MOL0     H33509   2.486   5.970   1.929  0.1936  0.3566 -1.1559
  254MOL0     H33510   2.640   5.371   2.394 -2.1629  1.2450  0.6564
  254MOL0     H33511   2.872   5.315   2.332 -1.4494 -1.6786 -1.2664
  254MOL0     H33512   3.258   5.622   2.139 -2.4511 -2.2848 -0.0580
  254MOL0     H33513   3.489   5.656   2.062  0.3053 -1.6055 -4.4074
  254MOL0     H33514   5.030   6.905   2.219 -1.0995 -1.7979  1.1540
  254MOL0     H33515   5.295   6.942   2.219 -0.1388 -0.3709  1.0018
  254MOL0     H33516   5.755   6.574   2.340 -0.8952  1.1421  2.7795
  254MOL0     H33517   5.979   6.678   2.397 -1.4606  0.5878  2.4075
  254MOL0     H33518   6.130   6.966   2.583 -0.6274  0.9919  2.3059
  254MOL0     H33519   6.010   6.841   2.600 -3.3316  1.4996  0.9136
  254MOL0     H33520   5.998   7.107   2.669  0.5175  1.5048 -1.7210
  254MOL0     H33521   5.929   7.124   2.506 -1.8887  2.1114  1.5400
  254MOL0     H33522   5.806   6.893   2.652 -1.6569  0.0422 -0.8781
  254MOL0     H33523   5.729   7.035   2.591 -1.4549  0.1045  1.4068
  254MOL0     H33524   5.820   7.170   2.778 -2.7825 -0.1010  1.6951
  254MOL0     H33525   5.686   7.065   2.827 -0.7525  1.0306  2.1771
  254MOL0     H33526   5.971   6.897   3.071 -2.1518 -2.6682 -0.1611
  254MOL0     H33527   5.861   7.053   2.268 -0.7598 -0.4585 -0.0952
  254MOL0     H33528   5.636   6.961   2.190 -1.9028 -2.0822 -0.6326
  255MOL0     O33529   8.500   5.004   9.186 -0.3312  0.2780  0.0215
  255MOL0     C33530   8.431   4.898   9.208  0.2333 -0.5747 -0.5779
  255MOL0     O33531   8.291   4.894   9.219 -0.2261  0.5353 -0.6338
  255MOL0     C33532   8.218   5.002   9.171 -1.1283 -1.2927  0.2140
  255MOL0     C33533   8.230   5.135   9.219  0.3444 -0.2509  0.4337
  255MOL0     C33534   8.145   5.245   9.195  0.4204  0.4446  0.9788
  255MOL0     C33535   8.031   5.210   9.110 -0.5652  0.5447  0.8355
  255MOL0     O33536   7.938   5.323   9.101 -0.6026 -0.6801  0.0867
  255MOL0     C33537   7.821   5.311   9.016 -0.2685  1.0387  1.0759
  255MOL0     C33538   7.775   5.450   8.988 -0.7049  0.4115 -0.1701
  255MOL0     C33539   7.642   5.461   8.913 -0.3778 -0.7446 -0.0003
  255MOL0     C33540   7.640   5.576   8.821  0.1617  0.6274  0.8552
  255MOL0     C33541   7.508   5.601   8.744 -0.4255 -0.4882 -0.7211
  255MOL0     C33542   7.399   5.635   8.855  0.7165  0.5267  0.5811
  255MOL0     C33543   7.407   5.782   8.913 -0.5261  0.2017 -0.6559
  255MOL0     C33544   7.296   5.808   9.009  0.4186 -1.1516 -0.6477
  255MOL0     N33545   7.176   5.816   8.933 -0.0892 -0.8859  0.2877
  255MOL0     C33546   7.061   5.743   8.958  1.0264  0.8279 -0.8642
  255MOL0     C33547   6.973   5.786   8.871 -0.5624 -0.9309 -0.4426
  255MOL0     C33548   6.826   5.761   8.891  0.5932  0.0809  0.1869
  255MOL0     C33549   6.785   5.805   9.031 -0.4469 -0.2861 -0.8447
  255MOL0     C33550   6.641   5.808   9.063 -0.1065 -1.1912  0.1745
  255MOL0     C33551   6.600   5.907   9.177  0.6357  0.5378  0.3912
  255MOL0     O33552   6.479   5.847   9.225  0.1830 -0.7998  0.3812
  255MOL0     C33553   6.454   5.852   9.360  0.1308 -1.2522  0.0766
  255MOL0     C33554   6.365   5.762   9.410  0.1849 -0.1391  1.0455
  255MOL0     C33555   6.327   5.747   9.540 -0.3216  1.0021  0.5078
  255MOL0     C33556   6.387   5.839   9.628 -0.0239  0.0794  0.0835
  255MOL0     C33557   6.330   5.850   9.766 -0.5990  0.3121  0.4717
  255MOL0     O33558   6.408   5.929   9.845 -0.1247  0.0484 -0.2282
  255MOL0     C33559   6.361   5.987   9.957  0.1837  0.3973 -0.6284
  255MOL0     C33560   6.423   5.978  10.085 -1.1337 -0.2100  0.0080
  255MOL0     C33561   6.361   6.039  10.198  0.2415 -0.3812  0.7578
  255MOL0     C33562   6.236   6.108  10.180 -0.9578 -0.3461 -0.6803
  255MOL0     O33563   6.177   6.185  10.278 -0.0030  0.2896 -0.5887
  255MOL0     C33564   6.252   6.214  10.397 -0.7400  0.9274  0.3275
  255MOL0     C33565   6.191   6.326  10.481  0.1701 -0.2546  0.0644
  255MOL0     C33566   6.169   6.460  10.396 -0.3525  1.0773 -1.0066
  255MOL0     C33567   6.308   6.519  10.361 -0.1932  0.4310 -0.3976
  255MOL0     C33568   6.285   6.614  10.241  0.1075 -0.0880  0.7847
  255MOL0     C33569   6.236   6.755  10.287 -0.1460  0.5104  0.2378
  255MOL0     C33570   6.196   6.837  10.168 -0.1409 -0.6150 -0.1385
  255MOL0     C33571   6.320   6.881  10.088  0.0197 -0.5783 -0.1153
  255MOL0    Cl33572   6.280   7.007   9.967 -0.0839 -0.0563 -0.0788
  255MOL0     C33573   6.174   6.113  10.059  0.3397  0.3725  0.2514
  255MOL0     C33574   6.235   6.050   9.952 -0.4517  1.0637 -0.3401
  255MOL0     O33575   6.239   5.775   9.799  0.1154  0.2194  0.4304
  255MOL0     C33576   6.484   5.932   9.588  0.3631 -0.1578 -0.4421
  255MOL0     C33577   6.515   5.946   9.446 -0.3753 -0.0760 -0.1557
  255MOL0     N33578   7.027   5.885   8.789 -0.3894  0.1077 -1.0283
  255MOL0     N33579   7.145   5.908   8.836 -0.3184 -0.5557 -0.1742
  255MOL0     C33580   8.027   5.088   9.041  0.3164  0.6275 -0.9802
  255MOL0     C33581   8.120   4.982   9.075  0.7263  0.2238  0.4688
  255MOL0     C33582   8.516   4.774   9.237  1.0111  0.2255  0.3196
  255MOL0     C33583   8.651   4.775   9.228  0.5895 -0.1116 -0.1933
  255MOL0     C33584   8.716   4.658   9.280  1.1253  0.3866  0.6146
  255MOL0     C33585   8.647   4.545   9.325  0.5618  0.8810 -1.3193
  255MOL0     O33586   8.723   4.433   9.356  0.3504 -0.3004 -0.6451
  255MOL0     C33587   8.753   4.337   9.253 -0.1423  0.4378  0.1420
  255MOL0     C33588   8.887   4.375   9.181 -0.8496 -0.5118  0.0023
  255MOL0     C33589   9.006   4.393   9.282  0.6590 -0.4145  0.0920
  255MOL0     C33590   9.124   4.471   9.228  1.0107 -0.8421  0.6159
  255MOL0     C33591   9.224   4.482   9.328 -0.0928  0.5303 -0.1393
  255MOL0     C33592   9.306   4.503   9.413 -0.3406 -0.2747 -0.5142
  255MOL0     C33593   8.509   4.546   9.327  0.0322 -0.2894 -0.0174
  255MOL0     C33594   8.441   4.658   9.280  0.2949  1.0882  0.3427
  255MOL0     H33595   8.300   5.141   9.301  2.2926 -0.1910 -1.1476
  255MOL0     H33596   8.163   5.341   9.243  3.7874 -0.7352  2.3777
  255MOL0     H33597   7.753   5.249   9.075  0.2164  1.0064  1.6097
  255MOL0     H33598   7.848   5.254   8.927  0.1276  2.9904 -0.1152
  255MOL0     H33599   7.860   5.497   8.938  0.8134 -2.4884 -0.5399
  255MOL0     H33600   7.753   5.503   9.081 -0.5413 -0.7451  0.5456
  255MOL0     H33601   7.567   5.456   8.991  1.0091  1.2522  1.5679
  255MOL0     H33602   7.621   5.376   8.847 -1.9732 -1.1590  0.9957
  255MOL0     H33603   7.668   5.666   8.877  0.9885  1.1707 -0.4018
  255MOL0     H33604   7.717   5.560   8.745 -1.7511  0.0304 -1.0547
  255MOL0     H33605   7.481   5.513   8.685 -0.7386 -0.7403 -0.2073
  255MOL0     H33606   7.522   5.683   8.673 -0.0130  0.1940  0.1274
  255MOL0     H33607   7.382   5.562   8.934 -1.6655 -0.0758 -0.3857
  255MOL0     H33608   7.306   5.622   8.799 -2.4376  3.7781  4.3841
  255MOL0     H33609   7.501   5.797   8.966  0.2291  0.8394 -2.1213
  255MOL0     H33610   7.417   5.856   8.834  2.9549  0.1478 -0.4220
  255MOL0     H33611   7.325   5.902   9.057 -2.5744 -0.7805  0.6800
  255MOL0     H33612   7.284   5.734   9.089 -2.2689  0.2133  0.3419
  255MOL0     H33613   7.043   5.673   9.039  1.0142  2.6620  0.8148
  255MOL0     H33614   6.798   5.657   8.876  1.5782 -1.0989  4.9182
  255MOL0     H33615   6.773   5.827   8.821 -1.4213 -0.7703  0.8316
  255MOL0     H33616   6.832   5.903   9.046 -0.6383 -0.1744 -0.9761
  255MOL0     H33617   6.831   5.733   9.099  1.9253  2.9673  1.2936
  255MOL0     H33618   6.593   5.844   8.972  0.1733  2.6402  1.3345
  255MOL0     H33619   6.611   5.704   9.077  0.1197 -1.1292  1.2120
  255MOL0     H33620   6.586   6.005   9.130 -0.5264  1.0294  1.6914
  255MOL0     H33621   6.679   5.920   9.252  1.4828 -0.6808 -0.2680
  255MOL0     H33622   6.314   5.706   9.333 -0.3861  0.6254  0.8540
  255MOL0     H33623   6.252   5.675   9.570 -0.3641  0.0095 -1.7846
  255MOL0     H33624   6.515   5.923  10.099 -1.7271 -1.0884  0.5478
  255MOL0     H33625   6.393   6.023  10.300 -0.0556 -0.9312  0.7643
  255MOL0     H33626   6.358   6.228  10.372 -0.2579 -3.4403 -0.7758
  255MOL0     H33627   6.253   6.124  10.459 -2.4461 -0.3862 -1.4200
  255MOL0     H33628   6.255   6.366  10.560 -0.7835  2.3779 -0.3713
  255MOL0     H33629   6.097   6.283  10.517  0.0115 -1.3788 -1.6210
  255MOL0     H33630   6.122   6.536  10.460  0.3298  0.0700  0.7547
  255MOL0     H33631   6.110   6.435  10.308  1.4186 -0.8990 -1.7225
  255MOL0     H33632   6.339   6.572  10.452 -2.7406  0.8696  0.3013
  255MOL0     H33633   6.368   6.432  10.333 -2.0134 -1.2193  0.5395
  255MOL0     H33634   6.240   6.576  10.149 -2.3829  0.4544  1.6869
  255MOL0     H33635   6.385   6.645  10.208  0.7727 -2.4707  0.4290
  255MOL0     H33636   6.315   6.804  10.344  1.0541  0.9216 -1.6875
  255MOL0     H33637   6.136   6.747  10.330 -1.0371  2.8577 -1.1697
  255MOL0     H33638   6.129   6.793  10.093 -0.7090 -1.4237  0.8190
  255MOL0     H33639   6.141   6.923  10.207  2.6535  0.9194  0.7093
  255MOL0     H33640   6.341   6.796  10.022 -1.2269  0.6325 -2.1945
  255MOL0     H33641   6.397   6.910  10.160  0.4570 -2.6484  0.3338
  255MOL0     H33642   6.089   6.181  10.051 -0.5794 -0.3224  3.0159
  255MOL0     H33643   6.178   6.046   9.860 -0.2544 -0.0440 -0.4277
  255MOL0     H33644   6.530   5.994   9.664 -3.2732  0.7280  1.2228
  255MOL0     H33645   6.574   6.032   9.419 -1.7260  1.5422  1.7010
  255MOL0     H33646   7.948   5.057   8.974  0.3283  1.9635 -1.6259
  255MOL0     H33647   8.112   4.884   9.028  0.8936 -0.3250  1.5450
  255MOL0     H33648   8.704   4.865   9.199 -0.5901  0.5755 -0.2939
  255MOL0     H33649   8.824   4.651   9.278  1.0228 -4.3373  1.1087
  255MOL0     H33650   8.681   4.347   9.171 -1.0352  1.2666  0.9969
  255MOL0     H33651   8.757   4.236   9.296 -2.5649  0.2064 -0.0032
  255MOL0     H33652   8.914   4.293   9.115  0.5551 -1.0201  1.1640
  255MOL0     H33653   8.863   4.452   9.108  1.3191 -0.3441 -0.5848
  255MOL0     H33654   9.028   4.287   9.300  0.0964 -0.5118  0.2069
  255MOL0     H33655   8.965   4.439   9.372  1.0204 -0.2636  0.1827
  255MOL0     H33656   9.155   4.439   9.128  0.1930 -0.3703  0.2004
  255MOL0     H33657   9.090   4.571   9.197  2.9264 -0.6062 -0.9609
  255MOL0     H33658   9.381   4.513   9.488  0.4140  4.4790 -1.5602
  255MOL0     H33659   8.462   4.452   9.354  0.9074 -1.0574 -1.0729
  255MOL0     H33660   8.335   4.661   9.299 -0.2194 -1.1539 -1.6413
  256MOL0     O33661   1.348   3.122   1.640  0.3094 -0.2880 -0.4637
  256MOL0     C33662   1.236   3.103   1.680  0.5921 -0.3464  0.6030
  256MOL0     O33663   1.193   3.145   1.803 -0.1218 -0.1076 -0.1191
  256MOL0     C33664   1.257   3.247   1.870  0.2764  0.0154 -0.1965
  256MOL0     C33665   1.402   3.249   1.884 -0.8786 -0.0682 -0.1890
  256MOL0     C33666   1.465   3.357   1.949 -0.3712  0.3823 -0.3044
  256MOL0     C33667   1.392   3.454   2.017 -0.2588  0.1292 -0.2511
  256MOL0     O33668   1.452   3.547   2.103 -0.5010  0.5566 -0.0150
  256MOL0     C33669   1.570   3.515   2.181  0.5214 -0.4127 -0.0983
  256MOL0     C33670   1.682   3.605   2.144 -0.7512 -0.6391  0.1775
  256MOL0     C33671   1.811   3.531   2.120 -1.4216 -0.2398 -1.3972
  256MOL0     C33672   1.917   3.640   2.093 -0.7828  0.7897  0.0028
  256MOL0     C33673   2.050   3.573   2.093 -0.0553  0.0998 -0.5109
  256MOL0     C33674   2.169   3.676   2.096 -0.8049  0.6318  0.6936
  256MOL0     C33675   2.300   3.587   2.105 -0.3792 -0.6637  0.5157
  256MOL0     C33676   2.422   3.677   2.128 -0.3246  0.2587  0.3000
  256MOL0     N33677   2.457   3.768   2.015 -0.0439 -0.3216 -0.9398
  256MOL0     C33678   2.460   3.738   1.883 -0.2481 -0.1369  0.4907
  256MOL0     C33679   2.484   3.845   1.818  0.1962  0.5459 -0.8293
  256MOL0     C33680   2.504   3.865   1.673  0.5697  0.2024 -0.0091
  256MOL0     C33681   2.367   3.837   1.593 -0.5882  0.0455 -0.0107
  256MOL0     C33682   2.259   3.944   1.625  1.2077  0.2017  0.4465
  256MOL0     C33683   2.125   3.913   1.548  0.6117  0.7625 -0.8067
  256MOL0     O33684   2.022   4.005   1.585  0.3638  0.8045 -0.2382
  256MOL0     C33685   1.897   3.984   1.542  1.3739 -0.1736 -0.0273
  256MOL0     C33686   1.797   4.074   1.583 -0.8459  0.1364  0.3267
  256MOL0     C33687   1.664   4.073   1.528 -1.1566  0.0361  0.1111
  256MOL0     C33688   1.637   3.982   1.435  0.3203 -0.7785 -0.0401
  256MOL0     C33689   1.501   3.969   1.386  0.1855  0.7839  0.1794
  256MOL0     O33690   1.458   3.848   1.330 -0.7620  0.6423  0.3653
  256MOL0     C33691   1.328   3.820   1.308 -0.8157  1.1038  0.0633
  256MOL0     C33692   1.283   3.784   1.182 -0.1738  0.2772  0.4617
  256MOL0     C33693   1.146   3.772   1.162 -0.0686  0.4625  0.8049
  256MOL0     C33694   1.057   3.793   1.257  0.4713  0.0971 -0.1984
  256MOL0     O33695   0.924   3.788   1.232  0.1097 -0.0080  1.3327
  256MOL0     C33696   0.856   3.683   1.308 -1.4841  0.6019  0.5248
  256MOL0     C33697   0.721   3.657   1.246 -0.0151  0.1855 -1.0568
  256MOL0     C33698   0.652   3.557   1.335  0.7846  0.1974 -0.3147
  256MOL0     C33699   0.518   3.516   1.276  0.8193  0.1533  1.0134
  256MOL0     C33700   0.436   3.424   1.372  0.2253 -0.2401  0.2434
  256MOL0     C33701   0.305   3.369   1.298  0.2834 -0.2280  0.0828
  256MOL0     C33702   0.199   3.297   1.393  0.3828 -0.7850  0.3665
  256MOL0     C33703   0.223   3.143   1.409 -0.1172  0.2642 -0.3835
  256MOL0    Cl33704   0.106   3.098   1.544 -0.2833 -0.0372 -0.1743
  256MOL0     C33705   1.099   3.823   1.385  0.9984 -0.3500  0.2362
  256MOL0     C33706   1.232   3.838   1.417 -0.2827  0.2992  0.5991
  256MOL0     O33707   1.420   4.052   1.418  0.4134 -0.1745 -0.6425
  256MOL0     C33708   1.736   3.897   1.388 -0.6561  0.8699 -0.3951
  256MOL0     C33709   1.864   3.890   1.447 -0.6470  0.2368 -0.5596
  256MOL0     N33710   2.503   3.946   1.911 -0.1730 -0.0547  0.1553
  256MOL0     N33711   2.480   3.906   2.032 -0.0107 -0.1613 -0.3205
  256MOL0     C33712   1.254   3.444   2.006  0.5902  0.0745  0.4694
  256MOL0     C33713   1.185   3.342   1.940  0.0103  0.4133 -1.1964
  256MOL0     C33714   1.136   3.029   1.598 -0.1089  0.8627  0.9147
  256MOL0     C33715   1.006   3.005   1.648  0.1203  0.1638  0.4023
  256MOL0     C33716   0.921   2.929   1.576  1.2605  0.5488  0.4572
  256MOL0     C33717   0.957   2.866   1.457 -0.1813 -0.3371 -0.6776
  256MOL0     O33718   0.874   2.773   1.398 -0.7605  0.2198 -0.1646
  256MOL0     C33719   0.732   2.813   1.398 -0.7042  0.1397  0.4596
  256MOL0     C33720   0.668   2.778   1.263  0.0282  0.1429 -0.0680
  256MOL0     C33721   0.515   2.750   1.269  0.3740 -0.0411  0.3204
  256MOL0     C33722   0.468   2.672   1.159  0.1557 -0.8346 -0.3709
  256MOL0     C33723   0.320   2.669   1.143  0.2162  1.1662  0.1017
  256MOL0     C33724   0.198   2.688   1.120  0.1797 -0.0302 -0.1396
  256MOL0     C33725   1.075   2.897   1.393 -0.6110  0.2513  0.2457
  256MOL0     C33726   1.170   2.975   1.468 -0.5754 -0.1983  0.8488
  256MOL0     H33727   1.463   3.168   1.843 -0.7335  0.9310 -2.0850
  256MOL0     H33728   1.572   3.345   1.946 -0.3597  0.2758  0.3656
  256MOL0     H33729   1.608   3.412   2.177  1.6432 -0.2188  2.9064
  256MOL0     H33730   1.532   3.547   2.278  0.7881  3.5931 -1.1601
  256MOL0     H33731   1.699   3.677   2.224  2.0760 -2.8188  1.7149
  256MOL0     H33732   1.658   3.658   2.051 -0.6664 -1.1597 -0.1486
  256MOL0     H33733   1.804   3.451   2.046  1.5464  0.1035 -2.1832
  256MOL0     H33734   1.835   3.473   2.209 -2.1123 -0.4509 -1.3397
  256MOL0     H33735   1.909   3.679   1.991 -1.9463  0.4941 -0.0287
  256MOL0     H33736   1.911   3.722   2.164 -0.6066  2.0066 -1.3540
  256MOL0     H33737   2.048   3.512   2.002 -0.1514  0.5739 -0.8316
  256MOL0     H33738   2.068   3.511   2.180 -0.7670  3.0598  1.9314
  256MOL0     H33739   2.153   3.739   2.184 -1.3704  1.6437 -0.1179
  256MOL0     H33740   2.177   3.723   1.997  0.5461 -1.1244 -0.1023
  256MOL0     H33741   2.286   3.521   2.191 -0.5845  1.1205  1.9317
  256MOL0     H33742   2.312   3.530   2.013 -1.5472  1.2258 -0.8627
  256MOL0     H33743   2.510   3.615   2.148 -0.7287  0.5881  3.6657
  256MOL0     H33744   2.408   3.730   2.222 -2.1724  0.0326  0.1999
  256MOL0     H33745   2.435   3.643   1.836 -1.4985 -0.2156  1.2386
  256MOL0     H33746   2.582   3.793   1.647 -0.4952 -2.5629  3.6866
  256MOL0     H33747   2.543   3.962   1.642  0.1032  0.3239 -0.2363
  256MOL0     H33748   2.347   3.738   1.634  1.2716  0.3158  1.6906
  256MOL0     H33749   2.388   3.834   1.486  2.6012  2.3950  0.4034
  256MOL0     H33750   2.241   3.939   1.733 -1.2394  3.1154  0.3291
  256MOL0     H33751   2.305   4.041   1.603  0.1093  0.7548  0.5064
  256MOL0     H33752   2.098   3.811   1.577 -0.0776  1.4956  1.3078
  256MOL0     H33753   2.134   3.908   1.439  0.0360 -1.8200 -0.7931
  256MOL0     H33754   1.828   4.159   1.643  1.2926 -1.0419  1.0051
  256MOL0     H33755   1.586   4.142   1.558 -0.1534  1.4429 -0.4143
  256MOL0     H33756   1.364   3.771   1.110  0.1054 -4.0261  1.2390
  256MOL0     H33757   1.116   3.732   1.066 -2.2187  1.2612  1.0801
  256MOL0     H33758   0.843   3.719   1.410  0.7507  1.7117  0.4837
  256MOL0     H33759   0.919   3.594   1.310  0.2679  1.7434 -0.5925
  256MOL0     H33760   0.738   3.605   1.151 -2.0968 -4.1826  0.6705
  256MOL0     H33761   0.658   3.744   1.227  1.6071  1.8895  0.9537
  256MOL0     H33762   0.637   3.616   1.426  0.0044 -1.2422  0.5266
  256MOL0     H33763   0.724   3.478   1.360  0.5935  0.1573  0.1138
  256MOL0     H33764   0.461   3.607   1.253 -1.0592 -0.7363  1.9423
  256MOL0     H33765   0.541   3.459   1.186  1.0002 -0.9863  1.7684
  256MOL0     H33766   0.414   3.485   1.460  2.1280  1.6992 -0.5307
  256MOL0     H33767   0.498   3.341   1.408  0.5470 -0.1216 -0.0375
  256MOL0     H33768   0.336   3.320   1.206  0.0355  2.8459 -1.7959
  256MOL0     H33769   0.257   3.464   1.272  1.8268  1.0388  1.5475
  256MOL0     H33770   0.205   3.346   1.490  1.1828  0.1960 -0.1629
  256MOL0     H33771   0.098   3.311   1.352  0.1571 -1.2630  0.7470
  256MOL0     H33772   0.327   3.110   1.421 -0.1425  0.2843 -0.1008
  256MOL0     H33773   0.197   3.101   1.311 -0.0129  1.6189 -1.0123
  256MOL0     H33774   1.023   3.837   1.461  2.1838  0.6150  1.2984
  256MOL0     H33775   1.260   3.858   1.520 -2.1532 -2.3144  1.7493
  256MOL0     H33776   1.712   3.836   1.302  0.6076  1.2264 -1.0312
  256MOL0     H33777   1.941   3.820   1.417 -1.2360 -1.0774  0.8554
  256MOL0     H33778   1.190   3.514   2.059 -0.7163 -0.4454 -0.3575
  256MOL0     H33779   1.077   3.326   1.942  0.4261 -3.2355 -1.4587
  256MOL0     H33780   0.986   3.016   1.754  1.4834  1.6473  0.5455
  256MOL0     H33781   0.824   2.908   1.620  1.3359  3.1647  2.0280
  256MOL0     H33782   0.726   2.921   1.415 -0.5041  0.3747 -0.9011
  256MOL0     H33783   0.683   2.759   1.480 -0.6204  0.0871  0.4746
  256MOL0     H33784   0.693   2.847   1.182 -1.4043  0.5113 -0.2320
  256MOL0     H33785   0.709   2.681   1.232 -2.5330 -0.8467 -0.6773
  256MOL0     H33786   0.462   2.846   1.269  3.6743  1.9950  2.6376
  256MOL0     H33787   0.499   2.687   1.357 -0.2834 -2.2185 -1.2620
  256MOL0     H33788   0.517   2.707   1.068 -1.0341  1.2395 -0.2680
  256MOL0     H33789   0.496   2.567   1.170 -0.8184 -1.1009 -0.2727
  256MOL0     H33790   0.097   2.713   1.093 -0.1898 -1.7326 -0.4590
  256MOL0     H33791   1.092   2.847   1.298  5.8721 -2.1377  2.1315
  256MOL0     H33792   1.254   3.015   1.413 -0.5325  1.3665  1.9916
  257MOL0     O33793   4.165   1.158   8.684  0.6061 -0.5031  0.0329
  257MOL0     C33794   4.166   1.032   8.700 -0.9132  0.9697 -1.0976
  257MOL0     O33795   4.064   0.951   8.719  0.3094 -0.6957  0.4953
  257MOL0     C33796   3.942   0.982   8.684  1.2591 -0.4036  0.3226
  257MOL0     C33797   3.836   0.930   8.773 -0.3250 -0.1136 -0.4007
  257MOL0     C33798   3.698   0.946   8.746 -0.1241  0.7491  0.7964
  257MOL0     C33799   3.662   1.040   8.648  0.1526 -0.5606 -0.6769
  257MOL0     O33800   3.532   1.067   8.610 -0.0614 -0.0546 -0.0184
  257MOL0     C33801   3.422   1.031   8.697 -0.1765  0.7010  0.3875
  257MOL0     C33802   3.300   1.009   8.603  0.0181  0.6517 -0.2469
  257MOL0     C33803   3.168   0.994   8.685  0.5816  0.2476 -0.2752
  257MOL0     C33804   3.051   0.940   8.596  0.6271  0.4246 -0.1012
  257MOL0     C33805   2.908   0.990   8.649  0.6337  0.0873  0.8825
  257MOL0     C33806   2.798   0.961   8.540 -0.6480  0.5304  0.0335
  257MOL0     C33807   2.809   0.843   8.451  0.4810  0.3346 -0.0023
  257MOL0     C33808   2.665   0.801   8.400 -0.1157 -0.3597 -0.2838
  257MOL0     N33809   2.606   0.889   8.296 -0.1438 -0.6017  0.1033
  257MOL0     C33810   2.635   0.898   8.162  0.6479 -0.0392  0.1028
  257MOL0     C33811   2.543   0.999   8.116 -1.5910  0.6140  0.2012
  257MOL0     C33812   2.535   1.050   7.970 -0.3224 -0.4141 -0.1607
  257MOL0     C33813   2.666   1.129   7.940  0.3375 -0.1647  0.6740
  257MOL0     C33814   2.717   1.112   7.790  0.9045  0.1202  0.1977
  257MOL0     C33815   2.641   1.203   7.702  0.2987  0.7126 -0.6423
  257MOL0     O33816   2.677   1.184   7.566 -0.0682 -0.3773 -0.0148
  257MOL0     C33817   2.617   1.260   7.472  0.4328  0.0352  0.5891
  257MOL0     C33818   2.644   1.209   7.345 -0.8600 -1.1147  1.0479
  257MOL0     C33819   2.606   1.285   7.227  0.2928 -0.1236  0.2132
  257MOL0     C33820   2.554   1.415   7.242 -0.3522  0.8230  0.2340
  257MOL0     C33821   2.526   1.500   7.121  0.7579  0.3376 -0.4341
  257MOL0     O33822   2.466   1.613   7.154 -0.0941 -0.2733  0.9147
  257MOL0     C33823   2.442   1.715   7.067 -0.4228 -0.6929  0.5600
  257MOL0     C33824   2.524   1.748   6.959 -0.2962 -0.8390 -0.2876
  257MOL0     C33825   2.503   1.867   6.886 -0.3420 -0.2250 -0.1395
  257MOL0     C33826   2.400   1.955   6.922 -0.7675  0.0030  0.0485
  257MOL0     O33827   2.394   2.076   6.849  0.4214  0.2664 -0.4545
  257MOL0     C33828   2.280   2.161   6.875 -0.0170  0.1056  0.2447
  257MOL0     C33829   2.160   2.105   6.786  0.3470  0.1151 -0.5913
  257MOL0     C33830   2.039   2.203   6.793  0.7003 -1.0181  1.0887
  257MOL0     C33831   1.911   2.121   6.754  0.0229  0.2605 -0.7334
  257MOL0     C33832   1.783   2.198   6.750  0.0984  0.2113  0.3828
  257MOL0     C33833   1.732   2.249   6.883  1.4389 -0.0516  0.6630
  257MOL0     C33834   1.613   2.348   6.848 -0.0663 -0.2025 -0.3620
  257MOL0     C33835   1.532   2.407   6.965  0.7962 -1.1829  0.0183
  257MOL0    Cl33836   1.485   2.270   7.086 -0.2087  0.2418  0.0187
  257MOL0     C33837   2.308   1.916   7.022 -0.2985 -0.2397 -0.9746
  257MOL0     C33838   2.333   1.799   7.097  0.3190 -0.8150 -0.8396
  257MOL0     O33839   2.549   1.462   7.007  0.5885  0.3983 -0.8596
  257MOL0     C33840   2.526   1.461   7.373  0.5483 -0.2501  0.7494
  257MOL0     C33841   2.562   1.389   7.487  0.1688  0.5848 -0.2129
  257MOL0     N33842   2.477   1.049   8.225  0.0313 -0.8299 -0.8235
  257MOL0     N33843   2.506   0.980   8.328 -0.2236 -1.0144  1.3432
  257MOL0     C33844   3.761   1.074   8.559 -0.2131  0.6296  0.5034
  257MOL0     C33845   3.894   1.041   8.569  0.0372 -0.0168 -0.0809
  257MOL0     C33846   4.299   0.968   8.706 -0.1952 -1.1826 -0.5295
  257MOL0     C33847   4.414   1.051   8.723  0.5986  0.6671  0.3941
  257MOL0     C33848   4.544   0.988   8.730 -0.4227 -0.7631  0.3970
  257MOL0     C33849   4.560   0.845   8.736 -0.5615 -0.0129 -0.5758
  257MOL0     O33850   4.677   0.772   8.755 -0.2811  0.1711  0.0280
  257MOL0     C33851   4.805   0.837   8.744  0.3630 -0.2375 -0.2815
  257MOL0     C33852   4.894   0.734   8.683 -0.8937  0.5940 -0.4088
  257MOL0     C33853   5.044   0.764   8.679 -0.1410  0.4229  0.6474
  257MOL0     C33854   5.107   0.766   8.818 -1.4851  0.3907  0.2127
  257MOL0     C33855   5.094   0.640   8.892  0.6481 -0.8153  0.6788
  257MOL0     C33856   5.074   0.543   8.963 -0.4877  0.1019 -0.7624
  257MOL0     C33857   4.442   0.774   8.737  0.2985  0.6601  0.0679
  257MOL0     C33858   4.319   0.830   8.708  0.2705 -0.3335 -1.1079
  257MOL0     H33859   3.869   0.861   8.850 -1.7465  0.6301  0.9290
  257MOL0     H33860   3.641   0.885   8.815  3.0208 -5.0384 -0.9693
  257MOL0     H33861   3.402   1.104   8.776  1.1065  1.2810  0.1919
  257MOL0     H33862   3.441   0.931   8.738 -2.9762  0.6018  1.6873
  257MOL0     H33863   3.318   0.914   8.552 -2.5796  0.7317 -1.5098
  257MOL0     H33864   3.290   1.082   8.522  0.0552  1.6076  0.5920
  257MOL0     H33865   3.148   1.096   8.722  0.5393  0.5040 -1.0028
  257MOL0     H33866   3.179   0.935   8.777  0.0083  0.1980 -0.2392
  257MOL0     H33867   3.054   0.976   8.492 -1.6973 -4.4354 -2.1587
  257MOL0     H33868   3.048   0.831   8.600  1.6913  0.3289 -1.3227
  257MOL0     H33869   2.919   1.095   8.678 -2.3407  0.8524 -0.3538
  257MOL0     H33870   2.866   0.933   8.733 -1.7412  0.4843  0.0389
  257MOL0     H33871   2.798   1.048   8.475 -0.1977  0.2271 -0.3803
  257MOL0     H33872   2.707   0.963   8.600 -1.3607  0.5097 -1.0309
  257MOL0     H33873   2.880   0.857   8.368  0.7206 -0.9003 -0.0263
  257MOL0     H33874   2.849   0.762   8.512  2.6328  0.7094 -0.8221
  257MOL0     H33875   2.603   0.794   8.489 -0.0270  0.0768 -0.1828
  257MOL0     H33876   2.680   0.699   8.364  0.6408 -1.0035  1.7289
  257MOL0     H33877   2.710   0.848   8.102  0.0428 -3.2901  1.7937
  257MOL0     H33878   2.454   1.120   7.947  0.1057  0.9959  2.2566
  257MOL0     H33879   2.533   0.964   7.903  0.6362  0.6365 -1.5985
  257MOL0     H33880   2.737   1.081   8.007  2.5362 -2.1028 -2.7124
  257MOL0     H33881   2.654   1.238   7.950  0.1499 -0.2655  1.6135
  257MOL0     H33882   2.820   1.144   7.775  1.1630 -1.4496 -1.8611
  257MOL0     H33883   2.732   1.013   7.745  1.8549  1.4173 -2.5954
  257MOL0     H33884   2.640   1.306   7.740 -2.8398  0.5619 -0.0258
  257MOL0     H33885   2.536   1.170   7.706  0.3481  0.3423 -1.9254
  257MOL0     H33886   2.712   1.125   7.335  2.1083  0.9427  2.3754
  257MOL0     H33887   2.632   1.252   7.127 -1.2720 -3.8146  0.8663
  257MOL0     H33888   2.609   1.685   6.933  0.9796  0.1210  1.3447
  257MOL0     H33889   2.579   1.895   6.814 -1.6294 -1.3488 -1.9961
  257MOL0     H33890   2.307   2.256   6.828  0.6305 -0.4295 -0.4990
  257MOL0     H33891   2.264   2.175   6.982  0.0359  0.3576  0.2197
  257MOL0     H33892   2.142   2.008   6.834  6.2217 -1.2763 -0.4627
  257MOL0     H33893   2.187   2.083   6.682 -2.7864 -1.2965 -1.2283
  257MOL0     H33894   2.062   2.295   6.739 -2.6764  1.5532  3.5401
  257MOL0     H33895   2.012   2.235   6.894 -1.0792  1.8932 -0.1696
  257MOL0     H33896   1.919   2.074   6.655 -1.8412 -2.6411  0.3302
  257MOL0     H33897   1.893   2.042   6.828  2.1629 -0.7215 -1.1682
  257MOL0     H33898   1.703   2.139   6.705 -1.6541  2.3074  0.5627
  257MOL0     H33899   1.805   2.286   6.688 -1.3311 -0.3924 -1.0675
  257MOL0     H33900   1.811   2.313   6.925 -0.2284  2.1866  0.5646
  257MOL0     H33901   1.695   2.169   6.948  1.2103 -1.7218 -1.4313
  257MOL0     H33902   1.660   2.430   6.794 -0.6263 -0.0517 -0.6324
  257MOL0     H33903   1.546   2.299   6.777 -0.3257  1.7136 -1.4746
  257MOL0     H33904   1.440   2.459   6.936 -0.1859 -1.1969  2.7925
  257MOL0     H33905   1.597   2.476   7.019  0.1685  0.5343 -1.3175
  257MOL0     H33906   2.239   1.983   7.072  2.5375  0.3018  2.6587
  257MOL0     H33907   2.282   1.768   7.187  0.9170 -1.4936 -0.7186
  257MOL0     H33908   2.485   1.561   7.385 -0.8327 -0.7837  0.7638
  257MOL0     H33909   2.549   1.429   7.587  0.7402 -1.6012  0.7862
  257MOL0     H33910   3.717   1.129   8.476  2.7128  1.7834 -0.4210
  257MOL0     H33911   3.971   1.078   8.501 -1.1937  2.2514 -0.3532
  257MOL0     H33912   4.403   1.158   8.737 -3.6081  0.4619  0.0357
  257MOL0     H33913   4.630   1.054   8.729 -1.8364  1.2041  0.9621
  257MOL0     H33914   4.835   0.887   8.836 -0.6646  4.7813 -2.3712
  257MOL0     H33915   4.802   0.917   8.669  2.6249  0.2708  0.1038
  257MOL0     H33916   4.892   0.644   8.745  0.3123  3.0485  3.6323
  257MOL0     H33917   4.856   0.713   8.583 -0.4420 -1.7520 -0.1476
  257MOL0     H33918   5.056   0.858   8.625 -0.3747 -1.7081 -3.4754
  257MOL0     H33919   5.103   0.686   8.630  1.6600  1.4686  1.0487
  257MOL0     H33920   5.213   0.790   8.812 -1.3746 -0.2646 -0.7827
  257MOL0     H33921   5.060   0.850   8.870 -0.0989 -0.2254  2.5716
  257MOL0     H33922   5.052   0.461   9.028 -0.3416  1.5559  1.1834
  257MOL0     H33923   4.454   0.666   8.736 -0.6210  0.5470 -0.6630
  257MOL0     H33924   4.232   0.765   8.700 -1.0991  1.5612 -2.7411
  258MOL0     O33925   1.080   2.349  10.314 -0.2539 -0.1253  0.3298
  258MOL0     C33926   1.074   2.356  10.432  0.0868 -0.2510 -0.2342
  258MOL0     O33927   1.115   2.463  10.505  0.3593  0.0674  0.1743
  258MOL0     C33928   1.196   2.562  10.453 -0.1248 -0.5255  0.3517
  258MOL0     C33929   1.311   2.527  10.376  0.1671  0.5985 -0.3305
  258MOL0     C33930   1.398   2.618  10.322  0.3650 -0.9929 -0.7276
  258MOL0     C33931   1.387   2.754  10.349  0.4407  0.8143  0.2797
  258MOL0     O33932   1.477   2.841  10.299  0.4893 -0.5681 -0.3746
  258MOL0     C33933   1.433   2.903  10.176 -0.1394 -0.4896  0.9421
  258MOL0     C33934   1.549   2.898  10.079  0.2919 -1.4227  0.7781
  258MOL0     C33935   1.669   2.981  10.119 -0.5409 -0.7818  0.7385
  258MOL0     C33936   1.782   3.007  10.021  0.3082  0.7970  0.0728
  258MOL0     C33937   1.885   3.113  10.072 -0.1254  0.0259 -0.0382
  258MOL0     C33938   1.843   3.253  10.115  0.3433  0.4316  0.1431
  258MOL0     C33939   1.763   3.328  10.007  0.4177 -1.2969 -0.1266
  258MOL0     C33940   1.731   3.479  10.050 -0.3764  0.7235 -0.2505
  258MOL0     N33941   1.619   3.508  10.142 -0.3028 -0.4156 -0.6871
  258MOL0     C33942   1.591   3.632  10.201 -0.4151  0.1478 -0.5544
  258MOL0     C33943   1.470   3.627  10.268  0.3929  1.0067  0.0387
  258MOL0     C33944   1.401   3.728  10.345 -0.5042  0.5494 -0.3292
  258MOL0     C33945   1.255   3.692  10.381 -0.3134  0.3449 -0.4539
  258MOL0     C33946   1.195   3.823  10.453  0.0487 -0.8838  0.8383
  258MOL0     C33947   1.043   3.800  10.462  1.2649 -1.3115  0.0164
  258MOL0     O33948   0.989   3.924  10.504  0.3271 -0.6829 -0.3127
  258MOL0     C33949   0.855   3.919  10.521 -0.1791  0.4501 -0.4872
  258MOL0     C33950   0.756   3.844  10.459  0.0541  0.2865  0.2695
  258MOL0     C33951   0.618   3.857  10.490 -0.9387  0.0521 -0.2335
  258MOL0     C33952   0.581   3.945  10.596 -0.5481 -0.6633  0.3519
  258MOL0     C33953   0.438   3.967  10.613 -0.4319  0.6518 -0.3204
  258MOL0     O33954   0.350   3.866  10.556  0.4695 -0.0927  0.4411
  258MOL0     C33955   0.215   3.877  10.558 -0.2524  0.7690 -0.5696
  258MOL0     C33956   0.132   3.977  10.598 -0.2522  0.5116  0.0024
  258MOL0     C33957  -0.002   3.964  10.588 -0.3181  0.2172  0.1015
  258MOL0     C33958  -0.069   3.846  10.548 -0.1511 -0.0728  0.0941
  258MOL0     O33959  -0.202   3.840  10.528  0.1966  1.1169  0.3163
  258MOL0     C33960  -0.288   3.957  10.559 -0.5926 -0.6490 -0.1263
  258MOL0     C33961  -0.271   4.061  10.445  0.7118 -0.0095 -0.0998
  258MOL0     C33962  -0.297   4.206  10.487  0.0022  0.4448 -0.2718
  258MOL0     C33963  -0.424   4.220  10.584  1.4204 -0.7517 -0.2920
  258MOL0     C33964  -0.459   4.367  10.592 -0.0068  0.0595 -0.0483
  258MOL0     C33965  -0.584   4.392  10.678 -1.1905  0.2692  0.3885
  258MOL0     C33966  -0.593   4.542  10.687  1.0697 -0.1556  0.1198
  258MOL0     C33967  -0.728   4.580  10.749  0.3622  0.3803 -0.4961
  258MOL0    Cl33968  -0.734   4.541  10.928 -0.1286 -0.2117 -0.0561
  258MOL0     C33969   0.007   3.746  10.507  0.3726  0.1161  0.2906
  258MOL0     C33970   0.152   3.761  10.502 -0.1225  0.3690 -0.5182
  258MOL0     O33971   0.402   4.066  10.680  0.5410  0.5067  0.2196
  258MOL0     C33972   0.683   4.021  10.661  0.6403  1.1493 -0.5358
  258MOL0     C33973   0.817   4.005  10.619  0.2714  0.9366  0.6595
  258MOL0     N33974   1.441   3.489  10.276  0.4802  0.0227 -0.4192
  258MOL0     N33975   1.532   3.426  10.202  0.6090  0.5647 -0.1265
  258MOL0     C33976   1.277   2.790  10.435  0.2099 -0.0731 -0.6144
  258MOL0     C33977   1.186   2.698  10.484 -0.6213 -0.2310 -0.5827
  258MOL0     C33978   1.011   2.246  10.504 -0.0612  0.0127  0.0104
  258MOL0     C33979   1.066   2.195  10.619 -0.1033 -0.0580 -0.6280
  258MOL0     C33980   1.013   2.095  10.685  0.2951  0.3129 -0.5743
  258MOL0     C33981   0.885   2.050  10.658 -0.3645  0.7216 -0.1386
  258MOL0     O33982   0.836   1.944  10.729  0.2115 -0.6574  0.3187
  258MOL0     C33983   0.699   1.895  10.705 -0.0649  0.7756 -1.0478
  258MOL0     C33984   0.664   1.767  10.789  0.0656  0.3392 -0.2250
  258MOL0     C33985   0.653   1.805  10.937  0.0002 -0.0086  0.2358
  258MOL0     C33986   0.606   1.683  11.029  0.1386 -0.3298  0.0460
  258MOL0     C33987   0.713   1.598  11.086 -0.3458  0.9060  0.4320
  258MOL0     C33988   0.781   1.511  11.139  0.0048  0.6957  0.7596
  258MOL0     C33989   0.817   2.109  10.553 -0.6481  0.2714  1.2780
  258MOL0     C33990   0.878   2.213  10.474 -0.3350 -0.0481  0.5004
  258MOL0     H33991   1.324   2.424  10.344  0.0697 -0.0203  1.4612
  258MOL0     H33992   1.469   2.578  10.251  3.0565  1.4452  0.3779
  258MOL0     H33993   1.406   3.008  10.190 -2.1122 -0.7434 -0.5775
  258MOL0     H33994   1.348   2.854  10.128 -0.4796  1.1783 -0.2277
  258MOL0     H33995   1.529   2.936   9.978  2.3766  1.3399  1.2814
  258MOL0     H33996   1.584   2.794  10.070  2.4473 -0.7296  0.5343
  258MOL0     H33997   1.707   2.919  10.201  1.9759 -1.0855 -0.5383
  258MOL0     H33998   1.645   3.077  10.164 -0.6985  1.1903 -3.1612
  258MOL0     H33999   1.825   2.909   9.996  0.1893  1.3188 -2.4232
  258MOL0     H34000   1.737   3.031   9.925  0.5424 -1.4675 -0.6651
  258MOL0     H34001   1.963   3.121   9.997  1.1215 -2.1608  0.9347
  258MOL0     H34002   1.934   3.069  10.160 -0.1579 -0.8619 -0.4536
  258MOL0     H34003   1.940   3.303  10.132  1.9959 -1.9301 -1.6715
  258MOL0     H34004   1.779   3.245  10.203  0.6734 -1.3777  0.2621
  258MOL0     H34005   1.819   3.332   9.913 -0.1680  1.3419 -0.4495
  258MOL0     H34006   1.671   3.271   9.992 -0.3607 -0.1373  0.0828
  258MOL0     H34007   1.701   3.534   9.960 -3.2050 -0.4849 -0.1499
  258MOL0     H34008   1.821   3.513  10.102  1.9014 -1.9631 -2.1564
  258MOL0     H34009   1.662   3.713  10.185  0.1660 -0.5242 -1.4676
  258MOL0     H34010   1.413   3.814  10.278  0.4004 -0.3215 -1.3324
  258MOL0     H34011   1.467   3.742  10.431  1.9835 -2.2732 -1.5413
  258MOL0     H34012   1.245   3.607  10.449 -2.2302  1.9623  1.4207
  258MOL0     H34013   1.215   3.680  10.279 -0.7124  2.2126 -0.5533
  258MOL0     H34014   1.246   3.827  10.550  1.6805  1.0661 -0.0248
  258MOL0     H34015   1.219   3.915  10.400  2.7830 -1.9213  0.0765
  258MOL0     H34016   1.011   3.727  10.537 -1.2721 -0.4959 -0.1738
  258MOL0     H34017   1.007   3.769  10.364 -0.9255  2.1353 -0.4143
  258MOL0     H34018   0.788   3.775  10.382 -3.1814 -2.4814  1.1838
  258MOL0     H34019   0.542   3.798  10.439  0.2344 -1.5137 -0.2455
  258MOL0     H34020   0.166   4.074  10.633  0.0510  0.6770 -0.7523
  258MOL0     H34021  -0.049   4.051  10.632  0.0700  0.9907 -0.9744
  258MOL0     H34022  -0.268   3.986  10.662  1.4590 -1.7050 -0.1721
  258MOL0     H34023  -0.393   3.925  10.551 -0.4306 -1.2901  0.2352
  258MOL0     H34024  -0.343   4.033  10.367  1.6715  0.8141 -1.3315
  258MOL0     H34025  -0.167   4.065  10.412  1.3933  0.0473  1.9775
  258MOL0     H34026  -0.295   4.267  10.397  0.1468  2.9662  1.3532
  258MOL0     H34027  -0.200   4.238  10.527  1.4446 -1.3759 -2.0896
  258MOL0     H34028  -0.509   4.162  10.547  0.8074  1.3122 -2.3313
  258MOL0     H34029  -0.397   4.181  10.683  2.0659  2.5826  0.9845
  258MOL0     H34030  -0.490   4.410  10.497 -1.2445  1.0595  0.7741
  258MOL0     H34031  -0.372   4.424  10.628  1.5456 -0.8996 -2.0920
  258MOL0     H34032  -0.572   4.350  10.778  3.8751 -0.7812 -0.3740
  258MOL0     H34033  -0.670   4.353  10.623 -3.3239  2.4011  1.9863
  258MOL0     H34034  -0.525   4.589  10.759 -0.0209  0.8169  0.5479
  258MOL0     H34035  -0.593   4.589  10.589  0.9336 -1.6486 -0.6231
  258MOL0     H34036  -0.812   4.538  10.693 -0.2501  0.1102  0.5717
  258MOL0     H34037  -0.741   4.688  10.743 -1.6415  0.3548  1.7895
  258MOL0     H34038  -0.039   3.654  10.473  1.3381  0.7313 -3.0491
  258MOL0     H34039   0.217   3.682  10.466  0.1208  0.8690 -1.1966
  258MOL0     H34040   0.663   4.095  10.738 -1.5161  0.2572 -0.1726
  258MOL0     H34041   0.902   4.060  10.657  1.0759  0.3964 -0.3092
  258MOL0     H34042   1.274   2.895  10.462 -1.3029 -0.0693 -0.7067
  258MOL0     H34043   1.105   2.725  10.551  0.7514 -0.7942  1.3996
  258MOL0     H34044   1.169   2.219  10.640  0.5205  0.9553 -4.1392
  258MOL0     H34045   1.070   2.047  10.763 -0.1449 -1.7855 -1.4840
  258MOL0     H34046   0.692   1.851  10.605 -4.0225 -1.6583  0.0358
  258MOL0     H34047   0.624   1.975  10.705  0.3595  1.1956 -0.1382
  258MOL0     H34048   0.562   1.736  10.764 -0.1742  0.7164  0.2584
  258MOL0     H34049   0.730   1.680  10.792 -1.6600 -1.0091  1.0577
  258MOL0     H34050   0.594   1.896  10.949 -0.6020 -0.4016  0.3213
  258MOL0     H34051   0.751   1.840  10.969 -0.0957  1.6565 -1.1761
  258MOL0     H34052   0.548   1.728  11.109 -1.1919 -1.0414 -0.4794
  258MOL0     H34053   0.541   1.611  10.978 -0.9676 -1.1198  2.4551
  258MOL0     H34054   0.859   1.443  11.168 -0.1823 -1.5638 -3.2077
  258MOL0     H34055   0.716   2.089  10.518 -0.2124  1.4642 -0.8465
  258MOL0     H34056   0.823   2.272  10.402 -0.7170 -1.9497 -0.8505
  259MOL0     O34057   2.182   3.331   9.055 -0.1434  0.1549  0.3901
  259MOL0     C34058   2.173   3.402   8.957 -0.4129 -0.5126  0.2943
  259MOL0     O34059   2.061   3.479   8.926  0.3361 -0.0356 -0.0328
  259MOL0     C34060   1.941   3.461   8.985 -0.0366 -0.4412  0.6015
  259MOL0     C34061   1.836   3.499   8.905 -0.6551  1.0106 -0.7478
  259MOL0     C34062   1.699   3.495   8.954  0.9695 -0.2341 -0.5316
  259MOL0     C34063   1.676   3.486   9.084 -0.0275 -0.0858  0.3187
  259MOL0     O34064   1.547   3.494   9.125  0.1616  0.1099 -0.2228
  259MOL0     C34065   1.514   3.530   9.257 -0.7718  0.3738  0.9281
  259MOL0     C34066   1.374   3.594   9.254 -0.3510  0.3899  0.3393
  259MOL0     C34067   1.313   3.599   9.392  0.0698  0.2459 -0.2603
  259MOL0     C34068   1.184   3.677   9.419 -0.4442  0.0986  0.3894
  259MOL0     C34069   1.140   3.677   9.573 -0.5366 -0.2380 -0.2550
  259MOL0     C34070   1.000   3.739   9.581  0.0877 -0.3148  0.4023
  259MOL0     C34071   0.965   3.747   9.735  0.6152  0.0757 -0.4966
  259MOL0     C34072   0.849   3.834   9.764 -0.7433 -0.3173 -0.1391
  259MOL0     N34073   0.794   3.830   9.906 -0.5234 -0.8993 -0.1747
  259MOL0     C34074   0.725   3.932   9.966  0.0293  0.7388 -0.6242
  259MOL0     C34075   0.659   3.873  10.069  0.2303 -0.3072 -0.3162
  259MOL0     C34076   0.564   3.956  10.155  0.9551  0.9153  0.3702
  259MOL0     C34077   0.428   3.888  10.173  0.8456 -0.4742  0.0437
  259MOL0     C34078   0.375   3.855  10.027  0.1609 -0.1056 -0.5286
  259MOL0     C34079   0.232   3.835  10.036 -0.6926  0.6080 -0.7127
  259MOL0     O34080   0.184   3.756   9.925  0.1893 -0.4027  0.2610
  259MOL0     C34081   0.047   3.771   9.894  0.7029  0.2986 -0.5470
  259MOL0     C34082  -0.049   3.708   9.985  0.3804  0.7362  0.1772
  259MOL0     C34083  -0.180   3.720   9.952  0.2203  0.1500 -0.1010
  259MOL0     C34084  -0.221   3.796   9.843 -0.1980 -0.0156 -0.5596
  259MOL0     C34085  -0.362   3.786   9.806  0.8827 -0.2708 -0.2993
  259MOL0     O34086  -0.414   3.857   9.702 -0.0289 -0.2140 -0.2199
  259MOL0     C34087  -0.531   3.815   9.648  0.9130 -0.3835  0.0806
  259MOL0     C34088  -0.654   3.886   9.635 -0.3775  1.3989 -0.2091
  259MOL0     C34089  -0.763   3.841   9.566 -0.4854 -0.9995 -0.3658
  259MOL0     C34090  -0.758   3.711   9.506  0.4537 -0.0882  0.5669
  259MOL0     O34091  -0.868   3.655   9.449  1.1039  0.4882  0.0302
  259MOL0     C34092  -0.983   3.733   9.423 -0.2422  0.4570  0.7273
  259MOL0     C34093  -1.082   3.636   9.367  1.1032  0.8161 -0.3104
  259MOL0     C34094  -1.210   3.708   9.321 -0.7298 -0.0757  0.2667
  259MOL0     C34095  -1.322   3.612   9.287  0.3947  0.7842 -0.2534
  259MOL0     C34096  -1.455   3.698   9.270  0.5628  0.0919 -0.4830
  259MOL0     C34097  -1.576   3.613   9.233  0.3555 -0.1682  0.0028
  259MOL0     C34098  -1.630   3.527   9.356 -0.9621  0.0618  1.3957
  259MOL0     C34099  -1.765   3.468   9.323  0.1536  0.5959 -0.6956
  259MOL0    Cl34100  -1.892   3.592   9.314  0.5118  0.3567 -0.2255
  259MOL0     C34101  -0.632   3.637   9.506  0.9050 -0.1771 -0.5061
  259MOL0     C34102  -0.523   3.701   9.566 -0.6498  0.2906 -0.0592
  259MOL0     O34103  -0.437   3.717   9.885 -0.8395  0.2253  0.2307
  259MOL0     C34104  -0.128   3.848   9.751 -0.0306  0.1438  0.5672
  259MOL0     C34105   0.011   3.847   9.780  0.4156  0.0878  0.6660
  259MOL0     N34106   0.709   3.739  10.075 -0.0298  0.1576 -0.4498
  259MOL0     N34107   0.781   3.723   9.976  0.4857  0.7251 -0.5054
  259MOL0     C34108   1.779   3.450   9.164 -0.0660  0.5673 -0.0482
  259MOL0     C34109   1.913   3.439   9.120 -0.2760 -0.0769  0.1720
  259MOL0     C34110   2.290   3.401   8.862 -0.4614 -0.1426 -0.4105
  259MOL0     C34111   2.402   3.330   8.897 -0.2961 -0.2631 -0.3852
  259MOL0     C34112   2.498   3.309   8.800 -0.7683 -0.1682 -0.2490
  259MOL0     C34113   2.491   3.368   8.677 -0.0179  0.4001 -0.4671
  259MOL0     O34114   2.588   3.368   8.581 -0.0969  1.0753  0.6641
  259MOL0     C34115   2.727   3.378   8.603  0.5812 -0.2500 -0.2620
  259MOL0     C34116   2.811   3.316   8.494 -0.3917  0.5446  0.3245
  259MOL0     C34117   2.909   3.412   8.429  0.1608  0.0218 -0.1789
  259MOL0     C34118   2.978   3.334   8.320 -0.4930 -0.2270 -0.4260
  259MOL0     C34119   3.027   3.196   8.335 -0.2005 -0.0798 -0.8943
  259MOL0     C34120   3.087   3.089   8.360  0.5443  0.3747 -0.2100
  259MOL0     C34121   2.378   3.438   8.636 -0.2215  0.3593 -0.5333
  259MOL0     C34122   2.270   3.454   8.731 -0.4903  1.0909 -0.4633
  259MOL0     H34123   1.852   3.516   8.799  1.4751 -0.8401 -0.7889
  259MOL0     H34124   1.624   3.520   8.879 -1.3607 -0.2037  1.6805
  259MOL0     H34125   1.587   3.603   9.294 -0.4208 -0.8410  2.7786
  259MOL0     H34126   1.505   3.447   9.329 -0.4629 -0.2154  0.3030
  259MOL0     H34127   1.321   3.525   9.187 -1.5922  1.4071  0.2270
  259MOL0     H34128   1.359   3.693   9.210 -0.3381  1.2035  2.0782
  259MOL0     H34129   1.398   3.631   9.452  1.4061  1.1712 -2.5317
  259MOL0     H34130   1.281   3.498   9.418 -0.0614 -0.1581 -1.9127
  259MOL0     H34131   1.196   3.781   9.388 -0.0936  0.1105  0.5607
  259MOL0     H34132   1.104   3.634   9.358 -1.9720  0.1453  2.2783
  259MOL0     H34133   1.217   3.725   9.634 -1.3421  0.5154  0.1888
  259MOL0     H34134   1.128   3.571   9.600  0.8366 -0.8524 -1.8552
  259MOL0     H34135   0.917   3.683   9.536  0.3120 -0.8942  0.7070
  259MOL0     H34136   0.987   3.834   9.528 -1.9138 -1.4999 -1.3576
  259MOL0     H34137   0.943   3.648   9.775 -0.5575  1.1832  1.8188
  259MOL0     H34138   1.053   3.779   9.792 -0.7268 -1.4316  2.7075
  259MOL0     H34139   0.770   3.801   9.696 -1.4876  0.8852  0.1151
  259MOL0     H34140   0.881   3.936   9.743  0.4805 -0.9337 -1.3662
  259MOL0     H34141   0.723   4.035   9.932  1.2922  0.2015 -2.4976
  259MOL0     H34142   0.551   4.058  10.117  0.9998  1.2263  1.1705
  259MOL0     H34143   0.611   3.971  10.253  1.0337 -1.5941  0.7983
  259MOL0     H34144   0.351   3.946  10.223 -0.5593 -3.8359  2.1488
  259MOL0     H34145   0.439   3.801  10.238  1.1085  1.3887  2.6636
  259MOL0     H34146   0.404   3.919   9.943  3.5217 -0.1130  0.5017
  259MOL0     H34147   0.422   3.763   9.990  2.1656  0.8724 -0.5508
  259MOL0     H34148   0.190   3.935  10.027 -0.9037  0.5028 -0.9193
  259MOL0     H34149   0.195   3.792  10.129  0.9494  0.1157 -0.2519
  259MOL0     H34150  -0.017   3.652  10.072  3.2853  3.3262  0.9525
  259MOL0     H34151  -0.238   3.661  10.021  0.2506  1.4564  1.0754
  259MOL0     H34152  -0.654   3.987   9.673  1.1805  1.9067 -1.4391
  259MOL0     H34153  -0.853   3.902   9.568  0.2024  0.0368  1.2605
  259MOL0     H34154  -0.967   3.821   9.360  2.7570  0.6171  1.5846
  259MOL0     H34155  -1.037   3.779   9.506 -2.7319 -2.6064  1.0315
  259MOL0     H34156  -1.113   3.556   9.435 -0.7742 -2.7917 -4.8419
  259MOL0     H34157  -1.026   3.593   9.283  0.3869  0.6697 -0.7178
  259MOL0     H34158  -1.196   3.778   9.238 -2.1669 -0.1236 -0.0378
  259MOL0     H34159  -1.243   3.771   9.403  1.6916  1.8011 -0.0819
  259MOL0     H34160  -1.296   3.562   9.193 -0.6584  0.1540 -0.2249
  259MOL0     H34161  -1.329   3.532   9.362 -0.6029 -1.8941 -2.9914
  259MOL0     H34162  -1.434   3.771   9.192  1.7294  0.4695  0.1570
  259MOL0     H34163  -1.491   3.744   9.363 -1.7959 -3.7727  0.7605
  259MOL0     H34164  -1.557   3.552   9.145  0.5162 -1.3564  0.8402
  259MOL0     H34165  -1.653   3.682   9.196  1.2787 -0.5595 -2.8917
  259MOL0     H34166  -1.560   3.445   9.373 -0.2379  0.2678 -0.3815
  259MOL0     H34167  -1.626   3.589   9.447  3.4315 -0.6095  1.9109
  259MOL0     H34168  -1.794   3.397   9.401 -0.0352 -0.0321 -1.3281
  259MOL0     H34169  -1.768   3.419   9.225 -0.4721  0.6465 -0.7010
  259MOL0     H34170  -0.635   3.534   9.472  3.8814 -1.1650  1.7373
  259MOL0     H34171  -0.432   3.641   9.567 -1.2892 -0.7657 -1.4011
  259MOL0     H34172  -0.163   3.892   9.658  2.8668  3.0758  0.7020
  259MOL0     H34173   0.081   3.891   9.710 -0.3392  1.3015  0.6420
  259MOL0     H34174   1.755   3.438   9.269  1.5077  0.1618  0.2948
  259MOL0     H34175   1.993   3.428   9.192  1.4207 -2.1026 -1.8798
  259MOL0     H34176   2.410   3.275   8.990  1.1384 -1.1192 -0.9828
  259MOL0     H34177   2.576   3.241   8.832  1.7588  2.3951 -0.5812
  259MOL0     H34178   2.753   3.334   8.699  0.5964  0.2480 -0.0380
  259MOL0     H34179   2.746   3.485   8.610  1.2912 -0.4267  0.7273
  259MOL0     H34180   2.862   3.231   8.539  0.1423 -0.8823 -2.6982
  259MOL0     H34181   2.745   3.281   8.413  2.6999 -0.2766 -2.0300
  259MOL0     H34182   2.984   3.453   8.498 -0.7753  0.7810  0.4126
  259MOL0     H34183   2.863   3.504   8.392  2.0532  1.7765  1.5168
  259MOL0     H34184   2.917   3.327   8.229 -0.1872 -3.5164 -0.5021
  259MOL0     H34185   3.065   3.388   8.282  1.0145 -1.5658  0.9615
  259MOL0     H34186   3.140   3.001   8.390  0.4859  0.9682  1.8509
  259MOL0     H34187   2.377   3.489   8.541  1.0480  0.5728 -0.4487
  259MOL0     H34188   2.177   3.502   8.699 -0.8312  1.3826  0.9245
  260MOL0     O34189   4.765   3.005   5.000 -0.1721 -0.5946 -1.2377
  260MOL0     C34190   4.740   3.082   4.905 -0.2950  0.3827  0.5287
  260MOL0     O34191   4.623   3.136   4.871  0.1337 -0.6592 -0.1147
  260MOL0     C34192   4.512   3.134   4.955 -0.0126 -0.4535 -0.1536
  260MOL0     C34193   4.469   3.020   5.026  1.2210  0.2666 -0.1375
  260MOL0     C34194   4.354   3.019   5.099  0.5347 -0.2036  0.0099
  260MOL0     C34195   4.265   3.129   5.104  0.1417 -0.4652 -0.0386
  260MOL0     O34196   4.143   3.110   5.162  0.3238  0.6742  0.1130
  260MOL0     C34197   4.095   3.230   5.220 -0.6720 -0.0483 -0.4185
  260MOL0     C34198   3.970   3.202   5.310  0.2346  0.8370  0.9691
  260MOL0     C34199   4.015   3.131   5.441  0.5143 -0.3373  0.8190
  260MOL0     C34200   3.898   3.109   5.540  0.5862 -0.0952  0.6816
  260MOL0     C34201   3.954   3.078   5.682  0.3196 -0.0566 -0.1756
  260MOL0     C34202   3.862   3.121   5.799 -0.9246 -0.4269 -0.6755
  260MOL0     C34203   3.943   3.127   5.925 -1.2603  0.0575 -0.2965
  260MOL0     C34204   3.964   2.987   5.992  0.2270  0.2718 -0.3880
  260MOL0     N34205   4.088   2.919   5.965 -0.2236 -0.3027 -0.7622
  260MOL0     C34206   4.207   2.935   6.041 -0.3848  0.1130  0.3724
  260MOL0     C34207   4.305   2.879   5.968 -1.2311 -1.1915 -0.1516
  260MOL0     C34208   4.453   2.883   6.008  0.4125 -0.0281  0.3859
  260MOL0     C34209   4.509   2.742   5.996  0.8850 -0.0212 -0.2428
  260MOL0     C34210   4.658   2.752   6.003 -0.0923  1.0562 -0.4538
  260MOL0     C34211   4.728   2.614   6.023 -0.3810 -0.3938 -0.1743
  260MOL0     O34212   4.869   2.623   6.019 -0.5002 -0.1573  0.0768
  260MOL0     C34213   4.956   2.522   6.040  0.0382  0.1580  0.2583
  260MOL0     C34214   4.914   2.392   6.036 -0.2500 -0.6144 -0.8485
  260MOL0     C34215   5.007   2.289   6.058 -1.1869 -0.3655  0.6000
  260MOL0     C34216   5.145   2.328   6.094 -1.1230 -0.2117  0.4491
  260MOL0     C34217   5.240   2.220   6.130  0.9363 -0.2929  0.4295
  260MOL0     O34218   5.366   2.269   6.156 -0.1165 -0.1295  0.0818
  260MOL0     C34219   5.474   2.189   6.192 -0.0117  0.3540 -1.5058
  260MOL0     C34220   5.491   2.051   6.178  0.3922 -0.4851 -0.4300
  260MOL0     C34221   5.606   1.983   6.221  0.2180  0.0367  0.2835
  260MOL0     C34222   5.713   2.059   6.271 -0.2021  0.1568  0.2915
  260MOL0     O34223   5.818   1.973   6.301 -0.0446 -0.0319 -0.5167
  260MOL0     C34224   5.935   2.048   6.338  0.2668  1.1564  0.0935
  260MOL0     C34225   6.049   1.947   6.364  0.2405 -0.0060  0.8111
  260MOL0     C34226   6.032   1.888   6.506  0.1729 -0.3942 -0.2040
  260MOL0     C34227   6.139   1.780   6.534 -0.4753  0.0131 -0.1909
  260MOL0     C34228   6.273   1.843   6.568  0.0475  0.2908 -0.9112
  260MOL0     C34229   6.392   1.745   6.567  0.5723 -0.9846  0.0559
  260MOL0     C34230   6.515   1.813   6.636 -0.3677  0.1241 -0.0997
  260MOL0     C34231   6.633   1.721   6.632  0.4932 -0.0754  0.1754
  260MOL0    Cl34232   6.634   1.586   6.744  0.4302  0.2414 -0.3479
  260MOL0     C34233   5.694   2.198   6.303  0.6615  0.1072  0.6373
  260MOL0     C34234   5.572   2.262   6.258 -0.2938  1.3934 -0.8363
  260MOL0     O34235   5.200   2.111   6.171 -0.0853  0.3287  0.2405
  260MOL0     C34236   5.188   2.465   6.076  0.4737  1.0084 -0.2752
  260MOL0     C34237   5.088   2.556   6.055  0.3763  0.4901  0.9089
  260MOL0     N34238   4.246   2.820   5.860 -0.5714  0.1543 -0.0761
  260MOL0     N34239   4.118   2.851   5.852 -0.4683  0.6036  0.4940
  260MOL0     C34240   4.305   3.243   5.031  0.9353  0.9110 -0.0316
  260MOL0     C34241   4.427   3.243   4.957 -0.3623  0.0033  0.0493
  260MOL0     C34242   4.855   3.123   4.827 -0.2482  0.9276 -0.2851
  260MOL0     C34243   4.840   3.180   4.701  0.1733  0.3801 -0.0464
  260MOL0     C34244   4.958   3.214   4.627 -0.5893  0.0984  0.7182
  260MOL0     C34245   5.087   3.199   4.678  0.5975  0.1239  0.1454
  260MOL0     O34246   5.186   3.218   4.595 -0.0912 -0.1333  0.3832
  260MOL0     C34247   5.315   3.187   4.653 -0.1936  0.7585 -0.4981
  260MOL0     C34248   5.425   3.223   4.560 -0.6248  0.1722  0.2489
  260MOL0     C34249   5.430   3.378   4.515  0.1620  1.0955 -0.2141
  260MOL0     C34250   5.458   3.475   4.631  0.1420  0.5002  0.1070
  260MOL0     C34251   5.341   3.531   4.702  0.5679  0.6434  0.0063
  260MOL0     C34252   5.243   3.581   4.753  0.2117  1.0236  0.5370
  260MOL0     C34253   5.097   3.143   4.808  0.3308  0.1232 -0.3239
  260MOL0     C34254   4.984   3.107   4.879 -0.8254 -0.4423  0.1528
  260MOL0     H34255   4.532   2.931   5.029  1.3455  0.3665  0.9470
  260MOL0     H34256   4.333   2.935   5.165  2.5832  0.8128  2.0983
  260MOL0     H34257   4.046   3.296   5.147  1.5036  1.3741 -0.6909
  260MOL0     H34258   4.175   3.284   5.271  1.4799 -2.2325 -1.3166
  260MOL0     H34259   3.899   3.133   5.264  2.3430 -2.8596  2.7703
  260MOL0     H34260   3.926   3.299   5.336 -1.3963  0.6516 -0.8315
  260MOL0     H34261   4.099   3.194   5.470  1.8456 -0.8870 -1.5845
  260MOL0     H34262   4.050   3.030   5.420  1.8192  0.5711 -1.8412
  260MOL0     H34263   3.844   3.203   5.548  3.2228  1.3813  2.3020
  260MOL0     H34264   3.842   3.021   5.506 -0.2127  0.4875  0.4577
  260MOL0     H34265   4.049   3.130   5.695  0.3938 -0.2087 -0.0951
  260MOL0     H34266   3.971   2.970   5.681  1.1077 -0.0111  1.9934
  260MOL0     H34267   3.787   3.045   5.823 -0.2066 -0.5870  1.2305
  260MOL0     H34268   3.816   3.220   5.786  0.8078  0.6076  0.5951
  260MOL0     H34269   4.042   3.173   5.916 -0.0018 -2.3219  0.4592
  260MOL0     H34270   3.878   3.177   5.998  1.5460  2.0276  1.0565
  260MOL0     H34271   3.898   2.911   5.947  1.4244 -1.5301  0.7623
  260MOL0     H34272   3.932   2.978   6.096  2.0677 -3.4490  0.0161
  260MOL0     H34273   4.223   2.991   6.132 -1.0288  0.8774  0.0311
  260MOL0     H34274   4.467   2.916   6.111  0.1609 -1.5931  0.9399
  260MOL0     H34275   4.501   2.956   5.942 -1.9203  1.6204  0.3885
  260MOL0     H34276   4.487   2.694   5.900 -2.3476  2.0600 -0.7238
  260MOL0     H34277   4.472   2.685   6.081 -4.5472  0.9769 -1.5634
  260MOL0     H34278   4.690   2.803   5.912 -0.2814  0.9784 -0.5649
  260MOL0     H34279   4.692   2.821   6.081  0.8793  0.7043 -0.5537
  260MOL0     H34280   4.706   2.545   5.941  0.8953 -2.5036  1.1693
  260MOL0     H34281   4.683   2.580   6.117 -2.2406  0.7419 -0.6048
  260MOL0     H34282   4.811   2.364   6.018 -0.4459 -0.7544  0.4049
  260MOL0     H34283   4.975   2.186   6.047 -0.6389 -0.3619 -1.6113
  260MOL0     H34284   5.403   1.992   6.156 -0.8012  0.5601  1.2595
  260MOL0     H34285   5.602   1.880   6.188 -1.7901  0.1918 -0.0921
  260MOL0     H34286   5.921   2.102   6.432  1.5752  2.6086 -0.5111
  260MOL0     H34287   5.968   2.112   6.256 -0.3260  1.1654 -0.1461
  260MOL0     H34288   6.143   2.001   6.348  0.6731 -0.6123  1.2502
  260MOL0     H34289   6.047   1.860   6.297 -2.8351 -0.7957  1.7401
  260MOL0     H34290   5.934   1.839   6.504 -0.2932  0.3908  1.5110
  260MOL0     H34291   6.029   1.966   6.582  1.5823 -0.7187  0.2222
  260MOL0     H34292   6.104   1.719   6.618 -1.2199 -1.1578 -1.3120
  260MOL0     H34293   6.159   1.719   6.446  3.7625 -0.6779  1.0326
  260MOL0     H34294   6.251   1.895   6.662  0.7569  0.9838 -1.1149
  260MOL0     H34295   6.285   1.917   6.487  1.1184  2.7113  1.2916
  260MOL0     H34296   6.426   1.723   6.465 -1.5979 -1.1737 -0.6921
  260MOL0     H34297   6.359   1.654   6.617 -0.7574 -0.1720  0.7096
  260MOL0     H34298   6.543   1.901   6.578 -0.9590  1.1491  1.1170
  260MOL0     H34299   6.496   1.856   6.735  0.0730 -0.3376  0.1917
  260MOL0     H34300   6.727   1.775   6.651 -0.2549  1.2025  0.3634
  260MOL0     H34301   6.640   1.665   6.538  0.6891  0.9083 -0.4223
  260MOL0     H34302   5.775   2.249   6.354  2.2768  0.6827 -2.2364
  260MOL0     H34303   5.541   2.365   6.277 -0.9047  0.8700  1.1326
  260MOL0     H34304   5.294   2.483   6.085  1.0708 -1.9729 -0.0457
  260MOL0     H34305   5.107   2.663   6.050  0.0523  0.4885 -1.6168
  260MOL0     H34306   4.241   3.331   5.033 -1.6759 -0.8687  2.1465
  260MOL0     H34307   4.461   3.319   4.888  1.2052 -1.0648 -0.4219
  260MOL0     H34308   4.740   3.180   4.661  0.2574  3.0542 -0.4447
  260MOL0     H34309   4.957   3.254   4.526 -0.4392  1.6696  1.3110
  260MOL0     H34310   5.316   3.078   4.662  0.1123  0.7690 -0.3926
  260MOL0     H34311   5.338   3.237   4.748  0.1863 -0.2267 -0.0588
  260MOL0     H34312   5.526   3.193   4.589  0.4934  0.8247 -2.6405
  260MOL0     H34313   5.414   3.160   4.471  1.6911  1.1533 -0.8138
  260MOL0     H34314   5.335   3.410   4.473  0.3713 -0.8587 -2.3580
  260MOL0     H34315   5.513   3.388   4.446 -0.3561  1.5940 -0.7734
  260MOL0     H34316   5.509   3.414   4.706 -1.1537 -0.9876 -0.1822
  260MOL0     H34317   5.531   3.551   4.601 -2.1608  1.9364 -2.3001
  260MOL0     H34318   5.156   3.622   4.799 -0.1610  0.1872  0.5967
  260MOL0     H34319   5.190   3.132   4.863 -1.4493 -1.3630  2.6626
  260MOL0     H34320   4.995   3.052   4.972  0.6505  0.8121  0.7581
  261MOL0     O34321   5.175   8.414   1.192 -0.0581 -0.5787 -0.3253
  261MOL0     C34322   5.141   8.407   1.311  0.3966 -0.8024  0.4861
  261MOL0     O34323   5.214   8.430   1.412  0.0401  0.3827  0.4561
  261MOL0     C34324   5.355   8.421   1.415  0.6034 -0.4378 -0.2635
  261MOL0     C34325   5.431   8.370   1.311  0.3726  0.2673  0.6873
  261MOL0     C34326   5.570   8.358   1.330 -0.9991 -0.0441  0.7312
  261MOL0     C34327   5.634   8.384   1.449 -0.3465 -0.6126 -1.0249
  261MOL0     O34328   5.771   8.386   1.486  0.1207  0.0106  0.4426
  261MOL0     C34329   5.854   8.447   1.389 -0.1603 -0.2568 -0.0602
  261MOL0     C34330   5.980   8.377   1.382  0.2862  0.4811  0.4083
  261MOL0     C34331   6.081   8.466   1.301  0.6202  0.6863  0.2627
  261MOL0     C34332   6.222   8.434   1.334 -0.7919 -0.5223 -0.1208
  261MOL0     C34333   6.319   8.494   1.235  0.6559 -0.4989  0.4796
  261MOL0     C34334   6.451   8.431   1.251  0.4702  0.4331 -0.4883
  261MOL0     C34335   6.559   8.496   1.172 -0.1588 -0.6498 -0.0335
  261MOL0     C34336   6.677   8.409   1.146  0.2761 -0.3730 -0.2080
  261MOL0     N34337   6.793   8.482   1.101  0.4199  0.2316 -0.3876
  261MOL0     C34338   6.919   8.480   1.152  0.1916 -0.8333  1.7969
  261MOL0     C34339   6.994   8.561   1.072 -0.4489  0.1491  0.3420
  261MOL0     C34340   7.138   8.597   1.094 -0.3906  0.3953 -0.3028
  261MOL0     C34341   7.160   8.727   1.172 -0.1449  0.1850 -0.1471
  261MOL0     C34342   7.191   8.703   1.324 -0.9927 -1.1027  0.7742
  261MOL0     C34343   7.077   8.740   1.408  0.8097 -0.5590  0.0433
  261MOL0     O34344   6.960   8.657   1.383 -0.6447  0.0385  0.1947
  261MOL0     C34345   6.859   8.671   1.472  0.5478  0.7092 -0.2833
  261MOL0     C34346   6.763   8.572   1.487  0.0407 -0.4542 -0.6423
  261MOL0     C34347   6.654   8.585   1.579 -0.0916 -0.1511  0.3110
  261MOL0     C34348   6.625   8.707   1.634 -0.0946 -0.3530 -0.5249
  261MOL0     C34349   6.509   8.732   1.723  0.2174 -0.1361  0.5773
  261MOL0     O34350   6.547   8.818   1.828  0.4111 -0.1616  0.0338
  261MOL0     C34351   6.462   8.876   1.911  0.3510  0.5037 -0.3411
  261MOL0     C34352   6.490   8.885   2.046  0.3981  0.2394 -0.1446
  261MOL0     C34353   6.404   8.946   2.135 -0.3381 -0.2733  0.0575
  261MOL0     C34354   6.283   9.003   2.086 -0.3876 -0.0528  0.2500
  261MOL0     O34355   6.202   9.066   2.174  0.2231  0.4295 -0.2716
  261MOL0     C34356   6.231   9.195   2.226  0.0889 -0.6195 -1.2605
  261MOL0     C34357   6.151   9.208   2.355 -0.4286  0.0054  0.6390
  261MOL0     C34358   5.999   9.242   2.343  0.6063 -0.3196 -0.8181
  261MOL0     C34359   5.945   9.281   2.481  0.3693 -0.2349 -0.3660
  261MOL0     C34360   5.789   9.301   2.489  0.0247 -0.9638 -0.1380
  261MOL0     C34361   5.728   9.263   2.627  0.1169  0.9721 -0.5401
  261MOL0     C34362   5.794   9.329   2.750  0.2587 -0.2382 -0.9944
  261MOL0     C34363   5.728   9.287   2.887  1.1301 -0.9301 -0.0038
  261MOL0    Cl34364   5.778   9.404   3.010  0.1998 -0.0641  0.1973
  261MOL0     C34365   6.262   9.003   1.940 -0.4040 -0.0936  0.3759
  261MOL0     C34366   6.357   8.948   1.848  0.3824 -0.0190 -0.0646
  261MOL0     O34367   6.404   8.675   1.707  0.7607 -0.0501 -0.5527
  261MOL0     C34368   6.724   8.807   1.616 -0.4748 -0.7724  0.6003
  261MOL0     C34369   6.837   8.788   1.536 -0.3466 -1.2479  0.3384
  261MOL0     N34370   6.903   8.598   0.972  0.1119  0.0142 -0.3662
  261MOL0     N34371   6.794   8.553   0.988  0.0273 -0.5472 -0.4588
  261MOL0     C34372   5.552   8.442   1.556  0.2990 -0.0031  0.4119
  261MOL0     C34373   5.426   8.470   1.531  0.4559  0.1190 -0.1136
  261MOL0     C34374   5.004   8.360   1.354  0.4955 -0.1296  0.9087
  261MOL0     C34375   4.962   8.358   1.484  0.4459 -0.4347 -0.0675
  261MOL0     C34376   4.826   8.310   1.521 -0.1350 -0.0824 -0.0728
  261MOL0     C34377   4.736   8.262   1.426 -0.2108 -0.5901 -1.0740
  261MOL0     O34378   4.601   8.234   1.458 -0.0874  0.3138  0.0232
  261MOL0     C34379   4.500   8.329   1.405 -0.3882  0.6161  0.4364
  261MOL0     C34380   4.364   8.272   1.456 -0.4939  0.0754 -0.3542
  261MOL0     C34381   4.361   8.271   1.616  0.4341  0.4072  0.5924
  261MOL0     C34382   4.218   8.292   1.674 -0.3797  0.3713  0.5452
  261MOL0     C34383   4.101   8.237   1.597 -0.5267 -0.5124  0.8640
  261MOL0     C34384   4.021   8.219   1.517  0.1118 -0.2878  0.9754
  261MOL0     C34385   4.781   8.274   1.295  0.0139  0.6006  0.0607
  261MOL0     C34386   4.910   8.315   1.258  1.5756 -0.2784 -0.5434
  261MOL0     H34387   5.390   8.354   1.212  1.9512 -0.3907  0.1063
  261MOL0     H34388   5.616   8.307   1.246  0.5914  0.5586  1.2195
  261MOL0     H34389   5.855   8.552   1.418 -2.6372 -0.2502  0.1879
  261MOL0     H34390   5.811   8.449   1.289  0.6760  0.9618 -0.4246
  261MOL0     H34391   5.973   8.279   1.334  0.8317 -0.2512  1.7649
  261MOL0     H34392   6.006   8.362   1.487  1.7433  1.0330  0.1572
  261MOL0     H34393   6.061   8.573   1.308 -0.7906  0.5256 -0.7116
  261MOL0     H34394   6.068   8.439   1.195  0.6820  0.0451  0.4168
  261MOL0     H34395   6.232   8.482   1.431  1.2644 -2.5021  0.7367
  261MOL0     H34396   6.234   8.326   1.344 -1.9696 -0.7515 -0.9133
  261MOL0     H34397   6.322   8.601   1.256  2.4580 -0.0515 -1.6988
  261MOL0     H34398   6.283   8.479   1.133 -1.0249  3.7571  0.2316
  261MOL0     H34399   6.455   8.323   1.234 -1.1933  0.0213  1.3799
  261MOL0     H34400   6.465   8.444   1.359 -0.2835 -1.1574 -0.1656
  261MOL0     H34401   6.523   8.509   1.069  4.5892  2.7012 -1.5734
  261MOL0     H34402   6.589   8.594   1.209 -1.6923  0.1442 -0.7644
  261MOL0     H34403   6.650   8.343   1.063  1.7611  2.9407 -3.6426
  261MOL0     H34404   6.699   8.357   1.239  3.5893 -0.4613 -0.8947
  261MOL0     H34405   6.958   8.435   1.243  1.9847 -0.0136  1.4871
  261MOL0     H34406   7.181   8.589   0.993 -0.2901 -1.4244 -0.1440
  261MOL0     H34407   7.173   8.512   1.154 -0.5143 -0.1087 -0.9341
  261MOL0     H34408   7.068   8.786   1.166 -2.9423 -3.1347  3.8059
  261MOL0     H34409   7.240   8.775   1.114  0.9654 -1.6156 -0.1926
  261MOL0     H34410   7.220   8.601   1.349  0.4638 -0.6105  1.1516
  261MOL0     H34411   7.269   8.774   1.352 -1.4993 -0.3894  0.4208
  261MOL0     H34412   7.045   8.844   1.395 -0.9609 -1.2564 -1.6114
  261MOL0     H34413   7.106   8.719   1.511 -2.4207  1.3450  1.4860
  261MOL0     H34414   6.771   8.481   1.429 -0.2817 -1.0219  0.1956
  261MOL0     H34415   6.593   8.498   1.598 -1.1423 -0.1332 -2.5215
  261MOL0     H34416   6.578   8.850   2.097 -1.5556  2.0949  5.1257
  261MOL0     H34417   6.418   8.940   2.242 -0.6911 -2.1922  0.0344
  261MOL0     H34418   6.207   9.271   2.151 -1.0319  2.5734  2.0050
  261MOL0     H34419   6.338   9.211   2.237 -0.0527 -0.4905  0.0825
  261MOL0     H34420   6.189   9.289   2.417  1.9091  0.5982 -1.4498
  261MOL0     H34421   6.155   9.116   2.415 -1.4188 -0.1773  0.4561
  261MOL0     H34422   5.945   9.158   2.297  1.2590 -0.6344 -1.0112
  261MOL0     H34423   5.981   9.331   2.281  0.3806  0.4514  0.3299
  261MOL0     H34424   5.971   9.207   2.557 -1.9096 -0.6890  0.0257
  261MOL0     H34425   5.993   9.375   2.511  3.5054 -1.9846  0.5628
  261MOL0     H34426   5.743   9.248   2.405 -0.8312 -0.2426 -0.1391
  261MOL0     H34427   5.761   9.405   2.469 -1.8180 -1.1548  1.1559
  261MOL0     H34428   5.736   9.156   2.650  0.1915  1.1092  0.1015
  261MOL0     H34429   5.622   9.286   2.641  0.7647  2.5561  2.8634
  261MOL0     H34430   5.896   9.293   2.769 -0.6140 -0.8278  3.9920
  261MOL0     H34431   5.790   9.437   2.732 -0.6522 -0.2292 -0.8052
  261MOL0     H34432   5.754   9.185   2.917  1.3155 -1.1330 -0.8279
  261MOL0     H34433   5.621   9.288   2.862  1.2983 -1.2679 -0.7929
  261MOL0     H34434   6.178   9.052   1.891 -1.4484  1.0080  3.0796
  261MOL0     H34435   6.353   8.949   1.740 -2.0921 -0.6749 -0.0347
  261MOL0     H34436   6.700   8.904   1.659  5.6008  1.5449 -0.1992
  261MOL0     H34437   6.899   8.876   1.545 -2.5981  0.1971  3.2883
  261MOL0     H34438   5.596   8.490   1.643  1.4688  2.4745 -1.4191
  261MOL0     H34439   5.370   8.515   1.612 -0.5402  0.8757 -1.1978
  261MOL0     H34440   5.036   8.376   1.561 -1.5285  2.3740  1.3906
  261MOL0     H34441   4.803   8.300   1.626  3.7479 -1.6482  0.8145
  261MOL0     H34442   4.496   8.335   1.296 -4.1690  0.4943  0.4695
  261MOL0     H34443   4.530   8.428   1.441  0.6582  0.5787 -0.2884
  261MOL0     H34444   4.276   8.318   1.412 -2.3584 -1.3933  1.6109
  261MOL0     H34445   4.377   8.166   1.430 -1.2649 -0.1935  0.3172
  261MOL0     H34446   4.413   8.352   1.669 -0.1901  1.7850 -0.7935
  261MOL0     H34447   4.405   8.174   1.638 -0.8493 -1.5376 -4.1729
  261MOL0     H34448   4.212   8.269   1.781  4.0209  0.8244  1.1082
  261MOL0     H34449   4.202   8.400   1.676  1.8589  0.7519  0.8328
  261MOL0     H34450   3.958   8.205   1.432  2.0662 -0.0255 -0.5884
  261MOL0     H34451   4.707   8.237   1.225 -1.7719  3.4408  0.3203
  261MOL0     H34452   4.950   8.301   1.158  1.6497 -2.1863 -0.2923
  262MOL0     O34453   3.824   0.566   4.740 -0.3690  0.1519  0.1021
  262MOL0     C34454   3.788   0.682   4.718  0.2338 -0.4606 -0.3131
  262MOL0     O34455   3.665   0.731   4.740 -0.1673 -0.0292 -0.4538
  262MOL0     C34456   3.567   0.638   4.765  0.1448  0.6707 -0.6836
  262MOL0     C34457   3.539   0.532   4.677  0.1673  0.1496  0.3795
  262MOL0     C34458   3.430   0.450   4.701 -0.3191 -0.4400 -0.0986
  262MOL0     C34459   3.349   0.465   4.813  0.4855 -0.1485 -0.0897
  262MOL0     O34460   3.252   0.366   4.819  0.5496 -0.6438  0.5414
  262MOL0     C34461   3.170   0.349   4.932  0.7841  0.1024  0.0194
  262MOL0     C34462   3.043   0.271   4.885  0.3861  0.8654  0.2797
  262MOL0     C34463   3.066   0.119   4.871  0.6101  0.0632 -0.8515
  262MOL0     C34464   3.155   0.082   4.762 -0.6572  0.5646 -0.0291
  262MOL0     C34465   3.167  -0.072   4.729 -0.1253 -0.0497  0.3413
  262MOL0     C34466   3.290  -0.096   4.634  0.1707 -0.1939  0.1480
  262MOL0     C34467   3.273  -0.234   4.573 -0.1854 -0.5229  0.8080
  262MOL0     C34468   3.294  -0.353   4.662 -0.4519  0.0136 -0.3696
  262MOL0     N34469   3.437  -0.396   4.673 -0.2029 -0.2060 -0.2988
  262MOL0     C34470   3.533  -0.362   4.767 -0.6464 -0.9539  0.1568
  262MOL0     C34471   3.629  -0.458   4.754  0.3795 -0.7739 -0.5688
  262MOL0     C34472   3.747  -0.474   4.849  0.3161 -0.9793 -0.1810
  262MOL0     C34473   3.835  -0.345   4.860  0.5568  0.5543 -1.4055
  262MOL0     C34474   3.926  -0.349   4.980  0.0191 -0.1318 -0.0993
  262MOL0     C34475   4.000  -0.482   5.004  1.4049  0.9935 -0.1616
  262MOL0     O34476   4.093  -0.465   5.109  0.4083 -0.5383 -0.3038
  262MOL0     C34477   4.219  -0.416   5.083 -0.0266  0.0734 -0.0418
  262MOL0     C34478   4.277  -0.399   4.949  0.1712  0.1551 -0.4649
  262MOL0     C34479   4.408  -0.375   4.928 -0.3762  0.6104 -0.3621
  262MOL0     C34480   4.496  -0.355   5.040  0.2844 -0.9141 -0.7813
  262MOL0     C34481   4.638  -0.318   5.025 -0.3973  0.8902 -0.0025
  262MOL0     O34482   4.693  -0.363   4.913 -0.3015  0.2201 -0.4512
  262MOL0     C34483   4.833  -0.357   4.915 -0.0802 -0.0266  0.2461
  262MOL0     C34484   4.907  -0.423   5.011 -0.1660 -0.8046  0.2944
  262MOL0     C34485   5.043  -0.390   5.028  0.0930  0.8828  0.0866
  262MOL0     C34486   5.106  -0.308   4.934 -0.0675  0.0194 -0.4140
  262MOL0     O34487   5.245  -0.301   4.948  0.1461  0.2089  0.1040
  262MOL0     C34488   5.326  -0.279   4.834  0.6536 -0.1101 -0.8487
  262MOL0     C34489   5.471  -0.289   4.866 -0.3490  0.3239 -0.2233
  262MOL0     C34490   5.511  -0.413   4.941  0.4810 -0.4521  0.6324
  262MOL0     C34491   5.480  -0.550   4.870  0.0741 -0.5933  0.1392
  262MOL0     C34492   5.561  -0.572   4.739 -0.2036 -0.5656 -1.0253
  262MOL0     C34493   5.534  -0.707   4.686  0.4532 -0.0367  0.0788
  262MOL0     C34494   5.624  -0.750   4.566  0.6936  0.5568  0.0148
  262MOL0     C34495   5.571  -0.864   4.475  1.1049  0.2832 -0.9917
  262MOL0    Cl34496   5.631  -1.024   4.517 -0.2925 -0.3384  0.1876
  262MOL0     C34497   5.031  -0.243   4.833 -0.4587  0.4171 -0.0556
  262MOL0     C34498   4.897  -0.266   4.832  0.0862 -0.8693 -0.6141
  262MOL0     O34499   4.691  -0.235   5.102  0.5946 -0.1528  0.6872
  262MOL0     C34500   4.445  -0.366   5.169  0.1559 -0.3506 -0.5035
  262MOL0     C34501   4.309  -0.398   5.191 -0.2689 -0.1974  0.6430
  262MOL0     N34502   3.600  -0.535   4.645 -0.0975  0.3062  0.1056
  262MOL0     N34503   3.488  -0.500   4.602  0.2291 -0.3193 -0.2531
  262MOL0     C34504   3.384   0.571   4.903  0.3169 -0.9531 -0.9287
  262MOL0     C34505   3.493   0.657   4.878  0.3985 -0.2858  0.0089
  262MOL0     C34506   3.872   0.775   4.649 -0.0493 -0.0965 -0.0474
  262MOL0     C34507   3.821   0.866   4.552 -0.9376 -0.3245 -0.3615
  262MOL0     C34508   3.914   0.952   4.489  0.3783  0.1974 -0.3705
  262MOL0     C34509   4.058   0.947   4.517  0.8906 -0.4026 -0.2078
  262MOL0     O34510   4.133   1.044   4.448 -0.0838  0.8596 -0.2513
  262MOL0     C34511   4.227   1.118   4.524  0.5347  0.3558 -0.3328
  262MOL0     C34512   4.363   1.052   4.521  0.0545  0.1426  0.1913
  262MOL0     C34513   4.433   1.067   4.387  1.3369 -0.1167  0.3908
  262MOL0     C34514   4.577   1.005   4.385 -0.5440 -1.5848  0.4058
  262MOL0     C34515   4.624   0.998   4.247 -0.0931 -0.6597  0.1983
  262MOL0     C34516   4.666   1.016   4.135 -0.6440  0.5813  0.2743
  262MOL0     C34517   4.103   0.855   4.617 -0.7467 -0.6101  0.2946
  262MOL0     C34518   4.012   0.773   4.678 -0.6634 -0.1481 -0.6149
  262MOL0     H34519   3.591   0.511   4.584 -3.3679 -4.5030 -0.9306
  262MOL0     H34520   3.408   0.367   4.634 -2.1424 -0.8746  0.9665
  262MOL0     H34521   3.146   0.446   4.977 -2.1881  0.4117 -1.9175
  262MOL0     H34522   3.230   0.288   5.000 -0.7774  1.2715  2.6410
  262MOL0     H34523   3.008   0.302   4.787  2.6369 -0.3150 -0.9824
  262MOL0     H34524   2.960   0.277   4.956  1.5736  2.7430  1.6079
  262MOL0     H34525   2.964   0.080   4.869  0.4687 -0.6980  4.7371
  262MOL0     H34526   3.107   0.090   4.969 -3.0672  0.9689  1.1405
  262MOL0     H34527   3.125   0.129   4.668  2.9371 -0.3288 -1.8108
  262MOL0     H34528   3.254   0.116   4.794 -0.6968  2.7069 -1.9266
  262MOL0     H34529   3.076  -0.101   4.678 -1.1258  0.0516  1.9879
  262MOL0     H34530   3.167  -0.136   4.818 -1.1536 -0.1837  0.2550
  262MOL0     H34531   3.376  -0.095   4.701  0.5276 -0.5135 -0.3003
  262MOL0     H34532   3.299  -0.015   4.561  1.2964  1.3696  1.9268
  262MOL0     H34533   3.171  -0.249   4.536 -0.6260  1.2229  1.2234
  262MOL0     H34534   3.341  -0.231   4.487  0.5343 -1.3747  1.3400
  262MOL0     H34535   3.245  -0.436   4.610  1.1053 -0.4574 -1.1311
  262MOL0     H34536   3.245  -0.330   4.757 -1.7302  0.2927 -1.0757
  262MOL0     H34537   3.537  -0.277   4.835  1.4055 -0.5082 -0.4524
  262MOL0     H34538   3.798  -0.569   4.829  1.7850 -0.7878  2.2194
  262MOL0     H34539   3.702  -0.487   4.948  2.7659 -0.5685  1.0425
  262MOL0     H34540   3.779  -0.251   4.854 -1.8162 -0.7547 -0.7432
  262MOL0     H34541   3.900  -0.344   4.772 -1.8324  0.6233 -3.2687
  262MOL0     H34542   3.990  -0.261   4.965 -1.3771  0.9780  0.2868
  262MOL0     H34543   3.869  -0.320   5.068 -2.8735  4.1788 -3.0251
  262MOL0     H34544   4.061  -0.524   4.923  2.5950 -0.6041  1.4693
  262MOL0     H34545   3.935  -0.567   5.029  2.8762  0.4603  2.2114
  262MOL0     H34546   4.216  -0.414   4.861  0.5828  3.1586 -1.3812
  262MOL0     H34547   4.458  -0.361   4.833  4.2174  1.9961  1.9595
  262MOL0     H34548   4.851  -0.479   5.085 -0.9365  1.4780  1.5268
  262MOL0     H34549   5.099  -0.446   5.102  0.3826 -2.1476 -2.2420
  262MOL0     H34550   5.308  -0.185   4.780  1.3731 -0.4140 -1.6457
  262MOL0     H34551   5.302  -0.354   4.758  1.4514 -0.2299 -0.9938
  262MOL0     H34552   5.508  -0.200   4.920  1.5895 -0.4831 -0.1443
  262MOL0     H34553   5.523  -0.296   4.771  0.0003 -0.1945  0.0008
  262MOL0     H34554   5.450  -0.429   5.030 -2.1742 -1.2064 -1.2301
  262MOL0     H34555   5.616  -0.411   4.971  0.4588  0.4796  0.6700
  262MOL0     H34556   5.486  -0.640   4.932  3.2440 -0.1219  0.6869
  262MOL0     H34557   5.374  -0.552   4.842  0.3728 -0.4630 -1.0690
  262MOL0     H34558   5.669  -0.562   4.755 -0.4185  0.3659 -0.0083
  262MOL0     H34559   5.528  -0.500   4.664 -3.3982 -0.6310  0.1479
  262MOL0     H34560   5.429  -0.710   4.656  0.5868 -1.4005 -0.3046
  262MOL0     H34561   5.551  -0.784   4.761 -0.9649 -1.6055 -1.1441
  262MOL0     H34562   5.647  -0.668   4.498 -1.0358  0.1472 -1.1072
  262MOL0     H34563   5.718  -0.788   4.609  0.5753  1.1689  0.8424
  262MOL0     H34564   5.601  -0.852   4.370 -1.6584  3.8276 -1.5825
  262MOL0     H34565   5.462  -0.862   4.477  1.0237 -0.1191  3.6170
  262MOL0     H34566   5.074  -0.183   4.753 -0.3748  0.8191  0.2906
  262MOL0     H34567   4.833  -0.204   4.769  1.7420  2.9871  1.1825
  262MOL0     H34568   4.506  -0.356   5.259 -0.8897  0.1111  0.1703
  262MOL0     H34569   4.274  -0.408   5.294  0.5493  3.1083  1.3554
  262MOL0     H34570   3.336   0.589   4.999  0.1111  0.9891 -1.3651
  262MOL0     H34571   3.528   0.733   4.947 -2.3312  2.7832 -1.6769
  262MOL0     H34572   3.717   0.865   4.521 -0.9408 -1.4569 -0.3714
  262MOL0     H34573   3.867   1.024   4.423 -2.1108  0.0491  1.1277
  262MOL0     H34574   4.201   1.131   4.630  1.5340  1.4071 -0.1981
  262MOL0     H34575   4.233   1.222   4.490  1.2122  0.4759  0.1399
  262MOL0     H34576   4.416   1.098   4.605  0.4243 -2.4622  1.5116
  262MOL0     H34577   4.366   0.943   4.529  2.4910  0.1884  0.8414
  262MOL0     H34578   4.421   1.174   4.368 -1.3136 -0.5591 -0.8766
  262MOL0     H34579   4.364   1.025   4.313 -1.4552  4.1404  0.2165
  262MOL0     H34580   4.641   1.068   4.447 -0.8630  1.7383 -2.3060
  262MOL0     H34581   4.572   0.907   4.434  2.4857  0.0873  4.5820
  262MOL0     H34582   4.707   1.029   4.037 -2.2558  3.2169 -0.1606
  262MOL0     H34583   4.210   0.855   4.638 -1.0999 -0.9314  2.2255
  262MOL0     H34584   4.056   0.705   4.750 -2.1270 -0.9543 -0.4347
  263MOL0     O34585   0.985   9.323   1.147 -0.0046  0.3215 -0.3705
  263MOL0     C34586   1.032   9.364   1.258 -0.6460  0.4392 -0.3809
  263MOL0     O34587   1.096   9.282   1.340  0.0916  0.4116  0.1360
  263MOL0     C34588   1.105   9.153   1.309  0.4035  0.6352  0.3026
  263MOL0     C34589   0.999   9.064   1.351 -0.0600 -0.5261 -0.2339
  263MOL0     C34590   0.990   8.935   1.320 -0.5327  0.2887 -0.3281
  263MOL0     C34591   1.097   8.876   1.255  0.5676  0.0626  0.1999
  263MOL0     O34592   1.078   8.747   1.224 -0.1972 -0.1270 -0.5030
  263MOL0     C34593   1.196   8.661   1.254  0.1389  0.5170  0.4268
  263MOL0     C34594   1.145   8.512   1.278 -0.9577  0.1350 -0.3206
  263MOL0     C34595   1.167   8.410   1.161  0.2074  0.5396 -0.4287
  263MOL0     C34596   1.094   8.286   1.203 -0.5047  0.0584  0.7034
  263MOL0     C34597   1.097   8.167   1.099  0.5486 -0.8378  0.4096
  263MOL0     C34598   1.067   8.211   0.956  0.3648 -0.1774  0.4081
  263MOL0     C34599   1.082   8.107   0.849 -0.0064  0.0724  0.1404
  263MOL0     C34600   1.038   8.156   0.714 -0.3631  0.1863  0.0740
  263MOL0     N34601   0.897   8.177   0.681  0.3032  0.4950 -0.3954
  263MOL0     C34602   0.831   8.295   0.707 -0.5775 -0.4579 -0.3467
  263MOL0     C34603   0.707   8.285   0.652 -0.6886 -0.0703  0.1077
  263MOL0     C34604   0.597   8.387   0.655  0.2027  0.8939  0.8597
  263MOL0     C34605   0.551   8.401   0.506 -0.3178 -0.7151 -0.1594
  263MOL0     C34606   0.417   8.490   0.512  0.0086  0.6772  0.4492
  263MOL0     C34607   0.299   8.395   0.538 -1.0405 -0.5241 -0.7364
  263MOL0     O34608   0.183   8.482   0.550  0.0786 -0.3157  0.2716
  263MOL0     C34609   0.059   8.434   0.595  0.1130  0.0004  0.2314
  263MOL0     C34610   0.050   8.299   0.634  0.0161  0.0651 -0.2856
  263MOL0     C34611  -0.062   8.262   0.717  0.4693 -0.4355 -0.2194
  263MOL0     C34612  -0.170   8.350   0.738  0.2330  0.2052  0.0944
  263MOL0     C34613  -0.288   8.312   0.817  0.2407 -0.9607 -0.4682
  263MOL0     O34614  -0.384   8.402   0.840 -0.4164 -0.9193 -0.2237
  263MOL0     C34615  -0.508   8.377   0.899  1.0331 -0.1027 -0.1409
  263MOL0     C34616  -0.576   8.249   0.910 -0.3726  0.0669  0.4121
  263MOL0     C34617  -0.689   8.227   0.984  0.4621  0.1366  0.3725
  263MOL0     C34618  -0.748   8.333   1.050  0.4502 -0.2299 -0.7114
  263MOL0     O34619  -0.867   8.321   1.112  0.4754 -0.0959 -0.9111
  263MOL0     C34620  -0.874   8.360   1.255  0.4747 -0.5357 -0.0109
  263MOL0     C34621  -1.008   8.402   1.302  0.9486 -0.0210  0.3657
  263MOL0     C34622  -1.088   8.512   1.226 -0.2816 -0.2577 -0.2871
  263MOL0     C34623  -1.234   8.515   1.264  0.3817 -0.5350 -0.7395
  263MOL0     C34624  -1.315   8.382   1.243 -1.0331 -0.1474  0.2763
  263MOL0     C34625  -1.306   8.335   1.099  0.9546 -0.2170  0.6816
  263MOL0     C34626  -1.367   8.191   1.093  0.1728  0.7674 -0.1564
  263MOL0     C34627  -1.322   8.106   0.978 -0.6210 -0.3690  0.2725
  263MOL0    Cl34628  -1.154   8.050   1.012 -0.1770 -0.2147  0.3968
  263MOL0     C34629  -0.689   8.461   1.036 -0.8598 -0.0276  0.1903
  263MOL0     C34630  -0.573   8.479   0.962  0.2606 -0.1402  0.1332
  263MOL0     O34631  -0.290   8.200   0.865 -0.6533 -0.3056  0.0085
  263MOL0     C34632  -0.167   8.472   0.674  0.7165 -0.3238 -1.2411
  263MOL0     C34633  -0.052   8.519   0.623 -0.0079 -0.3655 -0.3117
  263MOL0     N34634   0.705   8.156   0.601 -1.5044 -0.7152  0.2289
  263MOL0     N34635   0.815   8.094   0.618  0.1310 -0.2570  0.3112
  263MOL0     C34636   1.207   8.953   1.217 -0.3759 -0.3773 -0.5732
  263MOL0     C34637   1.216   9.088   1.247  0.8040  0.3535  0.6209
  263MOL0     C34638   1.005   9.505   1.305 -0.6673 -0.6300  0.2752
  263MOL0     C34639   0.970   9.615   1.222 -0.1919  0.1107 -0.0116
  263MOL0     C34640   0.949   9.758   1.276  0.5890  0.4585 -0.2580
  263MOL0     C34641   0.951   9.773   1.414 -0.1459 -0.3333  1.0653
  263MOL0     O34642   0.933   9.886   1.489 -0.2149 -0.3110  0.3749
  263MOL0     C34643   0.940  10.003   1.408  0.4668  0.8692  0.2156
  263MOL0     C34644   0.904  10.116   1.507 -0.0740 -0.3512  0.0009
  263MOL0     C34645   0.774  10.103   1.595 -0.5050  0.3860 -0.4571
  263MOL0     C34646   0.659  10.050   1.511 -0.5810  0.0871 -0.4510
  263MOL0     C34647   0.532  10.079   1.578  0.4553  0.7920  0.2779
  263MOL0     C34648   0.421  10.102   1.629  0.9795  0.3651  0.3775
  263MOL0     C34649   0.994   9.669   1.497  0.2254 -0.1360 -0.1397
  263MOL0     C34650   1.027   9.541   1.443  0.4171 -0.7103 -0.1992
  263MOL0     H34651   0.914   9.106   1.404 -0.0110 -0.1331 -0.4620
  263MOL0     H34652   0.897   8.880   1.332  0.7220 -2.0318 -0.7555
  263MOL0     H34653   1.252   8.694   1.343  2.2528 -3.5045  0.8338
  263MOL0     H34654   1.258   8.667   1.164  1.5588  1.2724  1.4081
  263MOL0     H34655   1.039   8.514   1.303 -0.5391 -2.0250  2.1130
  263MOL0     H34656   1.193   8.461   1.362  2.0977  2.1555 -0.6724
  263MOL0     H34657   1.268   8.368   1.159  0.2373  0.4607  1.2701
  263MOL0     H34658   1.146   8.451   1.062 -0.7701 -0.0431 -0.4824
  263MOL0     H34659   1.127   8.248   1.300  4.4456  0.8341 -0.4423
  263MOL0     H34660   0.990   8.320   1.212 -0.9927 -0.8429 -1.1508
  263MOL0     H34661   1.014   8.109   1.142  0.1584 -0.7252 -0.1755
  263MOL0     H34662   1.187   8.106   1.095  0.1017 -1.4241 -1.6171
  263MOL0     H34663   1.130   8.294   0.923  1.4093 -1.4593 -0.9766
  263MOL0     H34664   0.960   8.231   0.968 -0.5882 -3.9583 -0.3439
  263MOL0     H34665   1.189   8.083   0.848  1.0883  4.0795 -0.2918
  263MOL0     H34666   1.024   8.022   0.883  0.4356  0.8981  3.3545
  263MOL0     H34667   1.077   8.089   0.637 -2.0767 -1.0319  0.2124
  263MOL0     H34668   1.091   8.247   0.683  0.1574  0.2754  1.1751
  263MOL0     H34669   0.876   8.381   0.755 -0.3062 -1.0732  0.5196
  263MOL0     H34670   0.643   8.480   0.691 -0.2769  0.6943  2.0187
  263MOL0     H34671   0.516   8.350   0.718 -1.3529 -0.9858 -2.0369
  263MOL0     H34672   0.532   8.303   0.461 -0.6941  0.2758 -2.2580
  263MOL0     H34673   0.628   8.448   0.444  3.6041 -1.3776  3.6538
  263MOL0     H34674   0.424   8.567   0.590 -3.6520  0.6085  1.0555
  263MOL0     H34675   0.413   8.548   0.420  2.3711 -2.2811 -1.7103
  263MOL0     H34676   0.329   8.341   0.629 -0.8271  3.5180  1.8719
  263MOL0     H34677   0.284   8.322   0.458 -1.3229 -2.0745  0.6727
  263MOL0     H34678   0.129   8.226   0.620  0.5437  0.8582 -1.7475
  263MOL0     H34679  -0.064   8.166   0.767 -1.2290 -0.5031 -0.3642
  263MOL0     H34680  -0.521   8.173   0.855  2.5329  3.3509 -1.7558
  263MOL0     H34681  -0.709   8.122   0.999 -0.4869  0.4326  1.2789
  263MOL0     H34682  -0.807   8.446   1.268 -0.7364  0.9067 -2.6028
  263MOL0     H34683  -0.848   8.281   1.325 -3.3494 -1.0552  1.0571
  263MOL0     H34684  -0.988   8.433   1.405  2.2803  1.8569 -0.4078
  263MOL0     H34685  -1.065   8.309   1.300 -0.0457  0.5520 -2.2823
  263MOL0     H34686  -1.058   8.489   1.123  1.0884 -0.5074  0.1443
  263MOL0     H34687  -1.043   8.610   1.245 -4.1413  1.6677  0.0364
  263MOL0     H34688  -1.239   8.528   1.373 -1.6819 -0.0819 -0.8526
  263MOL0     H34689  -1.283   8.601   1.218  2.4686 -0.8019 -3.7360
  263MOL0     H34690  -1.419   8.402   1.272 -0.9177 -1.0256  1.3949
  263MOL0     H34691  -1.280   8.300   1.307 -0.3523  0.4706  0.7153
  263MOL0     H34692  -1.201   8.310   1.080  0.3039 -1.7892 -1.1046
  263MOL0     H34693  -1.348   8.414   1.036  1.3316  0.9452  1.8281
  263MOL0     H34694  -1.360   8.127   1.181 -0.7429 -1.4735 -1.6174
  263MOL0     H34695  -1.475   8.201   1.085  0.2908  0.7701 -3.0990
  263MOL0     H34696  -1.333   8.163   0.885 -1.5086 -1.7534 -0.5112
  263MOL0     H34697  -1.385   8.017   0.969 -1.0256 -0.1039  0.5134
  263MOL0     H34698  -0.729   8.554   1.075 -0.8922  0.0625 -0.0543
  263MOL0     H34699  -0.536   8.580   0.947  2.7062 -0.3405  3.6215
  263MOL0     H34700  -0.249   8.540   0.692 -1.5448 -2.2074 -3.5623
  263MOL0     H34701  -0.047   8.625   0.601  0.5156 -0.3516 -0.1446
  263MOL0     H34702   1.297   8.912   1.172  3.0351  2.6951  2.7030
  263MOL0     H34703   1.306   9.147   1.228 -0.8620  2.7672 -0.3346
  263MOL0     H34704   0.966   9.586   1.117  1.8428  2.2958 -0.7770
  263MOL0     H34705   0.928   9.837   1.204  1.7489  1.4053  0.4006
  263MOL0     H34706   0.856  10.001   1.338  2.6054 -1.2233 -2.5384
  263MOL0     H34707   1.034  10.016   1.352 -0.7935  4.4189 -1.4070
  263MOL0     H34708   0.985  10.138   1.577  3.1191  2.5746 -4.1085
  263MOL0     H34709   0.895  10.205   1.444  0.7589 -1.4868 -1.8021
  263MOL0     H34710   0.752  10.202   1.636 -1.5147  0.5087 -1.2493
  263MOL0     H34711   0.794  10.035   1.679 -3.3543  1.0885  0.9166
  263MOL0     H34712   0.656  10.109   1.419  0.2108  1.0749  0.1278
  263MOL0     H34713   0.670   9.942   1.500  0.3744 -0.0113  1.1773
  263MOL0     H34714   0.337  10.107   1.695  0.2534 -1.9316 -0.2593
  263MOL0     H34715   1.013   9.702   1.598  0.5166 -0.0023 -0.2367
  263MOL0     H34716   1.077   9.480   1.517  2.3078  0.7172 -0.2200
  264MOL0     O34717  10.915   0.686   7.920  0.9532 -0.2426  0.3390
  264MOL0     C34718  10.845   0.731   7.828  0.8905 -0.9988  0.4642
  264MOL0     O34719  10.882   0.812   7.724 -0.3121  0.5128  0.5789
  264MOL0     C34720  11.003   0.870   7.742 -0.0388 -0.1256  0.6648
  264MOL0     C34721  11.105   0.863   7.648 -0.4508  0.0845  0.2844
  264MOL0     C34722  11.237   0.908   7.665  0.3890 -0.1612  0.3291
  264MOL0     C34723  11.265   0.989   7.782  0.1758 -0.3975 -1.1362
  264MOL0     O34724  11.383   1.065   7.807 -0.0116 -0.3655 -0.0143
  264MOL0     C34725  11.495   1.041   7.725  0.2876  0.2285  0.8607
  264MOL0     C34726  11.565   0.904   7.763 -0.0716  1.2752  0.4964
  264MOL0     C34727  11.628   0.912   7.900  0.5557  0.9413 -0.1472
  264MOL0     C34728  11.704   0.780   7.936  0.0349 -0.4836 -1.0351
  264MOL0     C34729  11.840   0.750   7.869  0.2401  0.0030  0.5351
  264MOL0     C34730  11.929   0.639   7.930 -0.1098  0.0011 -0.9467
  264MOL0     C34731  11.948   0.640   8.083  0.5764  0.0018 -0.0665
  264MOL0     C34732  12.063   0.546   8.123  0.6669 -0.6162  0.0902
  264MOL0     N34733  12.004   0.415   8.123  0.5817 -0.4816  0.6590
  264MOL0     C34734  11.912   0.369   8.222 -0.0968  0.7060  0.2567
  264MOL0     C34735  11.906   0.234   8.187  0.5549 -0.3068 -0.8527
  264MOL0     C34736  11.841   0.119   8.261  0.3387 -0.3815 -0.4110
  264MOL0     C34737  11.690   0.106   8.221 -0.0186  0.6299 -0.1216
  264MOL0     C34738  11.597   0.173   8.326 -0.1998  0.2627 -0.7498
  264MOL0     C34739  11.629   0.145   8.471  0.7426  0.1685  0.2902
  264MOL0     O34740  11.507   0.156   8.559 -0.3718  0.3411  0.5335
  264MOL0     C34741  11.500   0.284   8.623  0.2845 -0.4403  0.1892
  264MOL0     C34742  11.373   0.324   8.651 -0.4927 -0.6071 -0.0203
  264MOL0     C34743  11.342   0.449   8.706 -0.3283 -0.7157 -0.4842
  264MOL0     C34744  11.451   0.540   8.736  0.6100  0.4322  0.5473
  264MOL0     C34745  11.433   0.665   8.813 -0.1739 -0.8343  0.1430
  264MOL0     O34746  11.540   0.710   8.881 -0.7690  0.0717  0.1542
  264MOL0     C34747  11.530   0.820   8.962 -0.5107  0.2383  0.6987
  264MOL0     C34748  11.481   0.949   8.921  0.7481  0.6123  0.2013
  264MOL0     C34749  11.474   1.052   9.017  0.2581  0.2778 -1.1742
  264MOL0     C34750  11.524   1.041   9.147 -0.6007  0.6724 -0.0268
  264MOL0     O34751  11.518   1.143   9.239 -0.4625 -0.3124  0.2273
  264MOL0     C34752  11.647   1.198   9.268  0.0372  0.7064  0.1515
  264MOL0     C34753  11.647   1.335   9.332  0.4789 -0.3737  0.2447
  264MOL0     C34754  11.794   1.386   9.347  0.2186 -0.2949 -0.6740
  264MOL0     C34755  11.867   1.315   9.457  0.2920 -0.0076 -0.5516
  264MOL0     C34756  12.006   1.380   9.478  0.0895  0.1211  0.5116
  264MOL0     C34757  12.062   1.338   9.611  0.2875  0.5350 -0.2157
  264MOL0     C34758  12.209   1.390   9.621 -0.2231 -0.1982  0.6404
  264MOL0     C34759  12.270   1.371   9.764  0.7308 -0.2316 -0.0234
  264MOL0    Cl34760  12.429   1.458   9.774 -0.3651  0.0560 -0.3852
  264MOL0     C34761  11.590   0.918   9.175 -0.5673 -0.0744 -0.4275
  264MOL0     C34762  11.589   0.809   9.085  0.4774 -0.0459 -0.1899
  264MOL0     O34763  11.341   0.733   8.771 -0.1179 -0.8413  0.1421
  264MOL0     C34764  11.583   0.490   8.717  0.0367  0.0290 -0.1911
  264MOL0     C34765  11.609   0.372   8.653 -0.1947  0.1100 -0.3791
  264MOL0     N34766  11.992   0.211   8.082 -0.0121  0.1777 -0.2447
  264MOL0     N34767  12.057   0.318   8.046 -0.2242  0.3264  0.6234
  264MOL0     C34768  11.163   1.003   7.879 -0.4165  0.0067  0.1281
  264MOL0     C34769  11.044   0.938   7.852  0.6029 -0.3937 -0.2725
  264MOL0     C34770  10.707   0.696   7.811  0.8775  0.7772 -0.1335
  264MOL0     C34771  10.643   0.634   7.919  0.1030  0.9536 -0.0450
  264MOL0     C34772  10.515   0.599   7.914  0.6881 -0.6687  0.0698
  264MOL0     C34773  10.433   0.624   7.799 -0.9281  0.7196 -0.4452
  264MOL0     O34774  10.306   0.580   7.797 -0.3774 -0.5093 -0.5106
  264MOL0     C34775  10.249   0.524   7.677 -0.0594 -0.5125 -0.7124
  264MOL0     C34776  10.115   0.455   7.710 -0.0795 -0.0581 -1.0127
  264MOL0     C34777  10.048   0.394   7.590  0.4693 -0.2013  0.7084
  264MOL0     C34778   9.912   0.325   7.625 -0.0438 -0.3258  0.0327
  264MOL0     C34779   9.879   0.230   7.517  0.7171  0.0933  0.1009
  264MOL0     C34780   9.844   0.144   7.438  0.1407  0.8339  0.3018
  264MOL0     C34781  10.493   0.687   7.695  0.2741 -0.5595  0.2664
  264MOL0     C34782  10.626   0.726   7.699  0.3848 -0.0734  0.2459
  264MOL0     H34783  11.096   0.817   7.550 -0.7277 -0.0772  0.3843
  264MOL0     H34784  11.314   0.877   7.595 -1.1184  0.8358 -1.8539
  264MOL0     H34785  11.563   1.124   7.747  1.3687  0.2905 -2.2873
  264MOL0     H34786  11.486   1.042   7.616  3.5400  2.2459  0.4685
  264MOL0     H34787  11.649   0.894   7.694 -0.3766  0.8698  0.1786
  264MOL0     H34788  11.492   0.825   7.746 -1.7250  2.4930  1.5496
  264MOL0     H34789  11.553   0.922   7.979  0.2877 -1.9039  0.0664
  264MOL0     H34790  11.703   0.991   7.909 -2.1233  3.9354 -1.8694
  264MOL0     H34791  11.729   0.799   8.041 -0.0944  1.5826 -1.3505
  264MOL0     H34792  11.640   0.692   7.927  0.7233 -0.8449 -3.0280
  264MOL0     H34793  11.904   0.839   7.877  1.5103 -0.9219  1.1183
  264MOL0     H34794  11.820   0.723   7.765 -2.5897 -0.7862  1.2225
  264MOL0     H34795  12.029   0.659   7.891  1.1029 -3.2414  0.2021
  264MOL0     H34796  11.901   0.541   7.890 -0.0984  0.2579 -1.5981
  264MOL0     H34797  11.968   0.741   8.120 -2.4759  1.6165 -2.3313
  264MOL0     H34798  11.855   0.595   8.119  2.0524 -1.6264  1.9710
  264MOL0     H34799  12.100   0.580   8.220 -0.2787 -0.4318  0.4005
  264MOL0     H34800  12.151   0.542   8.059  1.3689 -0.5896  1.0281
  264MOL0     H34801  11.890   0.414   8.318  1.6565  1.1309  0.5000
  264MOL0     H34802  11.853   0.122   8.370 -1.2044 -2.7339 -0.1298
  264MOL0     H34803  11.896   0.026   8.246  1.3351 -0.1387  1.4321
  264MOL0     H34804  11.650   0.008   8.191 -2.3031  1.6845 -0.7498
  264MOL0     H34805  11.670   0.164   8.130 -2.0885 -1.2467 -0.9621
  264MOL0     H34806  11.597   0.277   8.292 -1.4930  0.1038 -1.2798
  264MOL0     H34807  11.497   0.144   8.293  0.2239 -0.4426 -1.4482
  264MOL0     H34808  11.717   0.201   8.504  0.1211 -0.9287  4.2976
  264MOL0     H34809  11.647   0.037   8.477 -3.8915 -1.0253 -2.5213
  264MOL0     H34810  11.297   0.250   8.629 -0.3978  0.0952 -3.1184
  264MOL0     H34811  11.243   0.468   8.745  0.4180  0.1192  1.1326
  264MOL0     H34812  11.428   0.964   8.828  1.7730 -1.5366 -0.8019
  264MOL0     H34813  11.428   1.148   8.997 -1.3641 -0.2914 -0.3552
  264MOL0     H34814  11.711   1.214   9.181  0.8715 -0.3592  0.5426
  264MOL0     H34815  11.700   1.129   9.335  0.2087 -0.1919 -0.8839
  264MOL0     H34816  11.602   1.330   9.432 -1.1405 -2.8327 -0.5103
  264MOL0     H34817  11.583   1.407   9.280  0.3634 -1.4296 -1.1177
  264MOL0     H34818  11.777   1.490   9.376 -4.5408 -0.8958 -0.4740
  264MOL0     H34819  11.838   1.379   9.248  2.1203 -0.9804  0.1589
  264MOL0     H34820  11.812   1.312   9.552  1.5402  1.1078  0.2445
  264MOL0     H34821  11.877   1.210   9.428  2.5155  0.4196 -1.5126
  264MOL0     H34822  12.001   1.489   9.479 -1.1695  0.1342 -1.8494
  264MOL0     H34823  12.071   1.359   9.392 -0.2811 -1.6011  0.6159
  264MOL0     H34824  12.063   1.229   9.611  1.7185  0.4365 -3.5085
  264MOL0     H34825  12.002   1.384   9.690 -0.5737 -4.0191  2.1136
  264MOL0     H34826  12.267   1.346   9.539  1.1631 -2.6052  2.7414
  264MOL0     H34827  12.209   1.499   9.613  0.0992 -0.1769  0.9161
  264MOL0     H34828  12.286   1.270   9.801  0.0186 -0.0183  0.8958
  264MOL0     H34829  12.202   1.426   9.829  1.2112  2.8780 -1.9203
  264MOL0     H34830  11.630   0.909   9.275  1.4120 -3.5058 -1.3625
  264MOL0     H34831  11.635   0.712   9.102  1.3252  0.7240  2.5721
  264MOL0     H34832  11.663   0.546   8.765  0.4168  0.5353 -1.3770
  264MOL0     H34833  11.708   0.328   8.657 -1.0168 -1.8317  3.2433
  264MOL0     H34834  11.172   1.058   7.972 -0.6868  1.1566 -0.5084
  264MOL0     H34835  10.964   0.948   7.925 -0.6542 -1.7732 -1.3921
  264MOL0     H34836  10.704   0.609   8.005  1.8564 -0.2880 -1.5804
  264MOL0     H34837  10.469   0.566   8.006  1.8739 -2.8790 -0.0560
  264MOL0     H34838  10.317   0.453   7.627  2.3808  2.4080 -1.8583
  264MOL0     H34839  10.235   0.608   7.608  2.1012  0.6915  0.2127
  264MOL0     H34840  10.138   0.376   7.782 -0.3538  2.0512  1.5492
  264MOL0     H34841  10.043   0.519   7.762  1.7148 -0.2840  1.9523
  264MOL0     H34842  10.119   0.321   7.551 -0.7514 -1.1822  0.2544
  264MOL0     H34843  10.035   0.461   7.504  1.2514 -4.7054 -3.3570
  264MOL0     H34844   9.915   0.271   7.720  0.0268  1.9159  1.3931
  264MOL0     H34845   9.842   0.409   7.638  0.0082 -0.1186 -0.9681
  264MOL0     H34846   9.814   0.067   7.370 -2.5539  0.6480  1.5865
  264MOL0     H34847  10.432   0.689   7.605  1.3959 -0.2700 -0.5214
  264MOL0     H34848  10.668   0.774   7.611  0.9227 -2.1269 -0.7056
  265MOL0     O34849   5.955   2.636   0.627 -0.4195  0.3441 -0.8161
  265MOL0     C34850   5.952   2.699   0.736 -0.5679 -0.8363  0.5451
  265MOL0     O34851   5.855   2.786   0.784  0.3237  1.2616  0.8802
  265MOL0     C34852   5.752   2.817   0.696  0.0424  1.2997 -0.0546
  265MOL0     C34853   5.751   2.935   0.625 -0.8745  0.8159  0.2469
  265MOL0     C34854   5.645   2.952   0.532 -0.3100 -0.8722 -0.1717
  265MOL0     C34855   5.537   2.858   0.519  0.7623  0.9263 -0.2656
  265MOL0     O34856   5.432   2.865   0.440 -0.1747 -0.3962 -0.4442
  265MOL0     C34857   5.387   2.993   0.389 -0.3970  0.6837  0.2622
  265MOL0     C34858   5.248   2.968   0.328  0.2127 -0.6728 -0.0775
  265MOL0     C34859   5.152   2.904   0.428  0.0277  0.1158  0.4208
  265MOL0     C34860   5.012   2.884   0.362 -0.2143  1.2862 -1.1244
  265MOL0     C34861   4.905   2.836   0.473 -0.4359  0.4169 -0.5194
  265MOL0     C34862   4.761   2.850   0.430 -0.2951 -0.0679  0.2025
  265MOL0     C34863   4.717   2.793   0.292  0.0504 -0.6480  0.0544
  265MOL0     C34864   4.649   2.900   0.208 -0.8023  0.1210  0.0903
  265MOL0     N34865   4.504   2.907   0.231 -0.9249 -0.7604  0.1847
  265MOL0     C34866   4.433   3.018   0.277  0.7592 -0.1644  0.4979
  265MOL0     C34867   4.307   2.971   0.295  0.4152 -0.7555  0.1891
  265MOL0     C34868   4.186   3.058   0.333  0.5830  0.3711  0.4688
  265MOL0     C34869   4.053   2.983   0.289 -0.7476  0.1612 -0.1922
  265MOL0     C34870   3.922   3.065   0.325 -0.8571 -0.7004 -0.2464
  265MOL0     C34871   3.870   3.076   0.475 -0.0561 -0.7801  0.7589
  265MOL0     O34872   3.758   3.157   0.481 -0.4610  0.3338 -0.2292
  265MOL0     C34873   3.625   3.103   0.479 -0.3381  0.2586 -0.3391
  265MOL0     C34874   3.520   3.196   0.456  0.1916  0.5103 -0.6421
  265MOL0     C34875   3.392   3.141   0.445 -1.0232  0.3777  0.0725
  265MOL0     C34876   3.366   3.007   0.467  0.7590 -0.4361 -1.3615
  265MOL0     C34877   3.228   2.964   0.449  0.1830  0.0149 -0.6471
  265MOL0     O34878   3.143   3.049   0.387 -0.1724 -0.4593  0.4004
  265MOL0     C34879   3.024   2.993   0.360  0.1768  0.4319  0.1448
  265MOL0     C34880   2.924   2.993   0.462  0.7237  0.0773  0.0003
  265MOL0     C34881   2.790   2.947   0.436 -1.0741 -0.4356  0.2294
  265MOL0     C34882   2.756   2.902   0.310  0.5658 -0.8327  0.5765
  265MOL0     O34883   2.621   2.868   0.288 -0.1868  0.0793 -0.8272
  265MOL0     C34884   2.567   2.827   0.155  0.9834 -0.0479 -0.5359
  265MOL0     C34885   2.431   2.759   0.192  0.8396 -1.1022  0.1350
  265MOL0     C34886   2.317   2.853   0.246  0.3505  0.4254  0.3941
  265MOL0     C34887   2.201   2.769   0.303 -0.9566 -0.1555  0.1272
  265MOL0     C34888   2.068   2.834   0.300 -0.2039  0.1391  0.2321
  265MOL0     C34889   1.978   2.758   0.385 -0.8015  0.2314 -0.4188
  265MOL0     C34890   1.847   2.846   0.416  0.0157  0.4950 -0.2948
  265MOL0     C34891   1.854   2.941   0.536  0.7183  0.3717  0.1937
  265MOL0    Cl34892   1.683   3.003   0.548 -0.4958  0.1194  0.4105
  265MOL0     C34893   2.857   2.901   0.211  0.2446 -0.4110  0.0588
  265MOL0     C34894   2.988   2.946   0.234  0.2836  0.7381  0.0699
  265MOL0     O34895   3.204   2.844   0.470  0.0149  0.0224  0.0164
  265MOL0     C34896   3.465   2.915   0.502 -0.0141  0.3425  0.1921
  265MOL0     C34897   3.598   2.965   0.502  0.7296  0.2768 -0.0546
  265MOL0     N34898   4.305   2.843   0.253 -0.6433  0.2760  0.7662
  265MOL0     N34899   4.420   2.811   0.208  0.4985 -0.9401 -0.1178
  265MOL0     C34900   5.540   2.750   0.606  0.1212 -0.6316  0.1307
  265MOL0     C34901   5.647   2.726   0.693  0.0814 -0.4143  0.6887
  265MOL0     C34902   6.080   2.704   0.816 -0.0229  0.5425  1.2246
  265MOL0     C34903   6.085   2.796   0.916  1.0787  0.7202 -0.6158
  265MOL0     C34904   6.195   2.792   1.004  0.4913 -0.9822 -0.8322
  265MOL0     C34905   6.304   2.704   0.989  0.6141 -0.7366  0.2891
  265MOL0     O34906   6.414   2.721   1.069 -0.2691 -0.3941 -0.9584
  265MOL0     C34907   6.540   2.669   1.016  0.5420 -0.6208 -0.2923
  265MOL0     C34908   6.656   2.721   1.096 -0.0882 -0.0418 -0.4567
  265MOL0     C34909   6.795   2.687   1.026 -0.3381 -0.0729 -0.5457
  265MOL0     C34910   6.921   2.732   1.107 -0.7695 -1.3152 -0.1438
  265MOL0     C34911   6.922   2.689   1.244 -0.1327 -0.7721 -0.1065
  265MOL0     C34912   6.911   2.632   1.352  0.8422 -0.7970 -0.4489
  265MOL0     C34913   6.299   2.608   0.888  0.2898  0.4873  0.4590
  265MOL0     C34914   6.189   2.614   0.795  0.8943 -0.6780 -0.2434
  265MOL0     H34915   5.840   2.997   0.625 -1.0394  1.0571  0.6226
  265MOL0     H34916   5.643   3.042   0.471  0.2284 -0.5988  0.2053
  265MOL0     H34917   5.456   3.018   0.307 -1.4653  1.6696 -0.3575
  265MOL0     H34918   5.384   3.074   0.463  0.6557 -1.8226  3.2448
  265MOL0     H34919   5.253   2.891   0.251 -2.1095  0.9457 -2.0107
  265MOL0     H34920   5.201   3.059   0.288  2.3464  0.4876 -0.1088
  265MOL0     H34921   5.140   2.964   0.519  4.2553  0.4328  0.9329
  265MOL0     H34922   5.202   2.815   0.465 -1.3995 -0.7312  0.3960
  265MOL0     H34923   4.980   2.978   0.318  4.6813  3.4402 -0.6998
  265MOL0     H34924   5.014   2.799   0.293 -2.2543  0.5925 -0.4162
  265MOL0     H34925   4.931   2.881   0.570  1.0315 -0.6753 -0.3665
  265MOL0     H34926   4.927   2.733   0.499  0.6027  1.0295  1.1988
  265MOL0     H34927   4.739   2.957   0.436 -2.0665 -0.3224 -1.0540
  265MOL0     H34928   4.688   2.811   0.501  0.0005  0.4046  0.7765
  265MOL0     H34929   4.802   2.749   0.240  2.3843  1.2697  1.9637
  265MOL0     H34930   4.650   2.707   0.305  0.9285 -1.2928  0.4223
  265MOL0     H34931   4.671   2.868   0.106 -1.3758 -2.4558  0.6926
  265MOL0     H34932   4.705   2.992   0.228 -1.6865  0.7754 -0.3427
  265MOL0     H34933   4.461   3.123   0.288 -0.1095  0.2545 -0.9602
  265MOL0     H34934   4.187   3.156   0.283  2.2177 -0.2096 -0.7225
  265MOL0     H34935   4.162   3.072   0.439 -0.8636  0.9771  0.0900
  265MOL0     H34936   4.051   2.883   0.334  2.0407  2.0006  4.7742
  265MOL0     H34937   4.061   2.984   0.180  1.9505  2.8673 -0.0766
  265MOL0     H34938   3.930   3.170   0.294 -1.2664 -0.6936 -0.3250
  265MOL0     H34939   3.841   3.029   0.261 -2.8905  1.9121  0.7110
  265MOL0     H34940   3.943   3.134   0.532 -0.1004  1.4288 -1.2684
  265MOL0     H34941   3.870   2.976   0.520  0.6393 -0.3336  1.7634
  265MOL0     H34942   3.549   3.301   0.453 -0.3846  0.6664 -0.8035
  265MOL0     H34943   3.314   3.214   0.423 -2.9335 -1.6280 -0.1830
  265MOL0     H34944   2.948   3.038   0.558  0.8457  3.4177 -1.4383
  265MOL0     H34945   2.710   2.961   0.507  0.3833  0.9564  1.6857
  265MOL0     H34946   2.631   2.755   0.103  0.5390 -0.3592 -0.6596
  265MOL0     H34947   2.551   2.904   0.080  1.5185 -1.6939 -2.4210
  265MOL0     H34948   2.450   2.673   0.257 -0.7189 -3.4289 -2.2859
  265MOL0     H34949   2.395   2.722   0.096 -1.1078 -0.7330  0.6781
  265MOL0     H34950   2.284   2.901   0.153 -1.5255  1.5871  1.5863
  265MOL0     H34951   2.354   2.927   0.318  4.3536 -0.5246 -0.4542
  265MOL0     H34952   2.198   2.672   0.251  2.3674 -0.6630  0.6515
  265MOL0     H34953   2.227   2.755   0.408 -0.4307  1.5859  0.2551
  265MOL0     H34954   2.033   2.840   0.197 -1.7158  0.1300  0.7161
  265MOL0     H34955   2.083   2.935   0.338  1.5516 -0.1818  0.4977
  265MOL0     H34956   2.022   2.748   0.484 -0.9985  1.5769 -0.1879
  265MOL0     H34957   1.958   2.656   0.350  2.3234 -1.2637  1.7313
  265MOL0     H34958   1.808   2.906   0.333 -0.6625 -0.8199 -0.9554
  265MOL0     H34959   1.774   2.770   0.444  0.7880  0.1166  0.7438
  265MOL0     H34960   1.919   3.027   0.518 -1.2882  1.6346 -1.3820
  265MOL0     H34961   1.882   2.884   0.625 -1.7037 -1.3988 -0.0782
  265MOL0     H34962   2.830   2.877   0.109  1.5331 -2.1635  0.0937
  265MOL0     H34963   3.075   2.950   0.170  0.1949 -2.5758 -0.4323
  265MOL0     H34964   3.457   2.807   0.509  0.0561  0.1132 -2.2368
  265MOL0     H34965   3.672   2.886   0.505 -0.5401 -1.0104 -1.0366
  265MOL0     H34966   5.460   2.677   0.598  0.7816 -1.2705 -0.7951
  265MOL0     H34967   5.643   2.640   0.760 -2.4322  0.0236  1.2114
  265MOL0     H34968   6.016   2.879   0.931  2.2882  1.8778 -1.2212
  265MOL0     H34969   6.190   2.866   1.083 -0.8923  1.6891 -3.2108
  265MOL0     H34970   6.552   2.703   0.913  1.8078  3.1307  0.9456
  265MOL0     H34971   6.535   2.560   1.010  0.7048 -0.5554 -2.9517
  265MOL0     H34972   6.650   2.828   1.119  0.3783 -0.0788 -0.1262
  265MOL0     H34973   6.648   2.684   1.199  1.9974  2.5832  0.7877
  265MOL0     H34974   6.790   2.714   0.920  0.5077  0.6691 -0.4077
  265MOL0     H34975   6.806   2.579   1.025 -0.8524 -0.2160  2.1034
  265MOL0     H34976   7.008   2.700   1.049 -0.1798  3.1626 -2.1656
  265MOL0     H34977   6.927   2.841   1.114 -0.7729 -1.3894  1.3267
  265MOL0     H34978   6.904   2.594   1.452 -0.0312  1.1814  0.3079
  265MOL0     H34979   6.369   2.526   0.875 -1.5686 -1.5754  2.6933
  265MOL0     H34980   6.193   2.552   0.706  1.7209  0.7410 -1.2403
  266MOL0     O34981   4.377   0.647   4.855  0.8179  0.0922 -0.0436
  266MOL0     C34982   4.464   0.599   4.788 -0.1208  0.1054 -0.0317
  266MOL0     O34983   4.458   0.475   4.732  0.4641  0.3395 -0.0303
  266MOL0     C34984   4.345   0.408   4.775  0.1207  0.6686 -0.0880
  266MOL0     C34985   4.238   0.417   4.678 -0.6556 -0.7078 -0.4671
  266MOL0     C34986   4.116   0.358   4.708  0.7642  0.2682  0.2344
  266MOL0     C34987   4.101   0.284   4.826 -0.3855  0.9575 -0.3142
  266MOL0     O34988   3.984   0.228   4.861 -0.1594 -0.1207 -0.2564
  266MOL0     C34989   3.896   0.179   4.756  0.9013 -0.2560  0.2098
  266MOL0     C34990   3.816   0.058   4.816 -0.3359  0.0002 -1.2468
  266MOL0     C34991   3.704   0.003   4.727 -0.2387  0.0055 -0.1420
  266MOL0     C34992   3.762  -0.090   4.621 -0.1597  1.2238  0.6040
  266MOL0     C34993   3.655  -0.140   4.526  0.3614 -0.2181  0.7779
  266MOL0     C34994   3.706  -0.224   4.408  0.0352  1.0547 -0.0444
  266MOL0     C34995   3.591  -0.240   4.314 -0.2090 -0.0009  0.4083
  266MOL0     C34996   3.644  -0.319   4.193  0.4930 -0.5180  0.5029
  266MOL0     N34997   3.534  -0.346   4.102 -0.5520  0.2183  0.2513
  266MOL0     C34998   3.544  -0.404   3.974 -0.0393  0.9010  0.9472
  266MOL0     C34999   3.436  -0.371   3.902 -0.0357  0.0779  0.7915
  266MOL0     C35000   3.397  -0.424   3.767  0.5031 -0.3994 -0.0332
  266MOL0     C35001   3.260  -0.503   3.779  0.2830  1.1945 -0.3601
  266MOL0     C35002   3.273  -0.617   3.677 -0.3674 -0.4299  0.3595
  266MOL0     C35003   3.140  -0.693   3.650 -0.4199  0.3710 -0.6263
  266MOL0     O35004   3.124  -0.775   3.767  0.4868 -0.0893 -0.2231
  266MOL0     C35005   3.066  -0.899   3.734  0.1727  0.3260 -0.5950
  266MOL0     C35006   2.938  -0.911   3.691  0.1093 -0.4840  0.5144
  266MOL0     C35007   2.890  -1.041   3.654 -0.4318 -0.5118 -0.3239
  266MOL0     C35008   2.967  -1.150   3.656  0.9276  0.1031  0.1959
  266MOL0     C35009   2.906  -1.282   3.611  0.4456 -0.2681  0.2012
  266MOL0     O35010   2.778  -1.290   3.569 -0.2011  0.3269  0.5925
  266MOL0     C35011   2.743  -1.410   3.507  0.4167 -0.5554 -0.4439
  266MOL0     C35012   2.611  -1.457   3.541  0.0392 -0.2432 -0.3524
  266MOL0     C35013   2.552  -1.564   3.483  0.3604  0.2839 -0.6541
  266MOL0     C35014   2.620  -1.630   3.385  0.0085  0.6907 -1.3087
  266MOL0     O35015   2.567  -1.741   3.325 -0.9108  0.4287 -0.1878
  266MOL0     C35016   2.660  -1.836   3.265  1.5326 -0.6056 -0.4369
  266MOL0     C35017   2.595  -1.971   3.242  0.8680 -0.4654 -0.7861
  266MOL0     C35018   2.664  -2.075   3.151 -0.0825 -0.4034  0.3889
  266MOL0     C35019   2.619  -2.223   3.181  0.9082 -0.4301  1.0148
  266MOL0     C35020   2.720  -2.323   3.123  0.1566  0.6820  0.5553
  266MOL0     C35021   2.861  -2.347   3.193 -0.1099  0.0104 -0.2228
  266MOL0     C35022   2.855  -2.372   3.341  0.2432 -0.6118 -0.3906
  266MOL0     C35023   2.996  -2.379   3.400  0.5472 -0.1630  0.4642
  266MOL0    Cl35024   2.993  -2.458   3.563  0.4262  0.3989  0.2684
  266MOL0     C35025   2.751  -1.585   3.352  0.3041 -0.3244  0.5369
  266MOL0     C35026   2.810  -1.475   3.409  0.2149 -0.3483 -0.0423
  266MOL0     O35027   2.986  -1.371   3.623  0.2558  0.0198 -0.6792
  266MOL0     C35028   3.099  -1.143   3.699 -0.1785 -0.2567  0.6728
  266MOL0     C35029   3.137  -1.017   3.741  0.6930  0.6871 -0.4827
  266MOL0     N35030   3.370  -0.279   3.983  0.2987  0.5522  0.4725
  266MOL0     N35031   3.429  -0.271   4.096 -0.2580 -1.0779  0.0395
  266MOL0     C35032   4.200   0.278   4.923  0.0825  0.0717  0.5239
  266MOL0     C35033   4.324   0.340   4.898 -0.7271  0.3390 -0.5338
  266MOL0     C35034   4.573   0.690   4.741 -0.3111  0.2922  0.2785
  266MOL0     C35035   4.684   0.642   4.663  0.3043  0.3183 -0.1700
  266MOL0     C35036   4.785   0.734   4.617  0.6231  0.8036 -0.3440
  266MOL0     C35037   4.783   0.868   4.650  1.0718 -0.0544  0.4018
  266MOL0     O35038   4.862   0.962   4.585  0.2975  0.3068  0.2282
  266MOL0     C35039   4.955   0.916   4.485 -0.0281  0.1147 -0.0737
  266MOL0     C35040   5.036   1.011   4.404  0.1042 -0.2957  0.1106
  266MOL0     C35041   5.122   1.084   4.500 -0.6276 -0.2789  0.4395
  266MOL0     C35042   5.193   1.210   4.445  1.2154  0.3673 -0.1523
  266MOL0     C35043   5.302   1.197   4.352 -0.5130  0.8015  0.8910
  266MOL0     C35044   5.400   1.201   4.281 -0.0706  0.5804 -0.4550
  266MOL0     C35045   4.677   0.909   4.731  0.8762  0.3627  0.2379
  266MOL0     C35046   4.578   0.827   4.773 -0.1983 -0.1181  0.2225
  266MOL0     H35047   4.247   0.480   4.590 -2.9496 -1.3267 -1.2222
  266MOL0     H35048   4.038   0.377   4.635  2.0440 -1.0223 -1.5511
  266MOL0     H35049   3.950   0.161   4.663 -2.0342 -0.7920 -1.5447
  266MOL0     H35050   3.824   0.260   4.740  2.2169  0.6676 -1.2442
  266MOL0     H35051   3.778   0.081   4.916 -0.7340 -4.3466 -0.2145
  266MOL0     H35052   3.886  -0.025   4.828  0.9678  1.4082  2.1394
  266MOL0     H35053   3.641   0.083   4.687 -1.7452 -0.6239  0.8819
  266MOL0     H35054   3.646  -0.052   4.802  2.7850 -0.8094  1.7613
  266MOL0     H35055   3.836  -0.035   4.563 -0.7895  4.1575  2.3991
  266MOL0     H35056   3.799  -0.182   4.667 -0.2763  0.2664 -1.1208
  266MOL0     H35057   3.600  -0.050   4.497 -2.3036 -2.4402 -1.7698
  266MOL0     H35058   3.580  -0.205   4.573 -1.1717 -1.1215 -2.6188
  266MOL0     H35059   3.742  -0.322   4.439  1.4336  0.6580 -2.5998
  266MOL0     H35060   3.789  -0.179   4.352 -2.1699  1.1614 -3.5363
  266MOL0     H35061   3.506  -0.294   4.357 -0.5627 -0.9753 -1.4244
  266MOL0     H35062   3.575  -0.138   4.278  2.6718  0.1798 -0.5980
  266MOL0     H35063   3.685  -0.410   4.237  0.4364 -1.4863 -1.3170
  266MOL0     H35064   3.727  -0.266   4.144  0.5481 -1.5780 -0.6029
  266MOL0     H35065   3.632  -0.462   3.947 -1.2188 -0.4644 -0.0933
  266MOL0     H35066   3.477  -0.485   3.724 -0.5170 -1.3073 -0.7145
  266MOL0     H35067   3.393  -0.344   3.693 -1.0387 -1.1107 -0.7647
  266MOL0     H35068   3.169  -0.447   3.756 -0.7365 -0.0990  0.3838
  266MOL0     H35069   3.254  -0.541   3.881  0.1590  0.6255 -0.5758
  266MOL0     H35070   3.304  -0.577   3.580  2.2309  3.3288  2.4897
  266MOL0     H35071   3.352  -0.679   3.719  1.0734 -0.5904 -2.3411
  266MOL0     H35072   3.153  -0.743   3.554  1.9098  0.0984 -0.2145
  266MOL0     H35073   3.055  -0.624   3.640  0.4854  1.5048 -0.7795
  266MOL0     H35074   2.877  -0.823   3.671  2.8925  1.6051  0.5013
  266MOL0     H35075   2.789  -1.039   3.615  0.4980 -0.0394 -2.9047
  266MOL0     H35076   2.556  -1.394   3.610  0.4882  1.9709 -1.8964
  266MOL0     H35077   2.452  -1.584   3.522  0.3647 -3.9553 -2.2272
  266MOL0     H35078   2.756  -1.841   3.317  1.2356  0.5631  0.2548
  266MOL0     H35079   2.689  -1.800   3.166  1.2502  0.4284 -0.1566
  266MOL0     H35080   2.493  -1.952   3.207  0.0817 -1.1106  1.0068
  266MOL0     H35081   2.595  -2.009   3.345  2.2982  4.2682  1.2235
  266MOL0     H35082   2.772  -2.069   3.166 -0.0438 -1.9779  0.9004
  266MOL0     H35083   2.639  -2.043   3.050 -0.9172 -0.2591  0.6308
  266MOL0     H35084   2.609  -2.248   3.287  4.0015 -0.0062  1.5116
  266MOL0     H35085   2.522  -2.239   3.134  1.4133 -0.1915 -0.1657
  266MOL0     H35086   2.736  -2.303   3.017  1.8344 -0.5759  0.5148
  266MOL0     H35087   2.667  -2.419   3.126  0.6274  0.2382 -2.4579
  266MOL0     H35088   2.922  -2.256   3.188 -1.2427  0.7527 -1.2249
  266MOL0     H35089   2.912  -2.419   3.128  0.2861  3.0995 -3.6827
  266MOL0     H35090   2.798  -2.301   3.401  2.8332  0.8373  0.5443
  266MOL0     H35091   2.811  -2.471   3.353 -1.1058  0.2731  3.1822
  266MOL0     H35092   3.031  -2.275   3.403  0.7997 -0.2306  0.0628
  266MOL0     H35093   3.075  -2.420   3.335  0.0400 -0.4889  0.0407
  266MOL0     H35094   2.821  -1.630   3.282 -1.3509 -2.2569  0.0334
  266MOL0     H35095   2.908  -1.438   3.380  0.6458  0.4373  2.1921
  266MOL0     H35096   3.164  -1.230   3.709  1.8744  1.1740  0.3649
  266MOL0     H35097   3.229  -1.013   3.799  0.0404  1.9642  0.5153
  266MOL0     H35098   4.185   0.227   5.017  2.6365 -0.8840  0.5089
  266MOL0     H35099   4.404   0.335   4.972 -0.1440  2.3505 -0.9487
  266MOL0     H35100   4.672   0.538   4.637  1.9403 -0.0295  0.3519
  266MOL0     H35101   4.861   0.691   4.553  1.0035  0.2817  0.4346
  266MOL0     H35102   4.894   0.861   4.412  0.0375  2.9492 -2.5065
  266MOL0     H35103   5.028   0.848   4.527  0.1411  1.6920  2.3474
  266MOL0     H35104   5.089   0.963   4.321  1.2450  0.5730  0.3153
  266MOL0     H35105   4.965   1.076   4.351 -2.0611 -1.7603  1.0428
  266MOL0     H35106   5.198   1.020   4.545  2.5537  1.2579 -2.3223
  266MOL0     H35107   5.061   1.138   4.573 -0.4548  0.1884  0.2414
  266MOL0     H35108   5.120   1.270   4.390  0.5941 -0.7317 -0.5624
  266MOL0     H35109   5.223   1.267   4.533  0.8796  0.8916 -0.3744
  266MOL0     H35110   5.490   1.203   4.222  0.5958 -2.9330  0.2144
  266MOL0     H35111   4.687   1.009   4.774 -1.2524  1.8395 -2.3764
  266MOL0     H35112   4.504   0.873   4.837 -1.4532 -0.9250 -0.6079
  267MOL0     O35113   0.787   8.256   6.991 -0.5861  0.2747 -0.7381
  267MOL0     C35114   0.745   8.368   7.021  0.2995 -1.0179 -1.2926
  267MOL0     O35115   0.814   8.457   7.097  0.3558  0.2310 -0.2396
  267MOL0     C35116   0.949   8.454   7.123 -0.1190 -0.1792  0.3801
  267MOL0     C35117   1.034   8.348   7.144  0.2152 -0.4149 -0.6568
  267MOL0     C35118   1.173   8.362   7.158  1.0276  0.7495 -0.6863
  267MOL0     C35119   1.232   8.483   7.148 -1.3830  0.3538  0.5347
  267MOL0     O35120   1.374   8.498   7.147  0.0372  0.4815 -0.0982
  267MOL0     C35121   1.434   8.621   7.118 -0.6668  0.1384 -0.9175
  267MOL0     C35122   1.590   8.599   7.116 -0.2746 -0.7744 -0.2795
  267MOL0     C35123   1.647   8.583   6.976 -0.6709 -0.4764 -0.5179
  267MOL0     C35124   1.787   8.529   6.977 -0.1568 -0.1236  0.3546
  267MOL0     C35125   1.851   8.531   6.842  0.5743  0.1729  0.7308
  267MOL0     C35126   1.868   8.689   6.806  0.2308 -0.0858 -0.8638
  267MOL0     C35127   1.954   8.718   6.685 -0.1722 -0.2597  0.4476
  267MOL0     C35128   1.872   8.731   6.552 -0.5932 -0.5248 -0.9245
  267MOL0     N35129   1.769   8.624   6.534  0.0048 -0.0209  0.2110
  267MOL0     C35130   1.799   8.496   6.494  0.2675  0.0099  0.0461
  267MOL0     C35131   1.676   8.447   6.485  0.4838  1.4980  0.5912
  267MOL0     C35132   1.632   8.311   6.439 -0.8823  0.1184  0.2363
  267MOL0     C35133   1.678   8.213   6.551  0.2346  0.1857  0.8004
  267MOL0     C35134   1.680   8.068   6.516 -0.2544 -0.6276  0.8859
  267MOL0     C35135   1.547   8.009   6.484 -0.2894  1.0757  0.3259
  267MOL0     O35136   1.552   7.869   6.468  0.8320 -0.0637 -0.0644
  267MOL0     C35137   1.444   7.806   6.419  0.2884 -0.2299 -0.3324
  267MOL0     C35138   1.317   7.859   6.404  0.6605 -0.5112  0.1897
  267MOL0     C35139   1.207   7.785   6.358  0.4729  0.0446  0.0483
  267MOL0     C35140   1.224   7.650   6.315  0.1114 -0.0593 -0.6024
  267MOL0     C35141   1.106   7.574   6.265  0.1594  0.3969 -0.2292
  267MOL0     O35142   0.990   7.648   6.243  0.4294 -0.8355 -0.6003
  267MOL0     C35143   0.903   7.588   6.147 -0.3547  0.2386 -0.0213
  267MOL0     C35144   0.938   7.541   6.018 -0.5466  0.3613  0.6283
  267MOL0     C35145   0.845   7.476   5.937 -0.5329 -0.1145  0.4730
  267MOL0     C35146   0.711   7.480   5.971 -0.2969 -0.8010 -0.4516
  267MOL0     O35147   0.643   7.398   5.885 -0.0748 -0.2100 -1.1146
  267MOL0     C35148   0.508   7.432   5.862  0.5591 -0.3136  0.3740
  267MOL0     C35149   0.500   7.544   5.763 -0.3187 -0.2923 -0.3963
  267MOL0     C35150   0.559   7.514   5.622 -0.1674  0.4761  0.2474
  267MOL0     C35151   0.533   7.380   5.558  0.2920 -0.9329  0.2007
  267MOL0     C35152   0.583   7.358   5.421  0.3962  0.2934 -0.3254
  267MOL0     C35153   0.534   7.218   5.381  0.2533 -0.2702 -0.4568
  267MOL0     C35154   0.597   7.169   5.252 -0.5694  0.4405  0.1106
  267MOL0     C35155   0.720   7.069   5.274 -0.3324  0.2002 -0.9532
  267MOL0    Cl35156   0.653   6.905   5.300 -0.2053 -0.2302  0.2505
  267MOL0     C35157   0.674   7.541   6.088  0.0940 -0.0256  0.0006
  267MOL0     C35158   0.767   7.596   6.167 -0.5666  0.3381 -1.0879
  267MOL0     O35159   1.127   7.455   6.234  0.1733 -0.0052  0.4887
  267MOL0     C35160   1.349   7.590   6.341  0.9140 -0.1946 -0.0583
  267MOL0     C35161   1.455   7.670   6.396  0.2327 -0.1628  0.2251
  267MOL0     N35162   1.583   8.538   6.511 -0.1279  0.0392 -0.1206
  267MOL0     N35163   1.639   8.644   6.549  0.5915  0.6099  0.3725
  267MOL0     C35164   1.153   8.599   7.120  0.5886  0.2273 -1.3637
  267MOL0     C35165   1.011   8.577   7.106  0.1306 -0.6898 -0.7455
  267MOL0     C35166   0.613   8.406   6.964 -0.7488  0.2911 -0.6323
  267MOL0     C35167   0.562   8.330   6.865  0.3847  0.5765 -0.2253
  267MOL0     C35168   0.437   8.361   6.814 -0.7717  1.0307  0.2676
  267MOL0     C35169   0.357   8.463   6.867 -0.9312  0.8488  0.1466
  267MOL0     O35170   0.243   8.493   6.807  0.3908  0.8832 -0.0695
  267MOL0     C35171   0.232   8.631   6.764 -0.5908  1.0032  0.6638
  267MOL0     C35172   0.127   8.641   6.655  0.6335 -0.1955 -0.0673
  267MOL0     C35173  -0.017   8.613   6.716 -0.1358 -0.9986 -0.6957
  267MOL0     C35174  -0.126   8.653   6.621  0.5582 -0.0132 -0.3530
  267MOL0     C35175  -0.258   8.651   6.691  0.4058  0.4127 -0.6535
  267MOL0     C35176  -0.367   8.661   6.744 -0.1563  0.1919 -0.0111
  267MOL0     C35177   0.402   8.531   6.977 -1.3244 -0.5846 -0.3253
  267MOL0     C35178   0.537   8.511   7.022  0.2323 -0.8792 -0.0238
  267MOL0     H35179   0.980   8.254   7.145  0.7807 -0.7612  0.8514
  267MOL0     H35180   1.234   8.273   7.166 -0.1623  0.0149  0.5243
  267MOL0     H35181   1.398   8.694   7.191 -3.3415 -0.7087 -1.2900
  267MOL0     H35182   1.406   8.656   7.019  0.2189  0.4885 -1.0530
  267MOL0     H35183   1.608   8.502   7.162 -1.7925 -0.2732  1.5016
  267MOL0     H35184   1.641   8.681   7.167 -1.8890 -1.2980  2.4060
  267MOL0     H35185   1.649   8.677   6.920  1.3042 -0.8763 -1.2191
  267MOL0     H35186   1.580   8.505   6.937 -1.7420  0.4598 -0.5955
  267MOL0     H35187   1.843   8.582   7.054 -0.6737 -2.1850  2.2572
  267MOL0     H35188   1.780   8.427   7.014 -0.2960 -1.3387 -2.7292
  267MOL0     H35189   1.790   8.478   6.767 -1.6191 -2.7293  4.1934
  267MOL0     H35190   1.952   8.490   6.849  0.4629 -1.4097 -3.9012
  267MOL0     H35191   1.935   8.722   6.886 -0.5439 -2.4471  0.8367
  267MOL0     H35192   1.783   8.758   6.809 -0.8019 -1.3530 -0.4463
  267MOL0     H35193   2.011   8.811   6.687  0.5097 -0.6785  0.5522
  267MOL0     H35194   2.030   8.640   6.678 -1.7601 -1.7839 -0.5322
  267MOL0     H35195   1.937   8.750   6.465 -1.2132  2.3097 -0.8508
  267MOL0     H35196   1.825   8.829   6.562  1.8864  0.8462 -1.7876
  267MOL0     H35197   1.890   8.443   6.467 -0.0898 -0.3855 -0.4107
  267MOL0     H35198   1.679   8.290   6.342 -0.1171  0.8526  0.4301
  267MOL0     H35199   1.524   8.322   6.431 -0.8787  1.3017  1.3172
  267MOL0     H35200   1.614   8.218   6.640 -1.9342 -0.1742 -0.6618
  267MOL0     H35201   1.782   8.222   6.583  0.2761  0.2486  0.6494
  267MOL0     H35202   1.734   8.043   6.424 -1.3008 -2.0268  0.6197
  267MOL0     H35203   1.724   8.013   6.600 -0.1684  0.7942  1.7961
  267MOL0     H35204   1.503   8.059   6.397 -0.6964  2.2171  1.1513
  267MOL0     H35205   1.484   8.033   6.571 -0.3889  0.2349  0.4945
  267MOL0     H35206   1.299   7.962   6.433 -0.7433 -1.4403  3.0060
  267MOL0     H35207   1.111   7.835   6.349  1.5227  2.1954  0.0425
  267MOL0     H35208   1.041   7.554   5.986 -1.3234  1.8240 -1.5040
  267MOL0     H35209   0.876   7.424   5.847  1.6464  2.7817 -0.6079
  267MOL0     H35210   0.451   7.450   5.953 -1.1484 -0.6524 -0.5624
  267MOL0     H35211   0.450   7.350   5.817 -2.2267  1.1817  1.0010
  267MOL0     H35212   0.555   7.632   5.796 -1.5380  1.7141 -3.2831
  267MOL0     H35213   0.396   7.576   5.760 -0.3749 -0.4130  0.1207
  267MOL0     H35214   0.668   7.522   5.632 -0.0599 -0.4724 -0.0342
  267MOL0     H35215   0.525   7.595   5.556 -0.4257 -2.0569 -2.9883
  267MOL0     H35216   0.561   7.299   5.626  0.5741 -1.7788 -0.9050
  267MOL0     H35217   0.423   7.379   5.552  0.2767  0.4723 -0.0196
  267MOL0     H35218   0.692   7.363   5.417  0.3550  1.3085 -3.8131
  267MOL0     H35219   0.557   7.434   5.346  2.9418  1.4352 -0.1406
  267MOL0     H35220   0.431   7.240   5.352  0.5928  0.4686 -1.1416
  267MOL0     H35221   0.530   7.142   5.459 -0.0432 -0.2853 -0.4856
  267MOL0     H35222   0.523   7.107   5.202 -0.4981 -0.6510  1.2955
  267MOL0     H35223   0.627   7.254   5.190  0.0709  1.2809  1.5172
  267MOL0     H35224   0.775   7.107   5.361 -3.1984  2.6803 -0.0477
  267MOL0     H35225   0.780   7.063   5.183 -0.6020  0.8429 -1.1755
  267MOL0     H35226   0.571   7.535   6.121 -0.5767 -1.7655 -2.1612
  267MOL0     H35227   0.747   7.632   6.268  2.4234  0.0053 -0.2699
  267MOL0     H35228   1.356   7.484   6.318 -0.8566 -0.6766  1.3761
  267MOL0     H35229   1.555   7.632   6.413  0.8043  0.4749 -1.4988
  267MOL0     H35230   1.186   8.701   7.107  0.2463  0.6111  0.5332
  267MOL0     H35231   0.947   8.661   7.081 -0.0844 -0.8958 -0.8926
  267MOL0     H35232   0.612   8.243   6.825  1.8578  1.1460  0.3191
  267MOL0     H35233   0.394   8.311   6.728 -0.3164  1.8943 -0.4801
  267MOL0     H35234   0.328   8.671   6.730 -0.3542 -0.3232 -0.3399
  267MOL0     H35235   0.192   8.684   6.850 -0.0581  0.0843  1.4999
  267MOL0     H35236   0.142   8.745   6.626  1.1928  0.5743  2.6761
  267MOL0     H35237   0.143   8.587   6.561 -2.3746 -1.3596 -0.0234
  267MOL0     H35238  -0.028   8.674   6.806  2.8468 -2.4028  0.7553
  267MOL0     H35239  -0.040   8.513   6.754 -2.4227  0.9862  3.8802
  267MOL0     H35240  -0.116   8.752   6.574  0.1015 -0.7137 -1.9709
  267MOL0     H35241  -0.129   8.578   6.543 -2.3318 -0.0376 -0.3290
  267MOL0     H35242  -0.467   8.660   6.782 -1.0069  3.1281 -1.8323
  267MOL0     H35243   0.355   8.614   7.029 -0.2125  1.0381 -1.7840
  267MOL0     H35244   0.573   8.549   7.117  2.9340 -1.1014 -0.8827
  268MOL0     O35245   9.749   2.362   0.046  0.2044  0.0419 -0.2153
  268MOL0     C35246   9.748   2.332   0.163  0.4914 -0.5800 -0.7315
  268MOL0     O35247   9.651   2.265   0.231  0.0296  0.0118  0.2929
  268MOL0     C35248   9.549   2.212   0.163 -0.2678  0.3657  0.7131
  268MOL0     C35249   9.431   2.203   0.222 -0.3855  0.3744 -0.3348
  268MOL0     C35250   9.316   2.148   0.167  1.2735  0.4935  0.1376
  268MOL0     C35251   9.312   2.124   0.028 -0.4872 -0.1275 -0.6059
  268MOL0     O35252   9.208   2.062  -0.033  0.1458  0.3195 -0.3818
  268MOL0     C35253   9.084   2.063   0.026  0.3473  0.3688  0.4149
  268MOL0     C35254   8.988   2.036  -0.089 -1.2507  0.1375  0.0531
  268MOL0     C35255   8.847   2.027  -0.038  0.0053 -0.1856  0.6150
  268MOL0     C35256   8.757   2.074  -0.154 -0.2319  0.4713  0.4271
  268MOL0     C35257   8.621   2.005  -0.136 -0.7563  0.2301 -0.4507
  268MOL0     C35258   8.530   2.110  -0.068 -0.3555  0.7043 -0.7187
  268MOL0     C35259   8.398   2.041  -0.024 -0.7363  0.2752 -0.4324
  268MOL0     C35260   8.420   1.944   0.095 -0.1493  0.2006  0.4324
  268MOL0     N35261   8.356   1.993   0.221  0.5869  0.3052 -0.3607
  268MOL0     C35262   8.225   1.959   0.266 -0.1101 -0.4827  0.1890
  268MOL0     C35263   8.217   2.022   0.388 -0.0517 -0.9436  0.4501
  268MOL0     C35264   8.095   2.025   0.474 -0.0353 -0.3615 -0.0073
  268MOL0     C35265   8.113   1.946   0.605  0.5107  0.2877 -0.9306
  268MOL0     C35266   7.986   1.961   0.706  0.1642  0.1623  0.2189
  268MOL0     C35267   7.855   1.901   0.655 -0.5390  0.6874  0.7170
  268MOL0     O35268   7.880   1.761   0.656  0.0290  0.2789  0.7079
  268MOL0     C35269   7.776   1.671   0.626  0.3041 -0.4177 -1.7001
  268MOL0     C35270   7.643   1.701   0.609  0.5910 -0.2895 -0.4535
  268MOL0     C35271   7.545   1.599   0.583 -0.0055  0.2826 -0.1508
  268MOL0     C35272   7.589   1.463   0.576 -0.0100  0.4832 -0.4452
  268MOL0     C35273   7.496   1.348   0.538 -0.1884  0.2102 -0.0369
  268MOL0     O35274   7.548   1.221   0.562  0.1841  0.2715 -0.0241
  268MOL0     C35275   7.496   1.098   0.526 -1.3818 -0.8489  0.7376
  268MOL0     C35276   7.571   0.981   0.558  1.1476  0.1873 -0.4753
  268MOL0     C35277   7.526   0.850   0.539  0.3501  0.0018 -0.2738
  268MOL0     C35278   7.406   0.830   0.469 -0.3913  0.6516  0.5282
  268MOL0     O35279   7.341   0.710   0.439 -0.1403 -0.1922 -0.5427
  268MOL0     C35280   7.382   0.595   0.501  0.0330  1.4335  0.1001
  268MOL0     C35281   7.264   0.496   0.495  0.3330  0.2672 -0.6551
  268MOL0     C35282   7.163   0.516   0.602  0.2386  0.4792 -0.0510
  268MOL0     C35283   7.052   0.410   0.569  0.7856 -0.2876  0.2112
  268MOL0     C35284   7.069   0.282   0.630  1.5515  0.6079 -0.0764
  268MOL0     C35285   6.936   0.195   0.660 -0.1173 -0.9145 -0.2769
  268MOL0     C35286   6.962   0.078   0.765  1.1734 -0.6512 -0.5346
  268MOL0     C35287   6.830   0.006   0.806 -0.5438  0.9679 -0.1997
  268MOL0    Cl35288   6.704   0.122   0.863  0.5439 -0.3492  0.5142
  268MOL0     C35289   7.334   0.950   0.437  0.3152 -0.3474 -0.4835
  268MOL0     C35290   7.372   1.081   0.460 -0.3817 -0.3825  0.2036
  268MOL0     O35291   7.388   1.369   0.476  0.0205 -0.3877 -0.2853
  268MOL0     C35292   7.723   1.439   0.610 -0.0046  0.3161  0.2882
  268MOL0     C35293   7.818   1.532   0.623 -0.8674 -0.1708 -0.1456
  268MOL0     N35294   8.333   2.098   0.407 -0.0487  0.3637  0.5460
  268MOL0     N35295   8.412   2.080   0.304  0.1924  0.2970 -0.1869
  268MOL0     C35296   9.430   2.137  -0.041  0.0213  0.8990 -0.0242
  268MOL0     C35297   9.554   2.166   0.027 -0.1892  0.4781 -0.5214
  268MOL0     C35298   9.867   2.369   0.235  0.3713 -0.4911 -0.0029
  268MOL0     C35299   9.969   2.446   0.172 -0.4581  0.1447  0.1766
  268MOL0     C35300  10.089   2.474   0.241  0.7138  0.1220  0.0909
  268MOL0     C35301  10.106   2.424   0.375 -0.3494  0.3284 -1.0759
  268MOL0     O35302  10.222   2.474   0.438 -0.1022 -0.3305 -0.0884
  268MOL0     C35303  10.335   2.395   0.425 -0.3688  0.0743  0.6071
  268MOL0     C35304  10.470   2.444   0.487 -0.0197 -0.0535 -0.3208
  268MOL0     C35305  10.509   2.581   0.438 -0.3511  0.6039 -0.2266
  268MOL0     C35306  10.583   2.656   0.552 -0.3053 -0.8385  0.0427
  268MOL0     C35307  10.662   2.764   0.482 -0.1922  0.0530 -0.1652
  268MOL0     C35308  10.718   2.844   0.417 -0.6435 -0.4331  0.3955
  268MOL0     C35309  10.001   2.354   0.442 -0.9211  0.2888  0.1635
  268MOL0     C35310   9.885   2.324   0.361 -0.5882 -1.0580 -0.1321
  268MOL0     H35311   9.434   2.220   0.329  6.5654  3.5880 -0.5150
  268MOL0     H35312   9.228   2.140   0.230  0.9976  2.0709 -0.0009
  268MOL0     H35313   9.066   2.157   0.078  0.0110  0.8622 -0.5563
  268MOL0     H35314   9.073   1.980   0.095 -1.5062  1.3108  1.3425
  268MOL0     H35315   9.016   1.946  -0.144  0.5408  1.4386 -1.3048
  268MOL0     H35316   9.007   2.112  -0.165  0.9818 -1.3558 -0.9922
  268MOL0     H35317   8.808   2.093   0.040  0.2629  1.5930 -0.6809
  268MOL0     H35318   8.837   1.923  -0.005 -2.0723 -0.5111 -0.7899
  268MOL0     H35319   8.758   2.183  -0.161  0.3505  0.3691 -1.7998
  268MOL0     H35320   8.804   2.039  -0.247  0.0517 -0.4585  0.9033
  268MOL0     H35321   8.628   1.907  -0.087  0.3397 -0.3233 -1.6242
  268MOL0     H35322   8.575   1.983  -0.233 -0.2636  1.3363 -0.9585
  268MOL0     H35323   8.507   2.185  -0.144  0.0083  1.1564 -0.3857
  268MOL0     H35324   8.597   2.158   0.004 -0.8166 -0.5719  0.6195
  268MOL0     H35325   8.335   2.120   0.015 -0.0637  0.4341  0.3704
  268MOL0     H35326   8.350   2.004  -0.115 -0.7009  1.1351 -0.8051
  268MOL0     H35327   8.527   1.928   0.112  0.4606  2.9809 -0.2569
  268MOL0     H35328   8.366   1.855   0.060  0.4308 -0.5347  1.3412
  268MOL0     H35329   8.160   1.881   0.227  0.1679 -0.0775 -1.1113
  268MOL0     H35330   8.013   1.992   0.410 -0.9444 -0.1662  1.0116
  268MOL0     H35331   8.069   2.130   0.496  0.9095 -0.6400  2.9627
  268MOL0     H35332   8.210   1.970   0.651 -0.5639  0.6625  1.2471
  268MOL0     H35333   8.125   1.839   0.584 -5.6345 -1.5009  2.3293
  268MOL0     H35334   8.014   1.900   0.792 -2.6246  0.0486  1.1495
  268MOL0     H35335   7.994   2.069   0.722  0.5635  0.2169 -0.3379
  268MOL0     H35336   7.821   1.941   0.560 -3.0405 -3.1362 -0.2523
  268MOL0     H35337   7.777   1.920   0.729 -0.1932 -0.1056  1.3027
  268MOL0     H35338   7.615   1.805   0.593 -3.1551 -1.1980 -0.7640
  268MOL0     H35339   7.441   1.630   0.571  0.3888  2.3029  1.1603
  268MOL0     H35340   7.673   0.995   0.592  0.9615  0.8695 -0.1773
  268MOL0     H35341   7.579   0.763   0.576  0.5966  0.0761 -0.4589
  268MOL0     H35342   7.412   0.620   0.603  0.3805 -0.9167  0.6519
  268MOL0     H35343   7.469   0.545   0.456 -0.5033  0.1993  0.3766
  268MOL0     H35344   7.305   0.395   0.502  0.7332  0.4412 -0.4801
  268MOL0     H35345   7.217   0.499   0.396 -0.4771 -1.8555 -0.3787
  268MOL0     H35346   7.137   0.622   0.607  3.4320  1.3351  4.2879
  268MOL0     H35347   7.211   0.503   0.699  0.0491  5.1646  0.9039
  268MOL0     H35348   6.961   0.457   0.606  0.9666 -1.5332  2.3761
  268MOL0     H35349   7.039   0.391   0.462  1.0046 -1.2391  0.3520
  268MOL0     H35350   7.126   0.300   0.721  2.0529 -0.1384 -0.2358
  268MOL0     H35351   7.142   0.222   0.576  0.6819  1.7248 -2.6619
  268MOL0     H35352   6.911   0.142   0.568  0.2778 -2.3140  0.3947
  268MOL0     H35353   6.859   0.265   0.693 -0.6456 -1.1740 -0.9324
  268MOL0     H35354   7.026   0.003   0.718  0.6008 -0.4977 -1.5770
  268MOL0     H35355   7.012   0.126   0.851 -0.3511  1.5903 -0.8026
  268MOL0     H35356   6.844  -0.080   0.872 -2.0131  0.5390 -0.4112
  268MOL0     H35357   6.794  -0.036   0.712  2.6221 -1.9033 -0.3249
  268MOL0     H35358   7.246   0.931   0.377 -0.0546 -0.5808  0.1275
  268MOL0     H35359   7.306   1.165   0.440 -0.7689 -0.6329  0.4161
  268MOL0     H35360   7.753   1.334   0.607 -2.4374 -0.4380 -2.2768
  268MOL0     H35361   7.922   1.508   0.638 -0.9608 -1.3486 -1.2333
  268MOL0     H35362   9.444   2.123  -0.147 -3.1875  0.4168 -0.4847
  268MOL0     H35363   9.643   2.167  -0.035 -1.1185  1.6931 -1.9303
  268MOL0     H35364   9.971   2.471   0.067  1.1902 -1.9589 -0.3775
  268MOL0     H35365  10.160   2.534   0.186  1.9181  1.2159  2.6755
  268MOL0     H35366  10.355   2.377   0.319 -0.9925 -1.4566  0.7247
  268MOL0     H35367  10.328   2.300   0.478  3.5368 -0.3743  0.6364
  268MOL0     H35368  10.457   2.463   0.594 -3.9366 -1.4045 -0.3739
  268MOL0     H35369  10.547   2.369   0.464  2.5443  0.9905  3.7004
  268MOL0     H35370  10.429   2.636   0.388 -0.9500 -1.8541 -2.1392
  268MOL0     H35371  10.583   2.549   0.364 -0.7059 -1.4846  0.2735
  268MOL0     H35372  10.504   2.692   0.619  1.5040  0.9502  1.3242
  268MOL0     H35373  10.654   2.605   0.617  0.3390 -0.2325 -0.1623
  268MOL0     H35374  10.766   2.920   0.359  0.1405 -1.0928  0.1440
  268MOL0     H35375  10.015   2.332   0.547  2.5833  1.3738  0.0409
  268MOL0     H35376   9.814   2.266   0.420  1.0491 -5.6695 -2.2354
  269MOL0     O35377   1.445   6.101  11.257 -0.1386 -0.2358  0.4406
  269MOL0     C35378   1.457   6.186  11.344 -0.6425 -0.4038  0.0915
  269MOL0     O35379   1.578   6.225  11.395  0.2068  0.5910  0.4181
  269MOL0     C35380   1.708   6.203  11.343 -0.0662  0.3110  0.1779
  269MOL0     C35381   1.823   6.179  11.421  1.2655  0.0787 -0.0146
  269MOL0     C35382   1.943   6.131  11.365  0.0300  0.2337  0.1451
  269MOL0     C35383   1.962   6.112  11.233 -0.7037  1.3137 -0.2020
  269MOL0     O35384   2.076   6.040  11.185  0.4821 -0.2862  0.1773
  269MOL0     C35385   2.205   6.076  11.247  0.2376 -0.2448  0.0038
  269MOL0     C35386   2.315   6.013  11.159  0.2474  0.0829  0.8158
  269MOL0     C35387   2.450   6.021  11.224 -1.0028 -0.7850 -0.1485
  269MOL0     C35388   2.562   6.003  11.136  0.6220  0.6336  0.5460
  269MOL0     C35389   2.689   6.034  11.223 -0.4979  0.0874  0.2844
  269MOL0     C35390   2.821   6.010  11.148 -0.0942 -0.7512 -0.5174
  269MOL0     C35391   2.921   5.974  11.257 -0.4338 -0.2826  0.3315
  269MOL0     C35392   3.069   5.993  11.203  0.7978  0.1209  0.0565
  269MOL0     N35393   3.169   5.903  11.242 -0.2831  0.7378  0.5181
  269MOL0     C35394   3.160   5.837  11.357  0.1595 -0.0922  0.0645
  269MOL0     C35395   3.251   5.741  11.343  0.5602  0.5869  0.5416
  269MOL0     C35396   3.283   5.639  11.446  0.1340 -0.8487 -0.1552
  269MOL0     C35397   3.242   5.493  11.407 -0.3471 -0.3535  0.0621
  269MOL0     C35398   3.090   5.465  11.412  0.0123 -0.1231 -1.0437
  269MOL0     C35399   3.026   5.511  11.537  0.3987  0.5233 -0.3130
  269MOL0     O35400   2.990   5.647  11.528 -0.6160  0.4718 -0.4870
  269MOL0     C35401   2.872   5.699  11.564  0.3572  0.2468  0.5568
  269MOL0     C35402   2.869   5.832  11.605  1.2147 -0.7251 -0.4484
  269MOL0     C35403   2.752   5.901  11.634 -0.5207  0.6558 -0.1940
  269MOL0     C35404   2.629   5.835  11.632  0.1715 -0.1474 -0.1656
  269MOL0     C35405   2.506   5.904  11.664  0.3010 -0.0197 -0.1470
  269MOL0     O35406   2.399   5.824  11.709 -0.4680 -0.1821 -0.3237
  269MOL0     C35407   2.296   5.895  11.757  0.0905  0.0909 -0.4649
  269MOL0     C35408   2.253   5.886  11.892 -1.1370 -1.0471  0.3420
  269MOL0     C35409   2.133   5.946  11.931  0.9110  0.3174  0.2903
  269MOL0     C35410   2.049   6.006  11.842  0.1945  0.0852  0.1700
  269MOL0     O35411   1.921   6.050  11.859 -1.2796  0.5245  0.0972
  269MOL0     C35412   1.877   6.069  11.985  0.5400 -1.0028 -0.7313
  269MOL0     C35413   1.715   6.091  11.971 -0.2557 -0.6535 -0.3395
  269MOL0     C35414   1.666   6.168  12.101  0.1391  0.2170 -0.1403
  269MOL0     C35415   1.645   6.076  12.224 -0.0924  0.0928 -0.1099
  269MOL0     C35416   1.604   6.162  12.345  0.3483  0.4658 -0.6317
  269MOL0     C35417   1.607   6.081  12.482  0.6799  0.1823  0.9631
  269MOL0     C35418   1.499   5.971  12.485  0.4104 -0.6464 -0.2464
  269MOL0     C35419   1.468   5.935  12.623  1.4744  0.2082 -0.5392
  269MOL0    Cl35420   1.344   5.794  12.626  0.2347  0.2359  0.3336
  269MOL0     C35421   2.090   6.004  11.713 -0.1840  0.7251  0.1793
  269MOL0     C35422   2.203   5.941  11.667  0.4179 -0.2078 -0.0379
  269MOL0     O35423   2.517   6.031  11.672 -0.1551 -0.4892  0.1659
  269MOL0     C35424   2.630   5.701  11.605 -0.0897  0.4146 -0.4098
  269MOL0     C35425   2.750   5.633  11.564  0.1407 -0.3203 -0.1805
  269MOL0     N35426   3.297   5.735  11.217  0.2122  0.2061  0.4494
  269MOL0     N35427   3.266   5.846  11.158  0.7452 -0.9704  0.5154
  269MOL0     C35428   1.842   6.128  11.157 -0.8675  0.4759 -0.3009
  269MOL0     C35429   1.720   6.182  11.214 -0.2227  0.3899  0.0864
  269MOL0     C35430   1.341   6.245  11.403  0.2898 -1.0311  0.4583
  269MOL0     C35431   1.216   6.187  11.389 -0.4395 -0.2478  0.0828
  269MOL0     C35432   1.105   6.237  11.461 -0.3016 -0.0554  0.4277
  269MOL0     C35433   1.117   6.338  11.547 -0.2291 -0.6326 -0.9655
  269MOL0     O35434   0.999   6.365  11.619 -1.0767  1.1014  0.0096
  269MOL0     C35435   0.990   6.432  11.741 -0.1684 -0.3249 -0.1205
  269MOL0     C35436   0.940   6.571  11.702  0.6016 -0.3010 -0.4593
  269MOL0     C35437   0.945   6.661  11.823 -1.3538  0.3792  0.3407
  269MOL0     C35438   0.888   6.608  11.962 -0.0449  0.1120  0.8325
  269MOL0     C35439   0.752   6.558  11.962 -0.8058  0.1666 -0.3247
  269MOL0     C35440   0.653   6.500  12.003 -0.7839  0.7414  0.2995
  269MOL0     C35441   1.239   6.407  11.555 -0.0296 -0.9963  0.3535
  269MOL0     C35442   1.346   6.365  11.478  0.5332 -0.8681  0.5295
  269MOL0     H35443   1.799   6.179  11.527 -0.9097 -2.9278 -0.3678
  269MOL0     H35444   2.019   6.106  11.438 -1.0178  0.3646  1.3241
  269MOL0     H35445   2.203   6.018  11.340  4.1946 -1.9069 -0.7371
  269MOL0     H35446   2.217   6.184  11.259  1.6283 -0.4978  1.1634
  269MOL0     H35447   2.322   6.063  11.062 -1.5459 -3.3737 -1.3073
  269MOL0     H35448   2.297   5.910  11.126  1.8151 -0.1475  0.6309
  269MOL0     H35449   2.455   5.939  11.297  2.5911  0.2892  1.0083
  269MOL0     H35450   2.466   6.116  11.276 -0.2141 -0.0371 -1.6888
  269MOL0     H35451   2.563   5.898  11.106  0.8101  1.1887 -1.5206
  269MOL0     H35452   2.547   6.075  11.055  1.9185  0.7392  0.3665
  269MOL0     H35453   2.685   5.975  11.315 -0.7088 -0.1648  0.1157
  269MOL0     H35454   2.678   6.141  11.245 -0.3820  0.3565 -0.9086
  269MOL0     H35455   2.857   6.096  11.091  1.2294 -2.4352 -2.3687
  269MOL0     H35456   2.808   5.926  11.079  0.1630  1.4501 -3.4191
  269MOL0     H35457   2.919   6.035  11.348  0.8987  1.0800 -0.4901
  269MOL0     H35458   2.900   5.874  11.295 -1.1272 -0.1210  0.3806
  269MOL0     H35459   3.090   6.097  11.228 -2.4992  0.7808  0.5835
  269MOL0     H35460   3.060   5.991  11.094 -1.8244  2.0223  0.1473
  269MOL0     H35461   3.116   5.869  11.451 -0.6922 -0.4828 -0.1946
  269MOL0     H35462   3.232   5.668  11.539  1.4752 -2.4669  1.1353
  269MOL0     H35463   3.389   5.630  11.469  0.7451  0.6321 -2.0638
  269MOL0     H35464   3.293   5.425  11.475  2.2420  1.7405  0.3984
  269MOL0     H35465   3.286   5.468  11.310  2.2367  1.3224  0.6923
  269MOL0     H35466   3.044   5.517  11.328 -0.4096  0.8665 -0.2240
  269MOL0     H35467   3.066   5.358  11.413 -2.4113  0.2388  3.2035
  269MOL0     H35468   3.091   5.486  11.622  0.2184 -0.1756 -0.3827
  269MOL0     H35469   2.941   5.444  11.553  1.2575 -0.2494  1.3264
  269MOL0     H35470   2.965   5.882  11.598 -0.5703  3.2070  0.6447
  269MOL0     H35471   2.766   6.009  11.634  0.5616  0.6161 -3.2449
  269MOL0     H35472   2.336   5.877  11.962 -0.6781  0.4993  0.0421
  269MOL0     H35473   2.109   5.946  12.037 -0.2435  3.3805  0.1462
  269MOL0     H35474   1.924   6.159  12.026 -1.9788  1.7336 -3.3996
  269MOL0     H35475   1.895   5.980  12.046  0.8027  1.0745  2.5006
  269MOL0     H35476   1.660   5.996  11.972 -0.4285 -0.5724 -1.1413
  269MOL0     H35477   1.689   6.148  11.881 -3.1385 -0.8750  0.2644
  269MOL0     H35478   1.576   6.224  12.075  1.4826  1.2818 -2.9623
  269MOL0     H35479   1.727   6.257  12.119 -0.7345  1.3333 -2.2410
  269MOL0     H35480   1.563   6.010  12.195  1.8559 -2.0925 -0.9750
  269MOL0     H35481   1.736   6.021  12.250  0.6160  0.2081 -2.1838
  269MOL0     H35482   1.505   6.205  12.328  0.6887  1.0299 -1.2365
  269MOL0     H35483   1.664   6.253  12.356 -0.0300  0.6532 -0.1018
  269MOL0     H35484   1.594   6.152  12.564  0.7227  0.8424  0.4116
  269MOL0     H35485   1.701   6.033  12.508  0.8972  0.0852  0.0134
  269MOL0     H35486   1.411   6.014  12.437 -1.3302  0.1800  3.3809
  269MOL0     H35487   1.539   5.888  12.425  0.3260  0.4611 -1.8930
  269MOL0     H35488   1.429   6.021  12.679 -3.6368 -0.0265 -3.1219
  269MOL0     H35489   1.560   5.910  12.676  0.6696 -0.2458  0.6976
  269MOL0     H35490   2.015   6.032  11.639  1.2966  1.3205 -1.1510
  269MOL0     H35491   2.222   5.947  11.560  2.7426  1.1209  0.3784
  269MOL0     H35492   2.541   5.639  11.613 -0.4270  1.1058  1.9366
  269MOL0     H35493   2.748   5.529  11.533 -2.6113 -0.2176 -0.6128
  269MOL0     H35494   1.837   6.096  11.054 -0.6255 -1.7875  0.3390
  269MOL0     H35495   1.631   6.181  11.152 -0.2748 -1.4023  0.1456
  269MOL0     H35496   1.194   6.097  11.333 -1.5472  1.2271 -1.9946
  269MOL0     H35497   1.004   6.200  11.445 -0.5200  0.6870  0.0530
  269MOL0     H35498   1.092   6.437  11.780 -0.3965  1.9192  0.3021
  269MOL0     H35499   0.936   6.368  11.812  1.9761 -2.7835 -0.5529
  269MOL0     H35500   1.002   6.613  11.623  2.5042 -2.5511 -0.2906
  269MOL0     H35501   0.842   6.572  11.655  0.5122  3.0025 -0.4246
  269MOL0     H35502   0.893   6.754  11.799  1.4345  2.1173  0.5941
  269MOL0     H35503   1.049   6.694  11.826 -1.3330  0.5135 -1.0359
  269MOL0     H35504   0.952   6.524  11.993 -0.0052 -0.2844 -0.2732
  269MOL0     H35505   0.903   6.688  12.035  1.6339  2.5885 -1.9802
  269MOL0     H35506   0.573   6.439  12.039  0.3474 -1.0253 -0.0730
  269MOL0     H35507   1.258   6.489  11.624  3.9720 -0.1621 -1.4250
  269MOL0     H35508   1.442   6.415  11.475  0.7702 -1.3612 -1.5758
  270MOL0     O35509   2.169   2.210   3.405 -0.6267  0.5475  0.0197
  270MOL0     C35510   2.186   2.211   3.529  0.3433 -0.1138  0.7450
  270MOL0     O35511   2.090   2.188   3.623  0.6624  0.0602  0.0237
  270MOL0     C35512   1.965   2.181   3.572  0.1494  0.4286  0.4843
  270MOL0     C35513   1.899   2.294   3.519 -0.4016  0.3204  0.5853
  270MOL0     C35514   1.775   2.270   3.465  0.3363 -0.1602 -0.2489
  270MOL0     C35515   1.736   2.142   3.436  1.2381 -0.1584  0.1675
  270MOL0     O35516   1.626   2.134   3.353 -0.6241 -0.5521 -0.1866
  270MOL0     C35517   1.626   2.034   3.253 -0.0976 -0.4665  0.3009
  270MOL0     C35518   1.648   2.095   3.109  0.3612 -0.1805 -0.8321
  270MOL0     C35519   1.786   2.150   3.104  0.4080 -0.0666  0.5843
  270MOL0     C35520   1.815   2.210   2.966  0.4832  0.2225  0.4448
  270MOL0     C35521   1.971   2.236   2.960 -0.4232 -0.2768 -0.3847
  270MOL0     C35522   2.046   2.110   2.911 -0.5546 -0.3547 -0.0921
  270MOL0     C35523   2.201   2.120   2.910  0.7649 -0.6266 -0.3261
  270MOL0     C35524   2.256   2.146   3.048  0.0735 -0.3741  0.5215
  270MOL0     N35525   2.401   2.154   3.048  0.2539 -0.5228 -0.1668
  270MOL0     C35526   2.489   2.199   2.952  0.9166 -0.6186  0.2777
  270MOL0     C35527   2.606   2.213   3.012 -0.6600 -0.1170 -0.2993
  270MOL0     C35528   2.721   2.261   2.941 -0.8472 -0.3652  0.2971
  270MOL0     C35529   2.740   2.407   2.948 -0.1695 -0.3866  0.5965
  270MOL0     C35530   2.844   2.448   3.051  0.3054  0.5116 -0.7190
  270MOL0     C35531   2.873   2.601   3.038 -0.3610 -0.4890 -0.4704
  270MOL0     O35532   2.751   2.680   3.070  0.5342  0.3730  0.3753
  270MOL0     C35533   2.691   2.666   3.192  0.5555 -0.2412  0.4752
  270MOL0     C35534   2.550   2.682   3.196  0.0438  0.1199 -0.2206
  270MOL0     C35535   2.483   2.650   3.315  0.3252  0.0609 -0.1832
  270MOL0     C35536   2.550   2.616   3.433 -0.2184 -0.5977 -0.0876
  270MOL0     C35537   2.472   2.597   3.561 -0.8586  0.4410  0.4236
  270MOL0     O35538   2.335   2.609   3.553 -0.0555 -0.0759 -0.5248
  270MOL0     C35539   2.254   2.595   3.674 -0.4920 -0.5761 -0.1606
  270MOL0     C35540   2.293   2.587   3.818  0.5349  0.1530  0.1015
  270MOL0     C35541   2.195   2.549   3.907 -1.3771 -1.4438 -0.7747
  270MOL0     C35542   2.067   2.532   3.870  0.2694  1.1665 -0.4782
  270MOL0     O35543   1.965   2.497   3.955 -0.3544  0.1438 -0.2949
  270MOL0     C35544   1.989   2.495   4.102  0.1795 -0.0162 -0.2268
  270MOL0     C35545   1.980   2.630   4.174  0.5958 -0.2087 -0.2233
  270MOL0     C35546   1.957   2.604   4.324  0.5958 -0.2642 -0.1224
  270MOL0     C35547   1.926   2.739   4.385 -0.1727  0.3003 -0.8412
  270MOL0     C35548   1.921   2.732   4.535 -0.5964  0.4136  0.3306
  270MOL0     C35549   1.887   2.871   4.597  0.2986 -0.1447 -0.6701
  270MOL0     C35550   1.917   2.868   4.749  0.4050  0.6130 -1.4013
  270MOL0     C35551   2.067   2.879   4.780 -0.3686 -0.2826  0.0804
  270MOL0    Cl35552   2.102   2.904   4.954 -0.1226  0.5566 -0.0911
  270MOL0     C35553   2.023   2.567   3.740 -1.0531  0.6173 -0.2454
  270MOL0     C35554   2.120   2.593   3.646  0.1645 -0.2647  0.0665
  270MOL0     O35555   2.540   2.590   3.669 -0.5796  0.3245  0.3710
  270MOL0     C35556   2.686   2.608   3.431  0.7546  0.4923 -0.2152
  270MOL0     C35557   2.752   2.633   3.310 -1.6781  0.5757  0.4239
  270MOL0     N35558   2.587   2.193   3.145 -0.4095  0.7202  0.0937
  270MOL0     N35559   2.469   2.143   3.168 -0.3134 -0.5709  0.3941
  270MOL0     C35560   1.793   2.029   3.501  0.1409 -0.9427  0.0806
  270MOL0     C35561   1.911   2.049   3.573  0.6525  0.5050  0.3908
  270MOL0     C35562   2.313   2.221   3.590  0.0201  0.6308 -0.9707
  270MOL0     C35563   2.343   2.257   3.723 -0.3863 -1.3127  0.7235
  270MOL0     C35564   2.481   2.259   3.763  0.3539 -0.0666 -0.4037
  270MOL0     C35565   2.594   2.229   3.680 -0.2062 -0.0098 -0.8183
  270MOL0     O35566   2.726   2.232   3.724  0.0571  0.7357 -0.3070
  270MOL0     C35567   2.816   2.308   3.648  0.0428  0.3093 -0.2283
  270MOL0     C35568   2.925   2.346   3.748 -0.7616  0.4862  0.1068
  270MOL0     C35569   2.988   2.481   3.718  0.6692 -0.3049  0.8329
  270MOL0     C35570   3.037   2.498   3.569 -0.3060  0.2311 -0.6024
  270MOL0     C35571   3.145   2.413   3.535  0.2456  0.1392  0.6193
  270MOL0     C35572   3.224   2.319   3.500 -0.8116 -0.7752  0.9214
  270MOL0     C35573   2.571   2.189   3.553  0.6696  0.1676  0.0319
  270MOL0     C35574   2.432   2.186   3.517 -0.3611  0.8344 -0.1375
  270MOL0     H35575   1.945   2.390   3.539  1.6007 -0.9089  2.1598
  270MOL0     H35576   1.707   2.349   3.435 -0.5604 -1.0603 -0.6249
  270MOL0     H35577   1.527   1.987   3.253 -1.6588  2.5414 -2.0790
  270MOL0     H35578   1.701   1.957   3.274 -0.2066 -0.9194 -0.8812
  270MOL0     H35579   1.583   2.178   3.082  2.2876  0.9902 -2.1082
  270MOL0     H35580   1.620   2.017   3.037 -0.9008 -1.4320  0.9190
  270MOL0     H35581   1.858   2.073   3.134  0.2285 -0.0760  0.9946
  270MOL0     H35582   1.804   2.231   3.176 -2.8598  0.4001  1.0303
  270MOL0     H35583   1.782   2.152   2.879  1.0368  0.7257 -0.1070
  270MOL0     H35584   1.754   2.300   2.950 -2.0020 -1.7242 -2.2010
  270MOL0     H35585   2.003   2.244   3.065  0.6412 -1.2522 -0.6196
  270MOL0     H35586   2.004   2.328   2.912 -0.7176 -0.2145 -0.4718
  270MOL0     H35587   2.008   2.099   2.809  0.9279  0.2382 -0.7361
  270MOL0     H35588   2.001   2.022   2.959 -2.7406  0.4280 -0.5971
  270MOL0     H35589   2.246   2.034   2.858 -0.7606 -2.3115  0.9978
  270MOL0     H35590   2.233   2.211   2.859 -0.6696  1.6325  2.5247
  270MOL0     H35591   2.227   2.071   3.123 -0.0185 -0.7332  0.1298
  270MOL0     H35592   2.213   2.241   3.080  1.3045  0.2745  0.2990
  270MOL0     H35593   2.472   2.222   2.847  2.1092  0.4638  0.2890
  270MOL0     H35594   2.718   2.237   2.834 -0.7072  0.7603  0.0242
  270MOL0     H35595   2.811   2.215   2.985 -2.8478 -2.4666  2.4931
  270MOL0     H35596   2.649   2.468   2.958 -0.7604 -1.0730 -0.3499
  270MOL0     H35597   2.788   2.430   2.852  0.7410 -1.6756  0.7222
  270MOL0     H35598   2.804   2.422   3.149  0.9397  2.5919  0.1393
  270MOL0     H35599   2.940   2.398   3.033  1.4359  1.8721  1.2301
  270MOL0     H35600   2.908   2.623   2.936 -2.4550  2.2562 -0.7527
  270MOL0     H35601   2.948   2.643   3.105 -2.1160 -0.0242  1.2722
  270MOL0     H35602   2.509   2.707   3.099  2.7697 -3.0159 -2.4368
  270MOL0     H35603   2.374   2.649   3.307  0.3624 -3.3476 -2.3974
  270MOL0     H35604   2.387   2.605   3.869  0.3771  1.6544 -0.0873
  270MOL0     H35605   2.233   2.539   4.008 -1.1790  1.4216 -0.4776
  270MOL0     H35606   2.082   2.442   4.125  1.5313  2.5293  0.6505
  270MOL0     H35607   1.906   2.439   4.145  0.0686  1.8596  2.2585
  270MOL0     H35608   1.893   2.684   4.135 -1.4854 -3.0825  0.1773
  270MOL0     H35609   2.071   2.691   4.169 -0.2011  1.2495  1.9074
  270MOL0     H35610   2.053   2.576   4.368  0.4369  0.8560  0.9810
  270MOL0     H35611   1.876   2.534   4.343  0.3418 -0.1296 -0.6777
  270MOL0     H35612   2.016   2.797   4.362  0.3768 -1.1062 -2.4312
  270MOL0     H35613   1.835   2.790   4.351 -0.9500  0.1873  0.9462
  270MOL0     H35614   2.016   2.690   4.569 -0.9206 -0.7796 -0.1902
  270MOL0     H35615   1.832   2.672   4.559 -2.4670  2.7684 -0.3221
  270MOL0     H35616   1.781   2.889   4.579 -0.2544 -2.9706 -0.7884
  270MOL0     H35617   1.938   2.953   4.546  1.3803  1.8752  3.2332
  270MOL0     H35618   1.861   2.944   4.805  0.2876 -2.0809  2.5286
  270MOL0     H35619   1.886   2.772   4.789  1.2814  0.4009 -1.2112
  270MOL0     H35620   2.101   2.969   4.727 -1.3771 -1.0755 -2.0078
  270MOL0     H35621   2.110   2.794   4.726 -0.0134 -0.6284  0.8851
  270MOL0     H35622   1.919   2.566   3.710 -0.7587  2.3732 -1.4812
  270MOL0     H35623   2.082   2.599   3.544  0.5544 -3.4095 -0.3578
  270MOL0     H35624   2.745   2.595   3.521  0.2367 -0.4838 -0.0068
  270MOL0     H35625   2.860   2.633   3.323 -1.7148 -1.5782  1.1201
  270MOL0     H35626   1.761   1.926   3.491  0.4494 -0.9482 -0.9812
  270MOL0     H35627   1.972   1.967   3.608  1.9947  0.4694 -1.8393
  270MOL0     H35628   2.273   2.306   3.790 -3.2849  0.4792 -3.2565
  270MOL0     H35629   2.508   2.280   3.866 -4.6219 -4.0528  2.1660
  270MOL0     H35630   2.765   2.399   3.616 -3.2739 -2.2317 -2.9531
  270MOL0     H35631   2.856   2.269   3.554  1.9245  1.8139 -0.1112
  270MOL0     H35632   2.884   2.362   3.848 -1.9952  1.9585 -0.6047
  270MOL0     H35633   3.004   2.270   3.752 -0.0736  1.1615  4.2932
  270MOL0     H35634   3.075   2.492   3.784  2.0622  0.0712 -0.9736
  270MOL0     H35635   2.916   2.560   3.742 -3.1575 -3.7725  1.9375
  270MOL0     H35636   2.956   2.483   3.497 -1.1587 -1.8229  0.6920
  270MOL0     H35637   3.090   2.591   3.548  2.8592 -1.0845  0.9718
  270MOL0     H35638   3.291   2.242   3.468  2.3231  2.6906 -1.7949
  270MOL0     H35639   2.635   2.161   3.470  0.0753  1.6855 -0.9793
  270MOL0     H35640   2.417   2.160   3.413  0.2530  0.5209 -0.1533
  271MOL0     O35641   7.314   8.603   0.137 -0.1278  0.1177  0.9771
  271MOL0     C35642   7.248   8.598   0.030 -0.9834  0.3187  0.1884
  271MOL0     O35643   7.115   8.571   0.010  0.1883 -0.2419 -0.2915
  271MOL0     C35644   7.027   8.568   0.121  0.4727 -0.2636  1.2071
  271MOL0     C35645   7.032   8.660   0.225  0.0054  0.2144  0.6112
  271MOL0     C35646   6.942   8.649   0.328  0.7229  0.5181  0.6196
  271MOL0     C35647   6.850   8.536   0.341  0.1806  0.4883  1.0668
  271MOL0     O35648   6.775   8.506   0.453 -0.0675  0.6851  1.5284
  271MOL0     C35649   6.680   8.605   0.501 -0.3668 -0.2099  1.1444
  271MOL0     C35650   6.621   8.549   0.632  0.1965  0.4386  0.3941
  271MOL0     C35651   6.535   8.666   0.680  0.1160  1.3666 -0.5400
  271MOL0     C35652   6.495   8.641   0.826  0.7405  0.1140 -0.3886
  271MOL0     C35653   6.366   8.725   0.857  0.1423  0.9312  0.0962
  271MOL0     C35654   6.244   8.632   0.834 -0.6706 -0.1324  0.3305
  271MOL0     C35655   6.113   8.707   0.837  0.1608  1.0191 -0.1423
  271MOL0     C35656   6.077   8.754   0.984 -0.0340 -0.0420 -0.0959
  271MOL0     N35657   5.941   8.722   1.034 -0.0453  0.3453  0.0522
  271MOL0     C35658   5.876   8.759   1.148  0.3214 -0.2153  0.0356
  271MOL0     C35659   5.763   8.689   1.160 -0.4007  0.6344  0.0603
  271MOL0     C35660   5.641   8.710   1.248 -0.2423 -0.1623 -0.0162
  271MOL0     C35661   5.580   8.843   1.226  0.0102 -0.0567 -0.2156
  271MOL0     C35662   5.488   8.909   1.341  0.3019  0.7434  0.5972
  271MOL0     C35663   5.352   8.830   1.371  0.2798 -0.2247  0.0081
  271MOL0     O35664   5.279   8.907   1.465  0.2976 -0.3787 -0.1293
  271MOL0     C35665   5.177   8.842   1.541 -0.4059 -0.0167 -0.1955
  271MOL0     C35666   5.168   8.888   1.674 -0.3783 -0.4209  0.0689
  271MOL0     C35667   5.075   8.828   1.758 -0.4173 -0.7277  0.3318
  271MOL0     C35668   4.981   8.734   1.710  0.1608  0.1424 -0.5831
  271MOL0     C35669   4.867   8.675   1.793  0.7014 -0.4657  0.4442
  271MOL0     O35670   4.789   8.571   1.745  0.2466  0.1113 -0.6745
  271MOL0     C35671   4.712   8.501   1.836  0.0239 -0.3206  0.8238
  271MOL0     C35672   4.765   8.382   1.888 -0.3385 -0.0668 -0.3690
  271MOL0     C35673   4.688   8.304   1.975 -0.6370  0.1281 -1.0055
  271MOL0     C35674   4.559   8.334   2.013 -0.1337  0.1711 -0.3937
  271MOL0     O35675   4.484   8.262   2.102  0.0327  0.1965 -0.4669
  271MOL0     C35676   4.442   8.130   2.052  0.0816 -0.0154 -0.0625
  271MOL0     C35677   4.289   8.099   2.076 -1.1436  0.3356 -0.3194
  271MOL0     C35678   4.231   8.103   2.221 -0.4012  0.0243 -0.0288
  271MOL0     C35679   4.147   7.979   2.257 -0.3070 -1.7803  0.0657
  271MOL0     C35680   4.243   7.857   2.298  0.6022  0.0148  0.7919
  271MOL0     C35681   4.168   7.726   2.292  0.2384  0.9553  0.0077
  271MOL0     C35682   4.240   7.622   2.379 -0.5197 -0.6928  0.5444
  271MOL0     C35683   4.146   7.517   2.430  0.1571 -0.1912  0.5569
  271MOL0    Cl35684   4.217   7.412   2.543 -0.3309  0.6098 -0.0466
  271MOL0     C35685   4.503   8.446   1.940  0.2281  1.2481  0.3421
  271MOL0     C35686   4.575   8.527   1.858 -0.2812 -0.0169  0.0686
  271MOL0     O35687   4.867   8.719   1.906  0.0087  0.0195 -0.2780
  271MOL0     C35688   4.992   8.697   1.572  1.2280  0.7314  0.2928
  271MOL0     C35689   5.093   8.745   1.494  0.2293 -0.4662  0.3875
  271MOL0     N35690   5.755   8.610   1.036 -0.2900 -0.9784  0.8256
  271MOL0     N35691   5.873   8.619   0.980 -0.3391  0.0527 -0.1318
  271MOL0     C35692   6.858   8.444   0.234  0.1694  0.0438 -0.4974
  271MOL0     C35693   6.939   8.464   0.116  0.5241  0.7260 -0.4384
  271MOL0     C35694   7.332   8.610  -0.093 -0.5303 -0.3278 -0.2203
  271MOL0     C35695   7.272   8.621  -0.223  0.5855 -0.4628  0.0495
  271MOL0     C35696   7.340   8.620  -0.341  0.4844  0.6051  0.0501
  271MOL0     C35697   7.477   8.619  -0.342  1.0474 -0.4365 -0.1945
  271MOL0     O35698   7.527   8.614  -0.467 -0.8351  0.1723 -0.7385
  271MOL0     C35699   7.669   8.578  -0.483  0.0315 -0.2047  0.8192
  271MOL0     C35700   7.712   8.570  -0.633 -0.4101  0.5160  1.3756
  271MOL0     C35701   7.623   8.484  -0.733 -0.2960 -0.4797 -0.3430
  271MOL0     C35702   7.577   8.355  -0.678 -0.3918  0.4952  0.2802
  271MOL0     C35703   7.488   8.289  -0.777 -0.6044 -0.0104  0.6307
  271MOL0     C35704   7.422   8.259  -0.877  0.1867 -0.1093 -0.4252
  271MOL0     C35705   7.551   8.604  -0.224 -0.6976 -0.7464 -0.3716
  271MOL0     C35706   7.475   8.597  -0.103 -0.4442 -0.1527 -0.2749
  271MOL0     H35707   7.114   8.731   0.229  0.1662 -0.0019  1.4494
  271MOL0     H35708   6.940   8.717   0.413 -0.2431  0.5891  0.5547
  271MOL0     H35709   6.608   8.624   0.421 -1.4973 -5.4275  0.5270
  271MOL0     H35710   6.732   8.698   0.526 -3.3283  2.2243 -1.0070
  271MOL0     H35711   6.696   8.508   0.700 -0.6423 -2.9319 -0.5283
  271MOL0     H35712   6.552   8.469   0.602 -0.5393 -0.1028  3.2243
  271MOL0     H35713   6.439   8.675   0.628 -1.7232 -0.5797  2.2401
  271MOL0     H35714   6.595   8.757   0.674  0.6860  0.9523 -1.2036
  271MOL0     H35715   6.472   8.535   0.836  1.6648  0.0358  1.2303
  271MOL0     H35716   6.577   8.663   0.895 -0.6670 -4.8029  3.4546
  271MOL0     H35717   6.356   8.814   0.794  0.6795  0.9391  0.0225
  271MOL0     H35718   6.354   8.758   0.961 -3.0825  2.1288 -0.5319
  271MOL0     H35719   6.249   8.565   0.921  0.9802  1.9394  1.9249
  271MOL0     H35720   6.249   8.568   0.745  2.4600  1.6524 -0.9107
  271MOL0     H35721   6.133   8.793   0.772  2.0690  1.8529  1.4722
  271MOL0     H35722   6.035   8.643   0.796  1.8816 -1.3419  0.0751
  271MOL0     H35723   6.090   8.863   0.989  0.1506 -0.1069  1.1074
  271MOL0     H35724   6.154   8.712   1.049  0.7795 -2.0038 -2.2021
  271MOL0     H35725   5.909   8.839   1.214 -0.1511 -0.2010  0.2589
  271MOL0     H35726   5.669   8.690   1.352 -1.8780 -0.2157  0.4370
  271MOL0     H35727   5.574   8.631   1.213 -1.0793  0.1252  0.9236
  271MOL0     H35728   5.524   8.852   1.133  0.1621  2.2230 -0.1294
  271MOL0     H35729   5.661   8.916   1.220 -1.6769  1.7645 -2.1085
  271MOL0     H35730   5.538   8.908   1.439 -1.9230  0.9264  1.7842
  271MOL0     H35731   5.464   9.012   1.313  0.4559  0.1478 -1.9468
  271MOL0     H35732   5.387   8.739   1.421  0.8438  0.9089  1.7852
  271MOL0     H35733   5.300   8.820   1.275  1.9425 -0.7251 -0.8728
  271MOL0     H35734   5.256   8.943   1.707 -0.0851 -1.5265  1.2011
  271MOL0     H35735   5.082   8.838   1.866  2.0244  0.0460  0.1679
  271MOL0     H35736   4.864   8.353   1.854 -0.7068 -1.5862 -0.2133
  271MOL0     H35737   4.744   8.218   2.011  2.0723  2.7371  1.4986
  271MOL0     H35738   4.503   8.055   2.105  1.3357  1.0211  0.0243
  271MOL0     H35739   4.469   8.119   1.946  0.2298 -2.6359  0.1720
  271MOL0     H35740   4.282   7.994   2.046 -0.9976  0.4794 -0.8720
  271MOL0     H35741   4.233   8.165   2.008 -2.8130  1.4015  1.9608
  271MOL0     H35742   4.165   8.189   2.231  0.5331  0.5423  2.5139
  271MOL0     H35743   4.315   8.113   2.290  1.2574 -0.1564 -1.9178
  271MOL0     H35744   4.087   7.997   2.347  2.6052  1.0291  1.6373
  271MOL0     H35745   4.086   7.953   2.169  0.0975 -4.1609  0.4365
  271MOL0     H35746   4.270   7.881   2.401 -0.5394  2.7411  0.5424
  271MOL0     H35747   4.335   7.855   2.238  0.0255 -1.2212 -0.0851
  271MOL0     H35748   4.163   7.695   2.187 -0.6424 -0.3841  0.4169
  271MOL0     H35749   4.066   7.746   2.325 -1.4155 -0.9610 -3.3568
  271MOL0     H35750   4.315   7.568   2.321 -1.0080 -0.1942 -0.5785
  271MOL0     H35751   4.287   7.678   2.460  0.4207  3.2683 -2.4473
  271MOL0     H35752   4.096   7.464   2.349 -0.1395  2.4647 -1.1208
  271MOL0     H35753   4.059   7.570   2.471  0.2690  1.5306 -1.3070
  271MOL0     H35754   4.396   8.465   1.948 -0.5727 -1.4376 -2.2336
  271MOL0     H35755   4.524   8.611   1.812 -0.1770 -0.2230 -0.4269
  271MOL0     H35756   4.918   8.629   1.532  0.5429  0.7077  1.5692
  271MOL0     H35757   5.091   8.712   1.391  0.9645 -1.1704  0.5864
  271MOL0     H35758   6.802   8.354   0.210 -1.3613  1.9293 -5.5823
  271MOL0     H35759   6.937   8.388   0.039 -0.5194 -1.2085  1.3788
  271MOL0     H35760   7.164   8.620  -0.230  0.4982 -1.1898  1.2069
  271MOL0     H35761   7.296   8.621  -0.440  0.0641  0.0176  0.2271
  271MOL0     H35762   7.691   8.485  -0.431  0.2292 -0.0611  0.9927
  271MOL0     H35763   7.738   8.645  -0.431  2.6231 -2.6027  0.6871
  271MOL0     H35764   7.726   8.676  -0.657 -2.0235 -0.0853 -2.9914
  271MOL0     H35765   7.805   8.514  -0.624 -1.2721 -0.9475  1.4286
  271MOL0     H35766   7.687   8.470  -0.821 -0.2107  0.0921 -0.3727
  271MOL0     H35767   7.550   8.550  -0.781 -0.2485 -0.1083  0.0906
  271MOL0     H35768   7.654   8.281  -0.658 -2.1914 -1.1868  1.2773
  271MOL0     H35769   7.511   8.362  -0.591 -0.4121 -1.8031  0.4984
  271MOL0     H35770   7.386   8.251  -0.978  1.1889 -3.2418 -0.6392
  271MOL0     H35771   7.659   8.602  -0.217 -0.8219 -1.5692  3.9080
  271MOL0     H35772   7.516   8.584  -0.004 -1.1794 -0.2625  0.0197
  272MOL0     O35773   2.342   9.810   1.805  0.3896  0.0325  0.2704
  272MOL0     C35774   2.379   9.888   1.893 -0.5671  0.1161 -0.1618
  272MOL0     O35775   2.307   9.933   2.000  0.1594  0.4394  0.6535
  272MOL0     C35776   2.184   9.873   2.027  0.1449  0.3496  0.6036
  272MOL0     C35777   2.080   9.864   1.936 -0.2657 -0.3099  0.0748
  272MOL0     C35778   1.945   9.848   1.973  0.7967 -1.0117 -0.4463
  272MOL0     C35779   1.912   9.821   2.110 -0.4796 -0.0430  0.0347
  272MOL0     O35780   1.791   9.772   2.129 -0.7561 -0.5757 -0.4727
  272MOL0     C35781   1.711   9.854   2.223 -0.2127  0.6611 -0.7173
  272MOL0     C35782   1.635   9.958   2.143  0.4931  1.1843  0.4101
  272MOL0     C35783   1.567  10.074   2.222 -0.1195 -0.2017  0.9423
  272MOL0     C35784   1.494  10.031   2.360 -0.4492  0.0314  0.3290
  272MOL0     C35785   1.383   9.928   2.338 -0.2360  0.2309 -0.6298
  272MOL0     C35786   1.279   9.974   2.246  0.5324 -0.6024 -0.0965
  272MOL0     C35787   1.129   9.928   2.286  0.1054  0.3624  0.3110
  272MOL0     C35788   1.125   9.782   2.340 -0.2227  0.1994 -0.1494
  272MOL0     N35789   1.199   9.686   2.256 -0.0846  0.9302 -0.3399
  272MOL0     C35790   1.207   9.684   2.119  0.3943 -0.2352  0.2152
  272MOL0     C35791   1.313   9.608   2.090 -0.2519  0.0153  0.3962
  272MOL0     C35792   1.384   9.587   1.949 -0.4117  0.4569  0.3005
  272MOL0     C35793   1.332   9.659   1.832 -0.2038 -0.2715  0.0144
  272MOL0     C35794   1.425   9.635   1.708  0.1614 -0.5833  0.5063
  272MOL0     C35795   1.514   9.750   1.687 -0.4473 -0.2107  0.8145
  272MOL0     O35796   1.580   9.738   1.561 -0.2307 -0.7686 -0.9429
  272MOL0     C35797   1.688   9.813   1.525  0.7818 -0.6789  0.5700
  272MOL0     C35798   1.773   9.774   1.426  0.1829  0.7755 -0.4031
  272MOL0     C35799   1.890   9.838   1.407 -0.2262  0.8834 -0.3871
  272MOL0     C35800   1.927   9.955   1.477  0.0497  0.4512 -0.2639
  272MOL0     C35801   2.047  10.027   1.441  0.3203 -1.1295 -0.4407
  272MOL0     O35802   2.138   9.963   1.363 -0.5864 -0.2856 -0.3268
  272MOL0     C35803   2.268  10.020   1.379  0.3318  0.9286  0.0983
  272MOL0     C35804   2.332  10.001   1.503 -0.8492 -0.8260 -0.0153
  272MOL0     C35805   2.453  10.067   1.526  0.6187 -0.1362 -0.5700
  272MOL0     C35806   2.517  10.142   1.421 -0.6284  0.7491 -0.8681
  272MOL0     O35807   2.638  10.198   1.431 -0.3576 -0.9820 -0.1006
  272MOL0     C35808   2.679  10.261   1.559 -0.6311  0.0185  0.1362
  272MOL0     C35809   2.754  10.387   1.534  0.0071  0.6677 -0.0138
  272MOL0     C35810   2.898  10.367   1.464  0.9014  0.0365  0.4626
  272MOL0     C35811   2.972  10.241   1.511  0.5478  0.4192 -0.5238
  272MOL0     C35812   3.117  10.219   1.453  0.2995  0.4535  0.7041
  272MOL0     C35813   3.126  10.142   1.325 -0.6809 -0.5639  0.8076
  272MOL0     C35814   3.262  10.085   1.285 -0.2564 -0.8398  0.2032
  272MOL0     C35815   3.251  10.003   1.153 -0.0555 -0.0218  0.2699
  272MOL0    Cl35816   3.423   9.962   1.093  0.1655  0.0031  0.8892
  272MOL0     C35817   2.454  10.157   1.299  0.0262 -0.2867  0.0272
  272MOL0     C35818   2.327  10.096   1.275  0.5957 -0.2313 -0.0650
  272MOL0     O35819   2.060  10.139   1.502 -0.1332  0.5091  0.2570
  272MOL0     C35820   1.832   9.999   1.570  0.4485  0.1465  0.6412
  272MOL0     C35821   1.708   9.933   1.592  0.1538 -0.2917  0.0230
  272MOL0     N35822   1.362   9.556   2.208 -0.7783 -0.4495  0.4145
  272MOL0     N35823   1.300   9.613   2.305  0.1841  0.2637 -0.2754
  272MOL0     C35824   2.013   9.832   2.200 -0.2512  1.3776  0.0301
  272MOL0     C35825   2.145   9.862   2.163  0.1321 -0.1481  0.5403
  272MOL0     C35826   2.517   9.948   1.877  0.1109 -0.4735  0.0269
  272MOL0     C35827   2.604   9.894   1.780  1.0108  0.2522 -0.3814
  272MOL0     C35828   2.740   9.931   1.779  1.1584 -0.4675 -0.8535
  272MOL0     C35829   2.790  10.025   1.862 -0.4287 -0.0062 -0.8474
  272MOL0     O35830   2.923  10.057   1.825  0.2620  0.6540  0.0890
  272MOL0     C35831   3.020  10.107   1.910  0.0530  0.0398 -0.4242
  272MOL0     C35832   3.161  10.097   1.840  0.9793 -0.5763  0.9384
  272MOL0     C35833   3.267  10.171   1.916 -0.3459  0.0690  0.0303
  272MOL0     C35834   3.288  10.109   2.054 -0.0348  0.8493  0.6022
  272MOL0     C35835   3.404  10.176   2.121  0.0951 -0.2841  0.1128
  272MOL0     C35836   3.469  10.234   2.206  0.1451 -0.4308 -0.6281
  272MOL0     C35837   2.708  10.079   1.960 -0.7369 -0.4287  1.0265
  272MOL0     C35838   2.577  10.034   1.971  0.4718 -0.2042  0.1833
  272MOL0     H35839   2.101   9.889   1.833  0.1978  2.0005  0.6716
  272MOL0     H35840   1.851   9.847   1.920 -0.6986  1.4393  1.8806
  272MOL0     H35841   1.776   9.902   2.296 -0.5144 -0.9638  0.6629
  272MOL0     H35842   1.638   9.787   2.270  0.5498 -0.0627 -0.5490
  272MOL0     H35843   1.568   9.918   2.066 -2.0378  0.3362  2.9104
  272MOL0     H35844   1.714  10.007   2.085 -0.3443  0.6390 -1.2464
  272MOL0     H35845   1.493  10.120   2.156  1.1150 -1.9387 -1.8495
  272MOL0     H35846   1.642  10.143   2.261  1.1668 -1.7821  1.3541
  272MOL0     H35847   1.576  10.003   2.427  3.7433  2.2419 -3.2922
  272MOL0     H35848   1.454  10.122   2.405  1.0678  1.1636 -0.4910
  272MOL0     H35849   1.342   9.911   2.438  1.7231  5.7027  1.5288
  272MOL0     H35850   1.426   9.845   2.281  0.4287 -0.4258  0.7672
  272MOL0     H35851   1.301   9.934   2.147  1.8166  2.3578 -1.1082
  272MOL0     H35852   1.281  10.083   2.249  2.5811 -0.4899 -2.3029
  272MOL0     H35853   1.085   9.990   2.364 -2.0191  0.3123 -0.7469
  272MOL0     H35854   1.070   9.934   2.194 -2.3422  0.8289  1.8259
  272MOL0     H35855   1.018   9.758   2.340 -0.5304  1.2855 -2.3679
  272MOL0     H35856   1.167   9.778   2.440 -0.7105  2.5687  0.2173
  272MOL0     H35857   1.148   9.745   2.050  3.2452  1.0480 -1.2604
  272MOL0     H35858   1.383   9.480   1.923  0.5933  0.7240 -0.9977
  272MOL0     H35859   1.487   9.624   1.954  0.3347 -1.5675  1.2117
  272MOL0     H35860   1.300   9.762   1.848  0.3015 -0.2226  0.7566
  272MOL0     H35861   1.241   9.604   1.807  0.0161 -0.2351 -0.9190
  272MOL0     H35862   1.487   9.545   1.719 -1.0524 -1.6602 -0.9318
  272MOL0     H35863   1.367   9.618   1.617  1.2661  0.7115 -0.4799
  272MOL0     H35864   1.569   9.771   1.779 -2.0406  4.3316  0.9642
  272MOL0     H35865   1.462   9.846   1.680 -0.3577 -0.2743 -1.1560
  272MOL0     H35866   1.739   9.682   1.381 -1.1052 -1.0664  3.8705
  272MOL0     H35867   1.964   9.799   1.338  0.1362 -2.2016  1.5533
  272MOL0     H35868   2.279   9.945   1.580  0.3020 -2.7787 -0.5599
  272MOL0     H35869   2.509  10.059   1.619  0.7019  1.4112 -0.4505
  272MOL0     H35870   2.739  10.187   1.614 -1.8985  1.2174  3.4118
  272MOL0     H35871   2.604  10.291   1.633  2.1345  0.3096  3.0810
  272MOL0     H35872   2.775  10.419   1.637 -0.6002 -2.9358  1.3906
  272MOL0     H35873   2.699  10.463   1.480  1.2893  0.6943 -1.3568
  272MOL0     H35874   2.964  10.451   1.489  0.3091  0.3065  1.1535
  272MOL0     H35875   2.875  10.365   1.357 -3.4404  2.0417  1.1228
  272MOL0     H35876   2.969  10.238   1.620  1.6246  3.5769 -0.3058
  272MOL0     H35877   2.928  10.149   1.472 -0.5412  0.0465  1.4745
  272MOL0     H35878   3.184  10.172   1.526  1.2068  0.8747  0.1684
  272MOL0     H35879   3.157  10.316   1.422 -3.3577  0.7594 -4.1973
  272MOL0     H35880   3.086  10.205   1.244  3.5230  1.7056  0.2108
  272MOL0     H35881   3.052  10.063   1.337 -0.9388 -0.7297 -1.3827
  272MOL0     H35882   3.342  10.158   1.291 -1.0204  0.2644 -1.8511
  272MOL0     H35883   3.295  10.009   1.356  1.8560 -0.2210 -0.0621
  272MOL0     H35884   3.203  10.053   1.069  1.4116 -0.7799 -1.0805
  272MOL0     H35885   3.195   9.914   1.184  0.7690 -0.1376  1.5217
  272MOL0     H35886   2.507  10.209   1.220 -2.7415  0.3758 -1.5351
  272MOL0     H35887   2.283  10.118   1.179  0.6707 -1.7373 -0.4707
  272MOL0     H35888   1.842  10.095   1.621  3.3787  2.2194 -3.3145
  272MOL0     H35889   1.644   9.982   1.664  1.1408 -1.1335  1.5086
  272MOL0     H35890   1.970   9.811   2.298 -1.7230  4.2128  0.1122
  272MOL0     H35891   2.231   9.893   2.222  0.2115  4.6883 -1.6949
  272MOL0     H35892   2.566   9.826   1.705 -2.9001  1.7295 -0.0268
  272MOL0     H35893   2.803   9.897   1.697  0.8904  3.3096 -2.8492
  272MOL0     H35894   3.027  10.068   2.012  0.4644  4.2506  1.3873
  272MOL0     H35895   2.983  10.207   1.936 -1.2495  0.2476 -2.8172
  272MOL0     H35896   3.188   9.992   1.824 -2.5998 -1.5010 -0.1295
  272MOL0     H35897   3.142  10.146   1.745 -0.5674 -1.4468  0.7589
  272MOL0     H35898   3.238  10.275   1.933  0.0938  0.1830  0.0985
  272MOL0     H35899   3.364  10.168   1.865 -0.0610 -0.3386  0.5862
  272MOL0     H35900   3.198  10.109   2.115 -0.1181  1.6333  0.4799
  272MOL0     H35901   3.317  10.004   2.040 -0.2907  0.3175  3.5575
  272MOL0     H35902   3.527  10.301   2.265 -2.6303  2.1921 -0.6484
  272MOL0     H35903   2.748  10.152   2.030  1.9705 -0.3899 -0.4344
  272MOL0     H35904   2.517  10.067   2.055  1.1408  1.7826 -0.0540
  273MOL0     O35905   7.047   5.842   7.423  0.6894 -0.8743 -0.1991
  273MOL0     C35906   7.060   5.764   7.508  0.4982  0.4659  0.4281
  273MOL0     O35907   6.964   5.685   7.560 -0.8214 -0.0132 -0.8683
  273MOL0     C35908   6.834   5.694   7.520 -0.1610 -0.4368 -0.2018
  273MOL0     C35909   6.762   5.812   7.479  0.2302  0.0500  0.4615
  273MOL0     C35910   6.617   5.793   7.442  0.2200 -0.3748  0.0599
  273MOL0     C35911   6.543   5.679   7.472 -0.6991  0.9287 -0.7963
  273MOL0     O35912   6.412   5.653   7.436 -0.0122  0.1140 -0.7189
  273MOL0     C35913   6.346   5.758   7.368  0.5859 -0.7809  0.0143
  273MOL0     C35914   6.215   5.706   7.308  0.3651  0.5030 -0.6450
  273MOL0     C35915   6.110   5.651   7.399 -0.1038  0.6017  0.2443
  273MOL0     C35916   6.045   5.753   7.481  0.5961 -0.7861  0.2201
  273MOL0     C35917   5.918   5.749   7.566  0.1412 -0.3594 -0.1911
  273MOL0     C35918   5.905   5.865   7.664 -0.2042 -0.0700 -0.0157
  273MOL0     C35919   5.968   5.999   7.621 -0.8915 -0.3215  0.1237
  273MOL0     C35920   5.926   6.104   7.712  0.3794  0.3100  1.0423
  273MOL0     N35921   5.982   6.083   7.844  0.3097 -0.4263  0.0730
  273MOL0     C35922   5.912   6.038   7.951 -0.6328 -0.0984  0.1656
  273MOL0     C35923   6.010   5.992   8.038  0.3281 -0.0138 -0.2562
  273MOL0     C35924   5.979   5.905   8.159  0.1581  0.5202 -0.3515
  273MOL0     C35925   5.927   5.753   8.122 -0.1912  0.7166 -0.8650
  273MOL0     C35926   5.793   5.714   8.191  0.5852 -0.6207 -0.3343
  273MOL0     C35927   5.671   5.797   8.141 -0.4100 -0.1495  0.8647
  273MOL0     O35928   5.656   5.930   8.196  0.2894  0.3575  0.3287
  273MOL0     C35929   5.574   6.012   8.124  0.5980  0.7491  0.6219
  273MOL0     C35930   5.610   6.137   8.120 -0.0751  0.6981  0.4139
  273MOL0     C35931   5.535   6.225   8.047 -0.4783  0.0536  0.2190
  273MOL0     C35932   5.420   6.184   7.980 -0.6429 -0.1121  0.7896
  273MOL0     C35933   5.346   6.289   7.897 -0.0939  0.5989  0.0745
  273MOL0     O35934   5.397   6.411   7.892  0.0644  0.3305  0.0904
  273MOL0     C35935   5.338   6.516   7.826  1.2673  0.0292 -0.0638
  273MOL0     C35936   5.197   6.534   7.832 -0.2885  0.7710 -0.6346
  273MOL0     C35937   5.140   6.651   7.778  0.1914 -0.6644  1.2643
  273MOL0     C35938   5.220   6.749   7.713  0.6252 -0.1670 -0.1405
  273MOL0     O35939   5.165   6.869   7.655 -0.3620  0.6352 -0.6488
  273MOL0     C35940   5.031   6.905   7.675 -1.0240  0.1713  0.1090
  273MOL0     C35941   4.989   7.016   7.594 -0.2219 -1.4157 -0.2741
  273MOL0     C35942   5.013   6.997   7.446 -0.7190 -0.0650 -0.3429
  273MOL0     C35943   4.893   6.941   7.373 -0.0057  0.9048 -0.4509
  273MOL0     C35944   4.890   6.991   7.228  1.0864 -0.3121  0.7406
  273MOL0     C35945   4.771   6.918   7.159  0.1907  0.2275 -0.1345
  273MOL0     C35946   4.790   6.920   7.003 -0.7788  0.3232  1.0644
  273MOL0     C35947   4.816   6.783   6.956  0.1319  1.0392 -0.5415
  273MOL0    Cl35948   4.977   6.722   7.017 -0.1217  0.2359  0.3165
  273MOL0     C35949   5.362   6.728   7.714  0.8821  0.3923  0.8692
  273MOL0     C35950   5.421   6.619   7.771 -0.5141 -0.7372  0.3346
  273MOL0     O35951   5.252   6.246   7.838 -0.1050  0.4208  0.9616
  273MOL0     C35952   5.374   6.054   7.992  0.1005 -0.4490 -0.3444
  273MOL0     C35953   5.449   5.970   8.075  0.1181  0.1864  0.1187
  273MOL0     N35954   6.132   6.012   7.980 -0.2155 -0.6822 -0.9761
  273MOL0     N35955   6.108   6.061   7.870 -0.0678 -0.4235 -0.0171
  273MOL0     C35956   6.622   5.572   7.526 -0.2334 -0.8342  0.3138
  273MOL0     C35957   6.768   5.575   7.545  0.2430 -0.1298 -0.3656
  273MOL0     C35958   7.194   5.752   7.558  0.5831  0.5353  0.4065
  273MOL0     C35959   7.226   5.717   7.693 -0.9622  0.1254  0.9100
  273MOL0     C35960   7.351   5.685   7.745  0.2007  0.5491 -0.3645
  273MOL0     C35961   7.457   5.715   7.667  0.6309  0.3754  0.0786
  273MOL0     O35962   7.584   5.710   7.715  0.1860  0.8815 -0.0280
  273MOL0     C35963   7.619   5.565   7.739  0.5582 -0.8017  0.2843
  273MOL0     C35964   7.728   5.564   7.842 -0.4494  1.1436 -0.3822
  273MOL0     C35965   7.779   5.422   7.875 -0.3858  0.5613  0.0012
  273MOL0     C35966   7.875   5.427   7.992  0.5573 -0.5925  0.5303
  273MOL0     C35967   7.958   5.307   8.023 -0.0010 -0.7217 -0.0086
  273MOL0     C35968   8.033   5.218   8.050  0.8429 -0.0030 -0.9971
  273MOL0     C35969   7.438   5.756   7.535 -0.0471  0.5316 -0.6723
  273MOL0     C35970   7.308   5.765   7.475 -0.0261  0.3006 -0.4470
  273MOL0     H35971   6.824   5.901   7.469  2.1365 -1.3248 -0.6129
  273MOL0     H35972   6.558   5.880   7.413  1.9756  0.9729  0.3237
  273MOL0     H35973   6.406   5.799   7.286  0.3590  3.5147  1.7531
  273MOL0     H35974   6.319   5.841   7.434 -0.2818 -1.2118  0.2085
  273MOL0     H35975   6.238   5.615   7.253  1.6371  1.0566 -1.0743
  273MOL0     H35976   6.168   5.779   7.242 -3.0645 -1.0325 -0.1275
  273MOL0     H35977   6.148   5.573   7.465 -2.2763 -1.5393 -0.8666
  273MOL0     H35978   6.024   5.617   7.339 -1.5238  3.0046  0.7676
  273MOL0     H35979   6.127   5.791   7.542  0.8705  0.0286 -0.6339
  273MOL0     H35980   6.023   5.826   7.403  1.3934 -0.2661  0.4712
  273MOL0     H35981   5.918   5.654   7.621 -0.5805  0.1943  0.8007
  273MOL0     H35982   5.823   5.745   7.512 -0.5572  0.1415  0.9559
  273MOL0     H35983   5.935   5.829   7.763  3.6376  4.1428  0.7088
  273MOL0     H35984   5.802   5.892   7.690  0.3320  0.1526  1.9917
  273MOL0     H35985   6.076   5.993   7.610 -0.9244  0.2399 -0.6496
  273MOL0     H35986   5.937   6.026   7.519  3.1040 -2.2229 -1.8371
  273MOL0     H35987   5.816   6.107   7.717  0.4336  1.9954  3.8083
  273MOL0     H35988   5.949   6.206   7.679 -1.4711 -0.1747 -2.0661
  273MOL0     H35989   5.804   6.039   7.954 -0.8102  1.3495 -2.9480
  273MOL0     H35990   5.897   5.943   8.221  0.2002 -1.1059  0.7616
  273MOL0     H35991   6.071   5.891   8.215  0.2058 -3.2360 -1.1285
  273MOL0     H35992   6.000   5.698   8.181 -0.8217  2.0273  1.2297
  273MOL0     H35993   5.930   5.727   8.015 -0.3131  0.1255 -0.7250
  273MOL0     H35994   5.771   5.609   8.171 -1.1290 -0.5076  0.7441
  273MOL0     H35995   5.812   5.721   8.298  1.1522  1.1110 -0.5218
  273MOL0     H35996   5.589   5.725   8.145  2.1311 -3.2748  1.3142
  273MOL0     H35997   5.688   5.810   8.033  0.6933 -0.6572  0.9665
  273MOL0     H35998   5.704   6.165   8.167  1.4447 -1.0358 -1.3698
  273MOL0     H35999   5.564   6.329   8.037  1.3969 -0.5896 -2.0348
  273MOL0     H36000   5.128   6.466   7.882 -2.1050  1.8389 -1.5571
  273MOL0     H36001   5.032   6.655   7.789  0.2793  0.1159  1.8841
  273MOL0     H36002   5.010   6.928   7.780  5.4084 -1.2084  2.1139
  273MOL0     H36003   4.973   6.815   7.649  0.4669 -1.6967  2.7891
  273MOL0     H36004   5.059   7.096   7.621 -2.3791  0.7791 -0.8339
  273MOL0     H36005   4.889   7.053   7.616 -0.4978 -0.9981 -2.0989
  273MOL0     H36006   5.092   6.927   7.418 -1.5332 -0.5174 -1.5887
  273MOL0     H36007   5.055   7.085   7.396  4.0874  2.0403  5.9487
  273MOL0     H36008   4.913   6.834   7.373  0.3038  0.9584 -0.8771
  273MOL0     H36009   4.805   6.974   7.430 -0.1872 -1.0724  0.4792
  273MOL0     H36010   4.982   6.958   7.179 -0.0874  0.6726 -2.3931
  273MOL0     H36011   4.869   7.098   7.236 -0.2627 -0.4615 -0.3629
  273MOL0     H36012   4.679   6.955   7.206  0.3439  0.0146  0.3389
  273MOL0     H36013   4.768   6.812   7.186  1.0614  0.3287  0.3808
  273MOL0     H36014   4.700   6.957   6.953 -1.0463  1.4184  2.3187
  273MOL0     H36015   4.873   6.985   6.972 -2.0293  0.4055 -2.6139
  273MOL0     H36016   4.827   6.775   6.847  2.9686 -0.3448 -0.2369
  273MOL0     H36017   4.736   6.714   6.984  2.8397 -1.3975  1.7895
  273MOL0     H36018   5.424   6.802   7.663 -0.2756 -0.0328 -1.2693
  273MOL0     H36019   5.528   6.600   7.768 -0.1048  1.2976  0.0373
  273MOL0     H36020   5.283   6.017   7.946  0.1618 -4.0632  2.0350
  273MOL0     H36021   5.415   5.867   8.084 -2.9855  1.2290  2.0114
  273MOL0     H36022   6.570   5.481   7.553  0.4581 -1.2106  0.4016
  273MOL0     H36023   6.827   5.489   7.578  2.4688  1.0018 -1.1512
  273MOL0     H36024   7.133   5.693   7.743 -1.0496  2.4835  2.0349
  273MOL0     H36025   7.345   5.662   7.851 -1.3867  1.2679 -0.2631
  273MOL0     H36026   7.668   5.528   7.648 -1.6189 -0.7499 -0.9848
  273MOL0     H36027   7.543   5.494   7.772  1.3364 -1.5818  0.4509
  273MOL0     H36028   7.806   5.632   7.808 -0.1784  1.0425  0.0236
  273MOL0     H36029   7.685   5.600   7.936 -1.1006  1.4325 -0.7865
  273MOL0     H36030   7.833   5.377   7.791  4.7788  2.3313  1.9541
  273MOL0     H36031   7.696   5.355   7.897  0.0589  0.5092  1.6398
  273MOL0     H36032   7.943   5.511   7.976  0.9032 -0.0336  4.2078
  273MOL0     H36033   7.817   5.458   8.079 -0.0438  2.2120 -0.7778
  273MOL0     H36034   8.107   5.141   8.065  1.8532  1.1402  0.0631
  273MOL0     H36035   7.525   5.769   7.471  1.3570 -0.1253  1.0250
  273MOL0     H36036   7.298   5.793   7.371 -1.9386  0.8614 -0.1682
  274MOL0     O36037   0.545   3.422   5.704 -0.0077 -0.9179  0.1646
  274MOL0     C36038   0.471   3.326   5.705  0.5649 -0.3166 -0.4773
  274MOL0     O36039   0.513   3.194   5.697  0.0009 -0.2562 -0.3777
  274MOL0     C36040   0.647   3.165   5.681 -0.2181 -1.6459  1.2635
  274MOL0     C36041   0.676   3.041   5.730  1.3630  0.3629  0.5534
  274MOL0     C36042   0.803   2.991   5.717  0.5353 -0.6817  0.0899
  274MOL0     C36043   0.904   3.064   5.653  0.0576  0.2270  0.1589
  274MOL0     O36044   1.025   3.016   5.619  0.1625 -0.7882  0.5379
  274MOL0     C36045   1.050   2.887   5.648 -0.3956 -0.6352 -1.0404
  274MOL0     C36046   1.186   2.856   5.574  0.2791  1.1290 -1.0666
  274MOL0     C36047   1.301   2.940   5.633  1.3067 -0.5558 -0.5391
  274MOL0     C36048   1.418   2.924   5.536  0.2444  0.8631  0.6387
  274MOL0     C36049   1.533   3.000   5.594  0.1038  0.2790  0.2687
  274MOL0     C36050   1.631   3.032   5.483 -0.1627 -0.2853  0.0875
  274MOL0     C36051   1.694   2.909   5.418  0.3993  0.1445  1.2213
  274MOL0     C36052   1.819   2.857   5.493  0.3504  0.6571  0.0136
  274MOL0     N36053   1.784   2.799   5.620  0.1266 -0.0027 -0.0524
  274MOL0     C36054   1.690   2.702   5.644  0.5252 -0.4929 -1.0906
  274MOL0     C36055   1.676   2.698   5.779  0.6353 -0.4207 -0.4045
  274MOL0     C36056   1.581   2.596   5.843 -0.5745 -0.5216  0.6020
  274MOL0     C36057   1.455   2.647   5.913  0.4580  0.4957  0.0224
  274MOL0     C36058   1.387   2.528   5.987  0.6881  0.3116 -0.1213
  274MOL0     C36059   1.252   2.582   6.025  0.1371  0.4645  0.6395
  274MOL0     O36060   1.161   2.588   5.911  0.6386  0.1311 -0.1206
  274MOL0     C36061   1.032   2.627   5.937  0.4167 -0.0844  0.2425
  274MOL0     C36062   0.937   2.599   5.832 -0.4517 -0.5795  0.0509
  274MOL0     C36063   0.803   2.629   5.851 -1.2659  0.1693  0.6682
  274MOL0     C36064   0.752   2.705   5.949  0.6021 -1.3917  0.2105
  274MOL0     C36065   0.610   2.755   5.967 -0.1496 -0.6721 -0.8907
  274MOL0     O36066   0.533   2.732   5.858  0.2724 -0.6633 -0.2333
  274MOL0     C36067   0.399   2.777   5.861  0.0315 -0.5122  0.1749
  274MOL0     C36068   0.316   2.781   5.975  0.3695  0.5576  0.1104
  274MOL0     C36069   0.183   2.826   5.961  0.0592  0.1651 -0.8273
  274MOL0     C36070   0.121   2.858   5.841 -0.2253 -0.2405  0.9174
  274MOL0     O36071  -0.008   2.907   5.833  0.6599 -0.0832  0.7385
  274MOL0     C36072  -0.083   2.945   5.947 -0.6189  0.2708 -0.7177
  274MOL0     C36073  -0.217   2.967   5.900  0.4140 -0.0514  0.2218
  274MOL0     C36074  -0.312   2.971   6.017 -0.0347 -0.1353  0.1439
  274MOL0     C36075  -0.459   2.943   5.970 -0.0270 -0.0641  0.0536
  274MOL0     C36076  -0.551   2.926   6.088 -1.0064 -0.7669  0.7669
  274MOL0     C36077  -0.694   2.901   6.034  0.4880 -0.4206 -0.2389
  274MOL0     C36078  -0.811   2.939   6.136  0.4362 -0.1549  1.1448
  274MOL0     C36079  -0.804   2.852   6.255  0.5944  0.0364 -0.2224
  274MOL0    Cl36080  -0.870   2.942   6.398 -0.1218  0.0907  0.0999
  274MOL0     C36081   0.210   2.865   5.735 -0.1744  0.4203 -0.4081
  274MOL0     C36082   0.342   2.818   5.737  1.1479 -0.0992  0.4321
  274MOL0     O36083   0.584   2.809   6.073  0.1628 -0.1380 -0.0021
  274MOL0     C36084   0.834   2.730   6.054 -0.3567  0.4361  0.1458
  274MOL0     C36085   0.972   2.697   6.042  0.1229  0.5213  0.0543
  274MOL0     N36086   1.755   2.792   5.841  0.1462 -0.4602  1.0227
  274MOL0     N36087   1.820   2.847   5.744 -0.0231 -0.1828  0.7516
  274MOL0     C36088   0.877   3.195   5.612 -0.2627 -0.0636 -0.2172
  274MOL0     C36089   0.755   3.252   5.633  0.2611  0.6536 -0.6066
  274MOL0     C36090   0.330   3.345   5.738 -0.1630  0.1650  0.2356
  274MOL0     C36091   0.240   3.236   5.753  0.3575  0.0757 -0.8494
  274MOL0     C36092   0.104   3.256   5.785  0.7932 -0.3316 -0.5043
  274MOL0     C36093   0.056   3.387   5.803  0.0422 -0.6738  0.5046
  274MOL0     O36094  -0.077   3.421   5.819  0.4806  0.0985 -0.3429
  274MOL0     C36095  -0.162   3.339   5.906 -0.3135  0.1394 -0.3978
  274MOL0     C36096  -0.220   3.430   6.011 -0.7499  0.7501  1.1169
  274MOL0     C36097  -0.123   3.470   6.132 -0.3150  0.3127  1.0906
  274MOL0     C36098  -0.074   3.343   6.199  0.4942 -0.2700 -0.8699
  274MOL0     C36099  -0.192   3.271   6.264 -1.0292 -0.9275 -0.5567
  274MOL0     C36100  -0.293   3.217   6.311 -0.6987  0.2962 -0.1335
  274MOL0     C36101   0.141   3.490   5.785  0.0141 -0.0882 -0.2479
  274MOL0     C36102   0.278   3.473   5.762  0.1354  1.1118  0.4128
  274MOL0     H36103   0.612   2.976   5.789  3.6264 -4.3223 -1.6280
  274MOL0     H36104   0.815   2.891   5.757  1.1166 -2.0609 -3.1903
  274MOL0     H36105   0.969   2.823   5.611  0.1400 -3.0787  1.6266
  274MOL0     H36106   1.051   2.881   5.757 -1.5548  0.3616 -0.9510
  274MOL0     H36107   1.177   2.861   5.465  0.8071 -2.4959 -1.3869
  274MOL0     H36108   1.211   2.751   5.591 -0.8931  1.2871  2.1711
  274MOL0     H36109   1.320   2.912   5.737 -3.4390 -0.0933  0.6632
  274MOL0     H36110   1.283   3.048   5.646 -3.6325 -1.1499 -0.6399
  274MOL0     H36111   1.439   2.817   5.528  0.0455  0.8980 -0.4879
  274MOL0     H36112   1.393   2.953   5.433 -4.9338 -1.8059  0.8462
  274MOL0     H36113   1.576   2.953   5.683 -2.9356  0.3922  1.9312
  274MOL0     H36114   1.507   3.100   5.628  1.3220  1.2145 -1.4158
  274MOL0     H36115   1.712   3.085   5.534 -0.6624 -1.6157  2.4210
  274MOL0     H36116   1.582   3.100   5.414 -1.7971 -0.9693  0.5244
  274MOL0     H36117   1.635   2.820   5.395 -0.1043  1.1646 -2.0470
  274MOL0     H36118   1.730   2.933   5.317 -0.1344 -1.5320  0.6045
  274MOL0     H36119   1.888   2.941   5.507  0.8487  0.7250 -2.4290
  274MOL0     H36120   1.877   2.794   5.424 -1.8742  0.8886 -2.1867
  274MOL0     H36121   1.642   2.631   5.578 -1.1989  0.9917 -1.5213
  274MOL0     H36122   1.636   2.551   5.927 -0.6339  2.0195  2.1131
  274MOL0     H36123   1.561   2.519   5.768  1.7459  1.9019 -2.7926
  274MOL0     H36124   1.393   2.699   5.839  2.1942  0.8466 -1.2603
  274MOL0     H36125   1.477   2.722   5.989  0.8274  0.7589 -0.3362
  274MOL0     H36126   1.355   2.449   5.918 -1.3591 -0.1673  1.2667
  274MOL0     H36127   1.431   2.493   6.081 -3.2759  0.9250  2.2399
  274MOL0     H36128   1.257   2.681   6.073  0.1726  0.5690  0.4203
  274MOL0     H36129   1.216   2.520   6.108 -3.4547  1.4918  0.0245
  274MOL0     H36130   0.967   2.553   5.738 -0.0191 -0.4175  0.1059
  274MOL0     H36131   0.728   2.603   5.777  0.5458 -1.5761 -0.6536
  274MOL0     H36132   0.343   2.746   6.073 -2.4300 -4.5299 -0.5847
  274MOL0     H36133   0.138   2.812   6.059  1.6068 -2.0217 -0.3392
  274MOL0     H36134  -0.047   3.033   6.000 -3.2177  0.2570  1.2890
  274MOL0     H36135  -0.084   2.860   6.017  0.1767  0.6231 -0.2663
  274MOL0     H36136  -0.244   2.893   5.824 -1.7832  1.8624 -0.9744
  274MOL0     H36137  -0.226   3.055   5.836 -4.6098 -2.0506 -2.3357
  274MOL0     H36138  -0.295   3.070   6.061  0.6986  0.4001 -1.2936
  274MOL0     H36139  -0.284   2.895   6.090 -0.3397  0.6735  1.1402
  274MOL0     H36140  -0.484   3.027   5.903  1.9144  0.8293  0.3927
  274MOL0     H36141  -0.461   2.856   5.903 -0.1325 -0.0503  0.0384
  274MOL0     H36142  -0.551   3.017   6.149  1.8365  3.2919 -4.4455
  274MOL0     H36143  -0.515   2.846   6.154 -2.0958  0.3003  2.7477
  274MOL0     H36144  -0.701   2.797   6.001 -1.5734 -0.3299 -0.2111
  274MOL0     H36145  -0.707   2.964   5.946 -0.9170  1.5966  1.3192
  274MOL0     H36146  -0.802   3.045   6.163 -2.5693 -0.1117  2.3281
  274MOL0     H36147  -0.910   2.945   6.091 -1.0186  1.7400  4.2305
  274MOL0     H36148  -0.707   2.814   6.288  0.6838  0.1801 -0.3193
  274MOL0     H36149  -0.875   2.770   6.241  0.3360 -0.0217  1.1915
  274MOL0     H36150   0.164   2.893   5.641 -0.3345 -1.8945 -1.0646
  274MOL0     H36151   0.397   2.812   5.644 -0.2229  1.6297 -0.5441
  274MOL0     H36152   0.802   2.782   6.143 -0.0808 -0.2509  0.6572
  274MOL0     H36153   1.036   2.730   6.123 -0.7847 -0.1117  1.0605
  274MOL0     H36154   0.946   3.260   5.559 -1.9204  1.2702 -0.8464
  274MOL0     H36155   0.745   3.356   5.606  0.5791  0.0546 -3.3327
  274MOL0     H36156   0.276   3.134   5.744  2.4993  0.6485  0.4903
  274MOL0     H36157   0.033   3.174   5.787 -1.0833  1.2410 -0.0583
  274MOL0     H36158  -0.107   3.252   5.944  1.5091 -0.1297 -3.3454
  274MOL0     H36159  -0.251   3.313   5.849 -1.6859  2.0851  0.7387
  274MOL0     H36160  -0.251   3.518   5.954 -1.7156  0.5182  1.2634
  274MOL0     H36161  -0.307   3.373   6.045  0.3942 -1.7061  0.1437
  274MOL0     H36162  -0.190   3.521   6.203 -1.3330  0.0431  0.3498
  274MOL0     H36163  -0.033   3.528   6.113  0.5142 -1.1410  0.4111
  274MOL0     H36164  -0.017   3.270   6.142  0.1646 -0.3959 -1.0444
  274MOL0     H36165   0.000   3.368   6.275 -1.0370  2.0126 -0.0187
  274MOL0     H36166  -0.377   3.153   6.332  0.4709 -1.1484  0.3170
  274MOL0     H36167   0.107   3.587   5.818 -1.8209 -0.0899 -1.9518
  274MOL0     H36168   0.342   3.559   5.742  0.5987  0.2531 -2.1590
  275MOL0     O36169   5.802   6.424   6.059  0.2179 -0.4016 -0.6271
  275MOL0     C36170   5.736   6.329   6.112  0.0093 -0.7721 -0.1623
  275MOL0     O36171   5.755   6.194   6.097  0.0857 -0.4879  0.0251
  275MOL0     C36172   5.867   6.145   6.029 -0.2021  0.2064  0.6777
  275MOL0     C36173   5.912   6.195   5.908  0.9675  0.6460  0.6790
  275MOL0     C36174   5.993   6.111   5.829 -0.2593  0.3764 -0.8417
  275MOL0     C36175   6.053   5.992   5.880  0.1943 -0.9311  0.0408
  275MOL0     O36176   6.129   5.918   5.790  0.0430 -0.2617 -0.5472
  275MOL0     C36177   6.187   5.788   5.833 -1.0113  0.4394  0.2822
  275MOL0     C36178   6.096   5.670   5.813 -0.2662  0.3504 -0.7186
  275MOL0     C36179   6.016   5.672   5.679 -0.5313 -0.4304 -0.0566
  275MOL0     C36180   5.932   5.549   5.658 -1.0448  0.4786  0.0316
  275MOL0     C36181   5.890   5.568   5.518 -1.3952  0.1045  0.1792
  275MOL0     C36182   5.779   5.464   5.480  0.7401  0.5596  1.1217
  275MOL0     C36183   5.749   5.465   5.328 -0.1121 -0.5719  0.1959
  275MOL0     C36184   5.672   5.593   5.299  0.5467 -0.0148 -0.4392
  275MOL0     N36185   5.551   5.597   5.375 -0.9210 -0.3442  1.0339
  275MOL0     C36186   5.447   5.510   5.361 -0.9740 -0.1360  1.0277
  275MOL0     C36187   5.344   5.568   5.425  0.2342 -0.2263 -0.4823
  275MOL0     C36188   5.208   5.516   5.435 -0.3681 -0.3721 -0.2680
  275MOL0     C36189   5.117   5.591   5.330  0.5791 -0.8129 -0.2698
  275MOL0     C36190   5.043   5.715   5.391 -0.4394  0.9535 -0.0881
  275MOL0     C36191   4.935   5.767   5.303 -0.5014 -0.9855 -0.6387
  275MOL0     O36192   4.881   5.888   5.365 -0.3809  0.2014 -0.0248
  275MOL0     C36193   4.754   5.930   5.329 -0.9067  0.7393  0.8106
  275MOL0     C36194   4.669   5.874   5.232 -0.1492  0.5480  0.4574
  275MOL0     C36195   4.552   5.931   5.189  0.4924 -0.5539  0.0643
  275MOL0     C36196   4.495   6.048   5.251 -0.4397  0.0241 -0.1087
  275MOL0     C36197   4.372   6.116   5.198  0.5079  0.9306 -1.0997
  275MOL0     O36198   4.366   6.247   5.231  1.0120  0.3138  0.0280
  275MOL0     C36199   4.278   6.323   5.163 -0.4335  0.0633 -0.0379
  275MOL0     C36200   4.234   6.301   5.031 -0.2239  0.3137 -0.3380
  275MOL0     C36201   4.149   6.393   4.960 -1.0781  0.1939 -0.2049
  275MOL0     C36202   4.093   6.500   5.038 -0.3329 -0.4191  0.9265
  275MOL0     O36203   4.000   6.590   4.986  0.0340 -0.0605 -0.1509
  275MOL0     C36204   4.011   6.636   4.849 -0.0119  0.3923 -0.0396
  275MOL0     C36205   3.882   6.594   4.781 -0.4998 -0.5283 -0.6037
  275MOL0     C36206   3.876   6.612   4.630 -0.0882  0.7341 -0.3712
  275MOL0     C36207   3.880   6.766   4.590  0.9387 -0.1512 -0.3747
  275MOL0     C36208   3.855   6.782   4.436 -0.7515  0.6994 -0.3323
  275MOL0     C36209   3.962   6.728   4.353 -0.5344 -0.6634  0.4451
  275MOL0     C36210   3.925   6.732   4.200 -0.6647  0.0511 -0.0606
  275MOL0     C36211   3.882   6.588   4.163  0.7195  0.6637  0.5082
  275MOL0    Cl36212   4.011   6.470   4.206  0.0215  0.2378  0.2628
  275MOL0     C36213   4.141   6.531   5.169  0.6185  1.0747  0.3396
  275MOL0     C36214   4.235   6.436   5.233  0.6482  0.0941  1.0223
  275MOL0     O36215   4.293   6.044   5.138  0.1837  0.0622 -0.0568
  275MOL0     C36216   4.571   6.097   5.358 -1.1561 -0.1975 -0.6352
  275MOL0     C36217   4.706   6.043   5.389  0.7642 -0.4645  0.0768
  275MOL0     N36218   5.394   5.668   5.512  0.5281 -0.7083 -0.5430
  275MOL0     N36219   5.519   5.688   5.472 -0.2424 -0.3005 -0.4245
  275MOL0     C36220   6.022   5.960   6.012 -0.9700 -0.0954  0.0060
  275MOL0     C36221   5.920   6.026   6.077 -0.2121 -0.3524  0.1552
  275MOL0     C36222   5.631   6.371   6.209  0.4386  0.0219  0.7661
  275MOL0     C36223   5.582   6.508   6.200  0.0233 -1.0572 -1.4859
  275MOL0     C36224   5.476   6.556   6.285 -0.3683  0.8783 -0.2683
  275MOL0     C36225   5.422   6.474   6.387 -0.4144 -0.2252 -0.1637
  275MOL0     O36226   5.314   6.521   6.461 -0.1362 -0.6877 -0.6449
  275MOL0     C36227   5.266   6.444   6.576  0.0528  0.9208  0.7115
  275MOL0     C36228   5.161   6.517   6.665 -0.5559  0.5163  0.6979
  275MOL0     C36229   5.021   6.532   6.602 -0.6462 -0.2717 -0.3587
  275MOL0     C36230   4.927   6.624   6.683 -0.3677  0.3069 -0.4375
  275MOL0     C36231   4.801   6.608   6.617 -1.1352 -0.3898  0.6217
  275MOL0     C36232   4.692   6.603   6.560 -0.0483  0.2738 -0.3771
  275MOL0     C36233   5.486   6.352   6.408 -0.3235  0.3761  0.1933
  275MOL0     C36234   5.576   6.290   6.317 -0.4724 -0.8914 -0.5127
  275MOL0     H36235   5.877   6.295   5.885  0.6864  0.6498  1.1154
  275MOL0     H36236   6.027   6.136   5.729 -0.0974  2.3481 -0.3322
  275MOL0     H36237   6.228   5.799   5.934  1.6613 -1.6589 -0.4759
  275MOL0     H36238   6.280   5.773   5.778 -0.9595  2.3860 -0.2317
  275MOL0     H36239   6.027   5.677   5.898  0.1856  2.5929 -0.4643
  275MOL0     H36240   6.153   5.577   5.816  1.1227  1.1127 -2.1970
  275MOL0     H36241   6.090   5.679   5.599  0.6438  1.5870  1.1541
  275MOL0     H36242   5.955   5.762   5.686 -1.9353 -1.4860  2.5895
  275MOL0     H36243   5.999   5.465   5.674  0.8408  1.9025 -0.0209
  275MOL0     H36244   5.851   5.546   5.731 -2.0840  2.0250 -0.9835
  275MOL0     H36245   5.976   5.549   5.454 -2.2260 -2.6489 -0.2669
  275MOL0     H36246   5.862   5.673   5.506 -1.3238 -0.0937 -2.4576
  275MOL0     H36247   5.700   5.469   5.555 -0.8440  0.2073 -0.4527
  275MOL0     H36248   5.829   5.367   5.493 -2.1147 -1.3793 -1.1231
  275MOL0     H36249   5.844   5.451   5.276 -1.3313 -1.9963 -1.7790
  275MOL0     H36250   5.697   5.376   5.292 -1.0606  0.3089 -0.6931
  275MOL0     H36251   5.644   5.616   5.196 -0.0755 -0.5027 -0.3813
  275MOL0     H36252   5.730   5.683   5.320 -1.9266  1.7504 -0.8455
  275MOL0     H36253   5.441   5.429   5.289  0.9919  0.4886  0.1004
  275MOL0     H36254   5.163   5.532   5.533  1.1597 -3.0406  0.9521
  275MOL0     H36255   5.201   5.408   5.419  0.1880 -0.0432 -3.4789
  275MOL0     H36256   5.046   5.514   5.298 -1.4660  0.1396  1.6956
  275MOL0     H36257   5.176   5.620   5.243 -1.9552  2.0522 -1.2291
  275MOL0     H36258   5.004   5.694   5.491  0.0791  0.7490  0.0745
  275MOL0     H36259   5.117   5.795   5.402 -1.9557  2.0600  3.8960
  275MOL0     H36260   4.848   5.700   5.303 -3.1245  1.9693  2.4478
  275MOL0     H36261   4.970   5.788   5.202  3.5197 -2.3914  0.2969
  275MOL0     H36262   4.701   5.782   5.184  2.3946  1.2705  0.6093
  275MOL0     H36263   4.491   5.898   5.105 -1.5976  0.2329  1.1974
  275MOL0     H36264   4.260   6.210   4.978  2.1331 -0.1393  1.4058
  275MOL0     H36265   4.105   6.376   4.863  0.4904 -0.7070 -0.7873
  275MOL0     H36266   4.106   6.606   4.803  0.2307  0.3569  0.4802
  275MOL0     H36267   4.031   6.743   4.841  5.3737 -0.1447  1.8966
  275MOL0     H36268   3.803   6.654   4.828  1.6321  1.2783  0.8672
  275MOL0     H36269   3.851   6.492   4.806 -1.6047  0.3669  2.0677
  275MOL0     H36270   3.782   6.576   4.588 -0.3401  2.0114 -0.9291
  275MOL0     H36271   3.954   6.542   4.597  1.3081 -0.5901  4.7972
  275MOL0     H36272   3.796   6.810   4.644  0.9005 -0.0327 -0.5296
  275MOL0     H36273   3.980   6.808   4.607 -0.1956  1.4428  3.2190
  275MOL0     H36274   3.848   6.889   4.420  1.8803  1.1534  0.9917
  275MOL0     H36275   3.758   6.743   4.403 -0.0408 -1.1627 -0.3376
  275MOL0     H36276   3.991   6.628   4.388  0.7408  0.0185  1.4328
  275MOL0     H36277   4.039   6.803   4.375 -2.6823  2.2601 -1.2978
  275MOL0     H36278   3.844   6.796   4.165  1.2838  0.5940 -4.0988
  275MOL0     H36279   4.015   6.763   4.147 -0.2670  3.3369  2.2089
  275MOL0     H36280   3.866   6.573   4.056  0.8088 -2.0728  0.8096
  275MOL0     H36281   3.796   6.577   4.230  0.9826  0.4030  0.8104
  275MOL0     H36282   4.086   6.607   5.222 -1.4327 -1.2955  1.7866
  275MOL0     H36283   4.267   6.456   5.335 -0.5540  1.6766  1.1179
  275MOL0     H36284   4.547   6.180   5.423  2.3519  1.2114 -0.9104
  275MOL0     H36285   4.763   6.098   5.462  1.2892  1.4409 -1.6545
  275MOL0     H36286   6.066   5.874   6.062  1.2081 -0.8916 -2.9779
  275MOL0     H36287   5.899   5.978   6.173  0.4732  0.6975  0.8509
  275MOL0     H36288   5.614   6.578   6.124  1.6982  1.8328  1.6123
  275MOL0     H36289   5.435   6.648   6.244 -3.9152 -0.7578 -0.7827
  275MOL0     H36290   5.336   6.414   6.654 -0.4226  0.5576  1.0063
  275MOL0     H36291   5.235   6.351   6.527  3.2395  1.7282 -3.2996
  275MOL0     H36292   5.148   6.458   6.757 -0.5587 -2.5606 -1.1385
  275MOL0     H36293   5.200   6.616   6.686  0.7109  0.7334 -2.2771
  275MOL0     H36294   4.983   6.430   6.605 -0.5536 -0.3520 -1.5313
  275MOL0     H36295   5.036   6.565   6.499 -0.3274 -1.2094 -0.6196
  275MOL0     H36296   4.918   6.591   6.787 -1.6094 -0.3654 -0.7306
  275MOL0     H36297   4.960   6.727   6.689 -2.5510  0.9975  0.9250
  275MOL0     H36298   4.604   6.609   6.499 -0.3521  2.9336  0.2287
  275MOL0     H36299   5.459   6.276   6.480 -1.2096 -0.2950 -0.8162
  275MOL0     H36300   5.617   6.192   6.333  1.5116 -0.7542 -3.8091
  276MOL0     O36301   7.279   0.446   6.045 -0.3157 -0.1917  0.3583
  276MOL0     C36302   7.364   0.388   5.973  0.1975 -0.5885 -0.0329
  276MOL0     O36303   7.335   0.300   5.872  1.1369 -0.4032 -0.5542
  276MOL0     C36304   7.206   0.256   5.879  0.6540  0.2880  1.0814
  276MOL0     C36305   7.154   0.164   5.977 -0.3082 -0.8925  0.1352
  276MOL0     C36306   7.021   0.131   5.970  0.5783  0.5042 -0.4317
  276MOL0     C36307   6.933   0.179   5.869 -0.4285 -0.5575 -0.2398
  276MOL0     O36308   6.804   0.132   5.874 -0.4315  0.1170 -0.2485
  276MOL0     C36309   6.700   0.207   5.821 -0.1623  0.6318 -0.2867
  276MOL0     C36310   6.621   0.127   5.719  0.7900 -0.0067 -0.2627
  276MOL0     C36311   6.505   0.214   5.659 -0.8248 -0.0313 -0.5544
  276MOL0     C36312   6.481   0.163   5.519  0.7720 -0.4502  0.5787
  276MOL0     C36313   6.359   0.237   5.464  0.1198  0.3252  0.6714
  276MOL0     C36314   6.226   0.185   5.509  0.5262  0.1379 -0.5902
  276MOL0     C36315   6.115   0.278   5.462 -0.1818 -0.1493 -0.2725
  276MOL0     C36316   6.096   0.261   5.306 -0.0181  0.1625 -0.4291
  276MOL0     N36317   6.012   0.145   5.282 -0.7025 -0.3867  0.1082
  276MOL0     C36318   5.900   0.153   5.200  0.3556  0.6835 -0.8105
  276MOL0     C36319   5.891   0.028   5.147 -1.1436  0.8136 -1.6056
  276MOL0     C36320   5.778  -0.027   5.069 -0.5749 -0.2145  0.2979
  276MOL0     C36321   5.821  -0.061   4.922 -0.0792  1.1151 -0.1925
  276MOL0     C36322   5.811   0.053   4.822 -0.2996 -0.7136 -0.4825
  276MOL0     C36323   5.902   0.039   4.698 -0.0878  0.2257  0.3705
  276MOL0     O36324   5.858  -0.078   4.633  0.8086  1.0058  0.6578
  276MOL0     C36325   5.736  -0.070   4.566  1.1757  0.0473 -0.4382
  276MOL0     C36326   5.673  -0.189   4.519  0.4579  0.2601  0.5184
  276MOL0     C36327   5.540  -0.197   4.471 -0.1482  0.1795  0.5723
  276MOL0     C36328   5.447  -0.094   4.483  0.1456  0.1731 -0.2064
  276MOL0     C36329   5.305  -0.113   4.446 -0.5117 -0.3710  0.0966
  276MOL0     O36330   5.281  -0.228   4.381  0.1316 -0.4852  0.3503
  276MOL0     C36331   5.148  -0.271   4.363 -0.3317 -0.2131 -0.2850
  276MOL0     C36332   5.080  -0.246   4.242  0.1084  0.9539  0.2475
  276MOL0     C36333   4.948  -0.266   4.236  0.0215 -0.5396  0.6984
  276MOL0     C36334   4.879  -0.311   4.340 -0.5791 -0.4878 -1.0217
  276MOL0     O36335   4.739  -0.313   4.350 -0.1300  0.0894  0.1317
  276MOL0     C36336   4.655  -0.285   4.241  0.2163  1.0067  0.5504
  276MOL0     C36337   4.619  -0.405   4.155  0.3071 -0.4275 -0.0406
  276MOL0     C36338   4.496  -0.370   4.063  0.4333 -0.6380 -0.5161
  276MOL0     C36339   4.456  -0.504   4.009  0.4703  0.9675  1.1745
  276MOL0     C36340   4.377  -0.483   3.878 -0.2283  0.7935  0.0480
  276MOL0     C36341   4.292  -0.603   3.849  0.2787 -0.5221 -0.1226
  276MOL0     C36342   4.223  -0.582   3.710  0.1128 -1.3077  0.4469
  276MOL0     C36343   4.294  -0.648   3.589 -0.3624 -0.4582 -0.1153
  276MOL0    Cl36344   4.472  -0.659   3.610 -0.2614 -0.0463 -0.0636
  276MOL0     C36345   4.949  -0.345   4.455  0.4469  0.0997  0.1749
  276MOL0     C36346   5.082  -0.326   4.471 -0.5401 -0.1865 -0.6916
  276MOL0     O36347   5.227  -0.036   4.503  0.1541 -0.4350  1.0448
  276MOL0     C36348   5.506   0.026   4.533  0.0453 -0.4733  1.4054
  276MOL0     C36349   5.643   0.040   4.555  0.1328 -0.2743  0.2826
  276MOL0     N36350   5.996  -0.055   5.192  0.0575 -0.3706  0.0977
  276MOL0     N36351   6.063   0.021   5.270  0.3859  0.7169 -0.5042
  276MOL0     C36352   6.978   0.275   5.781 -0.2760 -0.1940  0.7797
  276MOL0     C36353   7.115   0.314   5.793  0.4184  0.0054  0.9680
  276MOL0     C36354   7.503   0.442   5.995 -0.5319 -0.4520  0.1525
  276MOL0     C36355   7.601   0.398   5.907 -0.8658  0.3715 -0.4546
  276MOL0     C36356   7.732   0.456   5.920  0.0446 -0.1945 -0.1369
  276MOL0     C36357   7.769   0.538   6.027  0.4547 -0.1282  0.3053
  276MOL0     O36358   7.905   0.553   6.038 -0.0340  0.0009 -0.5852
  276MOL0     C36359   7.945   0.630   6.150  0.5167 -0.0224 -0.0085
  276MOL0     C36360   8.086   0.680   6.121 -0.0616 -0.3561 -0.1662
  276MOL0     C36361   8.196   0.574   6.146  0.6275 -1.0484 -0.7556
  276MOL0     C36362   8.204   0.472   6.034  0.0544 -0.3494 -0.2741
  276MOL0     C36363   8.313   0.373   6.042  0.7773  0.3957 -0.4708
  276MOL0     C36364   8.399   0.290   6.056 -0.2978 -0.1072  0.2599
  276MOL0     C36365   7.672   0.572   6.115  1.1215  0.1847 -0.3096
  276MOL0     C36366   7.539   0.534   6.088 -0.2118  0.3456 -0.1238
  276MOL0     H36367   7.227   0.132   6.051  2.6649  0.1091 -2.1612
  276MOL0     H36368   6.982   0.055   6.038  3.0024 -0.4065  0.0335
  276MOL0     H36369   6.725   0.304   5.775  0.3769 -0.3785 -2.2236
  276MOL0     H36370   6.632   0.231   5.904  0.2020 -0.0800  0.2324
  276MOL0     H36371   6.564   0.049   5.771  0.6084 -0.6082 -1.3534
  276MOL0     H36372   6.688   0.076   5.649  1.2547  0.3246 -0.0670
  276MOL0     H36373   6.532   0.319   5.671  2.0014 -0.6479 -0.7423
  276MOL0     H36374   6.405   0.203   5.700 -2.0035  1.6229 -2.7947
  276MOL0     H36375   6.562   0.182   5.448 -0.6966 -0.4844 -1.1742
  276MOL0     H36376   6.469   0.055   5.514  0.4455 -0.3494 -2.0532
  276MOL0     H36377   6.363   0.233   5.355  0.5184 -1.2231  0.7212
  276MOL0     H36378   6.374   0.339   5.501  3.2325  0.1468  0.1477
  276MOL0     H36379   6.213   0.171   5.617  1.2995  0.5949 -0.4312
  276MOL0     H36380   6.222   0.090   5.457  2.5623 -0.0209 -0.5366
  276MOL0     H36381   6.016   0.245   5.495 -0.6660 -0.2025 -1.7092
  276MOL0     H36382   6.150   0.376   5.497  1.6304 -1.7986  3.0659
  276MOL0     H36383   6.192   0.248   5.255 -0.3356  0.7212 -1.1793
  276MOL0     H36384   6.044   0.351   5.273  1.4359  1.3300  0.3290
  276MOL0     H36385   5.835   0.237   5.183  2.4309  2.2027 -1.7430
  276MOL0     H36386   5.702   0.051   5.060 -1.3765 -1.1331 -1.5053
  276MOL0     H36387   5.732  -0.116   5.112 -1.2915 -1.1059 -2.1421
  276MOL0     H36388   5.753  -0.141   4.891  0.0946  1.1571 -0.6844
  276MOL0     H36389   5.922  -0.105   4.924 -1.4215 -2.2998  1.2737
  276MOL0     H36390   5.707   0.077   4.800  0.0114  1.8173  0.4577
  276MOL0     H36391   5.843   0.143   4.876  0.2519 -0.8526 -0.5732
  276MOL0     H36392   6.008   0.032   4.722  0.5243  0.1662 -2.0833
  276MOL0     H36393   5.900   0.128   4.634  1.8397  1.4954  1.9727
  276MOL0     H36394   5.738  -0.276   4.528  2.2138  1.5093  0.4555
  276MOL0     H36395   5.528  -0.301   4.444 -0.8153 -0.3665  2.7837
  276MOL0     H36396   5.136  -0.219   4.153 -0.0973 -0.7562 -0.4265
  276MOL0     H36397   4.909  -0.224   4.143  1.8096 -0.6063 -0.1278
  276MOL0     H36398   4.697  -0.206   4.179  0.3318  1.3578  1.0676
  276MOL0     H36399   4.573  -0.223   4.280  0.8478  1.2253  1.5798
  276MOL0     H36400   4.598  -0.491   4.219  1.3418 -0.5671  0.1261
  276MOL0     H36401   4.704  -0.436   4.094  2.5364  1.5236  1.8844
  276MOL0     H36402   4.530  -0.301   3.986  1.3386 -1.4527 -0.8554
  276MOL0     H36403   4.408  -0.319   4.104  0.3467  2.6926 -4.2576
  276MOL0     H36404   4.546  -0.560   3.983  0.2825  1.1250  0.1401
  276MOL0     H36405   4.405  -0.567   4.083  0.0031  1.7554  1.5413
  276MOL0     H36406   4.449  -0.467   3.797 -0.8894  4.8894  0.0285
  276MOL0     H36407   4.315  -0.393   3.872 -1.1497  0.0695 -1.9539
  276MOL0     H36408   4.213  -0.610   3.924  1.5238 -0.4155  1.2515
  276MOL0     H36409   4.348  -0.697   3.858  0.2888 -0.5758 -0.7248
  276MOL0     H36410   4.118  -0.614   3.708 -0.4235  0.3773 -0.9048
  276MOL0     H36411   4.210  -0.476   3.686  0.7716 -0.5662  3.0178
  276MOL0     H36412   4.282  -0.596   3.494  2.3035  0.8673  0.1966
  276MOL0     H36413   4.264  -0.751   3.568 -2.2876  0.4702 -2.3035
  276MOL0     H36414   4.898  -0.378   4.545  0.0983  0.2773  0.0432
  276MOL0     H36415   5.129  -0.341   4.568  0.3522 -0.2298 -1.1180
  276MOL0     H36416   5.454   0.121   4.532 -1.3457 -1.1833 -0.5459
  276MOL0     H36417   5.683   0.138   4.578  0.7905 -0.2074 -1.0792
  276MOL0     H36418   6.916   0.325   5.707 -2.4277  2.0047  3.8171
  276MOL0     H36419   7.143   0.383   5.714 -2.2202 -1.8819 -1.8527
  276MOL0     H36420   7.576   0.328   5.828  2.2738 -3.1393  1.3485
  276MOL0     H36421   7.809   0.433   5.848 -0.6294 -1.6511 -0.4202
  276MOL0     H36422   7.936   0.571   6.242 -0.1195 -1.7894 -1.1520
  276MOL0     H36423   7.878   0.715   6.165 -0.0822 -0.8829  2.8120
  276MOL0     H36424   8.080   0.712   6.017  0.2287 -1.9250 -0.6930
  276MOL0     H36425   8.111   0.763   6.188 -1.6080  1.2643 -1.5059
  276MOL0     H36426   8.194   0.526   6.245  1.8882  0.7919  0.2165
  276MOL0     H36427   8.290   0.629   6.150  1.1408 -1.9452  0.8444
  276MOL0     H36428   8.107   0.421   6.027 -0.9598  1.3968  0.3023
  276MOL0     H36429   8.207   0.513   5.933  1.8291  0.4148  0.0534
  276MOL0     H36430   8.475   0.219   6.081  0.2714  0.1346 -0.7256
  276MOL0     H36431   7.670   0.632   6.205 -3.8824 -1.2080  0.8011
  276MOL0     H36432   7.462   0.568   6.157  0.8334 -0.3575  1.4326
  277MOL0     O36433   7.527   8.498   7.835 -0.2751  0.3283 -0.7570
  277MOL0     C36434   7.449   8.599   7.818  0.1783  0.5235  0.8203
  277MOL0     O36435   7.329   8.619   7.877 -0.1146 -0.3733 -0.4455
  277MOL0     C36436   7.299   8.536   7.987 -0.5415 -0.0705  0.1448
  277MOL0     C36437   7.184   8.453   7.969  0.6886  0.6917 -0.6831
  277MOL0     C36438   7.153   8.355   8.066  0.4687 -0.4861 -0.5913
  277MOL0     C36439   7.228   8.345   8.186 -0.0162  0.5072  0.6141
  277MOL0     O36440   7.202   8.245   8.282  0.4097 -0.3159 -0.5994
  277MOL0     C36441   7.194   8.286   8.414  0.4047  1.1372  0.9345
  277MOL0     C36442   7.124   8.189   8.508  0.2697 -0.5178 -0.1555
  277MOL0     C36443   7.213   8.065   8.530  0.0975  1.0882 -0.0994
  277MOL0     C36444   7.143   7.954   8.615 -0.3267  0.9688 -0.2603
  277MOL0     C36445   7.224   7.827   8.636  0.4737  0.8201 -1.2889
  277MOL0     C36446   7.381   7.844   8.661  0.8006  0.6626  0.2851
  277MOL0     C36447   7.445   7.703   8.690  0.0823 -0.1585 -0.5936
  277MOL0     C36448   7.573   7.726   8.768  0.7959  0.7114 -0.6283
  277MOL0     N36449   7.680   7.798   8.696 -0.4639 -0.5369 -0.6281
  277MOL0     C36450   7.765   7.743   8.600 -0.2246  1.4270 -0.8340
  277MOL0     C36451   7.843   7.849   8.551 -0.6624  0.9230  0.1560
  277MOL0     C36452   7.940   7.835   8.447 -0.1236 -0.3671 -0.3752
  277MOL0     C36453   8.030   7.966   8.438 -0.3756 -0.1690  0.8162
  277MOL0     C36454   8.127   7.966   8.312 -0.1371 -0.1080  0.2966
  277MOL0     C36455   8.253   7.883   8.355  0.5030  0.2560  0.0347
  277MOL0     O36456   8.344   7.970   8.414  0.3864 -0.5861  0.1079
  277MOL0     C36457   8.436   8.040   8.339  0.0151  0.0703  0.2420
  277MOL0     C36458   8.550   8.071   8.405 -0.2866 -0.1897  0.5344
  277MOL0     C36459   8.633   8.167   8.349 -0.4087 -0.3016 -1.2657
  277MOL0     C36460   8.611   8.224   8.222  0.8320  0.3098 -0.5645
  277MOL0     C36461   8.688   8.331   8.164 -0.4384  0.1815 -0.7674
  277MOL0     O36462   8.800   8.353   8.236 -0.5728  0.1501  0.1279
  277MOL0     C36463   8.885   8.445   8.194  0.6989  0.3894  0.2206
  277MOL0     C36464   8.915   8.548   8.276  0.2920 -0.8086  0.6283
  277MOL0     C36465   8.992   8.658   8.229  0.3894 -0.1138  0.6246
  277MOL0     C36466   9.041   8.663   8.100 -0.9370 -0.0240 -0.3986
  277MOL0     O36467   9.116   8.766   8.055  0.2148  0.2263 -0.0073
  277MOL0     C36468   9.198   8.743   7.942 -0.0192  0.7509 -0.1503
  277MOL0     C36469   9.308   8.636   7.950 -0.5444  0.8875  0.7593
  277MOL0     C36470   9.404   8.673   8.064 -0.4058  0.2259  0.4375
  277MOL0     C36471   9.536   8.600   8.029  0.5563 -0.9534  0.8599
  277MOL0     C36472   9.636   8.679   8.120 -0.3560  0.4647 -1.1571
  277MOL0     C36473   9.617   8.671   8.275 -0.6092  1.0343  0.2522
  277MOL0     C36474   9.743   8.727   8.349 -1.6078  0.7864  0.2846
  277MOL0     C36475   9.795   8.857   8.286 -1.1477  0.5647  0.1281
  277MOL0    Cl36476   9.892   8.934   8.411 -0.2577 -0.3957 -0.0359
  277MOL0     C36477   8.999   8.560   8.008 -0.2104 -0.4764  0.0585
  277MOL0     C36478   8.925   8.454   8.061 -0.2548 -0.6365  1.1262
  277MOL0     O36479   8.663   8.375   8.053 -0.0850  0.3136  0.0013
  277MOL0     C36480   8.500   8.173   8.146  0.3697  0.3855  0.1971
  277MOL0     C36481   8.408   8.078   8.208 -0.4113 -0.3385  0.3871
  277MOL0     N36482   7.789   7.964   8.609 -0.1864  0.1768  0.5311
  277MOL0     N36483   7.712   7.934   8.708  0.4165  0.1453  0.4821
  277MOL0     C36484   7.350   8.415   8.194  0.1388 -0.6380 -0.3911
  277MOL0     C36485   7.387   8.512   8.098  0.2725 -0.0618 -0.8747
  277MOL0     C36486   7.494   8.711   7.724  0.3508  0.3323  0.4445
  277MOL0     C36487   7.423   8.837   7.725  1.0596 -0.1685  0.3967
  277MOL0     C36488   7.468   8.936   7.636 -0.7889 -0.2837  0.3607
  277MOL0     C36489   7.583   8.923   7.558 -0.6733 -0.2651  0.2460
  277MOL0     O36490   7.634   9.028   7.479 -0.0429 -0.2363  0.5275
  277MOL0     C36491   7.605   9.160   7.524  0.4829 -0.0651 -0.2751
  277MOL0     C36492   7.697   9.277   7.475  0.1826  0.8993 -0.4821
  277MOL0     C36493   7.678   9.285   7.326  0.7869 -1.3648  0.5955
  277MOL0     C36494   7.742   9.407   7.262  0.7105 -0.4363  0.5476
  277MOL0     C36495   7.715   9.404   7.112  0.4012 -0.0829 -1.3712
  277MOL0     C36496   7.689   9.398   6.997 -0.2851 -0.6809  0.3410
  277MOL0     C36497   7.648   8.798   7.558 -0.2146  0.1416  0.3360
  277MOL0     C36498   7.601   8.695   7.640 -0.7653  0.1245 -0.1482
  277MOL0     H36499   7.105   8.455   7.895 -1.0401 -0.2714  1.0378
  277MOL0     H36500   7.063   8.294   8.056  0.3912 -0.1585 -2.0263
  277MOL0     H36501   7.144   8.382   8.427 -2.0605 -0.4157  4.0846
  277MOL0     H36502   7.300   8.295   8.441  1.4541  1.3721 -2.7079
  277MOL0     H36503   7.023   8.175   8.468  0.1784  3.0796 -1.5321
  277MOL0     H36504   7.109   8.235   8.607 -1.4085  0.4340 -0.8136
  277MOL0     H36505   7.314   8.082   8.569  0.0513 -0.2885  0.6714
  277MOL0     H36506   7.233   8.014   8.436  1.3125 -1.8081  1.6067
  277MOL0     H36507   7.116   7.992   8.714  2.5656  2.3559  0.1099
  277MOL0     H36508   7.045   7.935   8.571 -1.6484  1.5411  2.2910
  277MOL0     H36509   7.213   7.763   8.548  0.5569  2.4241 -2.5158
  277MOL0     H36510   7.180   7.780   8.724  0.1888  0.3712 -1.6690
  277MOL0     H36511   7.397   7.915   8.742 -0.5488 -0.2569  1.4162
  277MOL0     H36512   7.429   7.887   8.572 -0.8492  0.5369 -0.7187
  277MOL0     H36513   7.372   7.645   8.747  1.3684 -3.1546 -1.8002
  277MOL0     H36514   7.448   7.638   8.603  1.9070 -1.5804  0.4722
  277MOL0     H36515   7.605   7.631   8.812 -0.9626  1.4951  2.6993
  277MOL0     H36516   7.550   7.773   8.864  2.2081  0.8762 -0.3556
  277MOL0     H36517   7.747   7.643   8.562 -4.7404  2.1047 -1.0301
  277MOL0     H36518   7.902   7.808   8.347 -0.0200 -0.3981 -0.4067
  277MOL0     H36519   8.015   7.759   8.472  0.9630  0.6459 -0.4783
  277MOL0     H36520   8.095   7.974   8.526  1.9065 -1.4917 -0.6418
  277MOL0     H36521   7.961   8.051   8.437  1.7650  1.7238 -2.2867
  277MOL0     H36522   8.072   7.917   8.231 -0.4167  0.8603 -0.1160
  277MOL0     H36523   8.156   8.068   8.286 -1.8676  0.0303 -1.3420
  277MOL0     H36524   8.293   7.841   8.262 -1.5012  1.2631 -1.3836
  277MOL0     H36525   8.219   7.807   8.426  2.5871  0.2640  1.1124
  277MOL0     H36526   8.571   8.026   8.502  0.0260 -0.5401  0.3112
  277MOL0     H36527   8.725   8.192   8.402  0.9689 -1.2455 -3.0638
  277MOL0     H36528   8.880   8.547   8.379 -0.3877  1.8187  0.4952
  277MOL0     H36529   9.007   8.751   8.283  0.6355 -0.0961  0.5243
  277MOL0     H36530   9.255   8.835   7.927  2.4218 -0.8127 -1.1585
  277MOL0     H36531   9.141   8.723   7.850  0.9253 -4.4797  0.1035
  277MOL0     H36532   9.354   8.632   7.851 -1.4010 -1.8651  0.3934
  277MOL0     H36533   9.266   8.539   7.977 -2.2173  1.9640  2.2495
  277MOL0     H36534   9.358   8.641   8.157 -0.4638  4.0674  1.9059
  277MOL0     H36535   9.424   8.780   8.074  3.1858 -0.4543  2.0206
  277MOL0     H36536   9.532   8.494   8.055  1.7994 -0.1357  5.0147
  277MOL0     H36537   9.569   8.605   7.924  0.6422 -2.0809  0.8176
  277MOL0     H36538   9.638   8.785   8.092  0.5538  0.9855  0.6515
  277MOL0     H36539   9.732   8.632   8.095 -0.6064 -1.6150  1.3362
  277MOL0     H36540   9.608   8.564   8.297 -0.0417  0.8319 -0.4991
  277MOL0     H36541   9.521   8.715   8.305 -0.6082  3.9371 -3.3322
  277MOL0     H36542   9.738   8.748   8.457  0.4696 -1.7813  0.9835
  277MOL0     H36543   9.813   8.643   8.355 -0.6152  1.4749 -1.1857
  277MOL0     H36544   9.707   8.917   8.263 -2.1210 -0.6618  0.5468
  277MOL0     H36545   9.863   8.840   8.201  1.3512  0.2072  2.0789
  277MOL0     H36546   9.033   8.559   7.905 -1.0854  0.3138 -0.2516
  277MOL0     H36547   8.893   8.384   7.984  0.4021  1.6074 -1.3632
  277MOL0     H36548   8.494   8.214   8.046  1.7107  2.6577  0.9808
  277MOL0     H36549   8.322   8.040   8.154 -1.3165  0.6472  1.1034
  277MOL0     H36550   7.417   8.393   8.277 -1.3620 -1.2237  0.6997
  277MOL0     H36551   7.488   8.549   8.099 -0.3805  2.0650 -3.2769
  277MOL0     H36552   7.327   8.836   7.775  0.8973  0.4728  0.1086
  277MOL0     H36553   7.409   9.027   7.631 -0.6758 -0.2444 -0.3190
  277MOL0     H36554   7.594   9.158   7.633  1.9223 -2.4738 -0.1173
  277MOL0     H36555   7.500   9.173   7.496  0.4265 -1.8317 -0.9701
  277MOL0     H36556   7.667   9.371   7.522  0.5438 -0.6236  3.1307
  277MOL0     H36557   7.803   9.258   7.495  0.0022 -3.4402 -2.4738
  277MOL0     H36558   7.571   9.280   7.303  0.8987  0.8012 -0.6814
  277MOL0     H36559   7.716   9.197   7.272  0.2093 -0.5784 -1.1707
  277MOL0     H36560   7.696   9.497   7.303 -0.4466 -0.1592 -1.2502
  277MOL0     H36561   7.848   9.416   7.288  0.3038  0.2958  2.1288
  277MOL0     H36562   7.658   9.381   6.896  0.0106  1.8584 -0.2490
  277MOL0     H36563   7.733   8.776   7.494  0.6657  3.4440  0.1780
  277MOL0     H36564   7.660   8.604   7.639 -0.6849  0.1465  0.9443
  278MOL0     O36565   3.899  10.931   1.246  0.6435  0.3203  0.7514
  278MOL0     C36566   3.928  10.901   1.132  0.8130 -0.3418 -0.1645
  278MOL0     O36567   3.869  10.802   1.060  0.8644 -0.3777 -0.2555
  278MOL0     C36568   3.791  10.713   1.129  0.5082  0.1336 -0.0540
  278MOL0     C36569   3.648  10.732   1.147  0.0600  0.6501 -1.0825
  278MOL0     C36570   3.576  10.657   1.241 -0.1012  0.3393 -0.3546
  278MOL0     C36571   3.642  10.548   1.301 -0.2731 -0.5812  0.1003
  278MOL0     O36572   3.588  10.464   1.393  0.2254  0.4889 -0.1371
  278MOL0     C36573   3.452  10.493   1.436  0.2580 -1.1883 -0.9082
  278MOL0     C36574   3.389  10.407   1.545  0.0174  0.3486 -0.1385
  278MOL0     C36575   3.468  10.414   1.674  0.9722 -0.7244 -0.6021
  278MOL0     C36576   3.429  10.534   1.753  0.4920  0.8617 -0.2862
  278MOL0     C36577   3.522  10.557   1.870  0.1355  0.8425  0.4059
  278MOL0     C36578   3.455  10.643   1.984  0.1506  0.0096 -0.2546
  278MOL0     C36579   3.520  10.640   2.127 -0.7870  0.2619  0.5247
  278MOL0     C36580   3.424  10.686   2.242  0.8175 -0.3103  0.9032
  278MOL0     N36581   3.394  10.833   2.240  0.3528  0.6808  0.0704
  278MOL0     C36582   3.473  10.946   2.253  0.6603  1.6829  0.2774
  278MOL0     C36583   3.385  11.046   2.257 -0.8880  0.1987  0.6111
  278MOL0     C36584   3.429  11.200   2.249  0.1560  0.2638  0.9876
  278MOL0     C36585   3.438  11.234   2.397 -0.0730 -0.4474 -0.2922
  278MOL0     C36586   3.478  11.377   2.435  0.0670 -0.4191  0.1967
  278MOL0     C36587   3.602  11.421   2.360  0.4005  0.3165  0.1486
  278MOL0     O36588   3.567  11.463   2.225  0.7913 -0.4644 -0.5275
  278MOL0     C36589   3.678  11.455   2.143  0.0707  0.1670 -0.0109
  278MOL0     C36590   3.806  11.502   2.184 -0.6198 -0.6548  0.0469
  278MOL0     C36591   3.910  11.499   2.091  0.0040 -0.8332  0.2658
  278MOL0     C36592   3.891  11.456   1.965  0.2441  0.4409  0.3601
  278MOL0     C36593   4.006  11.423   1.879 -0.9274 -0.3088 -0.7632
  278MOL0     O36594   3.976  11.379   1.756 -0.6741  0.4627  0.5193
  278MOL0     C36595   4.072  11.323   1.675  0.1495 -0.0179  0.2210
  278MOL0     C36596   4.210  11.301   1.690  0.4714  0.9020 -0.6614
  278MOL0     C36597   4.284  11.211   1.605  0.4617  0.3451 -0.7399
  278MOL0     C36598   4.212  11.151   1.499 -0.3706 -1.0095 -0.3254
  278MOL0     O36599   4.274  11.061   1.416 -0.8047 -0.9549 -0.2952
  278MOL0     C36600   4.206  10.935   1.387  0.7173  0.6145 -0.1342
  278MOL0     C36601   4.311  10.845   1.317 -0.3808 -0.0262  0.0940
  278MOL0     C36602   4.415  10.794   1.426 -0.1810  0.6557  0.3960
  278MOL0     C36603   4.343  10.672   1.500  0.8834  0.2730 -0.8657
  278MOL0     C36604   4.424  10.635   1.623 -0.2580 -0.4830 -0.6088
  278MOL0     C36605   4.441  10.746   1.726 -0.8370 -0.3747 -0.5445
  278MOL0     C36606   4.312  10.807   1.788  1.1286  0.3021 -0.5024
  278MOL0     C36607   4.337  10.907   1.896 -0.9037 -0.1335 -0.5216
  278MOL0    Cl36608   4.462  11.021   1.845 -0.2762  0.2621 -0.1654
  278MOL0     C36609   4.081  11.186   1.469  0.2302 -0.2126  0.3298
  278MOL0     C36610   4.009  11.268   1.554 -0.1811 -0.3426  0.1687
  278MOL0     O36611   4.125  11.454   1.916  0.2672 -0.4935  0.9293
  278MOL0     C36612   3.769  11.398   1.924  0.2364 -0.0821  0.0976
  278MOL0     C36613   3.668  11.395   2.016 -0.1924  0.0956 -0.5841
  278MOL0     N36614   3.258  11.004   2.246  0.1392 -0.0563 -0.0654
  278MOL0     N36615   3.264  10.876   2.245  0.2123  1.2570 -1.0101
  278MOL0     C36616   3.777  10.526   1.275  0.3483  0.2175 -0.3087
  278MOL0     C36617   3.856  10.606   1.195  0.0361  0.4489  1.1984
  278MOL0     C36618   4.022  10.968   1.047 -0.2798 -0.1654  0.4116
  278MOL0     C36619   4.142  10.911   1.000 -0.6100  0.5532  0.2771
  278MOL0     C36620   4.239  10.985   0.934 -0.2251 -0.0904  0.2689
  278MOL0     C36621   4.209  11.122   0.907  0.4546  1.2447 -0.7189
  278MOL0     O36622   4.278  11.205   0.831 -0.1392 -0.6939  0.6940
  278MOL0     C36623   4.413  11.179   0.801 -0.2677 -0.8037 -0.1913
  278MOL0     C36624   4.481  11.303   0.767  0.2756 -1.4280  0.0758
  278MOL0     C36625   4.632  11.294   0.811 -0.9378  0.2468  0.5978
  278MOL0     C36626   4.714  11.387   0.732 -0.8866 -0.1373 -0.3941
  278MOL0     C36627   4.661  11.527   0.734  0.2938  0.2853  0.3259
  278MOL0     C36628   4.626  11.639   0.746  0.0683 -0.0543 -0.6395
  278MOL0     C36629   4.084  11.167   0.948  0.4940  0.3996  0.9274
  278MOL0     C36630   3.983  11.091   1.006  0.3380  0.2347  0.7107
  278MOL0     H36631   3.600  10.815   1.097 -1.3253  2.2439  2.5027
  278MOL0     H36632   3.471  10.684   1.250 -0.2991 -0.0062 -1.4553
  278MOL0     H36633   3.381  10.503   1.353 -0.7651  1.6088  0.1663
  278MOL0     H36634   3.453  10.594   1.480 -0.2780 -0.0294 -3.3959
  278MOL0     H36635   3.387  10.305   1.505 -0.4632  1.4416 -3.2522
  278MOL0     H36636   3.289  10.451   1.560  1.0401  3.3224 -1.2253
  278MOL0     H36637   3.576  10.412   1.653  0.7832 -0.8990 -1.5854
  278MOL0     H36638   3.449  10.320   1.727 -2.7143  1.1226  1.7282
  278MOL0     H36639   3.449  10.619   1.687  1.0973  0.4633 -0.6193
  278MOL0     H36640   3.323  10.530   1.779  0.3968  0.7596 -0.6938
  278MOL0     H36641   3.623  10.582   1.837  0.2672 -2.6047 -2.3168
  278MOL0     H36642   3.517  10.458   1.915 -1.5966  0.5577 -0.3398
  278MOL0     H36643   3.348  10.622   1.989 -0.5093  1.9566 -3.4348
  278MOL0     H36644   3.466  10.742   1.938 -1.1101  0.5801  0.6098
  278MOL0     H36645   3.554  10.537   2.140 -2.4422 -0.7525 -2.3673
  278MOL0     H36646   3.601  10.712   2.145 -0.6660  0.2100  0.1950
  278MOL0     H36647   3.473  10.653   2.334 -1.5210  1.6377  2.9984
  278MOL0     H36648   3.329  10.636   2.222  1.5223 -0.7323 -1.6661
  278MOL0     H36649   3.581  10.950   2.254  0.7979 -0.7471  0.5726
  278MOL0     H36650   3.338  11.253   2.218 -0.3613 -0.6516  0.9174
  278MOL0     H36651   3.516  11.225   2.188  3.3790 -1.6448  4.3820
  278MOL0     H36652   3.508  11.175   2.456  0.7732  0.9601  0.1604
  278MOL0     H36653   3.342  11.216   2.446  0.6251  2.5348  2.5611
  278MOL0     H36654   3.395  11.444   2.412 -0.6103 -2.1378 -2.8662
  278MOL0     H36655   3.508  11.384   2.540 -0.4734  1.7530  0.2540
  278MOL0     H36656   3.684  11.350   2.368 -0.9748 -1.3987 -0.4637
  278MOL0     H36657   3.628  11.512   2.416 -0.5730  1.3719 -1.0312
  278MOL0     H36658   3.824  11.550   2.280  1.6178 -0.0948 -0.5937
  278MOL0     H36659   4.003  11.540   2.129 -0.5340 -0.0209  0.7696
  278MOL0     H36660   4.270  11.342   1.770  0.1628 -2.6317  1.5517
  278MOL0     H36661   4.386  11.178   1.624  0.4444 -1.1780 -2.8792
  278MOL0     H36662   4.130  10.969   1.316 -0.7845 -3.6209 -0.8554
  278MOL0     H36663   4.169  10.887   1.478 -2.0114  0.7743 -1.0462
  278MOL0     H36664   4.371  10.902   1.245 -2.3862  2.0855 -0.0194
  278MOL0     H36665   4.263  10.767   1.258 -1.7599 -0.1226  1.2808
  278MOL0     H36666   4.427  10.880   1.492 -2.3940 -1.0870  3.3417
  278MOL0     H36667   4.517  10.762   1.405  0.9048  1.8966  3.2927
  278MOL0     H36668   4.241  10.689   1.534  1.4673 -1.8127  2.3665
  278MOL0     H36669   4.336  10.582   1.438 -0.0954 -0.6466  0.5011
  278MOL0     H36670   4.527  10.610   1.599  1.4919  3.4384  1.7561
  278MOL0     H36671   4.382  10.547   1.672  0.2393  0.4833  1.7002
  278MOL0     H36672   4.509  10.820   1.684 -2.7877  0.1712 -2.9643
  278MOL0     H36673   4.500  10.712   1.812 -1.1838  1.6166  0.5285
  278MOL0     H36674   4.251  10.862   1.715  2.2159  1.9205 -0.2331
  278MOL0     H36675   4.258  10.724   1.834  1.0017  0.7575  0.1811
  278MOL0     H36676   4.370  10.858   1.988 -5.4252 -0.9111  0.8952
  278MOL0     H36677   4.244  10.952   1.931 -0.8773 -0.7612  0.3926
  278MOL0     H36678   4.038  11.143   1.379 -3.5188  2.0946  0.7897
  278MOL0     H36679   3.908  11.297   1.527 -0.9829 -1.9684  1.2962
  278MOL0     H36680   3.760  11.347   1.829  1.5766  1.1997 -0.7628
  278MOL0     H36681   3.570  11.367   1.980  0.7446 -2.9287 -1.0914
  278MOL0     H36682   3.828  10.445   1.327  0.6726  0.7224  0.1682
  278MOL0     H36683   3.961  10.587   1.176 -0.4018 -1.9816  0.8384
  278MOL0     H36684   4.179  10.812   1.027  1.9019  0.2304 -3.5309
  278MOL0     H36685   4.329  10.938   0.895  0.6205  2.8326 -1.6284
  278MOL0     H36686   4.411  11.122   0.708 -1.1953  0.5012 -1.0015
  278MOL0     H36687   4.463  11.128   0.884 -0.1723  1.8883  1.5395
  278MOL0     H36688   4.483  11.318   0.659 -0.1046 -2.4101 -0.0780
  278MOL0     H36689   4.432  11.381   0.827  3.5888 -0.4875  1.8149
  278MOL0     H36690   4.678  11.199   0.784 -0.6375  0.6174 -0.2230
  278MOL0     H36691   4.648  11.308   0.918  0.8880 -3.5564  0.9789
  278MOL0     H36692   4.822  11.383   0.754 -1.2319 -0.0535  1.4832
  278MOL0     H36693   4.704  11.343   0.632  0.5147  0.5278 -0.8495
  278MOL0     H36694   4.588  11.739   0.745 -0.7593 -0.3067  1.3388
  278MOL0     H36695   4.045  11.265   0.924  2.1994  1.4187  2.1316
  278MOL0     H36696   3.890  11.141   1.032  0.0998  2.0561 -2.9734
  279MOL0     O36697   2.836   2.463   4.537 -1.0702 -0.7678  0.2881
  279MOL0     C36698   2.944   2.523   4.526 -0.2982  1.1260 -0.4815
  279MOL0     O36699   3.008   2.589   4.623 -0.5910  0.1499 -0.2597
  279MOL0     C36700   2.946   2.696   4.680  0.4191  0.7315  0.6410
  279MOL0     C36701   2.817   2.690   4.733  0.1192 -0.4210  0.3772
  279MOL0     C36702   2.750   2.800   4.795 -0.9033  0.4930  0.7403
  279MOL0     C36703   2.814   2.924   4.799 -1.2047 -0.3117  0.7279
  279MOL0     O36704   2.754   3.033   4.860  0.2800  1.2215  0.3906
  279MOL0     C36705   2.845   3.139   4.903 -0.0206  0.5375  0.1433
  279MOL0     C36706   2.758   3.223   4.996 -0.6829 -0.7625 -0.4127
  279MOL0     C36707   2.835   3.338   5.073 -0.1262  0.3890 -0.1700
  279MOL0     C36708   2.752   3.407   5.186 -0.6863 -0.7080 -1.0725
  279MOL0     C36709   2.846   3.491   5.290  0.0724  0.2761  0.5376
  279MOL0     C36710   2.770   3.546   5.411  0.6362 -0.7194 -0.7409
  279MOL0     C36711   2.870   3.636   5.496  0.7925 -0.3293  0.2696
  279MOL0     C36712   2.767   3.709   5.588 -0.1513 -0.3378  0.2126
  279MOL0     N36713   2.851   3.773   5.683  0.0665 -0.2162 -0.0466
  279MOL0     C36714   2.856   3.758   5.823 -0.2671 -0.1043 -0.0469
  279MOL0     C36715   2.960   3.840   5.855  0.4689  0.0886 -0.7237
  279MOL0     C36716   3.000   3.879   5.986  0.2382  0.6341 -0.0351
  279MOL0     C36717   2.933   4.008   6.042 -0.1525  0.3432 -0.4094
  279MOL0     C36718   3.023   4.133   6.012 -0.3065  0.4850 -0.6007
  279MOL0     C36719   2.974   4.265   6.059  0.2789 -0.5052 -0.2444
  279MOL0     O36720   3.053   4.378   6.041 -0.0031  0.1687 -0.0937
  279MOL0     C36721   3.172   4.406   6.103 -0.3429 -0.2806  0.0044
  279MOL0     C36722   3.265   4.490   6.036 -0.2169  0.6639 -0.0074
  279MOL0     C36723   3.399   4.504   6.088 -0.0934  0.1965  0.8230
  279MOL0     C36724   3.434   4.448   6.205  0.4374  0.9058  0.7460
  279MOL0     C36725   3.566   4.465   6.264  0.0837 -0.2577 -0.3259
  279MOL0     O36726   3.573   4.429   6.392  0.3408  0.2645 -0.3166
  279MOL0     C36727   3.685   4.432   6.470  0.1272  0.2256  0.4918
  279MOL0     C36728   3.679   4.364   6.588  0.2048  0.3832 -0.4627
  279MOL0     C36729   3.779   4.334   6.675  0.1796  0.3545  0.1002
  279MOL0     C36730   3.902   4.391   6.636 -0.2003 -0.2640  0.7899
  279MOL0     O36731   4.012   4.367   6.712 -0.5776  0.5821 -0.1714
  279MOL0     C36732   3.998   4.324   6.844 -0.8111  0.9854 -0.2783
  279MOL0     C36733   4.137   4.330   6.906  0.1245 -0.4022  1.1766
  279MOL0     C36734   4.140   4.281   7.058  0.0662 -0.2881 -0.9371
  279MOL0     C36735   4.039   4.344   7.152  0.5370 -0.0181  0.0550
  279MOL0     C36736   4.063   4.308   7.300  0.9443 -0.9140  0.0589
  279MOL0     C36737   3.968   4.395   7.390 -0.6415  0.7926  0.2663
  279MOL0     C36738   3.968   4.343   7.539  0.5718  0.5759 -0.2442
  279MOL0     C36739   4.099   4.380   7.609  0.2391 -0.9385 -0.2258
  279MOL0    Cl36740   4.123   4.279   7.754  0.0861 -0.7383 -0.3152
  279MOL0     C36741   3.910   4.467   6.521 -0.5845 -0.5959 -1.6206
  279MOL0     C36742   3.806   4.489   6.435  0.5757  0.2565 -0.1607
  279MOL0     O36743   3.653   4.522   6.203 -0.5426 -0.4622 -0.5882
  279MOL0     C36744   3.339   4.371   6.278  0.2194  0.2177  0.6481
  279MOL0     C36745   3.208   4.345   6.217 -0.1025  0.1316 -0.1496
  279MOL0     N36746   3.016   3.893   5.741  0.6208  0.3143  0.8088
  279MOL0     N36747   2.958   3.852   5.642  0.3593  0.7328  0.5262
  279MOL0     C36748   2.947   2.924   4.741  0.7752  0.2075  1.2032
  279MOL0     C36749   3.012   2.808   4.696  0.0180  0.3171  0.6330
  279MOL0     C36750   3.010   2.514   4.390 -0.3651 -0.9253  1.4583
  279MOL0     C36751   2.934   2.512   4.271  0.8718 -0.4016  0.1275
  279MOL0     C36752   3.001   2.516   4.142 -0.2991  0.2729 -0.5508
  279MOL0     C36753   3.135   2.512   4.140  0.4393  0.0652 -0.0610
  279MOL0     O36754   3.187   2.515   4.019 -0.9820  0.4596  1.1157
  279MOL0     C36755   3.300   2.428   3.978 -0.4593  0.5751 -0.7708
  279MOL0     C36756   3.421   2.523   3.946 -0.3670  0.0223 -0.4772
  279MOL0     C36757   3.452   2.622   4.060  0.8407 -0.7058  0.9680
  279MOL0     C36758   3.579   2.710   4.023  0.0064  0.1069 -0.0120
  279MOL0     C36759   3.567   2.849   4.059 -0.5516  0.0844 -0.2504
  279MOL0     C36760   3.583   2.964   4.103 -0.4601  0.0485 -0.9687
  279MOL0     C36761   3.211   2.518   4.258  0.7742  0.1597 -0.4125
  279MOL0     C36762   3.152   2.526   4.382 -0.0105 -0.1361 -0.3709
  279MOL0     H36763   2.773   2.591   4.730  2.1219 -1.3396 -1.1551
  279MOL0     H36764   2.648   2.781   4.826 -1.2845  2.3428  0.7688
  279MOL0     H36765   2.878   3.204   4.821 -1.8929 -0.5940 -1.5960
  279MOL0     H36766   2.940   3.104   4.945 -0.6059  0.1055  1.1416
  279MOL0     H36767   2.711   3.159   5.070 -3.6674  0.0881 -1.4375
  279MOL0     H36768   2.671   3.258   4.940 -1.8328  1.2218  2.3876
  279MOL0     H36769   2.873   3.412   5.002  0.8742  0.0375 -0.0134
  279MOL0     H36770   2.925   3.296   5.120  1.4287 -1.0641 -4.0155
  279MOL0     H36771   2.681   3.479   5.144  0.7327  2.7428  1.9469
  279MOL0     H36772   2.719   3.322   5.246  0.2673 -0.6075 -0.3983
  279MOL0     H36773   2.888   3.571   5.229  2.1044 -2.4527 -1.9095
  279MOL0     H36774   2.933   3.434   5.323  0.2276  0.4350  0.4061
  279MOL0     H36775   2.729   3.458   5.462  2.5297 -1.6987 -0.8426
  279MOL0     H36776   2.681   3.604   5.384 -0.0576 -2.3190 -2.0967
  279MOL0     H36777   2.953   3.584   5.543  0.4884 -1.3040 -0.2454
  279MOL0     H36778   2.915   3.703   5.422  0.7246 -1.3904 -0.7525
  279MOL0     H36779   2.706   3.632   5.636 -0.6192  0.7295  1.4167
  279MOL0     H36780   2.709   3.779   5.527 -2.4819 -1.1748  1.3370
  279MOL0     H36781   2.781   3.714   5.888 -0.6906 -0.0402 -0.4848
  279MOL0     H36782   3.107   3.896   5.974 -0.0748  1.2335 -2.3656
  279MOL0     H36783   2.994   3.797   6.058  1.1113  2.0578  1.7463
  279MOL0     H36784   2.909   3.997   6.149  3.9007  1.9396  0.8349
  279MOL0     H36785   2.834   4.015   5.996 -0.0069 -0.7750 -0.9149
  279MOL0     H36786   3.118   4.120   6.065  0.2917 -0.7721 -1.9013
  279MOL0     H36787   3.053   4.133   5.906  1.2183  0.4071 -0.1961
  279MOL0     H36788   2.956   4.243   6.164  1.4607  0.1662  0.1099
  279MOL0     H36789   2.878   4.283   6.010  0.1813  0.3366  0.2552
  279MOL0     H36790   3.233   4.549   5.951 -0.4823  1.8442  0.8828
  279MOL0     H36791   3.469   4.568   6.036 -0.0552 -1.4599 -1.3398
  279MOL0     H36792   3.585   4.319   6.619  1.2447 -2.3131 -0.9705
  279MOL0     H36793   3.778   4.264   6.758  4.6352 -0.1413 -0.0652
  279MOL0     H36794   3.960   4.221   6.846 -0.9986  0.9337 -2.9550
  279MOL0     H36795   3.926   4.391   6.893 -1.7557 -0.0947 -0.1355
  279MOL0     H36796   4.171   4.434   6.909 -2.6623  0.5905  1.0247
  279MOL0     H36797   4.209   4.267   6.853 -0.4349 -1.1951  1.3298
  279MOL0     H36798   4.239   4.320   7.085 -1.0757  1.3556  1.2004
  279MOL0     H36799   4.143   4.172   7.065  0.4763 -0.4462 -2.9258
  279MOL0     H36800   4.041   4.453   7.143 -0.4273 -0.0167 -0.1525
  279MOL0     H36801   3.944   4.304   7.117  1.5395 -2.5176 -0.0587
  279MOL0     H36802   4.168   4.323   7.326  1.9347 -2.5605 -2.5892
  279MOL0     H36803   4.033   4.203   7.310 -2.0612 -0.1826 -0.4320
  279MOL0     H36804   3.869   4.394   7.342  0.1540 -0.0293 -1.4387
  279MOL0     H36805   4.004   4.497   7.376 -1.2947  0.9956  0.0432
  279MOL0     H36806   3.887   4.398   7.589  1.1416  1.6904 -0.4974
  279MOL0     H36807   3.937   4.239   7.551 -0.4204  0.8410 -0.3319
  279MOL0     H36808   4.094   4.484   7.640  2.1012 -0.2114 -2.0796
  279MOL0     H36809   4.183   4.371   7.540 -0.9530  2.0214 -2.2923
  279MOL0     H36810   4.004   4.515   6.497  0.4397 -0.9013  1.4513
  279MOL0     H36811   3.832   4.554   6.352  4.6941 -0.8897  0.0138
  279MOL0     H36812   3.350   4.334   6.379 -0.0420  2.7813  1.6920
  279MOL0     H36813   3.143   4.281   6.276  1.7435 -0.2252  1.6019
  279MOL0     H36814   3.007   3.014   4.747  2.2162 -0.2730 -2.8194
  279MOL0     H36815   3.112   2.814   4.654  0.9148 -0.1345  2.5723
  279MOL0     H36816   2.826   2.505   4.269  0.8725 -1.9927  2.0476
  279MOL0     H36817   2.944   2.530   4.051 -0.1845  0.5888 -0.5745
  279MOL0     H36818   3.275   2.375   3.886  4.0684 -0.9161 -1.3634
  279MOL0     H36819   3.327   2.358   4.057  0.0907  1.6914  0.0624
  279MOL0     H36820   3.512   2.462   3.942  0.3722  1.0228  0.4634
  279MOL0     H36821   3.399   2.576   3.853 -0.9317 -0.0717 -0.4056
  279MOL0     H36822   3.479   2.584   4.158  3.2943  1.4233  1.2178
  279MOL0     H36823   3.372   2.694   4.080  0.2367 -0.1378 -2.7876
  279MOL0     H36824   3.672   2.689   4.076  0.2463  0.7963 -0.1443
  279MOL0     H36825   3.598   2.694   3.916  2.9230 -0.9596  0.5838
  279MOL0     H36826   3.602   3.063   4.138  2.9537 -0.7744 -0.1474
  279MOL0     H36827   3.319   2.514   4.262  0.8185 -0.2568 -1.5967
  279MOL0     H36828   3.221   2.526   4.466 -2.1176  0.8607  1.4630
  280MOL0     O36829   6.874   7.211   2.727  0.1070 -0.1789 -0.2493
  280MOL0     C36830   6.784   7.285   2.771 -0.7056 -0.5550  0.4112
  280MOL0     O36831   6.789   7.366   2.885 -0.1029  0.4200  0.4379
  280MOL0     C36832   6.904   7.406   2.947 -0.5620  0.1337  0.6956
  280MOL0     C36833   6.879   7.490   3.052 -0.2660 -0.6990  0.0657
  280MOL0     C36834   6.984   7.551   3.127  0.8237 -0.6372  0.2885
  280MOL0     C36835   7.112   7.511   3.105  0.8524 -0.7473  0.3967
  280MOL0     O36836   7.212   7.577   3.180  0.7672 -0.1239 -0.2326
  280MOL0     C36837   7.333   7.511   3.214  0.4178 -0.4608  0.5205
  280MOL0     C36838   7.313   7.506   3.367 -0.1858 -0.6433  0.2852
  280MOL0     C36839   7.212   7.402   3.406  0.4489  0.2666 -0.1850
  280MOL0     C36840   7.208   7.377   3.552  0.5884  0.6224 -0.1106
  280MOL0     C36841   7.144   7.496   3.618 -0.0431  0.1626 -0.0790
  280MOL0     C36842   7.078   7.491   3.760  0.4347  1.0300  0.8830
  280MOL0     C36843   6.928   7.459   3.756  0.5504  0.2597 -0.0772
  280MOL0     C36844   6.842   7.571   3.691 -0.5924  0.2642  0.7322
  280MOL0     N36845   6.696   7.537   3.704 -0.2045 -0.0592  0.6680
  280MOL0     C36846   6.603   7.568   3.605  0.9981 -0.8752  0.2168
  280MOL0     C36847   6.501   7.483   3.618  0.1197 -0.1996  0.3945
  280MOL0     C36848   6.380   7.474   3.527  0.1582  1.3459  0.6618
  280MOL0     C36849   6.251   7.467   3.615 -0.1731 -0.1347  0.4425
  280MOL0     C36850   6.126   7.500   3.526 -0.5846  0.6450  0.4973
  280MOL0     C36851   6.008   7.532   3.614  0.3522 -0.8603 -0.3015
  280MOL0     O36852   5.999   7.669   3.640 -0.6378  0.0814  0.5451
  280MOL0     C36853   5.902   7.705   3.727  0.2065  0.7133 -1.0542
  280MOL0     C36854   5.768   7.667   3.722  0.7708 -0.4190 -0.1464
  280MOL0     C36855   5.668   7.730   3.789  0.1772  0.2922 -0.3500
  280MOL0     C36856   5.712   7.830   3.878 -0.2692 -0.2313 -0.6683
  280MOL0     C36857   5.612   7.897   3.964  0.3943 -0.0451 -0.4285
  280MOL0     O36858   5.497   7.928   3.891  0.1727 -0.7955  0.1463
  280MOL0     C36859   5.398   8.002   3.949 -0.1395  1.1519  0.0807
  280MOL0     C36860   5.312   7.943   4.035 -0.3254 -0.0292 -0.5025
  280MOL0     C36861   5.200   8.013   4.085  0.4803  1.2616  0.7729
  280MOL0     C36862   5.182   8.140   4.053  0.8181  0.1025  0.1559
  280MOL0     O36863   5.077   8.192   4.128  0.3253 -0.6915  0.1793
  280MOL0     C36864   5.080   8.328   4.165  0.9105 -0.3340 -0.9918
  280MOL0     C36865   4.941   8.343   4.218  0.3323 -0.5188 -0.4874
  280MOL0     C36866   4.890   8.245   4.323  0.6438 -0.2499  0.8256
  280MOL0     C36867   4.967   8.255   4.462  0.2317  0.4254  0.1127
  280MOL0     C36868   4.991   8.122   4.525  0.2536  0.2914  0.2366
  280MOL0     C36869   4.859   8.041   4.556 -0.7285  0.1897 -0.1142
  280MOL0     C36870   4.902   7.913   4.624 -0.0846 -0.8998  0.5387
  280MOL0     C36871   4.781   7.801   4.620  0.9534 -0.2557  0.8746
  280MOL0    Cl36872   4.627   7.849   4.700 -0.0005 -0.0345 -0.3969
  280MOL0     C36873   5.265   8.209   3.964 -0.3662  0.1210 -1.1159
  280MOL0     C36874   5.378   8.140   3.911  0.1983  0.6305 -0.3744
  280MOL0     O36875   5.642   7.930   4.081  0.3991  0.1576 -0.3446
  280MOL0     C36876   5.844   7.862   3.895  0.8867  0.2001 -0.4321
  280MOL0     C36877   5.943   7.801   3.821  0.4196 -0.0305 -1.2242
  280MOL0     N36878   6.521   7.402   3.730  0.5108 -0.3362 -0.3533
  280MOL0     N36879   6.639   7.430   3.771  0.1474  0.3460 -1.0919
  280MOL0     C36880   7.142   7.416   2.999  0.2103 -0.4740  1.4906
  280MOL0     C36881   7.037   7.366   2.920 -0.4308  0.2993  0.1879
  280MOL0     C36882   6.654   7.278   2.699 -0.4420  0.6462  0.9650
  280MOL0     C36883   6.541   7.328   2.763  0.6557  0.4217 -0.2525
  280MOL0     C36884   6.419   7.319   2.689 -0.5894  0.5475 -0.1828
  280MOL0     C36885   6.403   7.264   2.563  0.9093 -0.3105  0.2432
  280MOL0     O36886   6.281   7.278   2.510  0.3507  0.0029 -0.6679
  280MOL0     C36887   6.267   7.251   2.362 -0.4934  0.4074 -1.0074
  280MOL0     C36888   6.132   7.308   2.301  0.4482  0.4578 -0.0641
  280MOL0     C36889   6.114   7.251   2.160 -0.0969  0.1868 -0.3983
  280MOL0     C36890   6.088   7.353   2.059 -0.4141 -0.0990 -0.0885
  280MOL0     C36891   6.208   7.432   2.018 -1.6031 -0.1937  0.9669
  280MOL0     C36892   6.306   7.491   1.990 -0.6949  0.2539 -0.7237
  280MOL0     C36893   6.520   7.215   2.507  0.1931 -0.7178  0.5887
  280MOL0     C36894   6.646   7.218   2.573  0.5555  0.4797  0.2752
  280MOL0     H36895   6.775   7.509   3.074 -0.3502 -2.1510  1.0209
  280MOL0     H36896   6.966   7.633   3.196  2.5241  1.4042 -1.5447
  280MOL0     H36897   7.408   7.580   3.174 -0.8603 -0.1010 -1.3469
  280MOL0     H36898   7.348   7.411   3.173  1.8757  0.2145 -0.7213
  280MOL0     H36899   7.284   7.603   3.409 -0.3293 -1.3767  1.9543
  280MOL0     H36900   7.409   7.486   3.415 -0.1798 -1.5125 -0.0717
  280MOL0     H36901   7.249   7.313   3.354  0.3131 -0.6421  1.2534
  280MOL0     H36902   7.111   7.428   3.375 -0.0783 -1.5807 -0.1021
  280MOL0     H36903   7.153   7.286   3.577 -1.6384  1.8049 -0.3919
  280MOL0     H36904   7.310   7.373   3.591  0.6137 -0.1867 -0.2386
  280MOL0     H36905   7.082   7.548   3.545  0.2190 -0.9483 -1.1419
  280MOL0     H36906   7.227   7.561   3.645 -1.2443  1.0696  1.5886
  280MOL0     H36907   7.087   7.595   3.790  0.4800  1.3012 -0.0432
  280MOL0     H36908   7.125   7.435   3.843  0.4695  2.3366  1.7738
  280MOL0     H36909   6.911   7.366   3.700 -1.6452 -1.0828  2.5890
  280MOL0     H36910   6.884   7.449   3.855  1.2493 -0.9106  0.1345
  280MOL0     H36911   6.869   7.590   3.587  1.8514 -0.8746  1.1038
  280MOL0     H36912   6.855   7.666   3.743 -0.8211  1.1377 -0.7407
  280MOL0     H36913   6.621   7.640   3.526  2.7591  0.1454  1.4824
  280MOL0     H36914   6.395   7.391   3.457  2.7426  0.3778  2.2495
  280MOL0     H36915   6.376   7.564   3.465  2.6784  1.5005  0.6472
  280MOL0     H36916   6.263   7.535   3.700  0.9841  0.8577 -0.4749
  280MOL0     H36917   6.237   7.370   3.663  4.0296 -1.2302 -0.1908
  280MOL0     H36918   6.140   7.580   3.453  0.1926 -1.7127 -2.1115
  280MOL0     H36919   6.114   7.407   3.470 -0.2153  1.9356 -1.8418
  280MOL0     H36920   6.016   7.487   3.714 -0.8260  1.0050  0.6904
  280MOL0     H36921   5.915   7.492   3.573  0.5242 -2.6888  0.9914
  280MOL0     H36922   5.738   7.594   3.647 -1.8849  2.6875 -2.4113
  280MOL0     H36923   5.562   7.717   3.770 -0.2388  4.2796 -1.6351
  280MOL0     H36924   5.327   7.841   4.069  0.0709  0.3546  0.5123
  280MOL0     H36925   5.127   7.968   4.152 -0.7010 -0.4740 -1.5174
  280MOL0     H36926   5.087   8.388   4.074 -0.1897 -1.6804 -2.0060
  280MOL0     H36927   5.157   8.359   4.236  1.7672 -0.0404 -2.0266
  280MOL0     H36928   4.874   8.347   4.131 -0.1438 -1.2388 -0.1572
  280MOL0     H36929   4.933   8.445   4.257 -0.8065 -0.6254 -0.4086
  280MOL0     H36930   4.899   8.145   4.280 -0.5159  0.3371 -0.9049
  280MOL0     H36931   4.784   8.266   4.337  0.2810 -0.4971 -1.1801
  280MOL0     H36932   5.067   8.295   4.440 -0.5925  1.7067 -1.5268
  280MOL0     H36933   4.920   8.330   4.527  2.0030  2.1133 -0.4554
  280MOL0     H36934   5.033   8.149   4.623  1.2692  1.6239 -0.5290
  280MOL0     H36935   5.064   8.067   4.465 -0.5492 -1.1899  0.5613
  280MOL0     H36936   4.815   8.016   4.460 -1.1316  1.4326 -0.2749
  280MOL0     H36937   4.781   8.101   4.603 -2.5853 -1.1897 -1.2979
  280MOL0     H36938   4.990   7.872   4.574  0.7952 -1.2984  2.3504
  280MOL0     H36939   4.927   7.931   4.729  0.2228 -2.0517  0.6772
  280MOL0     H36940   4.795   7.704   4.670  0.4723 -0.4071  0.7287
  280MOL0     H36941   4.754   7.775   4.517  0.7667  0.8340  0.6400
  280MOL0     H36942   5.243   8.315   3.964  2.1077  0.7071 -0.3891
  280MOL0     H36943   5.449   8.195   3.851  2.2166  1.0510  2.2436
  280MOL0     H36944   5.875   7.938   3.967 -1.9363 -0.6219  1.8470
  280MOL0     H36945   6.050   7.815   3.836 -0.0135  0.9297  1.5199
  280MOL0     H36946   7.244   7.383   2.982  0.6523  0.9132  1.3022
  280MOL0     H36947   7.052   7.294   2.840 -0.3806  1.7652 -1.1710
  280MOL0     H36948   6.544   7.369   2.863  2.2509 -2.3782  0.9778
  280MOL0     H36949   6.326   7.354   2.733 -0.2696  0.9047  0.2197
  280MOL0     H36950   6.273   7.142   2.357 -0.1815  0.1616  2.4785
  280MOL0     H36951   6.356   7.291   2.312  0.4284 -1.7640 -1.2394
  280MOL0     H36952   6.055   7.280   2.374 -0.1211  1.5394 -0.2290
  280MOL0     H36953   6.138   7.417   2.302  4.0874  0.4103  2.2000
  280MOL0     H36954   6.022   7.192   2.158 -1.1505  1.8066 -1.0355
  280MOL0     H36955   6.187   7.173   2.134  1.1058  0.1246  2.7685
  280MOL0     H36956   6.049   7.309   1.967 -3.2220  0.4423  0.7500
  280MOL0     H36957   6.005   7.417   2.090  0.6157  0.8960  0.6961
  280MOL0     H36958   6.394   7.547   1.964 -0.7576  1.0084  0.5907
  280MOL0     H36959   6.503   7.165   2.412 -1.6644 -1.1825  1.1220
  280MOL0     H36960   6.732   7.176   2.522 -0.9479  0.1485 -2.1389
  281MOL0     O36961   3.575   7.569  10.147  0.2506 -0.3081  0.0795
  281MOL0     C36962   3.533   7.621  10.045 -0.3100  0.3868  0.2590
  281MOL0     O36963   3.398   7.643  10.013 -0.0048 -0.1258 -0.3395
  281MOL0     C36964   3.312   7.587  10.101  0.2533  0.0978  0.7159
  281MOL0     C36965   3.240   7.653  10.197  0.6233  0.0617  0.0303
  281MOL0     C36966   3.155   7.585  10.274  0.5856 -0.4009  0.3573
  281MOL0     C36967   3.146   7.449  10.278  0.3719 -0.6110  0.4235
  281MOL0     O36968   3.071   7.381  10.366 -0.0941 -0.9945  0.4582
  281MOL0     C36969   2.975   7.455  10.454 -0.6608  0.3015 -0.3263
  281MOL0     C36970   2.898   7.353  10.528 -0.2978 -0.0542 -0.3679
  281MOL0     C36971   2.778   7.302  10.443  1.2550  0.3312 -0.7000
  281MOL0     C36972   2.709   7.177  10.508  0.1288 -0.6454  0.1799
  281MOL0     C36973   2.640   7.197  10.639 -0.5085 -0.1409  0.9766
  281MOL0     C36974   2.487   7.158  10.637  0.7098 -0.3111  0.2314
  281MOL0     C36975   2.398   7.251  10.727 -0.8965  0.9571  0.0310
  281MOL0     C36976   2.252   7.216  10.719 -0.2320 -0.4860  0.1027
  281MOL0     N36977   2.163   7.276  10.824  0.5299 -0.2062  0.0409
  281MOL0     C36978   2.167   7.267  10.956  0.3419 -0.3098 -0.0078
  281MOL0     C36979   2.041   7.291  11.006  0.3482  0.1244  0.3883
  281MOL0     C36980   2.007   7.297  11.156  0.7741  0.2701 -0.0287
  281MOL0     C36981   1.862   7.327  11.199  0.2603  0.6798  1.1452
  281MOL0     C36982   1.852   7.301  11.350  1.0034 -0.0281 -0.6016
  281MOL0     C36983   1.709   7.329  11.415 -0.1160 -0.7955  0.0425
  281MOL0     O36984   1.612   7.264  11.334  0.0968  0.4374 -0.4547
  281MOL0     C36985   1.484   7.249  11.388 -0.4524  0.7648 -0.4104
  281MOL0     C36986   1.402   7.158  11.332  0.3648 -0.0422  0.0910
  281MOL0     C36987   1.267   7.136  11.378 -0.0598 -0.7831 -0.7175
  281MOL0     C36988   1.221   7.208  11.492  0.1972 -0.4369 -0.9259
  281MOL0     C36989   1.090   7.179  11.548  0.4901  0.6301 -0.0668
  281MOL0     O36990   1.017   7.082  11.487 -0.4289 -0.4198 -0.4781
  281MOL0     C36991   0.890   7.052  11.527 -0.2357 -0.0557 -0.2924
  281MOL0     C36992   0.877   6.930  11.594  0.6409 -0.4560 -0.4018
  281MOL0     C36993   0.750   6.896  11.638  0.1608  0.2633 -0.7691
  281MOL0     C36994   0.643   6.986  11.624  0.1564 -0.2547  0.4629
  281MOL0     O36995   0.523   6.952  11.679  0.0203 -0.2780  0.0378
  281MOL0     C36996   0.448   7.062  11.748  0.4956 -0.2028  0.9438
  281MOL0     C36997   0.314   7.024  11.803 -0.6559 -0.9990  0.0234
  281MOL0     C36998   0.339   6.992  11.959  0.7353 -0.9674 -0.4933
  281MOL0     C36999   0.437   6.869  11.983  0.5803 -0.5326  0.6124
  281MOL0     C37000   0.429   6.809  12.124  0.4638  0.1110 -0.8614
  281MOL0     C37001   0.442   6.907  12.245 -0.6263  0.9807  0.8516
  281MOL0     C37002   0.577   6.967  12.260 -0.1059  0.2749  0.6358
  281MOL0     C37003   0.610   7.019  12.402 -0.1034  0.7191  0.1780
  281MOL0    Cl37004   0.513   7.166  12.447  0.2680  0.2994 -0.1576
  281MOL0     C37005   0.650   7.100  11.550 -1.0028 -0.1848  0.1331
  281MOL0     C37006   0.782   7.138  11.506  0.4595  0.0738 -0.5493
  281MOL0     O37007   1.050   7.244  11.650 -0.4942  0.2706  0.7884
  281MOL0     C37008   1.308   7.296  11.552  1.1591 -0.1948 -0.3629
  281MOL0     C37009   1.441   7.316  11.507 -0.3670  0.1706  1.4813
  281MOL0     N37010   1.959   7.326  10.899 -0.1353  0.6801  0.1844
  281MOL0     N37011   2.032   7.310  10.797 -0.3546  0.4883  0.1599
  281MOL0     C37012   3.208   7.377  10.178  0.4620  0.4291 -0.8633
  281MOL0     C37013   3.297   7.440  10.092  0.4906 -1.1827 -0.9092
  281MOL0     C37014   3.625   7.660   9.936 -0.1022  0.4895 -0.6711
  281MOL0     C37015   3.765   7.653   9.956 -0.0386  0.5221 -1.0769
  281MOL0     C37016   3.852   7.687   9.847  0.7171  0.7343  0.5135
  281MOL0     C37017   3.806   7.724   9.718  0.8183  0.0002  0.4119
  281MOL0     O37018   3.890   7.761   9.621 -0.3395 -0.4058  0.1105
  281MOL0     C37019   3.944   7.895   9.636 -0.2727  0.0017  0.0032
  281MOL0     C37020   4.081   7.890   9.579 -0.0992  0.0005  0.0760
  281MOL0     C37021   4.086   7.874   9.423 -0.6482  0.2273 -0.2726
  281MOL0     C37022   4.232   7.869   9.361 -1.1403 -0.2971 -0.2801
  281MOL0     C37023   4.290   7.735   9.396 -0.5410  0.1815 -0.0858
  281MOL0     C37024   4.349   7.629   9.419 -0.2981 -0.9140  0.6343
  281MOL0     C37025   3.665   7.727   9.704 -0.7064  0.5490  1.1453
  281MOL0     C37026   3.581   7.704   9.813  0.1564  0.2609 -0.4613
  281MOL0     H37027   3.244   7.762  10.204  3.2942 -0.0113  0.7108
  281MOL0     H37028   3.084   7.641  10.334 -1.5147  0.6646 -2.8461
  281MOL0     H37029   2.907   7.524  10.403 -0.3914  2.5530  2.0860
  281MOL0     H37030   3.023   7.527  10.522  0.2622  0.8371 -1.5111
  281MOL0     H37031   2.861   7.394  10.622 -1.8124  0.6511 -1.2271
  281MOL0     H37032   2.976   7.284  10.562  1.5837  1.9173 -0.5027
  281MOL0     H37033   2.812   7.275  10.343  1.5311  0.0821 -0.5404
  281MOL0     H37034   2.705   7.382  10.427 -0.3479 -0.4962  1.8022
  281MOL0     H37035   2.632   7.148  10.436  1.0396 -0.7162 -0.7943
  281MOL0     H37036   2.771   7.087  10.511  2.5045  0.8825 -0.2856
  281MOL0     H37037   2.664   7.298  10.674  0.4470  2.2885 -5.3130
  281MOL0     H37038   2.683   7.135  10.717  1.1595 -1.5338 -0.9315
  281MOL0     H37039   2.490   7.059  10.682 -0.8462  0.3234  1.8752
  281MOL0     H37040   2.455   7.153  10.532 -1.6064 -5.3202  0.9107
  281MOL0     H37041   2.437   7.242  10.829  3.4889  1.6535 -1.3682
  281MOL0     H37042   2.408   7.359  10.713  1.2202  1.0998  2.0671
  281MOL0     H37043   2.254   7.107  10.730  1.8133 -0.7750 -2.2514
  281MOL0     H37044   2.215   7.242  10.620 -2.4673 -0.3710  0.9183
  281MOL0     H37045   2.257   7.234  11.009  0.7402  0.3463 -0.2663
  281MOL0     H37046   2.069   7.374  11.202  1.7207 -1.2740  1.3822
  281MOL0     H37047   2.024   7.195  11.190 -2.5995 -0.4599 -0.2145
  281MOL0     H37048   1.796   7.261  11.142  0.1872  0.9825  0.8766
  281MOL0     H37049   1.849   7.432  11.170 -1.0325  0.2219 -0.0254
  281MOL0     H37050   1.866   7.193  11.360 -0.7743 -0.3541 -1.2616
  281MOL0     H37051   1.925   7.349  11.416  0.9436 -2.2395  1.2001
  281MOL0     H37052   1.692   7.437  11.405  3.2484 -0.3647 -4.0335
  281MOL0     H37053   1.698   7.302  11.520 -3.5340  2.5774  0.7511
  281MOL0     H37054   1.429   7.107  11.240 -1.5260 -0.9897  0.0185
  281MOL0     H37055   1.204   7.064  11.328 -1.3983 -0.0537 -0.1218
  281MOL0     H37056   0.964   6.865  11.587 -0.0144 -1.5116  0.7251
  281MOL0     H37057   0.734   6.802  11.691 -1.0644  1.4661  1.0903
  281MOL0     H37058   0.440   7.143  11.674  5.0145  1.8829  2.4273
  281MOL0     H37059   0.510   7.104  11.827  6.0338 -1.6932 -2.1173
  281MOL0     H37060   0.275   6.941  11.743 -2.8120 -0.4333  0.5580
  281MOL0     H37061   0.246   7.106  11.781  0.8174  0.1402 -0.4575
  281MOL0     H37062   0.243   6.968  12.005 -0.9681  3.3464 -1.3104
  281MOL0     H37063   0.372   7.080  12.016 -0.7034  0.0406 -1.1795
  281MOL0     H37064   0.424   6.792  11.907 -1.3156 -1.4081  1.7354
  281MOL0     H37065   0.542   6.890  11.963  0.6937 -0.4323  1.2770
  281MOL0     H37066   0.503   6.730  12.139 -1.3080 -1.4027  0.3633
  281MOL0     H37067   0.337   6.753  12.141  0.0000  0.4902 -2.0200
  281MOL0     H37068   0.421   6.847  12.335 -0.1246 -1.4533 -0.5761
  281MOL0     H37069   0.371   6.991  12.244 -0.2141  1.3897  2.6103
  281MOL0     H37070   0.654   6.902  12.217 -0.5240  2.1199 -3.2804
  281MOL0     H37071   0.581   7.053  12.193  1.3381 -0.3664 -0.1591
  281MOL0     H37072   0.718   7.032  12.416  0.0247 -0.6789  0.5809
  281MOL0     H37073   0.593   6.935  12.470  0.2943  0.8245  0.4126
  281MOL0     H37074   0.562   7.156  11.518 -2.0554 -1.0601  1.4028
  281MOL0     H37075   0.799   7.233  11.456 -0.5613 -0.0721 -1.1975
  281MOL0     H37076   1.284   7.318  11.656  0.2102 -1.4624 -0.2974
  281MOL0     H37077   1.500   7.393  11.556  0.9110 -0.4777  1.0063
  281MOL0     H37078   3.203   7.268  10.177  2.0546  0.3365 -0.3144
  281MOL0     H37079   3.358   7.374  10.032  0.9585 -1.2897 -0.3223
  281MOL0     H37080   3.803   7.604  10.045 -1.8528  0.4663 -0.2795
  281MOL0     H37081   3.959   7.680   9.861  0.9004  2.1654  0.0990
  281MOL0     H37082   3.939   7.919   9.742 -0.1996  1.7994 -0.3613
  281MOL0     H37083   3.880   7.962   9.578 -1.5016 -0.7740  0.4175
  281MOL0     H37084   4.137   7.977   9.612  1.9386 -1.1342 -0.2178
  281MOL0     H37085   4.136   7.804   9.618  0.7776  1.6644  2.8157
  281MOL0     H37086   4.017   7.946   9.378 -0.6810 -0.1483 -0.8325
  281MOL0     H37087   4.044   7.775   9.402 -1.1630 -0.1383  2.1386
  281MOL0     H37088   4.212   7.872   9.253 -1.0564 -1.3104 -0.3400
  281MOL0     H37089   4.304   7.948   9.382 -1.4452  1.0108 -3.5300
  281MOL0     H37090   4.383   7.529   9.433  1.4329 -0.5933 -0.9111
  281MOL0     H37091   3.621   7.765   9.613  0.7228  0.5491  0.4181
  281MOL0     H37092   3.474   7.716   9.798  0.0560  0.5186  0.4025
  282MOL0     O37093   5.372  10.580   9.997  0.3011  0.1525  0.0588
  282MOL0     C37094   5.279  10.535  10.066  0.0117 -0.4531 -0.2109
  282MOL0     O37095   5.295  10.443  10.160 -0.2695  0.2885  0.8381
  282MOL0     C37096   5.418  10.396  10.197  0.1490 -0.5140 -0.5667
  282MOL0     C37097   5.449  10.387  10.329  0.6677 -0.1377  0.4676
  282MOL0     C37098   5.565  10.348  10.380  0.5987 -0.5781  0.7847
  282MOL0     C37099   5.672  10.330  10.295 -0.5923  0.5395  1.2192
  282MOL0     O37100   5.805  10.318  10.328  0.6463 -0.2948  0.1368
  282MOL0     C37101   5.843  10.372  10.458  1.0758 -1.2754 -0.0394
  282MOL0     C37102   5.997  10.409  10.440 -0.7552  0.3576 -0.7287
  282MOL0     C37103   6.092  10.285  10.426  0.6256 -0.6430  0.0365
  282MOL0     C37104   6.239  10.329  10.425 -0.6210 -0.6566 -0.1626
  282MOL0     C37105   6.312  10.325  10.573 -0.5378  0.5512  0.1192
  282MOL0     C37106   6.439  10.402  10.567 -0.8777  0.9708 -0.5985
  282MOL0     C37107   6.541  10.361  10.673 -0.7172 -0.8358  0.2866
  282MOL0     C37108   6.606  10.227  10.646  0.4717  0.5669  0.2272
  282MOL0     N37109   6.724  10.201  10.726  0.3687  0.2289 -0.2601
  282MOL0     C37110   6.849  10.274  10.722 -0.1339  0.2029  0.5239
  282MOL0     C37111   6.932  10.186  10.777 -0.7183 -0.3522  0.8264
  282MOL0     C37112   7.080  10.211  10.805 -0.4771  0.4256  0.3986
  282MOL0     C37113   7.179  10.189  10.693  0.1111 -0.4565 -0.0892
  282MOL0     C37114   7.321  10.235  10.715 -0.6375  1.1883 -0.7834
  282MOL0     C37115   7.403  10.226  10.583  0.2814  0.2893  0.5642
  282MOL0     O37116   7.390  10.095  10.526  0.3916  0.5644  0.0657
  282MOL0     C37117   7.477  10.058  10.434  0.6108 -0.2437  0.1755
  282MOL0     C37118   7.534  10.149  10.342 -0.2023  0.0062 -0.9866
  282MOL0     C37119   7.621  10.108  10.244  0.5544 -0.4192  0.3389
  282MOL0     C37120   7.654   9.969  10.233 -0.1078 -0.0366  0.6615
  282MOL0     C37121   7.757   9.943  10.137 -0.5146  0.3020  0.2860
  282MOL0     O37122   7.805   9.814  10.155  0.2248  0.2263  0.5561
  282MOL0     C37123   7.869   9.758  10.053 -1.3753  0.3191 -0.5549
  282MOL0     C37124   7.997   9.706  10.062  0.3462 -0.4507 -0.4975
  282MOL0     C37125   8.039   9.629   9.954  0.0213  0.1095  0.4115
  282MOL0     C37126   7.960   9.606   9.841 -0.6332  0.1703 -0.5657
  282MOL0     O37127   8.016   9.518   9.744  0.0846  0.1093  0.3435
  282MOL0     C37128   7.991   9.545   9.609 -0.0693  0.0657  0.6857
  282MOL0     C37129   8.085   9.653   9.553  0.0329 -0.4983 -0.2860
  282MOL0     C37130   8.235   9.617   9.560 -1.0925 -0.2849  0.3997
  282MOL0     C37131   8.317   9.737   9.508 -0.1795  0.3813  0.0197
  282MOL0     C37132   8.462   9.698   9.493  0.1467 -0.1539  0.6257
  282MOL0     C37133   8.554   9.785   9.416 -0.0065 -0.2419 -0.6088
  282MOL0     C37134   8.688   9.716   9.406 -1.3282  0.1789  0.9347
  282MOL0     C37135   8.802   9.821   9.392 -0.0418  0.2181 -0.0050
  282MOL0    Cl37136   8.827   9.910   9.546  0.3554  0.5732  0.1566
  282MOL0     C37137   7.842   9.674   9.826  0.2684 -0.1158 -0.6715
  282MOL0     C37138   7.794   9.754   9.932  0.0439  0.0865  0.9038
  282MOL0     O37139   7.799  10.027  10.055  0.7455 -0.2725 -0.5698
  282MOL0     C37140   7.572   9.877  10.304 -0.1661 -0.6611 -0.4150
  282MOL0     C37141   7.485   9.920  10.401  0.2862 -1.3024 -0.3337
  282MOL0     N37142   6.866  10.064  10.809  0.5513  0.3223  0.6786
  282MOL0     N37143   6.737  10.076  10.785 -0.5283  0.0721 -0.3854
  282MOL0     C37144   5.647  10.326  10.159 -0.1893  0.4850  0.9494
  282MOL0     C37145   5.523  10.357  10.107  0.8750 -0.2852  0.8279
  282MOL0     C37146   5.136  10.566  10.018 -0.9349 -0.0310  0.5649
  282MOL0     C37147   5.022  10.513  10.084  0.0139  0.0015 -0.5907
  282MOL0     C37148   4.890  10.544  10.045 -0.8102 -0.3712 -0.2122
  282MOL0     C37149   4.869  10.627   9.931  0.3825 -0.0332 -0.7379
  282MOL0     O37150   4.742  10.643   9.870 -0.3880  0.5315  0.1249
  282MOL0     C37151   4.658  10.535   9.851  0.9747  0.0496  0.5189
  282MOL0     C37152   4.562  10.546   9.741  0.4880 -0.0169  0.4692
  282MOL0     C37153   4.461  10.651   9.756  0.3493  0.0096  0.1938
  282MOL0     C37154   4.359  10.620   9.871 -0.1205 -0.5587 -0.5025
  282MOL0     C37155   4.259  10.728   9.883  0.4038 -0.1859 -0.3141
  282MOL0     C37156   4.173  10.810   9.882  0.6887  0.1685  0.0625
  282MOL0     C37157   4.985  10.687   9.879  0.7190  0.4380  0.5077
  282MOL0     C37158   5.111  10.657   9.913 -0.2474 -0.0622 -0.9919
  282MOL0     H37159   5.364  10.423  10.386 -0.2177  2.0518 -2.0310
  282MOL0     H37160   5.575  10.349  10.488  1.3967  1.6217  0.7330
  282MOL0     H37161   5.834  10.296  10.537 -1.3101  1.8154  2.9594
  282MOL0     H37162   5.791  10.460  10.498  2.1942 -0.0413 -1.1837
  282MOL0     H37163   6.026  10.472  10.525 -0.5635  0.5699 -0.9528
  282MOL0     H37164   6.011  10.462  10.346  2.3658 -2.7620 -2.2228
  282MOL0     H37165   6.073  10.243  10.327  0.6050 -0.8782  0.1395
  282MOL0     H37166   6.064  10.214  10.505 -0.6359 -0.2301 -0.0127
  282MOL0     H37167   6.292  10.257  10.363 -0.6804  1.1636 -2.4350
  282MOL0     H37168   6.249  10.431  10.386  1.2537  0.5529  3.0728
  282MOL0     H37169   6.324  10.223  10.611  1.0141  0.8602  0.5291
  282MOL0     H37170   6.244  10.378  10.641 -0.9276 -1.0496  1.0217
  282MOL0     H37171   6.416  10.508  10.577 -3.2728  0.9522 -3.8633
  282MOL0     H37172   6.491  10.386  10.472  0.0629  0.7220 -0.0554
  282MOL0     H37173   6.622  10.433  10.675 -0.0165 -1.6212  1.8450
  282MOL0     H37174   6.501  10.355  10.774  0.7488  0.0078  0.9437
  282MOL0     H37175   6.620  10.222  10.537 -3.0395  0.1838 -0.2991
  282MOL0     H37176   6.529  10.151  10.663  1.2074 -0.8001 -1.9913
  282MOL0     H37177   6.873  10.371  10.679 -1.1173  0.5702  0.7916
  282MOL0     H37178   7.099  10.134  10.881  2.8855 -0.3237 -1.0505
  282MOL0     H37179   7.091  10.309  10.852 -0.5783  2.6660 -3.8129
  282MOL0     H37180   7.147  10.256  10.613  0.4521  2.1807  1.8559
  282MOL0     H37181   7.169  10.085  10.659 -2.5976 -1.1804  2.5763
  282MOL0     H37182   7.339  10.334  10.756  0.6153  0.7794 -0.3171
  282MOL0     H37183   7.360  10.169  10.793 -0.4468  0.3403 -1.5742
  282MOL0     H37184   7.506  10.250  10.612  0.4968 -2.2244  2.2379
  282MOL0     H37185   7.363  10.300  10.513 -0.8984 -2.1613 -1.5444
  282MOL0     H37186   7.504  10.252  10.355  3.5415  1.0893  0.4220
  282MOL0     H37187   7.672  10.186  10.189  0.1560 -1.1521 -1.1291
  282MOL0     H37188   8.065   9.722  10.146 -1.3036 -0.5282  0.8980
  282MOL0     H37189   8.136   9.582   9.962 -1.3947 -2.6687  3.3412
  282MOL0     H37190   7.890   9.587   9.595  0.7379  2.3027  1.2588
  282MOL0     H37191   7.991   9.457   9.544  1.7268 -0.5658  1.4817
  282MOL0     H37192   8.072   9.749   9.605  1.7298 -0.5593  0.3115
  282MOL0     H37193   8.052   9.670   9.450 -3.2885  1.4120  0.9347
  282MOL0     H37194   8.245   9.528   9.498 -3.3693  0.0609 -0.5747
  282MOL0     H37195   8.268   9.598   9.663  1.2769  1.0978 -0.0293
  282MOL0     H37196   8.275   9.758   9.409  0.7302 -0.1652 -0.4827
  282MOL0     H37197   8.303   9.824   9.573  2.4143 -0.0320  1.2513
  282MOL0     H37198   8.468   9.599   9.447 -1.2125 -1.1671  2.4800
  282MOL0     H37199   8.497   9.679   9.595 -1.0393 -0.8381  0.9312
  282MOL0     H37200   8.550   9.885   9.461  0.2196  0.2172 -1.5704
  282MOL0     H37201   8.526   9.802   9.311 -0.4960  1.2760 -0.2570
  282MOL0     H37202   8.698   9.641   9.484 -0.6484  2.9388  3.6706
  282MOL0     H37203   8.689   9.641   9.326  0.0271 -2.5250  3.3288
  282MOL0     H37204   8.788   9.894   9.311 -0.8225 -2.1520 -2.1291
  282MOL0     H37205   8.891   9.765   9.364  0.6612  1.5413 -0.5223
  282MOL0     H37206   7.783   9.672   9.735  1.2836  2.9156 -1.4986
  282MOL0     H37207   7.694   9.796   9.931  1.2800  3.3455  1.7326
  282MOL0     H37208   7.590   9.772  10.283 -2.3230 -0.7358 -2.3529
  282MOL0     H37209   7.419   9.856  10.457  1.4046  0.9408  4.0591
  282MOL0     H37210   5.730  10.310  10.091 -0.5345 -0.3833  0.7190
  282MOL0     H37211   5.514  10.372   9.999 -0.4538 -0.3127  0.9157
  282MOL0     H37212   5.029  10.439  10.163 -0.6005 -3.1705 -3.2517
  282MOL0     H37213   4.804  10.504  10.097  1.0870 -1.5485  2.2589
  282MOL0     H37214   4.608  10.522   9.947 -0.9702  2.8681  0.0128
  282MOL0     H37215   4.717  10.448   9.821 -0.0742 -0.0844 -1.3136
  282MOL0     H37216   4.606  10.538   9.641  0.1284 -2.3746  0.4363
  282MOL0     H37217   4.499  10.458   9.753  0.3195 -0.0320 -0.4898
  282MOL0     H37218   4.409  10.665   9.661  1.2225  2.9896  0.0749
  282MOL0     H37219   4.510  10.745   9.782  1.1601 -1.0889  3.0826
  282MOL0     H37220   4.318  10.519   9.861  1.5810 -1.3615  0.0761
  282MOL0     H37221   4.421  10.615   9.962 -0.6678  1.8522  0.0558
  282MOL0     H37222   4.095  10.883   9.889  0.1736 -0.3595 -0.0573
  282MOL0     H37223   4.971  10.757   9.797 -1.0642  0.8120  1.0950
  282MOL0     H37224   5.205  10.695   9.874  1.4243 -2.3531  0.5328
  283MOL0     O37225   2.530   8.946  10.769 -0.1233  0.4315  0.0908
  283MOL0     C37226   2.509   8.865  10.675  1.1427 -0.4292 -0.0882
  283MOL0     O37227   2.561   8.874  10.553  0.0711  0.3627 -0.5179
  283MOL0     C37228   2.655   8.973  10.532 -0.0117 -0.3238  1.2369
  283MOL0     C37229   2.631   9.101  10.477 -0.0832  0.1004  0.4016
  283MOL0     C37230   2.738   9.198  10.460 -0.8125  0.7212 -0.1826
  283MOL0     C37231   2.870   9.172  10.511  0.0199 -0.2438 -0.5212
  283MOL0     O37232   2.964   9.273  10.490 -0.5957  0.7482  0.1193
  283MOL0     C37233   3.094   9.227  10.453 -0.4326  0.2091 -0.1185
  283MOL0     C37234   3.143   9.272  10.320  0.0092  0.3340  0.3011
  283MOL0     C37235   3.166   9.423  10.303  1.0714  0.3708  0.2636
  283MOL0     C37236   3.310   9.463  10.350  1.2369 -0.6867  0.3585
  283MOL0     C37237   3.332   9.619  10.362 -0.0644 -0.1747 -0.7149
  283MOL0     C37238   3.469   9.652  10.413 -0.6447 -0.0560  0.8764
  283MOL0     C37239   3.480   9.788  10.472 -0.1668  0.0441 -0.3602
  283MOL0     C37240   3.498   9.902  10.362  0.2935  0.0356 -0.0156
  283MOL0     N37241   3.533  10.034  10.409 -0.2483 -0.4174  0.2224
  283MOL0     C37242   3.611  10.128  10.348 -1.2699 -0.5523 -0.5330
  283MOL0     C37243   3.625  10.228  10.436 -0.5575 -0.0265 -1.0887
  283MOL0     C37244   3.709  10.355  10.421  0.3527  0.2844  0.5274
  283MOL0     C37245   3.839  10.342  10.486 -0.7652 -0.0629  0.2741
  283MOL0     C37246   3.929  10.458  10.433  0.2555 -0.3928  0.1326
  283MOL0     C37247   4.067  10.435  10.493 -0.3983 -0.3372  0.2395
  283MOL0     O37248   4.156  10.532  10.440 -0.0912 -0.3085 -0.9977
  283MOL0     C37249   4.290  10.501  10.447 -0.4559  0.2235 -0.0856
  283MOL0     C37250   4.358  10.422  10.533  0.2896 -0.0991  0.1144
  283MOL0     C37251   4.495  10.384  10.522 -0.9928 -0.7405  0.9851
  283MOL0     C37252   4.578  10.451  10.425 -0.0661  0.5283 -0.5109
  283MOL0     C37253   4.724  10.430  10.431 -0.0304 -0.5467  0.1810
  283MOL0     O37254   4.778  10.375  10.544 -0.2361 -0.1874  0.2092
  283MOL0     C37255   4.898  10.302  10.529  0.2664  0.8447  0.4246
  283MOL0     C37256   5.019  10.351  10.566 -0.0460 -0.3238 -1.2167
  283MOL0     C37257   5.133  10.275  10.563  1.7989 -0.5534  0.2865
  283MOL0     C37258   5.131  10.137  10.538 -0.0564 -0.4167  0.2137
  283MOL0     O37259   5.255  10.086  10.520 -0.5877  0.0912  0.1380
  283MOL0     C37260   5.279   9.980  10.428 -0.1042  0.6157 -0.7438
  283MOL0     C37261   5.415  10.005  10.349 -1.0163  0.2286  0.0100
  283MOL0     C37262   5.544  10.008  10.433  0.3280 -0.2003  0.3128
  283MOL0     C37263   5.576   9.867  10.494  0.1363  0.2024  0.6766
  283MOL0     C37264   5.706   9.845  10.575 -0.2000  0.0177 -0.0590
  283MOL0     C37265   5.835   9.883  10.505 -0.3159  0.5561 -0.3255
  283MOL0     C37266   5.969   9.890  10.591 -0.2767  0.3224  0.1989
  283MOL0     C37267   6.018   9.753  10.650 -0.0743  0.8665 -0.6732
  283MOL0    Cl37268   6.174   9.776  10.736  0.4976  0.2888 -0.0015
  283MOL0     C37269   5.017  10.083  10.506  0.5526  0.3969  0.2261
  283MOL0     C37270   4.898  10.162  10.500  0.0306 -0.0618 -1.0359
  283MOL0     O37271   4.787  10.471  10.335 -0.1038  0.4867  0.0249
  283MOL0     C37272   4.506  10.531  10.332 -0.5562 -0.1873  0.0146
  283MOL0     C37273   4.365  10.554  10.347 -0.3457  0.3092  0.6115
  283MOL0     N37274   3.580  10.180  10.560  0.0731  0.2878 -0.2062
  283MOL0     N37275   3.513  10.068  10.543  0.2848 -0.1050  0.4723
  283MOL0     C37276   2.887   9.044  10.559  0.9633  0.4213  0.5791
  283MOL0     C37277   2.782   8.944  10.570 -0.2586  0.0271  0.6234
  283MOL0     C37278   2.424   8.752  10.711 -0.4332  0.6722 -0.0409
  283MOL0     C37279   2.334   8.765  10.818 -0.2758  0.5704 -0.7461
  283MOL0     C37280   2.242   8.656  10.861  0.3926 -1.8939 -0.3274
  283MOL0     C37281   2.239   8.542  10.785 -0.1650 -0.4477 -0.5077
  283MOL0     O37282   2.153   8.453  10.838 -0.2603  0.0641 -0.0060
  283MOL0     C37283   2.179   8.314  10.804  0.3197  0.6643  0.3319
  283MOL0     C37284   2.092   8.279  10.680  0.9743 -0.0771  0.3808
  283MOL0     C37285   1.956   8.216  10.699 -0.1803 -0.1524  0.0530
  283MOL0     C37286   1.838   8.299  10.752  0.2305  0.2041  0.2282
  283MOL0     C37287   1.726   8.207  10.784 -0.2444 -0.0960  0.3560
  283MOL0     C37288   1.636   8.136  10.820 -0.9337  0.2827 -0.4983
  283MOL0     C37289   2.333   8.530  10.676  0.5010  0.9013 -0.6346
  283MOL0     C37290   2.437   8.620  10.649  0.7297  0.2971 -0.1936
  283MOL0     H37291   2.534   9.128  10.435  1.8176  1.1102 -3.9271
  283MOL0     H37292   2.720   9.292  10.409  4.0225  2.3011  0.4654
  283MOL0     H37293   3.100   9.118  10.459  2.7209  0.3522  2.9644
  283MOL0     H37294   3.167   9.262  10.527 -0.0971 -0.0493 -0.3255
  283MOL0     H37295   3.068   9.229  10.254  0.2361  0.4401 -0.0288
  283MOL0     H37296   3.235   9.217  10.297  0.6450  1.1079  0.8967
  283MOL0     H37297   3.089   9.466  10.368 -0.0258  0.1148 -0.8197
  283MOL0     H37298   3.152   9.465  10.203 -0.9795  0.9373  0.7508
  283MOL0     H37299   3.314   9.417  10.449  1.6190 -0.4722  0.4432
  283MOL0     H37300   3.371   9.416  10.273 -0.7861  0.9495 -2.4263
  283MOL0     H37301   3.271   9.661  10.443  0.8319  1.4064 -0.8253
  283MOL0     H37302   3.312   9.664  10.264 -1.5867 -1.9005 -1.2562
  283MOL0     H37303   3.528   9.637  10.322 -1.5682 -2.3380  0.5843
  283MOL0     H37304   3.499   9.574  10.483  1.8265 -1.0406 -1.1297
  283MOL0     H37305   3.401   9.810  10.544  1.5183 -1.6222  2.1800
  283MOL0     H37306   3.571   9.779  10.532  1.7545  0.9216 -2.9617
  283MOL0     H37307   3.406   9.910  10.303  0.1888  0.7113  0.2258
  283MOL0     H37308   3.579   9.878  10.294  0.8670 -1.2430  1.0706
  283MOL0     H37309   3.639  10.129  10.243 -0.0787  2.3957 -0.2749
  283MOL0     H37310   3.657  10.431  10.481  0.1040 -0.5888  1.4453
  283MOL0     H37311   3.708  10.381  10.315  0.7928 -0.3106  0.3727
  283MOL0     H37312   3.897  10.252  10.466  3.4019  2.3994  0.1008
  283MOL0     H37313   3.814  10.333  10.592 -1.2789 -3.7137 -0.0282
  283MOL0     H37314   3.932  10.456  10.323 -0.0993  0.2048  0.1053
  283MOL0     H37315   3.900  10.561  10.458  0.3025 -0.1444 -0.7854
  283MOL0     H37316   4.093  10.335  10.455 -0.5306  0.9354 -3.6371
  283MOL0     H37317   4.059  10.440  10.602 -0.2551 -0.6743  0.2688
  283MOL0     H37318   4.299  10.363  10.603 -0.2204 -1.3092 -1.2989
  283MOL0     H37319   4.534  10.319  10.599  2.2261 -3.1590 -2.3504
  283MOL0     H37320   5.034  10.456  10.590 -3.6336  0.4509 -1.8394
  283MOL0     H37321   5.229  10.321  10.578  0.4012  3.3374 -1.3772
  283MOL0     H37322   5.199   9.981  10.354 -0.5388  0.1097 -0.2912
  283MOL0     H37323   5.278   9.894  10.496  0.2053  0.8804 -0.3957
  283MOL0     H37324   5.394  10.096  10.292 -1.3642 -0.3034 -0.7244
  283MOL0     H37325   5.427   9.921  10.281 -2.7484  0.0527 -0.1401
  283MOL0     H37326   5.527  10.080  10.513 -0.2183  0.7228 -0.6049
  283MOL0     H37327   5.634  10.039  10.380 -0.2609  0.5175 -0.3079
  283MOL0     H37328   5.494   9.842  10.562  0.5799  1.3630  1.6654
  283MOL0     H37329   5.570   9.786  10.421  0.4070  1.0342 -0.3083
  283MOL0     H37330   5.703   9.742  10.610  0.5791  0.1603  0.4602
  283MOL0     H37331   5.698   9.911  10.662 -0.7414 -0.8147  0.5432
  283MOL0     H37332   5.835   9.973  10.442 -0.2349 -0.7595 -2.3100
  283MOL0     H37333   5.853   9.801  10.435 -0.2801 -1.3868  1.8482
  283MOL0     H37334   6.045   9.923  10.520  0.5647  0.6748  1.2417
  283MOL0     H37335   5.957   9.962  10.673  2.0502  0.0666  0.8239
  283MOL0     H37336   6.019   9.671  10.578  0.4145 -0.6786  1.0401
  283MOL0     H37337   5.942   9.737  10.727  1.1326  0.5841  0.4803
  283MOL0     H37338   5.008   9.976  10.491 -0.4488  0.5193 -0.1348
  283MOL0     H37339   4.803  10.113  10.479 -1.2494  1.1811  1.4153
  283MOL0     H37340   4.561  10.574  10.249 -1.0081 -1.7079 -1.1133
  283MOL0     H37341   4.316  10.614  10.270  0.1024  0.2123  0.2517
  283MOL0     H37342   2.987   9.016  10.590  0.9858 -0.7317 -0.4710
  283MOL0     H37343   2.803   8.843  10.601 -1.3438  0.0986  1.6796
  283MOL0     H37344   2.328   8.860  10.871  1.2463  0.6223 -0.6173
  283MOL0     H37345   2.177   8.682  10.944  0.6345  0.7746 -0.8864
  283MOL0     H37346   2.160   8.261  10.898  2.3115 -0.6103  0.0615
  283MOL0     H37347   2.284   8.292  10.787  1.0306  4.5652 -1.3851
  283MOL0     H37348   2.085   8.369  10.618  4.0141 -0.5566 -0.8709
  283MOL0     H37349   2.139   8.207  10.612 -3.4796  0.7049 -4.0925
  283MOL0     H37350   1.970   8.139  10.776 -2.8459 -0.1455  0.6569
  283MOL0     H37351   1.927   8.166  10.607  0.4790 -1.2557  0.4212
  283MOL0     H37352   1.873   8.348  10.844 -0.1084  1.0052 -0.0573
  283MOL0     H37353   1.809   8.370  10.674 -1.8902 -0.9759 -0.1433
  283MOL0     H37354   1.556   8.077  10.860  0.6020 -0.6849  1.3129
  283MOL0     H37355   2.319   8.436  10.623  1.4283  0.2075  0.3021
  283MOL0     H37356   2.508   8.595  10.571  3.6036  0.3302  2.2278
  284MOL0     O37357   6.479   1.619   1.364 -0.2757 -0.3191 -0.4999
  284MOL0     C37358   6.591   1.595   1.404  0.2206  0.4871 -0.5046
  284MOL0     O37359   6.647   1.468   1.421  0.1736  0.6587 -0.0541
  284MOL0     C37360   6.559   1.359   1.399  0.3050  0.0274 -0.6426
  284MOL0     C37361   6.521   1.285   1.517 -0.4615 -0.1788  0.8152
  284MOL0     C37362   6.463   1.160   1.512 -0.9185 -0.0503  0.0333
  284MOL0     C37363   6.424   1.109   1.388  0.0970  0.2153 -0.0647
  284MOL0     O37364   6.366   0.988   1.393 -0.3136  0.4474 -0.0972
  284MOL0     C37365   6.279   0.945   1.287 -0.0537 -0.8399  0.7293
  284MOL0     C37366   6.266   0.795   1.286  0.8075  0.0250 -1.0800
  284MOL0     C37367   6.204   0.731   1.409 -0.3814  0.6135 -0.0573
  284MOL0     C37368   6.048   0.747   1.406 -0.2571  0.3192 -0.3434
  284MOL0     C37369   5.987   0.667   1.522  0.9174 -0.0472 -0.5396
  284MOL0     C37370   5.849   0.714   1.557  0.4201 -0.3567 -0.4983
  284MOL0     C37371   5.812   0.662   1.697 -0.0182 -0.1516 -0.7713
  284MOL0     C37372   5.673   0.706   1.725  0.5578  0.0706 -0.3399
  284MOL0     N37373   5.634   0.668   1.863  0.4866 -0.2759  0.6818
  284MOL0     C37374   5.674   0.716   1.988  0.3950 -0.1079 -0.1718
  284MOL0     C37375   5.628   0.638   2.092  0.8126  0.4227 -0.4189
  284MOL0     C37376   5.636   0.672   2.235 -0.3801 -0.0705 -0.2127
  284MOL0     C37377   5.519   0.630   2.319 -0.2166 -0.1189 -0.3955
  284MOL0     C37378   5.529   0.480   2.373 -0.3418  0.5526  0.2954
  284MOL0     C37379   5.392   0.447   2.437 -0.6200  0.2886  0.5685
  284MOL0     O37380   5.417   0.342   2.531 -1.1054 -0.7411 -0.0889
  284MOL0     C37381   5.318   0.315   2.626 -0.6097  0.0168  0.0470
  284MOL0     C37382   5.194   0.385   2.628 -0.4141 -0.4530 -0.2102
  284MOL0     C37383   5.113   0.365   2.740  0.8662  0.1747 -0.5431
  284MOL0     C37384   5.141   0.277   2.838  0.1453  0.7082  0.1310
  284MOL0     C37385   5.038   0.242   2.940  0.8042  0.7046  0.3738
  284MOL0     O37386   4.926   0.323   2.945  0.3615 -0.1860 -0.6123
  284MOL0     C37387   4.847   0.324   3.058 -0.0089 -0.1427  0.5611
  284MOL0     C37388   4.769   0.215   3.082 -0.0944  0.0670  0.5773
  284MOL0     C37389   4.692   0.207   3.195  0.3117 -0.2561  0.2873
  284MOL0     C37390   4.676   0.320   3.287 -1.4051 -0.7021  0.3214
  284MOL0     O37391   4.600   0.327   3.401  0.0254  0.0615  0.1441
  284MOL0     C37392   4.499   0.233   3.430  0.4361  0.3109 -0.3941
  284MOL0     C37393   4.449   0.253   3.577  0.1997 -0.4170  0.2465
  284MOL0     C37394   4.355   0.370   3.590  0.1045  0.6789  0.6760
  284MOL0     C37395   4.320   0.370   3.737  0.4940 -0.2855 -0.6551
  284MOL0     C37396   4.226   0.480   3.759 -0.0021 -0.5695  0.2567
  284MOL0     C37397   4.097   0.476   3.669  0.4988  0.2778  0.1719
  284MOL0     C37398   3.993   0.595   3.703  0.1758  0.2777 -0.0890
  284MOL0     C37399   3.862   0.579   3.616 -0.0721 -0.3519  0.9542
  284MOL0    Cl37400   3.781   0.425   3.635 -0.3121  0.0186  0.1407
  284MOL0     C37401   4.750   0.430   3.254  0.3653 -0.1262  0.4469
  284MOL0     C37402   4.839   0.436   3.141  0.1273  0.1789 -0.7055
  284MOL0     O37403   5.062   0.144   3.013  0.2591 -0.3393  0.6203
  284MOL0     C37404   5.262   0.198   2.826 -0.3836  1.0042 -0.3534
  284MOL0     C37405   5.345   0.214   2.713 -0.2193  0.4972 -0.2793
  284MOL0     N37406   5.539   0.556   2.026  0.2623 -0.0273  0.2710
  284MOL0     N37407   5.553   0.563   1.900  0.3744  0.0923  0.2784
  284MOL0     C37408   6.468   1.174   1.273  0.1303  0.5118 -0.2477
  284MOL0     C37409   6.536   1.299   1.277  0.1849  0.8296 -1.1832
  284MOL0     C37410   6.670   1.710   1.450  0.1075  0.2811 -0.4196
  284MOL0     C37411   6.630   1.847   1.432 -0.2049 -0.1852 -0.0832
  284MOL0     C37412   6.714   1.951   1.469 -0.0465 -0.4979  0.6007
  284MOL0     C37413   6.838   1.934   1.531 -0.3887 -0.1336 -0.3953
  284MOL0     O37414   6.899   2.046   1.593  0.3469  0.2756 -0.5614
  284MOL0     C37415   7.007   2.025   1.686  0.4555 -0.4393 -0.2110
  284MOL0     C37416   7.001   2.138   1.788  0.0812 -0.1917 -0.4334
  284MOL0     C37417   6.993   2.275   1.722  0.3562 -0.8240  0.0873
  284MOL0     C37418   7.020   2.394   1.815  0.9557 -0.8470 -0.6812
  284MOL0     C37419   6.917   2.417   1.920 -0.1865  0.2473 -0.3361
  284MOL0     C37420   6.829   2.420   2.002  0.0924 -0.0573 -0.8388
  284MOL0     C37421   6.877   1.797   1.551 -0.4952 -0.0518  0.6103
  284MOL0     C37422   6.798   1.686   1.499 -0.8147 -0.8251  1.4177
  284MOL0     H37423   6.552   1.328   1.612 -1.8037  3.9583 -0.3789
  284MOL0     H37424   6.440   1.106   1.604 -0.4219  2.5891  1.8340
  284MOL0     H37425   6.326   0.957   1.189 -1.7950 -1.5601 -0.2459
  284MOL0     H37426   6.184   0.998   1.300 -2.3435 -4.7030  1.3472
  284MOL0     H37427   6.361   0.742   1.273  1.7879  0.9539  1.5845
  284MOL0     H37428   6.204   0.768   1.201 -0.3401  1.6768 -0.8168
  284MOL0     H37429   6.244   0.781   1.498  0.7090 -0.0993 -0.1281
  284MOL0     H37430   6.235   0.626   1.413 -0.3764  0.5904 -0.6252
  284MOL0     H37431   6.030   0.854   1.418  0.4894  0.2637  1.6872
  284MOL0     H37432   6.007   0.721   1.308  1.1268  1.5810 -1.2855
  284MOL0     H37433   6.052   0.689   1.607  3.0855 -0.8254 -1.9054
  284MOL0     H37434   5.989   0.559   1.505 -1.2442  0.0192 -1.5318
  284MOL0     H37435   5.775   0.684   1.483 -1.4581  0.1156  1.1239
  284MOL0     H37436   5.845   0.823   1.564 -1.4428 -0.4374  0.0729
  284MOL0     H37437   5.826   0.557   1.722  0.6603  0.1783  0.2933
  284MOL0     H37438   5.889   0.714   1.756  0.5249  1.5130 -2.7952
  284MOL0     H37439   5.630   0.649   1.642  3.6845 -3.3479  0.1345
  284MOL0     H37440   5.675   0.813   1.705 -1.3713  0.1647 -0.2026
  284MOL0     H37441   5.740   0.800   2.001 -1.3777  1.3368 -0.0897
  284MOL0     H37442   5.642   0.781   2.235  0.8642 -0.1186 -0.1708
  284MOL0     H37443   5.730   0.630   2.272 -0.7082 -0.9327 -0.3309
  284MOL0     H37444   5.425   0.647   2.266 -0.4930  4.2711  1.0674
  284MOL0     H37445   5.508   0.695   2.407  1.1539 -0.7981  0.3137
  284MOL0     H37446   5.542   0.403   2.296 -0.7720 -0.2711  1.0288
  284MOL0     H37447   5.618   0.478   2.436 -0.7820 -1.6748  0.9276
  284MOL0     H37448   5.316   0.423   2.362  0.3977 -0.2749 -0.3205
  284MOL0     H37449   5.353   0.533   2.491 -1.5674 -0.1390  0.5871
  284MOL0     H37450   5.165   0.450   2.546 -2.3169  0.5501  1.1802
  284MOL0     H37451   5.019   0.418   2.751  1.4725  0.8592  1.9050
  284MOL0     H37452   4.770   0.136   3.007  1.5248  2.1185 -1.7062
  284MOL0     H37453   4.639   0.114   3.217 -0.1285  0.3186  1.7685
  284MOL0     H37454   4.537   0.134   3.403  1.6580  0.9192 -0.9630
  284MOL0     H37455   4.416   0.247   3.360  2.0821 -0.9640 -2.7297
  284MOL0     H37456   4.534   0.276   3.641  0.4818 -1.9858  0.4820
  284MOL0     H37457   4.401   0.161   3.612 -0.2689 -0.5339 -0.6801
  284MOL0     H37458   4.266   0.344   3.532  1.2610  3.1486 -2.4650
  284MOL0     H37459   4.396   0.464   3.552  0.6305  0.6409  1.1405
  284MOL0     H37460   4.266   0.279   3.764  1.0755 -0.0351  1.5343
  284MOL0     H37461   4.409   0.375   3.800  0.8395  0.6620 -1.2016
  284MOL0     H37462   4.283   0.570   3.732 -0.3550  0.1886  1.9177
  284MOL0     H37463   4.199   0.480   3.865  1.2402 -0.3082  0.5903
  284MOL0     H37464   4.045   0.382   3.688 -0.3117  0.5851 -0.5040
  284MOL0     H37465   4.104   0.485   3.560 -6.2966 -1.3918 -0.8174
  284MOL0     H37466   3.961   0.578   3.807 -0.1950 -1.4403 -0.4587
  284MOL0     H37467   4.028   0.695   3.676 -0.7302  0.0820 -2.1935
  284MOL0     H37468   3.883   0.595   3.509  0.8818  2.2240  1.4673
  284MOL0     H37469   3.796   0.652   3.665 -0.9455 -1.4360  1.4397
  284MOL0     H37470   4.741   0.521   3.313  1.4172  1.4539 -1.7087
  284MOL0     H37471   4.908   0.520   3.128  1.6765 -0.5068  2.2078
  284MOL0     H37472   5.272   0.127   2.908 -0.0273  0.4977 -0.8342
  284MOL0     H37473   5.434   0.154   2.702 -0.4093 -0.6761  3.3338
  284MOL0     H37474   6.450   1.135   1.174  0.7176 -1.1726  0.2792
  284MOL0     H37475   6.580   1.335   1.184  2.8162 -2.3570 -1.3301
  284MOL0     H37476   6.538   1.871   1.378  0.0337 -0.3984 -0.5926
  284MOL0     H37477   6.699   2.056   1.446 -1.0794 -0.9224 -0.8175
  284MOL0     H37478   7.101   2.020   1.630 -1.3172  0.4943 -3.5225
  284MOL0     H37479   6.995   1.933   1.744  3.8740 -0.8050  0.1409
  284MOL0     H37480   6.916   2.113   1.853  0.0930 -0.8066 -0.6514
  284MOL0     H37481   7.089   2.136   1.853 -0.3975 -1.8762  0.2127
  284MOL0     H37482   6.901   2.296   1.666  0.7503  1.0639  0.0959
  284MOL0     H37483   7.064   2.289   1.640 -2.8910  2.1452 -2.5178
  284MOL0     H37484   7.115   2.393   1.870  0.7652  2.6558 -0.0467
  284MOL0     H37485   7.023   2.489   1.760 -1.0520  0.5160  1.3794
  284MOL0     H37486   6.752   2.413   2.076  1.5256  1.4813  0.9002
  284MOL0     H37487   6.975   1.772   1.591 -0.6721 -1.5535  0.1826
  284MOL0     H37488   6.837   1.585   1.498  2.7609  0.3044 -2.0646
  285MOL0     O37489   8.909   6.086   1.656 -0.0727  0.2434 -0.1296
  285MOL0     C37490   8.851   5.983   1.621  0.1600 -0.2104 -0.3262
  285MOL0     O37491   8.723   5.944   1.669 -0.3258 -0.2589 -0.6518
  285MOL0     C37492   8.680   6.004   1.778  0.2539 -0.2539 -0.4135
  285MOL0     C37493   8.756   6.034   1.889  0.6623 -0.8345  0.4337
  285MOL0     C37494   8.697   6.101   2.006  0.2012 -0.3076 -0.3824
  285MOL0     C37495   8.563   6.136   2.018 -1.2762 -1.0501  0.3998
  285MOL0     O37496   8.521   6.205   2.129  0.5631  0.0876 -0.1060
  285MOL0     C37497   8.384   6.221   2.140 -0.0852 -0.3857  0.5468
  285MOL0     C37498   8.322   6.278   2.264 -0.2767 -0.6025  0.0467
  285MOL0     C37499   8.171   6.279   2.238 -0.6421  0.3118 -0.0616
  285MOL0     C37500   8.075   6.323   2.359  0.4926  0.4637 -0.8578
  285MOL0     C37501   7.927   6.321   2.307  0.4740  0.9986 -0.0733
  285MOL0     C37502   7.844   6.358   2.432  0.5350 -0.3571 -0.0168
  285MOL0     C37503   7.688   6.342   2.416 -0.1094 -0.1215  0.8800
  285MOL0     C37504   7.618   6.375   2.550 -0.2032  0.1529 -0.3004
  285MOL0     N37505   7.666   6.488   2.616 -0.5028 -0.4816  0.2303
  285MOL0     C37506   7.666   6.613   2.553  0.4503  0.0861  1.0848
  285MOL0     C37507   7.758   6.684   2.624 -0.3898 -0.2775  0.3309
  285MOL0     C37508   7.809   6.821   2.592  0.1615  0.4560  1.2501
  285MOL0     C37509   7.971   6.813   2.575  1.1833  0.8535 -0.6707
  285MOL0     C37510   8.036   6.957   2.570  0.4007  0.4421  0.4662
  285MOL0     C37511   8.183   6.959   2.582  0.7685 -1.2869  0.0751
  285MOL0     O37512   8.234   6.866   2.677 -0.0802 -0.2610 -0.1313
  285MOL0     C37513   8.368   6.842   2.694  0.1087 -0.2680 -0.4049
  285MOL0     C37514   8.463   6.919   2.631 -0.2490 -0.2216  0.7789
  285MOL0     C37515   8.601   6.907   2.665 -0.0409  0.1385  0.3762
  285MOL0     C37516   8.648   6.793   2.736  0.2827 -0.2271 -0.4685
  285MOL0     C37517   8.795   6.764   2.753  0.0309  0.7921 -0.5497
  285MOL0     O37518   8.891   6.830   2.679  0.1951 -0.1828  0.5851
  285MOL0     C37519   9.023   6.823   2.727  1.3518 -0.8457 -0.2482
  285MOL0     C37520   9.117   6.741   2.664  0.0120 -0.1530 -0.4178
  285MOL0     C37521   9.249   6.740   2.707  0.3359 -0.0000 -0.8133
  285MOL0     C37522   9.281   6.813   2.828 -0.6987  0.5127  0.5380
  285MOL0     O37523   9.408   6.827   2.870  0.8282 -0.3212  0.6246
  285MOL0     C37524   9.499   6.719   2.852 -0.0920  0.2107  0.1618
  285MOL0     C37525   9.571   6.738   2.717 -0.0532 -0.2749  1.0441
  285MOL0     C37526   9.677   6.632   2.693 -1.0696  0.8884  0.4484
  285MOL0     C37527   9.764   6.651   2.576  0.3482 -0.1546  0.2876
  285MOL0     C37528   9.859   6.533   2.558 -0.4711  0.4400 -0.3939
  285MOL0     C37529   9.909   6.523   2.415 -0.4372 -0.1949 -0.1567
  285MOL0     C37530   9.971   6.382   2.397  0.4076  1.0454 -0.2104
  285MOL0     C37531  10.082   6.347   2.482  0.1754 -1.3920 -0.3728
  285MOL0    Cl37532  10.163   6.197   2.441 -0.4057 -0.5405  0.1722
  285MOL0     C37533   9.189   6.886   2.894  0.2897 -0.5067  0.5465
  285MOL0     C37534   9.062   6.896   2.849 -0.8740  0.7299 -0.4054
  285MOL0     O37535   8.823   6.678   2.835  0.5079  0.1765  0.0927
  285MOL0     C37536   8.544   6.724   2.807 -0.1225  0.1754 -0.5462
  285MOL0     C37537   8.408   6.745   2.783  0.9463 -0.4862 -0.8437
  285MOL0     N37538   7.801   6.600   2.727  1.0201  0.4126  0.3849
  285MOL0     N37539   7.749   6.483   2.715 -1.1041 -0.2030 -0.0751
  285MOL0     C37540   8.489   6.100   1.905 -0.0323  0.1001  0.2290
  285MOL0     C37541   8.549   6.042   1.790  0.9624 -0.4244  0.0204
  285MOL0     C37542   8.913   5.909   1.512  0.2047  0.6959 -0.1972
  285MOL0     C37543   8.843   5.794   1.452 -0.2163 -0.7834  0.4214
  285MOL0     C37544   8.904   5.728   1.341  0.2546  0.6830 -0.6092
  285MOL0     C37545   9.026   5.762   1.283  0.4479  0.2864 -0.3518
  285MOL0     O37546   9.072   5.685   1.183 -0.6035 -0.4499  0.0401
  285MOL0     C37547   9.083   5.736   1.052  0.1037  0.4035 -0.1093
  285MOL0     C37548   8.942   5.740   0.979 -0.4847 -0.1138 -0.1198
  285MOL0     C37549   8.879   5.597   0.983  0.2200  0.1499  0.0751
  285MOL0     C37550   8.720   5.608   0.972  0.3451 -0.1555  0.4264
  285MOL0     C37551   8.675   5.480   0.978 -0.5085  1.1555 -1.0428
  285MOL0     C37552   8.612   5.375   0.993 -0.5959  0.3241 -0.1545
  285MOL0     C37553   9.090   5.874   1.339 -0.4039  0.1734 -0.7262
  285MOL0     C37554   9.031   5.948   1.444 -0.5254  0.4034  0.2383
  285MOL0     H37555   8.860   6.012   1.906  0.8794 -0.5150 -0.3916
  285MOL0     H37556   8.762   6.130   2.088 -1.2794  3.1459 -0.2496
  285MOL0     H37557   8.343   6.120   2.140  0.6287 -0.6867  1.4775
  285MOL0     H37558   8.357   6.278   2.051  1.6192  3.1331  2.0847
  285MOL0     H37559   8.343   6.385   2.278  0.1133 -0.8903  1.9909
  285MOL0     H37560   8.346   6.224   2.356 -2.6352  0.7619  1.5533
  285MOL0     H37561   8.156   6.174   2.214  2.6546  0.3577 -3.1176
  285MOL0     H37562   8.149   6.350   2.158  1.5425  0.9071 -0.2134
  285MOL0     H37563   8.095   6.256   2.443  2.5119  0.9615 -0.9068
  285MOL0     H37564   8.096   6.428   2.381 -1.3347  1.0314 -1.5846
  285MOL0     H37565   7.901   6.233   2.247  0.0466  3.3877 -3.6856
  285MOL0     H37566   7.920   6.398   2.229 -2.1544  2.5105  1.5012
  285MOL0     H37567   7.875   6.458   2.463 -1.7385  0.1215  0.9637
  285MOL0     H37568   7.876   6.286   2.508 -2.9956  0.7682  2.8081
  285MOL0     H37569   7.642   6.405   2.339 -2.2979 -2.3831  0.2256
  285MOL0     H37570   7.666   6.239   2.388  1.3552 -1.0988  3.0574
  285MOL0     H37571   7.621   6.283   2.609 -2.9348 -0.2422 -0.6146
  285MOL0     H37572   7.509   6.386   2.539 -0.4902 -2.1487 -0.3776
  285MOL0     H37573   7.614   6.641   2.462  1.7238 -2.2965 -0.4546
  285MOL0     H37574   7.793   6.889   2.675 -2.0058 -3.0791  4.0152
  285MOL0     H37575   7.772   6.853   2.494  0.7828 -1.4537  0.3340
  285MOL0     H37576   7.984   6.758   2.481 -0.0087  0.6923 -0.7578
  285MOL0     H37577   8.023   6.759   2.654  2.0005  1.9544 -0.4252
  285MOL0     H37578   7.998   7.011   2.482 -0.6398 -0.2929  0.4445
  285MOL0     H37579   8.009   7.018   2.657 -0.4958  0.2151  0.3608
  285MOL0     H37580   8.210   7.064   2.601 -1.6549 -0.1504 -2.0995
  285MOL0     H37581   8.222   6.931   2.484  0.9281  0.7487 -0.5034
  285MOL0     H37582   8.435   6.993   2.557 -0.8349 -1.0433  0.1617
  285MOL0     H37583   8.682   6.964   2.621  0.3691 -1.3473 -0.9093
  285MOL0     H37584   9.095   6.676   2.580 -0.0938  0.6258 -1.0040
  285MOL0     H37585   9.324   6.677   2.661  2.2889  0.6734  1.2356
  285MOL0     H37586   9.438   6.629   2.857 -1.4149  1.1497  3.4187
  285MOL0     H37587   9.564   6.714   2.940  0.9141  0.4313 -0.5469
  285MOL0     H37588   9.615   6.838   2.715 -1.2829  0.2985 -1.2685
  285MOL0     H37589   9.506   6.743   2.629  1.2235  0.5464  0.1172
  285MOL0     H37590   9.619   6.539   2.692  0.0813  0.0484 -2.8628
  285MOL0     H37591   9.744   6.631   2.779 -1.0760 -0.4071  0.4604
  285MOL0     H37592   9.707   6.661   2.484  0.6412  0.8890  0.2105
  285MOL0     H37593   9.825   6.740   2.593  1.1849 -1.1929  3.5450
  285MOL0     H37594   9.814   6.437   2.586  0.4780 -0.0625 -0.5699
  285MOL0     H37595   9.949   6.534   2.620 -0.8722 -2.1049  0.3385
  285MOL0     H37596   9.990   6.593   2.391 -0.9755  0.4753 -0.0366
  285MOL0     H37597   9.831   6.549   2.343  0.8558  0.5552 -1.3349
  285MOL0     H37598   9.897   6.304   2.416  1.3457 -0.3157 -1.8491
  285MOL0     H37599  10.003   6.366   2.294  0.4163  0.0389 -0.0544
  285MOL0     H37600  10.054   6.327   2.586 -0.5760 -2.6393 -0.7774
  285MOL0     H37601  10.149   6.433   2.479 -2.0553  0.4450 -2.7144
  285MOL0     H37602   9.217   6.953   2.974 -0.4120 -0.5491  0.8334
  285MOL0     H37603   8.991   6.955   2.907 -0.2390  0.6778  0.4520
  285MOL0     H37604   8.562   6.633   2.863 -4.0739 -0.6994 -0.4358
  285MOL0     H37605   8.324   6.687   2.820 -0.9665  1.6078 -1.6877
  285MOL0     H37606   8.381   6.112   1.906  0.1697  2.8418  2.0451
  285MOL0     H37607   8.493   6.032   1.698  0.7905  0.0172  0.0767
  285MOL0     H37608   8.742   5.766   1.479 -0.8487 -3.7618 -3.9592
  285MOL0     H37609   8.848   5.655   1.283  0.2705  0.4054 -0.2745
  285MOL0     H37610   9.150   5.668   0.998  1.6890 -0.0254  2.2108
  285MOL0     H37611   9.145   5.826   1.056  0.9822 -0.2070  0.8179
  285MOL0     H37612   8.879   5.813   1.031  3.1021  3.4623 -0.1996
  285MOL0     H37613   8.955   5.773   0.876 -1.1210  0.1052 -0.1296
  285MOL0     H37614   8.892   5.540   1.075 -0.1710  0.4599  0.3243
  285MOL0     H37615   8.915   5.521   0.913  0.5728 -1.8574  2.3343
  285MOL0     H37616   8.690   5.676   1.053  1.7581  1.0815 -0.0391
  285MOL0     H37617   8.683   5.645   0.876  0.8396 -1.7301 -0.3869
  285MOL0     H37618   8.582   5.275   1.017 -1.6826  0.1292 -2.1386
  285MOL0     H37619   9.186   5.901   1.297  0.2223  0.5238  0.8672
  285MOL0     H37620   9.082   6.041   1.466  0.1482 -0.4216  2.3490
  286MOL0     O37621   8.646   2.688   2.447  0.3973 -0.6142 -0.1265
  286MOL0     C37622   8.652   2.619   2.339 -0.1257 -1.3891 -0.3002
  286MOL0     O37623   8.565   2.521   2.299  0.6602 -0.1061 -0.3733
  286MOL0     C37624   8.457   2.489   2.374  0.6692 -0.4847 -0.8376
  286MOL0     C37625   8.378   2.592   2.439  0.1702  0.0213  0.3510
  286MOL0     C37626   8.265   2.563   2.512  0.2845 -0.6546  0.8458
  286MOL0     C37627   8.232   2.430   2.539  0.5389 -0.6549  0.6473
  286MOL0     O37628   8.118   2.402   2.605  0.1952 -0.4528  0.3289
  286MOL0     C37629   8.100   2.425   2.743  0.0976 -0.6995  0.4635
  286MOL0     C37630   7.953   2.451   2.772  0.9064 -0.5584  0.4402
  286MOL0     C37631   7.919   2.534   2.891 -0.5647  0.5412 -0.0660
  286MOL0     C37632   7.764   2.535   2.928  0.5469 -0.1941 -0.6951
  286MOL0     C37633   7.743   2.597   3.077 -0.0837 -0.4316  0.2241
  286MOL0     C37634   7.606   2.559   3.133  0.1394 -0.0819 -0.4925
  286MOL0     C37635   7.585   2.612   3.272 -0.5572  0.4045 -0.1457
  286MOL0     C37636   7.451   2.574   3.330 -0.5331 -0.0874 -0.1898
  286MOL0     N37637   7.408   2.668   3.436  0.0095  0.4866  0.1549
  286MOL0     C37638   7.395   2.631   3.567  0.3190 -0.1975  0.6647
  286MOL0     C37639   7.367   2.744   3.632 -0.6363 -0.1820 -0.9166
  286MOL0     C37640   7.340   2.744   3.780 -0.4342  0.5207 -0.2484
  286MOL0     C37641   7.197   2.703   3.809  0.4127 -0.3585  0.1619
  286MOL0     C37642   7.075   2.788   3.750  0.4499  0.5448  0.2420
  286MOL0     C37643   7.095   2.935   3.783  0.0105  0.1422 -0.4969
  286MOL0     O37644   7.091   2.969   3.919  0.5325  0.2168  0.0678
  286MOL0     C37645   6.965   2.943   3.972  0.3610  0.7036 -0.2486
  286MOL0     C37646   6.839   2.933   3.906  0.2099 -0.0012 -0.3508
  286MOL0     C37647   6.730   2.874   3.970  0.9514  0.1549  0.1090
  286MOL0     C37648   6.732   2.827   4.097 -0.6307 -0.1407 -0.8359
  286MOL0     C37649   6.614   2.781   4.184 -0.6373 -0.0041 -0.1288
  286MOL0     O37650   6.490   2.784   4.110  0.1721  0.1359 -0.2732
  286MOL0     C37651   6.373   2.776   4.187  0.5507  0.2731  0.1733
  286MOL0     C37652   6.256   2.787   4.103 -1.1638  0.4610 -0.1174
  286MOL0     C37653   6.131   2.768   4.159  0.0862 -0.2664 -0.4782
  286MOL0     C37654   6.114   2.735   4.295 -0.5103 -0.4984  1.1343
  286MOL0     O37655   5.996   2.708   4.353  0.3835 -0.3369  0.6166
  286MOL0     C37656   5.930   2.597   4.285 -0.2904 -0.7157 -0.1385
  286MOL0     C37657   5.781   2.613   4.288 -0.3793 -0.0309  0.8173
  286MOL0     C37658   5.711   2.476   4.262 -0.4495  0.3436 -1.1746
  286MOL0     C37659   5.576   2.494   4.324  0.6720 -0.6425  0.5313
  286MOL0     C37660   5.495   2.365   4.300 -0.2240  0.5286 -0.2157
  286MOL0     C37661   5.356   2.369   4.374  0.6595 -1.8272 -0.2880
  286MOL0     C37662   5.245   2.458   4.317 -0.0168  0.4391  0.2410
  286MOL0     C37663   5.143   2.493   4.422  0.1964 -0.8858  0.8698
  286MOL0    Cl37664   5.037   2.618   4.347 -0.6376  0.1040  0.4349
  286MOL0     C37665   6.226   2.729   4.377  0.5082 -0.0824  0.2512
  286MOL0     C37666   6.353   2.756   4.320 -0.3670  0.1286 -0.7331
  286MOL0     O37667   6.641   2.726   4.290  0.4270  0.8717  0.3304
  286MOL0     C37668   6.862   2.833   4.162  0.4261  0.7725 -0.1545
  286MOL0     C37669   6.973   2.886   4.107 -0.2601  0.5436  1.1130
  286MOL0     N37670   7.363   2.849   3.542  0.5999  0.1728 -0.1676
  286MOL0     N37671   7.385   2.800   3.425 -0.6861 -0.1154 -0.5824
  286MOL0     C37672   8.319   2.327   2.488 -0.0123  0.0873 -0.6413
  286MOL0     C37673   8.432   2.353   2.413 -0.6398 -0.1753  0.1505
  286MOL0     C37674   8.762   2.646   2.240  0.3503 -0.2208 -0.0180
  286MOL0     C37675   8.773   2.585   2.110  0.9402 -0.2605 -0.5921
  286MOL0     C37676   8.879   2.602   2.025  0.3765  0.6874  0.5182
  286MOL0     C37677   8.985   2.684   2.065  0.6811  0.6069  0.6639
  286MOL0     O37678   9.093   2.712   1.988 -1.1448 -0.3163  0.3166
  286MOL0     C37679   9.217   2.669   2.054 -0.1380  0.7517 -0.4711
  286MOL0     C37680   9.243   2.521   2.040  0.4976 -0.7609 -0.8259
  286MOL0     C37681   9.256   2.493   1.897  0.0738 -1.1806  0.7720
  286MOL0     C37682   9.277   2.335   1.874 -0.8469  0.3113  0.8372
  286MOL0     C37683   9.355   2.298   1.750  0.6245 -0.7567 -0.8004
  286MOL0     C37684   9.434   2.270   1.659 -0.3029  0.1162  0.3633
  286MOL0     C37685   8.976   2.743   2.192  0.0745  0.0374  0.4488
  286MOL0     C37686   8.875   2.728   2.284  0.1004  0.6513 -0.3298
  286MOL0     H37687   8.395   2.696   2.413 -2.1301 -0.1811 -2.6116
  286MOL0     H37688   8.196   2.642   2.540 -1.2567 -1.9431  0.8292
  286MOL0     H37689   8.159   2.513   2.768 -0.0265 -1.1371  2.5171
  286MOL0     H37690   8.135   2.346   2.810 -0.2990  0.0173  1.5663
  286MOL0     H37691   7.894   2.359   2.783 -1.2989  0.7876  0.4076
  286MOL0     H37692   7.905   2.498   2.686  1.6472 -0.6563 -0.0431
  286MOL0     H37693   7.950   2.636   2.867  0.3455  0.1480 -0.5683
  286MOL0     H37694   7.983   2.498   2.972  0.7282 -0.3476 -1.4431
  286MOL0     H37695   7.708   2.585   2.849 -0.0636 -2.2543 -1.6233
  286MOL0     H37696   7.731   2.431   2.918  1.2712 -0.2245 -3.7223
  286MOL0     H37697   7.756   2.706   3.085 -1.7215 -0.3435  2.5680
  286MOL0     H37698   7.818   2.557   3.146  0.2965  1.9159  1.2973
  286MOL0     H37699   7.594   2.450   3.138  0.9435 -0.1905 -0.8352
  286MOL0     H37700   7.535   2.600   3.061 -0.3661  0.8815  0.5179
  286MOL0     H37701   7.670   2.576   3.330 -0.5030 -0.7700 -0.9052
  286MOL0     H37702   7.575   2.721   3.260 -2.0104  0.9254  4.1577
  286MOL0     H37703   7.454   2.467   3.355  1.2644 -0.1469 -0.4916
  286MOL0     H37704   7.377   2.589   3.251 -1.7251  0.1076  0.9208
  286MOL0     H37705   7.387   2.530   3.606 -1.7139 -0.1817  0.4327
  286MOL0     H37706   7.383   2.829   3.832 -0.1712  1.0470 -1.2905
  286MOL0     H37707   7.401   2.657   3.808  0.6814  0.4892 -2.4781
  286MOL0     H37708   7.192   2.703   3.918 -0.0362 -1.1099  0.1459
  286MOL0     H37709   7.169   2.600   3.785  0.3477 -0.1097 -0.8793
  286MOL0     H37710   7.079   2.773   3.641 -6.4814 -1.8957 -0.2003
  286MOL0     H37711   6.976   2.748   3.773  0.4108  1.0119  0.8944
  286MOL0     H37712   7.035   3.003   3.721 -0.7671 -0.1533 -0.0904
  286MOL0     H37713   7.199   2.954   3.755  0.3297 -0.3586  0.3424
  286MOL0     H37714   6.815   2.961   3.804 -0.6791  0.2090 -0.0950
  286MOL0     H37715   6.636   2.875   3.915  0.9724 -2.9263 -0.2015
  286MOL0     H37716   6.271   2.798   3.997  2.4706  1.2598  0.3604
  286MOL0     H37717   6.046   2.781   4.094  0.6777 -1.7203 -1.5961
  286MOL0     H37718   5.970   2.505   4.329  2.6274  0.8506  0.7852
  286MOL0     H37719   5.954   2.593   4.179  1.0028  0.1195  0.1036
  286MOL0     H37720   5.747   2.696   4.224  1.3404 -1.3633 -2.0416
  286MOL0     H37721   5.769   2.645   4.392  1.2034  2.9556  0.1952
  286MOL0     H37722   5.765   2.399   4.318 -0.0563 -0.8407 -3.1248
  286MOL0     H37723   5.711   2.442   4.159 -0.1797 -0.4200 -0.9255
  286MOL0     H37724   5.574   2.519   4.430 -2.0915  2.6506 -0.0792
  286MOL0     H37725   5.526   2.575   4.268  1.1822 -0.7371 -0.0732
  286MOL0     H37726   5.551   2.279   4.338  1.0175  0.3880 -2.2593
  286MOL0     H37727   5.464   2.352   4.196 -0.5686 -3.3017  0.2429
  286MOL0     H37728   5.373   2.397   4.479  1.1191  2.2169 -1.2596
  286MOL0     H37729   5.312   2.269   4.366  1.6837 -2.2233 -1.1636
  286MOL0     H37730   5.288   2.551   4.278 -4.9321  2.6322 -0.7328
  286MOL0     H37731   5.205   2.408   4.228 -0.3781  2.3234 -0.6996
  286MOL0     H37732   5.191   2.526   4.515  1.0312 -0.4175  0.2860
  286MOL0     H37733   5.085   2.401   4.429  0.2517 -1.4159 -3.2426
  286MOL0     H37734   6.223   2.714   4.485 -2.6932  0.1823  0.2920
  286MOL0     H37735   6.440   2.753   4.384  2.5724 -0.6331 -4.4317
  286MOL0     H37736   6.890   2.796   4.260  4.1292  1.1363 -0.9516
  286MOL0     H37737   7.066   2.888   4.164  1.1424  0.5946 -1.0570
  286MOL0     H37738   8.297   2.227   2.523 -1.4474  1.2779  2.1624
  286MOL0     H37739   8.500   2.279   2.372 -0.1631 -0.3518  1.2231
  286MOL0     H37740   8.696   2.514   2.082 -0.3987  0.2892  1.5509
  286MOL0     H37741   8.858   2.557   1.929 -3.8035  0.8867  1.1387
  286MOL0     H37742   9.214   2.682   2.163 -1.9994 -0.9625 -0.2511
  286MOL0     H37743   9.306   2.722   2.018 -0.7551  0.9998 -1.6525
  286MOL0     H37744   9.333   2.498   2.096 -0.8475 -3.0244  0.5542
  286MOL0     H37745   9.161   2.462   2.082  1.2185  0.3441  2.3470
  286MOL0     H37746   9.341   2.546   1.853 -0.6641 -0.6622 -0.0834
  286MOL0     H37747   9.169   2.518   1.834  2.2558 -0.5257 -2.2100
  286MOL0     H37748   9.329   2.280   1.952  0.0110  0.0123  0.0720
  286MOL0     H37749   9.178   2.289   1.863 -1.1939  1.5276 -2.0570
  286MOL0     H37750   9.491   2.268   1.568  1.4175  0.1064  1.4027
  286MOL0     H37751   9.056   2.811   2.222  1.4007 -0.3416 -2.0047
  286MOL0     H37752   8.887   2.779   2.379  0.2274  0.5454 -0.2895
  287MOL0     O37753   5.688  11.155   1.727 -0.2026  0.2371  0.8542
  287MOL0     C37754   5.571  11.181   1.749 -0.3216 -0.3522  0.0603
  287MOL0     O37755   5.527  11.274   1.837 -0.1121 -0.3612  0.3670
  287MOL0     C37756   5.601  11.340   1.925  0.0233 -0.0686 -0.1404
  287MOL0     C37757   5.703  11.267   1.999  0.3108 -0.3293 -0.4284
  287MOL0     C37758   5.797  11.338   2.072 -0.0733 -0.8845 -0.1824
  287MOL0     C37759   5.783  11.483   2.084 -0.8687  0.2247  0.4832
  287MOL0     O37760   5.865  11.553   2.167 -0.4974 -0.1220 -0.3552
  287MOL0     C37761   6.001  11.572   2.128  0.7797 -0.5050 -0.2652
  287MOL0     C37762   6.001  11.669   2.005 -0.1419  0.1641  0.0971
  287MOL0     C37763   5.947  11.816   2.033  0.1436  0.2194 -0.1000
  287MOL0     C37764   6.063  11.894   2.100  1.0511 -1.1412 -0.6616
  287MOL0     C37765   6.044  12.048   2.120 -0.3055 -0.2740 -0.4024
  287MOL0     C37766   6.147  12.109   2.216  1.4008 -1.1585  0.3084
  287MOL0     C37767   6.123  12.084   2.369 -0.2676  0.1419  0.6970
  287MOL0     C37768   6.023  12.195   2.415 -0.2418 -0.3985 -1.2429
  287MOL0     N37769   5.942  12.161   2.529  0.5509  0.5358 -0.4687
  287MOL0     C37770   5.803  12.193   2.531 -0.2954 -0.0419  0.5452
  287MOL0     C37771   5.760  12.123   2.642  0.1683 -0.2838  1.0619
  287MOL0     C37772   5.621  12.128   2.703 -0.9981  0.6340 -0.1967
  287MOL0     C37773   5.580  11.989   2.748  0.2957 -0.1066  0.3917
  287MOL0     C37774   5.439  11.979   2.805  0.5187 -0.5635  0.7916
  287MOL0     C37775   5.424  11.887   2.931 -0.9706  0.1701 -0.2043
  287MOL0     O37776   5.304  11.914   3.011 -0.1706 -0.3995  0.1725
  287MOL0     C37777   5.276  11.840   3.122 -0.1591 -0.5628 -0.4015
  287MOL0     C37778   5.172  11.885   3.199  0.3392  0.3026  0.1740
  287MOL0     C37779   5.118  11.802   3.309  0.3141 -0.0276  0.0649
  287MOL0     C37780   5.176  11.676   3.338  1.4002  0.3892 -0.3351
  287MOL0     C37781   5.111  11.582   3.432 -0.7711  0.2996  0.2623
  287MOL0     O37782   4.979  11.607   3.441 -0.3309 -0.0633 -0.2889
  287MOL0     C37783   4.908  11.491   3.479 -0.5465  0.4796  1.3528
  287MOL0     C37784   4.878  11.392   3.380  0.0713 -0.3327  0.2760
  287MOL0     C37785   4.809  11.276   3.416  0.3054  1.1111 -0.5686
  287MOL0     C37786   4.770  11.253   3.551  0.1003 -0.6433  0.2552
  287MOL0     O37787   4.733  11.128   3.594 -0.1034 -0.2217 -0.3123
  287MOL0     C37788   4.600  11.096   3.543  0.1620 -0.1370  1.1413
  287MOL0     C37789   4.491  11.160   3.638 -0.3679  0.2827 -0.2889
  287MOL0     C37790   4.360  11.142   3.580  0.8690  1.3954  0.6739
  287MOL0     C37791   4.262  11.194   3.680  0.8439 -0.8069  0.0437
  287MOL0     C37792   4.127  11.242   3.614 -0.0947  0.2987  0.3870
  287MOL0     C37793   4.110  11.396   3.571 -0.1056  0.3147 -0.3419
  287MOL0     C37794   3.965  11.447   3.547  0.3341  0.4212 -0.0715
  287MOL0     C37795   3.936  11.452   3.399  0.8568 -0.3459 -1.0482
  287MOL0    Cl37796   3.759  11.475   3.389  0.0360 -0.0537  0.3697
  287MOL0     C37797   4.797  11.355   3.648 -0.3981  0.3752 -0.7111
  287MOL0     C37798   4.859  11.471   3.607  0.0609  0.5493 -0.5161
  287MOL0     O37799   5.164  11.476   3.466 -0.0381 -0.3844 -0.2476
  287MOL0     C37800   5.283  11.634   3.252  0.0616 -0.6662  0.7813
  287MOL0     C37801   5.341  11.719   3.153  0.4662 -0.4804 -0.7271
  287MOL0     N37802   5.868  12.068   2.703 -0.0973  0.4315 -0.3694
  287MOL0     N37803   5.980  12.088   2.638 -0.8427 -0.3958  0.3739
  287MOL0     C37804   5.680  11.549   2.029 -0.8678 -0.7333 -0.6589
  287MOL0     C37805   5.589  11.480   1.948 -0.3667 -0.0917 -0.1202
  287MOL0     C37806   5.469  11.106   1.674  0.3214 -0.0124 -0.5082
  287MOL0     C37807   5.501  11.033   1.561  0.2028 -0.2191  0.4474
  287MOL0     C37808   5.408  10.966   1.479  0.0767 -0.2941 -0.7064
  287MOL0     C37809   5.275  10.966   1.518 -0.5437  0.7902 -0.7821
  287MOL0     O37810   5.165  10.909   1.456 -0.4303 -0.0821 -0.3868
  287MOL0     C37811   5.181  10.830   1.344 -0.6740 -0.8391  0.6056
  287MOL0     C37812   5.229  10.690   1.373 -0.5659  0.9606 -0.2646
  287MOL0     C37813   5.267  10.608   1.243 -0.0099  0.5551 -1.0111
  287MOL0     C37814   5.370  10.660   1.146 -0.8886  1.0032  0.3043
  287MOL0     C37815   5.507  10.662   1.200 -1.0646 -0.2648 -1.2672
  287MOL0     C37816   5.627  10.664   1.238  0.5846  0.0700 -0.5637
  287MOL0     C37817   5.241  11.042   1.633 -0.2551 -0.1624 -0.0438
  287MOL0     C37818   5.335  11.117   1.705 -0.3086 -0.3725  0.3589
  287MOL0     H37819   5.705  11.158   1.999  0.0196 -0.4047  2.3307
  287MOL0     H37820   5.875  11.293   2.132  0.0311  1.5843  1.7108
  287MOL0     H37821   6.046  11.474   2.116  1.5690 -0.0045 -1.5694
  287MOL0     H37822   6.047  11.629   2.209 -0.3906 -1.4573  1.1220
  287MOL0     H37823   5.947  11.624   1.921 -0.3167  0.7914 -0.1302
  287MOL0     H37824   6.105  11.667   1.971 -0.4214 -1.5198 -0.7195
  287MOL0     H37825   5.852  11.825   2.086 -0.5754  1.5390 -1.5215
  287MOL0     H37826   5.927  11.868   1.938 -0.7178  1.2563  0.6165
  287MOL0     H37827   6.090  11.848   2.196  0.4713  0.9663  0.5846
  287MOL0     H37828   6.155  11.885   2.042  1.3214 -0.0349 -0.4307
  287MOL0     H37829   5.944  12.076   2.154 -0.8748 -1.4002 -1.0689
  287MOL0     H37830   6.055  12.099   2.024  0.3690 -0.0548 -0.2135
  287MOL0     H37831   6.140  12.218   2.203  1.7345 -1.3380 -1.5494
  287MOL0     H37832   6.247  12.077   2.187  1.2037 -0.9385 -0.6385
  287MOL0     H37833   6.089  11.982   2.391 -2.1237  0.5349 -0.1838
  287MOL0     H37834   6.220  12.101   2.416  2.4858 -1.8833 -3.5713
  287MOL0     H37835   5.956  12.206   2.330 -2.2889  1.2858  0.4798
  287MOL0     H37836   6.073  12.288   2.444  2.1071 -1.3806 -1.8357
  287MOL0     H37837   5.732  12.240   2.464 -1.1337 -0.5156  1.0679
  287MOL0     H37838   5.558  12.169   2.623 -2.3422 -0.2868  0.3587
  287MOL0     H37839   5.609  12.197   2.786 -4.3687 -0.6764  0.5419
  287MOL0     H37840   5.650  11.957   2.826 -1.8876 -1.7206  1.7892
  287MOL0     H37841   5.582  11.907   2.675  0.5802 -0.5828  0.9348
  287MOL0     H37842   5.397  12.073   2.843 -1.2267 -2.0847  2.9155
  287MOL0     H37843   5.362  11.942   2.736 -0.0069 -2.6624  2.3804
  287MOL0     H37844   5.517  11.889   2.988 -1.7755 -1.8518  1.2747
  287MOL0     H37845   5.411  11.797   2.871 -0.1668  0.9155 -1.5575
  287MOL0     H37846   5.124  11.981   3.179  0.6890  0.3944 -0.2324
  287MOL0     H37847   5.028  11.834   3.361 -1.0731  0.3184 -2.3960
  287MOL0     H37848   4.928  11.404   3.284  1.4651  0.5726  1.0705
  287MOL0     H37849   4.797  11.196   3.344  1.7662 -0.3510  0.7294
  287MOL0     H37850   4.586  10.988   3.535  1.9105 -0.5510  2.9342
  287MOL0     H37851   4.594  11.132   3.440  0.2226 -0.5176  1.0039
  287MOL0     H37852   4.497  11.269   3.642 -4.7504  0.8637 -2.7882
  287MOL0     H37853   4.504  11.117   3.737 -1.7454  1.5464  0.4753
  287MOL0     H37854   4.333  11.036   3.579  0.5277  1.4566 -1.6299
  287MOL0     H37855   4.354  11.198   3.486 -1.3426  0.6505  0.2943
  287MOL0     H37856   4.226  11.116   3.748 -0.1449 -1.5430 -1.2696
  287MOL0     H37857   4.292  11.281   3.740 -0.5871  0.6285 -1.2223
  287MOL0     H37858   4.051  11.222   3.689  2.2023 -2.8583  2.1189
  287MOL0     H37859   4.105  11.179   3.527 -1.5236  1.1513  0.1103
  287MOL0     H37860   4.180  11.427   3.493 -0.4556  0.5884 -0.5501
  287MOL0     H37861   4.153  11.446   3.658 -0.4858  0.2191 -0.0951
  287MOL0     H37862   3.892  11.386   3.600 -0.3528  1.7571  0.5697
  287MOL0     H37863   3.946  11.543   3.595  0.1008  0.1920  0.3046
  287MOL0     H37864   3.968  11.360   3.348  2.4551  0.0831 -0.8621
  287MOL0     H37865   3.983  11.544   3.365  1.4516 -0.1802  0.1668
  287MOL0     H37866   4.773  11.351   3.754 -1.9503 -0.6917 -1.0716
  287MOL0     H37867   4.881  11.554   3.674 -0.6212  1.5495 -1.5063
  287MOL0     H37868   5.308  11.528   3.257  2.7914 -0.0998  0.5413
  287MOL0     H37869   5.416  11.684   3.082  0.4502  0.9129 -1.4686
  287MOL0     H37870   5.662  11.655   2.050  0.7534 -0.6503  0.4902
  287MOL0     H37871   5.515  11.540   1.897  0.8139  3.2455  1.7514
  287MOL0     H37872   5.601  11.036   1.519  0.2654 -1.0033  0.5182
  287MOL0     H37873   5.444  10.912   1.393  1.6243  0.0849 -0.3206
  287MOL0     H37874   5.247  10.883   1.274 -0.3814 -1.3155  0.5101
  287MOL0     H37875   5.084  10.822   1.295 -0.5551  0.6039  0.0852
  287MOL0     H37876   5.316  10.681   1.440 -2.2960 -1.0028  1.8604
  287MOL0     H37877   5.154  10.629   1.424  0.6658  0.7828  1.4105
  287MOL0     H37878   5.174  10.600   1.187  0.0369  1.8144 -1.2899
  287MOL0     H37879   5.296  10.510   1.282  1.1653  1.7931  1.5136
  287MOL0     H37880   5.356  10.586   1.066 -1.0151  3.2157 -1.8116
  287MOL0     H37881   5.343  10.755   1.098 -1.1191  1.0550  0.5383
  287MOL0     H37882   5.732  10.663   1.257  0.5816 -0.5152 -0.5418
  287MOL0     H37883   5.139  11.051   1.669 -0.0352  1.6766  0.2226
  287MOL0     H37884   5.300  11.179   1.787 -0.6693 -1.9847  1.4866
  288MOL0     O37885   8.875   8.401   3.256 -0.1867  0.5369  0.0865
  288MOL0     C37886   8.924   8.299   3.210 -0.4006 -0.0751  1.0703
  288MOL0     O37887   8.861   8.198   3.146 -0.6141  0.8278  0.3483
  288MOL0     C37888   8.731   8.184   3.188 -0.7300  0.2466 -0.2314
  288MOL0     C37889   8.623   8.215   3.100 -0.2798  1.2609 -0.3179
  288MOL0     C37890   8.490   8.189   3.143  0.1289 -0.0539 -0.4304
  288MOL0     C37891   8.458   8.137   3.261 -0.4995  0.6840 -0.4010
  288MOL0     O37892   8.335   8.101   3.304  0.1606  0.3685 -0.0113
  288MOL0     C37893   8.290   7.973   3.259  0.0397  0.6333  0.6113
  288MOL0     C37894   8.252   7.890   3.380 -0.1973  0.4571 -0.2478
  288MOL0     C37895   8.216   7.741   3.349 -0.1382 -0.0874 -0.6786
  288MOL0     C37896   8.191   7.652   3.464 -0.5584 -0.2712 -0.2147
  288MOL0     C37897   8.112   7.707   3.586 -1.2910  0.8630 -0.1514
  288MOL0     C37898   7.968   7.723   3.548  0.4621 -0.1019 -0.1693
  288MOL0     C37899   7.883   7.611   3.503 -0.1330 -0.7760 -0.3190
  288MOL0     C37900   7.858   7.519   3.625  0.0845 -0.0271  0.0196
  288MOL0     N37901   7.751   7.432   3.613  1.0894  0.1156  0.5875
  288MOL0     C37902   7.735   7.332   3.524 -0.1145  0.2989  0.4775
  288MOL0     C37903   7.613   7.272   3.548  0.2120 -0.0474  0.7831
  288MOL0     C37904   7.548   7.157   3.467  0.5850 -0.3682  1.4496
  288MOL0     C37905   7.551   7.201   3.318 -0.8199  0.4344 -0.3128
  288MOL0     C37906   7.454   7.131   3.226  0.0579 -0.0136 -0.0746
  288MOL0     C37907   7.473   7.159   3.074 -0.6712  0.1577 -0.2731
  288MOL0     O37908   7.358   7.117   3.001  0.3208  1.2973 -0.2906
  288MOL0     C37909   7.352   6.999   2.928 -0.4306 -0.0464 -0.2625
  288MOL0     C37910   7.221   6.967   2.893 -0.4233 -0.3852 -0.4882
  288MOL0     C37911   7.191   6.843   2.824 -0.0068 -0.5740  0.0755
  288MOL0     C37912   7.291   6.767   2.777 -1.2239 -0.2485  0.0884
  288MOL0     C37913   7.263   6.659   2.693 -0.0529 -0.7019 -0.5394
  288MOL0     O37914   7.134   6.632   2.650 -0.2338  0.1427 -0.4705
  288MOL0     C37915   7.095   6.541   2.559 -0.3546 -0.0055  0.2588
  288MOL0     C37916   6.967   6.555   2.503  0.5079 -0.8269 -0.8152
  288MOL0     C37917   6.918   6.472   2.407 -0.1127  0.4912 -0.3729
  288MOL0     C37918   6.994   6.368   2.363 -0.1533 -0.7767 -0.2934
  288MOL0     O37919   6.946   6.289   2.260 -0.0694 -0.1281  0.1868
  288MOL0     C37920   6.915   6.153   2.293  0.8404  0.6461 -0.3075
  288MOL0     C37921   6.825   6.083   2.197  0.2735  0.2194  0.3362
  288MOL0     C37922   6.692   6.147   2.188 -0.2621  0.0165  0.1954
  288MOL0     C37923   6.590   6.043   2.127  0.3711 -1.0493 -1.0373
  288MOL0     C37924   6.451   6.101   2.097  0.0949  0.6149  0.3864
  288MOL0     C37925   6.366   5.990   2.038  0.0489  0.0875  0.3942
  288MOL0     C37926   6.225   6.034   2.009  0.5421  0.6480 -0.2023
  288MOL0     C37927   6.140   5.910   1.966  0.2822  0.1577  0.3419
  288MOL0    Cl37928   5.987   5.941   1.879  0.1425  0.2158 -0.2513
  288MOL0     C37929   7.121   6.352   2.413 -1.1883  0.4086 -1.0888
  288MOL0     C37930   7.175   6.429   2.518 -0.5043 -1.1388 -0.1135
  288MOL0     O37931   7.360   6.604   2.654  0.6342 -0.7232  1.0461
  288MOL0     C37932   7.425   6.806   2.817  0.2551  0.0884  0.3557
  288MOL0     C37933   7.454   6.919   2.891 -0.7559 -1.1029  1.0004
  288MOL0     N37934   7.561   7.346   3.658  0.3133  0.0349 -0.5250
  288MOL0     N37935   7.653   7.432   3.703  0.4209  0.0373 -0.0961
  288MOL0     C37936   8.565   8.106   3.346  0.0412 -0.0338 -0.5307
  288MOL0     C37937   8.704   8.132   3.318  0.0725  0.0391 -0.4297
  288MOL0     C37938   9.071   8.298   3.204 -0.1246  0.0113  0.7342
  288MOL0     C37939   9.145   8.404   3.261 -0.0921  1.0602 -0.2482
  288MOL0     C37940   9.286   8.405   3.261 -0.2303 -0.2432 -0.5677
  288MOL0     C37941   9.359   8.298   3.205  0.8734 -0.0019  0.2930
  288MOL0     O37942   9.497   8.317   3.207 -0.4310  0.2871  0.8759
  288MOL0     C37943   9.576   8.213   3.137  1.1106  0.2311 -0.1639
  288MOL0     C37944   9.724   8.261   3.146 -0.9517 -0.2172  0.8750
  288MOL0     C37945   9.822   8.152   3.099 -0.0092  0.9447  0.3547
  288MOL0     C37946   9.957   8.210   3.059 -0.1189 -0.7882  0.4196
  288MOL0     C37947  10.033   8.116   2.975  0.9428 -0.4545 -0.5921
  288MOL0     C37948  10.090   8.033   2.907 -0.1688 -0.5971  0.4969
  288MOL0     C37949   9.290   8.192   3.149 -0.4313 -0.3062 -0.1970
  288MOL0     C37950   9.144   8.196   3.143 -0.5135  0.4611 -0.7594
  288MOL0     H37951   8.637   8.263   3.004  0.4630  0.1189 -0.8047
  288MOL0     H37952   8.408   8.235   3.089 -1.0191  0.8422  1.9016
  288MOL0     H37953   8.371   7.919   3.208  0.3818 -0.3174  2.0938
  288MOL0     H37954   8.210   7.987   3.187  1.1348  0.9497 -0.5908
  288MOL0     H37955   8.157   7.935   3.412 -0.4660 -1.2684  1.5787
  288MOL0     H37956   8.333   7.904   3.453 -0.0587  0.8946 -0.4817
  288MOL0     H37957   8.300   7.699   3.293  1.0773  1.1826  0.1432
  288MOL0     H37958   8.124   7.742   3.290  0.9673  0.8417 -2.4626
  288MOL0     H37959   8.155   7.553   3.434  0.5360 -0.8107  0.2262
  288MOL0     H37960   8.290   7.615   3.494 -0.2293  1.8971  1.6275
  288MOL0     H37961   8.159   7.801   3.616 -0.9255  1.1206 -1.4359
  288MOL0     H37962   8.116   7.638   3.670 -0.8193  1.4061  0.2819
  288MOL0     H37963   7.972   7.793   3.465 -2.9310  1.3270  0.6829
  288MOL0     H37964   7.920   7.770   3.634  2.3740 -2.1577  2.1950
  288MOL0     H37965   7.793   7.651   3.456 -0.5043 -0.1963  0.8314
  288MOL0     H37966   7.934   7.554   3.425  1.5151  1.1411 -0.7224
  288MOL0     H37967   7.849   7.580   3.716 -1.1595  0.8102 -0.6445
  288MOL0     H37968   7.949   7.463   3.648 -0.7588 -0.3326  3.1486
  288MOL0     H37969   7.801   7.297   3.446 -0.5229  0.3128  0.1250
  288MOL0     H37970   7.446   7.146   3.505 -0.6903  3.6480 -0.2087
  288MOL0     H37971   7.611   7.069   3.475 -1.0226 -1.8052 -0.6938
  288MOL0     H37972   7.654   7.184   3.286  0.7915  2.2895  3.2493
  288MOL0     H37973   7.528   7.308   3.326 -1.1463  0.2325  2.2955
  288MOL0     H37974   7.453   7.022   3.236 -3.7020 -0.0933 -0.0542
  288MOL0     H37975   7.353   7.162   3.253  0.4340  3.3573 -2.0559
  288MOL0     H37976   7.561   7.114   3.027  0.0135  1.0361  0.1398
  288MOL0     H37977   7.488   7.266   3.058  2.6122 -0.1003  0.3582
  288MOL0     H37978   7.144   7.035   2.930  0.2349  1.2862 -2.0168
  288MOL0     H37979   7.088   6.818   2.800  0.6207 -1.8711 -1.4221
  288MOL0     H37980   6.911   6.639   2.542 -0.3128 -2.4442  1.7358
  288MOL0     H37981   6.818   6.482   2.364 -0.8965 -1.2478  0.9368
  288MOL0     H37982   6.874   6.147   2.394  1.3421  0.1708 -0.1259
  288MOL0     H37983   7.011   6.101   2.287  1.0546  1.2115 -5.0509
  288MOL0     H37984   6.828   5.984   2.244  1.5786 -0.9414 -2.0092
  288MOL0     H37985   6.875   6.083   2.100 -2.1932 -1.4919 -1.0691
  288MOL0     H37986   6.694   6.251   2.154 -1.8821 -0.6168 -2.0360
  288MOL0     H37987   6.642   6.170   2.282 -0.3978  0.6279 -0.0204
  288MOL0     H37988   6.629   5.997   2.035  2.9445 -0.6346 -0.2431
  288MOL0     H37989   6.587   5.960   2.199 -0.5526  0.0294  0.2018
  288MOL0     H37990   6.468   6.179   2.023 -0.8767  1.6346  1.2060
  288MOL0     H37991   6.414   6.146   2.190  0.8394  0.7829  0.6139
  288MOL0     H37992   6.370   5.899   2.100  0.2719  0.0584  0.3374
  288MOL0     H37993   6.424   5.965   1.949  2.5271  0.3266  1.8700
  288MOL0     H37994   6.185   6.087   2.096 -0.0466 -0.3448  0.1474
  288MOL0     H37995   6.217   6.108   1.928 -0.1963  1.7023  0.7934
  288MOL0     H37996   6.114   5.843   2.048  0.1258 -0.0389  0.1323
  288MOL0     H37997   6.205   5.862   1.893  0.2436  0.8845 -0.1926
  288MOL0     H37998   7.180   6.269   2.375  0.6099  1.1767 -0.1438
  288MOL0     H37999   7.274   6.410   2.556 -0.0413 -1.4438 -1.4344
  288MOL0     H38000   7.511   6.745   2.789 -1.2888 -1.1100 -2.1995
  288MOL0     H38001   7.558   6.934   2.917 -0.8011  1.3166  0.0425
  288MOL0     H38002   8.547   8.062   3.443  0.6835 -0.7840 -0.7370
  288MOL0     H38003   8.789   8.097   3.375  0.3987 -0.0112 -0.9407
  288MOL0     H38004   9.091   8.483   3.311  0.3509  0.2550  1.5873
  288MOL0     H38005   9.338   8.493   3.299 -0.6083 -0.6780  1.0399
  288MOL0     H38006   9.537   8.201   3.035 -0.4201  0.1117  0.4009
  288MOL0     H38007   9.562   8.117   3.188 -4.5729  0.4881 -0.5248
  288MOL0     H38008   9.730   8.347   3.079 -3.2323 -1.2288 -0.7619
  288MOL0     H38009   9.737   8.289   3.251 -2.2363  1.3046  0.6605
  288MOL0     H38010   9.774   8.098   3.017 -4.1921 -3.0062  4.7459
  288MOL0     H38011   9.840   8.082   3.181  1.6815  0.6342 -0.2543
  288MOL0     H38012   9.936   8.303   3.006 -2.2350 -2.0807 -1.1690
  288MOL0     H38013  10.028   8.220   3.142  3.6185  0.9032 -2.6514
  288MOL0     H38014  10.141   7.967   2.839 -0.4851  0.2415 -0.5619
  288MOL0     H38015   9.344   8.116   3.093  0.6647  1.2362 -1.3318
  288MOL0     H38016   9.098   8.107   3.102 -1.9551  0.2236  1.2067
  289MOL0     O38017   1.294   6.292  10.155 -0.4445 -0.0764  0.1184
  289MOL0     C38018   1.329   6.248  10.262  0.5962 -0.5255  0.5216
  289MOL0     O38019   1.256   6.259  10.374 -0.0921 -0.7108  0.1362
  289MOL0     C38020   1.127   6.313  10.378  0.6629  0.4165  0.3235
  289MOL0     C38021   1.016   6.223  10.383  0.1848  0.7502 -0.0179
  289MOL0     C38022   0.886   6.290  10.369  0.0350  0.2655 -0.2615
  289MOL0     C38023   0.870   6.428  10.385 -0.5116  0.2315  0.4920
  289MOL0     O38024   0.750   6.483  10.375 -0.1138 -0.7793  0.1523
  289MOL0     C38025   0.633   6.407  10.332 -0.2454 -0.7672  0.3748
  289MOL0     C38026   0.515   6.498  10.325  0.4423  0.3965 -1.1806
  289MOL0     C38027   0.502   6.592  10.449 -0.5967  0.0857  0.1500
  289MOL0     C38028   0.374   6.672  10.456 -0.6670  0.7138  0.1116
  289MOL0     C38029   0.368   6.738  10.590 -0.4956  0.2104 -0.0440
  289MOL0     C38030   0.439   6.869  10.579 -0.1242 -0.2032 -0.5087
  289MOL0     C38031   0.456   6.930  10.723 -0.0180 -0.7351 -0.1045
  289MOL0     C38032   0.523   7.078  10.718 -0.3785  0.2756  1.0431
  289MOL0     N38033   0.451   7.164  10.628 -0.2356 -0.4982  0.7506
  289MOL0     C38034   0.324   7.206  10.658 -0.4266  0.2133 -0.0839
  289MOL0     C38035   0.292   7.313  10.581 -0.4241  0.5984  0.1623
  289MOL0     C38036   0.159   7.385  10.582 -0.7344  0.1103 -0.3677
  289MOL0     C38037   0.151   7.504  10.486  0.6591 -0.6572  0.3711
  289MOL0     C38038   0.237   7.626  10.534  0.1331  0.6712 -0.1156
  289MOL0     C38039   0.170   7.711  10.636 -0.5410  0.4671  0.5903
  289MOL0     O38040   0.254   7.824  10.658 -0.1210  0.2155  0.6279
  289MOL0     C38041   0.261   7.876  10.787 -0.6686  0.1857 -0.5878
  289MOL0     C38042   0.158   7.891  10.873 -0.1984  0.7355 -0.0695
  289MOL0     C38043   0.175   7.961  10.995  0.3346 -0.8414 -0.5335
  289MOL0     C38044   0.304   8.021  11.024  0.0057 -0.1864 -0.1208
  289MOL0     C38045   0.328   8.093  11.151 -1.0259  0.3335 -0.0352
  289MOL0     O38046   0.436   8.182  11.156 -0.0518  0.4095  0.0481
  289MOL0     C38047   0.413   8.283  11.245 -0.6111 -0.3668  0.3468
  289MOL0     C38048   0.306   8.377  11.233  0.2195 -0.6884  0.3727
  289MOL0     C38049   0.294   8.483  11.328 -0.1996  0.5688  0.3154
  289MOL0     C38050   0.385   8.480  11.442  0.1442 -0.0336 -0.6040
  289MOL0     O38051   0.374   8.566  11.555  0.2139  0.6659  0.0313
  289MOL0     C38052   0.256   8.649  11.559  0.0612  0.8295  0.1515
  289MOL0     C38053   0.274   8.772  11.467 -0.6384 -0.3288  0.5457
  289MOL0     C38054   0.372   8.879  11.525  0.3973 -0.0477  0.2258
  289MOL0     C38055   0.396   8.976  11.417 -0.6598  0.9484 -0.3553
  289MOL0     C38056   0.493   9.081  11.466  0.5263  0.1982  0.2136
  289MOL0     C38057   0.528   9.182  11.361  0.2012 -0.3044  0.5758
  289MOL0     C38058   0.619   9.287  11.428 -0.1220  0.1935 -0.5424
  289MOL0     C38059   0.642   9.395  11.323  0.0870  0.9007 -0.0259
  289MOL0    Cl38060   0.504   9.496  11.279 -0.5390 -0.3666 -0.4684
  289MOL0     C38061   0.485   8.388  11.448 -0.2814 -0.8352 -0.5665
  289MOL0     C38062   0.508   8.292  11.348 -0.4158  0.0463  0.5868
  289MOL0     O38063   0.247   8.073  11.234  0.8021  0.1512  0.1655
  289MOL0     C38064   0.410   8.018  10.930 -0.0710 -0.0707 -0.4853
  289MOL0     C38065   0.386   7.936  10.816 -0.7401 -1.2418  0.1378
  289MOL0     N38066   0.408   7.344  10.505  0.7570 -0.9229  0.2996
  289MOL0     N38067   0.500   7.257  10.539 -0.7870 -0.2164 -0.4871
  289MOL0     C38068   0.983   6.508  10.403 -1.0899  0.2285 -0.2212
  289MOL0     C38069   1.116   6.452  10.389  0.1367  0.0251 -0.1575
  289MOL0     C38070   1.446   6.171  10.260  0.2064  0.1443 -0.7384
  289MOL0     C38071   1.472   6.091  10.360 -0.3413  0.2168 -0.1482
  289MOL0     C38072   1.597   6.022  10.365  0.2872 -0.1109  0.2831
  289MOL0     C38073   1.695   6.035  10.255  0.0314 -0.1625 -1.0268
  289MOL0     O38074   1.817   5.965  10.249  0.4421  0.3036 -0.3077
  289MOL0     C38075   1.811   5.847  10.324  0.0996 -0.8795 -0.6278
  289MOL0     C38076   1.919   5.751  10.269  0.1741  0.6870 -0.7611
  289MOL0     C38077   2.060   5.805  10.261  1.0662  0.0461 -1.1138
  289MOL0     C38078   2.163   5.695  10.247 -0.4764 -0.4592 -0.0476
  289MOL0     C38079   2.202   5.650  10.376 -0.3522 -0.2190 -0.3292
  289MOL0     C38080   2.234   5.612  10.487  0.3912 -0.6026  0.7601
  289MOL0     C38081   1.653   6.116  10.146 -0.1980  0.5667 -0.2143
  289MOL0     C38082   1.530   6.178  10.145  0.0164 -0.3059 -0.3644
  289MOL0     H38083   1.033   6.116  10.378  1.5073  1.0107 -2.0911
  289MOL0     H38084   0.800   6.227  10.347  1.2951 -1.6946  0.1157
  289MOL0     H38085   0.606   6.326  10.399 -2.1614 -0.9364 -0.5406
  289MOL0     H38086   0.645   6.360  10.234  0.9238 -2.0058  1.0733
  289MOL0     H38087   0.423   6.441  10.310  1.5725 -0.7973 -4.3921
  289MOL0     H38088   0.517   6.562  10.236 -0.9097 -1.6484 -2.7568
  289MOL0     H38089   0.585   6.663  10.447  2.5653 -3.2807  1.0323
  289MOL0     H38090   0.519   6.526  10.535  0.7197 -0.4079 -0.4583
  289MOL0     H38091   0.353   6.739  10.372 -1.1951  1.6091  0.9301
  289MOL0     H38092   0.298   6.593  10.452 -0.8698  0.9001 -3.5288
  289MOL0     H38093   0.422   6.679  10.665 -1.2451 -0.6538 -0.1686
  289MOL0     H38094   0.267   6.751  10.629 -1.3022  0.2191 -2.0243
  289MOL0     H38095   0.382   6.935  10.513  0.1463  1.1900  0.5978
  289MOL0     H38096   0.545   6.863  10.550  0.1884  0.2166  0.5058
  289MOL0     H38097   0.357   6.932  10.770 -0.5333 -2.2857 -1.0458
  289MOL0     H38098   0.518   6.861  10.781  2.3764  2.4164  1.3578
  289MOL0     H38099   0.623   7.062  10.675 -0.3719  0.1601  1.1025
  289MOL0     H38100   0.536   7.097  10.825 -0.6716  2.1244  0.7851
  289MOL0     H38101   0.248   7.154  10.716  0.2002 -1.2005 -0.5008
  289MOL0     H38102   0.142   7.411  10.687  1.4565 -1.3604  0.4413
  289MOL0     H38103   0.084   7.312  10.552 -1.8201 -0.3363  2.9873
  289MOL0     H38104   0.045   7.531  10.493  1.4133  2.6353  0.9196
  289MOL0     H38105   0.174   7.480  10.382 -2.6205 -1.8938 -0.1924
  289MOL0     H38106   0.338   7.591  10.559  1.1315  2.7526 -1.0077
  289MOL0     H38107   0.271   7.684  10.448 -0.8992  0.2956 -0.7933
  289MOL0     H38108   0.154   7.652  10.727 -0.8021 -2.5963 -1.2776
  289MOL0     H38109   0.075   7.751  10.599 -0.3035  0.5727  0.0903
  289MOL0     H38110   0.058   7.860  10.845  0.4066  2.0614 -4.4587
  289MOL0     H38111   0.100   7.965  11.073  1.6966 -0.4177  0.8143
  289MOL0     H38112   0.229   8.360  11.158  1.4484 -1.6884 -0.7110
  289MOL0     H38113   0.204   8.544  11.323 -0.0732  0.6445 -2.1060
  289MOL0     H38114   0.237   8.674  11.663  1.5830 -2.3031  1.3121
  289MOL0     H38115   0.161   8.601  11.534  0.4639 -0.8624  1.6784
  289MOL0     H38116   0.182   8.826  11.443 -1.5192 -2.2737 -0.7353
  289MOL0     H38117   0.312   8.733  11.372  1.0666  2.5443 -0.0620
  289MOL0     H38118   0.468   8.830  11.549  1.0925  0.4211 -1.4496
  289MOL0     H38119   0.325   8.916  11.617  1.8508 -0.6386  1.2641
  289MOL0     H38120   0.440   8.929  11.329 -2.3846 -1.9182  0.1910
  289MOL0     H38121   0.298   9.011  11.382 -1.8020 -0.6264  1.1005
  289MOL0     H38122   0.584   9.033  11.502  0.6176  0.3706  0.2160
  289MOL0     H38123   0.464   9.133  11.558  1.8188 -1.5715  1.6873
  289MOL0     H38124   0.428   9.220  11.336  0.0150 -1.6446 -0.8770
  289MOL0     H38125   0.571   9.134  11.273 -2.0701 -3.0181  0.7794
  289MOL0     H38126   0.568   9.331  11.514 -0.6616  3.2719 -2.2851
  289MOL0     H38127   0.710   9.237  11.461  0.4693  2.7507  2.1815
  289MOL0     H38128   0.681   9.351  11.230  0.8621 -3.2630  2.0553
  289MOL0     H38129   0.719   9.459  11.367 -0.1056 -0.4517  2.4292
  289MOL0     H38130   0.548   8.389  11.536 -3.0536 -2.0321  1.5925
  289MOL0     H38131   0.597   8.231  11.336  0.2588  0.9148  1.1115
  289MOL0     H38132   0.508   8.059  10.950 -0.5125  4.5782 -5.4493
  289MOL0     H38133   0.443   7.940  10.724 -3.2286  1.0465 -1.4633
  289MOL0     H38134   0.963   6.615  10.398  0.8980  0.5963 -2.4167
  289MOL0     H38135   1.205   6.513  10.380  0.6006 -0.9076 -3.1819
  289MOL0     H38136   1.407   6.064  10.442  0.4651 -1.6143 -0.0751
  289MOL0     H38137   1.606   5.953  10.448 -1.3081  0.6852  1.1643
  289MOL0     H38138   1.724   5.781  10.312  0.9541 -2.0319 -0.7070
  289MOL0     H38139   1.834   5.875  10.428  3.5084 -0.3483 -1.4056
  289MOL0     H38140   1.904   5.672  10.343 -0.0038  2.1134  0.7860
  289MOL0     H38141   1.879   5.721  10.172 -0.7805  0.9661 -0.4655
  289MOL0     H38142   2.085   5.867  10.348  0.4626 -0.8903 -0.2435
  289MOL0     H38143   2.073   5.867  10.173  2.3949 -0.3338 -1.2160
  289MOL0     H38144   2.127   5.608  10.192 -0.2678 -2.0841  2.2234
  289MOL0     H38145   2.252   5.742  10.204 -1.3910  1.3405 -0.0534
  289MOL0     H38146   2.269   5.595  10.587  1.4908  0.5905  0.6129
  289MOL0     H38147   1.730   6.118  10.069  0.0161  2.5767 -0.0150
  289MOL0     H38148   1.512   6.244  10.061  0.5069 -2.2931 -2.1094
  290MOL0     O38149  10.296   9.977   9.956 -0.4086 -0.4532 -0.9962
  290MOL0     C38150  10.312   9.959   9.841 -0.1136  0.5807  0.2647
  290MOL0     O38151  10.237   9.887   9.762 -0.3861 -0.0087 -0.5376
  290MOL0     C38152  10.117   9.841   9.800  0.2468 -0.2506 -0.4272
  290MOL0     C38153  10.088   9.716   9.750 -0.0450 -0.0126 -0.1603
  290MOL0     C38154   9.968   9.648   9.790 -0.4673  0.5194 -0.0977
  290MOL0     C38155   9.883   9.703   9.880 -0.7885 -0.3686  0.0779
  290MOL0     O38156   9.768   9.635   9.929 -1.2756 -0.7256  0.0443
  290MOL0     C38157   9.803   9.511   9.974  0.0543  0.3302 -0.7862
  290MOL0     C38158   9.698   9.495  10.091 -0.7252  0.6512 -0.3920
  290MOL0     C38159   9.553   9.471  10.049 -0.1217 -0.0689  0.8824
  290MOL0     C38160   9.456   9.427  10.152  0.3041  0.6480  0.0644
  290MOL0     C38161   9.312   9.442  10.117  0.5591  0.3014  0.0110
  290MOL0     C38162   9.213   9.364  10.207  0.0786 -0.4425 -0.4506
  290MOL0     C38163   9.200   9.444  10.337  1.3871  0.6101  0.6490
  290MOL0     C38164   9.101   9.364  10.430 -0.2191 -0.7170 -0.6700
  290MOL0     N38165   8.963   9.374  10.385  0.6441 -0.7039 -0.8296
  290MOL0     C38166   8.880   9.487  10.399  0.2015 -0.0579 -0.2212
  290MOL0     C38167   8.757   9.455  10.368  0.6101 -0.1496 -0.0762
  290MOL0     C38168   8.644   9.556  10.383 -0.8272  0.1198 -0.4710
  290MOL0     C38169   8.603   9.572  10.530 -0.3244 -0.2819  0.1909
  290MOL0     C38170   8.454   9.575  10.559 -0.1898  0.7568 -0.2203
  290MOL0     C38171   8.439   9.612  10.706 -0.3126 -0.2718  0.2531
  290MOL0     O38172   8.297   9.637  10.719 -0.4446 -0.2329 -0.2020
  290MOL0     C38173   8.245   9.674  10.839  0.3079 -0.8989 -0.3206
  290MOL0     C38174   8.306   9.658  10.962 -1.0477 -0.4193 -0.0781
  290MOL0     C38175   8.254   9.693  11.087 -0.0567 -0.4230 -0.5927
  290MOL0     C38176   8.122   9.727  11.099 -0.4096  0.4265 -0.9158
  290MOL0     C38177   8.056   9.760  11.229  0.0088 -0.2018 -0.2912
  290MOL0     O38178   8.128   9.767  11.341  0.5549  0.5732  0.5758
  290MOL0     C38179   8.054   9.792  11.458  0.1156  0.3254  0.4154
  290MOL0     C38180   7.943   9.716  11.487  0.1855  0.8119  0.5985
  290MOL0     C38181   7.859   9.749  11.598 -0.6733  0.4219 -0.1731
  290MOL0     C38182   7.891   9.854  11.678  1.1098 -0.3928 -0.4967
  290MOL0     O38183   7.801   9.874  11.779 -0.3456  0.3735 -0.0772
  290MOL0     C38184   7.722   9.992  11.759 -0.3279  0.9939  0.0962
  290MOL0     C38185   7.572   9.968  11.733 -0.0892 -0.1261  0.0013
  290MOL0     C38186   7.484   9.960  11.856  0.8566 -0.4928 -0.2695
  290MOL0     C38187   7.533   9.849  11.951  0.1800  0.0645 -0.2303
  290MOL0     C38188   7.420   9.761  11.999 -0.1774  0.7183  0.4977
  290MOL0     C38189   7.469   9.623  12.044  0.4214  0.2559  0.4871
  290MOL0     C38190   7.377   9.539  12.129  0.6778  0.8533  0.7058
  290MOL0     C38191   7.457   9.451  12.226 -0.0421 -0.4503  0.7540
  290MOL0    Cl38192   7.506   9.558  12.358 -0.0942 -0.7427  0.0874
  290MOL0     C38193   7.998   9.943  11.643 -0.0175  0.4796 -0.2014
  290MOL0     C38194   8.086   9.903  11.538 -0.1280  0.9110  0.3590
  290MOL0     O38195   7.931   9.787  11.216  0.1685 -0.0176  0.4665
  290MOL0     C38196   8.048   9.755  10.976  0.1606 -0.1714  0.5163
  290MOL0     C38197   8.108   9.722  10.846 -0.0878  0.3627 -0.8855
  290MOL0     N38198   8.757   9.318  10.335  0.5465 -0.6657  0.0917
  290MOL0     N38199   8.874   9.272  10.355  0.2452  0.1760  0.3193
  290MOL0     C38200   9.908   9.833   9.925 -0.1827  0.1103 -0.4659
  290MOL0     C38201  10.024   9.903   9.883  0.2238 -0.1418  0.3194
  290MOL0     C38202  10.442  10.006   9.787  0.1502 -0.9123  0.9919
  290MOL0     C38203  10.538  10.060   9.877  0.2085  0.3879  0.0651
  290MOL0     C38204  10.661  10.106   9.824 -0.3975  0.2040 -0.1414
  290MOL0     C38205  10.699  10.080   9.693 -0.4153 -0.2275  0.8421
  290MOL0     O38206  10.830  10.109   9.662 -0.3105  0.1240 -0.1332
  290MOL0     C38207  10.880  10.069   9.542 -0.5560 -0.5424  1.1958
  290MOL0     C38208  11.019  10.138   9.516  0.1404  0.1596  0.4953
  290MOL0     C38209  11.128  10.133   9.616  0.0536  1.1786 -0.1231
  290MOL0     C38210  11.136  10.249   9.709  0.1543 -0.6900  0.4318
  290MOL0     C38211  11.266  10.266   9.771  0.6857  0.2284  0.6906
  290MOL0     C38212  11.368  10.255   9.830  0.2965 -0.8644  0.1264
  290MOL0     C38213  10.607  10.010   9.604  0.0218  0.0907  0.3552
  290MOL0     C38214  10.478   9.985   9.645  0.3336  0.1017 -1.1926
  290MOL0     H38215  10.147   9.683   9.665 -0.6729  1.8888 -1.4077
  290MOL0     H38216   9.956   9.548   9.749  3.5954 -0.6861  1.1651
  290MOL0     H38217   9.907   9.510  10.008  0.5324  0.8676 -2.1695
  290MOL0     H38218   9.785   9.423   9.911 -0.6058 -0.8534  0.9902
  290MOL0     H38219   9.705   9.586  10.151  1.3561 -0.9484  2.0123
  290MOL0     H38220   9.724   9.416  10.163 -2.1271  2.8218  2.7110
  290MOL0     H38221   9.562   9.385   9.982 -1.3979  2.4816 -2.8189
  290MOL0     H38222   9.506   9.561  10.008 -0.6622 -0.5354  0.4565
  290MOL0     H38223   9.469   9.321  10.178  0.9304  0.2684 -1.6702
  290MOL0     H38224   9.473   9.482  10.245  1.7982  0.9296 -0.3371
  290MOL0     H38225   9.305   9.406  10.014  2.2431 -0.0703 -0.0014
  290MOL0     H38226   9.289   9.548  10.115 -1.3443 -0.0669 -2.5666
  290MOL0     H38227   9.258   9.267  10.229  0.3399  0.1189  1.7038
  290MOL0     H38228   9.118   9.353  10.153 -0.8902 -2.7629  1.5176
  290MOL0     H38229   9.297   9.459  10.384  1.9569 -2.2466  0.5626
  290MOL0     H38230   9.152   9.542  10.325 -0.2006 -0.3360 -1.5305
  290MOL0     H38231   9.109   9.423  10.522  1.3328  1.5073 -2.1599
  290MOL0     H38232   9.125   9.258  10.446  2.4131 -0.3431 -1.6631
  290MOL0     H38233   8.911   9.582  10.441 -0.2890  0.3027 -0.6513
  290MOL0     H38234   8.550   9.536  10.330 -0.5126  1.4823 -1.5983
  290MOL0     H38235   8.682   9.653  10.348  0.0335  0.2066  0.6422
  290MOL0     H38236   8.647   9.663  10.569 -1.5934 -0.5521  2.4247
  290MOL0     H38237   8.646   9.490  10.588  0.5305 -0.3743 -0.5480
  290MOL0     H38238   8.406   9.646  10.491 -0.7237  0.0876 -0.5523
  290MOL0     H38239   8.412   9.475  10.546 -2.4546  1.7182 -0.8740
  290MOL0     H38240   8.496   9.702  10.728 -1.2075  0.6076 -0.8851
  290MOL0     H38241   8.479   9.530  10.767  1.4719  1.3463  1.3596
  290MOL0     H38242   8.413   9.643  10.966 -1.0262 -0.0821  3.9780
  290MOL0     H38243   8.323   9.702  11.171 -2.9781  2.0306  1.7808
  290MOL0     H38244   7.920   9.631  11.423 -0.2029 -0.2190  2.0576
  290MOL0     H38245   7.773   9.685  11.616  0.3955 -1.7881 -2.3032
  290MOL0     H38246   7.761  10.046  11.672  0.4923  0.2256 -0.0248
  290MOL0     H38247   7.735  10.059  11.845 -2.9420  1.8942 -0.1260
  290MOL0     H38248   7.563   9.882  11.666 -0.0038  1.9920 -2.9220
  290MOL0     H38249   7.542  10.055  11.673  0.9855 -0.1425 -0.5796
  290MOL0     H38250   7.382   9.937  11.823  0.6951 -1.1531  0.6383
  290MOL0     H38251   7.474  10.054  11.911  1.2454  0.6132 -2.0416
  290MOL0     H38252   7.598   9.774  11.904 -1.2588 -2.1876  1.1688
  290MOL0     H38253   7.573   9.897  12.041  0.6867  2.2280 -1.5379
  290MOL0     H38254   7.356   9.748  11.911 -2.5611 -1.9949  2.4360
  290MOL0     H38255   7.356   9.798  12.079 -0.8741  2.1384 -0.6781
  290MOL0     H38256   7.564   9.634  12.098  0.8008 -1.6551  0.3073
  290MOL0     H38257   7.506   9.564  11.959  0.0346  1.3152 -0.4426
  290MOL0     H38258   7.307   9.597  12.188 -1.1382  1.7423 -2.1176
  290MOL0     H38259   7.310   9.478  12.068  0.7974  1.0790  0.3437
  290MOL0     H38260   7.544   9.412  12.172  0.9009  1.3681  0.8978
  290MOL0     H38261   7.385   9.372  12.248 -5.6709  3.5001 -1.2901
  290MOL0     H38262   8.009  10.038  11.695  0.4744  0.0671  0.4652
  290MOL0     H38263   8.165   9.968  11.501  1.7534 -2.0739 -1.2726
  290MOL0     H38264   7.945   9.789  10.972  0.6540  1.4042  0.5819
  290MOL0     H38265   8.048   9.735  10.756  1.2495  0.6679 -1.7562
  290MOL0     H38266   9.845   9.880  10.000 -2.7443 -2.9355 -0.5223
  290MOL0     H38267  10.014  10.005   9.917 -2.8263 -0.7422  1.4983
  290MOL0     H38268  10.513  10.060   9.982  2.1865  1.2274  0.5755
  290MOL0     H38269  10.738  10.135   9.895  2.0933  1.2994 -3.0662
  290MOL0     H38270  10.815  10.099   9.460  0.1337  2.3890  1.6246
  290MOL0     H38271  10.890   9.960   9.543 -0.4230 -0.5456  2.8022
  290MOL0     H38272  11.061  10.095   9.425 -0.2731  0.4235  0.1747
  290MOL0     H38273  10.996  10.243   9.498 -1.7816 -0.6113 -2.1419
  290MOL0     H38274  11.224  10.116   9.567 -0.8919 -2.4221 -1.1009
  290MOL0     H38275  11.114  10.040   9.672 -1.1697  1.6026  0.3195
  290MOL0     H38276  11.133  10.347   9.661  1.4791  1.0026  3.5684
  290MOL0     H38277  11.053  10.258   9.779  0.1505  1.0456  0.2458
  290MOL0     H38278  11.465  10.255   9.876 -0.4616  2.0570  1.9823
  290MOL0     H38279  10.635   9.973   9.507  3.0009 -1.1846  1.5937
  290MOL0     H38280  10.405   9.934   9.583 -2.3863  1.3456  0.7580
  291MOL0     O38281   7.809   3.039   4.038  0.1667 -0.6163 -0.1357
  291MOL0     C38282   7.753   3.122   3.962  0.2800  0.2759  0.1168
  291MOL0     O38283   7.692   3.241   3.996 -0.2084 -0.1496 -0.4141
  291MOL0     C38284   7.670   3.270   4.130 -0.3802  0.2241  0.4095
  291MOL0     C38285   7.593   3.390   4.150 -0.5789 -0.8663 -1.2315
  291MOL0     C38286   7.575   3.440   4.282 -0.1812  0.4086  0.3254
  291MOL0     C38287   7.626   3.379   4.398 -0.3440 -0.8307 -0.9086
  291MOL0     O38288   7.607   3.431   4.528  0.9459  0.7831  0.1294
  291MOL0     C38289   7.523   3.545   4.546  0.7361  0.3204 -0.2754
  291MOL0     C38290   7.519   3.575   4.703  0.4587  0.1577 -0.2839
  291MOL0     C38291   7.643   3.586   4.787  0.9123  0.7903  0.2457
  291MOL0     C38292   7.708   3.709   4.737 -0.3859  0.5605  0.0112
  291MOL0     C38293   7.853   3.704   4.775 -0.0283 -0.5382 -0.0588
  291MOL0     C38294   7.882   3.726   4.919  0.1831 -0.0176 -0.4453
  291MOL0     C38295   8.020   3.666   4.954 -0.3386 -0.6086 -1.2417
  291MOL0     C38296   8.129   3.740   4.880  0.2105  0.5319  0.1068
  291MOL0     N38297   8.259   3.683   4.925 -0.3706 -0.3693  0.0872
  291MOL0     C38298   8.332   3.575   4.883  0.0872 -0.2068 -0.1936
  291MOL0     C38299   8.453   3.576   4.949 -0.2987  0.4633  0.6049
  291MOL0     C38300   8.573   3.489   4.945 -0.3228 -0.0141  0.1032
  291MOL0     C38301   8.524   3.352   4.981  1.1768  0.0385 -0.5350
  291MOL0     C38302   8.641   3.272   5.037 -0.0391 -0.9739  0.2977
  291MOL0     C38303   8.590   3.153   5.103 -0.1799  0.5029 -0.3826
  291MOL0     O38304   8.692   3.041   5.106  0.3594 -1.1330  0.0923
  291MOL0     C38305   8.787   3.031   5.212 -0.5667 -1.3170  0.3437
  291MOL0     C38306   8.860   3.144   5.266 -0.8091 -0.3549 -0.3938
  291MOL0     C38307   8.966   3.115   5.355 -0.2336 -0.2745 -0.4357
  291MOL0     C38308   8.988   2.988   5.397 -0.2999 -0.3832  0.0612
  291MOL0     C38309   9.084   2.957   5.500  0.6435  0.3905  0.3300
  291MOL0     O38310   9.192   3.046   5.508  0.2352 -1.0143 -0.1205
  291MOL0     C38311   9.318   3.020   5.556 -0.6245 -0.7776  0.7194
  291MOL0     C38312   9.374   2.894   5.580 -0.1329 -0.2877 -1.2126
  291MOL0     C38313   9.501   2.892   5.633 -0.2063 -0.3227  0.6421
  291MOL0     C38314   9.580   3.002   5.661 -0.1589 -0.1950 -0.1667
  291MOL0     O38315   9.717   2.999   5.689  0.4294  0.6249 -0.6472
  291MOL0     C38316   9.754   2.888   5.778 -0.3998  0.0076  0.5153
  291MOL0     C38317   9.690   2.885   5.917  0.1800 -0.5697  0.5274
  291MOL0     C38318   9.784   2.821   6.019 -0.2564 -0.1027 -0.0636
  291MOL0     C38319   9.722   2.760   6.148  1.3335  0.1595 -0.4115
  291MOL0     C38320   9.630   2.631   6.131 -0.6598  0.6156 -0.7099
  291MOL0     C38321   9.565   2.603   6.270  0.3140 -0.3994 -0.5298
  291MOL0     C38322   9.670   2.534   6.366  0.1631  0.4438 -1.0967
  291MOL0     C38323   9.604   2.482   6.493 -0.1828 -0.1782  0.7213
  291MOL0    Cl38324   9.538   2.606   6.587 -0.6820  0.2834  0.4102
  291MOL0     C38325   9.522   3.127   5.634 -0.6444 -0.6548  0.2649
  291MOL0     C38326   9.393   3.135   5.585 -0.2991 -0.4250 -0.9380
  291MOL0     O38327   9.072   2.853   5.567  0.1636  0.1718 -0.7341
  291MOL0     C38328   8.907   2.881   5.353  0.0661 -1.3210  0.3174
  291MOL0     C38329   8.806   2.905   5.257 -0.0295  0.2826 -0.8712
  291MOL0     N38330   8.448   3.687   5.033 -0.2893 -0.1068 -0.3869
  291MOL0     N38331   8.339   3.756   5.009 -0.2515  0.0134  0.1853
  291MOL0     C38332   7.708   3.272   4.379 -0.4758 -0.3928  0.6358
  291MOL0     C38333   7.720   3.212   4.252 -0.1014 -0.4486  0.5768
  291MOL0     C38334   7.752   3.070   3.819  0.0548 -0.4409 -0.3705
  291MOL0     C38335   7.751   3.157   3.712 -0.2128  0.5921  0.2858
  291MOL0     C38336   7.733   3.099   3.587 -0.7947 -0.6709 -0.1488
  291MOL0     C38337   7.716   2.965   3.565 -0.2798  0.1943  0.4440
  291MOL0     O38338   7.698   2.899   3.443 -0.8947 -0.9262 -0.4232
  291MOL0     C38339   7.696   2.984   3.325  0.0169 -0.2831  0.8178
  291MOL0     C38340   7.833   2.958   3.268 -0.2512  0.2716 -0.8583
  291MOL0     C38341   7.834   3.004   3.121 -0.2177  0.2959  0.4643
  291MOL0     C38342   7.947   2.942   3.043 -0.3922 -0.7130 -0.4694
  291MOL0     C38343   7.936   2.961   2.895  0.1225 -0.3093 -0.5656
  291MOL0     C38344   7.917   2.942   2.775 -0.8544  0.3325 -1.1965
  291MOL0     C38345   7.714   2.880   3.673 -0.0455 -0.6221  0.2882
  291MOL0     C38346   7.734   2.931   3.803 -0.5616  0.1023 -1.0813
  291MOL0     H38347   7.541   3.443   4.071 -1.8774  2.9859  1.8731
  291MOL0     H38348   7.508   3.525   4.288 -2.4285 -0.8499 -3.4981
  291MOL0     H38349   7.424   3.517   4.510  1.1772 -1.2736 -0.3484
  291MOL0     H38350   7.558   3.630   4.487 -0.3299  4.5581  4.4448
  291MOL0     H38351   7.453   3.502   4.750  1.4889 -1.0702 -0.7073
  291MOL0     H38352   7.459   3.666   4.711  0.1783 -0.0976  0.5906
  291MOL0     H38353   7.692   3.490   4.766 -0.4652  0.0202  0.4595
  291MOL0     H38354   7.619   3.581   4.893  2.8960  1.1139  0.7530
  291MOL0     H38355   7.692   3.720   4.630 -1.2750 -1.7248 -0.1358
  291MOL0     H38356   7.657   3.796   4.780  0.8293  1.1333  0.3686
  291MOL0     H38357   7.907   3.782   4.720 -1.3527  1.8394  1.8170
  291MOL0     H38358   7.890   3.606   4.742  2.5186 -0.3909  1.9918
  291MOL0     H38359   7.809   3.692   4.993  1.7152 -1.8647  0.2991
  291MOL0     H38360   7.895   3.834   4.931 -0.7785  0.1731 -1.0092
  291MOL0     H38361   8.027   3.687   5.061  0.7708  1.8536 -1.7296
  291MOL0     H38362   8.030   3.558   4.940  2.1385 -0.4922 -0.7541
  291MOL0     H38363   8.131   3.847   4.901 -3.4906  0.8150 -0.4415
  291MOL0     H38364   8.109   3.714   4.775  0.2530 -1.0000  0.4500
  291MOL0     H38365   8.287   3.492   4.828 -1.0192 -1.6845  2.7252
  291MOL0     H38366   8.658   3.525   5.003 -0.9831  0.0129  1.0832
  291MOL0     H38367   8.599   3.481   4.839 -0.5080 -3.6730  0.2071
  291MOL0     H38368   8.496   3.295   4.892 -2.3341  1.3833 -0.4749
  291MOL0     H38369   8.439   3.350   5.051  0.0604  0.7419 -1.8298
  291MOL0     H38370   8.694   3.253   4.944 -0.3755  0.2604 -0.1643
  291MOL0     H38371   8.689   3.339   5.108 -0.7015  1.4342 -1.4088
  291MOL0     H38372   8.505   3.105   5.054  0.3057  1.0039 -1.7528
  291MOL0     H38373   8.562   3.179   5.206 -1.2449 -0.8473 -0.3111
  291MOL0     H38374   8.840   3.244   5.230 -2.1080 -0.5518 -0.2668
  291MOL0     H38375   9.028   3.198   5.388 -2.0972  0.1256  2.3388
  291MOL0     H38376   9.329   2.799   5.556  1.1701 -1.9996  2.4488
  291MOL0     H38377   9.535   2.790   5.647 -0.1221 -0.4533 -0.4385
  291MOL0     H38378   9.862   2.897   5.791 -0.6708  2.8730  1.5846
  291MOL0     H38379   9.741   2.795   5.722 -0.7011  1.3703 -1.8126
  291MOL0     H38380   9.607   2.815   5.909  0.8139 -1.3529  0.6459
  291MOL0     H38381   9.661   2.982   5.958  2.7897 -0.0741  1.4037
  291MOL0     H38382   9.860   2.899   6.033 -1.4148  1.6306 -2.7478
  291MOL0     H38383   9.843   2.744   5.968  0.4324  1.1794 -1.2824
  291MOL0     H38384   9.802   2.722   6.211 -0.9479  0.0573  2.6181
  291MOL0     H38385   9.667   2.838   6.201  3.4436  3.3661 -2.5540
  291MOL0     H38386   9.697   2.552   6.094 -1.7194 -0.4071 -0.5211
  291MOL0     H38387   9.563   2.649   6.047 -1.6902  3.2348  0.5702
  291MOL0     H38388   9.471   2.547   6.261 -0.5871  1.0689 -0.5335
  291MOL0     H38389   9.532   2.696   6.316  0.8292 -1.4384  2.1368
  291MOL0     H38390   9.718   2.452   6.312  1.7552 -2.4822  4.1171
  291MOL0     H38391   9.744   2.606   6.400 -0.3102  1.2494 -1.7131
  291MOL0     H38392   9.667   2.416   6.552  0.5079  1.4410  1.8639
  291MOL0     H38393   9.513   2.425   6.473 -0.4363  0.0863  1.1229
  291MOL0     H38394   9.595   3.207   5.639 -0.1317 -1.1163  0.4268
  291MOL0     H38395   9.372   3.239   5.567 -0.0368 -0.1017  0.4958
  291MOL0     H38396   8.913   2.777   5.383 -0.2177 -0.8529  2.1681
  291MOL0     H38397   8.748   2.822   5.216  0.6112  0.1500 -1.5324
  291MOL0     H38398   7.760   3.230   4.464  0.2009  3.7956  2.5327
  291MOL0     H38399   7.777   3.121   4.237  0.2665  0.1449 -2.1362
  291MOL0     H38400   7.766   3.262   3.734 -1.2693  0.5969  1.0665
  291MOL0     H38401   7.739   3.177   3.511  2.0344  1.1706  1.7676
  291MOL0     H38402   7.675   3.092   3.326  0.7497 -0.0906 -0.7507
  291MOL0     H38403   7.611   2.953   3.263 -2.7336  1.7573  3.2855
  291MOL0     H38404   7.907   3.014   3.326 -1.2826  0.0122  0.7408
  291MOL0     H38405   7.847   2.850   3.273 -0.9745  0.1786 -0.7853
  291MOL0     H38406   7.840   3.112   3.113 -0.8101  0.4367  1.6481
  291MOL0     H38407   7.743   2.969   3.072  1.9392 -0.7659 -3.1146
  291MOL0     H38408   8.048   2.969   3.076  0.8351 -1.5192 -3.2457
  291MOL0     H38409   7.953   2.834   3.061  1.6671 -0.5615  0.0328
  291MOL0     H38410   7.884   2.914   2.678 -2.7454 -0.2079 -0.4328
  291MOL0     H38411   7.693   2.774   3.659 -0.0022 -0.7725  1.2496
  291MOL0     H38412   7.741   2.863   3.888  1.7702 -0.2656 -1.4921
  292MOL0     O38413   5.429   1.550   1.638 -0.3303  0.0363  0.5026
  292MOL0     C38414   5.323   1.510   1.589 -0.2785  0.2342 -0.0123
  292MOL0     O38415   5.306   1.447   1.471  0.0629 -0.1574 -0.2719
  292MOL0     C38416   5.404   1.445   1.371  0.4063  1.4105 -0.5715
  292MOL0     C38417   5.408   1.337   1.279 -0.9415  0.4278  0.6772
  292MOL0     C38418   5.503   1.326   1.180  0.0644 -1.0981  0.7665
  292MOL0     C38419   5.589   1.433   1.152 -0.1738  0.0437 -0.0060
  292MOL0     O38420   5.685   1.423   1.047  0.8211  0.3103 -0.3812
  292MOL0     C38421   5.677   1.538   0.961 -0.6857 -0.4960  0.5015
  292MOL0     C38422   5.727   1.504   0.821  0.4367  0.8752  0.4272
  292MOL0     C38423   5.675   1.606   0.706 -0.1543  0.4137 -0.0489
  292MOL0     C38424   5.524   1.610   0.719 -0.0070 -1.1125  0.3383
  292MOL0     C38425   5.466   1.680   0.588  0.6039  0.3149 -0.3982
  292MOL0     C38426   5.318   1.674   0.567  0.4314 -0.5762  0.4075
  292MOL0     C38427   5.278   1.748   0.437 -0.4592 -0.8545 -0.2521
  292MOL0     C38428   5.128   1.746   0.425 -0.9977  0.3118  0.9388
  292MOL0     N38429   5.051   1.849   0.493  0.8628  0.3064  0.0311
  292MOL0     C38430   4.979   1.827   0.610 -0.1049 -0.1066  0.4209
  292MOL0     C38431   4.884   1.922   0.603 -0.5050 -0.3955  0.2572
  292MOL0     C38432   4.778   1.929   0.711 -0.2830  0.6001  0.1205
  292MOL0     C38433   4.673   2.043   0.698  0.0905  0.5360  0.3597
  292MOL0     C38434   4.611   2.071   0.839 -0.1334 -1.0046 -0.1965
  292MOL0     C38435   4.538   1.964   0.911  0.0092 -0.1855  0.2451
  292MOL0     O38436   4.440   1.894   0.835 -0.2519 -0.5094  0.8273
  292MOL0     C38437   4.332   1.954   0.782 -0.4079 -0.6283 -1.0961
  292MOL0     C38438   4.285   2.076   0.831 -0.3050  0.3540  0.4430
  292MOL0     C38439   4.165   2.136   0.783 -0.9167 -0.2441 -0.6012
  292MOL0     C38440   4.099   2.065   0.679  0.5251  0.2579 -1.1927
  292MOL0     C38441   3.972   2.122   0.614  0.4318 -0.3479 -0.1322
  292MOL0     O38442   3.952   2.099   0.483  0.2976  0.3470  0.4470
  292MOL0     C38443   3.822   2.129   0.427 -0.4647 -1.4648  0.1756
  292MOL0     C38444   3.697   2.111   0.493 -0.1580 -0.3038 -0.6142
  292MOL0     C38445   3.570   2.144   0.438 -0.6995  0.0249 -0.3638
  292MOL0     C38446   3.562   2.196   0.311 -0.1989 -1.4086 -0.3985
  292MOL0     O38447   3.428   2.242   0.271 -0.1650  0.5230 -0.3326
  292MOL0     C38448   3.398   2.308   0.148  0.6445 -0.0670 -0.2974
  292MOL0     C38449   3.237   2.299   0.137 -0.6436  1.0307 -0.1933
  292MOL0     C38450   3.163   2.387   0.244 -0.9534  0.6066  0.6769
  292MOL0     C38451   3.011   2.396   0.226  0.6391 -0.2834  0.0876
  292MOL0     C38452   2.964   2.493   0.334 -0.7417 -0.1585  0.3070
  292MOL0     C38453   2.819   2.502   0.340 -0.0291  0.1451 -0.2654
  292MOL0     C38454   2.779   2.553   0.484  0.3221 -0.6466  0.9772
  292MOL0     C38455   2.624   2.556   0.516 -0.1709  0.5114  0.5242
  292MOL0    Cl38456   2.564   2.388   0.562  0.0976  0.2326 -0.5889
  292MOL0     C38457   3.680   2.218   0.245  0.0842 -0.7410  0.4518
  292MOL0     C38458   3.806   2.179   0.297 -0.5563 -0.3568 -0.1581
  292MOL0     O38459   3.919   2.210   0.677 -0.1445 -0.2090 -0.2526
  292MOL0     C38460   4.153   1.950   0.628  0.2720  0.5323  0.1736
  292MOL0     C38461   4.267   1.894   0.677  0.0350 -0.1480  0.3307
  292MOL0     N38462   4.894   2.002   0.486 -0.3330 -0.4331 -0.6201
  292MOL0     N38463   4.993   1.955   0.421  0.1818 -0.3504 -0.4340
  292MOL0     C38464   5.582   1.549   1.240  0.2360 -0.2540  0.6007
  292MOL0     C38465   5.497   1.553   1.348  0.6519  0.1367  0.3277
  292MOL0     C38466   5.201   1.539   1.673  0.0260 -0.8665  0.5320
  292MOL0     C38467   5.212   1.571   1.803 -0.4606  0.1573 -0.3866
  292MOL0     C38468   5.105   1.607   1.882  0.6734  0.4757 -0.3799
  292MOL0     C38469   4.974   1.627   1.827 -1.0133  0.6513  0.1245
  292MOL0     O38470   4.866   1.679   1.893 -0.1167 -0.1417  0.0532
  292MOL0     C38471   4.864   1.700   2.035  0.3898 -1.0591 -0.0235
  292MOL0     C38472   4.723   1.720   2.071  0.0809  0.2708 -0.1333
  292MOL0     C38473   4.705   1.737   2.227  0.4081  0.7763  0.1161
  292MOL0     C38474   4.607   1.850   2.264  0.9510  0.5546 -0.3256
  292MOL0     C38475   4.660   1.982   2.246 -0.0680 -0.1166 -0.4834
  292MOL0     C38476   4.711   2.095   2.234  0.4958 -0.4169  0.2159
  292MOL0     C38477   4.962   1.601   1.688 -0.4587 -0.5714  0.7108
  292MOL0     C38478   5.074   1.551   1.615  0.4757  0.7410 -0.2806
  292MOL0     H38479   5.358   1.241   1.293  2.3277 -1.3987  0.9046
  292MOL0     H38480   5.503   1.236   1.120 -1.0164  0.9723 -2.6584
  292MOL0     H38481   5.753   1.604   1.003 -0.6297  0.4696 -1.0418
  292MOL0     H38482   5.576   1.580   0.969 -1.8726 -3.4072  2.8719
  292MOL0     H38483   5.683   1.407   0.795  1.0909  0.3189  1.3376
  292MOL0     H38484   5.835   1.492   0.818  0.6390  2.3869 -2.5872
  292MOL0     H38485   5.701   1.575   0.605 -2.1703  1.0104 -0.8027
  292MOL0     H38486   5.723   1.701   0.731  0.5535 -0.2163  1.0687
  292MOL0     H38487   5.492   1.505   0.723  5.1621 -3.0028 -0.7791
  292MOL0     H38488   5.483   1.669   0.802 -3.6982 -4.0939  0.9547
  292MOL0     H38489   5.512   1.632   0.501  0.1477 -3.5914  1.2641
  292MOL0     H38490   5.488   1.786   0.598 -2.4029  1.0338 -0.4899
  292MOL0     H38491   5.263   1.707   0.656  0.4201  2.5457 -0.6445
  292MOL0     H38492   5.294   1.567   0.572 -0.8340 -0.2916  0.9928
  292MOL0     H38493   5.307   1.851   0.459  1.0714 -1.3524  0.1788
  292MOL0     H38494   5.330   1.714   0.347  0.0651  0.4378 -0.4634
  292MOL0     H38495   5.088   1.649   0.455 -0.3750  0.3029  1.7772
  292MOL0     H38496   5.111   1.763   0.319 -0.5341 -0.4921  0.7239
  292MOL0     H38497   4.998   1.755   0.689 -0.8999  2.0748  2.7321
  292MOL0     H38498   4.831   1.929   0.806  0.6298  2.3525 -0.3410
  292MOL0     H38499   4.723   1.835   0.701 -0.2732  0.7479 -1.5864
  292MOL0     H38500   4.598   2.006   0.627  1.9055 -1.7866 -0.4492
  292MOL0     H38501   4.721   2.132   0.655  1.3644 -0.9556 -1.4400
  292MOL0     H38502   4.700   2.111   0.888  0.3784  0.2384 -2.0212
  292MOL0     H38503   4.542   2.155   0.853 -0.1442 -1.4529  3.4367
  292MOL0     H38504   4.492   1.995   1.005 -1.4263 -1.3276 -0.0399
  292MOL0     H38505   4.620   1.893   0.926  2.0236  1.5619 -1.7449
  292MOL0     H38506   4.331   2.135   0.910  0.5122 -0.0558  0.2733
  292MOL0     H38507   4.129   2.230   0.824 -0.1163 -1.4832  3.3589
  292MOL0     H38508   3.695   2.067   0.593 -1.3446  0.7623 -0.1497
  292MOL0     H38509   3.475   2.110   0.479  0.2505 -1.2833  0.8713
  292MOL0     H38510   3.451   2.252   0.070  0.9176 -0.0995 -0.0919
  292MOL0     H38511   3.438   2.410   0.150  0.4817  0.0189 -1.0666
  292MOL0     H38512   3.221   2.193   0.158  0.8128  1.0857  1.5608
  292MOL0     H38513   3.209   2.343   0.041 -1.3089  0.9524 -0.0399
  292MOL0     H38514   3.190   2.492   0.231 -1.1644  1.0354  3.2495
  292MOL0     H38515   3.194   2.360   0.346  1.0172  1.3625  0.3272
  292MOL0     H38516   2.974   2.436   0.131  0.2119 -3.0466 -0.9953
  292MOL0     H38517   2.967   2.298   0.246  0.9461 -0.4022  0.1735
  292MOL0     H38518   3.012   2.590   0.319 -0.1812 -0.2551  1.3576
  292MOL0     H38519   2.992   2.450   0.431  0.4979  0.2367  0.1483
  292MOL0     H38520   2.768   2.408   0.318 -2.2083  0.8181  1.4845
  292MOL0     H38521   2.774   2.572   0.268 -0.6549 -0.9693 -0.9862
  292MOL0     H38522   2.827   2.505   0.570  1.6584  0.2358  0.7426
  292MOL0     H38523   2.825   2.652   0.487 -1.4689  0.4107 -2.1508
  292MOL0     H38524   2.562   2.588   0.432 -0.3323  2.7667  1.4250
  292MOL0     H38525   2.601   2.617   0.604  2.1222 -0.6672  2.0439
  292MOL0     H38526   3.678   2.251   0.142 -1.5000 -0.4720  0.5560
  292MOL0     H38527   3.901   2.189   0.245  0.1799  0.6748  1.2923
  292MOL0     H38528   4.104   1.902   0.545 -1.6701  0.1575  1.4610
  292MOL0     H38529   4.315   1.802   0.645  0.4800  0.0564  0.4141
  292MOL0     H38530   5.640   1.639   1.220  2.7740 -0.6790  4.9139
  292MOL0     H38531   5.504   1.645   1.406  4.5016  1.3094 -1.6464
  292MOL0     H38532   5.301   1.572   1.865 -2.8851  0.3432  3.4728
  292MOL0     H38533   5.118   1.619   1.989  1.1068  0.8323 -0.4710
  292MOL0     H38534   4.922   1.790   2.059  0.2398 -1.0898  0.4825
  292MOL0     H38535   4.908   1.620   2.095 -1.6184 -1.9389  0.3654
  292MOL0     H38536   4.696   1.821   2.037  1.0439  0.4533 -0.3833
  292MOL0     H38537   4.669   1.638   2.023  1.8495 -0.5421 -0.8361
  292MOL0     H38538   4.806   1.746   2.270  0.9235  0.7818 -1.0702
  292MOL0     H38539   4.662   1.640   2.255  1.2905 -0.1195 -1.4434
  292MOL0     H38540   4.520   1.840   2.199 -0.3531  1.3385  1.2131
  292MOL0     H38541   4.579   1.834   2.369 -1.2689 -0.2468 -0.9778
  292MOL0     H38542   4.757   2.191   2.225  0.6958 -0.4091  1.1735
  292MOL0     H38543   4.869   1.619   1.634  0.5260 -0.4127 -1.0272
  292MOL0     H38544   5.051   1.532   1.511 -2.0959 -0.7320  0.4839
  293MOL0     O38545   8.679   9.054   8.893 -0.0920 -0.0044  0.5777
  293MOL0     C38546   8.565   9.075   8.863  0.4511  0.2295  0.4612
  293MOL0     O38547   8.466   8.985   8.824  0.4947  0.2919  0.8760
  293MOL0     C38548   8.462   8.851   8.847 -0.6086  0.8278 -0.6119
  293MOL0     C38549   8.566   8.761   8.896  1.2172  1.0586 -0.1462
  293MOL0     C38550   8.534   8.620   8.916  0.0883 -0.9371 -0.3848
  293MOL0     C38551   8.415   8.570   8.870 -1.5812 -0.8052 -0.0389
  293MOL0     O38552   8.407   8.433   8.884  0.2972 -0.6652  0.5150
  293MOL0     C38553   8.393   8.386   9.019 -0.5986  0.1374 -0.1053
  293MOL0     C38554   8.519   8.322   9.074  0.3247  0.6312 -0.4438
  293MOL0     C38555   8.485   8.201   9.170 -0.4993  0.7575  0.3317
  293MOL0     C38556   8.625   8.143   9.222  0.3267  1.0538 -0.2852
  293MOL0     C38557   8.608   8.011   9.295  0.5466 -1.0336 -1.0397
  293MOL0     C38558   8.596   7.889   9.225  0.0243 -0.3511 -0.4004
  293MOL0     C38559   8.621   7.771   9.308 -0.1906 -0.0068 -0.3114
  293MOL0     C38560   8.542   7.759   9.430  0.3600  0.0093  0.5118
  293MOL0     N38561   8.549   7.622   9.480  0.2538 -0.8455 -0.0911
  293MOL0     C38562   8.636   7.595   9.587 -0.0186  0.3991  0.1735
  293MOL0     C38563   8.637   7.461   9.596 -0.2161 -0.0163 -0.0206
  293MOL0     C38564   8.706   7.388   9.714  0.7503 -0.1889 -0.4306
  293MOL0     C38565   8.679   7.242   9.718 -0.0698  0.2016 -0.8531
  293MOL0     C38566   8.730   7.166   9.594 -0.7342 -0.2490  1.0981
  293MOL0     C38567   8.879   7.173   9.576 -0.1232  0.2964 -0.2910
  293MOL0     O38568   8.943   7.124   9.690  0.3229 -1.2321  0.2554
  293MOL0     C38569   9.064   7.068   9.678 -1.4788  0.6229 -1.4186
  293MOL0     C38570   9.149   7.067   9.562 -0.2617  0.3227 -1.0108
  293MOL0     C38571   9.268   6.995   9.572  0.2814 -0.0604  0.6343
  293MOL0     C38572   9.322   6.940   9.690 -0.4435  0.2613 -0.1640
  293MOL0     C38573   9.465   6.878   9.696  0.1354 -0.8070  0.3911
  293MOL0     O38574   9.509   6.835   9.813  0.4976 -0.8683 -0.0643
  293MOL0     C38575   9.636   6.793   9.815 -0.5948 -0.1911 -0.0725
  293MOL0     C38576   9.741   6.875   9.760 -0.5541  0.0123 -0.0087
  293MOL0     C38577   9.867   6.817   9.739 -0.1674 -1.0741  0.7694
  293MOL0     C38578   9.889   6.691   9.784 -0.2118 -0.4932  0.5517
  293MOL0     O38579  10.013   6.633   9.775  0.0303  0.6967 -0.2316
  293MOL0     C38580  10.107   6.681   9.682  0.0151 -0.2626 -0.0030
  293MOL0     C38581  10.234   6.596   9.690 -0.5348 -0.8510  0.4454
  293MOL0     C38582  10.309   6.610   9.828  0.6670 -0.1787 -0.0289
  293MOL0     C38583  10.379   6.734   9.856  0.0962  0.4364 -0.3202
  293MOL0     C38584  10.483   6.720   9.968  0.0257  1.0377 -0.0042
  293MOL0     C38585  10.595   6.824   9.958 -0.1452 -0.2372  0.0091
  293MOL0     C38586  10.681   6.814  10.090 -0.9735 -0.4822  0.0807
  293MOL0     C38587  10.800   6.713  10.073 -0.7184 -0.0245  0.4158
  293MOL0    Cl38588  10.914   6.745  10.200 -0.1908  0.2094 -0.1646
  293MOL0     C38589   9.790   6.613   9.833  0.8080  1.0668 -1.0502
  293MOL0     C38590   9.661   6.667   9.862  0.9595 -0.3382 -0.3463
  293MOL0     O38591   9.509   6.837   9.586 -0.6638  0.3240  0.6166
  293MOL0     C38592   9.243   6.962   9.805 -0.4579  0.8044  0.0418
  293MOL0     C38593   9.107   7.014   9.795 -0.2618  0.4346 -0.2414
  293MOL0     N38594   8.531   7.414   9.510  0.0386  0.1956 -0.1953
  293MOL0     N38595   8.481   7.511   9.439 -0.3438 -0.8485  0.0433
  293MOL0     C38596   8.318   8.653   8.833  0.4537  0.7162  0.0821
  293MOL0     C38597   8.341   8.788   8.821  0.1077  0.3946 -1.0680
  293MOL0     C38598   8.525   9.224   8.857 -0.4608  0.7675  0.1057
  293MOL0     C38599   8.401   9.256   8.822  0.9239  0.0620  0.2790
  293MOL0     C38600   8.362   9.392   8.829 -0.2448 -0.2176 -0.8198
  293MOL0     C38601   8.443   9.500   8.873  0.1034  0.1835 -1.0466
  293MOL0     O38602   8.405   9.630   8.887 -0.3095  0.0403  0.0258
  293MOL0     C38603   8.444   9.719   8.782 -0.2387 -0.7727 -0.0899
  293MOL0     C38604   8.362   9.847   8.814  0.6536 -0.1948 -0.5483
  293MOL0     C38605   8.402   9.971   8.726 -0.0174 -0.4512 -0.1113
  293MOL0     C38606   8.534  10.047   8.760  0.6183  0.4413 -0.0156
  293MOL0     C38607   8.544  10.088   8.899  0.1098 -0.5544  1.0498
  293MOL0     C38608   8.550  10.139   9.010 -0.6636  0.4201  0.5485
  293MOL0     C38609   8.578   9.458   8.905  1.2292 -0.0409 -0.2619
  293MOL0     C38610   8.613   9.327   8.898  0.2897 -0.1636  0.4240
  293MOL0     H38611   8.661   8.810   8.915 -0.2828  2.9647  3.4284
  293MOL0     H38612   8.600   8.541   8.950  1.5302  0.0349 -0.8295
  293MOL0     H38613   8.314   8.313   9.001 -1.5763  1.3935 -1.1957
  293MOL0     H38614   8.348   8.464   9.081  3.8866  1.5440  1.7789
  293MOL0     H38615   8.568   8.394   9.140  0.7721  0.7624 -0.9189
  293MOL0     H38616   8.588   8.297   8.993 -2.4101 -0.6029 -2.5762
  293MOL0     H38617   8.427   8.128   9.114 -2.1890  2.6798 -0.5173
  293MOL0     H38618   8.433   8.216   9.265 -0.5475 -0.5089  0.5246
  293MOL0     H38619   8.695   8.118   9.142 -0.7744 -0.6187 -0.7727
  293MOL0     H38620   8.670   8.220   9.285 -1.3086  0.7035  1.3952
  293MOL0     H38621   8.525   8.026   9.365  2.7368  5.2578  0.9775
  293MOL0     H38622   8.693   8.007   9.364  0.1251  0.5107 -0.3756
  293MOL0     H38623   8.676   7.881   9.150 -1.2406 -1.1390 -1.7148
  293MOL0     H38624   8.508   7.887   9.160 -0.0213 -0.7575 -0.3268
  293MOL0     H38625   8.598   7.682   9.248 -0.0329  1.1054 -2.0910
  293MOL0     H38626   8.723   7.775   9.347 -1.4168  2.2502  3.0970
  293MOL0     H38627   8.440   7.794   9.413  0.2495  1.3351  3.3402
  293MOL0     H38628   8.569   7.827   9.511 -1.2857  2.8564 -1.1722
  293MOL0     H38629   8.702   7.656   9.648  0.7165 -0.6006  0.4105
  293MOL0     H38630   8.663   7.431   9.805 -0.7915 -2.5282  0.0497
  293MOL0     H38631   8.814   7.400   9.725  0.6368  1.8923 -1.3216
  293MOL0     H38632   8.572   7.222   9.730  0.2381 -0.5301  1.0074
  293MOL0     H38633   8.728   7.198   9.805  0.5038 -0.1991 -1.3690
  293MOL0     H38634   8.705   7.060   9.602  0.5195 -0.6119  0.4023
  293MOL0     H38635   8.685   7.197   9.499  1.8638 -1.7707 -0.7502
  293MOL0     H38636   8.902   7.277   9.552 -3.2133  0.9280 -0.9820
  293MOL0     H38637   8.912   7.106   9.496  3.7634 -1.6435  2.5904
  293MOL0     H38638   9.109   7.118   9.474 -0.4830  2.0085  0.0326
  293MOL0     H38639   9.323   6.990   9.478 -0.0657  0.1302  0.4220
  293MOL0     H38640   9.731   6.979   9.730 -2.9243 -0.2976 -0.4822
  293MOL0     H38641   9.932   6.879   9.678  3.6799 -3.9299  1.6530
  293MOL0     H38642  10.132   6.784   9.709  0.1472 -0.5108  0.8463
  293MOL0     H38643  10.056   6.677   9.585  1.5240  2.0793 -0.9725
  293MOL0     H38644  10.302   6.632   9.612 -3.3814  1.5633 -1.1442
  293MOL0     H38645  10.216   6.490   9.672 -2.0774 -0.6291  0.5408
  293MOL0     H38646  10.386   6.532   9.823  3.1456  2.2034 -4.4955
  293MOL0     H38647  10.231   6.590   9.903  0.9480 -1.9983 -0.1781
  293MOL0     H38648  10.428   6.765   9.763 -0.4724 -1.5835 -1.3718
  293MOL0     H38649  10.297   6.806   9.862  0.6078  0.9196  1.1138
  293MOL0     H38650  10.531   6.623   9.967 -2.6912 -0.4188 -0.1010
  293MOL0     H38651  10.437   6.742  10.066  0.8205 -3.6598  1.6620
  293MOL0     H38652  10.541   6.919   9.948 -0.3066 -0.2156  0.9475
  293MOL0     H38653  10.655   6.808   9.868 -0.2962 -0.5980 -0.0310
  293MOL0     H38654  10.729   6.911  10.107 -0.4388 -0.3469 -1.9576
  293MOL0     H38655  10.617   6.794  10.176 -0.1060 -2.7647  0.2476
  293MOL0     H38656  10.849   6.729   9.976 -0.2666  1.6980  0.8956
  293MOL0     H38657  10.770   6.610  10.094 -0.6511  0.5410  3.8017
  293MOL0     H38658   9.794   6.511   9.869 -0.1311  1.8912  1.6587
  293MOL0     H38659   9.579   6.602   9.888 -0.2792  0.8823 -1.0383
  293MOL0     H38660   9.278   6.936   9.905 -1.5956 -2.5774 -0.2909
  293MOL0     H38661   9.048   7.035   9.883  1.6961  1.1703  0.9684
  293MOL0     H38662   8.223   8.610   8.803  1.3879 -0.7722 -0.8742
  293MOL0     H38663   8.255   8.852   8.802 -2.2185 -2.4311 -0.8796
  293MOL0     H38664   8.335   9.175   8.795  1.2701 -0.3921  0.7823
  293MOL0     H38665   8.261   9.421   8.801 -0.8383 -0.2536  1.1566
  293MOL0     H38666   8.413   9.667   8.690 -1.9907 -1.1980  0.6945
  293MOL0     H38667   8.553   9.720   8.777 -0.2364 -2.3975 -1.0486
  293MOL0     H38668   8.253   9.840   8.806  0.8057 -1.3447 -2.0260
  293MOL0     H38669   8.385   9.871   8.919  2.5312  1.5100 -1.2797
  293MOL0     H38670   8.313  10.036   8.724  2.3311  3.0770  0.8165
  293MOL0     H38671   8.416   9.949   8.619  0.3001 -1.8682  0.2023
  293MOL0     H38672   8.624   9.994   8.727 -1.6285 -1.2131 -4.2396
  293MOL0     H38673   8.534  10.143   8.707 -1.3343 -0.5890 -2.0498
  293MOL0     H38674   8.562  10.195   9.101  1.4498  3.2071 -1.2413
  293MOL0     H38675   8.653   9.516   8.957 -2.1481  2.8170  1.8167
  293MOL0     H38676   8.710   9.310   8.942 -1.5443 -3.2514  3.8431
  294MOL0     O38677   0.526   8.852  10.481  0.6762 -0.9039 -0.7414
  294MOL0     C38678   0.470   8.945  10.542 -0.5799  0.2928 -0.0065
  294MOL0     O38679   0.331   8.955  10.570  0.2899 -0.0649 -0.1612
  294MOL0     C38680   0.261   8.844  10.533  0.2368  0.0842 -0.0233
  294MOL0     C38681   0.278   8.718  10.595  0.7566  0.1912 -0.8017
  294MOL0     C38682   0.181   8.617  10.576 -0.2311 -0.0179  0.2105
  294MOL0     C38683   0.083   8.634  10.480 -1.5063  0.6477 -0.2951
  294MOL0     O38684  -0.019   8.542  10.459 -0.2082  0.2788 -0.0458
  294MOL0     C38685  -0.015   8.485  10.323 -0.1947  0.1507 -0.2131
  294MOL0     C38686  -0.063   8.340  10.331  0.7450 -0.3850  0.5076
  294MOL0     C38687  -0.191   8.320  10.411  0.4888 -0.3614 -0.0733
  294MOL0     C38688  -0.248   8.181  10.395 -0.4422 -0.3815  0.6488
  294MOL0     C38689  -0.315   8.139  10.257 -0.0737 -0.1444 -0.4496
  294MOL0     C38690  -0.313   7.994  10.258 -0.2440  0.3479  0.9048
  294MOL0     C38691  -0.360   7.935  10.128  0.9777  0.0076 -0.5923
  294MOL0     C38692  -0.509   7.941  10.114  0.8540 -0.1156  0.3766
  294MOL0     N38693  -0.567   7.861  10.006 -0.0615 -0.5084 -0.9995
  294MOL0     C38694  -0.504   7.837   9.889 -0.5621  0.4995 -0.3304
  294MOL0     C38695  -0.604   7.786   9.817  0.2599  0.0698 -0.0701
  294MOL0     C38696  -0.583   7.711   9.691  0.3888 -0.3218  0.6785
  294MOL0     C38697  -0.711   7.666   9.616  0.3131 -0.4136 -0.7683
  294MOL0     C38698  -0.680   7.568   9.508 -0.5971  0.7716  0.4246
  294MOL0     C38699  -0.805   7.495   9.452 -0.4714 -0.4951 -0.1249
  294MOL0     O38700  -0.771   7.387   9.361  0.8886 -0.2231 -0.7410
  294MOL0     C38701  -0.865   7.356   9.265 -0.7723  1.4046 -0.5046
  294MOL0     C38702  -0.818   7.280   9.162 -0.8691 -0.4804 -0.6105
  294MOL0     C38703  -0.897   7.257   9.057  0.5837  0.1437 -0.1642
  294MOL0     C38704  -1.026   7.306   9.041  0.4193 -0.5493 -0.4156
  294MOL0     C38705  -1.127   7.269   8.927 -0.8981  0.2943  0.3377
  294MOL0     O38706  -1.106   7.155   8.843 -0.5192 -1.8127  0.3194
  294MOL0     C38707  -1.197   7.124   8.742 -1.2210 -0.4566 -0.6444
  294MOL0     C38708  -1.334   7.115   8.744 -0.6356  0.7569 -0.0946
  294MOL0     C38709  -1.408   7.071   8.629  0.3868  0.6720 -0.8830
  294MOL0     C38710  -1.342   7.009   8.523  0.3770 -0.2289 -0.8159
  294MOL0     O38711  -1.409   6.957   8.413  0.3953  0.1968  0.4339
  294MOL0     C38712  -1.556   6.933   8.413 -0.8473 -0.0172  0.4944
  294MOL0     C38713  -1.593   6.812   8.323 -0.8663  0.0663 -0.7552
  294MOL0     C38714  -1.514   6.791   8.188  0.0666 -0.0616 -0.4108
  294MOL0     C38715  -1.549   6.902   8.096 -0.4814  0.6235 -0.5797
  294MOL0     C38716  -1.700   6.904   8.055  1.0665  0.2266 -0.0114
  294MOL0     C38717  -1.720   6.995   7.934 -0.6238 -0.2902  0.4923
  294MOL0     C38718  -1.867   7.024   7.891  0.7033  0.6357  0.0060
  294MOL0     C38719  -1.882   7.079   7.743 -0.3832  0.1689 -0.9408
  294MOL0    Cl38720  -2.054   7.122   7.727  0.3848 -0.0069 -0.0542
  294MOL0     C38721  -1.204   7.032   8.516  0.2213 -0.0988 -0.4459
  294MOL0     C38722  -1.132   7.089   8.624 -0.2666  0.1702 -0.0585
  294MOL0     O38723  -1.218   7.344   8.920  0.5021  0.4330 -0.0869
  294MOL0     C38724  -1.071   7.387   9.144 -0.5663  0.8692  0.0247
  294MOL0     C38725  -0.995   7.406   9.254 -0.1059  0.9984  0.5916
  294MOL0     N38726  -0.720   7.775   9.886  1.1051 -0.2371  0.0581
  294MOL0     N38727  -0.697   7.829  10.000  0.4480  0.2471 -0.8621
  294MOL0     C38728   0.070   8.764  10.420 -0.9162  0.0416 -0.4399
  294MOL0     C38729   0.154   8.871  10.453 -0.0539  0.1346  0.3314
  294MOL0     C38730   0.561   9.062  10.580 -0.7428  0.4047 -0.1063
  294MOL0     C38731   0.695   9.074  10.543  0.0491  0.4154 -0.3832
  294MOL0     C38732   0.768   9.183  10.580 -0.4284  0.0541 -0.7580
  294MOL0     C38733   0.703   9.287  10.656  0.3986  0.0425 -0.8903
  294MOL0     O38734   0.778   9.389  10.704  0.6017 -0.0818 -0.1683
  294MOL0     C38735   0.841   9.348  10.832  0.4642  0.4930 -0.1936
  294MOL0     C38736   0.774   9.436  10.933  0.0999  0.8428 -0.4796
  294MOL0     C38737   0.770   9.587  10.911  0.2896  0.2214  0.4468
  294MOL0     C38738   0.716   9.667  11.036 -0.0422  0.0656  0.2590
  294MOL0     C38739   0.755   9.812  11.012  1.2610 -0.2756  0.3175
  294MOL0     C38740   0.799   9.924  10.994 -0.5522  0.4299  1.0182
  294MOL0     C38741   0.572   9.271  10.695 -0.5269 -0.0634 -0.3504
  294MOL0     C38742   0.502   9.159  10.657 -0.4526 -0.2956  0.8175
  294MOL0     H38743   0.354   8.699  10.670  0.0016  0.0948 -0.0493
  294MOL0     H38744   0.187   8.517  10.618  0.0885 -0.9353 -1.9057
  294MOL0     H38745   0.084   8.486  10.277  0.3153 -0.0691  0.8405
  294MOL0     H38746  -0.093   8.534  10.264 -0.8166  1.2780  1.4860
  294MOL0     H38747   0.021   8.286  10.376 -1.7661 -1.6292  4.2112
  294MOL0     H38748  -0.078   8.293  10.233  0.2297 -0.6592  0.7109
  294MOL0     H38749  -0.265   8.393  10.376  1.3114  2.0368  2.7616
  294MOL0     H38750  -0.163   8.337  10.515  1.0395 -0.3858 -0.2148
  294MOL0     H38751  -0.186   8.097  10.427  1.7192 -0.3235 -2.8841
  294MOL0     H38752  -0.330   8.172  10.467  0.1047 -0.0799  1.3163
  294MOL0     H38753  -0.269   8.178  10.165 -0.2587  3.0514  0.6743
  294MOL0     H38754  -0.412   8.189  10.252  0.4550  0.8269 -2.7610
  294MOL0     H38755  -0.387   7.974  10.336  0.4738  0.7618  1.7089
  294MOL0     H38756  -0.217   7.948  10.283 -1.2400 -2.5667 -0.2458
  294MOL0     H38757  -0.326   7.999  10.046  3.0447 -0.6803 -0.3221
  294MOL0     H38758  -0.316   7.836  10.112 -3.3046 -1.9285 -2.0268
  294MOL0     H38759  -0.536   8.043  10.085  0.2810 -0.8396 -1.8358
  294MOL0     H38760  -0.562   7.921  10.208  0.0593  2.8739  0.6623
  294MOL0     H38761  -0.401   7.849   9.859 -0.2761 -3.0033 -1.0972
  294MOL0     H38762  -0.517   7.625   9.703  0.3702 -0.2616  1.2761
  294MOL0     H38763  -0.522   7.783   9.636 -1.7924  1.2133  0.1314
  294MOL0     H38764  -0.758   7.755   9.572  3.1515  0.1362 -2.9902
  294MOL0     H38765  -0.793   7.627   9.676 -1.4078  1.2827 -1.8992
  294MOL0     H38766  -0.636   7.632   9.430 -0.4603  2.2383  1.6673
  294MOL0     H38767  -0.615   7.488   9.545 -1.7113  0.5787  2.0605
  294MOL0     H38768  -0.850   7.583   9.406 -1.1601  1.0225  3.1821
  294MOL0     H38769  -0.871   7.450   9.527  0.1130 -0.3555  0.4804
  294MOL0     H38770  -0.715   7.245   9.166 -0.4454  0.6229 -1.4175
  294MOL0     H38771  -0.859   7.176   8.995  0.0493 -2.2884  2.4741
  294MOL0     H38772  -1.386   7.158   8.829 -1.8904 -3.3392  1.4742
  294MOL0     H38773  -1.516   7.074   8.623  0.4021  2.1548 -0.9914
  294MOL0     H38774  -1.599   7.030   8.388  0.1072  0.7921  1.8630
  294MOL0     H38775  -1.594   6.916   8.514 -0.1618  3.5698  1.4634
  294MOL0     H38776  -1.701   6.797   8.314 -0.6452 -1.2018 -1.5110
  294MOL0     H38777  -1.568   6.723   8.380 -0.8787 -0.2275 -1.1993
  294MOL0     H38778  -1.534   6.692   8.146  0.2039  0.6868 -2.3522
  294MOL0     H38779  -1.406   6.792   8.205 -0.3034 -0.7642  2.6342
  294MOL0     H38780  -1.530   6.989   8.160  0.0640 -1.9487  3.0084
  294MOL0     H38781  -1.481   6.907   8.011 -1.1129 -0.3704 -1.1678
  294MOL0     H38782  -1.755   6.958   8.133 -1.4858  0.1600 -1.6303
  294MOL0     H38783  -1.759   6.812   8.041 -0.6655  1.2256  0.3789
  294MOL0     H38784  -1.660   6.946   7.858 -3.3469 -1.6147 -0.9663
  294MOL0     H38785  -1.680   7.096   7.950 -2.0029  0.4404 -0.4806
  294MOL0     H38786  -1.921   6.929   7.890  2.4369 -0.4200  1.1167
  294MOL0     H38787  -1.912   7.106   7.947 -0.8790 -0.5253  0.5057
  294MOL0     H38788  -1.873   6.998   7.670  0.0639 -1.2106  0.5840
  294MOL0     H38789  -1.818   7.162   7.712 -0.6779 -0.4209 -3.3724
  294MOL0     H38790  -1.156   7.004   8.423 -0.5387  2.1986 -1.6054
  294MOL0     H38791  -1.024   7.096   8.622 -0.0155 -1.2606  2.7731
  294MOL0     H38792  -1.172   7.425   9.139 -0.2080  1.6397 -1.9988
  294MOL0     H38793  -1.040   7.460   9.336 -0.2496  2.0878 -0.1694
  294MOL0     H38794   0.000   8.773  10.337 -0.3293 -2.6485 -1.3347
  294MOL0     H38795   0.141   8.969  10.409 -4.4621 -0.6483 -0.5580
  294MOL0     H38796   0.742   8.986  10.500  1.4048  1.1374 -0.4467
  294MOL0     H38797   0.874   9.192  10.563 -0.3776 -1.7043 -1.5561
  294MOL0     H38798   0.947   9.372  10.821  1.0140 -1.3315  0.7597
  294MOL0     H38799   0.822   9.244  10.859 -5.2941  1.3447  0.2714
  294MOL0     H38800   0.672   9.397  10.933 -1.2803  3.8181 -4.1627
  294MOL0     H38801   0.822   9.419  11.030 -1.2608 -2.4695 -0.2373
  294MOL0     H38802   0.704   9.613  10.827  1.8673  4.1012  0.1967
  294MOL0     H38803   0.874   9.611  10.886 -0.1467  1.3365 -0.3873
  294MOL0     H38804   0.607   9.659  11.041  0.0661 -1.5773  0.5501
  294MOL0     H38805   0.765   9.638  11.129  0.6570  2.7741  0.8191
  294MOL0     H38806   0.846  10.020  10.984 -0.5713  0.4247  0.8634
  294MOL0     H38807   0.540   9.349  10.763  2.0386 -0.8806  1.9893
  294MOL0     H38808   0.403   9.143  10.697  0.6594 -2.5038  2.9737
  295MOL0     O38809   5.281   0.740   3.876 -0.0056  0.0956 -0.4497
  295MOL0     C38810   5.264   0.659   3.797  0.6691  0.2962 -0.0789
  295MOL0     O38811   5.149   0.627   3.729 -0.1668  0.4785  0.1752
  295MOL0     C38812   5.018   0.673   3.750  0.6870  0.0317  0.8278
  295MOL0     C38813   4.971   0.783   3.821 -0.0626 -0.4363 -0.8558
  295MOL0     C38814   4.839   0.822   3.826 -0.2846  0.4103  0.1333
  295MOL0     C38815   4.738   0.757   3.745  0.1443 -0.3971  0.0216
  295MOL0     O38816   4.612   0.818   3.738  0.0731 -0.0020  0.1133
  295MOL0     C38817   4.540   0.854   3.857  0.1230  0.4292  0.2746
  295MOL0     C38818   4.389   0.803   3.869 -0.1502 -0.2441  0.3273
  295MOL0     C38819   4.331   0.815   4.012 -0.2120  0.0113 -0.0071
  295MOL0     C38820   4.181   0.772   4.002 -0.3587  1.3007 -0.5133
  295MOL0     C38821   4.086   0.845   4.105 -0.8129 -0.1592 -0.1120
  295MOL0     C38822   3.935   0.814   4.083  0.4549  0.1783  0.7474
  295MOL0     C38823   3.868   0.894   3.969  0.6386  0.3678  0.3335
  295MOL0     C38824   3.718   0.867   3.942  0.0247  0.5419  0.0766
  295MOL0     N38825   3.638   0.848   4.056  0.1173  0.6381  0.2906
  295MOL0     C38826   3.553   0.750   4.093  1.0562  0.0746  0.2066
  295MOL0     C38827   3.508   0.791   4.213  0.2662 -0.7998 -0.6121
  295MOL0     C38828   3.421   0.707   4.307 -0.4981  0.1639  0.0218
  295MOL0     C38829   3.272   0.737   4.317 -0.6563 -0.0979  0.5581
  295MOL0     C38830   3.196   0.638   4.424 -0.7729 -0.7841 -0.5914
  295MOL0     C38831   3.050   0.679   4.430 -0.3855  0.5332  0.1769
  295MOL0     O38832   2.965   0.569   4.490 -0.4011 -0.5249  1.0717
  295MOL0     C38833   2.854   0.606   4.561  0.2435  0.6816  0.2803
  295MOL0     C38834   2.815   0.514   4.651  0.4239  0.7494 -0.2818
  295MOL0     C38835   2.699   0.532   4.728  0.6742  0.6029  0.0474
  295MOL0     C38836   2.624   0.653   4.716  0.3180 -0.1677 -1.2210
  295MOL0     C38837   2.495   0.682   4.784  0.3307  0.0746 -0.4986
  295MOL0     O38838   2.439   0.794   4.730  0.5246  0.3917  0.0788
  295MOL0     C38839   2.331   0.836   4.804  0.6358 -0.5088  0.2135
  295MOL0     C38840   2.361   0.909   4.923  0.2311  0.8838 -0.4965
  295MOL0     C38841   2.254   0.969   4.985  0.3453 -0.4235 -0.8914
  295MOL0     C38842   2.122   0.963   4.948  0.2146  0.2173 -0.1036
  295MOL0     O38843   2.044   1.026   5.038  0.5572  0.6479 -0.5141
  295MOL0     C38844   1.914   1.068   4.979 -0.0797  0.3801  0.6017
  295MOL0     C38845   1.853   1.177   5.062  0.7459  0.3746  0.4028
  295MOL0     C38846   1.722   1.240   5.007  0.5148  1.0441 -0.4166
  295MOL0     C38847   1.686   1.357   5.092  1.3065  0.8729  0.1743
  295MOL0     C38848   1.533   1.384   5.062  0.5299  0.6238 -0.4103
  295MOL0     C38849   1.530   1.417   4.912 -0.3063 -0.8642 -0.0669
  295MOL0     C38850   1.405   1.514   4.898 -0.3082  0.1454 -0.7101
  295MOL0     C38851   1.381   1.555   4.757 -0.1529 -0.7440  0.1508
  295MOL0    Cl38852   1.224   1.642   4.749  0.0062 -0.0384  0.1057
  295MOL0     C38853   2.094   0.889   4.835 -0.5123 -0.1568 -0.1908
  295MOL0     C38854   2.198   0.837   4.753  0.6135 -0.0227 -0.5428
  295MOL0     O38855   2.454   0.610   4.880  0.2582  0.8111  0.3474
  295MOL0     C38856   2.683   0.750   4.634  0.7327 -0.0846  0.1438
  295MOL0     C38857   2.786   0.719   4.551  0.3217 -0.5957  0.0001
  295MOL0     N38858   3.551   0.917   4.240 -0.2192 -0.7646 -0.1509
  295MOL0     N38859   3.614   0.956   4.139  0.4477 -0.3052 -0.5933
  295MOL0     C38860   4.776   0.648   3.668  0.4301 -0.3196  0.7558
  295MOL0     C38861   4.910   0.600   3.675 -1.4446 -0.1271 -0.8697
  295MOL0     C38862   5.392   0.598   3.751 -0.3152  0.0240  0.9311
  295MOL0     C38863   5.519   0.622   3.809 -0.3852 -0.4859 -0.0973
  295MOL0     C38864   5.634   0.541   3.771  0.4352  0.7006  0.0965
  295MOL0     C38865   5.622   0.448   3.669 -0.3188  0.6096 -0.2866
  295MOL0     O38866   5.748   0.390   3.655  0.7167  0.6079 -0.0904
  295MOL0     C38867   5.772   0.308   3.541  0.8469 -0.9641  0.1946
  295MOL0     C38868   5.789   0.393   3.414 -0.3122 -1.4166 -0.3738
  295MOL0     C38869   5.863   0.522   3.411  0.1100 -0.6532  0.0192
  295MOL0     C38870   5.992   0.508   3.493 -0.6055  0.2804  0.1327
  295MOL0     C38871   6.101   0.554   3.403  0.3533  0.6542 -0.5406
  295MOL0     C38872   6.202   0.585   3.346 -0.5067 -1.1535  0.0154
  295MOL0     C38873   5.497   0.427   3.605  0.1689 -0.2693 -0.5078
  295MOL0     C38874   5.386   0.502   3.647 -0.6059 -0.4360 -0.3569
  295MOL0     H38875   5.042   0.832   3.886  1.8667 -2.1493 -1.5617
  295MOL0     H38876   4.823   0.916   3.877 -0.4142  0.8129 -0.6298
  295MOL0     H38877   4.532   0.963   3.863  3.2375  0.9926 -2.7347
  295MOL0     H38878   4.594   0.820   3.946 -3.1964 -1.9746  1.5749
  295MOL0     H38879   4.378   0.698   3.840  0.3969 -0.6029  1.3994
  295MOL0     H38880   4.336   0.867   3.798  1.4635  1.2527  0.4208
  295MOL0     H38881   4.340   0.921   4.038 -0.7415  0.3839 -1.2838
  295MOL0     H38882   4.387   0.750   4.080 -1.4055  0.0402  1.0310
  295MOL0     H38883   4.134   0.799   3.907 -2.1764  3.0638  0.7987
  295MOL0     H38884   4.194   0.664   4.014  2.5901  1.3516 -2.2402
  295MOL0     H38885   4.100   0.952   4.089  1.2208 -0.3613  0.1258
  295MOL0     H38886   4.117   0.823   4.207  0.7182  1.0312 -0.2875
  295MOL0     H38887   3.889   0.837   4.180  0.4782 -0.8390  1.0071
  295MOL0     H38888   3.923   0.707   4.064 -0.8742  0.5794 -0.9438
  295MOL0     H38889   3.878   1.002   3.986 -2.6803  1.4616 -3.2524
  295MOL0     H38890   3.922   0.859   3.881 -1.8186  0.4245 -1.3000
  295MOL0     H38891   3.704   0.778   3.879 -2.0780  0.3096  0.7842
  295MOL0     H38892   3.680   0.952   3.884 -0.4293 -1.0312 -2.0678
  295MOL0     H38893   3.527   0.655   4.046 -1.8665  0.4298  0.9489
  295MOL0     H38894   3.465   0.710   4.407 -0.5229  0.5329  0.0240
  295MOL0     H38895   3.434   0.605   4.270 -1.3924  0.0779 -0.0843
  295MOL0     H38896   3.231   0.746   4.216  0.6602  1.5250  0.1137
  295MOL0     H38897   3.270   0.836   4.362  2.4156 -1.2811  3.8175
  295MOL0     H38898   3.212   0.536   4.389  1.1350 -0.0396 -2.0330
  295MOL0     H38899   3.237   0.646   4.526 -1.3283 -0.0027 -0.4203
  295MOL0     H38900   3.010   0.702   4.331 -0.0607 -0.2530 -0.1436
  295MOL0     H38901   3.034   0.769   4.490 -2.6612 -1.6574  3.2151
  295MOL0     H38902   2.853   0.413   4.659  2.1140  1.0456 -2.8982
  295MOL0     H38903   2.660   0.451   4.787  0.5373  0.5246 -0.1491
  295MOL0     H38904   2.460   0.905   4.966 -0.2049 -1.1528  0.4380
  295MOL0     H38905   2.279   1.019   5.079 -1.4259 -1.9905  0.4985
  295MOL0     H38906   1.848   0.981   4.992  2.3273 -1.2648  2.7233
  295MOL0     H38907   1.920   1.107   4.877 -2.0123 -0.7133 -0.0023
  295MOL0     H38908   1.923   1.261   5.066  0.4647  0.6880 -0.7456
  295MOL0     H38909   1.824   1.147   5.163 -1.4909 -0.2232 -0.3448
  295MOL0     H38910   1.646   1.162   5.017  0.3562  1.4671  2.5232
  295MOL0     H38911   1.732   1.275   4.904  2.9711 -0.3275 -0.7081
  295MOL0     H38912   1.709   1.334   5.196 -1.3653  2.2611  1.1685
  295MOL0     H38913   1.752   1.437   5.059  0.7035  2.9216  3.4662
  295MOL0     H38914   1.515   1.470   5.126  0.3197 -0.6970  1.3978
  295MOL0     H38915   1.461   1.305   5.088 -0.9864  2.4399  1.2150
  295MOL0     H38916   1.510   1.329   4.852 -1.1694  0.5494 -1.9502
  295MOL0     H38917   1.623   1.460   4.873  0.2173 -3.5780 -2.0816
  295MOL0     H38918   1.312   1.468   4.933  0.1128  0.8722  1.5817
  295MOL0     H38919   1.423   1.605   4.957  1.0237  2.7880 -4.8079
  295MOL0     H38920   1.377   1.470   4.689 -1.7858 -0.2785 -0.3941
  295MOL0     H38921   1.457   1.619   4.713 -2.5603  1.4028 -1.1670
  295MOL0     H38922   1.992   0.863   4.810 -0.4809 -1.8031  1.1983
  295MOL0     H38923   2.181   0.781   4.662 -0.6430 -3.2638  1.5281
  295MOL0     H38924   2.653   0.854   4.626  2.8601  0.4540 -1.9465
  295MOL0     H38925   2.807   0.790   4.471  0.7910  1.2900  1.7100
  295MOL0     H38926   4.708   0.597   3.601  2.6346  1.2107 -2.9512
  295MOL0     H38927   4.937   0.510   3.620 -1.1720 -0.9434  0.5418
  295MOL0     H38928   5.543   0.696   3.884  0.5929  0.4351 -1.2697
  295MOL0     H38929   5.730   0.545   3.822 -0.9032  2.1308  2.7328
  295MOL0     H38930   5.686   0.242   3.521  0.4326 -1.0110  1.9346
  295MOL0     H38931   5.866   0.257   3.566  1.9235  0.9823  0.2439
  295MOL0     H38932   5.842   0.326   3.346  1.5479 -0.4778  0.0845
  295MOL0     H38933   5.688   0.414   3.378 -0.8670 -0.7476  1.4691
  295MOL0     H38934   5.802   0.606   3.444  0.3366  0.0485 -1.2616
  295MOL0     H38935   5.875   0.545   3.304 -0.5296  2.8276  0.5939
  295MOL0     H38936   5.985   0.555   3.592 -2.1000  1.8789 -0.6721
  295MOL0     H38937   6.025   0.404   3.500  1.4586  0.2584 -5.4511
  295MOL0     H38938   6.295   0.630   3.316  0.4452 -2.5299  0.7984
  295MOL0     H38939   5.479   0.357   3.524 -2.7825 -3.7304  2.7529
  295MOL0     H38940   5.302   0.483   3.580  0.0070 -1.3489 -0.8917
  296MOL0     O38941  10.360   7.676  10.983  0.5395  0.2477 -0.3446
  296MOL0     C38942  10.427   7.626  10.894 -0.6483 -0.7433  0.3711
  296MOL0     O38943  10.557   7.657  10.867  0.1566 -0.2024 -0.7594
  296MOL0     C38944  10.612   7.751  10.956  0.0062  0.9314 -0.3471
  296MOL0     C38945  10.582   7.883  10.944 -0.2262 -0.0444  0.4888
  296MOL0     C38946  10.624   7.975  11.036 -0.3093  0.1634 -1.4626
  296MOL0     C38947  10.708   7.945  11.140  0.0441 -0.0561 -0.4690
  296MOL0     O38948  10.729   8.038  11.241 -0.3472 -0.3850  0.6332
  296MOL0     C38949  10.855   8.034  11.308  0.2370 -0.9021  1.1799
  296MOL0     C38950  10.862   8.162  11.390 -0.0912  0.4537 -0.4040
  296MOL0     C38951  10.822   8.296  11.333  0.1620  0.4116 -0.4254
  296MOL0     C38952  10.927   8.351  11.233  0.0547  0.1063 -0.2081
  296MOL0     C38953  10.865   8.455  11.144  0.2563 -0.0980  1.1602
  296MOL0     C38954  10.812   8.580  11.210  0.3269  0.2386 -0.0953
  296MOL0     C38955  10.741   8.659  11.098  0.7624 -0.8657 -0.3019
  296MOL0     C38956  10.680   8.788  11.169 -0.2579  0.2883  0.1039
  296MOL0     N38957  10.580   8.842  11.083  0.4397 -0.9221 -0.1005
  296MOL0     C38958  10.444   8.810  11.070  0.5677  0.2538  0.5607
  296MOL0     C38959  10.392   8.895  10.979 -0.7811 -0.2130  1.3617
  296MOL0     C38960  10.262   8.923  10.917  0.5120 -0.0525 -0.5504
  296MOL0     C38961  10.275   8.890  10.770  0.9515 -0.5926 -0.4138
  296MOL0     C38962  10.176   8.984  10.697  0.5231 -0.9649 -0.5940
  296MOL0     C38963  10.027   8.947  10.717  0.6639  0.0946  0.3282
  296MOL0     O38964   9.980   8.988  10.851  0.8774  0.3986 -0.2596
  296MOL0     C38965   9.851   9.024  10.859  0.3243 -0.6393 -0.2369
  296MOL0     C38966   9.748   8.939  10.835  0.1625 -1.0575 -0.2250
  296MOL0     C38967   9.612   8.979  10.845  0.1268 -0.3097  0.0605
  296MOL0     C38968   9.583   9.112  10.884 -0.5769  0.0315  0.1330
  296MOL0     C38969   9.447   9.147  10.914  0.5586 -0.2459  0.9277
  296MOL0     O38970   9.357   9.049  10.944 -0.4409  0.1807 -0.0300
  296MOL0     C38971   9.233   9.044  10.879  0.8726 -0.3840 -0.1002
  296MOL0     C38972   9.134   9.000  10.966 -0.8701 -0.0136  0.3930
  296MOL0     C38973   8.996   9.003  10.926  0.2686 -0.7906  0.7056
  296MOL0     C38974   8.963   9.029  10.794  0.1098  0.0193 -0.0399
  296MOL0     O38975   8.830   9.017  10.766 -0.5132 -0.7537  0.2786
  296MOL0     C38976   8.778   9.088  10.657  1.1040  0.6770 -0.2404
  296MOL0     C38977   8.656   9.162  10.720  0.3336 -0.1881 -0.5500
  296MOL0     C38978   8.530   9.085  10.751  0.4958  0.0646 -0.0062
  296MOL0     C38979   8.422   9.170  10.821  0.3758  0.1143 -0.9432
  296MOL0     C38980   8.279   9.108  10.840  0.1756 -1.3596  0.4085
  296MOL0     C38981   8.280   8.960  10.863  0.7721 -0.7221 -0.2375
  296MOL0     C38982   8.142   8.907  10.911  0.6347  0.1600  0.0492
  296MOL0     C38983   8.104   8.789  10.834 -0.2351  0.7824  0.2511
  296MOL0    Cl38984   8.020   8.826  10.687  0.5209 -0.3460 -0.2543
  296MOL0     C38985   9.063   9.080  10.708 -0.0526 -0.5658  0.1151
  296MOL0     C38986   9.191   9.090  10.753  0.1944 -0.0710 -0.2121
  296MOL0     O38987   9.415   9.264  10.892  0.3510 -0.2453  0.4825
  296MOL0     C38988   9.689   9.206  10.910 -0.9169 -0.1434  0.1607
  296MOL0     C38989   9.821   9.154  10.896 -0.1743 -0.3590  0.3517
  296MOL0     N38990  10.504   8.967  10.925  0.4180 -0.0554 -0.3945
  296MOL0     N38991  10.606   8.944  10.996  0.6341  0.5448 -0.4013
  296MOL0     C38992  10.737   7.806  11.162 -0.1800 -1.0491  0.3747
  296MOL0     C38993  10.681   7.711  11.076  0.4069 -0.1068  0.7045
  296MOL0     C38994  10.363   7.527  10.801  0.5613  0.8357 -0.1180
  296MOL0     C38995  10.230   7.522  10.785  0.4861 -0.9173 -0.0346
  296MOL0     C38996  10.165   7.424  10.709 -0.3117 -0.3945  0.0408
  296MOL0     C38997  10.239   7.326  10.634  0.2652 -0.6533  0.7367
  296MOL0     O38998  10.178   7.234  10.553  0.1568  0.0894 -0.0488
  296MOL0     C38999  10.153   7.286  10.419 -0.0804  1.0139  0.2546
  296MOL0     C39000  10.194   7.173  10.326  1.1164 -0.1403 -0.4175
  296MOL0     C39001  10.324   7.115  10.358 -0.9463 -0.0169  0.0461
  296MOL0     C39002  10.370   7.009  10.262 -0.5664 -0.4475  0.4873
  296MOL0     C39003  10.291   6.893  10.251  0.9724  0.0447  0.6915
  296MOL0     C39004  10.225   6.796  10.260  0.3362 -0.5173 -0.3041
  296MOL0     C39005  10.376   7.336  10.631 -0.0300 -0.4704 -0.0103
  296MOL0     C39006  10.440   7.439  10.711  0.7841  0.0654  0.0910
  296MOL0     H39007  10.527   7.916  10.856  0.8961 -0.1414 -0.2714
  296MOL0     H39008  10.584   8.074  11.019 -0.5678  0.3224  0.0242
  296MOL0     H39009  10.929   8.035  11.227 -0.5537 -1.4999  0.4270
  296MOL0     H39010  10.866   7.945  11.370  4.0312  0.7653  3.2055
  296MOL0     H39011  10.961   8.167  11.438 -1.7044  1.7475  3.1804
  296MOL0     H39012  10.797   8.154  11.478 -1.4472  1.3554 -1.2910
  296MOL0     H39013  10.810   8.368  11.414  1.2574  2.0360 -1.6285
  296MOL0     H39014  10.725   8.278  11.284 -0.1231 -2.6176  1.0242
  296MOL0     H39015  11.009   8.399  11.289 -1.5207  0.6331  1.7917
  296MOL0     H39016  10.972   8.280  11.164  0.1148  0.6180 -0.7018
  296MOL0     H39017  10.782   8.406  11.092 -1.9651  2.4760  2.0369
  296MOL0     H39018  10.945   8.482  11.075 -0.3006  1.9655  1.2442
  296MOL0     H39019  10.897   8.629  11.257 -0.4160  0.8838  0.5977
  296MOL0     H39020  10.742   8.545  11.285 -2.8842  0.7764 -2.6064
  296MOL0     H39021  10.798   8.681  11.007 -0.2226 -4.0561 -1.8341
  296MOL0     H39022  10.659   8.593  11.066  0.9929 -1.7196  0.8329
  296MOL0     H39023  10.761   8.857  11.193  0.8453 -1.1675  0.7164
  296MOL0     H39024  10.647   8.756  11.269  0.1224 -1.6838 -0.3677
  296MOL0     H39025  10.381   8.742  11.127  1.7228  1.7653  3.8827
  296MOL0     H39026  10.249   9.029  10.938 -0.5617 -0.4298  0.9114
  296MOL0     H39027  10.186   8.865  10.971 -0.7280  1.6314 -0.3963
  296MOL0     H39028  10.254   8.785  10.748  1.0152 -0.9690  1.2258
  296MOL0     H39029  10.374   8.911  10.729  0.9255  0.2783 -0.0379
  296MOL0     H39030  10.191   9.088  10.724  1.7373 -0.8251 -1.6880
  296MOL0     H39031  10.190   8.979  10.588 -0.0679  4.5457 -1.1852
  296MOL0     H39032  10.016   8.838  10.711 -0.2965  0.0403  2.4089
  296MOL0     H39033   9.960   8.982  10.638  0.7107 -2.2654 -0.8473
  296MOL0     H39034   9.767   8.833  10.826  0.0599 -1.2215  1.2266
  296MOL0     H39035   9.522   8.918  10.839 -0.3540  0.3634  0.3985
  296MOL0     H39036   9.167   8.978  11.067 -1.9579  2.1526  1.2821
  296MOL0     H39037   8.919   8.963  10.992 -0.9363  1.0647  0.4887
  296MOL0     H39038   8.751   9.018  10.577  4.8695 -0.7185 -0.4920
  296MOL0     H39039   8.843   9.161  10.608  0.6822  1.1540 -0.1043
  296MOL0     H39040   8.632   9.246  10.655  2.9576 -0.2979 -1.7852
  296MOL0     H39041   8.687   9.201  10.818 -1.2014 -1.7137  0.6032
  296MOL0     H39042   8.555   9.003  10.818 -3.0639 -1.4974 -0.3332
  296MOL0     H39043   8.479   9.052  10.660  1.1900  0.5623 -0.5820
  296MOL0     H39044   8.443   9.196  10.926 -2.3970  2.4398 -0.8213
  296MOL0     H39045   8.414   9.262  10.763  0.9321  2.0956  1.8997
  296MOL0     H39046   8.231   9.128  10.744  0.0889 -3.5761 -0.0583
  296MOL0     H39047   8.224   9.153  10.923  0.4661 -2.0182  0.9706
  296MOL0     H39048   8.344   8.941  10.950  0.1715  2.2651  1.0103
  296MOL0     H39049   8.323   8.913  10.775  1.3794 -0.0603 -0.3014
  296MOL0     H39050   8.150   8.878  11.017 -0.8604  0.8999  0.3916
  296MOL0     H39051   8.064   8.983  10.908 -0.9090 -1.4009 -1.2501
  296MOL0     H39052   8.035   8.724  10.889 -1.1307  1.9699  0.5754
  296MOL0     H39053   8.190   8.723  10.818 -0.5766  0.6050 -0.9378
  296MOL0     H39054   9.043   9.112  10.606 -1.4111  0.6814  0.7332
  296MOL0     H39055   9.268   9.137  10.693 -3.0366  3.9057 -1.6923
  296MOL0     H39056   9.663   9.301  10.955 -3.3379 -1.1519  1.0408
  296MOL0     H39057   9.912   9.211  10.915 -0.0088 -0.7232  0.6669
  296MOL0     H39058  10.800   7.764  11.240  2.0388 -0.2957 -0.9433
  296MOL0     H39059  10.703   7.607  11.100 -2.3132 -1.0092 -0.2568
  296MOL0     H39060  10.162   7.584  10.841 -0.7912 -1.0710 -1.3594
  296MOL0     H39061  10.057   7.435  10.709 -0.1345  3.7825 -2.3543
  296MOL0     H39062  10.210   7.376  10.394  0.4661  0.2102 -1.5417
  296MOL0     H39063  10.046   7.306  10.407  0.0036  0.9351 -0.7459
  296MOL0     H39064  10.115   7.098  10.335  0.2270  0.8839  0.4623
  296MOL0     H39065  10.187   7.222  10.228 -0.8193 -0.7264 -0.6058
  296MOL0     H39066  10.326   7.070  10.458 -1.1291 -0.6399 -0.2202
  296MOL0     H39067  10.395   7.198  10.355 -2.3959  1.2443 -1.8616
  296MOL0     H39068  10.382   7.057  10.164 -1.8049 -0.8495  0.1261
  296MOL0     H39069  10.468   6.969  10.289  0.7258  0.5614 -2.2728
  296MOL0     H39070  10.164   6.708  10.264  3.2224 -2.7667 -1.3294
  296MOL0     H39071  10.431   7.258  10.580 -1.3292 -2.3625  1.3660
  296MOL0     H39072  10.548   7.448  10.703  0.8591  0.4554  1.3233
  297MOL0     O39073   1.107   2.589   8.126  0.0422  0.3669 -0.2456
  297MOL0     C39074   0.997   2.558   8.096 -0.1534  0.1099  0.7731
  297MOL0     O39075   0.965   2.451   8.028  0.0357  0.0081 -0.8551
  297MOL0     C39076   1.050   2.347   7.995  0.0065  0.0775  0.4555
  297MOL0     C39077   1.195   2.340   8.034  0.8257 -1.0297 -1.0065
  297MOL0     C39078   1.279   2.238   7.991 -0.1924 -0.1288  0.1276
  297MOL0     C39079   1.226   2.144   7.903  0.0856  0.8014 -0.3093
  297MOL0     O39080   1.293   2.033   7.854  0.3441 -0.0373 -0.2351
  297MOL0     C39081   1.439   2.021   7.875  0.4478  1.0160 -0.1646
  297MOL0     C39082   1.473   1.883   7.809  0.0859 -0.6938  0.0444
  297MOL0     C39083   1.612   1.839   7.864 -0.6476 -0.5890  0.0995
  297MOL0     C39084   1.655   1.704   7.819  0.3621 -0.3608 -0.0303
  297MOL0     C39085   1.808   1.686   7.847 -0.3367 -0.0979 -0.3523
  297MOL0     C39086   1.854   1.536   7.835  0.9897  0.4116 -0.0051
  297MOL0     C39087   2.001   1.534   7.862  0.3304  0.1461 -0.3738
  297MOL0     C39088   2.063   1.410   7.813 -1.2054  1.1068 -0.3942
  297MOL0     N39089   2.012   1.298   7.897 -0.6750  0.3540 -0.5032
  297MOL0     C39090   2.048   1.279   8.035  0.2865  0.8974  0.3179
  297MOL0     C39091   1.949   1.193   8.075  0.0663  0.2187  0.3461
  297MOL0     C39092   1.927   1.144   8.213 -0.1899  0.0613  0.2177
  297MOL0     C39093   1.791   1.201   8.266 -1.2244  0.4112  0.3998
  297MOL0     C39094   1.753   1.168   8.412  0.2216  0.6025 -0.1436
  297MOL0     C39095   1.604   1.204   8.432 -0.2448  0.3240 -0.8821
  297MOL0     O39096   1.546   1.159   8.554 -0.3455 -0.2792  0.6241
  297MOL0     C39097   1.410   1.169   8.561  0.2854 -0.3679  0.4029
  297MOL0     C39098   1.332   1.270   8.497  0.0686 -0.6307 -0.4445
  297MOL0     C39099   1.195   1.262   8.509 -0.4172 -1.2788 -0.1580
  297MOL0     C39100   1.129   1.155   8.570 -0.4355 -0.1208 -0.0979
  297MOL0     C39101   0.982   1.147   8.557 -0.1756 -0.4088 -0.1204
  297MOL0     O39102   0.925   1.190   8.433 -0.1778  0.1719 -0.1813
  297MOL0     C39103   0.793   1.172   8.405  0.4694 -1.0420 -0.0198
  297MOL0     C39104   0.696   1.182   8.498  0.1665  0.2200  0.6459
  297MOL0     C39105   0.565   1.154   8.459 -0.4383 -0.1781 -0.9320
  297MOL0     C39106   0.532   1.111   8.329  0.3470 -0.4224  0.0458
  297MOL0     O39107   0.409   1.070   8.293 -0.0393 -0.7788  0.4679
  297MOL0     C39108   0.328   1.163   8.225 -1.4790  0.2763 -0.1491
  297MOL0     C39109   0.188   1.119   8.255  0.2823 -0.0772  0.3786
  297MOL0     C39110   0.087   1.204   8.174  0.1949  0.8011 -1.0469
  297MOL0     C39111   0.063   1.338   8.251 -0.5487  0.8602  0.4743
  297MOL0     C39112  -0.084   1.340   8.285  1.0144 -0.2354 -0.3546
  297MOL0     C39113  -0.147   1.219   8.357  0.5121 -0.1071 -0.9317
  297MOL0     C39114  -0.131   1.242   8.512  0.5855  0.0715  0.9486
  297MOL0     C39115  -0.221   1.146   8.591  1.0370  0.1289  0.1896
  297MOL0    Cl39116  -0.150   1.118   8.757 -0.0695  0.1392 -0.0987
  297MOL0     C39117   0.636   1.099   8.235  0.2930  0.1067 -0.0521
  297MOL0     C39118   0.768   1.142   8.273  0.1748  0.0106 -1.6163
  297MOL0     O39119   0.920   1.091   8.648  0.4927  0.4756  0.1739
  297MOL0     C39120   1.202   1.058   8.630  0.2965 -0.0784 -0.8911
  297MOL0     C39121   1.341   1.069   8.636 -0.1885 -0.0920  0.1189
  297MOL0     N39122   1.881   1.157   7.962 -0.6497  0.7303  0.6059
  297MOL0     N39123   1.913   1.222   7.856  0.2750  0.7772 -0.1395
  297MOL0     C39124   1.093   2.150   7.862  0.9519 -0.3434  0.5514
  297MOL0     C39125   1.005   2.246   7.917  0.3587  0.2980  0.2202
  297MOL0     C39126   0.889   2.641   8.135 -0.1700 -0.0748  0.3359
  297MOL0     C39127   0.790   2.666   8.045  0.2918  0.2137  0.6246
  297MOL0     C39128   0.670   2.734   8.084 -0.1241 -0.1146 -0.7954
  297MOL0     C39129   0.662   2.776   8.215 -0.4816  0.4585 -0.2883
  297MOL0     O39130   0.546   2.823   8.275 -0.3023  0.6924  0.0776
  297MOL0     C39131   0.489   2.927   8.213  0.3599 -0.7106  0.3265
  297MOL0     C39132   0.460   3.033   8.316 -0.1173 -0.2112  0.6608
  297MOL0     C39133   0.590   3.076   8.390 -0.5984 -0.5030 -0.0205
  297MOL0     C39134   0.565   3.124   8.532 -0.3404 -0.2825  0.1957
  297MOL0     C39135   0.680   3.177   8.600 -0.7050  0.0209  0.9565
  297MOL0     C39136   0.783   3.215   8.661 -0.6365  0.6097  0.4658
  297MOL0     C39137   0.761   2.748   8.307 -0.5503 -0.4272 -0.4706
  297MOL0     C39138   0.875   2.680   8.270 -0.4413  0.1862  1.0551
  297MOL0     H39139   1.240   2.409   8.106  0.0646 -2.0484  0.5091
  297MOL0     H39140   1.383   2.243   8.021  0.8038 -0.1262 -2.9391
  297MOL0     H39141   1.455   1.998   7.981  0.8224 -0.9862 -0.6238
  297MOL0     H39142   1.495   2.105   7.834  1.5829 -1.1172 -3.3821
  297MOL0     H39143   1.472   1.905   7.702  3.4537 -2.2068 -0.4036
  297MOL0     H39144   1.392   1.813   7.830 -0.0116 -0.9833 -1.2020
  297MOL0     H39145   1.606   1.826   7.972  0.0774  3.8271  0.8433
  297MOL0     H39146   1.685   1.915   7.834  1.8166 -1.9130  2.2884
  297MOL0     H39147   1.591   1.624   7.858 -0.8819 -1.4939 -3.9902
  297MOL0     H39148   1.643   1.703   7.711  1.5377 -1.7155 -0.1876
  297MOL0     H39149   1.833   1.722   7.947  4.9017 -2.1100 -0.6304
  297MOL0     H39150   1.857   1.756   7.778 -1.0333  2.0661  1.2405
  297MOL0     H39151   1.830   1.500   7.735 -1.5464  2.3065 -0.1711
  297MOL0     H39152   1.801   1.485   7.916 -0.2323  0.2308 -0.8973
  297MOL0     H39153   2.046   1.603   7.790  0.3530  0.6332  0.1011
  297MOL0     H39154   2.027   1.561   7.965  2.2101  0.2447 -0.8300
  297MOL0     H39155   2.172   1.413   7.825 -0.9590 -1.1956 -1.5003
  297MOL0     H39156   2.048   1.381   7.709  0.4113 -1.2866 -0.0379
  297MOL0     H39157   2.105   1.338   8.107  0.0367 -0.7079  1.9009
  297MOL0     H39158   2.007   1.180   8.277  1.8745  0.0276 -2.1821
  297MOL0     H39159   1.930   1.035   8.222  2.4945  0.1642  1.2376
  297MOL0     H39160   1.720   1.141   8.208  1.0131 -1.5512 -0.5042
  297MOL0     H39161   1.793   1.309   8.250 -0.1440  0.5115  1.0738
  297MOL0     H39162   1.774   1.061   8.419  1.0834  0.6849 -1.1361
  297MOL0     H39163   1.812   1.229   8.482 -0.2798  1.0609 -0.1148
  297MOL0     H39164   1.539   1.181   8.348 -1.7258 -2.0478  0.8068
  297MOL0     H39165   1.601   1.314   8.431  0.4000  0.5114  3.0819
  297MOL0     H39166   1.368   1.363   8.454  0.3709 -0.9371 -0.8721
  297MOL0     H39167   1.138   1.338   8.456  0.8027 -1.8453 -2.4365
  297MOL0     H39168   0.721   1.217   8.598  0.5619 -0.4779  0.7960
  297MOL0     H39169   0.490   1.163   8.537  0.3025 -1.2117 -0.0723
  297MOL0     H39170   0.359   1.147   8.121  0.6724 -2.8942  0.8103
  297MOL0     H39171   0.351   1.261   8.267 -2.7982 -0.2731  2.0584
  297MOL0     H39172   0.169   1.114   8.363 -0.8255  0.3305  0.2111
  297MOL0     H39173   0.176   1.018   8.216 -1.8805  0.2841 -0.0154
  297MOL0     H39174  -0.006   1.147   8.163 -1.0504  2.2668  1.1517
  297MOL0     H39175   0.128   1.219   8.074  3.1549 -2.4518 -0.5559
  297MOL0     H39176   0.120   1.370   8.339 -1.5280  2.3410  0.6168
  297MOL0     H39177   0.089   1.414   8.176  1.2946 -0.4004 -0.2338
  297MOL0     H39178  -0.143   1.358   8.195 -3.5614  2.1133  2.7138
  297MOL0     H39179  -0.099   1.428   8.348  0.5136 -0.3700 -0.2838
  297MOL0     H39180  -0.094   1.124   8.343  3.7872  0.6869  3.7694
  297MOL0     H39181  -0.253   1.211   8.330  0.8311 -4.0629 -1.6409
  297MOL0     H39182  -0.029   1.239   8.554  0.3397  0.0859  1.5545
  297MOL0     H39183  -0.175   1.342   8.525  0.2060  0.0517 -0.0861
  297MOL0     H39184  -0.238   1.048   8.546  2.7219  0.8469 -2.1387
  297MOL0     H39185  -0.318   1.189   8.618  0.8303 -0.8731  1.1308
  297MOL0     H39186   0.619   1.068   8.132 -0.4459 -1.0361  0.3949
  297MOL0     H39187   0.854   1.146   8.207  0.8058  1.6986 -0.7383
  297MOL0     H39188   1.152   0.976   8.681 -1.8955  1.3499 -0.6508
  297MOL0     H39189   1.404   0.995   8.685  0.3571 -1.1578 -2.0353
  297MOL0     H39190   1.061   2.073   7.793 -3.0155  0.8207  0.8187
  297MOL0     H39191   0.903   2.244   7.881  1.0223 -1.9491 -1.8606
  297MOL0     H39192   0.788   2.623   7.945 -1.1103  0.7320  0.4052
  297MOL0     H39193   0.592   2.745   8.009 -0.4269 -0.8651 -0.6068
  297MOL0     H39194   0.394   2.894   8.169  1.5439 -1.6321 -1.6840
  297MOL0     H39195   0.554   2.973   8.138 -2.5873 -1.1823 -2.7390
  297MOL0     H39196   0.416   3.122   8.271 -0.6417 -1.8973 -2.4655
  297MOL0     H39197   0.386   2.989   8.384 -0.0638  0.6488  1.2933
  297MOL0     H39198   0.631   3.158   8.330 -0.2358  2.5512  3.9717
  297MOL0     H39199   0.672   3.003   8.386  0.9673  1.2489 -2.4446
  297MOL0     H39200   0.482   3.195   8.531 -0.3726 -0.3126 -1.1712
  297MOL0     H39201   0.530   3.042   8.596  1.0801  2.1995  4.5534
  297MOL0     H39202   0.865   3.259   8.715  2.4769 -1.1423 -2.4399
  297MOL0     H39203   0.742   2.780   8.409 -0.9259  0.1844 -0.7258
  297MOL0     H39204   0.953   2.653   8.341 -0.4095 -0.8652  0.6333
  298MOL0     O39205   0.524  10.303   1.055 -0.2298 -0.0729  0.3910
  298MOL0     C39206   0.568  10.305   1.171 -0.6021 -0.3725 -0.5292
  298MOL0     O39207   0.487  10.275   1.285 -1.1306 -0.2020  0.0005
  298MOL0     C39208   0.353  10.310   1.286 -0.3690 -0.0704 -0.1826
  298MOL0     C39209   0.312  10.433   1.238  0.8683  0.0291  0.8190
  298MOL0     C39210   0.176  10.473   1.268 -0.9301  0.0408 -0.7703
  298MOL0     C39211   0.082  10.393   1.344  0.5847 -0.0000 -0.1272
  298MOL0     O39212  -0.047  10.437   1.382  0.2498 -0.0998  0.5219
  298MOL0     C39213  -0.077  10.568   1.349 -0.4508 -0.9517 -0.6874
  298MOL0     C39214  -0.190  10.614   1.427 -0.8213 -0.0855  0.3943
  298MOL0     C39215  -0.218  10.762   1.409  0.6168 -1.6047 -0.7628
  298MOL0     C39216  -0.333  10.824   1.506 -0.0578  0.5712 -0.1468
  298MOL0     C39217  -0.459  10.731   1.501  0.5616 -0.4608 -0.7972
  298MOL0     C39218  -0.579  10.804   1.556 -0.4879 -0.0346 -0.3220
  298MOL0     C39219  -0.677  10.713   1.630 -0.7373 -0.1794 -0.6631
  298MOL0     C39220  -0.794  10.798   1.693 -0.4520  0.2247 -0.2949
  298MOL0     N39221  -0.885  10.695   1.734 -0.0871  0.0961  0.3542
  298MOL0     C39222  -0.883  10.637   1.856 -0.2049 -0.1982 -0.9903
  298MOL0     C39223  -0.993  10.560   1.855  0.0083  0.5962 -0.1404
  298MOL0     C39224  -1.042  10.463   1.953 -0.7570  0.4998 -0.0898
  298MOL0     C39225  -1.181  10.496   2.008  0.4133  0.8097  0.4761
  298MOL0     C39226  -1.230  10.414   2.127 -0.1935 -0.0223 -0.0368
  298MOL0     C39227  -1.383  10.426   2.135 -0.0348  0.4535 -0.5571
  298MOL0     O39228  -1.405  10.557   2.195 -0.3044  0.6577 -0.1101
  298MOL0     C39229  -1.521  10.580   2.264 -0.5412  0.7075  0.0152
  298MOL0     C39230  -1.619  10.486   2.306 -0.0789  0.4212 -0.7167
  298MOL0     C39231  -1.730  10.530   2.385 -0.2737 -0.2696 -0.2941
  298MOL0     C39232  -1.747  10.663   2.419  0.3204  0.2149 -0.1066
  298MOL0     C39233  -1.863  10.697   2.509  0.0400 -0.4557  0.5125
  298MOL0     O39234  -1.897  10.829   2.532 -0.2797 -0.3938 -0.3563
  298MOL0     C39235  -2.001  10.868   2.618  0.7730  0.5548  0.5872
  298MOL0     C39236  -2.121  10.791   2.627  0.4924 -0.6407  0.4572
  298MOL0     C39237  -2.237  10.829   2.701 -0.0688 -0.3059 -0.7878
  298MOL0     C39238  -2.226  10.940   2.783  0.1821 -0.8116  0.2790
  298MOL0     O39239  -2.335  10.967   2.859  0.3808  0.0961  0.2851
  298MOL0     C39240  -2.353  11.099   2.922  0.2664  0.3519  0.5414
  298MOL0     C39241  -2.480  11.108   3.012 -0.3245  0.1334  0.3818
  298MOL0     C39242  -2.601  11.054   2.929 -0.1414  0.1755  0.2904
  298MOL0     C39243  -2.735  11.083   3.006 -0.7632 -0.1865  0.3210
  298MOL0     C39244  -2.731  11.015   3.150 -0.1625 -0.1958  0.4976
  298MOL0     C39245  -2.723  10.859   3.147 -0.3529 -0.3339  0.7877
  298MOL0     C39246  -2.772  10.806   3.274  0.2545  0.1691  0.2718
  298MOL0     C39247  -2.693  10.858   3.397  0.1036 -0.1707  0.3140
  298MOL0    Cl39248  -2.797  10.853   3.545  0.1199 -0.2295 -0.1714
  298MOL0     C39249  -2.109  11.024   2.767  0.6307 -0.1425  0.2614
  298MOL0     C39250  -1.998  10.985   2.693  0.1398 -0.0609 -0.2951
  298MOL0     O39251  -1.929  10.602   2.557 -0.0804 -0.0915  0.0607
  298MOL0     C39252  -1.654  10.755   2.366 -0.4096 -1.0993  0.0430
  298MOL0     C39253  -1.554  10.717   2.287 -1.0000 -0.2501 -1.0673
  298MOL0     N39254  -1.058  10.581   1.736  0.5269  0.6280  0.5654
  298MOL0     N39255  -0.998  10.669   1.662  1.0244  0.2973 -0.3243
  298MOL0     C39256   0.124  10.267   1.371  0.2557  0.9059 -0.2818
  298MOL0     C39257   0.258  10.223   1.355 -0.1742 -0.0344  0.3955
  298MOL0     C39258   0.708  10.345   1.190 -0.0321  0.5262  0.0184
  298MOL0     C39259   0.806  10.325   1.089  0.5230  0.2100  0.2653
  298MOL0     C39260   0.936  10.374   1.106 -0.2391 -0.2149  0.2234
  298MOL0     C39261   0.966  10.465   1.220 -0.1614 -0.6426 -0.0974
  298MOL0     O39262   1.088  10.526   1.213  0.5749  0.8164 -0.4275
  298MOL0     C39263   1.134  10.584   1.336 -0.1019 -0.2985 -0.3761
  298MOL0     C39264   1.286  10.615   1.314 -0.1814  0.1326  0.4804
  298MOL0     C39265   1.334  10.730   1.415  0.9945  0.1859  0.6946
  298MOL0     C39266   1.382  10.857   1.333 -0.2019 -0.6102 -1.2002
  298MOL0     C39267   1.289  10.923   1.237 -0.0589  0.7781  1.5671
  298MOL0     C39268   1.205  10.976   1.165 -0.5268  0.0807  0.4634
  298MOL0     C39269   0.871  10.482   1.318 -0.0214 -0.2797 -0.1667
  298MOL0     C39270   0.749  10.428   1.299  0.2973 -0.0020 -0.4587
  298MOL0     H39271   0.379  10.498   1.184 -0.4739  0.3390 -0.5549
  298MOL0     H39272   0.152  10.572   1.229  3.7457  1.2036 -1.3309
  298MOL0     H39273  -0.094  10.575   1.241  3.3092  0.6572 -1.3195
  298MOL0     H39274   0.001  10.642   1.368 -3.0706  1.9140 -0.2511
  298MOL0     H39275  -0.180  10.591   1.533 -1.8691 -0.1136  0.4940
  298MOL0     H39276  -0.280  10.566   1.388 -2.9838  1.9210  2.5980
  298MOL0     H39277  -0.256  10.791   1.310  1.1631  2.1237 -0.0503
  298MOL0     H39278  -0.131  10.828   1.418 -1.8021  1.7416  0.2835
  298MOL0     H39279  -0.286  10.820   1.605  0.3975 -0.4574 -0.3932
  298MOL0     H39280  -0.356  10.931   1.501 -0.8599  0.4298  0.4062
  298MOL0     H39281  -0.449  10.650   1.574 -1.0760  1.3298  1.5821
  298MOL0     H39282  -0.479  10.689   1.402 -1.6947 -3.4287  0.7183
  298MOL0     H39283  -0.618  10.863   1.473  3.0347  3.4967  0.2438
  298MOL0     H39284  -0.554  10.883   1.627 -1.6213  1.0617 -1.0978
  298MOL0     H39285  -0.717  10.640   1.560 -0.2126  1.2043 -2.4881
  298MOL0     H39286  -0.626  10.662   1.712 -1.7659  2.2391  1.6164
  298MOL0     H39287  -0.835  10.868   1.619 -1.3791  0.3096  0.2819
  298MOL0     H39288  -0.752  10.853   1.778  1.1657  1.6463 -1.9161
  298MOL0     H39289  -0.806  10.647   1.932 -0.0870 -2.2833 -0.7715
  298MOL0     H39290  -0.972  10.464   2.037 -1.2413 -1.8686  0.4085
  298MOL0     H39291  -1.053  10.364   1.908 -1.9754  2.1125 -3.6846
  298MOL0     H39292  -1.248  10.476   1.923 -0.9251 -0.4532  1.7730
  298MOL0     H39293  -1.210  10.600   2.025  0.2470  1.0215 -0.9262
  298MOL0     H39294  -1.191  10.312   2.137  1.3500  0.6051  0.6686
  298MOL0     H39295  -1.180  10.462   2.212  1.1600  1.0024 -1.3780
  298MOL0     H39296  -1.407  10.333   2.188  2.2843  1.0655  1.7792
  298MOL0     H39297  -1.434  10.413   2.039 -1.1766 -0.3067  0.1223
  298MOL0     H39298  -1.613  10.379   2.285  2.4126 -0.0390  1.7247
  298MOL0     H39299  -1.805  10.453   2.397 -0.4062  0.0496  1.0364
  298MOL0     H39300  -2.139  10.709   2.558 -0.1640  1.9560 -2.7016
  298MOL0     H39301  -2.323  10.763   2.699  0.3952 -1.0550  1.5568
  298MOL0     H39302  -2.355  11.175   2.843 -0.8648  0.7630  0.9523
  298MOL0     H39303  -2.276  11.127   2.994  0.5754 -1.6187  1.0328
  298MOL0     H39304  -2.505  11.207   3.050  0.4192 -0.8747  3.8540
  298MOL0     H39305  -2.453  11.044   3.097  1.2132 -0.0005 -0.1862
  298MOL0     H39306  -2.585  10.948   2.911  0.3509  0.6583 -2.5064
  298MOL0     H39307  -2.604  11.105   2.832 -3.0474 -0.2878  0.0566
  298MOL0     H39308  -2.743  11.191   3.017 -0.1252  0.0739 -1.4845
  298MOL0     H39309  -2.824  11.048   2.953  1.6501  0.0151 -4.3364
  298MOL0     H39310  -2.821  11.035   3.209  0.0596  1.1919  0.4005
  298MOL0     H39311  -2.649  11.060   3.207  1.6862  1.6739 -3.2441
  298MOL0     H39312  -2.623  10.818   3.132 -0.8907 -1.3182 -0.2318
  298MOL0     H39313  -2.789  10.817   3.071 -0.7744 -0.9742  1.4890
  298MOL0     H39314  -2.881  10.817   3.273 -0.1703 -3.0221 -1.0007
  298MOL0     H39315  -2.756  10.698   3.268 -1.0304 -0.0166 -0.0126
  298MOL0     H39316  -2.676  10.965   3.379  0.8227 -0.5530 -1.4922
  298MOL0     H39317  -2.596  10.809   3.403  0.5046  0.5608  0.0319
  298MOL0     H39318  -2.098  11.117   2.822 -1.7773 -2.1233  4.5910
  298MOL0     H39319  -1.915  11.054   2.693  1.9442 -2.0001 -3.0480
  298MOL0     H39320  -1.654  10.862   2.381  1.9428 -1.0147 -0.1558
  298MOL0     H39321  -1.479  10.786   2.250 -0.7001  1.4644  2.3110
  298MOL0     H39322   0.073  10.180   1.411  0.0109  0.8446 -0.7234
  298MOL0     H39323   0.290  10.126   1.391 -4.1169 -1.2555  1.1209
  298MOL0     H39324   0.772  10.268   1.003  3.6989  3.5349 -3.5861
  298MOL0     H39325   1.014  10.344   1.037 -3.3298 -1.8714 -2.9204
  298MOL0     H39326   1.125  10.517   1.422 -1.4384  0.0090 -0.2539
  298MOL0     H39327   1.072  10.671   1.357 -1.6233 -1.1173 -1.3053
  298MOL0     H39328   1.329  10.519   1.345 -1.6613 -0.0922  2.0374
  298MOL0     H39329   1.310  10.638   1.210  0.2332  1.7522  0.8985
  298MOL0     H39330   1.421  10.690   1.469  1.2046  1.9480  1.7525
  298MOL0     H39331   1.265  10.751   1.497  0.7540 -1.0220  0.8116
  298MOL0     H39332   1.397  10.923   1.419  1.8081 -4.8326  2.0272
  298MOL0     H39333   1.483  10.851   1.290  1.1640 -1.8647  1.8588
  298MOL0     H39334   1.127  11.028   1.114 -2.0108 -3.9368 -1.9122
  298MOL0     H39335   0.884  10.543   1.408  2.2878  2.4089 -2.1345
  298MOL0     H39336   0.681  10.452   1.380  1.5614  1.1605  0.2898
  299MOL0     O39337   5.300   5.016   7.186 -0.1953  0.1989  0.2749
  299MOL0     C39338   5.376   5.045   7.087 -0.0831  0.5544  0.5049
  299MOL0     O39339   5.342   5.119   6.986  0.7950  0.6624  0.2835
  299MOL0     C39340   5.237   5.201   6.980  0.7832  0.4989  0.3679
  299MOL0     C39341   5.173   5.254   7.092 -0.5704  0.1830 -0.2365
  299MOL0     C39342   5.074   5.347   7.068  0.1874 -0.1536  0.1619
  299MOL0     C39343   5.028   5.392   6.936  0.2667  0.3405  0.3830
  299MOL0     O39344   4.931   5.484   6.930 -0.1168  0.0931  0.0127
  299MOL0     C39345   4.825   5.442   6.826 -0.1535  0.5237 -0.6773
  299MOL0     C39346   4.760   5.567   6.793  0.5141  0.3397 -0.3408
  299MOL0     C39347   4.666   5.564   6.674 -0.0705  0.1557  0.3575
  299MOL0     C39348   4.539   5.484   6.700  0.7790 -0.0098 -0.3558
  299MOL0     C39349   4.419   5.559   6.621 -0.1679  0.5311  0.6246
  299MOL0     C39350   4.302   5.466   6.613 -0.2604  0.3003  0.6006
  299MOL0     C39351   4.189   5.536   6.552 -0.4323 -0.0175 -0.4787
  299MOL0     C39352   4.093   5.421   6.490  0.7268  0.3627 -0.0958
  299MOL0     N39353   3.982   5.468   6.413  0.2268 -0.4382  0.3248
  299MOL0     C39354   3.867   5.392   6.383 -1.1529 -0.4988 -0.9154
  299MOL0     C39355   3.802   5.465   6.299 -0.2788  0.0257  0.2704
  299MOL0     C39356   3.667   5.428   6.250  0.8617  0.2424  0.0304
  299MOL0     C39357   3.560   5.537   6.230  1.4781 -0.5088 -0.2182
  299MOL0     C39358   3.417   5.499   6.277 -0.0536  0.3941  0.2683
  299MOL0     C39359   3.340   5.414   6.174 -0.1177  0.3364  0.6955
  299MOL0     O39360   3.422   5.299   6.160  0.8600 -0.7110  0.2356
  299MOL0     C39361   3.387   5.193   6.077 -0.1589 -0.9204 -0.3264
  299MOL0     C39362   3.263   5.162   6.044 -0.2773 -0.9596 -0.1169
  299MOL0     C39363   3.241   5.049   5.957 -0.9817 -0.4365  0.4627
  299MOL0     C39364   3.344   4.971   5.902 -0.0898  1.0526  0.4044
  299MOL0     C39365   3.320   4.855   5.816 -1.2533 -0.0304  0.2482
  299MOL0     O39366   3.428   4.776   5.779  0.4427  0.5419  0.0552
  299MOL0     C39367   3.415   4.724   5.658 -1.2563  0.4372  0.4373
  299MOL0     C39368   3.416   4.806   5.547  0.3417  0.6145 -1.0783
  299MOL0     C39369   3.395   4.749   5.426  0.9179 -0.2826 -0.3735
  299MOL0     C39370   3.376   4.615   5.402  0.3762  0.3135 -0.3966
  299MOL0     O39371   3.341   4.559   5.285  0.5088  0.2315  0.1736
  299MOL0     C39372   3.341   4.639   5.165 -0.0962 -0.4513 -0.3251
  299MOL0     C39373   3.296   4.563   5.043 -0.2355  0.6474  0.1267
  299MOL0     C39374   3.399   4.450   5.002  0.8574 -0.0596 -0.4866
  299MOL0     C39375   3.312   4.355   4.913  1.1752 -0.1245 -1.0587
  299MOL0     C39376   3.402   4.249   4.836  0.2374 -0.2632 -1.2575
  299MOL0     C39377   3.322   4.180   4.725  1.0156 -0.5542  0.7765
  299MOL0     C39378   3.414   4.141   4.605 -1.1587 -0.2380  0.7649
  299MOL0     C39379   3.332   4.138   4.477  0.4398  0.0829 -0.1679
  299MOL0    Cl39380   3.212   4.008   4.499  0.2952 -0.1157  0.3106
  299MOL0     C39381   3.396   4.524   5.515 -0.1941  0.3796  1.0696
  299MOL0     C39382   3.414   4.584   5.646 -0.4213  1.1570  0.2968
  299MOL0     O39383   3.210   4.839   5.771 -0.6712 -0.3066 -0.5300
  299MOL0     C39384   3.473   5.007   5.939  0.3458 -0.4493 -0.4955
  299MOL0     C39385   3.495   5.113   6.026  0.3703 -0.3196  0.1704
  299MOL0     N39386   3.874   5.576   6.266  0.1813 -0.4211  0.0216
  299MOL0     N39387   3.979   5.581   6.339 -0.1873  0.1712  0.1389
  299MOL0     C39388   5.094   5.331   6.822  1.0333  0.2278 -0.2617
  299MOL0     C39389   5.194   5.238   6.850 -0.5637  0.2343  0.9357
  299MOL0     C39390   5.503   4.979   7.077 -1.1493 -0.2955  0.5881
  299MOL0     C39391   5.588   5.008   6.974 -0.6085 -0.9309  0.5314
  299MOL0     C39392   5.716   4.949   6.962  0.0212  0.0443 -0.2244
  299MOL0     C39393   5.752   4.842   7.045 -0.3667 -0.5107  0.1341
  299MOL0     O39394   5.873   4.791   7.023 -0.0404 -0.1955 -0.3483
  299MOL0     C39395   5.933   4.693   7.100  0.4994 -0.0800 -0.1448
  299MOL0     C39396   6.073   4.643   7.049  0.5953  0.6777  0.3287
  299MOL0     C39397   6.073   4.579   6.905  0.5684 -0.6131  0.4938
  299MOL0     C39398   6.212   4.528   6.858  0.2262  0.5021  0.1007
  299MOL0     C39399   6.226   4.518   6.713  0.6616  1.3810 -0.0069
  299MOL0     C39400   6.221   4.496   6.596 -0.5491  0.1708  0.2135
  299MOL0     C39401   5.663   4.815   7.152 -1.1451 -0.1217  0.4838
  299MOL0     C39402   5.542   4.877   7.165 -0.0323  0.0130 -0.1351
  299MOL0     H39403   5.217   5.238   7.190  0.4880 -0.7264 -0.8354
  299MOL0     H39404   5.025   5.393   7.153  0.5845 -2.3899  1.6753
  299MOL0     H39405   4.763   5.366   6.874  1.5576 -1.6173 -1.6296
  299MOL0     H39406   4.852   5.388   6.734 -3.6414 -2.1906 -0.3290
  299MOL0     H39407   4.841   5.638   6.779  1.4847  0.1461  3.2149
  299MOL0     H39408   4.713   5.605   6.885  2.7122 -1.2921  1.5731
  299MOL0     H39409   4.720   5.512   6.594 -1.1660 -2.6354  1.2946
  299MOL0     H39410   4.626   5.660   6.641  0.4351 -0.4080 -2.0570
  299MOL0     H39411   4.545   5.380   6.666 -4.2912  0.3642 -3.5043
  299MOL0     H39412   4.512   5.489   6.806 -0.6707  1.9033 -0.7565
  299MOL0     H39413   4.454   5.600   6.526  0.4458 -3.2546 -0.9779
  299MOL0     H39414   4.385   5.642   6.683  0.3568  0.9941  0.2970
  299MOL0     H39415   4.279   5.419   6.709  2.0167  4.8505  3.7289
  299MOL0     H39416   4.323   5.379   6.549 -0.6933  1.5085 -1.2615
  299MOL0     H39417   4.141   5.599   6.627  2.7696  4.1482 -1.5664
  299MOL0     H39418   4.229   5.600   6.473  4.0316 -1.0614  0.6750
  299MOL0     H39419   4.054   5.359   6.570  4.4751 -0.8126  1.0442
  299MOL0     H39420   4.149   5.356   6.422 -0.8726 -1.8554  0.6159
  299MOL0     H39421   3.846   5.293   6.422 -1.1204  0.6501  2.3139
  299MOL0     H39422   3.622   5.363   6.326  0.5048 -2.6200 -2.4760
  299MOL0     H39423   3.668   5.364   6.162  1.9257  0.4017 -0.0869
  299MOL0     H39424   3.547   5.565   6.126 -0.0846 -1.2710 -0.2624
  299MOL0     H39425   3.595   5.633   6.270 -3.5917  0.6770  2.2054
  299MOL0     H39426   3.421   5.455   6.377 -3.5472  1.6015  1.0598
  299MOL0     H39427   3.365   5.593   6.293  0.5189  0.6125  0.8937
  299MOL0     H39428   3.342   5.466   6.078 -0.1111  0.9032  0.9982
  299MOL0     H39429   3.237   5.388   6.200  0.5768 -0.9054  2.4647
  299MOL0     H39430   3.178   5.222   6.075 -1.6646 -2.1494 -1.4360
  299MOL0     H39431   3.141   5.046   5.915 -0.8915  0.2741  0.1788
  299MOL0     H39432   3.442   4.912   5.544  2.3661  0.1970 -0.2014
  299MOL0     H39433   3.389   4.811   5.337  1.5611  2.2947  1.2687
  299MOL0     H39434   3.438   4.683   5.143 -1.9650  2.1545 -4.7958
  299MOL0     H39435   3.274   4.725   5.177 -1.7287 -1.5829 -0.9745
  299MOL0     H39436   3.276   4.631   4.959 -0.5425 -2.5041 -2.5704
  299MOL0     H39437   3.202   4.518   5.077 -0.2338  0.9815  0.5777
  299MOL0     H39438   3.440   4.400   5.090 -0.5040 -0.1966  0.0944
  299MOL0     H39439   3.490   4.479   4.948 -0.3460  3.2531 -0.9634
  299MOL0     H39440   3.227   4.303   4.957  3.0237 -3.9765 -1.5582
  299MOL0     H39441   3.264   4.426   4.845 -0.0683 -2.3723 -2.6469
  299MOL0     H39442   3.446   4.182   4.910  1.9327  0.6875 -1.3580
  299MOL0     H39443   3.488   4.296   4.787  3.1550 -2.4848  1.3343
  299MOL0     H39444   3.252   4.253   4.683  0.6497 -1.5903 -0.4739
  299MOL0     H39445   3.260   4.105   4.775 -2.0164  2.0527  1.2943
  299MOL0     H39446   3.501   4.205   4.585 -1.7351  0.4452  0.3983
  299MOL0     H39447   3.462   4.047   4.633  0.8339  0.8619  1.2887
  299MOL0     H39448   3.399   4.111   4.394  2.7655 -1.3124  1.9877
  299MOL0     H39449   3.286   4.234   4.454  0.1976  0.2845  1.0839
  299MOL0     H39450   3.393   4.417   5.499 -3.0518  0.2137  2.1510
  299MOL0     H39451   3.411   4.502   5.716 -0.4688 -0.6289 -1.7123
  299MOL0     H39452   3.556   4.961   5.888  2.3094  1.9843  0.3062
  299MOL0     H39453   3.600   5.132   6.047  0.6708  0.2127 -1.6156
  299MOL0     H39454   5.071   5.366   6.721 -0.7204 -3.4978 -1.3249
  299MOL0     H39455   5.245   5.202   6.761 -2.9617  1.3207 -0.9900
  299MOL0     H39456   5.552   5.085   6.907  3.4065  0.2549 -0.5110
  299MOL0     H39457   5.765   4.968   6.867 -0.2403 -0.5468 -0.4811
  299MOL0     H39458   5.857   4.614   7.111 -0.4294  0.9297  0.9734
  299MOL0     H39459   5.956   4.728   7.201 -0.1421 -2.4979  0.9292
  299MOL0     H39460   6.146   4.723   7.064  1.4593 -0.1484  0.6096
  299MOL0     H39461   6.111   4.560   7.109 -2.0392 -3.3373 -2.9225
  299MOL0     H39462   6.025   4.648   6.834  1.6084  0.9479  1.2480
  299MOL0     H39463   6.000   4.498   6.911 -3.4809  2.3245 -2.8455
  299MOL0     H39464   6.285   4.604   6.890 -0.1905  0.7567  0.4572
  299MOL0     H39465   6.245   4.431   6.896 -2.0225  0.4538  2.1442
  299MOL0     H39466   6.228   4.474   6.491 -1.6342 -2.8393  0.6846
  299MOL0     H39467   5.687   4.744   7.230 -0.8111 -0.6775 -0.1144
  299MOL0     H39468   5.478   4.857   7.251  0.1371 -0.5163 -0.1295
  300MOL0     O39469   6.354   6.028   2.468  0.2481  0.3814  0.4341
  300MOL0     C39470   6.390   6.130   2.531  0.3976  0.1726  0.2749
  300MOL0     O39471   6.324   6.253   2.521 -0.1570  1.2307 -0.2270
  300MOL0     C39472   6.188   6.266   2.499 -0.2764 -0.1156  1.3083
  300MOL0     C39473   6.094   6.185   2.564 -0.7165 -0.6943  0.8356
  300MOL0     C39474   5.954   6.200   2.552  0.4375 -0.9763  1.2912
  300MOL0     C39475   5.909   6.290   2.452  0.2054 -1.3643  0.3226
  300MOL0     O39476   5.786   6.322   2.410 -0.3183 -0.0716 -0.1509
  300MOL0     C39477   5.680   6.284   2.500 -0.5401  0.1566 -0.9816
  300MOL0     C39478   5.539   6.342   2.461  0.1206  1.2578 -1.1879
  300MOL0     C39479   5.422   6.243   2.483 -0.3632  0.5817 -0.1315
  300MOL0     C39480   5.414   6.178   2.625  0.2094 -1.0637 -0.3348
  300MOL0     C39481   5.272   6.185   2.681  0.2109 -0.4460  0.1513
  300MOL0     C39482   5.170   6.104   2.597 -0.2228 -0.6296  0.4129
  300MOL0     C39483   5.052   6.090   2.684  0.0363 -0.7870 -1.3677
  300MOL0     C39484   4.963   5.990   2.633  0.1853 -0.3943 -0.0351
  300MOL0     N39485   4.843   5.967   2.717 -0.5725 -0.6200  0.1285
  300MOL0     C39486   4.734   6.052   2.748 -0.2562 -0.6223  0.8510
  300MOL0     C39487   4.662   5.993   2.843  0.1039  0.7939 -0.0863
  300MOL0     C39488   4.558   6.062   2.933  0.5296  0.2106 -0.1478
  300MOL0     C39489   4.434   5.983   2.985 -1.1161 -0.6319  1.2921
  300MOL0     C39490   4.344   6.075   3.073 -0.1356 -1.3463  0.0285
  300MOL0     C39491   4.226   5.991   3.154  0.2165  0.0214  0.5755
  300MOL0     O39492   4.174   6.067   3.265  0.0043 -0.2219 -0.2298
  300MOL0     C39493   4.060   6.002   3.311  0.0167 -0.0407  0.5536
  300MOL0     C39494   3.954   6.088   3.326 -0.6941 -0.4120 -0.6545
  300MOL0     C39495   3.838   6.045   3.391 -0.0088 -0.0991 -0.2374
  300MOL0     C39496   3.819   5.918   3.442  0.2190  0.2423  0.9233
  300MOL0     C39497   3.699   5.867   3.517 -0.1617  0.2209 -0.7588
  300MOL0     O39498   3.679   5.731   3.533  0.2033  0.2156  0.0924
  300MOL0     C39499   3.552   5.696   3.582  0.5266  0.0981 -0.1571
  300MOL0     C39500   3.455   5.645   3.491 -0.0254 -0.4917 -0.0036
  300MOL0     C39501   3.330   5.593   3.531 -0.6365 -0.0997 -0.2166
  300MOL0     C39502   3.299   5.595   3.665  0.8119 -0.5567  0.8905
  300MOL0     O39503   3.178   5.553   3.713  0.2737 -0.3759  0.8239
  300MOL0     C39504   3.071   5.540   3.620  0.3806  0.2734  0.0951
  300MOL0     C39505   2.943   5.524   3.718  0.4408  0.6379  0.1859
  300MOL0     C39506   2.840   5.453   3.624  0.2456  0.3029 -0.4773
  300MOL0     C39507   2.708   5.410   3.703  0.4362  0.1663  0.6902
  300MOL0     C39508   2.750   5.301   3.801  0.0055 -0.3540  0.8740
  300MOL0     C39509   2.633   5.213   3.844 -0.5343 -0.9136  0.6899
  300MOL0     C39510   2.536   5.293   3.920 -0.1574 -0.0604 -0.4697
  300MOL0     C39511   2.424   5.198   3.971 -0.3148 -0.0412 -0.8459
  300MOL0    Cl39512   2.313   5.281   4.089 -0.1786 -0.4200 -0.2825
  300MOL0     C39513   3.384   5.657   3.751  0.6409 -0.4617  0.5976
  300MOL0     C39514   3.508   5.716   3.711 -0.0447  0.3428 -0.3193
  300MOL0     O39515   3.616   5.948   3.562  0.6761  0.4567  0.7003
  300MOL0     C39516   3.917   5.821   3.404  0.9552  0.3704 -0.3215
  300MOL0     C39517   4.038   5.867   3.340  0.1310 -0.0210 -1.0438
  300MOL0     N39518   4.732   5.877   2.878 -0.9294  0.4276  0.0384
  300MOL0     N39519   4.831   5.856   2.805  0.7528 -0.5138 -0.1728
  300MOL0     C39520   6.010   6.379   2.396 -0.1368 -0.7849 -0.2722
  300MOL0     C39521   6.146   6.366   2.419 -0.2369  0.1119  0.2656
  300MOL0     C39522   6.534   6.132   2.569  0.4899 -0.0237 -0.2909
  300MOL0     C39523   6.621   6.020   2.553 -0.1485  0.0060 -0.1642
  300MOL0     C39524   6.750   6.019   2.600 -0.1871 -0.6337 -0.3502
  300MOL0     C39525   6.807   6.136   2.653  0.5228 -0.7968  0.7485
  300MOL0     O39526   6.945   6.148   2.676  0.8935 -0.0784 -0.0948
  300MOL0     C39527   7.042   6.050   2.632  0.1679 -0.2102  0.7151
  300MOL0     C39528   7.117   5.977   2.737  0.8649  0.7458  0.0079
  300MOL0     C39529   7.049   5.863   2.814 -0.3224 -0.3948  0.0475
  300MOL0     C39530   7.126   5.826   2.947 -0.0461  0.5423  0.5970
  300MOL0     C39531   7.240   5.738   2.934  0.6043  0.1066 -0.7626
  300MOL0     C39532   7.339   5.672   2.926  0.2154  0.0404 -0.7056
  300MOL0     C39533   6.730   6.256   2.661 -0.0391 -0.4459  0.4683
  300MOL0     C39534   6.594   6.248   2.626  0.7824  0.3030  0.3997
  300MOL0     H39535   6.133   6.117   2.639  0.1797 -3.6222 -2.0127
  300MOL0     H39536   5.873   6.148   2.603  0.5055 -2.4799 -0.0277
  300MOL0     H39537   5.713   6.312   2.600 -1.5545 -0.1838 -0.5459
  300MOL0     H39538   5.667   6.176   2.501 -2.5568  0.3636 -1.2217
  300MOL0     H39539   5.517   6.387   2.364 -1.9344 -1.8942 -2.3435
  300MOL0     H39540   5.520   6.413   2.542 -0.1264 -3.0494  2.9569
  300MOL0     H39541   5.425   6.160   2.411 -1.3005 -0.3201  0.8465
  300MOL0     H39542   5.332   6.304   2.469 -1.5394 -1.2734 -0.9966
  300MOL0     H39543   5.456   6.077   2.621  0.8520 -0.9027  1.4165
  300MOL0     H39544   5.471   6.232   2.701 -1.7633  3.6109 -1.7840
  300MOL0     H39545   5.241   6.289   2.695  1.4306 -0.1214  0.5414
  300MOL0     H39546   5.276   6.153   2.785  0.1982  0.3498  0.3996
  300MOL0     H39547   5.203   6.000   2.588 -0.0611 -0.9675  3.5754
  300MOL0     H39548   5.147   6.148   2.500 -0.5779  1.9232  1.5582
  300MOL0     H39549   5.091   6.075   2.785 -2.3089  3.1125  0.3035
  300MOL0     H39550   4.997   6.184   2.671  1.2558 -0.1435 -2.0756
  300MOL0     H39551   5.010   5.892   2.618  0.2163 -0.3472 -0.2388
  300MOL0     H39552   4.922   6.034   2.542  3.2429  0.9856 -0.8624
  300MOL0     H39553   4.709   6.141   2.690 -5.0711 -2.5305 -0.5767
  300MOL0     H39554   4.523   6.147   2.874 -1.1988  0.2956  0.9373
  300MOL0     H39555   4.613   6.106   3.017 -0.0017 -0.6342  0.6620
  300MOL0     H39556   4.463   5.895   3.042 -1.0010 -3.3528 -2.5710
  300MOL0     H39557   4.385   5.942   2.896 -0.4434 -0.6161  0.9103
  300MOL0     H39558   4.411   6.118   3.149 -1.0703  1.4649 -0.6247
  300MOL0     H39559   4.304   6.160   3.018  1.8969  0.6906  1.5127
  300MOL0     H39560   4.278   5.902   3.190  1.0556 -1.8086 -4.3495
  300MOL0     H39561   4.151   5.954   3.083 -0.9205 -0.5266  2.0143
  300MOL0     H39562   3.969   6.194   3.307 -1.3629  0.2412  2.1179
  300MOL0     H39563   3.763   6.122   3.402  1.6788  1.8909 -1.7723
  300MOL0     H39564   3.480   5.656   3.386  0.3741 -1.2269  0.0087
  300MOL0     H39565   3.262   5.553   3.457  2.7735 -1.3679 -2.9899
  300MOL0     H39566   3.097   5.450   3.564 -0.9992  1.7790 -3.2360
  300MOL0     H39567   3.045   5.627   3.558 -0.6983 -0.8357 -1.0603
  300MOL0     H39568   2.914   5.622   3.756  1.2761  2.2192 -2.9116
  300MOL0     H39569   2.979   5.456   3.795  2.6967  0.6276 -0.8146
  300MOL0     H39570   2.887   5.361   3.587  0.5709  1.1515 -2.2887
  300MOL0     H39571   2.818   5.514   3.536  1.1979  3.1283  1.1038
  300MOL0     H39572   2.650   5.487   3.755 -1.6471 -1.2626  0.6456
  300MOL0     H39573   2.641   5.366   3.628  1.2414 -0.2008  0.1839
  300MOL0     H39574   2.795   5.351   3.888 -1.5101  3.2935 -0.2422
  300MOL0     H39575   2.822   5.237   3.749  0.2561  1.7316 -1.5258
  300MOL0     H39576   2.671   5.126   3.898  1.0380 -0.2528  0.6743
  300MOL0     H39577   2.579   5.169   3.759 -1.6896  3.1403 -0.9345
  300MOL0     H39578   2.588   5.338   4.005  0.9278  0.4933 -1.3851
  300MOL0     H39579   2.498   5.375   3.858  0.9658  0.1654 -0.8919
  300MOL0     H39580   2.474   5.113   4.016  2.2387  1.3110 -0.9763
  300MOL0     H39581   2.357   5.170   3.889 -2.1580  1.7454 -0.0562
  300MOL0     H39582   3.353   5.675   3.854  1.3844  4.0690  0.2476
  300MOL0     H39583   3.569   5.777   3.778 -2.4662  1.3640  1.0661
  300MOL0     H39584   3.905   5.715   3.425  2.0953  0.2450 -0.2391
  300MOL0     H39585   4.109   5.791   3.308  0.0062  0.0102 -1.3946
  300MOL0     H39586   5.972   6.457   2.329 -1.8547 -0.1710  1.3223
  300MOL0     H39587   6.235   6.419   2.386  1.8838 -2.2725  1.8613
  300MOL0     H39588   6.579   5.931   2.507  0.3246  0.4108 -1.4104
  300MOL0     H39589   6.801   5.926   2.577 -1.5470 -1.3492 -0.5949
  300MOL0     H39590   7.118   6.101   2.571  0.6623 -0.3986  1.1657
  300MOL0     H39591   7.006   5.978   2.558  1.7464  0.7444 -1.0817
  300MOL0     H39592   7.202   5.923   2.694  0.8494 -0.4156  1.3607
  300MOL0     H39593   7.169   6.046   2.805  0.2505 -0.9328  2.3172
  300MOL0     H39594   7.038   5.778   2.746  2.9324  0.6360 -1.9852
  300MOL0     H39595   6.955   5.908   2.850  2.5371  4.3678  2.5632
  300MOL0     H39596   7.140   5.913   3.011  1.5129  1.2627 -0.6647
  300MOL0     H39597   7.051   5.768   3.003  0.4141 -0.4634  0.2102
  300MOL0     H39598   7.434   5.623   2.913 -0.7212 -1.8259 -0.9916
  300MOL0     H39599   6.787   6.345   2.684 -0.1609 -0.1386 -0.3865
  300MOL0     H39600   6.537   6.338   2.645 -0.8109 -1.0205  2.3473
  301MOL0     O39601   3.515   7.996   2.287 -0.1969  0.7544  0.1829
  301MOL0     C39602   3.434   7.969   2.200 -0.1143  0.2126  0.2236
  301MOL0     O39603   3.464   7.956   2.074 -0.0501 -0.2554 -0.5954
  301MOL0     C39604   3.596   7.965   2.037 -1.5125  0.0441  1.1553
  301MOL0     C39605   3.659   8.080   1.973 -0.1049 -0.6114  0.1867
  301MOL0     C39606   3.797   8.077   1.951 -0.1582  0.3310 -0.0452
  301MOL0     C39607   3.875   7.965   1.983  0.8340 -0.1847  0.6060
  301MOL0     O39608   4.003   7.978   1.930 -1.2449 -0.6523  0.2076
  301MOL0     C39609   4.075   7.858   1.888  0.0238 -0.4107 -0.3217
  301MOL0     C39610   4.131   7.877   1.741 -0.4368 -0.5780  1.3384
  301MOL0     C39611   4.180   7.749   1.659 -0.1848  0.3953  0.0562
  301MOL0     C39612   4.066   7.645   1.641 -0.1720  0.2072  0.1950
  301MOL0     C39613   4.112   7.516   1.575 -0.7019 -0.7025 -0.5225
  301MOL0     C39614   4.004   7.449   1.496  0.7496 -0.6653  0.2863
  301MOL0     C39615   3.891   7.387   1.591 -0.0199  0.4729 -0.1088
  301MOL0     C39616   3.865   7.240   1.548  0.3359 -0.2504  0.0415
  301MOL0     N39617   3.973   7.159   1.593  0.2136  0.3410 -0.3136
  301MOL0     C39618   4.070   7.116   1.510 -0.5530 -1.1372  0.5934
  301MOL0     C39619   4.167   7.067   1.585 -0.6543  1.2296  0.1373
  301MOL0     C39620   4.278   6.979   1.531 -0.0346 -0.2807  1.2310
  301MOL0     C39621   4.226   6.844   1.467  0.6211  0.2863 -0.0123
  301MOL0     C39622   4.337   6.742   1.446  0.0292 -0.2126  0.8358
  301MOL0     C39623   4.274   6.617   1.389 -0.2614 -0.4484  0.5736
  301MOL0     O39624   4.378   6.571   1.305  0.2283 -0.0806  0.5916
  301MOL0     C39625   4.482   6.501   1.366 -0.9293  0.1586  0.1579
  301MOL0     C39626   4.465   6.375   1.421  0.1723 -0.8052  0.3165
  301MOL0     C39627   4.570   6.317   1.501 -0.3626 -0.5132 -0.1787
  301MOL0     C39628   4.686   6.383   1.523  0.2509  0.4138  0.5767
  301MOL0     C39629   4.797   6.312   1.587  0.2556 -0.2031  0.2774
  301MOL0     O39630   4.887   6.393   1.650  0.1960  0.0932 -0.4721
  301MOL0     C39631   4.997   6.360   1.730 -0.3030  0.3783  0.0298
  301MOL0     C39632   4.993   6.280   1.845  0.0589 -0.1919  0.1078
  301MOL0     C39633   5.104   6.254   1.917  0.3873  0.2135 -0.1434
  301MOL0     C39634   5.229   6.310   1.878  0.7077 -0.3455  1.3015
  301MOL0     O39635   5.339   6.282   1.946 -0.2484 -1.1071 -0.6465
  301MOL0     C39636   5.462   6.268   1.895  0.0201  0.7616  0.1980
  301MOL0     C39637   5.568   6.257   2.006  0.3088 -0.1424  0.4645
  301MOL0     C39638   5.704   6.201   1.951  0.5188 -1.0770 -0.4148
  301MOL0     C39639   5.809   6.191   2.066 -0.4901 -0.3450  1.0061
  301MOL0     C39640   5.767   6.079   2.164  0.3029  0.0104  0.1761
  301MOL0     C39641   5.886   5.999   2.221 -0.5106  0.0221  0.2513
  301MOL0     C39642   5.840   5.930   2.344  0.4182 -0.1359  0.6980
  301MOL0     C39643   5.961   5.882   2.425  0.2528  0.7722  0.1560
  301MOL0    Cl39644   5.912   5.863   2.602 -0.7620  0.2379  0.0195
  301MOL0     C39645   5.228   6.398   1.762  0.0240 -0.1685 -0.2010
  301MOL0     C39646   5.111   6.423   1.692 -0.2695 -1.3425  0.4293
  301MOL0     O39647   4.797   6.183   1.586  0.5194  0.0665  0.3237
  301MOL0     C39648   4.701   6.512   1.464  0.6227  1.3446  1.1312
  301MOL0     C39649   4.600   6.571   1.388 -0.4326 -0.0546 -0.9087
  301MOL0     N39650   4.140   7.084   1.719  0.0825  0.0767 -0.1626
  301MOL0     N39651   4.019   7.140   1.721 -0.3970 -0.2992  0.2464
  301MOL0     C39652   3.815   7.854   2.044 -0.0443  0.4399  0.4651
  301MOL0     C39653   3.682   7.859   2.077 -0.5410  0.7810  0.2573
  301MOL0     C39654   3.293   7.949   2.239 -0.1039  1.0463  0.8311
  301MOL0     C39655   3.200   7.917   2.135  0.2574  0.6439  0.3365
  301MOL0     C39656   3.064   7.912   2.159 -0.3563  0.2613 -0.6076
  301MOL0     C39657   3.014   7.923   2.286  0.4371  0.2867  0.2574
  301MOL0     O39658   2.880   7.904   2.318 -0.8512 -0.0891 -0.2354
  301MOL0     C39659   2.770   7.879   2.227  0.4421 -0.6854 -0.0410
  301MOL0     C39660   2.704   8.009   2.192  0.4862  0.0670 -0.1354
  301MOL0     C39661   2.636   8.078   2.309  0.3653  0.4892 -0.2502
  301MOL0     C39662   2.528   7.991   2.375  0.5265  0.2522  0.3070
  301MOL0     C39663   2.454   8.060   2.483 -0.1104  0.6013  0.1966
  301MOL0     C39664   2.402   8.118   2.577 -0.9626 -0.1744  0.4169
  301MOL0     C39665   3.099   7.946   2.388  0.0774 -0.2605 -0.0053
  301MOL0     C39666   3.233   7.961   2.367  0.1990 -0.8250  0.4441
  301MOL0     H39667   3.619   8.179   1.955  0.0030 -0.9128 -2.1143
  301MOL0     H39668   3.846   8.166   1.913  1.4313  0.0033  1.1233
  301MOL0     H39669   4.005   7.775   1.894  2.3842 -2.4973  0.0298
  301MOL0     H39670   4.162   7.845   1.954  2.3884  2.3772 -2.6020
  301MOL0     H39671   4.216   7.944   1.754  0.1866 -1.3807  1.4864
  301MOL0     H39672   4.056   7.931   1.681 -2.0054 -1.3829  2.5029
  301MOL0     H39673   4.258   7.705   1.723 -0.1904  0.7271  0.2976
  301MOL0     H39674   4.225   7.777   1.564  0.1162  0.0685  0.1029
  301MOL0     H39675   4.027   7.612   1.737  0.8307 -2.3740 -0.2264
  301MOL0     H39676   3.990   7.696   1.580  1.5744  2.5863 -0.1572
  301MOL0     H39677   4.152   7.451   1.653  0.6314  1.9602  1.1740
  301MOL0     H39678   4.188   7.538   1.499  1.2992  0.6018  1.7157
  301MOL0     H39679   4.038   7.371   1.427  0.6993  0.8562 -1.5353
  301MOL0     H39680   3.952   7.529   1.443 -0.9772  0.1416  2.9746
  301MOL0     H39681   3.914   7.388   1.698 -0.1258 -3.3771  0.0847
  301MOL0     H39682   3.799   7.442   1.565  2.2398  2.7444 -4.6051
  301MOL0     H39683   3.845   7.246   1.440 -2.1539 -2.6353  0.2450
  301MOL0     H39684   3.776   7.217   1.608  0.7647  2.9668  2.1364
  301MOL0     H39685   4.070   7.110   1.401 -2.2274 -2.4784  0.6203
  301MOL0     H39686   4.339   6.965   1.620 -1.0050 -0.5380  1.8629
  301MOL0     H39687   4.341   7.028   1.456  2.0641 -2.8758  1.1828
  301MOL0     H39688   4.176   6.869   1.373  2.5011  0.9000 -0.9086
  301MOL0     H39689   4.149   6.796   1.528  2.1105  0.7724  2.3598
  301MOL0     H39690   4.409   6.782   1.375 -0.4187 -1.9903 -0.7305
  301MOL0     H39691   4.389   6.724   1.540  0.2167  3.6624  1.6108
  301MOL0     H39692   4.179   6.627   1.337  0.0015 -0.5583  0.0727
  301MOL0     H39693   4.251   6.556   1.477 -0.1734  1.3136  1.8698
  301MOL0     H39694   4.382   6.305   1.418  0.2995 -1.1553  2.6682
  301MOL0     H39695   4.549   6.215   1.532  2.9751 -1.1981  0.1551
  301MOL0     H39696   4.895   6.236   1.861  0.0414  0.4087  1.9259
  301MOL0     H39697   5.087   6.191   2.004 -1.9049 -0.1003 -0.7550
  301MOL0     H39698   5.486   6.354   1.831 -0.1688  0.9299  0.3519
  301MOL0     H39699   5.456   6.179   1.832  0.6239  0.7768  0.1162
  301MOL0     H39700   5.523   6.194   2.084 -1.2823  0.8869  0.4227
  301MOL0     H39701   5.597   6.353   2.050  1.4504 -0.3152  0.1207
  301MOL0     H39702   5.737   6.259   1.865  0.3787 -0.7905 -0.2800
  301MOL0     H39703   5.686   6.100   1.915 -0.0368 -0.7109 -1.1742
  301MOL0     H39704   5.909   6.167   2.027 -1.1660 -0.6131 -0.6413
  301MOL0     H39705   5.820   6.282   2.126 -0.5033  0.0441  0.4313
  301MOL0     H39706   5.694   6.011   2.120  1.7711 -2.0764  0.7919
  301MOL0     H39707   5.721   6.114   2.257  1.4675 -2.8416  1.9515
  301MOL0     H39708   5.970   6.067   2.230  2.0773 -2.4539 -2.7849
  301MOL0     H39709   5.914   5.925   2.145 -0.4804  0.4314 -0.1402
  301MOL0     H39710   5.794   6.002   2.413 -1.9454 -0.2820 -0.6106
  301MOL0     H39711   5.778   5.844   2.318 -0.7747 -0.2785  3.6344
  301MOL0     H39712   6.048   5.948   2.417 -1.0486  2.3755 -2.0348
  301MOL0     H39713   5.997   5.788   2.382 -0.6180  1.0147 -1.1806
  301MOL0     H39714   5.321   6.445   1.732  0.4837 -0.2525  1.0273
  301MOL0     H39715   5.110   6.495   1.610 -1.4879 -0.2498  1.3707
  301MOL0     H39716   4.794   6.565   1.483  0.6569  2.0404 -0.8017
  301MOL0     H39717   4.602   6.674   1.355 -3.4795  1.2829  2.3610
  301MOL0     H39718   3.861   7.757   2.060  0.5770  0.5271 -0.6473
  301MOL0     H39719   3.645   7.774   2.133  0.5498 -1.0997 -1.7207
  301MOL0     H39720   3.235   7.928   2.033 -0.2014  2.0378  0.3143
  301MOL0     H39721   2.997   7.886   2.078 -0.0089 -0.5692 -0.6348
  301MOL0     H39722   2.703   7.800   2.262  1.5355 -2.2825 -1.3475
  301MOL0     H39723   2.802   7.847   2.127  0.7546 -0.1241 -0.1247
  301MOL0     H39724   2.787   8.074   2.163  3.3856 -1.7337  3.2560
  301MOL0     H39725   2.626   7.986   2.119 -1.6096 -2.7218  2.6699
  301MOL0     H39726   2.591   8.167   2.264 -0.4156  0.5420  0.5940
  301MOL0     H39727   2.708   8.115   2.382  2.1965 -3.3566  0.1870
  301MOL0     H39728   2.445   7.960   2.310  0.4345 -0.2218  0.6442
  301MOL0     H39729   2.595   7.913   2.412  2.2648  1.0835 -0.9850
  301MOL0     H39730   2.346   8.154   2.660 -0.4702 -1.9609  1.5897
  301MOL0     H39731   3.062   7.942   2.490  1.9680 -2.0936  0.6869
  301MOL0     H39732   3.299   7.981   2.450 -0.2008  3.9835 -0.1593
  302MOL0     O39733  11.155   6.092  10.415 -0.1545 -0.0881  0.5379
  302MOL0     C39734  11.112   6.010  10.333 -1.1378  0.3918 -0.4336
  302MOL0     O39735  10.985   5.995  10.281  0.4201 -0.7395 -0.2547
  302MOL0     C39736  10.885   6.097  10.290  0.4103 -0.4009  1.3088
  302MOL0     C39737  10.756   6.046  10.318 -0.8464  0.1988  0.6382
  302MOL0     C39738  10.639   6.127  10.336 -0.7352 -0.6797  0.4071
  302MOL0     C39739  10.658   6.263  10.330  0.2481 -1.0501  0.1192
  302MOL0     O39740  10.541   6.334  10.352 -0.2378  0.4929  0.0143
  302MOL0     C39741  10.538   6.469  10.403 -0.5435  0.4599 -0.6475
  302MOL0     C39742  10.587   6.482  10.544  0.1369  0.0209  0.2835
  302MOL0     C39743  10.570   6.637  10.598  0.6190  0.4607 -0.5512
  302MOL0     C39744  10.662   6.729  10.536  1.0130 -0.5440  0.0459
  302MOL0     C39745  10.693   6.859  10.615  0.4804 -0.1012  0.3555
  302MOL0     C39746  10.735   6.970  10.523  0.2796 -0.2508 -0.2250
  302MOL0     C39747  10.793   7.093  10.593  0.1370 -0.9670 -0.3985
  302MOL0     C39748  10.866   7.199  10.518 -0.1316 -0.0676 -0.5096
  302MOL0     N39749  10.913   7.302  10.607 -0.1090  0.3113 -1.2411
  302MOL0     C39750  11.010   7.307  10.710 -0.4554  0.1661  0.2129
  302MOL0     C39751  10.972   7.396  10.799 -0.4277 -0.3094 -0.1773
  302MOL0     C39752  11.063   7.428  10.910 -0.3628  0.2484 -0.1934
  302MOL0     C39753  11.202   7.502  10.878  0.1445  1.3850  0.7060
  302MOL0     C39754  11.192   7.639  10.820  0.4545 -0.8108  0.0299
  302MOL0     C39755  11.085   7.729  10.886 -0.3062  0.4462 -0.8684
  302MOL0     O39756  11.105   7.853  10.819  1.2228 -0.1152 -0.5685
  302MOL0     C39757  11.137   7.973  10.889 -0.0395 -0.0536 -0.2317
  302MOL0     C39758  11.131   7.988  11.028 -0.0146  0.2533 -0.7252
  302MOL0     C39759  11.195   8.107  11.082  0.3537 -0.4670 -1.1672
  302MOL0     C39760  11.263   8.204  11.004  0.5318  0.5453  0.5866
  302MOL0     C39761  11.312   8.336  11.047  0.2419 -0.5811  0.9175
  302MOL0     O39762  11.391   8.401  10.956 -0.4836 -0.7876  0.7993
  302MOL0     C39763  11.447   8.519  10.984 -0.9870 -0.4227 -0.5890
  302MOL0     C39764  11.358   8.624  10.998 -0.2150 -0.5714 -0.0126
  302MOL0     C39765  11.392   8.759  11.008 -0.0581  0.8818 -0.4253
  302MOL0     C39766  11.527   8.793  11.003  0.1548  0.2085 -0.4568
  302MOL0     O39767  11.583   8.917  11.020  0.6995 -0.5508 -0.4132
  302MOL0     C39768  11.486   9.014  11.057 -0.0247 -0.5120  1.0415
  302MOL0     C39769  11.549   9.145  11.118 -0.0229  0.1843  0.0220
  302MOL0     C39770  11.476   9.262  11.071 -0.5756 -0.6997 -0.4248
  302MOL0     C39771  11.505   9.294  10.920  0.5659 -0.3180  0.4829
  302MOL0     C39772  11.428   9.419  10.865 -0.4695  0.0906  0.0231
  302MOL0     C39773  11.483   9.550  10.920 -0.1516  0.2265  0.8806
  302MOL0     C39774  11.400   9.673  10.883 -0.7467  0.2832  0.3176
  302MOL0     C39775  11.459   9.797  10.951 -0.3473 -0.7827  0.0956
  302MOL0    Cl39776  11.643   9.811  10.923 -0.2551  0.1546  0.2339
  302MOL0     C39777  11.621   8.691  10.981 -0.5255 -0.2082 -0.5018
  302MOL0     C39778  11.582   8.556  10.971  0.0652  0.2263 -1.0102
  302MOL0     O39779  11.275   8.376  11.160  0.0214  0.3776 -0.5144
  302MOL0     C39780  11.281   8.164  10.874  0.0616 -0.5959  0.9965
  302MOL0     C39781  11.220   8.059  10.813  0.1048  0.0656 -0.0189
  302MOL0     N39782  10.847   7.443  10.762 -0.7913 -0.5568  0.3027
  302MOL0     N39783  10.817   7.393  10.646  0.2272  0.4664  0.3356
  302MOL0     C39784  10.777   6.323  10.306 -0.7740 -0.1873 -0.3519
  302MOL0     C39785  10.887   6.244  10.288 -0.3062  0.4564 -0.3400
  302MOL0     C39786  11.203   5.907  10.280 -0.8200  0.8827  0.0534
  302MOL0     C39787  11.346   5.911  10.298  0.9094  0.0112  1.0056
  302MOL0     C39788  11.430   5.809  10.260 -0.7619  0.1819 -0.7357
  302MOL0     C39789  11.380   5.711  10.182 -0.2223  0.8867  0.7103
  302MOL0     O39790  11.465   5.623  10.121 -0.6323 -0.6703 -0.0125
  302MOL0     C39791  11.434   5.484  10.090  0.3540  0.1603 -1.0041
  302MOL0     C39792  11.556   5.397  10.046  0.2216  0.4028  0.1956
  302MOL0     C39793  11.665   5.363  10.147 -0.2450  0.3428  0.5564
  302MOL0     C39794  11.786   5.297  10.092 -0.1648 -1.3329  1.0949
  302MOL0     C39795  11.863   5.400  10.018 -0.8767  0.1677 -0.2489
  302MOL0     C39796  11.924   5.481   9.946  0.4365 -0.9706 -1.2867
  302MOL0     C39797  11.239   5.682  10.184 -0.1618  0.4645 -0.0017
  302MOL0     C39798  11.153   5.780  10.235 -0.8138  0.4128  0.3095
  302MOL0     H39799  10.728   5.941  10.319  0.3825 -0.2016 -1.1208
  302MOL0     H39800  10.543   6.081  10.354 -2.2299  1.3697 -1.6804
  302MOL0     H39801  10.432   6.498  10.405 -0.9591 -0.8017 -1.9449
  302MOL0     H39802  10.592   6.520  10.323  1.8985 -4.2512 -2.3893
  302MOL0     H39803  10.686   6.438  10.557 -0.6070 -1.9746 -0.4803
  302MOL0     H39804  10.516   6.429  10.608 -1.0081  1.2013  0.0381
  302MOL0     H39805  10.586   6.630  10.706 -0.1594 -0.8815 -0.4936
  302MOL0     H39806  10.467   6.666  10.575  0.1723 -1.0211 -0.5275
  302MOL0     H39807  10.758   6.679  10.514  0.4804 -1.6575  0.1691
  302MOL0     H39808  10.618   6.763  10.442 -0.6092  1.6970  1.5385
  302MOL0     H39809  10.771   6.847  10.691 -0.2702 -0.2832  1.1178
  302MOL0     H39810  10.605   6.904  10.661 -2.6880 -1.4693 -3.7261
  302MOL0     H39811  10.644   6.998  10.468  1.0262  0.9237 -0.9005
  302MOL0     H39812  10.805   6.928  10.450  1.0513  1.2070 -0.3617
  302MOL0     H39813  10.708   7.144  10.640 -0.2383 -0.8713 -1.1626
  302MOL0     H39814  10.861   7.056  10.670 -1.8134 -0.9984  1.4100
  302MOL0     H39815  10.813   7.249  10.436  2.4690  1.0792 -1.6300
  302MOL0     H39816  10.957   7.156  10.473  1.2101 -0.1667  2.1289
  302MOL0     H39817  11.095   7.239  10.712 -0.5280  0.0849  1.3137
  302MOL0     H39818  11.080   7.332  10.959  2.9649  0.5387 -0.5380
  302MOL0     H39819  11.016   7.479  10.994  2.0713 -0.1996  1.5608
  302MOL0     H39820  11.261   7.434  10.816  0.7863  0.9825  1.7449
  302MOL0     H39821  11.249   7.500  10.977 -1.3714  0.7335  1.4496
  302MOL0     H39822  11.288   7.690  10.833 -0.8938  2.4483 -1.6135
  302MOL0     H39823  11.168   7.643  10.713  3.2606  0.1607 -0.6381
  302MOL0     H39824  11.097   7.723  10.995 -0.0882  1.4469 -0.8327
  302MOL0     H39825  10.986   7.692  10.859  0.1544 -0.0326 -1.9669
  302MOL0     H39826  11.076   7.911  11.081  3.7961 -4.0345 -2.3164
  302MOL0     H39827  11.172   8.131  11.185  0.3064  1.9909 -1.6921
  302MOL0     H39828  11.251   8.616  10.984 -0.6831  1.4849  1.6736
  302MOL0     H39829  11.317   8.836  11.024 -2.9269 -2.3383  5.0802
  302MOL0     H39830  11.412   8.979  11.130 -4.9841  2.4866 -1.9600
  302MOL0     H39831  11.433   9.038  10.964  2.8982  1.2010 -0.3297
  302MOL0     H39832  11.652   9.170  11.091 -0.2817  1.9451  0.5400
  302MOL0     H39833  11.547   9.140  11.227  2.9435 -4.0529  0.1287
  302MOL0     H39834  11.516   9.344  11.132 -2.5563 -1.5522  2.2285
  302MOL0     H39835  11.369   9.257  11.091 -1.0093  4.6796  0.0285
  302MOL0     H39836  11.612   9.314  10.920  0.6132 -0.2852 -2.0756
  302MOL0     H39837  11.485   9.215  10.847  0.2091  0.0656  0.1613
  302MOL0     H39838  11.321   9.414  10.884 -0.5784  3.2398  0.7195
  302MOL0     H39839  11.432   9.415  10.756 -1.9222  3.0456 -0.2382
  302MOL0     H39840  11.590   9.550  10.894 -0.1551 -2.8190  0.5700
  302MOL0     H39841  11.477   9.550  11.029 -2.7199 -0.2539  0.7875
  302MOL0     H39842  11.388   9.679  10.775  1.5924  1.6344  0.0616
  302MOL0     H39843  11.302   9.664  10.930  0.2621  0.5319  2.6069
  302MOL0     H39844  11.433   9.814  11.056 -0.0766  1.9068 -0.1992
  302MOL0     H39845  11.402   9.881  10.909 -1.0589 -0.6736  1.2326
  302MOL0     H39846  11.727   8.708  10.964 -0.0898 -0.3493  1.7326
  302MOL0     H39847  11.652   8.477  10.944  2.1139  1.9525 -1.0673
  302MOL0     H39848  11.320   8.223  10.792 -3.5041  0.9482  0.2003
  302MOL0     H39849  11.227   8.048  10.705  1.1468 -1.3707  0.1694
  302MOL0     H39850  10.787   6.431  10.308 -2.3221  0.0479 -1.9933
  302MOL0     H39851  10.972   6.304  10.257 -0.6372  0.5131 -1.1515
  302MOL0     H39852  11.371   5.994  10.363 -1.7854  1.7698 -0.0145
  302MOL0     H39853  11.537   5.825  10.270 -0.5496 -1.5052  0.1965
  302MOL0     H39854  11.365   5.475  10.007  0.6663 -0.8468 -1.1707
  302MOL0     H39855  11.388   5.441  10.179 -0.2217 -1.2445 -1.9525
  302MOL0     H39856  11.507   5.303  10.017 -0.0485  0.8983 -1.0476
  302MOL0     H39857  11.598   5.440   9.954 -1.1628 -2.4085 -1.9062
  302MOL0     H39858  11.630   5.294  10.224  0.2511  0.8386  1.2341
  302MOL0     H39859  11.692   5.456  10.198  0.0963  0.8376 -0.5006
  302MOL0     H39860  11.857   5.261  10.167  0.0420 -1.5048  0.8223
  302MOL0     H39861  11.767   5.219  10.017  2.4731 -0.0856 -1.0559
  302MOL0     H39862  11.976   5.542   9.876 -0.4732  0.9832 -0.3477
  302MOL0     H39863  11.200   5.587  10.150 -3.2676  1.5744  0.1933
  302MOL0     H39864  11.049   5.751  10.239 -1.3174  1.9748 -0.6923
  303MOL0     O39865  10.206   6.254   5.110 -0.7294  0.3416  0.2983
  303MOL0     C39866  10.323   6.224   5.087  0.2677  0.3120 -0.2795
  303MOL0     O39867  10.358   6.119   5.005  0.2419 -0.4734  0.7387
  303MOL0     C39868  10.268   6.025   4.947 -1.2192 -0.7742 -0.2399
  303MOL0     C39869  10.290   6.000   4.813  0.0259  0.8010 -0.1866
  303MOL0     C39870  10.224   5.890   4.761  0.2770  0.0343  0.0874
  303MOL0     C39871  10.124   5.818   4.828  0.1924 -0.2054 -0.7995
  303MOL0     O39872  10.061   5.712   4.772 -0.6081 -0.3763 -0.0910
  303MOL0     C39873  10.116   5.638   4.663 -0.9870  0.1525 -0.0676
  303MOL0     C39874  10.228   5.543   4.711 -0.1062 -0.1680  0.4802
  303MOL0     C39875  10.191   5.421   4.800  0.5684  0.6511 -0.7470
  303MOL0     C39876  10.322   5.361   4.864 -0.4350  0.4574  0.6970
  303MOL0     C39877  10.302   5.252   4.975  0.5909 -0.3967  0.2555
  303MOL0     C39878  10.228   5.118   4.925 -0.3131 -0.7686 -0.5964
  303MOL0     C39879  10.301   5.038   4.823 -0.1661  0.2021  0.4453
  303MOL0     C39880  10.417   4.960   4.877 -0.1234 -0.6108  0.0735
  303MOL0     N39881  10.482   4.869   4.786 -0.4281  0.4938  0.5370
  303MOL0     C39882  10.423   4.763   4.732  0.4419  0.1038 -0.2456
  303MOL0     C39883  10.508   4.715   4.628 -0.0755  0.3572 -0.0977
  303MOL0     C39884  10.466   4.612   4.524 -0.1244 -0.0346  0.2366
  303MOL0     C39885  10.580   4.540   4.455  0.4000 -0.2585  0.5822
  303MOL0     C39886  10.543   4.441   4.343 -0.1871  0.2225 -0.2017
  303MOL0     C39887  10.660   4.337   4.324  0.4254  0.8641  0.3945
  303MOL0     O39888  10.773   4.392   4.264  0.5834 -0.6380  0.3191
  303MOL0     C39889  10.875   4.310   4.225 -0.4782 -0.7701 -0.7177
  303MOL0     C39890  10.897   4.174   4.257  0.1687  0.4454  0.3924
  303MOL0     C39891  11.022   4.098   4.229  0.3403  0.2481 -0.0261
  303MOL0     C39892  11.122   4.173   4.174  0.1784  0.3720  0.0615
  303MOL0     C39893  11.251   4.101   4.144 -0.2935 -0.3464 -0.7468
  303MOL0     O39894  11.332   4.173   4.053  0.2571  0.5828  0.4667
  303MOL0     C39895  11.444   4.105   4.012 -0.1358 -0.2577  0.8354
  303MOL0     C39896  11.482   4.090   3.875  0.6884 -0.9291 -0.8578
  303MOL0     C39897  11.595   4.017   3.823  0.1874  0.1903 -0.2789
  303MOL0     C39898  11.680   3.963   3.926 -0.7235 -0.6033 -0.0938
  303MOL0     O39899  11.783   3.888   3.870  1.4290 -0.6398 -0.7330
  303MOL0     C39900  11.882   3.847   3.953 -0.4294  0.2330 -0.0932
  303MOL0     C39901  11.971   3.770   3.855  0.6128  0.0285 -0.7334
  303MOL0     C39902  12.044   3.863   3.762  0.4449  0.5610  0.1456
  303MOL0     C39903  12.115   3.771   3.660  0.2043  0.0986 -0.1402
  303MOL0     C39904  12.171   3.868   3.557 -0.4806 -0.8082  0.6307
  303MOL0     C39905  12.206   3.798   3.432 -0.5331  0.1182  0.6076
  303MOL0     C39906  12.333   3.714   3.441  0.1382  0.7980 -0.1484
  303MOL0     C39907  12.452   3.795   3.477  0.4216  0.4271  0.3002
  303MOL0    Cl39908  12.589   3.689   3.426  0.1733  0.1520 -0.7447
  303MOL0     C39909  11.650   3.988   4.063 -0.4236  0.1290 -0.2669
  303MOL0     C39910  11.540   4.062   4.102  0.3857  0.9750 -0.7138
  303MOL0     O39911  11.275   3.991   4.192 -0.0834 -0.0408  0.5392
  303MOL0     C39912  11.112   4.313   4.155  0.3238 -0.7213  0.3563
  303MOL0     C39913  10.986   4.377   4.176 -0.4286  0.3056  0.2561
  303MOL0     N39914  10.620   4.794   4.628  0.5216 -0.4424 -0.5919
  303MOL0     N39915  10.600   4.882   4.727  0.2468  0.0717  0.4455
  303MOL0     C39916  10.101   5.850   4.963 -0.3583 -0.7300 -0.0456
  303MOL0     C39917  10.176   5.953   5.018 -0.5199 -1.1773  0.0483
  303MOL0     C39918  10.433   6.311   5.136 -0.2895 -0.0610 -0.1993
  303MOL0     C39919  10.408   6.413   5.235 -0.7690  0.5872  0.3797
  303MOL0     C39920  10.514   6.487   5.285  0.1701 -0.5838  0.4025
  303MOL0     C39921  10.647   6.479   5.241 -0.7384 -0.3173  0.2976
  303MOL0     O39922  10.753   6.556   5.291  0.3475  0.3684  0.2432
  303MOL0     C39923  10.725   6.626   5.409  0.1581 -0.3565 -0.0783
  303MOL0     C39924  10.853   6.718   5.450 -0.6364  0.2913  0.3855
  303MOL0     C39925  10.984   6.646   5.459 -0.8941  0.3815  0.4242
  303MOL0     C39926  11.039   6.604   5.585  0.4291  0.1320  0.5653
  303MOL0     C39927  11.092   6.718   5.660 -1.0304  0.6532  0.3010
  303MOL0     C39928  11.136   6.804   5.729  0.0273 -0.4886 -0.7876
  303MOL0     C39929  10.677   6.390   5.146  0.0872 -0.8678 -0.2829
  303MOL0     C39930  10.573   6.306   5.099 -0.9460 -0.7114 -0.2054
  303MOL0     H39931  10.361   6.059   4.756  1.0025  0.2733  0.4550
  303MOL0     H39932  10.247   5.862   4.659 -0.0328 -0.2659  0.0969
  303MOL0     H39933  10.159   5.702   4.586 -1.4014 -1.9164 -2.1382
  303MOL0     H39934  10.042   5.574   4.614  0.6444 -1.5946 -0.3678
  303MOL0     H39935  10.296   5.605   4.770  2.0199 -2.4593  0.6345
  303MOL0     H39936  10.291   5.502   4.631 -0.5763 -1.3315  0.6809
  303MOL0     H39937  10.146   5.337   4.746 -0.9056 -0.1297  1.5378
  303MOL0     H39938  10.125   5.462   4.877 -0.4600 -1.6717 -0.3014
  303MOL0     H39939  10.379   5.320   4.781 -0.9427  1.8950 -0.3991
  303MOL0     H39940  10.378   5.442   4.910  1.8626  1.5788 -3.6096
  303MOL0     H39941  10.237   5.297   5.050  1.0966  1.8626 -0.5753
  303MOL0     H39942  10.400   5.223   5.016  1.3251 -0.8051 -1.7032
  303MOL0     H39943  10.138   5.158   4.877 -1.7535  2.0009  3.8079
  303MOL0     H39944  10.207   5.053   5.011  2.4483  0.2508  0.9524
  303MOL0     H39945  10.231   4.969   4.775  1.9847 -1.1081 -0.9712
  303MOL0     H39946  10.353   5.104   4.753  2.8024  0.5766  2.8245
  303MOL0     H39947  10.387   4.897   4.961  2.1836 -0.1181  1.3438
  303MOL0     H39948  10.491   5.030   4.916 -0.4280 -0.4172  0.3114
  303MOL0     H39949  10.321   4.729   4.748  1.4196 -2.7474  0.4654
  303MOL0     H39950  10.406   4.659   4.445  1.7032 -2.7716 -3.0621
  303MOL0     H39951  10.400   4.538   4.571  0.1792  1.4263  3.1966
  303MOL0     H39952  10.652   4.510   4.532  1.9017  0.7358 -0.3899
  303MOL0     H39953  10.628   4.622   4.402 -2.3086  0.5760 -0.7381
  303MOL0     H39954  10.453   4.390   4.378 -0.5220 -0.3823 -1.8446
  303MOL0     H39955  10.520   4.496   4.252 -1.2181  4.3649  2.2779
  303MOL0     H39956  10.622   4.262   4.254 -1.7991  2.4958 -0.2516
  303MOL0     H39957  10.688   4.282   4.414 -3.0041 -1.2405  0.3517
  303MOL0     H39958  10.818   4.110   4.293 -2.0696  3.3776  1.1035
  303MOL0     H39959  11.027   3.990   4.246  2.1653  0.4552  0.9813
  303MOL0     H39960  11.420   4.131   3.795 -1.0260 -2.6254 -0.4818
  303MOL0     H39961  11.605   3.984   3.720 -0.8305 -1.6044  0.1296
  303MOL0     H39962  11.851   3.775   4.029  4.5924 -0.3094  1.8039
  303MOL0     H39963  11.932   3.936   3.991  0.0077 -0.6084  1.3522
  303MOL0     H39964  11.913   3.686   3.817  1.7653 -1.2965  0.3670
  303MOL0     H39965  12.046   3.724   3.920 -0.5116  1.6244  1.8687
  303MOL0     H39966  12.113   3.916   3.827 -0.9838 -0.1374  2.3589
  303MOL0     H39967  11.977   3.941   3.723 -0.4923 -0.7593 -1.0232
  303MOL0     H39968  12.196   3.722   3.714 -1.1367 -0.4117  1.5222
  303MOL0     H39969  12.054   3.686   3.626 -1.8940  1.9832 -1.3937
  303MOL0     H39970  12.255   3.929   3.591 -1.9231  0.2107  2.5314
  303MOL0     H39971  12.096   3.944   3.534 -1.0509 -1.5608 -0.0729
  303MOL0     H39972  12.218   3.875   3.356 -0.2699  0.2488  0.7813
  303MOL0     H39973  12.126   3.735   3.393  1.6487 -2.6127  0.1513
  303MOL0     H39974  12.325   3.638   3.519 -0.7642 -2.5713 -3.2936
  303MOL0     H39975  12.354   3.666   3.345  4.0123  0.3504  0.7292
  303MOL0     H39976  12.457   3.827   3.581  0.7516  5.2766 -0.9665
  303MOL0     H39977  12.445   3.889   3.421  0.1287 -0.1210 -0.6127
  303MOL0     H39978  11.717   3.942   4.136  0.1806  2.4743  0.7445
  303MOL0     H39979  11.517   4.076   4.207  2.4954 -1.6693  0.2314
  303MOL0     H39980  11.191   4.370   4.106 -1.6644  1.3683 -0.6187
  303MOL0     H39981  10.975   4.481   4.146 -3.0305  0.3570  1.1746
  303MOL0     H39982  10.030   5.797   5.027 -2.3489  1.6053 -0.1632
  303MOL0     H39983  10.169   5.987   5.121  0.8240 -1.2298  0.1800
  303MOL0     H39984  10.305   6.435   5.262 -1.0447 -0.7787  0.4962
  303MOL0     H39985  10.481   6.571   5.345 -0.2811  2.4124 -3.6454
  303MOL0     H39986  10.690   6.564   5.492  1.5286  0.8757  1.5213
  303MOL0     H39987  10.647   6.703   5.409  1.5793  1.1809  1.4185
  303MOL0     H39988  10.869   6.790   5.369  1.7511  0.5012  0.9853
  303MOL0     H39989  10.834   6.770   5.545 -0.0424  2.0757 -0.4350
  303MOL0     H39990  11.055   6.708   5.403 -3.1393  0.5698 -2.4635
  303MOL0     H39991  10.979   6.558   5.394  1.5751  0.8123 -0.4638
  303MOL0     H39992  10.959   6.561   5.646 -0.5358  2.2327  0.8975
  303MOL0     H39993  11.121   6.534   5.570  0.6551  0.4293  0.3969
  303MOL0     H39994  11.187   6.878   5.788 -0.6365 -1.6766  1.4126
  303MOL0     H39995  10.780   6.380   5.115  0.3403 -0.4735  0.4308
  303MOL0     H39996  10.608   6.234   5.026  0.1176 -0.1841 -0.2342
  304MOL0     O39997   9.570   5.068   2.116  0.6138  0.1860  0.1201
  304MOL0     C39998   9.535   5.019   2.228  0.1850 -0.0482  0.5471
  304MOL0     O39999   9.566   5.071   2.351 -0.4641 -0.6313 -0.2620
  304MOL0     C40000   9.631   5.188   2.353 -0.2418  0.3669 -0.1441
  304MOL0     C40001   9.560   5.308   2.377 -0.3621 -0.8799  0.7152
  304MOL0     C40002   9.631   5.428   2.383  0.6784  0.4505  0.0313
  304MOL0     C40003   9.771   5.423   2.366 -0.0818 -0.3767 -0.5087
  304MOL0     O40004   9.831   5.544   2.389  0.1585  0.0128  0.4659
  304MOL0     C40005   9.871   5.560   2.521 -0.0059 -0.0004 -0.0957
  304MOL0     C40006   9.760   5.628   2.594 -0.1876 -1.3251  0.4290
  304MOL0     C40007   9.806   5.727   2.700  0.3128  0.7609  0.3089
  304MOL0     C40008   9.873   5.638   2.800 -0.3519 -0.7941 -0.6479
  304MOL0     C40009   9.858   5.716   2.935  1.0813 -0.1826  0.4423
  304MOL0     C40010   9.729   5.679   3.021 -0.3728  1.1747  0.4181
  304MOL0     C40011   9.749   5.542   3.084 -0.0605 -0.0261  0.6124
  304MOL0     C40012   9.625   5.520   3.172 -0.1747 -0.1196  0.4331
  304MOL0     N40013   9.499   5.484   3.096 -0.7840  0.4812  0.5888
  304MOL0     C40014   9.495   5.400   2.981 -0.7100  0.4673 -0.0546
  304MOL0     C40015   9.373   5.391   2.947 -0.6136 -0.2824 -0.6522
  304MOL0     C40016   9.311   5.324   2.826 -0.5021  0.1248  0.6964
  304MOL0     C40017   9.262   5.186   2.846 -1.1425  0.1825 -0.0334
  304MOL0     C40018   9.162   5.168   2.969  0.4620 -0.0549 -0.3532
  304MOL0     C40019   9.063   5.060   2.942  0.0608  0.5664  0.0357
  304MOL0     O40020   8.936   5.117   2.893  0.0119  0.5591  0.6125
  304MOL0     C40021   8.850   5.167   2.997 -0.7126 -0.5686 -0.3809
  304MOL0     C40022   8.723   5.193   2.948 -0.3993  0.1942  0.0620
  304MOL0     C40023   8.621   5.240   3.031 -0.3377  0.0276  1.2792
  304MOL0     C40024   8.647   5.261   3.170 -0.5034  0.8232  0.3389
  304MOL0     C40025   8.555   5.328   3.260 -0.3895 -0.1045 -0.0797
  304MOL0     O40026   8.594   5.351   3.386 -0.6021  0.0652 -0.0978
  304MOL0     C40027   8.539   5.433   3.479 -0.1554  0.0568  0.8753
  304MOL0     C40028   8.593   5.429   3.612  1.0036  0.1042 -0.5206
  304MOL0     C40029   8.556   5.523   3.708 -0.0018  0.1149  0.6430
  304MOL0     C40030   8.460   5.613   3.680 -0.6203 -0.1972  0.4680
  304MOL0     O40031   8.430   5.718   3.767  0.6786  1.0897  0.2095
  304MOL0     C40032   8.372   5.694   3.892 -0.0313  0.4413  0.2598
  304MOL0     C40033   8.231   5.649   3.888  0.2598 -0.6183 -0.3531
  304MOL0     C40034   8.139   5.768   3.862 -0.0316 -0.5526  0.0768
  304MOL0     C40035   7.982   5.742   3.868 -1.0599  0.3511 -0.1733
  304MOL0     C40036   7.899   5.868   3.829 -0.0682 -0.5175 -0.4488
  304MOL0     C40037   7.747   5.840   3.833 -0.2199 -0.4425  0.2478
  304MOL0     C40038   7.671   5.970   3.846 -0.4655 -0.3900 -0.4016
  304MOL0     C40039   7.536   5.971   3.774 -1.0303 -0.4900  0.8181
  304MOL0    Cl40040   7.440   6.109   3.802  0.1847 -0.3787  0.1086
  304MOL0     C40041   8.399   5.622   3.558 -0.7773 -0.8170 -0.0532
  304MOL0     C40042   8.443   5.531   3.455  0.3469  0.4146 -0.3746
  304MOL0     O40043   8.453   5.378   3.208  0.7153  1.1140 -0.1678
  304MOL0     C40044   8.771   5.232   3.211  0.2812 -0.2678 -0.9160
  304MOL0     C40045   8.876   5.177   3.136  0.1666  0.3699 -0.8882
  304MOL0     N40046   9.306   5.485   3.023 -0.0428  0.5577  0.3854
  304MOL0     N40047   9.376   5.544   3.107 -0.0255  0.3900  0.0326
  304MOL0     C40048   9.840   5.301   2.368 -0.3361 -0.9421  0.5470
  304MOL0     C40049   9.772   5.187   2.357 -0.7844  0.5626 -0.6061
  304MOL0     C40050   9.440   4.909   2.231 -0.2572  0.8781 -0.1958
  304MOL0     C40051   9.338   4.894   2.329 -0.4026  0.3188 -0.2899
  304MOL0     C40052   9.238   4.798   2.323 -0.4847 -0.2556 -0.0044
  304MOL0     C40053   9.238   4.707   2.216 -0.0017 -0.5212  0.1699
  304MOL0     O40054   9.136   4.610   2.213 -0.2506 -0.1011 -0.3668
  304MOL0     C40055   9.184   4.485   2.264  0.0794 -0.3701 -0.0259
  304MOL0     C40056   9.071   4.412   2.326 -0.0513  0.8967 -0.4392
  304MOL0     C40057   9.133   4.302   2.408 -0.0768 -0.3537 -0.5130
  304MOL0     C40058   9.055   4.171   2.451 -0.9622 -0.7576 -0.0280
  304MOL0     C40059   9.125   4.043   2.445  0.0723 -0.3233  0.0867
  304MOL0     C40060   9.176   3.938   2.443 -0.5464 -0.6518 -0.7429
  304MOL0     C40061   9.334   4.718   2.120  0.0524  0.4437 -0.1752
  304MOL0     C40062   9.444   4.810   2.120 -0.4894 -0.0000  0.2390
  304MOL0     H40063   9.453   5.298   2.397 -0.6405 -2.0680 -1.1551
  304MOL0     H40064   9.580   5.523   2.394 -1.0916 -0.3367 -1.0040
  304MOL0     H40065   9.953   5.634   2.521 -3.1106  3.7787 -0.4470
  304MOL0     H40066   9.895   5.469   2.576  3.1715  0.8639  0.1635
  304MOL0     H40067   9.688   5.556   2.635 -0.1021 -1.3755  0.4909
  304MOL0     H40068   9.704   5.685   2.519  4.0608  1.2918 -1.1507
  304MOL0     H40069   9.717   5.774   2.742 -0.6233  0.1260 -0.8889
  304MOL0     H40070   9.875   5.800   2.657  1.7503 -1.2655 -1.0600
  304MOL0     H40071   9.844   5.532   2.808  0.4069 -0.8796  1.5594
  304MOL0     H40072   9.979   5.638   2.774  0.0270 -1.9298  0.7659
  304MOL0     H40073   9.870   5.824   2.922 -0.7714 -0.1049 -0.9723
  304MOL0     H40074   9.936   5.695   3.009 -0.1097  1.7337  2.3729
  304MOL0     H40075   9.638   5.683   2.960  1.2291 -1.6008 -2.5270
  304MOL0     H40076   9.729   5.760   3.094 -1.0568  0.0131  1.7428
  304MOL0     H40077   9.774   5.455   3.024  0.5112 -1.5741  2.9755
  304MOL0     H40078   9.837   5.555   3.147  0.2401 -2.3964  0.7658
  304MOL0     H40079   9.606   5.616   3.221  2.0858  0.0189  1.1799
  304MOL0     H40080   9.642   5.450   3.254 -1.2128  2.3729  2.9822
  304MOL0     H40081   9.574   5.359   2.918 -0.6758 -2.8254  1.9031
  304MOL0     H40082   9.383   5.318   2.744 -0.6757  1.3754  0.4282
  304MOL0     H40083   9.227   5.383   2.789  1.2192  1.4420 -1.3909
  304MOL0     H40084   9.354   5.136   2.876  0.0567  2.4822  0.3434
  304MOL0     H40085   9.219   5.145   2.754  2.8704  2.6257 -3.3426
  304MOL0     H40086   9.227   5.137   3.052 -0.8304  0.0002  0.7151
  304MOL0     H40087   9.113   5.260   3.003 -0.6785 -1.1822  1.2198
  304MOL0     H40088   9.044   5.004   3.034  0.9112 -0.7513 -0.5617
  304MOL0     H40089   9.105   4.979   2.882  1.0680  0.1059  1.2960
  304MOL0     H40090   8.715   5.181   2.840 -0.9010 -0.4910  0.1688
  304MOL0     H40091   8.524   5.279   3.000 -0.6860 -0.0536  2.2178
  304MOL0     H40092   8.673   5.359   3.634  1.8951  1.1171 -0.3802
  304MOL0     H40093   8.611   5.528   3.802 -2.0500  0.2015  1.9208
  304MOL0     H40094   8.397   5.781   3.955 -1.2032  0.1029  1.2365
  304MOL0     H40095   8.421   5.614   3.948 -1.2076  0.8741  1.9747
  304MOL0     H40096   8.207   5.611   3.989  1.1231  0.8605  0.4313
  304MOL0     H40097   8.219   5.567   3.816 -0.1472 -1.8831  1.0861
  304MOL0     H40098   8.147   5.813   3.763  0.5791  5.1150  2.2682
  304MOL0     H40099   8.160   5.854   3.927  0.4609  0.9007 -1.9316
  304MOL0     H40100   7.954   5.664   3.796  0.4971  0.0525 -0.5108
  304MOL0     H40101   7.954   5.709   3.968  0.8958  0.9589  0.6309
  304MOL0     H40102   7.918   5.910   3.729 -3.8230 -0.5005 -1.3169
  304MOL0     H40103   7.927   5.946   3.900 -1.2355 -0.1142 -0.4045
  304MOL0     H40104   7.729   5.776   3.920  3.1566  0.8430  2.0399
  304MOL0     H40105   7.727   5.786   3.739 -2.7881  0.9327 -0.1007
  304MOL0     H40106   7.649   5.995   3.950 -2.9209 -0.2077 -0.8934
  304MOL0     H40107   7.732   6.051   3.805 -1.3484 -0.3678 -1.7656
  304MOL0     H40108   7.484   5.881   3.808 -1.1358 -1.2061 -1.1101
  304MOL0     H40109   7.555   5.962   3.667 -2.3713 -0.3314  0.5533
  304MOL0     H40110   8.323   5.696   3.534 -1.1976 -1.7062 -1.6526
  304MOL0     H40111   8.384   5.546   3.365 -0.6033 -0.1851  0.1232
  304MOL0     H40112   8.799   5.266   3.310 -0.7812  1.6509 -1.2319
  304MOL0     H40113   8.971   5.154   3.185  0.6305  1.9885 -0.9743
  304MOL0     H40114   9.948   5.311   2.375 -0.4789  0.6730  1.0173
  304MOL0     H40115   9.817   5.090   2.340 -0.7773  0.8127 -2.1057
  304MOL0     H40116   9.332   4.972   2.404  0.3887  0.5491 -0.4541
  304MOL0     H40117   9.157   4.795   2.395  2.0963  0.6422  3.1914
  304MOL0     H40118   9.272   4.504   2.327  0.9172  0.7262 -1.4507
  304MOL0     H40119   9.218   4.426   2.178 -4.0631 -1.4083 -1.1486
  304MOL0     H40120   9.008   4.479   2.386  0.4705  0.3292  0.7569
  304MOL0     H40121   9.004   4.364   2.254  0.4557 -0.2866 -0.1367
  304MOL0     H40122   9.158   4.351   2.502 -2.6083  0.2680 -0.1035
  304MOL0     H40123   9.229   4.269   2.365  0.6262 -0.8989  1.3785
  304MOL0     H40124   9.028   4.177   2.557 -1.2704  1.0957 -0.1735
  304MOL0     H40125   8.972   4.150   2.383  0.2427  0.3519 -1.9214
  304MOL0     H40126   9.241   3.854   2.457  1.2997  1.1169  3.0191
  304MOL0     H40127   9.330   4.643   2.042  0.4715  0.7434 -0.4896
  304MOL0     H40128   9.516   4.816   2.039 -2.9374 -1.6505 -2.2386
  305MOL0     O40129   1.445   1.123   8.956 -0.2033 -0.1571 -0.0513
  305MOL0     C40130   1.443   1.002   8.950  0.9847  0.7034  0.5769
  305MOL0     O40131   1.551   0.913   8.972 -0.0753 -0.9066  0.1282
  305MOL0     C40132   1.679   0.949   9.003  0.6423 -0.0423  0.0540
  305MOL0     C40133   1.728   1.065   9.071 -0.3205 -0.1314 -0.0357
  305MOL0     C40134   1.869   1.081   9.097 -0.2254  0.0735  0.1151
  305MOL0     C40135   1.956   0.975   9.070 -0.0842  0.3118 -0.4201
  305MOL0     O40136   2.089   0.998   9.112  0.2294  0.5563  0.1430
  305MOL0     C40137   2.175   0.888   9.094  0.2975  0.6403 -0.2465
  305MOL0     C40138   2.297   0.928   9.172 -0.7090  0.5525  0.3493
  305MOL0     C40139   2.366   0.799   9.222  0.4056 -0.2207  0.8176
  305MOL0     C40140   2.489   0.825   9.313  0.3944 -0.6269 -0.2924
  305MOL0     C40141   2.613   0.842   9.224 -0.2928  0.5942  0.1121
  305MOL0     C40142   2.731   0.877   9.320 -0.3273  0.1344  0.3965
  305MOL0     C40143   2.864   0.865   9.249 -0.3317 -0.3072  0.8217
  305MOL0     C40144   2.976   0.881   9.353 -0.8710 -0.3540 -0.1787
  305MOL0     N40145   3.116   0.857   9.308 -0.3671 -0.1704 -0.8578
  305MOL0     C40146   3.186   0.927   9.208 -0.4637  0.4369 -0.7238
  305MOL0     C40147   3.281   0.844   9.170 -0.0939 -0.4263 -0.8482
  305MOL0     C40148   3.370   0.867   9.056 -0.2817  0.3098  0.7623
  305MOL0     C40149   3.515   0.893   9.100  0.5263  0.0381 -0.5438
  305MOL0     C40150   3.580   0.768   9.155 -0.3225  0.3220 -0.5566
  305MOL0     C40151   3.719   0.810   9.201 -0.0090 -0.8032 -0.7076
  305MOL0     O40152   3.775   0.704   9.275  0.0393  0.8027 -0.3667
  305MOL0     C40153   3.894   0.723   9.338 -0.5266  0.6348  0.2788
  305MOL0     C40154   3.973   0.840   9.348  0.0694  0.7974  0.7654
  305MOL0     C40155   4.100   0.838   9.415 -0.4456  0.2923 -0.1502
  305MOL0     C40156   4.161   0.716   9.454  0.2520  1.0126  0.1150
  305MOL0     C40157   4.290   0.704   9.514 -0.8920 -0.6512  0.5368
  305MOL0     O40158   4.366   0.814   9.555 -0.2894 -0.3878  0.1447
  305MOL0     C40159   4.477   0.800   9.625 -0.5102 -0.0254  0.6641
  305MOL0     C40160   4.476   0.822   9.762 -0.2339 -0.6267 -0.0803
  305MOL0     C40161   4.601   0.826   9.831 -0.1848 -0.4863  0.3228
  305MOL0     C40162   4.723   0.804   9.759 -0.5047 -0.3179 -0.8837
  305MOL0     O40163   4.829   0.819   9.844 -0.9326 -0.2900 -0.1701
  305MOL0     C40164   4.951   0.771   9.795  0.4168  0.3885  0.2604
  305MOL0     C40165   5.010   0.903   9.724  0.6466  0.1140  0.0823
  305MOL0     C40166   5.135   0.876   9.626  0.8582 -0.5192  0.1339
  305MOL0     C40167   5.210   1.006   9.586  0.6463 -0.5460  0.1790
  305MOL0     C40168   5.309   1.000   9.464  0.0107  0.7602 -0.2042
  305MOL0     C40169   5.375   1.141   9.454  0.7022  1.5686 -0.3393
  305MOL0     C40170   5.482   1.136   9.337 -0.6973  0.0658  0.5827
  305MOL0     C40171   5.505   1.275   9.284 -0.4686 -0.3713  0.1182
  305MOL0    Cl40172   5.635   1.265   9.161  0.0171 -0.0693  0.4124
  305MOL0     C40173   4.717   0.782   9.627  0.3272  0.0395  0.4537
  305MOL0     C40174   4.593   0.780   9.560 -0.7333  0.0392  0.3862
  305MOL0     O40175   4.332   0.589   9.521  0.0728 -0.1713 -0.1040
  305MOL0     C40176   4.081   0.597   9.445  0.2365 -0.3656 -0.5744
  305MOL0     C40177   3.947   0.609   9.391  0.3721  0.0917 -0.4300
  305MOL0     N40178   3.272   0.742   9.263 -1.2441 -0.0220  0.5802
  305MOL0     N40179   3.173   0.743   9.339  0.2254 -0.1759 -0.5675
  305MOL0     C40180   1.902   0.861   9.002 -0.6701  0.0748 -0.4464
  305MOL0     C40181   1.772   0.853   8.962  0.5390  0.6033 -1.0409
  305MOL0     C40182   1.309   0.935   8.939 -0.5999 -0.2746 -0.1114
  305MOL0     C40183   1.192   1.000   8.950 -0.1448  0.4071  0.9954
  305MOL0     C40184   1.070   0.941   8.944 -0.2243  0.6925 -0.3184
  305MOL0     C40185   1.056   0.801   8.930 -0.1908  0.1159  0.2656
  305MOL0     O40186   0.944   0.726   8.933 -0.1628  0.2061  0.0603
  305MOL0     C40187   0.818   0.785   8.915 -0.2836  0.5045 -0.4169
  305MOL0     C40188   0.719   0.675   8.949 -0.8251 -0.0935  0.1281
  305MOL0     C40189   0.698   0.636   9.102 -0.3426  0.5900  0.2919
  305MOL0     C40190   0.836   0.616   9.169  1.0253 -0.4660 -0.0165
  305MOL0     C40191   0.818   0.538   9.293 -0.2732  0.1741  0.1427
  305MOL0     C40192   0.787   0.460   9.377  0.3730 -0.0238  0.7611
  305MOL0     C40193   1.179   0.726   8.930 -0.6683 -0.1233  0.1048
  305MOL0     C40194   1.307   0.791   8.935  0.1680  0.0182 -0.8097
  305MOL0     H40195   1.668   1.151   9.099 -0.1450 -0.4537  1.4228
  305MOL0     H40196   1.914   1.168   9.143  1.8604  0.2871 -2.1211
  305MOL0     H40197   2.185   0.873   8.986 -1.6309 -1.9639 -0.1634
  305MOL0     H40198   2.147   0.786   9.122  2.3823  0.1900  0.3113
  305MOL0     H40199   2.260   0.990   9.254 -3.7091 -0.9794  0.2814
  305MOL0     H40200   2.362   0.991   9.111  0.7853 -2.9916 -2.0360
  305MOL0     H40201   2.391   0.757   9.124  2.0080  0.2995  0.9756
  305MOL0     H40202   2.303   0.732   9.282 -2.0617  0.0305 -1.3125
  305MOL0     H40203   2.475   0.910   9.380  0.4047 -2.0218  1.5459
  305MOL0     H40204   2.508   0.745   9.385  0.9407  0.1631  0.4695
  305MOL0     H40205   2.607   0.920   9.149 -1.4062  0.0799 -0.3455
  305MOL0     H40206   2.623   0.751   9.165 -1.8254 -0.2007  1.0213
  305MOL0     H40207   2.737   0.828   9.417  2.1825  0.3167  0.4151
  305MOL0     H40208   2.726   0.982   9.350 -1.5542 -0.1179  1.1142
  305MOL0     H40209   2.867   0.775   9.187 -1.1088 -1.1929  2.0269
  305MOL0     H40210   2.890   0.941   9.174  2.0893 -1.1097  0.7717
  305MOL0     H40211   2.951   0.803   9.425 -1.7106 -4.1821 -4.1682
  305MOL0     H40212   2.976   0.982   9.395  0.5572 -0.4526  0.1224
  305MOL0     H40213   3.170   1.031   9.182  0.1043  0.8223  0.3955
  305MOL0     H40214   3.334   0.948   8.992 -1.2964 -2.5169 -2.5715
  305MOL0     H40215   3.372   0.784   8.984 -0.9442 -0.0820  1.1949
  305MOL0     H40216   3.517   0.976   9.170  1.5406 -1.8001  1.7704
  305MOL0     H40217   3.567   0.923   9.008 -1.0621 -1.1200 -1.8663
  305MOL0     H40218   3.519   0.743   9.242 -0.2309  2.5162  0.1820
  305MOL0     H40219   3.606   0.690   9.082  1.9880  0.1501  0.3562
  305MOL0     H40220   3.697   0.885   9.277  3.2704 -0.5308  0.1343
  305MOL0     H40221   3.775   0.840   9.112 -0.8966  3.3978 -0.0257
  305MOL0     H40222   3.927   0.929   9.308 -1.9153 -1.5329 -2.7474
  305MOL0     H40223   4.157   0.927   9.436 -1.3900  0.9414 -0.2779
  305MOL0     H40224   4.384   0.861   9.804 -0.4603 -1.5553  0.2995
  305MOL0     H40225   4.605   0.852   9.936  0.4059 -1.7243  0.6302
  305MOL0     H40226   4.937   0.683   9.731 -0.7838 -1.0893  2.4140
  305MOL0     H40227   5.023   0.739   9.872 -0.3568 -2.4573 -0.0743
  305MOL0     H40228   5.041   0.978   9.796 -0.9050  0.3344  0.5572
  305MOL0     H40229   4.936   0.949   9.658  2.1359  1.3428 -0.7916
  305MOL0     H40230   5.109   0.840   9.526  2.8124 -0.0223 -0.6065
  305MOL0     H40231   5.208   0.805   9.667 -1.4743 -1.5688  2.8180
  305MOL0     H40232   5.140   1.085   9.559  1.5447  0.1450 -0.1535
  305MOL0     H40233   5.271   1.055   9.662  0.0005  2.0471 -0.8566
  305MOL0     H40234   5.263   0.970   9.370 -0.8521 -1.9663  0.9875
  305MOL0     H40235   5.387   0.928   9.492  1.3816  2.3612  0.3129
  305MOL0     H40236   5.409   1.172   9.553 -2.0984  2.1873  0.5043
  305MOL0     H40237   5.298   1.212   9.422  1.6367  2.1903 -1.2974
  305MOL0     H40238   5.574   1.096   9.380 -1.4829 -1.3552  0.9973
  305MOL0     H40239   5.450   1.064   9.261 -1.6632  0.5379  0.5180
  305MOL0     H40240   5.540   1.337   9.367 -3.0859  1.4809 -0.0187
  305MOL0     H40241   5.416   1.328   9.249  0.2394  0.5631 -0.2960
  305MOL0     H40242   4.803   0.777   9.561  0.7328 -0.4968  1.0052
  305MOL0     H40243   4.601   0.786   9.451 -0.6118  3.2802  0.4795
  305MOL0     H40244   4.100   0.497   9.481  0.7499 -0.3817 -0.8737
  305MOL0     H40245   3.894   0.517   9.371  1.3653 -0.5722 -0.0992
  305MOL0     H40246   1.956   0.770   8.975 -0.5597  0.0552 -0.1654
  305MOL0     H40247   1.745   0.759   8.915 -0.1917 -0.3185  1.1046
  305MOL0     H40248   1.202   1.108   8.958  1.3188  0.5645 -1.7470
  305MOL0     H40249   0.987   1.009   8.927 -3.4831 -2.4956  1.4443
  305MOL0     H40250   0.802   0.814   8.811 -0.2498 -0.0879 -0.5908
  305MOL0     H40251   0.803   0.867   8.986  0.8596 -0.1771  0.6576
  305MOL0     H40252   0.623   0.709   8.909 -0.5877  0.9123  0.3797
  305MOL0     H40253   0.767   0.592   8.896  1.1656  1.7772 -1.1867
  305MOL0     H40254   0.644   0.541   9.109 -0.8768  1.0282  3.5619
  305MOL0     H40255   0.638   0.711   9.154 -1.5204 -0.2180  0.1277
  305MOL0     H40256   0.906   0.557   9.110 -0.4262  0.3180 -2.7155
  305MOL0     H40257   0.871   0.719   9.182  1.4150 -0.7545  1.4269
  305MOL0     H40258   0.739   0.396   9.449 -1.4154  0.3217 -0.0705
  305MOL0     H40259   1.163   0.619   8.919 -1.9601 -0.4734  4.0502
  305MOL0     H40260   1.399   0.735   8.926  0.3053 -0.4305  2.2514
  306MOL0     O40261  10.633  10.601  10.231 -0.5841 -0.5335 -0.3549
  306MOL0     C40262  10.515  10.620  10.210  0.3851  0.3178 -0.1301
  306MOL0     O40263  10.446  10.614  10.090 -0.7934 -0.3431 -0.2535
  306MOL0     C40264  10.538  10.614   9.983 -1.0605 -0.0129  0.0432
  306MOL0     C40265  10.580  10.735   9.931 -0.1402 -0.3281 -0.2990
  306MOL0     C40266  10.652  10.726   9.808 -0.6622 -0.0158  0.6685
  306MOL0     C40267  10.699  10.605   9.760 -0.1371  1.1723 -0.1480
  306MOL0     O40268  10.769  10.608   9.644 -0.7911 -0.8084  0.1057
  306MOL0     C40269  10.887  10.527   9.614  0.1067 -0.5676 -0.3911
  306MOL0     C40270  10.990  10.591   9.512  0.4936  0.4222 -0.5488
  306MOL0     C40271  10.928  10.635   9.386 -0.1589 -0.6008 -0.2851
  306MOL0     C40272  10.856  10.530   9.293  0.0428  0.1070 -0.8546
  306MOL0     C40273  10.942  10.412   9.247  0.7317 -0.2479 -0.2041
  306MOL0     C40274  10.854  10.320   9.169 -0.0027  0.7267 -0.1997
  306MOL0     C40275  10.920  10.188   9.130 -0.7543 -0.7484 -0.5829
  306MOL0     C40276  10.829  10.085   9.066  0.2438 -1.0635 -0.3936
  306MOL0     N40277  10.744  10.012   9.155  0.3721 -0.0078 -0.6418
  306MOL0     C40278  10.765   9.878   9.190 -0.0995  0.4667  0.5640
  306MOL0     C40279  10.654   9.834   9.258 -1.0804  0.0860 -0.9577
  306MOL0     C40280  10.634   9.694   9.303  0.7054  1.1738  0.6056
  306MOL0     C40281  10.563   9.693   9.447  0.5372  0.4815  0.1081
  306MOL0     C40282  10.534   9.547   9.487  0.1622  0.3415 -0.0067
  306MOL0     C40283  10.421   9.538   9.585  0.6584  0.0397  0.0119
  306MOL0     O40284  10.478   9.553   9.716 -0.5479  0.1773 -0.0326
  306MOL0     C40285  10.403   9.508   9.824 -0.4027 -0.7296 -0.6503
  306MOL0     C40286  10.278   9.455   9.812 -0.8200 -0.7261  0.4499
  306MOL0     C40287  10.202   9.407   9.925 -0.9317 -0.2537 -0.5220
  306MOL0     C40288  10.262   9.435  10.047  0.2264  0.3170 -1.2364
  306MOL0     C40289  10.193   9.393  10.174  0.3694  0.2096  0.2647
  306MOL0     O40290  10.265   9.402  10.286  0.2596  0.6034  0.5588
  306MOL0     C40291  10.201   9.401  10.402 -0.3621 -0.2568 -0.6364
  306MOL0     C40292  10.111   9.302  10.441 -0.3819  0.2255  0.6929
  306MOL0     C40293  10.055   9.303  10.571  0.1034 -0.4627  0.1361
  306MOL0     C40294  10.085   9.404  10.670  0.8024  0.1484  0.0097
  306MOL0     O40295  10.034   9.412  10.799 -0.4000  0.1698 -0.0478
  306MOL0     C40296  10.004   9.536  10.855 -0.1885 -0.0662 -0.5134
  306MOL0     C40297   9.937   9.517  10.994  0.5780  0.3412  0.0120
  306MOL0     C40298  10.027   9.428  11.097  0.1607 -0.4822 -0.2596
  306MOL0     C40299  10.129   9.519  11.158  0.1464  0.2704  0.1035
  306MOL0     C40300  10.239   9.437  11.216 -0.8536  0.3764 -0.8699
  306MOL0     C40301  10.321   9.348  11.121  1.1663  0.3465 -0.3956
  306MOL0     C40302  10.402   9.423  11.018 -0.1110  0.2149 -0.8767
  306MOL0     C40303  10.507   9.352  10.935  0.0558  0.3038  0.0406
  306MOL0    Cl40304  10.618   9.472  10.859 -0.4064 -0.0794 -0.1330
  306MOL0     C40305  10.183   9.491  10.629 -0.5099 -0.5042  1.5381
  306MOL0     C40306  10.237   9.493  10.498  0.4814 -0.8466 -0.3931
  306MOL0     O40307  10.073   9.360  10.166  0.3370  0.7748  0.2608
  306MOL0     C40308  10.388   9.495  10.060  0.1994 -0.5935 -1.1866
  306MOL0     C40309  10.462   9.529   9.947  1.3006  0.5388 -0.4360
  306MOL0     N40310  10.566   9.946   9.263  0.4526  0.2706  0.1196
  306MOL0     N40311  10.625  10.045   9.203  0.9765  0.2993 -0.7184
  306MOL0     C40312  10.655  10.486   9.825  0.7242 -0.2830  0.1753
  306MOL0     C40313  10.576  10.492   9.939 -0.9004 -0.1186 -0.4474
  306MOL0     C40314  10.434  10.632  10.333 -0.4051 -0.4233 -0.0557
  306MOL0     C40315  10.505  10.634  10.465  0.3060  0.6048  0.7342
  306MOL0     C40316  10.427  10.640  10.583 -0.4949 -0.2237  0.2092
  306MOL0     C40317  10.281  10.639  10.573 -0.0412 -0.0817 -0.5307
  306MOL0     O40318  10.215  10.641  10.693 -0.1282  0.4080  0.3417
  306MOL0     C40319  10.089  10.563  10.702 -0.2007  0.0948 -1.0519
  306MOL0     C40320  10.056  10.521  10.851  0.0673  0.5225  0.3223
  306MOL0     C40321  10.164  10.432  10.916  0.4641 -0.3363 -1.1549
  306MOL0     C40322  10.135  10.407  11.063  0.4286 -0.0246  0.8164
  306MOL0     C40323  10.019  10.313  11.073  0.8827 -0.6306  0.1228
  306MOL0     C40324   9.915  10.251  11.068  0.8391  0.1367 -0.0641
  306MOL0     C40325  10.222  10.638  10.445  0.8405  0.1400 -0.3545
  306MOL0     C40326  10.297  10.636  10.326  0.0001  0.4171 -0.2070
  306MOL0     H40327  10.568  10.833   9.976  2.0006 -1.0520  2.0771
  306MOL0     H40328  10.670  10.820   9.757  1.1711 -2.5267 -3.9812
  306MOL0     H40329  10.849  10.433   9.574  3.7154 -2.5137  0.2973
  306MOL0     H40330  10.938  10.506   9.708 -2.5011  2.8537  2.0353
  306MOL0     H40331  11.063  10.516   9.479 -0.8421 -0.6716 -1.1234
  306MOL0     H40332  11.049  10.669   9.560  0.4376 -0.7533  1.5642
  306MOL0     H40333  11.000  10.704   9.340 -0.4857  1.0926  1.6054
  306MOL0     H40334  10.849  10.703   9.420  0.6211  0.5274 -0.6494
  306MOL0     H40335  10.772  10.497   9.355  0.0022  0.8817 -0.4802
  306MOL0     H40336  10.812  10.582   9.208  1.6620 -1.8786 -3.0537
  306MOL0     H40337  10.997  10.379   9.335 -1.0361  1.6599  1.7134
  306MOL0     H40338  11.018  10.449   9.177 -0.0035  1.0093 -0.3858
  306MOL0     H40339  10.819  10.377   9.082  0.3542 -0.7058 -1.3155
  306MOL0     H40340  10.767  10.292   9.229  0.2894 -2.8558 -1.2231
  306MOL0     H40341  11.005  10.222   9.072  0.3474 -2.9972 -0.4140
  306MOL0     H40342  10.966  10.136   9.214 -0.6174 -1.2258 -0.9476
  306MOL0     H40343  10.895  10.016   9.014  2.3959 -0.7609  1.7875
  306MOL0     H40344  10.769  10.137   8.990  0.9941  0.4757  0.0297
  306MOL0     H40345  10.859   9.828   9.168  0.1815  1.9696 -2.1216
  306MOL0     H40346  10.733   9.650   9.310  0.1803 -0.2555 -0.6129
  306MOL0     H40347  10.573   9.637   9.232 -1.1537  0.8276  2.3609
  306MOL0     H40348  10.472   9.748   9.422  0.3418 -1.4349 -4.2074
  306MOL0     H40349  10.617   9.745   9.527 -1.4010 -1.3342  2.7490
  306MOL0     H40350  10.519   9.478   9.403  0.3880 -1.6645  1.5474
  306MOL0     H40351  10.619   9.506   9.542 -1.6469 -4.2815 -0.2064
  306MOL0     H40352  10.378   9.439   9.569  0.9932  0.0379 -0.9692
  306MOL0     H40353  10.345   9.616   9.570 -1.0482 -1.8656 -1.8152
  306MOL0     H40354  10.228   9.441   9.717  0.6748  1.3428 -0.7181
  306MOL0     H40355  10.103   9.362   9.920 -1.5847  0.8366  1.3183
  306MOL0     H40356  10.107   9.216  10.374  1.0943 -0.1413  1.0423
  306MOL0     H40357   9.991   9.221  10.602 -1.5266  0.7353  0.0535
  306MOL0     H40358   9.945   9.602  10.790 -0.2387 -0.1132 -0.5158
  306MOL0     H40359  10.094   9.597  10.870 -0.6683  0.6991 -0.6373
  306MOL0     H40360   9.840   9.467  10.979 -0.3118  1.5641  1.3737
  306MOL0     H40361   9.913   9.614  11.037  0.1742  0.7763 -1.1324
  306MOL0     H40362  10.065   9.336  11.053 -1.7069 -1.6384  0.4046
  306MOL0     H40363   9.956   9.382  11.166 -1.1761 -0.6509 -1.6992
  306MOL0     H40364  10.172   9.564  11.068  0.0902  1.8015  0.8125
  306MOL0     H40365  10.090   9.588  11.232 -0.8380  1.0027 -1.0598
  306MOL0     H40366  10.192   9.380  11.296  0.9482  2.6151  2.0016
  306MOL0     H40367  10.319   9.496  11.263  0.9363 -0.8891 -2.1590
  306MOL0     H40368  10.255   9.279  11.066 -0.8134  3.4129 -2.1410
  306MOL0     H40369  10.387   9.290  11.187 -1.8340 -1.2013  1.5191
  306MOL0     H40370  10.332   9.470  10.948  0.5618  1.0319 -1.0196
  306MOL0     H40371  10.457   9.504  11.067  4.0934 -2.1041 -1.2104
  306MOL0     H40372  10.451   9.302  10.856 -0.5884  1.8294 -0.4910
  306MOL0     H40373  10.558   9.271  10.989  1.0873 -2.4749 -4.4943
  306MOL0     H40374  10.214   9.571  10.696 -1.5271  1.0702  0.2191
  306MOL0     H40375  10.294   9.583  10.477 -0.8754  0.5500  1.5498
  306MOL0     H40376  10.422   9.528  10.158 -0.4418 -0.4662 -1.0029
  306MOL0     H40377  10.548   9.595   9.951 -0.3417  2.7359  2.1873
  306MOL0     H40378  10.697  10.392   9.791  1.0502  0.5659 -1.9022
  306MOL0     H40379  10.538  10.404   9.991 -0.3890  0.2213  0.5280
  306MOL0     H40380  10.614  10.631  10.465  0.2888 -0.8951  1.1807
  306MOL0     H40381  10.478  10.636  10.679 -3.6472  0.3148  2.0374
  306MOL0     H40382  10.104  10.474  10.640  1.0669 -1.2959  1.1174
  306MOL0     H40383  10.013  10.623  10.651 -1.9357 -0.5228  0.7048
  306MOL0     H40384  10.020  10.609  10.905 -2.7775 -0.2601 -0.1107
  306MOL0     H40385   9.972  10.451  10.855 -0.7370  1.5347  2.8743
  306MOL0     H40386  10.261  10.483  10.911  1.6702 -2.4484 -0.3543
  306MOL0     H40387  10.164  10.335  10.866  0.1630 -2.5217  2.6620
  306MOL0     H40388  10.224  10.362  11.109  1.7119  4.0587  2.7629
  306MOL0     H40389  10.107  10.497  11.118 -1.5967  2.3482 -3.5518
  306MOL0     H40390   9.822  10.199  11.061  0.7713  0.4417 -2.2295
  306MOL0     H40391  10.115  10.647  10.427  0.4788 -2.3640  0.2309
  306MOL0     H40392  10.239  10.631  10.234 -0.9263  0.4562  0.3580
  307MOL0     O40393   6.895   5.154   0.836  0.5008  0.5271  0.0213
  307MOL0     C40394   7.013   5.128   0.836  0.2445 -0.2615  0.3847
  307MOL0     O40395   7.061   5.013   0.869  0.5722 -0.4927 -0.7829
  307MOL0     C40396   6.985   4.912   0.900  0.3723  0.0423  0.3082
  307MOL0     C40397   6.909   4.913   1.014  0.9769 -0.5979 -0.4521
  307MOL0     C40398   6.829   4.803   1.042 -0.8552  0.0858  0.2016
  307MOL0     C40399   6.841   4.679   0.966 -0.2297  0.5435  0.0528
  307MOL0     O40400   6.780   4.566   1.015 -0.4697  0.0719 -0.4245
  307MOL0     C40401   6.830   4.430   0.991 -0.3214 -0.7722 -0.1340
  307MOL0     C40402   6.763   4.322   1.071 -0.3092 -0.1430  0.5630
  307MOL0     C40403   6.781   4.327   1.220 -0.7672 -0.8728  0.6597
  307MOL0     C40404   6.748   4.456   1.292  0.3936  0.5051  0.6969
  307MOL0     C40405   6.606   4.507   1.273 -0.4852  0.6476  0.5379
  307MOL0     C40406   6.564   4.601   1.398  0.2372 -0.3954 -0.6069
  307MOL0     C40407   6.421   4.631   1.426 -0.2821  0.8671 -0.1361
  307MOL0     C40408   6.341   4.507   1.462 -0.8598  0.4838 -0.4484
  307MOL0     N40409   6.211   4.537   1.516 -0.7474  0.0429 -0.5405
  307MOL0     C40410   6.176   4.532   1.646  0.4462  0.1008 -0.7299
  307MOL0     C40411   6.046   4.548   1.647  0.9592 -0.0236  0.4784
  307MOL0     C40412   5.949   4.569   1.756  0.8770  0.2455  0.2077
  307MOL0     C40413   5.904   4.443   1.829 -0.3227 -0.3841 -0.5271
  307MOL0     C40414   5.840   4.325   1.750  0.8520  0.0772 -0.3135
  307MOL0     C40415   5.842   4.215   1.856  0.5604 -0.3975 -0.7821
  307MOL0     O40416   5.839   4.098   1.783  0.0666  0.3094 -0.0675
  307MOL0     C40417   5.962   4.027   1.766  0.3360  0.1323  0.1949
  307MOL0     C40418   5.952   3.888   1.753 -0.6106 -0.1696  0.5294
  307MOL0     C40419   6.075   3.821   1.752  0.0922  0.5029 -0.6752
  307MOL0     C40420   6.202   3.870   1.759 -0.3107 -0.8579  0.2129
  307MOL0     C40421   6.322   3.785   1.743 -0.5844  0.9652  0.5798
  307MOL0     O40422   6.437   3.834   1.799 -0.6371 -0.4256  0.1692
  307MOL0     C40423   6.554   3.763   1.783  0.2419  0.3298 -0.1659
  307MOL0     C40424   6.632   3.759   1.906  0.6262  1.1344 -0.3805
  307MOL0     C40425   6.761   3.738   1.907 -0.6858  0.0735 -0.0731
  307MOL0     C40426   6.833   3.716   1.794  0.2281 -0.7661  0.5246
  307MOL0     O40427   6.968   3.704   1.813  0.3709  0.2867  0.7078
  307MOL0     C40428   7.050   3.686   1.692 -0.5865 -0.5546  0.3754
  307MOL0     C40429   7.202   3.681   1.727  0.2649  0.0217 -0.0282
  307MOL0     C40430   7.272   3.645   1.596 -1.0437  0.6811  0.0741
  307MOL0     C40431   7.428   3.619   1.625  0.4893  0.0433 -0.1311
  307MOL0     C40432   7.475   3.518   1.511 -0.1916 -0.0534 -1.1455
  307MOL0     C40433   7.624   3.515   1.509  0.2486  0.5538 -0.1486
  307MOL0     C40434   7.679   3.621   1.424 -0.1691 -0.2259 -0.0170
  307MOL0     C40435   7.827   3.594   1.402 -0.6776 -0.6551  0.1484
  307MOL0    Cl40436   7.903   3.579   1.567 -0.6642  0.0883  0.0722
  307MOL0     C40437   6.758   3.709   1.667 -0.2989 -0.5575 -0.5741
  307MOL0     C40438   6.616   3.731   1.673  0.6058 -0.6742 -0.5186
  307MOL0     O40439   6.313   3.674   1.685  0.9784 -0.2154  0.4023
  307MOL0     C40440   6.212   4.012   1.767 -0.3288  0.7927 -0.0083
  307MOL0     C40441   6.095   4.084   1.771 -0.2533  0.1571 -0.0445
  307MOL0     N40442   5.999   4.560   1.525 -0.2970  0.4519  1.1843
  307MOL0     N40443   6.101   4.547   1.442  0.0983  0.2176  0.5274
  307MOL0     C40444   6.938   4.679   0.863  1.1686  0.3635 -0.2858
  307MOL0     C40445   7.006   4.798   0.826 -0.6347  1.0017  1.1222
  307MOL0     C40446   7.103   5.236   0.794 -0.0332  0.4732  0.2277
  307MOL0     C40447   7.078   5.373   0.803 -0.4786  0.6757  0.5111
  307MOL0     C40448   7.176   5.461   0.758  0.2520 -0.9716 -0.1926
  307MOL0     C40449   7.303   5.420   0.710  0.7771  0.6819 -0.4292
  307MOL0     O40450   7.382   5.522   0.669  0.2339 -0.2433  0.6555
  307MOL0     C40451   7.509   5.504   0.599 -0.1007  0.3898 -0.5178
  307MOL0     C40452   7.629   5.508   0.701  0.0104 -0.2236  0.0056
  307MOL0     C40453   7.626   5.632   0.801 -0.3371 -0.3667  0.4207
  307MOL0     C40454   7.615   5.588   0.947 -0.1824 -0.3595  0.8934
  307MOL0     C40455   7.724   5.506   0.990  0.4831 -0.4544  0.2219
  307MOL0     C40456   7.805   5.429   1.012 -0.2421 -0.0156  0.8448
  307MOL0     C40457   7.330   5.286   0.702  0.0683  0.2123  0.7062
  307MOL0     C40458   7.227   5.193   0.729 -1.1251 -0.0135 -0.7217
  307MOL0     H40459   6.913   5.004   1.072  0.4251  0.4600 -2.0075
  307MOL0     H40460   6.768   4.802   1.132 -1.9009 -5.7495 -0.1622
  307MOL0     H40461   6.933   4.414   1.024 -0.5568 -1.2677  0.3835
  307MOL0     H40462   6.811   4.413   0.885 -0.8158  4.2660 -1.1117
  307MOL0     H40463   6.793   4.224   1.031 -0.5974 -0.3396  0.8247
  307MOL0     H40464   6.657   4.319   1.044  0.1394 -1.7562 -1.3559
  307MOL0     H40465   6.887   4.300   1.231 -0.5670 -0.9721 -1.1542
  307MOL0     H40466   6.728   4.241   1.261  0.2869 -0.7207  2.4436
  307MOL0     H40467   6.762   4.443   1.399  1.2529  0.0457  0.5397
  307MOL0     H40468   6.821   4.530   1.257 -0.4327  0.2371 -1.7860
  307MOL0     H40469   6.531   4.427   1.276 -0.9321  1.0656  0.6353
  307MOL0     H40470   6.600   4.557   1.176  0.5710  2.1275  1.1991
  307MOL0     H40471   6.618   4.695   1.386  1.5204 -1.3600 -2.9811
  307MOL0     H40472   6.614   4.560   1.487  2.8081 -0.9039 -2.1681
  307MOL0     H40473   6.423   4.697   1.513  1.8097  1.1437 -0.3532
  307MOL0     H40474   6.370   4.684   1.345 -1.2972 -1.9646 -1.4976
  307MOL0     H40475   6.406   4.455   1.533  1.6751  3.2590 -0.5596
  307MOL0     H40476   6.318   4.447   1.374  2.4406  0.3112 -1.3270
  307MOL0     H40477   6.233   4.514   1.737 -0.4458 -3.9818 -0.7696
  307MOL0     H40478   5.859   4.618   1.717  1.1937  0.3460 -0.4086
  307MOL0     H40479   6.006   4.632   1.825  0.1153  0.9079  0.2451
  307MOL0     H40480   5.828   4.461   1.905 -0.2703  0.7312 -0.7288
  307MOL0     H40481   6.003   4.413   1.867  1.9787  0.0687 -5.3743
  307MOL0     H40482   5.738   4.346   1.717  0.2107 -2.5074 -0.1788
  307MOL0     H40483   5.900   4.304   1.661 -1.1410  1.3018 -2.0481
  307MOL0     H40484   5.766   4.210   1.935  0.4904  1.9861 -0.6279
  307MOL0     H40485   5.934   4.225   1.914 -1.1782  2.3831  1.7918
  307MOL0     H40486   5.859   3.834   1.736 -0.4300  0.4252 -2.9117
  307MOL0     H40487   6.063   3.713   1.749 -3.8911  0.8024 -0.1831
  307MOL0     H40488   6.579   3.799   1.992  0.7644  1.0303 -0.2482
  307MOL0     H40489   6.808   3.738   2.005 -2.6657  0.3562  0.9434
  307MOL0     H40490   7.032   3.763   1.616 -0.5447  0.9240  1.8204
  307MOL0     H40491   7.022   3.592   1.642 -2.0770 -1.0338  2.0272
  307MOL0     H40492   7.207   3.608   1.809 -1.5536  0.4077  0.4856
  307MOL0     H40493   7.237   3.778   1.762 -0.3138  0.0805  0.3983
  307MOL0     H40494   7.274   3.723   1.519 -0.8614 -0.7434 -1.4273
  307MOL0     H40495   7.220   3.562   1.547 -2.4063  0.7746  1.2924
  307MOL0     H40496   7.493   3.706   1.641  1.1685 -0.0672 -1.9450
  307MOL0     H40497   7.445   3.568   1.720  2.4711  0.8026 -0.0246
  307MOL0     H40498   7.439   3.530   1.409  2.6299 -0.9673 -2.3625
  307MOL0     H40499   7.434   3.424   1.550  1.1877 -0.1184  0.2697
  307MOL0     H40500   7.647   3.413   1.474 -0.6014  0.6199 -0.9577
  307MOL0     H40501   7.657   3.528   1.612 -4.0348  1.1636  1.3613
  307MOL0     H40502   7.635   3.610   1.325 -0.5843  1.1173  0.0000
  307MOL0     H40503   7.673   3.718   1.474 -0.8286 -0.2822  0.0167
  307MOL0     H40504   7.880   3.665   1.338  0.0011 -1.3275 -0.0580
  307MOL0     H40505   7.845   3.500   1.348  1.9511  1.2796 -2.6519
  307MOL0     H40506   6.807   3.689   1.572 -0.9624  0.2051 -1.0952
  307MOL0     H40507   6.580   3.746   1.572  1.5308 -2.7112 -1.2184
  307MOL0     H40508   6.298   4.076   1.785 -1.4962  1.9034  2.0412
  307MOL0     H40509   6.126   4.188   1.781  1.1647 -0.0919 -1.5409
  307MOL0     H40510   6.946   4.588   0.803  1.3978  2.7137 -4.1895
  307MOL0     H40511   7.068   4.804   0.737  0.2638  1.7314  1.7762
  307MOL0     H40512   6.983   5.409   0.841 -1.9983 -3.4839  1.1958
  307MOL0     H40513   7.151   5.565   0.772  0.2781 -1.1811  1.5905
  307MOL0     H40514   7.525   5.589   0.532 -0.0439 -1.1062 -2.4501
  307MOL0     H40515   7.498   5.415   0.538 -0.4554 -0.0343  0.1501
  307MOL0     H40516   7.643   5.413   0.754 -1.5186 -0.2412  0.4309
  307MOL0     H40517   7.725   5.507   0.650 -0.2009  0.8106 -0.4320
  307MOL0     H40518   7.538   5.694   0.782 -0.6919 -1.3140 -1.2072
  307MOL0     H40519   7.720   5.688   0.805 -1.3607  1.4465  4.3887
  307MOL0     H40520   7.604   5.662   1.026  1.5113 -0.8705  1.6557
  307MOL0     H40521   7.522   5.531   0.954 -0.5803  0.1970  0.2297
  307MOL0     H40522   7.898   5.379   1.033 -0.0438  0.3759  0.9197
  307MOL0     H40523   7.423   5.242   0.669 -0.8749 -0.4982 -1.2102
  307MOL0     H40524   7.255   5.089   0.730  0.7238  0.4565 -0.3108
  308MOL0     O40525   6.178   3.884  11.346 -0.1616 -0.7341  0.0113
  308MOL0     C40526   6.244   3.889  11.240 -0.4736  0.1202 -0.2060
  308MOL0     O40527   6.201   3.845  11.123 -1.1258 -0.0187 -0.3995
  308MOL0     C40528   6.068   3.841  11.098  0.5007  0.5795 -0.3284
  308MOL0     C40529   5.979   3.932  11.157 -0.5822  0.7745 -0.8315
  308MOL0     C40530   5.848   3.943  11.116 -0.6008 -0.9981  0.2275
  308MOL0     C40531   5.802   3.858  11.015  0.4825  0.4004  0.2372
  308MOL0     O40532   5.668   3.857  10.968 -0.1102  0.0295 -0.5269
  308MOL0     C40533   5.603   3.985  10.961 -0.2422 -0.1759  0.3868
  308MOL0     C40534   5.476   3.961  10.888  0.4236  0.1680 -0.2797
  308MOL0     C40535   5.365   3.881  10.972 -1.0832  0.0920  0.9878
  308MOL0     C40536   5.314   3.958  11.098  0.0301  0.3035  0.4413
  308MOL0     C40537   5.188   3.889  11.159  0.4143  0.1116  0.6405
  308MOL0     C40538   5.132   3.983  11.264 -0.9410  1.0610 -0.3093
  308MOL0     C40539   5.016   3.921  11.332  0.0508  0.4733  0.2807
  308MOL0     C40540   4.895   3.909  11.241 -0.1894  0.6062  0.3731
  308MOL0     N40541   4.762   3.883  11.301 -0.5101  0.3862 -0.1430
  308MOL0     C40542   4.708   3.963  11.389  0.6713  0.0094  0.6773
  308MOL0     C40543   4.597   3.902  11.417 -0.1704 -0.4964  0.1421
  308MOL0     C40544   4.498   3.931  11.536 -0.6125 -0.3987  0.2824
  308MOL0     C40545   4.400   3.811  11.561  1.1330 -0.1021  0.8491
  308MOL0     C40546   4.282   3.852  11.647 -0.4249 -0.2228  0.6872
  308MOL0     C40547   4.321   3.850  11.794  0.1939 -0.3253 -0.1376
  308MOL0     O40548   4.215   3.915  11.865  0.4568  0.7755 -0.0473
  308MOL0     C40549   4.169   3.852  11.980  0.4740  0.8282  0.2031
  308MOL0     C40550   4.034   3.827  11.991 -0.0981  0.7793 -1.1373
  308MOL0     C40551   3.985   3.767  12.111 -0.5770  0.3164  0.5974
  308MOL0     C40552   4.078   3.743  12.218 -0.2396  0.1810 -0.9218
  308MOL0     C40553   4.028   3.700  12.347 -0.5312 -0.3801 -0.7929
  308MOL0     O40554   4.109   3.742  12.453  0.4166 -0.5394  0.1207
  308MOL0     C40555   4.073   3.729  12.584  0.7354  1.1684 -0.0159
  308MOL0     C40556   4.174   3.683  12.673 -0.1691 -0.0092 -0.5759
  308MOL0     C40557   4.146   3.663  12.807  0.2721 -0.1260  0.2680
  308MOL0     C40558   4.019   3.698  12.852  0.9682 -0.7427 -0.5136
  308MOL0     O40559   4.008   3.704  12.989 -0.8018 -0.5131  0.1013
  308MOL0     C40560   3.887   3.711  13.066  0.6591 -0.2184 -0.0657
  308MOL0     C40561   3.819   3.578  13.055 -0.6455  0.3325  0.0804
  308MOL0     C40562   3.702   3.568  13.163  0.0699 -0.1029 -0.0815
  308MOL0     C40563   3.642   3.430  13.158 -0.1595  0.4876  0.0640
  308MOL0     C40564   3.546   3.395  13.272 -0.6203 -0.1669 -0.1132
  308MOL0     C40565   3.421   3.484  13.298  0.2178 -0.1316  0.3424
  308MOL0     C40566   3.370   3.435  13.431 -0.1512 -0.0335 -0.0290
  308MOL0     C40567   3.227   3.500  13.458 -0.7193 -0.0883 -0.5725
  308MOL0    Cl40568   3.155   3.438  13.597 -0.1451  0.5391 -0.9654
  308MOL0     C40569   3.916   3.741  12.770 -0.2176  0.6193  0.3444
  308MOL0     C40570   3.947   3.750  12.633  0.3456  0.6142 -0.4949
  308MOL0     O40571   3.927   3.646  12.363 -0.2076  0.3141  0.2388
  308MOL0     C40572   4.212   3.752  12.197 -0.1441 -0.5454  0.7282
  308MOL0     C40573   4.253   3.805  12.074 -0.9592 -0.5897  0.5587
  308MOL0     N40574   4.570   3.808  11.322 -0.1816  0.3993  0.0733
  308MOL0     N40575   4.677   3.789  11.250  0.0645 -0.8699 -0.9243
  308MOL0     C40576   5.886   3.761  10.960  0.2551  0.0410 -0.4594
  308MOL0     C40577   6.018   3.751  11.004 -0.0651 -0.2462 -0.4380
  308MOL0     C40578   6.374   3.933  11.253  0.0483 -1.3308  0.1998
  308MOL0     C40579   6.448   3.968  11.136 -0.2238 -0.0666 -0.7944
  308MOL0     C40580   6.570   4.034  11.140 -0.5498 -0.2275  0.2885
  308MOL0     C40581   6.632   4.074  11.261  0.5162  0.2246  0.0189
  308MOL0     O40582   6.756   4.145  11.271 -0.1744  0.2466  0.8671
  308MOL0     C40583   6.775   4.256  11.171 -0.1951 -0.3669  0.5222
  308MOL0     C40584   6.913   4.323  11.180 -0.2666 -0.2486  0.4917
  308MOL0     C40585   6.928   4.430  11.067  0.3311 -0.6557  0.4227
  308MOL0     C40586   7.051   4.513  11.099 -0.4460  0.8784  0.7114
  308MOL0     C40587   7.100   4.607  10.994  0.3704 -0.4816  0.9135
  308MOL0     C40588   7.128   4.675  10.902  1.0654  0.2551 -0.0288
  308MOL0     C40589   6.562   4.034  11.378 -0.7812  0.5862 -0.1520
  308MOL0     C40590   6.435   3.963  11.375 -0.4996 -0.1842  0.7461
  308MOL0     H40591   6.027   4.000  11.226 -0.6729 -0.4721  0.5097
  308MOL0     H40592   5.787   4.024  11.153 -0.0421 -0.6576  0.4234
  308MOL0     H40593   5.677   4.050  10.912  1.7070 -3.1414 -0.9298
  308MOL0     H40594   5.579   4.035  11.056  4.1327  0.3972  1.4099
  308MOL0     H40595   5.486   3.902  10.796 -1.5414 -1.4734  0.5014
  308MOL0     H40596   5.440   4.061  10.862  0.8289  0.6542  0.9584
  308MOL0     H40597   5.391   3.779  11.002  2.8246  0.4681 -0.6246
  308MOL0     H40598   5.284   3.877  10.899  0.7729  0.0638 -1.1659
  308MOL0     H40599   5.398   3.966  11.168  2.2958  0.4028 -2.1182
  308MOL0     H40600   5.294   4.063  11.074 -1.0862  0.5487  2.2146
  308MOL0     H40601   5.225   3.791  11.191  0.6602  0.0114  0.0542
  308MOL0     H40602   5.121   3.874  11.075  1.1053  2.4815 -0.4307
  308MOL0     H40603   5.097   4.070  11.208 -0.1108  1.8479  0.3696
  308MOL0     H40604   5.209   4.012  11.336  1.1454  1.0514 -2.3991
  308MOL0     H40605   5.038   3.822  11.374 -2.9386  0.0483  1.0919
  308MOL0     H40606   4.994   3.988  11.415 -3.3929  0.8300 -0.7609
  308MOL0     H40607   4.925   3.821  11.183  0.7685  2.1131 -1.5086
  308MOL0     H40608   4.891   3.985  11.163  2.4908 -0.3526 -0.8226
  308MOL0     H40609   4.754   4.041  11.449  3.3302 -0.4743 -0.5880
  308MOL0     H40610   4.449   4.026  11.515 -0.1090 -0.6208 -2.1958
  308MOL0     H40611   4.550   3.947  11.631 -4.2251  3.1718  1.9964
  308MOL0     H40612   4.446   3.725  11.610 -1.2481 -3.1470 -1.8081
  308MOL0     H40613   4.355   3.779  11.466 -3.4838  1.0058  2.4075
  308MOL0     H40614   4.248   3.952  11.617 -1.8380 -1.2772 -1.5550
  308MOL0     H40615   4.193   3.792  11.630  0.0787 -0.8584  0.2337
  308MOL0     H40616   4.424   3.880  11.813  0.7115 -1.2281 -1.3379
  308MOL0     H40617   4.325   3.742  11.815 -1.8301 -0.0368  2.2076
  308MOL0     H40618   3.967   3.853  11.910 -0.8338  1.4459 -0.3284
  308MOL0     H40619   3.877   3.753  12.117 -1.1300  2.8346 -1.5054
  308MOL0     H40620   4.267   3.666  12.620 -0.1974 -2.5052  0.0614
  308MOL0     H40621   4.213   3.620  12.880 -2.5079 -0.3859  2.8406
  308MOL0     H40622   3.822   3.794  13.037  0.2557 -0.1615  0.9459
  308MOL0     H40623   3.911   3.722  13.173  0.7455  2.8724 -0.3081
  308MOL0     H40624   3.899   3.505  13.071  0.0777  1.2253  0.6435
  308MOL0     H40625   3.772   3.561  12.958 -0.1925 -0.4891 -0.0061
  308MOL0     H40626   3.620   3.636  13.138  2.5387  2.8760 -0.6642
  308MOL0     H40627   3.738   3.586  13.264 -0.7676 -1.7729  0.5453
  308MOL0     H40628   3.590   3.418  13.062  0.6646  0.3644 -0.3768
  308MOL0     H40629   3.724   3.358  13.164  1.4204  2.3481  3.3949
  308MOL0     H40630   3.611   3.403  13.359 -1.6785 -0.0675  0.6924
  308MOL0     H40631   3.515   3.291  13.257  3.6074 -1.8191  1.0400
  308MOL0     H40632   3.343   3.457  13.226 -0.6341  0.4909  1.0120
  308MOL0     H40633   3.458   3.587  13.295  0.2378 -0.1504 -0.3830
  308MOL0     H40634   3.351   3.328  13.422  1.1390 -0.3280  0.5015
  308MOL0     H40635   3.442   3.458  13.510  0.2051 -3.3026  0.7387
  308MOL0     H40636   3.168   3.494  13.366 -2.2527 -1.0337  0.4306
  308MOL0     H40637   3.233   3.609  13.464 -1.5570  0.1711 -3.1635
  308MOL0     H40638   3.820   3.764  12.815  0.2976 -0.0182  1.8107
  308MOL0     H40639   3.876   3.803  12.570 -3.9938 -0.0068  3.3138
  308MOL0     H40640   4.289   3.736  12.272  0.9061 -3.0558 -0.7538
  308MOL0     H40641   4.359   3.830  12.077 -0.9982 -0.4948  2.0900
  308MOL0     H40642   5.850   3.687  10.889  0.4584  0.8879 -1.4649
  308MOL0     H40643   6.076   3.670  10.960  4.0562  2.9428 -1.5364
  308MOL0     H40644   6.407   3.942  11.039 -2.8000  1.0643 -0.0938
  308MOL0     H40645   6.620   4.054  11.045  1.7051 -1.5084  1.1153
  308MOL0     H40646   6.694   4.323  11.200 -0.8593 -1.0027  0.1750
  308MOL0     H40647   6.766   4.228  11.066  2.3713  0.1355  0.1069
  308MOL0     H40648   6.932   4.365  11.279  4.9777 -1.0641  0.1108
  308MOL0     H40649   6.988   4.244  11.166 -1.5244 -1.7425  1.7905
  308MOL0     H40650   6.835   4.488  11.061  0.2956 -0.8096 -0.9567
  308MOL0     H40651   6.944   4.377  10.973  0.4554  0.2587 -0.0793
  308MOL0     H40652   7.036   4.585  11.180 -1.5593 -0.0422  1.3662
  308MOL0     H40653   7.131   4.446  11.131 -1.8171  1.5280  6.7042
  308MOL0     H40654   7.157   4.751  10.832 -2.0319 -0.4911 -2.3421
  308MOL0     H40655   6.615   4.072  11.465  0.7630 -3.5036  0.9066
  308MOL0     H40656   6.391   3.944  11.472 -0.0340  0.6631  1.1306
  309MOL0     O40657   2.592   4.011   8.183  0.5062  0.5789 -0.0857
  309MOL0     C40658   2.515   4.048   8.095  0.5955  0.2784 -0.6423
  309MOL0     O40659   2.546   4.126   7.995  0.2516 -0.6648  1.0746
  309MOL0     C40660   2.670   4.182   7.993 -0.0091  0.2272  1.1652
  309MOL0     C40661   2.697   4.318   8.035  0.6763  0.1758 -0.3569
  309MOL0     C40662   2.822   4.362   8.039  0.0595 -0.4939 -0.6887
  309MOL0     C40663   2.934   4.303   7.982  0.0953  0.5271 -0.6020
  309MOL0     O40664   3.059   4.365   7.971  0.0914  0.5957 -0.1973
  309MOL0     C40665   3.167   4.294   8.034  0.0640  0.6972  0.2846
  309MOL0     C40666   3.253   4.204   7.944  0.5583  0.3056  0.9601
  309MOL0     C40667   3.276   4.247   7.796  0.3032 -0.5534 -0.7261
  309MOL0     C40668   3.325   4.126   7.715  0.7425 -0.0816 -0.0480
  309MOL0     C40669   3.355   4.135   7.562 -0.1468 -0.6301  0.8671
  309MOL0     C40670   3.457   4.235   7.523 -0.0314 -0.3491 -0.0878
  309MOL0     C40671   3.499   4.205   7.374 -0.2980 -0.9753  0.0672
  309MOL0     C40672   3.634   4.263   7.335  0.5357  0.3450  0.0438
  309MOL0     N40673   3.687   4.211   7.215 -0.2318  0.0055 -0.1234
  309MOL0     C40674   3.751   4.091   7.204  0.1139  0.7308 -0.8063
  309MOL0     C40675   3.754   4.062   7.067  0.8526 -1.0477 -0.0110
  309MOL0     C40676   3.808   3.929   7.010  0.5426  0.3856  0.8267
  309MOL0     C40677   3.704   3.854   6.929  0.5388 -0.6334  0.4182
  309MOL0     C40678   3.779   3.759   6.828 -0.9311 -0.6998  0.5753
  309MOL0     C40679   3.689   3.729   6.712 -0.3605  0.2280 -0.1336
  309MOL0     O40680   3.588   3.640   6.760  0.3989 -0.4264  0.4410
  309MOL0     C40681   3.463   3.630   6.698  0.3154 -0.5392  1.4485
  309MOL0     C40682   3.424   3.690   6.585 -0.6719 -0.6602  0.1365
  309MOL0     C40683   3.297   3.674   6.536  0.4486  0.7501  0.6123
  309MOL0     C40684   3.206   3.592   6.595  0.4681 -0.2789 -0.4749
  309MOL0     C40685   3.079   3.559   6.533  0.4784  0.7864  1.0160
  309MOL0     O40686   3.069   3.592   6.403  0.2896  0.1193  0.4471
  309MOL0     C40687   2.956   3.547   6.339 -0.4806 -0.2163  0.8993
  309MOL0     C40688   2.913   3.405   6.332 -0.0626  0.1604  0.1100
  309MOL0     C40689   2.817   3.364   6.230 -0.5127 -0.1731 -1.1678
  309MOL0     C40690   2.766   3.466   6.143 -0.1472 -0.1188 -0.4756
  309MOL0     O40691   2.690   3.438   6.029  0.4672  0.2383 -0.0711
  309MOL0     C40692   2.726   3.318   5.959 -0.4920  0.2850  0.1546
  309MOL0     C40693   2.687   3.334   5.809  0.5710 -0.1944 -0.4852
  309MOL0     C40694   2.543   3.301   5.801  0.3906  0.0079 -0.2419
  309MOL0     C40695   2.511   3.149   5.799  1.0297  0.4269  0.8609
  309MOL0     C40696   2.359   3.121   5.838 -0.2506 -1.1777 -0.6873
  309MOL0     C40697   2.325   2.980   5.813  0.0071  0.0385 -0.2718
  309MOL0     C40698   2.236   2.950   5.689  0.7029 -0.1879 -0.2132
  309MOL0     C40699   2.168   2.819   5.699 -0.1411 -0.4761  0.2973
  309MOL0    Cl40700   2.289   2.687   5.712 -0.2731 -1.2259  0.1975
  309MOL0     C40701   2.790   3.595   6.167  0.5667 -0.7469  0.6672
  309MOL0     C40702   2.891   3.633   6.258  0.7495 -0.7128  0.6129
  309MOL0     O40703   2.990   3.505   6.607 -0.1400 -0.1908  0.0209
  309MOL0     C40704   3.247   3.513   6.710 -0.3248  0.3389 -0.2973
  309MOL0     C40705   3.377   3.538   6.758 -0.3385  0.4136  1.2905
  309MOL0     N40706   3.694   4.170   7.003  0.2326  0.7867  0.3700
  309MOL0     N40707   3.668   4.265   7.087 -0.5381  0.5764 -0.2921
  309MOL0     C40708   2.907   4.164   7.938 -0.4371 -0.3076 -1.1745
  309MOL0     C40709   2.778   4.101   7.936 -0.0175  0.0256 -0.4551
  309MOL0     C40710   2.369   4.028   8.115  0.2688  0.8041 -0.0971
  309MOL0     C40711   2.281   4.087   8.031 -0.4640 -0.5154 -0.2131
  309MOL0     C40712   2.147   4.078   8.055 -0.3006 -0.1968  0.3708
  309MOL0     C40713   2.087   3.994   8.150 -0.4818 -0.5965 -0.1644
  309MOL0     O40714   1.947   4.001   8.163 -0.4709  0.0786  0.0012
  309MOL0     C40715   1.889   3.937   8.276  0.3611 -0.0456  0.4021
  309MOL0     C40716   1.878   3.785   8.247  0.5874 -0.7487  0.7283
  309MOL0     C40717   1.799   3.759   8.124 -0.1138 -0.2197  0.2234
  309MOL0     C40718   1.648   3.779   8.148  0.1943  0.5841  0.4787
  309MOL0     C40719   1.581   3.740   8.020 -0.5696  0.0406 -0.7609
  309MOL0     C40720   1.524   3.693   7.927  0.4967  0.3022  0.6307
  309MOL0     C40721   2.180   3.929   8.241 -0.3703  0.0568  0.5705
  309MOL0     C40722   2.322   3.960   8.222  0.4656  0.8049  1.1357
  309MOL0     H40723   2.619   4.374   8.085  0.8304  0.2484 -0.2014
  309MOL0     H40724   2.842   4.453   8.094 -2.3069 -1.1609  1.4556
  309MOL0     H40725   3.130   4.235   8.118 -2.2548 -2.6870 -2.7758
  309MOL0     H40726   3.248   4.356   8.073  1.1470 -0.1155 -0.5988
  309MOL0     H40727   3.197   4.111   7.936  0.5229  0.5048 -2.7640
  309MOL0     H40728   3.338   4.175   8.006 -0.5091 -1.0091  1.8618
  309MOL0     H40729   3.356   4.320   7.782 -0.8244  0.6586 -1.0756
  309MOL0     H40730   3.178   4.279   7.758 -0.3371  2.1826  2.7829
  309MOL0     H40731   3.425   4.110   7.758  1.1819 -0.6533 -1.2488
  309MOL0     H40732   3.257   4.046   7.747 -0.5154  1.6518  1.8413
  309MOL0     H40733   3.265   4.171   7.512  1.0514  1.1611 -0.0817
  309MOL0     H40734   3.388   4.035   7.530 -0.0536 -1.1296  2.4334
  309MOL0     H40735   3.547   4.232   7.585 -0.1762 -1.8907  0.0883
  309MOL0     H40736   3.412   4.334   7.537 -0.9486 -1.1131  3.0081
  309MOL0     H40737   3.505   4.098   7.353  1.2906 -0.8476 -0.2384
  309MOL0     H40738   3.437   4.254   7.298  3.1017 -0.5536 -2.6547
  309MOL0     H40739   3.689   4.236   7.426 -0.5957  0.4875  0.7918
  309MOL0     H40740   3.625   4.372   7.332 -1.7605  0.3247  2.4168
  309MOL0     H40741   3.780   4.029   7.288 -1.6732  0.6200 -0.2242
  309MOL0     H40742   3.827   3.862   7.094  1.8018 -1.7245 -1.0348
  309MOL0     H40743   3.890   3.936   6.938 -1.8148 -1.5558 -2.3099
  309MOL0     H40744   3.632   3.918   6.877 -0.6647 -5.0983 -4.3161
  309MOL0     H40745   3.645   3.787   6.992 -2.9917 -0.0131 -1.8746
  309MOL0     H40746   3.875   3.790   6.786 -2.6785  0.6815 -2.7538
  309MOL0     H40747   3.788   3.671   6.892  1.9731 -0.8712  0.0650
  309MOL0     H40748   3.749   3.679   6.636 -1.2599 -2.1280  0.6006
  309MOL0     H40749   3.641   3.824   6.687 -0.2011  0.1958 -0.5588
  309MOL0     H40750   3.483   3.755   6.521 -1.6609 -0.4807 -0.6138
  309MOL0     H40751   3.271   3.706   6.436 -0.6012  0.3841  0.7496
  309MOL0     H40752   2.963   3.323   6.382 -1.5871 -0.5925  0.4597
  309MOL0     H40753   2.798   3.258   6.220  1.3330 -0.7608  0.8579
  309MOL0     H40754   2.675   3.231   6.001  0.1795 -0.0504  0.2797
  309MOL0     H40755   2.831   3.294   5.975 -0.3333  0.0289 -1.1899
  309MOL0     H40756   2.743   3.257   5.754  1.4816  0.4069 -0.4092
  309MOL0     H40757   2.715   3.432   5.770  1.4541  0.2874  1.3068
  309MOL0     H40758   2.507   3.343   5.707 -0.1731 -0.1662 -0.1033
  309MOL0     H40759   2.487   3.356   5.877 -1.3229  0.7747 -1.9874
  309MOL0     H40760   2.519   3.104   5.700  0.4681  1.4228  0.3440
  309MOL0     H40761   2.573   3.092   5.867  0.8545  0.5201  1.1005
  309MOL0     H40762   2.290   3.181   5.776  0.7956  1.0598  0.2025
  309MOL0     H40763   2.346   3.148   5.943 -2.3483 -2.6173 -0.5211
  309MOL0     H40764   2.266   2.960   5.903 -1.2874  2.0693 -0.6127
  309MOL0     H40765   2.419   2.924   5.807  0.2289  0.4894 -1.0568
  309MOL0     H40766   2.149   3.015   5.682 -0.8752 -2.0794  0.9211
  309MOL0     H40767   2.303   2.968   5.604  1.2894 -2.8028 -0.3672
  309MOL0     H40768   2.107   2.812   5.608 -0.2577 -0.1064  0.3462
  309MOL0     H40769   2.095   2.824   5.780  2.1078 -0.0357  2.3893
  309MOL0     H40770   2.735   3.669   6.110  1.7217 -1.1776 -1.0951
  309MOL0     H40771   2.902   3.739   6.277  1.9844 -0.7203  0.0612
  309MOL0     H40772   3.192   3.440   6.768 -0.4395  0.9775  0.4115
  309MOL0     H40773   3.406   3.492   6.851  0.8220 -0.6902  0.4209
  309MOL0     H40774   2.999   4.123   7.896  1.6982  1.7407  1.1513
  309MOL0     H40775   2.761   4.002   7.895  0.8785 -1.8076  3.1876
  309MOL0     H40776   2.309   4.141   7.941 -0.1096  0.1517  0.2904
  309MOL0     H40777   2.094   4.123   7.971  2.0858  0.1550 -1.0207
  309MOL0     H40778   1.790   3.974   8.305  0.4391 -2.2942  4.2586
  309MOL0     H40779   1.950   3.953   8.366 -0.5622  1.3522  0.8086
  309MOL0     H40780   1.975   3.736   8.231  0.2807 -1.1935  0.1604
  309MOL0     H40781   1.835   3.729   8.330 -2.6806 -1.7030 -1.4010
  309MOL0     H40782   1.816   3.655   8.094  0.0045 -0.0599 -0.2777
  309MOL0     H40783   1.833   3.827   8.045 -1.3617  3.8212  2.8748
  309MOL0     H40784   1.615   3.709   8.225  1.9611 -0.9406 -0.0679
  309MOL0     H40785   1.615   3.877   8.182  0.9148  0.6700  0.9609
  309MOL0     H40786   1.479   3.640   7.845 -1.7568 -0.7566  2.4387
  309MOL0     H40787   2.160   3.875   8.332 -0.2698  1.1871  1.2829
  309MOL0     H40788   2.396   3.908   8.282 -0.5032  0.9703  2.5167
  310MOL0     O40789   1.675   9.179   5.910  0.2570 -0.2548  0.7556
  310MOL0     C40790   1.665   9.285   5.967 -0.9631  0.2703  0.4713
  310MOL0     O40791   1.543   9.347   5.993  0.1541  0.3204 -0.1529
  310MOL0     C40792   1.432   9.274   5.970 -0.3301  0.6100 -0.3176
  310MOL0     C40793   1.403   9.160   6.051 -0.0894 -1.0100  0.1202
  310MOL0     C40794   1.293   9.085   6.025  0.4309 -0.1220 -0.0282
  310MOL0     C40795   1.209   9.112   5.921 -1.0555 -0.3357  0.7140
  310MOL0     O40796   1.120   9.013   5.894 -0.5404  0.3247  0.4070
  310MOL0     C40797   1.121   8.972   5.757 -0.5767  0.5057  0.1983
  310MOL0     C40798   1.041   8.846   5.770  1.9243  0.2194  0.3553
  310MOL0     C40799   0.988   8.804   5.633 -0.1246  0.2469 -0.3374
  310MOL0     C40800   0.944   8.658   5.626  0.5453  0.0107 -0.8401
  310MOL0     C40801   0.811   8.647   5.697  0.7649 -0.0175  0.5021
  310MOL0     C40802   0.712   8.540   5.658  0.5802  0.0923 -0.5842
  310MOL0     C40803   0.784   8.406   5.651 -0.2944  0.9996  1.1897
  310MOL0     C40804   0.676   8.307   5.614  0.7461 -0.4377  0.6087
  310MOL0     N40805   0.718   8.168   5.594 -0.1655  0.0345 -0.7601
  310MOL0     C40806   0.771   8.083   5.688 -0.1635 -0.3661  0.7137
  310MOL0     C40807   0.779   7.967   5.636  0.6263 -0.4117  0.0456
  310MOL0     C40808   0.810   7.846   5.717  0.1971  0.1186  0.5683
  310MOL0     C40809   0.949   7.849   5.783  0.0388  0.1675  0.1877
  310MOL0     C40810   0.944   7.913   5.923 -0.9828 -0.3160 -0.1162
  310MOL0     C40811   1.078   7.899   6.005  0.7957 -0.3207 -0.9556
  310MOL0     O40812   1.173   7.985   5.933 -0.4573 -0.2924 -1.1011
  310MOL0     C40813   1.308   7.987   5.958  0.0467 -0.2995 -0.2081
  310MOL0     C40814   1.372   7.888   6.042  0.3827 -0.3232  0.5923
  310MOL0     C40815   1.504   7.890   6.064 -1.2516 -1.1387 -0.0012
  310MOL0     C40816   1.584   8.009   6.031 -0.2123 -0.7639  0.4133
  310MOL0     C40817   1.725   8.030   6.075 -0.4855  0.1052  0.0494
  310MOL0     O40818   1.783   8.150   6.057 -0.0290 -0.1708  0.7191
  310MOL0     C40819   1.913   8.169   6.103  0.7303 -0.1058  1.0439
  310MOL0     C40820   1.933   8.266   6.192  0.3454 -0.1616  0.0494
  310MOL0     C40821   2.058   8.281   6.260 -0.3077  0.2416  0.4240
  310MOL0     C40822   2.166   8.196   6.232 -0.0705 -0.0383 -1.1100
  310MOL0     O40823   2.280   8.225   6.290 -0.4453 -0.6443  0.2997
  310MOL0     C40824   2.397   8.231   6.204 -0.1600 -0.2881  0.6096
  310MOL0     C40825   2.404   8.373   6.147 -0.0944  0.9447  0.2017
  310MOL0     C40826   2.502   8.405   6.042  0.2349 -0.3727  0.0804
  310MOL0     C40827   2.632   8.336   6.065  0.9246  0.2777  0.0325
  310MOL0     C40828   2.734   8.411   6.001 -1.1936 -0.7090  0.8902
  310MOL0     C40829   2.867   8.344   6.029 -0.0465  0.2766  0.5571
  310MOL0     C40830   2.980   8.398   5.934 -0.3875  0.8569  0.6130
  310MOL0     C40831   3.025   8.539   5.988  0.1251  1.4517  0.9115
  310MOL0    Cl40832   3.142   8.514   6.120  0.2101  0.3716  0.0782
  310MOL0     C40833   2.139   8.098   6.132  0.4648 -0.6933 -0.5916
  310MOL0     C40834   2.019   8.091   6.064 -0.1905  0.5667 -0.0526
  310MOL0     O40835   1.775   7.928   6.114  0.1080 -0.3644  0.4213
  310MOL0     C40836   1.511   8.113   5.969  0.5565  0.2479  0.2192
  310MOL0     C40837   1.382   8.100   5.925  0.2816 -0.5302  0.5493
  310MOL0     N40838   0.728   7.967   5.507 -0.3601 -0.4603  0.0349
  310MOL0     N40839   0.688   8.088   5.487 -0.4270 -0.6313 -0.1694
  310MOL0     C40840   1.235   9.230   5.847 -0.0876  0.2637  0.1895
  310MOL0     C40841   1.350   9.306   5.865 -0.2750 -0.0401 -0.4897
  310MOL0     C40842   1.791   9.355   6.015  0.4070  0.5271 -1.1425
  310MOL0     C40843   1.919   9.322   5.970  0.4611  0.0796  0.6070
  310MOL0     C40844   2.025   9.402   6.004  0.7507 -0.1124 -0.0843
  310MOL0     C40845   2.012   9.521   6.082  0.0855  0.2531  0.3570
  310MOL0     O40846   2.112   9.615   6.107 -0.1291 -0.0765 -0.4596
  310MOL0     C40847   2.237   9.554   6.150  0.3087 -0.3748 -0.5436
  310MOL0     C40848   2.335   9.655   6.196  0.1449  0.0611  0.1073
  310MOL0     C40849   2.279   9.739   6.313  1.1812  0.2607  0.6058
  310MOL0     C40850   2.383   9.823   6.383  0.4783 -0.3726  0.2244
  310MOL0     C40851   2.455   9.920   6.301  0.8490 -0.6439 -0.6291
  310MOL0     C40852   2.514   9.988   6.221 -0.0116 -0.0925 -0.2379
  310MOL0     C40853   1.891   9.542   6.131  0.7163 -0.0756  0.3220
  310MOL0     C40854   1.784   9.452   6.107  1.6243 -0.2508 -0.5597
  310MOL0     H40855   1.464   9.130   6.136  0.2867  1.0244  0.6157
  310MOL0     H40856   1.280   8.990   6.075 -3.1473 -0.6879 -1.7219
  310MOL0     H40857   1.226   8.963   5.728 -0.3050  2.3627  0.4322
  310MOL0     H40858   1.074   9.045   5.690 -0.1937 -1.3154 -2.1725
  310MOL0     H40859   0.952   8.856   5.832  0.8641  2.7812 -1.3855
  310MOL0     H40860   1.102   8.763   5.806 -0.9721 -2.2373 -0.0486
  310MOL0     H40861   1.069   8.824   5.562  1.2339  0.5124  1.2260
  310MOL0     H40862   0.910   8.874   5.601 -1.7183 -1.8410 -1.2450
  310MOL0     H40863   0.930   8.634   5.520 -1.3462 -0.8925 -0.4299
  310MOL0     H40864   1.022   8.591   5.664 -1.1265 -2.8294 -2.0359
  310MOL0     H40865   0.756   8.742   5.690 -2.5480 -1.5264  3.0413
  310MOL0     H40866   0.829   8.641   5.805  1.4283 -1.2173  0.3355
  310MOL0     H40867   0.667   8.573   5.564  0.1925  0.0548 -0.4152
  310MOL0     H40868   0.629   8.532   5.729 -0.4163  1.5242 -1.5284
  310MOL0     H40869   0.866   8.401   5.579 -1.7705  2.2404 -0.6794
  310MOL0     H40870   0.825   8.388   5.751 -3.1256  0.5542  2.3799
  310MOL0     H40871   0.635   8.345   5.520 -1.4046  3.1625  2.7812
  310MOL0     H40872   0.592   8.311   5.684  0.1133 -0.2940 -0.1380
  310MOL0     H40873   0.792   8.116   5.790  0.9780  2.2904 -0.2698
  310MOL0     H40874   0.797   7.760   5.650  1.2723 -1.5466  2.4030
  310MOL0     H40875   0.735   7.836   5.796 -1.2090 -0.2075 -0.7456
  310MOL0     H40876   1.025   7.890   5.716 -1.6787  0.1770 -1.8333
  310MOL0     H40877   0.975   7.744   5.799 -0.4015 -0.7304 -3.9053
  310MOL0     H40878   0.932   8.020   5.905 -0.1230  0.0292  1.2088
  310MOL0     H40879   0.873   7.867   5.993 -0.4612 -3.9296 -1.7569
  310MOL0     H40880   1.100   7.792   6.014  1.1005 -0.2612 -0.9626
  310MOL0     H40881   1.053   7.935   6.105 -2.2864 -2.3004 -0.8808
  310MOL0     H40882   1.323   7.802   6.087  1.3162  0.0967  2.5224
  310MOL0     H40883   1.554   7.803   6.106  1.7237 -1.8808 -4.4546
  310MOL0     H40884   1.852   8.336   6.209 -0.0331 -0.2231 -1.4278
  310MOL0     H40885   2.073   8.366   6.325  1.2541 -0.2125  0.6871
  310MOL0     H40886   2.388   8.163   6.119 -0.5974  1.4308 -0.7871
  310MOL0     H40887   2.483   8.206   6.266 -0.2059  2.0646  1.7658
  310MOL0     H40888   2.417   8.431   6.239  0.5920  1.1586 -0.0247
  310MOL0     H40889   2.308   8.394   6.099  0.4322  0.4938 -1.0941
  310MOL0     H40890   2.517   8.513   6.041  1.6417 -0.4720  2.3115
  310MOL0     H40891   2.465   8.376   5.943 -0.5488 -2.2325  0.8701
  310MOL0     H40892   2.664   8.344   6.169 -2.6193  0.6347  1.2258
  310MOL0     H40893   2.617   8.229   6.048 -4.1321  0.6548  0.6469
  310MOL0     H40894   2.722   8.513   6.038 -1.8655 -0.3898 -0.1565
  310MOL0     H40895   2.706   8.420   5.896 -3.0617 -0.2703  1.4051
  310MOL0     H40896   2.842   8.239   6.014 -3.8062  0.8513  1.6547
  310MOL0     H40897   2.883   8.370   6.135 -1.6477 -0.2699  0.9608
  310MOL0     H40898   3.066   8.331   5.941 -1.0543 -0.1771 -0.5780
  310MOL0     H40899   2.952   8.392   5.829 -0.4470  1.1059  0.6146
  310MOL0     H40900   2.940   8.608   5.990 -2.5475 -1.5691  3.5114
  310MOL0     H40901   3.094   8.592   5.922 -2.3245  3.7556  0.0605
  310MOL0     H40902   2.220   8.035   6.096  1.0108  0.1387 -0.8644
  310MOL0     H40903   2.003   8.018   5.985 -2.7049 -1.1736  1.9204
  310MOL0     H40904   1.563   8.206   5.952 -1.5860  1.6448  0.8544
  310MOL0     H40905   1.339   8.174   5.859  1.7036 -0.2652 -0.1100
  310MOL0     H40906   1.178   9.265   5.762  0.8702  3.0322  0.5822
  310MOL0     H40907   1.362   9.399   5.811 -0.1063 -1.0544 -2.2657
  310MOL0     H40908   1.940   9.248   5.894 -0.1173  0.5844 -0.0586
  310MOL0     H40909   2.120   9.388   5.954  2.0870  2.3608  1.5745
  310MOL0     H40910   2.281   9.493   6.071 -0.1168 -1.6214  0.1468
  310MOL0     H40911   2.209   9.477   6.223  0.5193 -1.1638 -1.2749
  310MOL0     H40912   2.435   9.613   6.212  1.8581  3.8964  0.5343
  310MOL0     H40913   2.345   9.729   6.116 -3.2532 -0.1250 -0.6516
  310MOL0     H40914   2.252   9.668   6.392  2.5118 -1.3493 -0.3203
  310MOL0     H40915   2.195   9.805   6.288  3.0765  3.4875  2.0002
  310MOL0     H40916   2.336   9.872   6.469 -1.1489 -0.2627 -0.6663
  310MOL0     H40917   2.463   9.759   6.420 -0.9835 -2.8266 -0.6427
  310MOL0     H40918   2.564  10.049   6.148  1.8779 -1.8387 -0.5058
  310MOL0     H40919   1.873   9.613   6.210  2.0675  0.8599 -0.1666
  310MOL0     H40920   1.688   9.467   6.155  0.4632  1.2097 -3.1371
  311MOL0     O40921  10.163   4.473   2.083  0.6144  0.0257 -0.7604
  311MOL0     C40922  10.169   4.405   2.190 -0.3736 -0.1788  0.6052
  311MOL0     O40923  10.274   4.408   2.276 -0.3673  1.2663  0.0765
  311MOL0     C40924  10.399   4.448   2.235 -0.0358 -1.2463  1.0318
  311MOL0     C40925  10.486   4.515   2.323  0.4507  0.3073 -0.2567
  311MOL0     C40926  10.612   4.558   2.303  0.3903  1.4759  0.9482
  311MOL0     C40927  10.663   4.547   2.173  0.5974 -0.0581 -0.1321
  311MOL0     O40928  10.781   4.600   2.149  0.8682  0.1872 -0.2175
  311MOL0     C40929  10.807   4.739   2.183  1.1112 -0.3173  0.2116
  311MOL0     C40930  10.774   4.828   2.056 -1.1423  0.4572 -0.5783
  311MOL0     C40931  10.896   4.803   1.965 -0.1659 -0.2203 -0.1615
  311MOL0     C40932  10.888   4.868   1.828  0.8857 -0.0713 -0.2454
  311MOL0     C40933  11.002   4.847   1.734  0.2105  0.5658  0.6786
  311MOL0     C40934  11.009   4.937   1.606  0.1911  0.0589  0.3643
  311MOL0     C40935  10.901   4.917   1.504 -0.0300 -0.3983 -0.6473
  311MOL0     C40936  10.924   4.999   1.378  0.3647  0.2759  0.0436
  311MOL0     N40937  10.805   5.008   1.291  0.7086 -0.1938 -0.3200
  311MOL0     C40938  10.700   5.094   1.315  0.0217 -0.6111  0.1512
  311MOL0     C40939  10.610   5.071   1.224  0.2488 -1.1192 -0.4988
  311MOL0     C40940  10.480   5.150   1.202 -0.2610  0.9428 -0.8425
  311MOL0     C40941  10.498   5.276   1.109  0.6751 -1.0525 -1.1516
  311MOL0     C40942  10.575   5.387   1.191  0.1956 -0.4298 -0.0737
  311MOL0     C40943  10.608   5.499   1.088  0.9293  1.1734 -0.0844
  311MOL0     O40944  10.498   5.574   1.036  0.1934  0.4211  0.1550
  311MOL0     C40945  10.412   5.642   1.122  0.4017  0.1701  0.0917
  311MOL0     C40946  10.453   5.698   1.245  0.6896 -0.1476  0.1211
  311MOL0     C40947  10.359   5.775   1.321 -0.1600  0.3435 -1.3418
  311MOL0     C40948  10.225   5.780   1.279 -0.3154  0.5841  0.5518
  311MOL0     C40949  10.131   5.870   1.349 -0.0699 -0.2920  0.0134
  311MOL0     O40950  10.047   5.941   1.277  0.6577  0.2866 -0.2292
  311MOL0     C40951   9.963   6.033   1.329  0.4500 -0.5536 -0.4983
  311MOL0     C40952   9.871   6.082   1.234 -0.7796  0.5350 -0.1636
  311MOL0     C40953   9.767   6.164   1.268 -0.0419  0.1612 -0.0401
  311MOL0     C40954   9.755   6.198   1.406  0.5622  0.2377  0.1410
  311MOL0     O40955   9.646   6.272   1.448 -0.0596 -0.0588  0.3402
  311MOL0     C40956   9.680   6.406   1.488  0.1490  0.6021  0.6528
  311MOL0     C40957   9.582   6.438   1.597  0.7410  0.4931  0.3045
  311MOL0     C40958   9.590   6.576   1.645 -0.1358  0.1923  0.1631
  311MOL0     C40959   9.630   6.690   1.540 -0.3922  0.1083 -0.0063
  311MOL0     C40960   9.537   6.713   1.428 -0.2412 -0.4423  0.0973
  311MOL0     C40961   9.400   6.757   1.477 -0.1751  0.5829 -0.1972
  311MOL0     C40962   9.302   6.811   1.378 -0.6773 -0.0363 -0.2439
  311MOL0     C40963   9.188   6.888   1.442  0.7896 -0.7995  0.4831
  311MOL0    Cl40964   9.033   6.828   1.380 -0.2747  0.3482  0.0744
  311MOL0     C40965   9.834   6.150   1.503 -0.4003  0.1438  0.1500
  311MOL0     C40966   9.946   6.073   1.468 -0.3220  0.1472 -0.4352
  311MOL0     O40967  10.157   5.887   1.470 -0.6622  0.0377  0.0165
  311MOL0     C40968  10.188   5.717   1.161 -0.3660 -0.0338  0.8028
  311MOL0     C40969  10.286   5.651   1.083 -0.3000 -0.5417  0.0605
  311MOL0     N40970  10.664   4.971   1.147 -0.3468 -0.8392  0.2436
  311MOL0     N40971  10.781   4.926   1.186 -0.6135  0.9235  0.4482
  311MOL0     C40972  10.592   4.478   2.074  0.3086  0.2769 -0.7433
  311MOL0     C40973  10.461   4.430   2.107  0.6499  0.3445 -0.4273
  311MOL0     C40974  10.060   4.305   2.201  0.1437 -0.2875  0.5318
  311MOL0     C40975   9.972   4.274   2.101 -0.2678 -0.0676  0.4465
  311MOL0     C40976   9.888   4.163   2.112  0.1787  0.5821  0.0616
  311MOL0     C40977   9.886   4.083   2.226 -0.2341  0.3562 -0.4553
  311MOL0     O40978   9.790   3.984   2.232  0.6232  0.0692  0.0193
  311MOL0     C40979   9.809   3.898   2.347 -0.3178 -0.0881 -0.9814
  311MOL0     C40980   9.734   3.772   2.316 -0.5503  0.7226  0.3241
  311MOL0     C40981   9.730   3.682   2.443  0.7895  0.0146 -0.5695
  311MOL0     C40982   9.668   3.544   2.421 -0.7049 -0.1240 -0.5547
  311MOL0     C40983   9.535   3.548   2.373  0.0209 -0.6562  0.7378
  311MOL0     C40984   9.418   3.545   2.350 -0.2697 -0.0760  0.7166
  311MOL0     C40985   9.956   4.130   2.340 -1.1852  0.6480  0.3510
  311MOL0     C40986  10.046   4.237   2.319 -0.0962  0.0377 -0.5938
  311MOL0     H40987  10.440   4.526   2.421 -0.0756  0.4214 -0.5131
  311MOL0     H40988  10.668   4.600   2.386 -0.9561  1.3371  1.9689
  311MOL0     H40989  10.914   4.745   2.201  2.0514 -3.8540 -3.1486
  311MOL0     H40990  10.757   4.774   2.275 -0.6101 -1.2037 -0.3376
  311MOL0     H40991  10.778   4.934   2.083  2.0658  0.2214  0.2833
  311MOL0     H40992  10.680   4.803   2.006 -0.0265  0.4682 -2.7769
  311MOL0     H40993  10.900   4.694   1.956 -1.3266 -0.4779  1.8237
  311MOL0     H40994  10.980   4.837   2.025 -1.3722  0.6542  1.0943
  311MOL0     H40995  10.794   4.833   1.784  0.5592 -2.0135  1.7985
  311MOL0     H40996  10.873   4.974   1.848 -2.6109 -0.4642 -0.2569
  311MOL0     H40997  11.014   4.739   1.723  1.8286  0.7685  0.0265
  311MOL0     H40998  11.092   4.879   1.788  1.6582 -1.1350 -0.5918
  311MOL0     H40999  11.102   4.925   1.549 -2.2073  0.9078 -4.2958
  311MOL0     H41000  10.982   5.038   1.638 -2.6834 -0.7180  0.6348
  311MOL0     H41001  10.899   4.809   1.485 -0.2052 -0.4087 -0.5743
  311MOL0     H41002  10.806   4.952   1.546  0.7156 -0.0953  0.8298
  311MOL0     H41003  10.991   4.941   1.313 -3.6938 -4.3044 -0.6302
  311MOL0     H41004  10.969   5.086   1.427 -0.6968  0.2186  1.1485
  311MOL0     H41005  10.695   5.167   1.395 -3.3523 -2.3530  1.7294
  311MOL0     H41006  10.432   5.169   1.299  0.7012  0.2990 -0.2162
  311MOL0     H41007  10.419   5.072   1.155  1.0396 -0.9361  0.4519
  311MOL0     H41008  10.399   5.316   1.085  0.8431 -0.3060 -0.6614
  311MOL0     H41009  10.539   5.247   1.012 -0.9638 -0.5594 -2.0242
  311MOL0     H41010  10.516   5.422   1.276 -0.2134  1.7350 -1.1816
  311MOL0     H41011  10.675   5.354   1.223  1.6813  1.8255 -2.0331
  311MOL0     H41012  10.659   5.460   0.999  1.7577  0.5344  0.6505
  311MOL0     H41013  10.680   5.571   1.127  1.7744 -0.5394  1.7110
  311MOL0     H41014  10.558   5.683   1.270  0.2957  1.0137  2.7820
  311MOL0     H41015  10.392   5.839   1.402  0.4892  0.6252 -1.8183
  311MOL0     H41016   9.896   6.046   1.134 -1.6264 -0.0720 -0.1734
  311MOL0     H41017   9.703   6.214   1.197 -0.8012  4.6216  3.3498
  311MOL0     H41018   9.660   6.469   1.400  1.4918 -0.6723 -0.6369
  311MOL0     H41019   9.779   6.419   1.532 -1.0756  1.5359  3.2981
  311MOL0     H41020   9.598   6.373   1.684  6.6762  2.2332  0.9136
  311MOL0     H41021   9.482   6.429   1.554  1.8331 -2.4774 -1.9604
  311MOL0     H41022   9.662   6.577   1.727 -2.5441 -0.9156  2.4756
  311MOL0     H41023   9.494   6.598   1.693 -0.6924  1.2043 -1.3479
  311MOL0     H41024   9.641   6.784   1.595  1.5979 -1.6624  2.9394
  311MOL0     H41025   9.731   6.676   1.502 -0.3009 -0.8311  0.5556
  311MOL0     H41026   9.523   6.623   1.368  0.4243  0.9355 -2.3078
  311MOL0     H41027   9.580   6.790   1.362 -1.0697  3.3393  3.5437
  311MOL0     H41028   9.406   6.822   1.565 -1.4710 -0.4691  0.7181
  311MOL0     H41029   9.349   6.672   1.524 -0.6532 -0.0606 -1.8263
  311MOL0     H41030   9.352   6.870   1.300 -0.0879  2.2237  1.7260
  311MOL0     H41031   9.258   6.726   1.324  0.1089 -1.0970  0.7340
  311MOL0     H41032   9.199   6.993   1.414 -1.1468 -1.4174 -3.3924
  311MOL0     H41033   9.187   6.877   1.551  1.6757 -1.9686  0.3953
  311MOL0     H41034   9.817   6.179   1.606  0.4612  1.4237 -0.0410
  311MOL0     H41035  10.018   6.048   1.546 -0.3955 -1.3452 -0.8181
  311MOL0     H41036  10.083   5.729   1.136 -0.0040  2.7160  0.2643
  311MOL0     H41037  10.251   5.600   0.993 -2.0532  0.5796  0.0585
  311MOL0     H41038  10.634   4.461   1.976 -2.2978 -2.0090 -1.5967
  311MOL0     H41039  10.407   4.370   2.035 -2.0314  0.6143  1.2395
  311MOL0     H41040   9.984   4.325   2.006 -0.3010  0.0896  0.5267
  311MOL0     H41041   9.835   4.111   2.033  0.8582  1.1129 -0.7496
  311MOL0     H41042   9.756   3.953   2.425 -1.9871 -2.2443 -0.5053
  311MOL0     H41043   9.911   3.862   2.368 -0.5260 -1.5325 -2.2357
  311MOL0     H41044   9.631   3.794   2.289 -1.7811 -2.2062  2.1690
  311MOL0     H41045   9.789   3.718   2.239 -0.9571  1.7777 -0.7311
  311MOL0     H41046   9.674   3.733   2.522 -0.7377  0.0336 -1.6162
  311MOL0     H41047   9.832   3.671   2.480  0.4998 -0.0774  0.2339
  311MOL0     H41048   9.741   3.498   2.354  0.7553 -1.2571  1.6867
  311MOL0     H41049   9.666   3.486   2.514 -2.5510  0.8924  0.0831
  311MOL0     H41050   9.311   3.550   2.342 -0.2233  0.5194  0.4268
  311MOL0     H41051   9.948   4.094   2.442 -3.5860 -0.7410 -0.2438
  311MOL0     H41052  10.092   4.270   2.411 -1.9877 -1.5683  1.0087
  312MOL0     O41053   4.628  10.474   2.920  0.5637  0.2030 -0.0189
  312MOL0     C41054   4.537  10.551   2.888  0.4451 -0.6352  0.6426
  312MOL0     O41055   4.505  10.597   2.756  1.4010 -0.0920  0.0968
  312MOL0     C41056   4.585  10.557   2.651 -1.5037 -1.3469 -0.0423
  312MOL0     C41057   4.596  10.425   2.611 -0.3473  0.7995  0.2482
  312MOL0     C41058   4.679  10.394   2.500 -0.1764  0.1897  0.0460
  312MOL0     C41059   4.753  10.500   2.446 -0.1333 -0.8295  0.2801
  312MOL0     O41060   4.829  10.487   2.334  0.2427  0.0786 -0.5360
  312MOL0     C41061   4.964  10.452   2.350 -0.2249  0.4803 -1.2570
  312MOL0     C41062   5.035  10.434   2.212  0.0042 -0.4022  0.2286
  312MOL0     C41063   5.046  10.286   2.162 -0.1403  0.6456 -0.6644
  312MOL0     C41064   5.078  10.282   2.013 -0.1436 -0.0660  0.0903
  312MOL0     C41065   5.116  10.137   1.966 -0.4155  0.2711  0.6551
  312MOL0     C41066   5.179  10.126   1.825 -0.5475 -0.3350 -0.4302
  312MOL0     C41067   5.110  10.218   1.720  0.6073  0.3120  0.1903
  312MOL0     C41068   5.170  10.222   1.577  0.3768 -0.2623  0.1992
  312MOL0     N41069   5.312  10.262   1.577 -0.0190  0.4671  0.9087
  312MOL0     C41070   5.422  10.184   1.589  0.2015 -0.4700 -0.2755
  312MOL0     C41071   5.526  10.255   1.541  0.5032 -0.0772  0.3744
  312MOL0     C41072   5.666  10.209   1.520  0.9730 -0.0734  0.3579
  312MOL0     C41073   5.745  10.227   1.653  0.1276  0.3202  0.0654
  312MOL0     C41074   5.844  10.119   1.671  0.0215 -0.3150 -0.3829
  312MOL0     C41075   5.946  10.099   1.565 -0.5577 -0.6003  0.2824
  312MOL0     O41076   6.041  10.212   1.550  0.2781 -0.2781 -0.0205
  312MOL0     C41077   6.101  10.252   1.661 -0.3808 -0.0760  0.4335
  312MOL0     C41078   6.211  10.174   1.706  0.8336 -0.2821 -0.2502
  312MOL0     C41079   6.272  10.213   1.828 -0.2809  0.6782  0.2947
  312MOL0     C41080   6.231  10.335   1.889  0.0798 -0.2447 -0.0790
  312MOL0     C41081   6.309  10.400   1.998 -0.4765 -0.2925 -0.0896
  312MOL0     O41082   6.257  10.513   2.045 -1.0940  0.0674 -0.0171
  312MOL0     C41083   6.327  10.572   2.150  0.3244  0.7668  0.9345
  312MOL0     C41084   6.465  10.596   2.145  0.5575  0.0666  0.2812
  312MOL0     C41085   6.523  10.643   2.260 -0.1813 -0.0367 -0.9964
  312MOL0     C41086   6.452  10.682   2.379 -0.3096 -0.8124  0.0254
  312MOL0     O41087   6.517  10.729   2.490 -0.2647  0.2786  0.0697
  312MOL0     C41088   6.471  10.723   2.628  0.4830 -0.1737 -0.5230
  312MOL0     C41089   6.462  10.866   2.675 -0.5830  0.0710 -0.1267
  312MOL0     C41090   6.586  10.954   2.648  0.5333  0.7126 -0.2920
  312MOL0     C41091   6.560  11.095   2.704 -0.5272  0.2338  0.2271
  312MOL0     C41092   6.659  11.206   2.678  0.0164 -0.9541 -0.2774
  312MOL0     C41093   6.653  11.241   2.538  0.3652 -0.4888  0.8528
  312MOL0     C41094   6.746  11.354   2.499 -0.0234 -0.5609  0.5535
  312MOL0     C41095   6.686  11.456   2.404  0.2081 -0.1669  1.0397
  312MOL0    Cl41096   6.788  11.606   2.404 -0.0547  0.0056 -0.2076
  312MOL0     C41097   6.315  10.662   2.379 -0.6317 -0.1924  0.1027
  312MOL0     C41098   6.259  10.601   2.264 -0.7739  0.3907  0.5389
  312MOL0     O41099   6.418  10.346   2.034 -0.2637 -0.2373 -0.8503
  312MOL0     C41100   6.120  10.410   1.841  0.5370  0.4416  0.1559
  312MOL0     C41101   6.062  10.371   1.720  0.0258 -0.0316 -0.0328
  312MOL0     N41102   5.478  10.380   1.509  0.1599 -0.1354 -0.2103
  312MOL0     N41103   5.354  10.385   1.528 -0.0492  0.2546  0.0245
  312MOL0     C41104   4.764  10.626   2.509  0.3416 -0.0861  0.3208
  312MOL0     C41105   4.671  10.655   2.609  0.2747 -1.2391  0.2895
  312MOL0     C41106   4.446  10.606   2.998  0.5786  0.5020 -0.1355
  312MOL0     C41107   4.431  10.535   3.120 -0.6207  0.6645  0.5029
  312MOL0     C41108   4.341  10.578   3.217  0.7571  0.5333  0.4532
  312MOL0     C41109   4.260  10.695   3.199 -0.8280  0.2706 -0.2560
  312MOL0     O41110   4.159  10.735   3.291  0.6799 -0.2932 -0.4615
  312MOL0     C41111   4.040  10.664   3.265 -0.2536 -0.3612 -0.3817
  312MOL0     C41112   3.950  10.675   3.395  0.7778 -0.1465  0.2125
  312MOL0     C41113   3.929  10.830   3.435  0.7050  1.1221 -0.9535
  312MOL0     C41114   3.802  10.846   3.528 -0.1257 -0.1450 -0.6897
  312MOL0     C41115   3.778  10.981   3.556 -0.5849 -0.9418  0.0498
  312MOL0     C41116   3.755  11.100   3.575 -0.3501  0.2817 -0.1363
  312MOL0     C41117   4.284  10.766   3.084 -0.6181 -0.4155  0.0822
  312MOL0     C41118   4.374  10.727   2.985 -0.9327 -0.4847 -0.3122
  312MOL0     H41119   4.540  10.349   2.665  2.5168 -2.7151 -1.3739
  312MOL0     H41120   4.697  10.299   2.451 -0.6040 -0.1477  0.5300
  312MOL0     H41121   4.971  10.357   2.405 -0.3189  0.9223 -0.4690
  312MOL0     H41122   5.024  10.531   2.396 -0.7589 -0.2901  0.8844
  312MOL0     H41123   5.139  10.466   2.224 -0.2718 -0.3261  3.2603
  312MOL0     H41124   4.977  10.492   2.139  0.2949 -0.5638 -0.1271
  312MOL0     H41125   4.952  10.235   2.185  0.5871  1.2293  5.1618
  312MOL0     H41126   5.109  10.216   2.218 -0.7684  0.6437  0.0664
  312MOL0     H41127   4.995  10.307   1.945 -1.4262 -2.0450  0.8318
  312MOL0     H41128   5.159  10.352   1.990 -1.7492  1.5110 -1.0587
  312MOL0     H41129   5.029  10.071   1.965 -0.4021  0.2567  0.2465
  312MOL0     H41130   5.194  10.087   2.024  0.1782 -0.6095 -0.8416
  312MOL0     H41131   5.187  10.019   1.804  1.3936 -0.8939  2.6121
  312MOL0     H41132   5.282  10.162   1.838 -0.8186  0.7683 -1.1187
  312MOL0     H41133   5.005  10.188   1.716 -0.0698  2.4877  0.5923
  312MOL0     H41134   5.112  10.316   1.767  2.5435 -0.4164  1.8116
  312MOL0     H41135   5.111  10.308   1.544  1.1947 -0.0181 -0.6723
  312MOL0     H41136   5.159  10.126   1.526  0.5320  0.0585 -0.4558
  312MOL0     H41137   5.417  10.078   1.616  1.0405 -0.1721  1.1801
  312MOL0     H41138   5.713  10.264   1.439 -3.2787  1.5640 -1.3014
  312MOL0     H41139   5.663  10.102   1.497  2.7987  0.3096 -2.0418
  312MOL0     H41140   5.682  10.209   1.741  0.1930 -3.1275 -0.4773
  312MOL0     H41141   5.778  10.331   1.647 -1.1519  0.6604 -3.1993
  312MOL0     H41142   5.899  10.125   1.765  1.1274  1.8566 -1.1082
  312MOL0     H41143   5.780  10.030   1.682 -1.2684  0.8950  3.3342
  312MOL0     H41144   5.897  10.071   1.471 -0.4214  0.1218 -0.0099
  312MOL0     H41145   6.004  10.011   1.593  0.0837 -0.3462 -0.2233
  312MOL0     H41146   6.231  10.082   1.652 -0.7896  0.7747 -2.8379
  312MOL0     H41147   6.355  10.153   1.863 -2.4444 -2.1972  0.8614
  312MOL0     H41148   6.535  10.588   2.062  2.7720  0.0677  2.0697
  312MOL0     H41149   6.631  10.643   2.270 -0.2719  0.7200  0.1564
  312MOL0     H41150   6.546  10.677   2.693  0.5084 -2.7283 -2.2157
  312MOL0     H41151   6.377  10.668   2.638 -0.0422  0.4654 -1.6660
  312MOL0     H41152   6.459  10.858   2.784  1.5090  1.4656  0.0905
  312MOL0     H41153   6.375  10.917   2.631 -0.4395 -1.2404 -2.0097
  312MOL0     H41154   6.608  10.957   2.540  0.8493  1.3638 -0.2145
  312MOL0     H41155   6.670  10.897   2.690  0.2349 -1.8120 -2.7797
  312MOL0     H41156   6.459  11.128   2.679 -1.3000 -1.0679  1.5343
  312MOL0     H41157   6.555  11.081   2.813  0.7146  2.0680  0.5702
  312MOL0     H41158   6.756  11.160   2.695  1.1394  1.6652  0.9853
  312MOL0     H41159   6.653  11.293   2.745  0.1819 -0.7764 -0.4914
  312MOL0     H41160   6.552  11.252   2.497  1.5762 -1.2510 -2.7048
  312MOL0     H41161   6.710  11.167   2.481  2.3771  1.2621  0.4524
  312MOL0     H41162   6.776  11.405   2.591  1.2280 -0.1282 -0.0861
  312MOL0     H41163   6.841  11.321   2.457 -0.3367  0.1505 -0.7791
  312MOL0     H41164   6.581  11.486   2.418 -0.0857 -0.8622  0.3277
  312MOL0     H41165   6.689  11.403   2.309 -1.2533 -1.2335  1.5492
  312MOL0     H41166   6.244  10.678   2.459 -1.0698 -0.6567 -0.1824
  312MOL0     H41167   6.152  10.579   2.268 -0.7141 -0.2369 -0.8175
  312MOL0     H41168   6.091  10.510   1.872  0.1809  0.9516 -1.7098
  312MOL0     H41169   5.978  10.423   1.676  1.8730  2.1027 -1.2436
  312MOL0     H41170   4.828  10.697   2.459  0.9702 -1.7514 -1.3583
  312MOL0     H41171   4.665  10.754   2.653 -1.7775 -1.0645 -0.2913
  312MOL0     H41172   4.483  10.441   3.137  2.2695  2.4238  2.4289
  312MOL0     H41173   4.318  10.517   3.304 -0.5553  1.2522  0.6415
  312MOL0     H41174   4.047  10.557   3.240 -1.7267 -1.4578  3.1772
  312MOL0     H41175   3.968  10.708   3.196  0.0573  2.5668  1.0130
  312MOL0     H41176   3.848  10.645   3.370  0.7430  0.3404 -0.2525
  312MOL0     H41177   3.988  10.617   3.479  3.0759 -2.5138 -2.2738
  312MOL0     H41178   3.903  10.885   3.344 -1.3941  5.0806  1.7402
  312MOL0     H41179   4.022  10.874   3.473  0.3440  1.7188 -0.7472
  312MOL0     H41180   3.708  10.810   3.484  0.1361  1.1415 -2.4215
  312MOL0     H41181   3.825  10.798   3.623 -1.6404  1.1800  0.4183
  312MOL0     H41182   3.721  11.197   3.603 -1.9322 -0.0613 -0.7507
  312MOL0     H41183   4.225  10.856   3.075 -3.0305 -1.9212  0.0697
  312MOL0     H41184   4.392  10.796   2.903  0.0046  0.7440  0.8752
  313MOL0     O41185  11.238   7.140   6.131  0.5030  0.0555 -0.0911
  313MOL0     C41186  11.193   7.093   6.236  0.1136  1.0075  0.6502
  313MOL0     O41187  11.182   6.954   6.263 -0.2503 -0.4245 -0.4642
  313MOL0     C41188  11.232   6.865   6.177  0.4500  0.9251  1.2716
  313MOL0     C41189  11.369   6.880   6.131  1.2374  0.0600  0.4046
  313MOL0     C41190  11.429   6.788   6.041 -0.2753 -0.1027  0.5765
  313MOL0     C41191  11.359   6.669   6.001 -0.1021 -0.4470 -0.0121
  313MOL0     O41192  11.433   6.582   5.921 -0.4724 -0.3914  0.4312
  313MOL0     C41193  11.361   6.484   5.851  0.1553 -0.6093  0.2262
  313MOL0     C41194  11.461   6.385   5.784 -0.1170 -0.2277 -0.4495
  313MOL0     C41195  11.396   6.268   5.711  0.2063  0.0929  0.5402
  313MOL0     C41196  11.289   6.313   5.614 -0.6686  0.9083  0.1928
  313MOL0     C41197  11.249   6.191   5.527 -1.1200  0.2218 -0.3146
  313MOL0     C41198  11.139   6.229   5.431  0.0735 -0.2038 -0.0541
  313MOL0     C41199  11.077   6.113   5.363 -0.2429  0.6995  0.0359
  313MOL0     C41200  10.956   6.154   5.275 -0.0756  0.6249 -0.3810
  313MOL0     N41201  10.898   6.036   5.196  0.2311  0.6247 -0.0751
  313MOL0     C41202  10.805   5.945   5.243  0.6131  0.9133 -0.1871
  313MOL0     C41203  10.744   5.894   5.130 -0.0307  0.7487 -0.1960
  313MOL0     C41204  10.638   5.789   5.120 -0.3722  0.1155  0.6098
  313MOL0     C41205  10.640   5.702   4.986  0.7591  0.0348 -0.0631
  313MOL0     C41206  10.558   5.752   4.868  0.7501 -0.1598  0.5177
  313MOL0     C41207  10.602   5.673   4.739  0.0283 -0.8594 -0.7946
  313MOL0     O41208  10.593   5.526   4.748  0.4376 -0.2295 -0.7455
  313MOL0     C41209  10.711   5.450   4.752  0.4989  0.2144 -2.1815
  313MOL0     C41210  10.841   5.489   4.707  0.9647 -0.1672  0.0529
  313MOL0     C41211  10.953   5.417   4.740 -0.2884 -0.0174 -0.2999
  313MOL0     C41212  10.952   5.323   4.841  0.7772  0.1427 -1.7986
  313MOL0     C41213  11.077   5.247   4.878  0.7198  0.1373  0.2435
  313MOL0     O41214  11.063   5.160   4.985 -0.1142  0.8130 -0.1011
  313MOL0     C41215  11.180   5.103   5.039  0.6502 -0.0101 -0.3970
  313MOL0     C41216  11.256   5.019   4.965 -0.0677  0.1309  0.6425
  313MOL0     C41217  11.382   4.964   5.020 -0.1936  0.2286  0.4383
  313MOL0     C41218  11.411   4.983   5.154 -0.7583 -0.1546  0.7170
  313MOL0     O41219  11.525   4.921   5.207  0.6791 -0.6628 -0.0141
  313MOL0     C41220  11.645   4.895   5.127  0.7028 -0.2592 -0.3548
  313MOL0     C41221  11.758   4.925   5.224 -0.0513  0.3400  0.2003
  313MOL0     C41222  11.764   5.063   5.277 -0.5150 -0.2142  0.0806
  313MOL0     C41223  11.892   5.068   5.368 -0.5975  0.0655 -0.9218
  313MOL0     C41224  11.882   5.181   5.465  0.0245  0.0955 -0.1790
  313MOL0     C41225  11.864   5.316   5.394 -0.5428 -0.2845  0.0638
  313MOL0     C41226  11.914   5.441   5.474  0.1904  0.3251 -0.0730
  313MOL0     C41227  11.929   5.556   5.371  0.2538 -0.2053 -0.1989
  313MOL0    Cl41228  11.936   5.706   5.464 -0.0257 -0.0035 -0.1354
  313MOL0     C41229  11.327   5.060   5.230  0.0390 -0.5648 -0.5725
  313MOL0     C41230  11.208   5.111   5.175 -0.8152  0.5674  0.1082
  313MOL0     O41231  11.180   5.273   4.819 -0.0784  0.1142  0.3754
  313MOL0     C41232  10.822   5.278   4.894 -0.2360  0.0781 -0.7197
  313MOL0     C41233  10.705   5.336   4.840  0.2332  0.6435 -0.2571
  313MOL0     N41234  10.817   5.939   5.019 -0.2607 -1.4033  0.3569
  313MOL0     N41235  10.906   6.029   5.059 -0.7497  0.0360  0.1186
  313MOL0     C41236  11.222   6.664   6.023  0.4624  0.3925  0.3780
  313MOL0     C41237  11.159   6.754   6.117  0.6772 -0.4303  0.4318
  313MOL0     C41238  11.145   7.188   6.335  0.2537 -0.6050 -0.0257
  313MOL0     C41239  11.061   7.140   6.434 -0.1417  1.3068  0.5496
  313MOL0     C41240  10.989   7.235   6.510  0.2680 -0.8436 -0.3622
  313MOL0     C41241  11.015   7.369   6.507  0.5030  0.0642  0.0214
  313MOL0     O41242  10.952   7.463   6.585  0.2927 -0.1487 -0.0985
  313MOL0     C41243  10.844   7.422   6.670  0.7317 -0.3740  0.1490
  313MOL0     C41244  10.709   7.406   6.589  0.6218  0.6316 -0.5926
  313MOL0     C41245  10.692   7.484   6.462 -0.1393  0.5574  0.1486
  313MOL0     C41246  10.685   7.630   6.494  0.0914 -0.5387  0.1111
  313MOL0     C41247  10.615   7.714   6.400  0.0623 -0.4477 -0.2637
  313MOL0     C41248  10.559   7.788   6.317  0.3669  0.1904  0.2029
  313MOL0     C41249  11.108   7.420   6.414 -0.3603  0.7366 -0.5139
  313MOL0     C41250  11.168   7.329   6.327  0.4104 -0.0533  0.5946
  313MOL0     H41251  11.440   6.948   6.178  1.4366 -0.8633  1.4791
  313MOL0     H41252  11.535   6.792   6.016 -0.3031 -1.3492  0.2058
  313MOL0     H41253  11.295   6.530   5.777  0.3774  1.0397  1.0211
  313MOL0     H41254  11.296   6.426   5.916 -0.4907  1.1495  1.2041
  313MOL0     H41255  11.544   6.351   5.848 -0.1226  1.5993  0.6091
  313MOL0     H41256  11.520   6.450   5.720  0.0511 -1.4667 -1.5913
  313MOL0     H41257  11.358   6.199   5.787  1.3780 -1.0750  0.1078
  313MOL0     H41258  11.479   6.216   5.662  0.4510  1.9393 -1.1139
  313MOL0     H41259  11.211   6.342   5.685  0.3723  1.5568  1.1090
  313MOL0     H41260  11.313   6.402   5.556 -0.7093 -0.2006 -1.6136
  313MOL0     H41261  11.206   6.115   5.593  0.1499  0.4678  0.8298
  313MOL0     H41262  11.335   6.136   5.487 -2.6070 -2.9589  0.5600
  313MOL0     H41263  11.181   6.301   5.361 -0.3812  0.1064 -0.0079
  313MOL0     H41264  11.058   6.274   5.488  0.9575 -1.2327  2.1548
  313MOL0     H41265  11.150   6.056   5.305  0.3195  0.6563  0.7570
  313MOL0     H41266  11.032   6.045   5.437 -3.1181  1.3259 -1.0203
  313MOL0     H41267  10.987   6.233   5.207  0.7368  0.7557  0.1306
  313MOL0     H41268  10.874   6.181   5.343 -1.2119 -2.3302 -0.4089
  313MOL0     H41269  10.801   5.903   5.343  0.7414 -1.9527 -1.2783
  313MOL0     H41270  10.542   5.841   5.129 -0.1492  1.0580 -1.8297
  313MOL0     H41271  10.655   5.728   5.210 -1.2545 -0.4368  0.4062
  313MOL0     H41272  10.598   5.606   5.017  0.7554 -1.4351 -4.0705
  313MOL0     H41273  10.742   5.676   4.959  1.4212  0.0546  2.1866
  313MOL0     H41274  10.450   5.752   4.885  0.1233  0.9368 -2.7320
  313MOL0     H41275  10.586   5.856   4.849 -0.8288  0.8941  3.4737
  313MOL0     H41276  10.703   5.714   4.727 -1.0776  2.5156  0.3509
  313MOL0     H41277  10.531   5.700   4.661  1.2580 -0.5165 -1.8281
  313MOL0     H41278  10.850   5.570   4.635  1.2958  0.1064  0.3988
  313MOL0     H41279  11.051   5.448   4.708  0.7140 -0.4217  2.1721
  313MOL0     H41280  11.251   4.995   4.860  1.2636 -0.5609  0.7134
  313MOL0     H41281  11.444   4.895   4.964  0.0594  0.2428  0.6999
  313MOL0     H41282  11.644   4.963   5.041 -1.8230  1.5431  0.9556
  313MOL0     H41283  11.648   4.790   5.097  2.0680 -0.1055 -0.8518
  313MOL0     H41284  11.848   4.888   5.172 -0.0978  0.2432  0.1866
  313MOL0     H41285  11.753   4.846   5.300 -0.6362 -2.3331 -2.4053
  313MOL0     H41286  11.673   5.099   5.326 -0.8223  1.3319 -1.5289
  313MOL0     H41287  11.776   5.132   5.193 -1.4959 -0.8013 -0.5599
  313MOL0     H41288  11.898   4.975   5.425  1.3447  1.2266  0.9072
  313MOL0     H41289  11.992   5.074   5.323  0.0866 -0.5229  0.4609
  313MOL0     H41290  11.959   5.174   5.542 -1.3933  0.2770  1.3066
  313MOL0     H41291  11.788   5.161   5.517 -0.9203 -1.0238 -2.1866
  313MOL0     H41292  11.757   5.330   5.373 -0.2648  1.5018 -0.3314
  313MOL0     H41293  11.929   5.311   5.307  1.6747  0.2839  1.6141
  313MOL0     H41294  11.840   5.457   5.553  0.7687 -0.3994  0.6328
  313MOL0     H41295  12.010   5.421   5.522  2.5945  1.8946 -3.7921
  313MOL0     H41296  11.836   5.561   5.313 -0.4092  3.0760  0.9222
  313MOL0     H41297  12.018   5.542   5.310  0.6428  1.4715 -0.0519
  313MOL0     H41298  11.368   5.085   5.327 -0.2474  0.9938 -0.8286
  313MOL0     H41299  11.141   5.168   5.239 -0.5891  0.5924  0.3213
  313MOL0     H41300  10.799   5.199   4.964 -3.0969  2.0715  0.7783
  313MOL0     H41301  10.606   5.305   4.871  0.4896  3.2167  3.8963
  313MOL0     H41302  11.161   6.583   5.984  3.7725 -0.6953 -3.1479
  313MOL0     H41303  11.054   6.746   6.147  0.1821 -4.2170 -1.6675
  313MOL0     H41304  11.038   7.034   6.437 -0.1179  1.3228  1.5476
  313MOL0     H41305  10.918   7.200   6.585  1.9274 -1.1870  1.1205
  313MOL0     H41306  10.830   7.507   6.738  2.4442 -0.2564  0.4012
  313MOL0     H41307  10.879   7.344   6.737  1.6410  1.1573  1.5407
  313MOL0     H41308  10.711   7.298   6.571  4.5767  0.5215 -0.1857
  313MOL0     H41309  10.627   7.425   6.659  1.0243  2.2435 -0.5211
  313MOL0     H41310  10.601   7.456   6.409 -2.1975 -0.3585  3.7677
  313MOL0     H41311  10.789   7.464   6.418  0.5631 -0.6370  2.1124
  313MOL0     H41312  10.642   7.654   6.591  5.0784  0.6281  2.3763
  313MOL0     H41313  10.790   7.659   6.508  0.1801 -0.8947  0.2011
  313MOL0     H41314  10.514   7.845   6.238 -2.4587 -1.6073  0.3628
  313MOL0     H41315  11.134   7.524   6.396 -3.0567  2.2484  3.0629
  313MOL0     H41316  11.241   7.359   6.253  0.1383  2.2235  1.1775
  314MOL0     O41317   6.173   2.967   8.407  0.6915  0.2841  1.1296
  314MOL0     C41318   6.198   3.083   8.444  0.7730 -0.2298  0.8325
  314MOL0     O41319   6.186   3.191   8.373  0.7872  0.0908  0.4078
  314MOL0     C41320   6.103   3.193   8.264 -0.1618 -0.5377  0.3339
  314MOL0     C41321   6.130   3.108   8.160 -0.2961  0.7506 -0.4129
  314MOL0     C41322   6.051   3.110   8.046  0.1420 -0.0432  0.0545
  314MOL0     C41323   5.948   3.210   8.028  0.1479  0.2454  0.1546
  314MOL0     O41324   5.871   3.209   7.914 -0.4189 -0.1959 -0.6641
  314MOL0     C41325   5.924   3.170   7.787 -1.0849 -0.2645 -0.1075
  314MOL0     C41326   5.843   3.248   7.683  0.7310  0.0019  0.2087
  314MOL0     C41327   5.904   3.221   7.545 -0.0482  0.8281 -1.0318
  314MOL0     C41328   5.838   3.284   7.420 -0.1878 -0.5814 -0.2404
  314MOL0     C41329   5.927   3.279   7.300  1.0601  0.1443  0.7726
  314MOL0     C41330   5.924   3.143   7.226 -0.5683 -0.1615  0.2358
  314MOL0     C41331   5.997   3.141   7.086  0.1424 -0.5386 -0.2482
  314MOL0     C41332   6.144   3.165   7.085 -0.6715 -0.0689  0.5594
  314MOL0     N41333   6.203   3.154   6.947  0.2706 -0.5418  0.0186
  314MOL0     C41334   6.223   3.040   6.877  0.0683 -0.2798 -0.0728
  314MOL0     C41335   6.275   3.084   6.755  0.3375  0.3229 -0.4432
  314MOL0     C41336   6.346   2.996   6.653 -0.0744  0.0629 -0.0333
  314MOL0     C41337   6.381   2.851   6.705 -0.4194 -0.7678  0.1335
  314MOL0     C41338   6.256   2.763   6.690  0.3197  0.0614 -0.2555
  314MOL0     C41339   6.291   2.615   6.728  0.1600 -1.2199  0.1659
  314MOL0     O41340   6.324   2.600   6.868 -1.1490 -0.7216 -0.4156
  314MOL0     C41341   6.360   2.471   6.916  0.1410 -0.2279  0.2358
  314MOL0     C41342   6.366   2.351   6.844 -0.0363 -0.4222  0.0017
  314MOL0     C41343   6.400   2.227   6.899 -0.5394 -0.2812 -0.1502
  314MOL0     C41344   6.422   2.222   7.038  0.4968  0.4874 -0.5604
  314MOL0     C41345   6.464   2.104   7.107 -1.2081  0.5350 -0.6799
  314MOL0     O41346   6.549   2.022   7.038  0.2251  0.7040  0.1816
  314MOL0     C41347   6.567   1.890   7.073 -0.4142 -0.6062 -0.5532
  314MOL0     C41348   6.505   1.805   7.171 -0.1566 -0.3209  0.4568
  314MOL0     C41349   6.548   1.671   7.182 -1.7377  0.1051 -0.5123
  314MOL0     C41350   6.653   1.621   7.109 -1.3065 -1.0436  1.2149
  314MOL0     O41351   6.687   1.492   7.104  0.2777 -0.6296 -0.4920
  314MOL0     C41352   6.579   1.394   7.100  0.2743  0.5310 -0.3423
  314MOL0     C41353   6.545   1.346   7.241  0.3988  0.4515 -1.0679
  314MOL0     C41354   6.413   1.286   7.247 -0.4611  0.2982 -0.3335
  314MOL0     C41355   6.368   1.271   7.388  0.1978  0.5886 -0.1287
  314MOL0     C41356   6.224   1.222   7.388  1.0490  0.2460 -0.0743
  314MOL0     C41357   6.155   1.196   7.526 -0.8041  0.3415 -0.3106
  314MOL0     C41358   6.023   1.131   7.512 -0.1126  0.3267  0.0812
  314MOL0     C41359   5.921   1.227   7.459  0.5693 -0.0133 -0.2805
  314MOL0    Cl41360   5.754   1.146   7.462 -0.0302 -0.2015  0.1189
  314MOL0     C41361   6.716   1.710   7.014  0.6083 -0.4663  0.0500
  314MOL0     C41362   6.663   1.838   6.995 -0.7540 -0.4402 -0.1906
  314MOL0     O41363   6.418   2.074   7.214 -0.3044  0.1810  0.3167
  314MOL0     C41364   6.400   2.340   7.112  0.4041  0.7364  0.2870
  314MOL0     C41365   6.373   2.462   7.049  0.3600  0.1323 -0.0134
  314MOL0     N41366   6.259   3.221   6.745  0.2772  0.3864 -0.0704
  314MOL0     N41367   6.212   3.267   6.857  0.6106 -0.3265 -0.2717
  314MOL0     C41368   5.932   3.308   8.123  0.1657  1.1640  0.0218
  314MOL0     C41369   6.006   3.300   8.244  0.4852  0.2340  0.3678
  314MOL0     C41370   6.243   3.096   8.589  1.4227  0.4130 -0.7032
  314MOL0     C41371   6.278   2.979   8.654 -0.0215  0.6771 -0.5511
  314MOL0     C41372   6.332   2.982   8.783  0.2358 -1.0455 -0.2822
  314MOL0     C41373   6.359   3.109   8.842  0.1205 -0.3938  0.0547
  314MOL0     O41374   6.418   3.139   8.962  0.4378  0.1800  0.8883
  314MOL0     C41375   6.506   3.048   9.025 -0.7763 -0.7766 -0.0023
  314MOL0     C41376   6.627   3.038   8.939 -0.5184 -0.0968  0.6524
  314MOL0     C41377   6.745   3.003   9.031  0.5998 -0.7670  0.5907
  314MOL0     C41378   6.864   2.936   8.958 -1.4945  0.8682  0.5192
  314MOL0     C41379   6.983   2.916   9.043  0.4814  1.1196 -0.1293
  314MOL0     C41380   7.097   2.911   9.092  0.4509  0.2503  0.4670
  314MOL0     C41381   6.323   3.228   8.769 -0.2768 -0.0034 -0.3551
  314MOL0     C41382   6.266   3.220   8.646  1.4562  0.1335  0.2303
  314MOL0     H41383   6.213   3.039   8.164 -1.1170 -0.2352  3.2384
  314MOL0     H41384   6.080   3.050   7.961 -1.7666  0.4661 -0.9981
  314MOL0     H41385   5.919   3.064   7.760  2.9567 -0.0320 -2.6374
  314MOL0     H41386   6.029   3.198   7.793 -1.7057  3.0310 -1.8235
  314MOL0     H41387   5.844   3.357   7.696 -0.1858 -0.0017  0.3816
  314MOL0     H41388   5.739   3.218   7.696  0.6810  0.6772  1.6099
  314MOL0     H41389   5.919   3.114   7.525 -1.2231 -0.1134  2.3980
  314MOL0     H41390   6.010   3.245   7.538  1.0437 -3.6997 -3.8304
  314MOL0     H41391   5.745   3.228   7.410  0.8152 -2.2943 -0.3236
  314MOL0     H41392   5.829   3.391   7.445  0.2013 -0.4154 -0.7955
  314MOL0     H41393   6.035   3.288   7.313  1.8936 -3.8111 -1.7002
  314MOL0     H41394   5.900   3.361   7.233  4.2961 -0.9497 -2.1327
  314MOL0     H41395   5.825   3.103   7.203  0.0014 -1.5007 -0.0056
  314MOL0     H41396   5.966   3.066   7.291  3.9546  1.1152 -0.8213
  314MOL0     H41397   5.990   3.040   7.043 -3.9261 -0.5148  0.0317
  314MOL0     H41398   5.943   3.208   7.019  1.0710 -1.2741 -1.8071
  314MOL0     H41399   6.187   3.087   7.148 -1.5765 -1.3037 -0.2927
  314MOL0     H41400   6.173   3.267   7.112 -0.6773  0.3156 -0.8356
  314MOL0     H41401   6.223   2.940   6.918  0.2778 -0.5400 -0.6944
  314MOL0     H41402   6.442   3.040   6.625  1.0340 -2.9863 -1.6119
  314MOL0     H41403   6.278   2.989   6.567  0.5819  2.5979 -0.8533
  314MOL0     H41404   6.426   2.856   6.804 -0.0190 -2.2019  0.0549
  314MOL0     H41405   6.449   2.802   6.635 -0.0868 -2.9912  1.9043
  314MOL0     H41406   6.173   2.805   6.747 -0.0610  2.2706 -2.2968
  314MOL0     H41407   6.213   2.771   6.590 -3.6097  3.5325  1.4337
  314MOL0     H41408   6.377   2.575   6.674  0.6181 -1.4841  1.0789
  314MOL0     H41409   6.200   2.556   6.714 -1.8357  0.1453  5.0722
  314MOL0     H41410   6.332   2.351   6.742 -1.9893  0.3049  0.6113
  314MOL0     H41411   6.411   2.143   6.832 -2.8563  1.0262 -2.3379
  314MOL0     H41412   6.413   1.835   7.221 -0.5392 -0.3024 -0.2457
  314MOL0     H41413   6.496   1.617   7.261 -1.1592  0.7916  0.3683
  314MOL0     H41414   6.621   1.312   7.042  1.3054  0.0479  1.0279
  314MOL0     H41415   6.493   1.436   7.046  1.0191  0.8747 -1.2789
  314MOL0     H41416   6.556   1.428   7.313  2.1684 -1.6762  1.2963
  314MOL0     H41417   6.627   1.280   7.272 -1.3068 -0.2511  2.5097
  314MOL0     H41418   6.416   1.193   7.189  0.2477  0.8947 -1.2757
  314MOL0     H41419   6.344   1.341   7.182 -0.8476 -1.2915 -1.3272
  314MOL0     H41420   6.426   1.198   7.446 -0.8263 -0.2970 -0.1846
  314MOL0     H41421   6.376   1.362   7.448 -4.8226  0.9484  0.3891
  314MOL0     H41422   6.221   1.132   7.326 -0.9084  1.5872 -2.1115
  314MOL0     H41423   6.164   1.295   7.332 -1.7705 -2.2480 -0.5389
  314MOL0     H41424   6.135   1.284   7.587 -2.9106  1.4074 -2.3857
  314MOL0     H41425   6.219   1.134   7.590  0.2714  2.5470  0.8602
  314MOL0     H41426   6.041   1.047   7.444  0.5020  1.1196 -0.7766
  314MOL0     H41427   5.995   1.089   7.608  0.0689  4.5547  2.2303
  314MOL0     H41428   5.957   1.251   7.358  3.9234 -1.4936  0.4099
  314MOL0     H41429   5.911   1.321   7.514 -1.5386  0.0224 -0.6393
  314MOL0     H41430   6.784   1.666   6.943 -1.1368 -1.9972 -0.7656
  314MOL0     H41431   6.706   1.901   6.918  0.0609  0.2946  0.8610
  314MOL0     H41432   6.403   2.339   7.221  0.5357  1.2746  0.2887
  314MOL0     H41433   6.353   2.549   7.112 -2.3083  0.1077 -0.6749
  314MOL0     H41434   5.850   3.378   8.107 -2.2210 -1.3670  0.4440
  314MOL0     H41435   5.990   3.384   8.311 -3.8157 -0.6918  0.8212
  314MOL0     H41436   6.273   2.887   8.597  0.6531  0.3446 -0.0809
  314MOL0     H41437   6.370   2.895   8.836 -0.8428 -1.8328 -0.7760
  314MOL0     H41438   6.453   2.953   9.038 -2.9079  0.4428  0.6941
  314MOL0     H41439   6.535   3.088   9.122  2.6576  2.1581 -1.9739
  314MOL0     H41440   6.615   2.968   8.855 -0.7153  1.7104 -0.8832
  314MOL0     H41441   6.659   3.131   8.891 -0.0712 -0.2952  0.5610
  314MOL0     H41442   6.706   2.927   9.099  0.3348 -3.3626 -2.2552
  314MOL0     H41443   6.769   3.093   9.088 -1.3033  0.0521  0.1570
  314MOL0     H41444   6.826   2.843   8.914  0.5645 -0.1825  0.8635
  314MOL0     H41445   6.904   3.001   8.879 -1.4767  2.5898  1.8721
  314MOL0     H41446   7.188   2.903   9.148  2.7493 -0.2715 -3.0274
  314MOL0     H41447   6.362   3.325   8.797 -1.0335  0.2871 -0.2881
  314MOL0     H41448   6.248   3.311   8.589  3.1321  0.0203 -0.5562
  315MOL0     O41449   8.877   1.406   2.849 -0.5691  0.4652 -0.2260
  315MOL0     C41450   8.761   1.454   2.836  0.6723 -0.4947 -0.5072
  315MOL0     O41451   8.734   1.563   2.756  0.0371 -0.7251 -0.1720
  315MOL0     C41452   8.847   1.632   2.696 -0.1631  0.2914 -0.2821
  315MOL0     C41453   8.868   1.769   2.709  0.4974  0.1360  0.2624
  315MOL0     C41454   8.967   1.845   2.671  0.5966  0.5630  0.1072
  315MOL0     C41455   9.063   1.773   2.589  0.5998  0.2348  0.5453
  315MOL0     O41456   9.159   1.844   2.517 -0.3581  0.5879  0.7370
  315MOL0     C41457   9.231   1.964   2.570  0.8028  0.8930  1.2229
  315MOL0     C41458   9.253   2.064   2.456  0.8005 -0.0836 -0.4380
  315MOL0     C41459   9.117   2.102   2.384 -0.1590 -0.2011 -0.3076
  315MOL0     C41460   9.131   2.216   2.279 -0.0272  0.2697 -0.5113
  315MOL0     C41461   8.993   2.260   2.213 -0.2917 -0.4142 -0.1213
  315MOL0     C41462   8.924   2.156   2.133 -0.0388  0.4599 -0.6327
  315MOL0     C41463   8.811   2.205   2.059 -0.2707  0.1551  0.6613
  315MOL0     C41464   8.695   2.257   2.145  0.1010 -1.0237 -0.3851
  315MOL0     N41465   8.658   2.149   2.241  0.7071  0.9400  0.4433
  315MOL0     C41466   8.687   2.131   2.371 -0.6128 -0.0138 -0.5687
  315MOL0     C41467   8.631   2.012   2.409  0.0230  0.3575  0.2286
  315MOL0     C41468   8.639   1.947   2.546 -0.1326 -0.1651 -0.3462
  315MOL0     C41469   8.494   1.933   2.606 -0.2219 -0.1562  0.5755
  315MOL0     C41470   8.492   1.860   2.739 -0.3874 -0.5856 -0.0667
  315MOL0     C41471   8.541   1.945   2.859 -0.3690  0.2114  0.1305
  315MOL0     O41472   8.599   1.866   2.973 -0.3443  0.3075  0.9043
  315MOL0     C41473   8.517   1.817   3.067  0.0726 -0.3170  0.0732
  315MOL0     C41474   8.378   1.814   3.049 -0.8543 -0.2190  0.9717
  315MOL0     C41475   8.309   1.754   3.136  0.5011  0.0105  0.2223
  315MOL0     C41476   8.357   1.691   3.251 -0.6385  0.0665 -0.6070
  315MOL0     C41477   8.272   1.625   3.349 -0.0191 -0.5043  0.2834
  315MOL0     O41478   8.141   1.619   3.309  0.9667  0.2274 -0.3231
  315MOL0     C41479   8.048   1.548   3.383 -0.1556 -0.7476 -0.6876
  315MOL0     C41480   8.076   1.433   3.459  0.4787  0.2480  0.5940
  315MOL0     C41481   7.969   1.360   3.527 -0.1262 -0.6097  0.1888
  315MOL0     C41482   7.840   1.402   3.488  0.2204  0.4902 -0.3604
  315MOL0     O41483   7.752   1.302   3.516 -0.6211  1.0040 -0.7579
  315MOL0     C41484   7.616   1.340   3.555  0.1798  0.9226 -0.2938
  315MOL0     C41485   7.558   1.224   3.641 -0.4364  0.4890  0.4219
  315MOL0     C41486   7.528   1.091   3.563 -0.3372  0.6866  0.5788
  315MOL0     C41487   7.423   1.010   3.643 -1.0927 -0.2690  0.7602
  315MOL0     C41488   7.381   0.876   3.573  0.4402  0.5273  0.4368
  315MOL0     C41489   7.371   0.877   3.420 -0.9514 -0.7338  0.0339
  315MOL0     C41490   7.320   0.745   3.356 -0.9332 -0.9182 -0.3546
  315MOL0     C41491   7.378   0.737   3.213 -0.4332 -0.9911  0.7034
  315MOL0    Cl41492   7.331   0.882   3.107 -0.3982  0.0367 -0.2339
  315MOL0     C41493   7.817   1.509   3.406 -0.2138 -0.4146 -0.4683
  315MOL0     C41494   7.918   1.586   3.367 -0.1609 -0.5835 -0.3034
  315MOL0     O41495   8.312   1.598   3.461 -0.2548 -0.2890  0.1216
  315MOL0     C41496   8.505   1.686   3.271  0.2930 -0.5699 -0.7684
  315MOL0     C41497   8.570   1.746   3.169  0.1885 -0.1864  0.5981
  315MOL0     N41498   8.573   1.955   2.298  0.0337  0.5428  0.6476
  315MOL0     N41499   8.600   2.031   2.196 -0.6919  0.0658  0.4154
  315MOL0     C41500   9.054   1.637   2.569  0.1428 -0.0625 -0.1061
  315MOL0     C41501   8.938   1.561   2.616 -0.2587 -0.5490  0.1403
  315MOL0     C41502   8.649   1.404   2.917 -0.9393  0.3872  0.5125
  315MOL0     C41503   8.524   1.464   2.914  0.0405  0.5889 -0.0193
  315MOL0     C41504   8.413   1.414   2.981 -0.0208 -0.6270 -0.4125
  315MOL0     C41505   8.430   1.293   3.046 -0.1955  0.0439 -1.2109
  315MOL0     O41506   8.334   1.229   3.114  0.5931 -0.1231 -0.1481
  315MOL0     C41507   8.192   1.247   3.105 -0.5617  0.7812 -0.2090
  315MOL0     C41508   8.121   1.136   3.190  0.0589 -0.9371 -0.0341
  315MOL0     C41509   7.977   1.162   3.184  0.2966  0.3915 -0.9138
  315MOL0     C41510   7.912   1.175   3.046  0.1173  0.0517 -0.2120
  315MOL0     C41511   7.776   1.109   3.041 -0.0833 -1.1898 -0.1629
  315MOL0     C41512   7.670   1.064   3.056  0.7609  0.2057  0.1217
  315MOL0     C41513   8.557   1.233   3.061  1.1296 -0.3499  0.5375
  315MOL0     C41514   8.659   1.284   2.992 -0.5132  0.5764  0.4660
  315MOL0     H41515   8.790   1.808   2.773  0.7973 -1.1675  1.4860
  315MOL0     H41516   8.972   1.950   2.701 -0.8849  0.5105  0.5832
  315MOL0     H41517   9.331   1.930   2.599  0.6195 -1.0160 -0.1368
  315MOL0     H41518   9.183   2.010   2.657 -0.0695  1.1008  0.6508
  315MOL0     H41519   9.321   2.027   2.379  0.9010  0.5187 -0.6409
  315MOL0     H41520   9.302   2.155   2.491  0.3904  0.0428 -0.1828
  315MOL0     H41521   9.031   2.126   2.448  0.3693  0.2949  0.2299
  315MOL0     H41522   9.085   2.015   2.327  1.2868 -1.3599  0.5903
  315MOL0     H41523   9.180   2.299   2.331 -2.9914  0.1799  2.8372
  315MOL0     H41524   9.199   2.186   2.199  0.2310 -0.6729  0.0356
  315MOL0     H41525   9.007   2.344   2.143 -0.1717  1.0053  1.5498
  315MOL0     H41526   8.914   2.279   2.287 -0.2537 -2.7477  0.5829
  315MOL0     H41527   8.889   2.081   2.205 -1.2115  1.3029 -0.2818
  315MOL0     H41528   9.005   2.113   2.074 -0.0065 -0.1540 -0.1453
  315MOL0     H41529   8.839   2.279   1.984 -1.1460 -2.6685 -2.6818
  315MOL0     H41530   8.767   2.122   2.004 -1.2446 -1.1964  3.3204
  315MOL0     H41531   8.612   2.294   2.085  0.3803  1.6625  0.7594
  315MOL0     H41532   8.709   2.338   2.217  0.4800 -1.2054 -0.2504
  315MOL0     H41533   8.752   2.195   2.430 -1.1413  0.0939 -0.1024
  315MOL0     H41534   8.720   1.994   2.604  1.2550  0.1655 -2.4427
  315MOL0     H41535   8.683   1.848   2.533  0.3477  0.0680 -0.5225
  315MOL0     H41536   8.423   1.871   2.549 -2.0430  3.0802 -0.9616
  315MOL0     H41537   8.456   2.035   2.617  1.9635  0.9153 -1.0682
  315MOL0     H41538   8.385   1.838   2.742 -0.3070 -1.1622 -0.9685
  315MOL0     H41539   8.546   1.764   2.745  1.5099  0.4646  0.4776
  315MOL0     H41540   8.466   2.015   2.895  0.1849  0.6573  0.4227
  315MOL0     H41541   8.616   2.006   2.808 -1.5400 -0.3062 -2.3962
  315MOL0     H41542   8.320   1.872   2.978  0.7350 -2.2859 -2.2534
  315MOL0     H41543   8.205   1.753   3.104  1.5496 -2.3791 -3.9520
  315MOL0     H41544   8.176   1.398   3.486  0.3718  0.0953  0.7935
  315MOL0     H41545   7.984   1.280   3.599  1.5315 -0.1174  0.4294
  315MOL0     H41546   7.547   1.360   3.472 -1.2104 -0.2620  0.5106
  315MOL0     H41547   7.628   1.427   3.621  0.4578 -2.5059  4.7962
  315MOL0     H41548   7.460   1.259   3.675  0.3739  0.2193  3.3808
  315MOL0     H41549   7.614   1.197   3.731  2.6417 -0.1151 -1.5050
  315MOL0     H41550   7.622   1.034   3.568 -1.0068 -0.4664  0.2575
  315MOL0     H41551   7.507   1.102   3.457  0.1369  1.6474  0.5722
  315MOL0     H41552   7.445   0.984   3.746  0.1325 -1.5703  0.1937
  315MOL0     H41553   7.332   1.070   3.649 -2.1191 -1.6521 -0.2999
  315MOL0     H41554   7.286   0.845   3.617  0.4704 -0.4345 -0.1589
  315MOL0     H41555   7.458   0.801   3.596  0.6440  0.4016 -0.6282
  315MOL0     H41556   7.467   0.901   3.373 -0.3079 -4.1732 -0.6645
  315MOL0     H41557   7.293   0.949   3.395 -1.4031  0.6965  4.5264
  315MOL0     H41558   7.360   0.661   3.414  1.6984  2.0908  2.6638
  315MOL0     H41559   7.211   0.734   3.357 -1.3023  2.0344  1.0213
  315MOL0     H41560   7.355   0.643   3.163 -1.2313  1.1824 -3.4580
  315MOL0     H41561   7.487   0.739   3.229 -0.2922  0.4006 -0.2786
  315MOL0     H41562   7.718   1.530   3.367 -0.6991 -0.4129  0.7317
  315MOL0     H41563   7.893   1.671   3.304 -0.2447  0.2669  0.8536
  315MOL0     H41564   8.554   1.656   3.362 -0.7560 -3.4264 -1.0520
  315MOL0     H41565   8.677   1.761   3.180  0.0735  3.0617 -1.5462
  315MOL0     H41566   9.123   1.594   2.496 -1.4075 -1.9686 -0.5309
  315MOL0     H41567   8.924   1.457   2.587  0.4432 -0.1655 -1.7321
  315MOL0     H41568   8.513   1.555   2.854  0.6843  0.9730  0.4414
  315MOL0     H41569   8.317   1.464   2.970  0.2058 -0.5982 -2.6380
  315MOL0     H41570   8.153   1.251   3.003  0.2493  3.1042 -0.4766
  315MOL0     H41571   8.184   1.347   3.148  1.1890  0.6593  0.4757
  315MOL0     H41572   8.145   1.039   3.147  0.6130 -0.1052 -1.6708
  315MOL0     H41573   8.150   1.143   3.296 -0.0069 -0.9734 -0.0134
  315MOL0     H41574   7.963   1.257   3.235  1.6991  1.5456 -2.5625
  315MOL0     H41575   7.930   1.081   3.240  0.8842  0.4085 -0.3776
  315MOL0     H41576   7.904   1.282   3.026  1.9856  0.4248  0.7535
  315MOL0     H41577   7.977   1.125   2.974  1.5101  2.1509 -0.5237
  315MOL0     H41578   7.569   1.030   3.057  0.4241  1.1653  1.0464
  315MOL0     H41579   8.560   1.160   3.141  0.6495  1.4546  2.2911
  315MOL0     H41580   8.757   1.236   2.995 -1.6153 -1.7498  2.3773
  316MOL0     O41581   8.777   4.116   3.192 -0.1356  0.0680  0.2340
  316MOL0     C41582   8.763   4.200   3.283  1.1628 -0.3121  0.4010
  316MOL0     O41583   8.832   4.208   3.402  0.6132  1.0931  0.5380
  316MOL0     C41584   8.938   4.128   3.424 -0.1545  0.5784 -0.3165
  316MOL0     C41585   8.914   4.002   3.479  0.3493 -1.2402  0.5776
  316MOL0     C41586   9.021   3.925   3.521 -0.4511  0.6253 -0.5510
  316MOL0     C41587   9.149   3.974   3.513  0.0383  0.2753 -0.5700
  316MOL0     O41588   9.246   3.894   3.551 -0.4566  0.6153  0.1928
  316MOL0     C41589   9.364   3.939   3.620 -0.1245  0.6510  0.4733
  316MOL0     C41590   9.385   3.848   3.737  0.7686  0.4524 -0.4388
  316MOL0     C41591   9.507   3.884   3.819 -0.0944 -0.2614  0.2423
  316MOL0     C41592   9.505   4.036   3.864 -0.0811  0.9058 -0.6319
  316MOL0     C41593   9.631   4.067   3.958  0.6246 -0.6413 -0.2726
  316MOL0     C41594   9.760   4.027   3.892  1.2858 -0.0371 -0.2993
  316MOL0     C41595   9.876   4.087   3.961 -0.7247 -0.0331 -0.1815
  316MOL0     C41596   9.903   4.029   4.098  0.2926  0.4879  0.0761
  316MOL0     N41597   9.923   3.883   4.098 -0.3683 -0.4916  0.5248
  316MOL0     C41598  10.033   3.823   4.043 -0.5770  0.1710 -0.1535
  316MOL0     C41599  10.025   3.698   4.077  0.6519  0.4692 -0.3007
  316MOL0     C41600  10.107   3.584   4.026 -0.7350 -0.7148  0.1300
  316MOL0     C41601  10.024   3.480   3.958  0.1017  0.2659 -0.0420
  316MOL0     C41602  10.109   3.368   3.897  0.9634 -0.0057 -0.6194
  316MOL0     C41603  10.028   3.240   3.859  0.1109 -0.9753  0.4344
  316MOL0     O41604   9.935   3.280   3.748 -0.7952  0.4605 -0.2243
  316MOL0     C41605   9.814   3.216   3.742  0.0038 -0.7767 -1.2042
  316MOL0     C41606   9.807   3.080   3.739  0.4060 -0.3720  0.5174
  316MOL0     C41607   9.680   3.027   3.723  0.5083  0.7220  0.3414
  316MOL0     C41608   9.562   3.104   3.707 -1.1781  0.6395 -1.0894
  316MOL0     C41609   9.426   3.046   3.700 -0.4320  0.6591 -0.6954
  316MOL0     O41610   9.308   3.122   3.736 -0.4640  0.4771  0.7552
  316MOL0     C41611   9.196   3.049   3.719 -0.5222  0.1608  0.8226
  316MOL0     C41612   9.128   2.966   3.815  0.5276 -0.4963  0.7042
  316MOL0     C41613   9.011   2.900   3.774  0.6158  0.1060  0.5164
  316MOL0     C41614   8.957   2.912   3.647 -0.4231  0.5842 -0.0174
  316MOL0     O41615   8.847   2.843   3.617 -0.5359  0.1871  1.2214
  316MOL0     C41616   8.793   2.852   3.483  0.2024  0.0421 -0.7972
  316MOL0     C41617   8.678   2.746   3.479  0.1888  0.1457 -0.6750
  316MOL0     C41618   8.560   2.785   3.562  0.5687 -0.0761 -0.1816
  316MOL0     C41619   8.475   2.894   3.501 -0.3836 -0.7899 -0.5881
  316MOL0     C41620   8.411   2.835   3.373  0.6153 -0.7208 -0.1591
  316MOL0     C41621   8.342   2.695   3.389  0.0418 -0.1145  0.6952
  316MOL0     C41622   8.231   2.685   3.285  0.1819 -0.1142  0.3567
  316MOL0     C41623   8.298   2.717   3.154  0.2762  0.6658  0.3277
  316MOL0    Cl41624   8.190   2.670   3.026 -0.1260 -0.5066 -0.5147
  316MOL0     C41625   9.029   2.993   3.551  0.2181 -0.0954  0.6488
  316MOL0     C41626   9.142   3.061   3.586  0.0033  0.6095  0.3034
  316MOL0     O41627   9.428   2.928   3.652 -0.6331 -0.5635 -0.1501
  316MOL0     C41628   9.568   3.237   3.720 -0.5315 -0.7165  0.0080
  316MOL0     C41629   9.698   3.299   3.730  0.1741  0.0778  0.5008
  316MOL0     N41630   9.907   3.670   4.140  0.2314  0.2600 -1.0274
  316MOL0     N41631   9.852   3.789   4.162  0.4543  0.5256  0.3313
  316MOL0     C41632   9.180   4.095   3.451 -0.7075  0.0304 -0.2015
  316MOL0     C41633   9.069   4.174   3.421  0.1480 -0.2015  1.0815
  316MOL0     C41634   8.654   4.306   3.261  1.7102 -0.1996  0.1927
  316MOL0     C41635   8.606   4.345   3.132  0.6032  0.3693  0.0979
  316MOL0     C41636   8.521   4.452   3.109 -0.9527 -0.1047 -0.5032
  316MOL0     C41637   8.475   4.525   3.221 -0.0178 -0.3268  0.1322
  316MOL0     O41638   8.383   4.631   3.221  0.4142  0.5741 -0.4501
  316MOL0     C41639   8.333   4.679   3.090 -0.1902  0.2234  0.1676
  316MOL0     C41640   8.432   4.780   3.032 -0.3149  0.4158  0.3288
  316MOL0     C41641   8.389   4.835   2.899  0.8947  0.3915  0.1999
  316MOL0     C41642   8.498   4.905   2.814 -0.4108  0.2488 -1.0575
  316MOL0     C41643   8.474   4.899   2.673  0.7157 -0.7642  0.2801
  316MOL0     C41644   8.451   4.892   2.554 -0.6410  0.2841 -1.0151
  316MOL0     C41645   8.520   4.490   3.346 -0.1538 -0.5871 -0.2877
  316MOL0     C41646   8.614   4.385   3.363  0.6555 -0.1714  0.5861
  316MOL0     H41647   8.813   3.961   3.476  0.0200 -0.3907 -0.5809
  316MOL0     H41648   8.992   3.830   3.565  0.9324  0.0800 -0.7544
  316MOL0     H41649   9.349   4.040   3.661 -1.8145  1.1560 -1.2454
  316MOL0     H41650   9.447   3.944   3.549  0.3565  1.0827  1.0488
  316MOL0     H41651   9.405   3.745   3.705  2.7281  0.4097  0.7550
  316MOL0     H41652   9.292   3.842   3.795  0.9783  1.8477  0.0842
  316MOL0     H41653   9.591   3.867   3.750 -0.4110 -2.9680  0.3995
  316MOL0     H41654   9.528   3.807   3.894  0.5317 -0.8284 -0.4896
  316MOL0     H41655   9.503   4.093   3.770 -0.9990 -1.2304 -1.9615
  316MOL0     H41656   9.415   4.052   3.924  0.6810  0.0448  0.8052
  316MOL0     H41657   9.623   4.024   4.058  1.7775  0.7260  0.4284
  316MOL0     H41658   9.627   4.175   3.970  0.9198 -0.8605  2.4293
  316MOL0     H41659   9.776   4.064   3.791  0.4680  1.2450  0.0258
  316MOL0     H41660   9.762   3.918   3.876  1.7329  0.0268 -0.6880
  316MOL0     H41661   9.971   4.072   3.908  0.4232 -0.6661  1.9299
  316MOL0     H41662   9.866   4.195   3.949 -0.9618 -0.0692 -0.3091
  316MOL0     H41663   9.825   4.054   4.170  1.7701  2.9600  0.9599
  316MOL0     H41664   9.996   4.080   4.126 -1.2859  3.2597  0.6887
  316MOL0     H41665  10.110   3.861   3.976 -0.3935  0.5289  0.2588
  316MOL0     H41666  10.164   3.535   4.106 -0.3538 -3.9997 -1.9211
  316MOL0     H41667  10.186   3.621   3.960 -0.7667  1.0693  1.0457
  316MOL0     H41668   9.970   3.535   3.880 -1.9691 -1.0554  0.3802
  316MOL0     H41669   9.944   3.438   4.020 -1.3137 -0.6289 -2.3401
  316MOL0     H41670  10.176   3.395   3.814  0.2115 -1.0031 -1.5836
  316MOL0     H41671  10.164   3.336   3.986  0.2370  0.1617 -0.1089
  316MOL0     H41672   9.982   3.193   3.946  2.2970  0.0331  2.2448
  316MOL0     H41673  10.092   3.162   3.818  0.0505 -1.9257  2.0650
  316MOL0     H41674   9.894   3.017   3.754 -1.0874 -2.7292 -0.1727
  316MOL0     H41675   9.670   2.919   3.734 -0.2471  0.7123 -0.3737
  316MOL0     H41676   9.174   2.957   3.913 -1.2802  2.9852  2.0572
  316MOL0     H41677   8.966   2.823   3.836  0.0066  0.9736  1.1863
  316MOL0     H41678   8.858   2.823   3.400 -1.7805  2.7592 -3.5125
  316MOL0     H41679   8.756   2.952   3.462  0.3698  0.3357  0.2405
  316MOL0     H41680   8.699   2.648   3.523 -2.3571 -0.1560  0.0136
  316MOL0     H41681   8.646   2.730   3.375  2.8898  0.8398 -1.7043
  316MOL0     H41682   8.591   2.823   3.660 -1.0157 -1.6298  1.0038
  316MOL0     H41683   8.491   2.709   3.601 -0.1910  2.0831  3.0447
  316MOL0     H41684   8.397   2.915   3.575  0.8817 -0.1267  0.6041
  316MOL0     H41685   8.520   2.992   3.483 -0.4801 -0.7736 -0.7434
  316MOL0     H41686   8.493   2.828   3.301  0.4707 -2.2437 -0.1977
  316MOL0     H41687   8.342   2.911   3.337  2.4394 -0.6166 -3.8415
  316MOL0     H41688   8.297   2.692   3.489 -0.8827  2.5001  0.4381
  316MOL0     H41689   8.410   2.611   3.374 -0.8007 -0.6136 -0.4522
  316MOL0     H41690   8.190   2.586   3.302 -1.3017  0.2014 -1.1354
  316MOL0     H41691   8.150   2.756   3.306 -1.1834 -2.1284  2.3478
  316MOL0     H41692   8.387   2.655   3.166 -1.2197 -1.3847  1.5158
  316MOL0     H41693   8.318   2.823   3.137 -4.6459  1.5910 -1.2787
  316MOL0     H41694   8.994   3.004   3.449  2.0876  1.9459  0.1721
  316MOL0     H41695   9.197   3.137   3.530  0.5827  1.3982  1.8615
  316MOL0     H41696   9.480   3.297   3.698 -0.7673 -1.6364 -1.6875
  316MOL0     H41697   9.720   3.405   3.729 -3.0988  0.8713  1.5685
  316MOL0     H41698   9.282   4.116   3.418 -0.8458 -0.1691 -0.7714
  316MOL0     H41699   9.089   4.274   3.382 -0.1038 -1.5207 -2.9133
  316MOL0     H41700   8.645   4.296   3.043  1.6260  1.8445 -0.3086
  316MOL0     H41701   8.475   4.479   3.014 -2.2043  0.4609  0.2397
  316MOL0     H41702   8.236   4.726   3.109  0.2104  0.9323  0.5356
  316MOL0     H41703   8.316   4.605   3.011 -1.5770 -1.3836  1.8875
  316MOL0     H41704   8.442   4.864   3.102 -2.5003 -3.0650  5.4288
  316MOL0     H41705   8.523   4.720   3.024 -0.2076  0.5750  0.3368
  316MOL0     H41706   8.302   4.898   2.920 -0.0143 -1.3055  1.8050
  316MOL0     H41707   8.353   4.744   2.850  2.1395 -0.0631  0.1025
  316MOL0     H41708   8.513   5.010   2.841  0.2637 -0.0753 -0.1247
  316MOL0     H41709   8.585   4.845   2.841 -1.5884 -1.5847 -1.1208
  316MOL0     H41710   8.422   4.888   2.451  0.6173 -0.9853 -1.3572
  316MOL0     H41711   8.478   4.556   3.421  0.8609  1.9547 -1.8124
  316MOL0     H41712   8.649   4.376   3.465 -0.2246  0.8019  0.9801
  317MOL0     O41713   0.457   9.518   2.848 -0.1795 -0.2573  0.3444
  317MOL0     C41714   0.481   9.553   2.963 -0.1937 -0.3398 -0.1033
  317MOL0     O41715   0.604   9.598   3.006  0.2328  0.3933 -0.4950
  317MOL0     C41716   0.702   9.601   2.914 -0.3732 -0.1624 -0.1622
  317MOL0     C41717   0.815   9.516   2.926  0.0463  0.4832  1.0349
  317MOL0     C41718   0.922   9.521   2.829 -0.0684  0.6099 -0.6058
  317MOL0     C41719   0.930   9.633   2.739  0.0407  0.5336 -0.8009
  317MOL0     O41720   1.038   9.659   2.648  0.5746 -0.7108  0.0610
  317MOL0     C41721   1.162   9.589   2.673 -0.3029  1.0677 -0.2287
  317MOL0     C41722   1.162   9.453   2.603 -0.4659  0.0281  0.0495
  317MOL0     C41723   1.239   9.343   2.686 -0.4672 -1.1039 -0.2296
  317MOL0     C41724   1.230   9.203   2.620 -0.9726 -0.4308  0.4643
  317MOL0     C41725   1.354   9.110   2.652 -0.4492 -0.2107  0.1124
  317MOL0     C41726   1.381   9.096   2.806 -0.2728  0.6398 -0.5195
  317MOL0     C41727   1.516   9.024   2.813  0.4309  0.6616 -0.2458
  317MOL0     C41728   1.508   8.881   2.742 -0.0523 -0.3103  0.0688
  317MOL0     N41729   1.600   8.794   2.801 -0.4572 -0.1153  0.5779
  317MOL0     C41730   1.580   8.709   2.911 -0.9855 -0.3589  0.0228
  317MOL0     C41731   1.706   8.656   2.940  0.5991  0.2075 -0.9032
  317MOL0     C41732   1.751   8.578   3.054  0.3543  1.5004  0.9301
  317MOL0     C41733   1.810   8.442   2.999 -0.4650  0.6697 -0.0763
  317MOL0     C41734   1.699   8.350   2.963 -0.4441  0.3047 -0.0181
  317MOL0     C41735   1.752   8.222   2.908 -0.1710  0.1664  0.4111
  317MOL0     O41736   1.824   8.237   2.777 -0.0034  0.0932 -0.2848
  317MOL0     C41737   1.804   8.138   2.680  0.0615 -0.4743  0.6322
  317MOL0     C41738   1.908   8.107   2.592 -0.2674  0.3130  0.7510
  317MOL0     C41739   1.893   8.020   2.481  1.0478 -0.4235 -0.2043
  317MOL0     C41740   1.760   7.975   2.455  0.0602 -0.3281 -0.7711
  317MOL0     C41741   1.728   7.890   2.343 -0.5020 -0.7736  0.2953
  317MOL0     O41742   1.822   7.884   2.241 -1.1654  0.7253 -0.0185
  317MOL0     C41743   1.788   7.849   2.115 -0.6179 -0.8324 -0.4989
  317MOL0     C41744   1.844   7.743   2.045 -0.4076  1.4945  1.1463
  317MOL0     C41745   1.802   7.716   1.913  0.3699 -0.2014 -0.4595
  317MOL0     C41746   1.720   7.798   1.836  0.2834  0.0546 -0.0228
  317MOL0     O41747   1.713   7.768   1.701 -0.3624 -0.3204  0.8953
  317MOL0     C41748   1.638   7.855   1.615 -0.6164 -0.8528 -0.9167
  317MOL0     C41749   1.638   7.799   1.473 -0.0089  0.2799 -0.8008
  317MOL0     C41750   1.595   7.888   1.365 -0.0710  0.2122 -0.3061
  317MOL0     C41751   1.463   7.944   1.392  0.7241 -0.0798 -0.6601
  317MOL0     C41752   1.421   8.040   1.281  0.4579 -0.0148  0.3692
  317MOL0     C41753   1.514   8.172   1.273  0.5808 -0.2666 -0.1877
  317MOL0     C41754   1.499   8.270   1.395 -0.2539  0.9234 -0.6957
  317MOL0     C41755   1.544   8.413   1.357  0.6572 -0.1967  0.0950
  317MOL0    Cl41756   1.514   8.530   1.490  0.2048  0.1352  0.1098
  317MOL0     C41757   1.674   7.911   1.906  0.2419  0.8453  0.5967
  317MOL0     C41758   1.702   7.937   2.046 -0.0735 -0.2733 -0.0443
  317MOL0     O41759   1.624   7.824   2.342 -0.1515 -0.4678  0.1079
  317MOL0     C41760   1.656   8.004   2.547 -0.3543 -0.4997  1.0863
  317MOL0     C41761   1.677   8.090   2.662 -0.5137  0.6111  1.7051
  317MOL0     N41762   1.787   8.706   2.838 -0.5696  0.4558 -0.2026
  317MOL0     N41763   1.725   8.783   2.750  0.5786  0.0520 -1.0273
  317MOL0     C41764   0.820   9.712   2.736  0.8122 -0.3849  0.2249
  317MOL0     C41765   0.706   9.700   2.820 -0.3989 -0.3562  0.3460
  317MOL0     C41766   0.379   9.537   3.066 -1.1112 -0.3261  0.5205
  317MOL0     C41767   0.415   9.547   3.198 -0.1263 -0.1576 -0.9872
  317MOL0     C41768   0.328   9.540   3.301  0.5917 -0.5461 -0.5525
  317MOL0     C41769   0.197   9.483   3.281  0.1759  0.4594 -0.1058
  317MOL0     O41770   0.113   9.470   3.390 -0.0504 -0.9861 -0.2860
  317MOL0     C41771  -0.027   9.505   3.376  0.2496 -0.2170  0.9545
  317MOL0     C41772  -0.093   9.526   3.508 -0.7117  0.3607  0.4185
  317MOL0     C41773  -0.066   9.407   3.610 -0.2238  0.8606 -1.2522
  317MOL0     C41774  -0.135   9.434   3.744  1.3599  0.1898 -0.2642
  317MOL0     C41775  -0.060   9.505   3.843 -0.2841  0.8216  1.1718
  317MOL0     C41776   0.011   9.568   3.910 -0.5124  0.5136  0.1085
  317MOL0     C41777   0.163   9.473   3.142 -0.3555  0.1218  0.3385
  317MOL0     C41778   0.255   9.493   3.038  0.7844 -0.3899  0.2224
  317MOL0     H41779   0.818   9.457   3.017 -1.2673 -1.9673 -0.3995
  317MOL0     H41780   1.002   9.451   2.848  0.1248  1.2894  1.2280
  317MOL0     H41781   1.171   9.584   2.781 -0.2810 -0.4921 -0.2861
  317MOL0     H41782   1.238   9.647   2.618 -0.3973  0.0642 -1.4666
  317MOL0     H41783   1.223   9.455   2.512  2.9243 -3.0853  1.9590
  317MOL0     H41784   1.058   9.425   2.586 -0.4201  1.4705 -3.3114
  317MOL0     H41785   1.199   9.330   2.788  1.0043 -0.8560  0.4046
  317MOL0     H41786   1.342   9.378   2.682 -1.5506  2.6076  0.3070
  317MOL0     H41787   1.135   9.162   2.655 -0.0270  0.2523  4.2947
  317MOL0     H41788   1.226   9.215   2.511 -1.4233  0.0301  0.5256
  317MOL0     H41789   1.435   9.164   2.602 -0.9337  1.3032  0.8970
  317MOL0     H41790   1.330   9.012   2.611  0.5859 -0.7215  0.6860
  317MOL0     H41791   1.302   9.040   2.856  0.0433  3.6801  3.9570
  317MOL0     H41792   1.382   9.189   2.864  2.8692 -1.8600  4.1609
  317MOL0     H41793   1.594   9.088   2.769 -0.3954 -0.0089 -2.9179
  317MOL0     H41794   1.551   9.013   2.916 -1.5193 -1.3823  0.2742
  317MOL0     H41795   1.541   8.898   2.640  2.3148 -1.7916  0.5257
  317MOL0     H41796   1.408   8.836   2.741  0.9482 -2.8781 -3.4672
  317MOL0     H41797   1.486   8.700   2.965 -1.3164  3.2643  0.3033
  317MOL0     H41798   1.666   8.548   3.116  0.7774 -1.2590  0.2759
  317MOL0     H41799   1.821   8.627   3.122 -0.0401 -1.6140  3.7941
  317MOL0     H41800   1.871   8.397   3.077 -1.2897  3.6532  2.4887
  317MOL0     H41801   1.886   8.456   2.921  1.0689  2.3672  1.6302
  317MOL0     H41802   1.646   8.325   3.055  0.4287 -1.8118 -0.0361
  317MOL0     H41803   1.634   8.393   2.887  0.3977  1.2575 -0.2231
  317MOL0     H41804   1.663   8.159   2.898 -2.0765  2.7357  0.0971
  317MOL0     H41805   1.831   8.184   2.974  3.5065  0.5928 -3.3394
  317MOL0     H41806   1.996   8.169   2.594  1.0170 -1.2772 -1.6384
  317MOL0     H41807   1.966   8.011   2.401 -1.9919 -0.7758 -3.2020
  317MOL0     H41808   1.912   7.682   2.103 -1.5842 -0.7945  0.2421
  317MOL0     H41809   1.829   7.623   1.862 -0.6896 -0.7442 -0.0678
  317MOL0     H41810   1.669   7.959   1.621  0.4901 -1.1763  4.6473
  317MOL0     H41811   1.534   7.857   1.650  0.8685 -1.2329  4.4221
  317MOL0     H41812   1.583   7.705   1.472  0.9298 -0.3891  1.8452
  317MOL0     H41813   1.738   7.761   1.449 -0.6104 -0.9410 -1.4939
  317MOL0     H41814   1.599   7.844   1.264 -0.3362 -2.5300  0.7854
  317MOL0     H41815   1.682   7.955   1.367  1.3164 -1.4738  2.4086
  317MOL0     H41816   1.388   7.864   1.397  1.1890 -0.4794  0.1042
  317MOL0     H41817   1.447   7.996   1.487  0.0432 -0.5958 -0.4842
  317MOL0     H41818   1.314   8.057   1.293  0.1143 -1.6251 -0.2115
  317MOL0     H41819   1.421   7.988   1.185 -0.0033  0.5412  0.0585
  317MOL0     H41820   1.490   8.222   1.179 -0.4855 -2.1998 -1.0041
  317MOL0     H41821   1.617   8.138   1.267  1.0821  1.1304  0.1793
  317MOL0     H41822   1.395   8.263   1.427 -0.5081 -1.0700 -1.7479
  317MOL0     H41823   1.544   8.215   1.478 -3.4935  0.0619  0.6245
  317MOL0     H41824   1.499   8.435   1.260  3.3193  1.3659 -0.9043
  317MOL0     H41825   1.650   8.422   1.329 -0.2992  3.2835 -3.1518
  317MOL0     H41826   1.614   7.990   1.862 -1.5611 -0.1870  1.1383
  317MOL0     H41827   1.668   8.029   2.093 -2.6994 -0.3092 -1.7043
  317MOL0     H41828   1.553   7.976   2.525 -1.1686  2.1360  1.1973
  317MOL0     H41829   1.591   8.115   2.724 -1.2856 -1.6380  1.6161
  317MOL0     H41830   0.809   9.783   2.654  1.1557  0.9853  1.3205
  317MOL0     H41831   0.621   9.767   2.815 -2.1295 -2.4197  0.5838
  317MOL0     H41832   0.512   9.578   3.236 -0.5148 -1.1948  1.0355
  317MOL0     H41833   0.354   9.555   3.406  2.2208 -2.3654 -0.6297
  317MOL0     H41834  -0.069   9.411   3.339  2.6735 -1.4159  1.0584
  317MOL0     H41835  -0.043   9.584   3.302  1.7759 -0.8931 -0.1556
  317MOL0     H41836  -0.067   9.617   3.564 -2.8023  2.5190 -1.8566
  317MOL0     H41837  -0.201   9.529   3.491 -0.8749 -4.6871 -1.2148
  317MOL0     H41838   0.040   9.394   3.635 -0.9985 -1.5439  1.2369
  317MOL0     H41839  -0.096   9.313   3.563 -0.8188  0.7796 -0.7101
  317MOL0     H41840  -0.231   9.484   3.731  1.1939 -0.1400 -0.3364
  317MOL0     H41841  -0.142   9.335   3.790  4.8491  0.1023  0.3103
  317MOL0     H41842   0.064   9.634   3.976  2.2916 -1.5084  0.0780
  317MOL0     H41843   0.061   9.440   3.126 -1.1462  0.1530  4.3226
  317MOL0     H41844   0.216   9.473   2.939  0.0781 -0.9878  0.6192
  318MOL0     O41845   7.073   2.719   0.643  0.8540 -0.2854  0.2428
  318MOL0     C41846   7.134   2.625   0.597  0.2554 -0.1586 -0.3542
  318MOL0     O41847   7.080   2.503   0.567  0.0565 -0.3595 -1.0924
  318MOL0     C41848   6.948   2.481   0.589  0.3069  0.1624 -0.7156
  318MOL0     C41849   6.904   2.459   0.715  0.0781  0.6869 -0.1979
  318MOL0     C41850   6.772   2.454   0.747 -0.1666 -0.6741  0.4060
  318MOL0     C41851   6.677   2.475   0.645 -0.0483  0.6993  0.3527
  318MOL0     O41852   6.546   2.469   0.677  0.1160 -0.7270 -0.0942
  318MOL0     C41853   6.485   2.349   0.630  0.0200  0.0566 -0.0623
  318MOL0     C41854   6.371   2.303   0.720  0.4488  0.5484 -0.1827
  318MOL0     C41855   6.296   2.188   0.672 -0.2024  0.9853 -0.1346
  318MOL0     C41856   6.182   2.136   0.756  0.6200 -0.1633 -0.0872
  318MOL0     C41857   6.086   2.253   0.811 -0.0750  0.2262 -1.2267
  318MOL0     C41858   5.953   2.215   0.863 -0.2155  0.9617 -0.1844
  318MOL0     C41859   5.855   2.324   0.889  0.5829  0.0602 -1.0163
  318MOL0     C41860   5.751   2.281   0.987  0.6473  0.5032  0.5540
  318MOL0     N41861   5.671   2.171   0.957  0.5431  0.5946  0.2148
  318MOL0     C41862   5.544   2.187   0.897  0.2346  0.6540  0.3539
  318MOL0     C41863   5.500   2.058   0.909  0.4108 -0.0592  0.3078
  318MOL0     C41864   5.360   2.011   0.854  0.9530 -1.0063  0.6279
  318MOL0     C41865   5.343   2.029   0.701 -0.2687 -0.4112  0.2605
  318MOL0     C41866   5.327   2.182   0.660 -0.3748 -0.6688 -0.0386
  318MOL0     C41867   5.211   2.201   0.565 -0.5074  0.6057  0.2862
  318MOL0     O41868   5.192   2.339   0.531 -0.4993  0.0983  0.4890
  318MOL0     C41869   5.175   2.373   0.398 -0.1742 -0.1125 -0.0673
  318MOL0     C41870   5.171   2.287   0.288 -0.6159 -0.7910  0.0636
  318MOL0     C41871   5.190   2.327   0.159  0.3836 -0.1462  0.0627
  318MOL0     C41872   5.196   2.465   0.127 -0.0062 -0.6636 -0.6027
  318MOL0     C41873   5.182   2.511  -0.012  0.2144 -0.3087 -0.0683
  318MOL0     O41874   5.144   2.421  -0.098 -0.6232  0.1322 -0.2816
  318MOL0     C41875   5.103   2.455  -0.223 -0.1480 -0.5214  0.1728
  318MOL0     C41876   5.033   2.567  -0.268  0.4039 -0.9693 -0.2971
  318MOL0     C41877   4.993   2.593  -0.402  0.3062 -0.3536  0.1239
  318MOL0     C41878   5.041   2.507  -0.505 -0.1399 -0.1073 -1.1846
  318MOL0     O41879   5.011   2.522  -0.636 -0.2436  0.0002 -0.3813
  318MOL0     C41880   4.943   2.635  -0.688 -0.3721 -0.1104 -0.2915
  318MOL0     C41881   4.794   2.625  -0.676 -0.6701  0.7230 -0.6214
  318MOL0     C41882   4.730   2.756  -0.691  1.4676  0.5395 -0.6812
  318MOL0     C41883   4.584   2.757  -0.650 -1.1656 -0.3911 -0.6561
  318MOL0     C41884   4.493   2.701  -0.755  0.0211 -0.2488 -0.8075
  318MOL0     C41885   4.458   2.783  -0.872 -0.1315  0.8459  0.2038
  318MOL0     C41886   4.377   2.711  -0.982  0.2765  0.4327  0.1427
  318MOL0     C41887   4.325   2.817  -1.084 -0.1864 -0.6975  0.6083
  318MOL0    Cl41888   4.461   2.874  -1.185 -0.3444  0.0756 -0.5834
  318MOL0     C41889   5.119   2.402  -0.458  0.2686 -1.1109  1.0490
  318MOL0     C41890   5.138   2.366  -0.325 -0.0588  0.6994  0.8582
  318MOL0     O41891   5.189   2.631  -0.032 -0.3573  0.2883 -0.4693
  318MOL0     C41892   5.204   2.563   0.236 -0.5008  0.1738  0.5071
  318MOL0     C41893   5.195   2.514   0.367  0.5327  0.4339  0.5699
  318MOL0     N41894   5.588   1.974   0.974  0.7569 -0.7829  0.0401
  318MOL0     N41895   5.694   2.045   0.997  0.4889  0.0050  0.1486
  318MOL0     C41896   6.713   2.497   0.513 -1.2142  0.9391  0.4144
  318MOL0     C41897   6.855   2.508   0.492 -0.5976 -0.5569 -0.1351
  318MOL0     C41898   7.271   2.652   0.565  0.6957 -0.0279 -0.0626
  318MOL0     C41899   7.341   2.765   0.618  0.0595 -0.0606  0.3822
  318MOL0     C41900   7.481   2.776   0.607 -0.1429  0.1038  0.5968
  318MOL0     C41901   7.561   2.680   0.542  0.6214 -0.2224 -0.8385
  318MOL0     O41902   7.695   2.702   0.524  0.8892 -0.2875 -0.8046
  318MOL0     C41903   7.738   2.830   0.478  0.4874  0.0122  0.1822
  318MOL0     C41904   7.669   2.869   0.344  0.3085 -0.2558 -0.9695
  318MOL0     C41905   7.747   2.804   0.227  0.0438 -0.0335  0.0347
  318MOL0     C41906   7.693   2.839   0.088 -0.4939 -0.7078  0.4022
  318MOL0     C41907   7.565   2.769   0.062 -0.2860 -0.3349  0.1466
  318MOL0     C41908   7.458   2.715   0.041 -0.7795  0.1486  0.0052
  318MOL0     C41909   7.493   2.569   0.486  0.3691  0.6651 -0.2497
  318MOL0     C41910   7.353   2.558   0.503  0.2582  0.9893  0.5347
  318MOL0     H41911   6.972   2.441   0.798  1.2542 -1.9909 -1.6031
  318MOL0     H41912   6.740   2.444   0.850  1.3162  0.3141  1.0058
  318MOL0     H41913   6.559   2.268   0.636  1.5071  1.2721 -1.3046
  318MOL0     H41914   6.445   2.353   0.528  0.5167 -2.5273 -0.4240
  318MOL0     H41915   6.297   2.380   0.744  2.2447  1.6204  2.3408
  318MOL0     H41916   6.423   2.291   0.815 -0.0033  0.4867  0.0597
  318MOL0     H41917   6.374   2.116   0.642  2.5548  3.2548  1.1187
  318MOL0     H41918   6.239   2.232   0.590 -2.0980  0.3024  0.7570
  318MOL0     H41919   6.121   2.077   0.688  0.8945  0.4003 -0.8419
  318MOL0     H41920   6.220   2.071   0.834 -2.2711 -0.9432  0.7775
  318MOL0     H41921   6.079   2.340   0.745 -0.3147  1.9550  0.9832
  318MOL0     H41922   6.135   2.285   0.903  0.6207 -1.6553 -0.9110
  318MOL0     H41923   5.971   2.158   0.955 -1.8997  0.9359  0.1502
  318MOL0     H41924   5.912   2.150   0.785  1.4599  1.5262 -1.5906
  318MOL0     H41925   5.905   2.412   0.931  0.6085  0.3741 -1.6843
  318MOL0     H41926   5.820   2.354   0.790  0.6864  2.1559 -0.4651
  318MOL0     H41927   5.688   2.368   1.006  1.7081  2.3132 -3.2479
  318MOL0     H41928   5.809   2.255   1.077  0.3285  0.4698  0.7517
  318MOL0     H41929   5.497   2.270   0.846 -1.9572 -0.2946  0.7154
  318MOL0     H41930   5.287   2.070   0.911  1.3652 -0.4737  0.6186
  318MOL0     H41931   5.349   1.902   0.858  0.5465 -1.0095 -0.3855
  318MOL0     H41932   5.255   1.974   0.668 -0.0152  0.1707 -1.4624
  318MOL0     H41933   5.437   1.989   0.663  0.3929 -0.1510  1.5467
  318MOL0     H41934   5.314   2.244   0.749 -3.4477 -2.0488  0.5819
  318MOL0     H41935   5.419   2.222   0.616 -1.3247  1.1607 -0.4762
  318MOL0     H41936   5.118   2.150   0.591  0.6315 -1.2937  0.7720
  318MOL0     H41937   5.246   2.144   0.478 -0.7522  1.4231 -0.3722
  318MOL0     H41938   5.151   2.182   0.309 -3.3181 -0.5234 -0.7703
  318MOL0     H41939   5.189   2.262   0.072  1.0629 -2.9152  1.9926
  318MOL0     H41940   5.001   2.633  -0.187  4.3462  2.2284 -1.0469
  318MOL0     H41941   4.932   2.678  -0.429 -1.8812 -0.8113  3.1008
  318MOL0     H41942   4.969   2.649  -0.793  0.1299  0.5064 -0.0994
  318MOL0     H41943   4.982   2.729  -0.645 -0.6934  1.1358 -2.5720
  318MOL0     H41944   4.772   2.580  -0.579 -2.9332  1.3847 -0.7628
  318MOL0     H41945   4.765   2.547  -0.747  1.1093 -0.3883 -0.1772
  318MOL0     H41946   4.747   2.800  -0.790 -3.6838  3.9665 -0.4310
  318MOL0     H41947   4.774   2.826  -0.619  4.2161 -2.3178  0.6983
  318MOL0     H41948   4.577   2.710  -0.552 -0.4006 -1.3355 -1.0360
  318MOL0     H41949   4.558   2.863  -0.639 -0.8564 -0.1433 -2.0488
  318MOL0     H41950   4.399   2.695  -0.699  0.8843  0.4701  0.7784
  318MOL0     H41951   4.528   2.598  -0.768  0.5420 -0.2988  0.7965
  318MOL0     H41952   4.555   2.808  -0.915 -0.7424 -0.2362 -1.9291
  318MOL0     H41953   4.404   2.873  -0.842 -0.4382  0.6052  0.3844
  318MOL0     H41954   4.437   2.637  -1.036 -0.5460 -1.1682  1.3330
  318MOL0     H41955   4.282   2.677  -0.940 -0.3094  2.0668  0.1902
  318MOL0     H41956   4.285   2.910  -1.043  3.0370  0.7382  0.8845
  318MOL0     H41957   4.246   2.765  -1.138 -0.8136  0.6908  0.1481
  318MOL0     H41958   5.166   2.335  -0.530  3.0261  1.0764  0.6589
  318MOL0     H41959   5.210   2.290  -0.295  0.0585  0.4898  0.0756
  318MOL0     H41960   5.200   2.670   0.224 -0.8947  0.1341  0.2350
  318MOL0     H41961   5.203   2.584   0.450  0.2199  1.2062 -0.0393
  318MOL0     H41962   6.638   2.507   0.436 -2.4645 -3.5338  0.7485
  318MOL0     H41963   6.890   2.539   0.394  2.4802 -2.3611  0.2846
  318MOL0     H41964   7.289   2.839   0.678  1.0640 -0.0552  1.2669
  318MOL0     H41965   7.526   2.863   0.654 -0.7487 -0.0557  1.4971
  318MOL0     H41966   7.847   2.842   0.476  0.2351  2.8839 -0.9806
  318MOL0     H41967   7.707   2.905   0.551 -1.3453 -1.1787  0.6985
  318MOL0     H41968   7.565   2.835   0.348  0.1807  0.1576 -0.6581
  318MOL0     H41969   7.665   2.976   0.325  0.5177 -0.5452 -2.7965
  318MOL0     H41970   7.741   2.695   0.227 -5.9604 -0.0298  1.5827
  318MOL0     H41971   7.849   2.841   0.241 -0.5784  0.8015  2.9833
  318MOL0     H41972   7.680   2.947   0.076  0.3523 -0.3753  2.2283
  318MOL0     H41973   7.763   2.809   0.009 -2.1376 -0.5614 -1.1985
  318MOL0     H41974   7.369   2.657   0.025  0.0316 -2.3413  3.3683
  318MOL0     H41975   7.538   2.489   0.428 -2.6599 -2.0964  0.8998
  318MOL0     H41976   7.308   2.470   0.458  2.0629  0.1822  0.2167
  319MOL0     O41977   0.118   1.951   3.018  0.1647  0.7850  0.5033
  319MOL0     C41978   0.180   1.843   3.017 -0.8133 -0.4811 -0.1473
  319MOL0     O41979   0.131   1.717   3.003  0.5392  0.0210 -0.0577
  319MOL0     C41980   0.001   1.692   2.963  0.6596 -0.2064  0.0202
  319MOL0     C41981  -0.053   1.576   3.013  0.7417  0.2502  0.1197
  319MOL0     C41982  -0.190   1.561   3.001 -0.8868  0.4019 -0.3206
  319MOL0     C41983  -0.275   1.661   2.952 -1.1239  0.1217 -0.8415
  319MOL0     O41984  -0.400   1.629   2.954 -0.3013  0.1523 -0.2847
  319MOL0     C41985  -0.465   1.672   3.081  0.3361  0.2980  0.0943
  319MOL0     C41986  -0.492   1.829   3.095  0.4335  0.3970 -0.0793
  319MOL0     C41987  -0.607   1.853   3.183 -0.3718  0.7797 -0.6299
  319MOL0     C41988  -0.585   1.806   3.332 -0.7002  0.1410  0.6048
  319MOL0     C41989  -0.704   1.839   3.420 -0.7218  0.1769  0.2433
  319MOL0     C41990  -0.767   1.971   3.415  0.0074 -0.3327  0.0335
  319MOL0     C41991  -0.870   1.996   3.529  0.1888  0.0045 -0.7508
  319MOL0     C41992  -0.808   2.045   3.663  0.6298 -0.1273 -0.7749
  319MOL0     N41993  -0.908   2.056   3.771  0.4494 -0.4478  1.0371
  319MOL0     C41994  -0.904   2.144   3.875 -0.0956  0.1907 -0.3682
  319MOL0     C41995  -1.014   2.122   3.946  0.8628 -0.8514 -0.6918
  319MOL0     C41996  -1.043   2.202   4.073 -1.3986  0.5312  0.3981
  319MOL0     C41997  -0.930   2.174   4.173 -0.2831 -0.1220  0.0463
  319MOL0     C41998  -0.923   2.027   4.225  0.7141 -0.5517  0.3311
  319MOL0     C41999  -0.784   1.988   4.273  0.3134  0.0454  0.5219
  319MOL0     O42000  -0.732   2.046   4.389  0.2292  0.5273  0.2844
  319MOL0     C42001  -0.595   2.041   4.398  0.3959  0.0186 -0.3538
  319MOL0     C42002  -0.523   2.150   4.439 -0.0166  0.4475  0.6029
  319MOL0     C42003  -0.390   2.139   4.458 -0.7556 -0.1712 -0.5803
  319MOL0     C42004  -0.313   2.025   4.426 -0.5775 -0.5437  0.4586
  319MOL0     C42005  -0.166   2.014   4.459  0.6620 -0.6250 -0.3658
  319MOL0     O42006  -0.135   2.117   4.549  0.2851  0.1538  0.6787
  319MOL0     C42007  -0.011   2.114   4.601 -0.1805  1.0461 -0.1939
  319MOL0     C42008   0.110   2.108   4.537 -0.6269 -0.2056  0.6499
  319MOL0     C42009   0.231   2.133   4.607 -0.4262 -0.0980 -0.7204
  319MOL0     C42010   0.231   2.145   4.749  0.9629  0.5650  0.7232
  319MOL0     O42011   0.353   2.156   4.815 -0.2511  0.4902 -0.0951
  319MOL0     C42012   0.395   2.069   4.926  0.2988 -1.0872  0.5790
  319MOL0     C42013   0.391   1.918   4.890 -0.2931 -0.4223 -1.1723
  319MOL0     C42014   0.482   1.879   4.774 -0.1693 -0.1544 -0.9106
  319MOL0     C42015   0.476   1.730   4.755 -0.5377  0.6892 -0.2550
  319MOL0     C42016   0.588   1.692   4.653 -0.1613  0.4715 -0.6211
  319MOL0     C42017   0.563   1.742   4.509  1.0854 -0.5421  0.4549
  319MOL0     C42018   0.640   1.664   4.396  0.0963 -0.4200  0.2426
  319MOL0     C42019   0.785   1.701   4.379 -1.0355 -0.9970 -0.0462
  319MOL0    Cl42020   0.784   1.865   4.294 -0.1323 -0.2023  0.5446
  319MOL0     C42021   0.103   2.151   4.813 -0.0064  0.4110  0.0593
  319MOL0     C42022  -0.013   2.134   4.736 -0.4864  0.0094  0.5434
  319MOL0     O42023  -0.081   1.931   4.418  0.1691  0.2133 -0.1887
  319MOL0     C42024  -0.380   1.923   4.359  0.3112  0.2691  0.4119
  319MOL0     C42025  -0.521   1.922   4.360 -0.4215  0.2195 -0.2180
  319MOL0     N42026  -1.073   2.006   3.900  0.5729 -1.2187 -0.1152
  319MOL0     N42027  -1.019   1.975   3.784 -0.1465 -0.3700  0.5604
  319MOL0     C42028  -0.220   1.769   2.892  0.1309 -0.7314  0.2513
  319MOL0     C42029  -0.083   1.790   2.900 -0.7449 -0.7182  0.6663
  319MOL0     C42030   0.328   1.862   3.033 -0.3894  0.5383  0.3569
  319MOL0     C42031   0.378   1.977   3.089  0.2841 -0.4852 -0.3241
  319MOL0     C42032   0.512   1.998   3.117  0.4369 -0.5142 -0.0610
  319MOL0     C42033   0.604   1.900   3.084  0.6366 -0.0100 -0.4247
  319MOL0     O42034   0.734   1.930   3.093 -0.1980 -0.0672 -0.0979
  319MOL0     C42035   0.781   2.019   2.994  0.1673 -0.4899 -0.0316
  319MOL0     C42036   0.896   1.978   2.914  0.6252 -0.4644  0.0911
  319MOL0     C42037   1.030   1.979   2.992 -0.0790 -0.4576  0.5814
  319MOL0     C42038   1.037   1.903   3.116  0.3427 -0.1022 -0.5252
  319MOL0     C42039   1.034   1.996   3.237 -1.4196 -0.1957 -0.2127
  319MOL0     C42040   1.036   2.069   3.338 -0.1214 -0.0318  0.0716
  319MOL0     C42041   0.565   1.784   3.033 -0.5215  0.2253 -0.2440
  319MOL0     C42042   0.425   1.774   2.994  0.2712  0.1406 -1.0119
  319MOL0     H42043   0.016   1.496   3.036 -0.8757 -1.1599  0.2635
  319MOL0     H42044  -0.231   1.465   3.032  0.1020 -0.1414 -0.6489
  319MOL0     H42045  -0.404   1.649   3.168  0.6177 -3.6839 -0.9586
  319MOL0     H42046  -0.556   1.613   3.093  0.5260  0.0034  0.0904
  319MOL0     H42047  -0.521   1.877   3.002 -2.4367  0.3250  0.6832
  319MOL0     H42048  -0.401   1.878   3.133  0.9569 -1.1206  0.7243
  319MOL0     H42049  -0.704   1.823   3.143 -1.1120  0.4640  1.2980
  319MOL0     H42050  -0.617   1.959   3.207  0.3826  0.5538  0.7620
  319MOL0     H42051  -0.580   1.697   3.332 -1.4529  0.0766 -1.3012
  319MOL0     H42052  -0.493   1.857   3.360 -0.9937  1.4885 -0.7824
  319MOL0     H42053  -0.676   1.822   3.525 -0.0268  1.2852  0.2534
  319MOL0     H42054  -0.782   1.768   3.393  0.2186 -0.6753 -0.2869
  319MOL0     H42055  -0.827   1.980   3.324 -1.0906  4.4025  0.9102
  319MOL0     H42056  -0.692   2.051   3.409  0.5086 -0.9020 -2.1876
  319MOL0     H42057  -0.957   2.057   3.503 -2.5342 -1.7667  3.1696
  319MOL0     H42058  -0.920   1.900   3.543  0.2364  0.0766 -0.0477
  319MOL0     H42059  -0.765   2.144   3.643 -2.6089  1.6636  0.3273
  319MOL0     H42060  -0.733   1.978   3.704 -0.1003 -1.7283 -1.9420
  319MOL0     H42061  -0.832   2.223   3.895 -0.3534  1.2902 -3.2515
  319MOL0     H42062  -1.143   2.173   4.106 -0.5644 -2.4155  0.6103
  319MOL0     H42063  -1.031   2.306   4.041  2.9544 -0.3140 -1.5864
  319MOL0     H42064  -0.957   2.240   4.256  0.0331 -0.3085  0.3022
  319MOL0     H42065  -0.833   2.209   4.135 -0.2642  0.8384  0.9221
  319MOL0     H42066  -1.001   2.019   4.301  1.1597  4.0664  1.5976
  319MOL0     H42067  -0.952   1.963   4.142  2.4312 -0.8005 -0.1108
  319MOL0     H42068  -0.721   2.023   4.190 -1.6832  1.6491 -0.4210
  319MOL0     H42069  -0.792   1.879   4.275 -1.0282  0.0032 -2.2908
  319MOL0     H42070  -0.568   2.245   4.467  2.2769  1.6621  0.4389
  319MOL0     H42071  -0.342   2.229   4.496  1.0422 -0.6319 -1.5953
  319MOL0     H42072   0.117   2.097   4.429 -1.9517 -0.8618  0.6173
  319MOL0     H42073   0.325   2.130   4.554  1.5535 -2.9138  2.5227
  319MOL0     H42074   0.320   2.081   5.005  0.4765 -3.7288  1.2313
  319MOL0     H42075   0.496   2.095   4.960  1.4062  1.1256 -3.6599
  319MOL0     H42076   0.288   1.897   4.858 -0.5370  1.8326 -2.1029
  319MOL0     H42077   0.423   1.859   4.976  1.5682  0.1128 -1.4528
  319MOL0     H42078   0.587   1.908   4.789 -0.4296  0.7451 -0.8025
  319MOL0     H42079   0.448   1.935   4.686 -3.5804  1.7548  1.3866
  319MOL0     H42080   0.512   1.682   4.847 -1.2817 -1.0766 -0.8566
  319MOL0     H42081   0.373   1.694   4.748  0.2844 -2.1836  0.9292
  319MOL0     H42082   0.597   1.583   4.650  0.0173  0.4851 -0.5624
  319MOL0     H42083   0.687   1.730   4.678  0.5337 -1.5386 -0.1302
  319MOL0     H42084   0.595   1.846   4.511  0.2912 -0.2855  0.2815
  319MOL0     H42085   0.455   1.741   4.494  0.9741 -0.3349  1.1758
  319MOL0     H42086   0.642   1.563   4.436 -2.3936 -1.8119 -2.7370
  319MOL0     H42087   0.585   1.668   4.302  1.0892 -1.1781 -0.3977
  319MOL0     H42088   0.856   1.631   4.334 -0.0847 -1.7213  2.4023
  319MOL0     H42089   0.818   1.706   4.484 -3.2829 -0.0563  0.6714
  319MOL0     H42090   0.100   2.170   4.919 -1.5996 -1.7071  0.4518
  319MOL0     H42091  -0.105   2.135   4.794 -0.9547 -3.6235  0.1162
  319MOL0     H42092  -0.332   1.831   4.326  1.6801  1.1819 -0.2172
  319MOL0     H42093  -0.571   1.831   4.329  0.7479 -0.1160 -1.1870
  319MOL0     H42094  -0.277   1.846   2.842 -0.7019 -1.7025 -0.3303
  319MOL0     H42095  -0.061   1.889   2.861 -4.0061 -0.0981  0.0650
  319MOL0     H42096   0.322   2.067   3.114  0.5030  0.8476 -3.9709
  319MOL0     H42097   0.535   2.098   3.153 -6.1555  1.4970 -0.0773
  319MOL0     H42098   0.805   2.118   3.035 -1.4007 -0.6202  1.2983
  319MOL0     H42099   0.695   2.038   2.929 -1.8981  2.2165  3.1592
  319MOL0     H42100   0.883   1.871   2.895  0.5495 -0.8368  2.0105
  319MOL0     H42101   0.900   2.039   2.824  4.5692  0.3595  0.6354
  319MOL0     H42102   1.071   2.079   3.006 -0.5036 -0.4548  1.9470
  319MOL0     H42103   1.092   1.935   2.913 -2.0417  2.0812 -2.6210
  319MOL0     H42104   0.956   1.830   3.123  1.8697 -2.3428 -3.6292
  319MOL0     H42105   1.126   1.841   3.121  1.8370  1.8251 -1.7865
  319MOL0     H42106   1.029   2.136   3.421 -0.3262 -0.7788  0.6707
  319MOL0     H42107   0.647   1.716   3.013  0.9764  1.4723  1.3629
  319MOL0     H42108   0.397   1.682   2.943  0.8080  0.4090 -1.8026
  320MOL0     O42109   0.279   1.069   3.237  0.1339 -0.2610  0.4674
  320MOL0     C42110   0.207   1.137   3.161  0.4638  0.6982  0.4489
  320MOL0     O42111   0.249   1.229   3.083  0.7980  0.8502  0.6766
  320MOL0     C42112   0.382   1.258   3.076  0.2410  0.0985 -0.9822
  320MOL0     C42113   0.436   1.382   3.120 -0.3852 -0.0983  0.6824
  320MOL0     C42114   0.575   1.403   3.107 -0.6268  0.5664 -0.7221
  320MOL0     C42115   0.656   1.311   3.043  0.6983  0.3910 -0.0349
  320MOL0     O42116   0.788   1.350   3.030  0.0718 -0.2519 -0.7237
  320MOL0     C42117   0.860   1.324   2.904  0.5341 -0.3694 -0.3691
  320MOL0     C42118   1.007   1.336   2.941  0.4673  0.2895  0.3631
  320MOL0     C42119   1.104   1.346   2.818  0.9058 -0.2982 -0.3046
  320MOL0     C42120   1.106   1.233   2.709 -0.2681 -0.4263  0.5733
  320MOL0     C42121   1.149   1.096   2.767  0.1233  0.9056 -0.3580
  320MOL0     C42122   1.134   0.985   2.663 -0.0747  0.4535  0.6698
  320MOL0     C42123   1.197   0.859   2.721 -0.4990  0.1192  0.0218
  320MOL0     C42124   1.104   0.794   2.824  0.3951 -0.3478 -0.0573
  320MOL0     N42125   1.151   0.677   2.905 -0.1650  0.6155  0.0649
  320MOL0     C42126   1.236   0.677   3.012  0.0544 -0.4301 -0.4187
  320MOL0     C42127   1.256   0.546   3.031 -0.0555  0.1357  0.1565
  320MOL0     C42128   1.357   0.489   3.133 -0.2044  0.9005 -0.6176
  320MOL0     C42129   1.296   0.472   3.276  0.0914  0.0150 -0.5263
  320MOL0     C42130   1.182   0.377   3.273 -0.0587  0.3649  0.4414
  320MOL0     C42131   1.170   0.305   3.409  0.5046  0.8310  0.3984
  320MOL0     O42132   1.147   0.376   3.528 -0.2169 -0.6130 -0.5483
  320MOL0     C42133   1.186   0.319   3.649 -0.1452 -0.0145 -0.2499
  320MOL0     C42134   1.175   0.182   3.689 -0.9149 -0.1950  0.1764
  320MOL0     C42135   1.228   0.141   3.819 -0.1076  0.0409  0.9235
  320MOL0     C42136   1.246   0.237   3.920 -0.1703 -0.0369 -0.1586
  320MOL0     C42137   1.272   0.193   4.059 -1.1165 -0.3817  0.8815
  320MOL0     O42138   1.358   0.277   4.128  0.0994 -1.0096 -0.3574
  320MOL0     C42139   1.377   0.270   4.265  0.2808  0.9818 -0.1051
  320MOL0     C42140   1.505   0.308   4.313 -0.2502  0.4520 -0.1285
  320MOL0     C42141   1.528   0.310   4.448  0.1530 -0.0312 -0.2669
  320MOL0     C42142   1.433   0.283   4.543  1.2368  0.4192  0.0555
  320MOL0     O42143   1.448   0.298   4.676  0.6285  0.0449 -0.1068
  320MOL0     C42144   1.580   0.281   4.731  0.0066  0.2403 -0.0169
  320MOL0     C42145   1.583   0.290   4.884 -0.4269 -0.1842  1.0311
  320MOL0     C42146   1.565   0.157   4.964 -0.0017 -0.5411  0.5561
  320MOL0     C42147   1.616   0.168   5.115  1.4905  0.6038  0.3934
  320MOL0     C42148   1.593   0.041   5.187  0.9212  0.5386 -0.3574
  320MOL0     C42149   1.673   0.035   5.316  1.3521  0.3785 -0.2422
  320MOL0     C42150   1.826   0.070   5.314  0.3962  0.0750  0.1361
  320MOL0     C42151   1.907  -0.040   5.243 -0.0664  0.7115  0.0665
  320MOL0    Cl42152   1.925  -0.007   5.066  0.5458 -0.2968  0.3191
  320MOL0     C42153   1.309   0.243   4.491 -0.3680  0.0842 -0.6926
  320MOL0     C42154   1.273   0.235   4.356  1.1971  0.0704 -0.0256
  320MOL0     O42155   1.222   0.097   4.105 -0.0595  0.4477 -0.0911
  320MOL0     C42156   1.239   0.375   3.882  0.0570  0.0543  0.0932
  320MOL0     C42157   1.213   0.412   3.751 -0.1271 -0.1470  0.0170
  320MOL0     N42158   1.190   0.465   2.931 -0.4677 -0.5935 -0.6133
  320MOL0     N42159   1.128   0.551   2.862  0.2127 -0.5262 -0.5408
  320MOL0     C42160   0.600   1.198   2.993  0.3521  0.2373  0.1825
  320MOL0     C42161   0.462   1.176   3.006 -0.0296 -0.2117  0.0179
  320MOL0     C42162   0.061   1.097   3.158 -0.1946 -0.4908 -0.3426
  320MOL0     C42163  -0.001   1.092   3.034 -0.0582 -0.4025  0.4050
  320MOL0     C42164  -0.123   1.032   3.027  0.2707 -0.2955 -0.5271
  320MOL0     C42165  -0.195   1.005   3.144 -0.1334 -0.4249  0.4558
  320MOL0     O42166  -0.324   0.963   3.127  0.3613  0.0814 -0.2270
  320MOL0     C42167  -0.382   0.889   3.235  0.4268  0.2190 -0.7489
  320MOL0     C42168  -0.313   0.751   3.251  0.3459 -0.5397 -0.7899
  320MOL0     C42169  -0.261   0.716   3.390 -0.2036 -1.3331  0.6637
  320MOL0     C42170  -0.361   0.729   3.505  0.4674 -0.2792 -0.1198
  320MOL0     C42171  -0.461   0.623   3.491 -0.3487 -0.0406  0.8238
  320MOL0     C42172  -0.545   0.540   3.476  0.6309  0.1326  0.5545
  320MOL0     C42173  -0.141   1.029   3.263  0.2394  0.3278  0.1306
  320MOL0     C42174  -0.010   1.062   3.276  0.5043 -0.7369  1.2332
  320MOL0     H42175   0.380   1.454   3.179 -0.2697  1.0657 -0.5666
  320MOL0     H42176   0.632   1.486   3.147  0.5119 -1.4216  2.0407
  320MOL0     H42177   0.823   1.402   2.838 -0.1053 -3.2833 -3.7677
  320MOL0     H42178   0.848   1.224   2.862  1.8787 -1.7732  2.3064
  320MOL0     H42179   1.030   1.246   2.998  2.7591 -0.1102 -1.0830
  320MOL0     H42180   1.020   1.420   3.010 -2.7806 -0.2715  1.8474
  320MOL0     H42181   1.205   1.349   2.859  1.4033 -1.1847 -1.3933
  320MOL0     H42182   1.084   1.447   2.782 -1.4676  1.0685  4.0926
  320MOL0     H42183   1.009   1.230   2.659  0.0622  1.5476 -0.2564
  320MOL0     H42184   1.174   1.261   2.628 -0.8622 -1.5178 -0.3413
  320MOL0     H42185   1.087   1.065   2.851  2.6896 -2.5916  0.4814
  320MOL0     H42186   1.252   1.095   2.803  0.6283 -0.0909 -1.7320
  320MOL0     H42187   1.183   1.008   2.568  1.2613  2.1520  1.7186
  320MOL0     H42188   1.032   0.947   2.652  0.8802 -2.0426 -0.4651
  320MOL0     H42189   1.207   0.791   2.635  2.0964 -0.3904  0.6556
  320MOL0     H42190   1.295   0.881   2.764 -0.1035  2.4443 -1.8504
  320MOL0     H42191   1.004   0.767   2.789 -0.8218  2.0932  1.2457
  320MOL0     H42192   1.074   0.873   2.894  0.0933 -2.1696  1.9854
  320MOL0     H42193   1.270   0.764   3.068 -1.2597  0.1829 -0.5570
  320MOL0     H42194   1.438   0.561   3.150  1.6904 -1.4087  0.9132
  320MOL0     H42195   1.415   0.404   3.097  0.4547  0.9102  0.3638
  320MOL0     H42196   1.252   0.564   3.316  0.0358 -0.6888  1.1258
  320MOL0     H42197   1.375   0.438   3.344 -1.4846 -3.4792 -0.1977
  320MOL0     H42198   1.085   0.425   3.264 -0.7073 -0.9499  0.1445
  320MOL0     H42199   1.199   0.307   3.191  0.3767  0.6711  0.2668
  320MOL0     H42200   1.253   0.236   3.432 -0.5503  0.1485  2.3778
  320MOL0     H42201   1.087   0.234   3.408  0.1474  1.2471 -0.4303
  320MOL0     H42202   1.148   0.107   3.615  1.0209 -0.5469 -0.2514
  320MOL0     H42203   1.250   0.039   3.847  0.7946  0.3433  1.3287
  320MOL0     H42204   1.574   0.341   4.236 -1.0584  2.7661  0.0354
  320MOL0     H42205   1.621   0.349   4.488  0.0018  0.5200 -0.4362
  320MOL0     H42206   1.641   0.365   4.696  1.0433 -0.6855 -0.4885
  320MOL0     H42207   1.614   0.188   4.685 -2.9734 -1.7712  1.4549
  320MOL0     H42208   1.506   0.363   4.911  0.3297 -0.2245  3.5647
  320MOL0     H42209   1.675   0.341   4.913 -1.1272  0.5400  2.0609
  320MOL0     H42210   1.607   0.069   4.915 -2.1582 -0.9085 -0.7500
  320MOL0     H42211   1.457   0.141   4.961 -0.4950  2.3982 -1.2812
  320MOL0     H42212   1.722   0.187   5.097  1.5570  1.3824  1.5156
  320MOL0     H42213   1.571   0.251   5.170 -1.2085  1.1530 -2.3597
  320MOL0     H42214   1.627  -0.041   5.123 -0.8430  0.3229 -1.0746
  320MOL0     H42215   1.490   0.026   5.221  0.9488  0.0363 -0.4864
  320MOL0     H42216   1.667  -0.066   5.359  1.0756 -0.7169 -2.6916
  320MOL0     H42217   1.629   0.099   5.393  3.5007 -0.0686  1.4774
  320MOL0     H42218   1.847   0.172   5.280  0.4933 -0.3066 -1.0085
  320MOL0     H42219   1.854   0.074   5.419  0.6104  4.0353  0.0831
  320MOL0     H42220   1.865  -0.140   5.263  1.0860 -0.0573 -1.2098
  320MOL0     H42221   2.008  -0.046   5.285 -0.6064  0.7539  1.4411
  320MOL0     H42222   1.235   0.216   4.566  0.7571  0.2565  0.5212
  320MOL0     H42223   1.168   0.218   4.333  0.5108  2.7182  0.8075
  320MOL0     H42224   1.274   0.456   3.945  2.3251  0.9403 -2.0949
  320MOL0     H42225   1.209   0.511   3.708 -3.0502 -0.0504  0.3083
  320MOL0     H42226   0.660   1.151   2.916  1.3800  0.4459  0.8309
  320MOL0     H42227   0.425   1.090   2.952  1.2140  0.2303 -1.6348
  320MOL0     H42228   0.044   1.109   2.937 -3.0023 -2.5258 -1.5085
  320MOL0     H42229  -0.172   1.008   2.934  1.6079 -1.9221 -0.8621
  320MOL0     H42230  -0.491   0.885   3.232  0.3239  0.4071  1.2062
  320MOL0     H42231  -0.376   0.952   3.324  1.0068 -0.9904  0.0913
  320MOL0     H42232  -0.391   0.679   3.223 -2.6225  1.2520  2.1386
  320MOL0     H42233  -0.233   0.746   3.177  0.9928  2.1931 -0.4068
  320MOL0     H42234  -0.176   0.780   3.416 -0.2490  0.0241 -2.1157
  320MOL0     H42235  -0.223   0.614   3.396 -1.0686 -2.0350 -3.2336
  320MOL0     H42236  -0.321   0.719   3.606 -0.6111 -0.7957  0.2747
  320MOL0     H42237  -0.409   0.826   3.514  0.1680 -0.5869  2.2343
  320MOL0     H42238  -0.626   0.471   3.464 -0.2571  1.4805 -2.0361
  320MOL0     H42239  -0.194   1.018   3.357 -0.2957  1.0242 -0.0812
  320MOL0     H42240   0.049   1.067   3.367  1.3628 -0.0532  0.6551
  321MOL0     O42241   7.494   7.263   8.465  0.3102  0.4819  0.6472
  321MOL0     C42242   7.590   7.342   8.452 -0.1038 -0.1583  0.1840
  321MOL0     O42243   7.652   7.413   8.550  0.0558  0.1295 -0.2712
  321MOL0     C42244   7.644   7.376   8.685 -0.3021  0.4669 -0.1837
  321MOL0     C42245   7.520   7.337   8.753 -0.2366 -0.1423  0.2025
  321MOL0     C42246   7.529   7.286   8.885 -0.2063 -0.4538 -0.7671
  321MOL0     C42247   7.651   7.287   8.955  0.2778 -0.0647 -0.1683
  321MOL0     O42248   7.666   7.242   9.077  0.4935  0.0446  0.4919
  321MOL0     C42249   7.583   7.135   9.119 -0.0664 -0.3685  0.0585
  321MOL0     C42250   7.648   7.071   9.241  0.1632 -0.3589 -0.2375
  321MOL0     C42251   7.661   7.172   9.357  0.0866 -0.2782 -0.7060
  321MOL0     C42252   7.518   7.196   9.411 -0.1374 -0.6819  0.2461
  321MOL0     C42253   7.528   7.157   9.554 -0.7718  0.0626  0.2670
  321MOL0     C42254   7.583   7.273   9.632  0.0212 -0.3198  0.9541
  321MOL0     C42255   7.652   7.235   9.765 -0.4158 -0.6197 -0.1649
  321MOL0     C42256   7.664   7.345   9.869  0.3419  0.1839 -0.5571
  321MOL0     N42257   7.721   7.300  10.003  0.8370  0.1422 -0.4674
  321MOL0     C42258   7.853   7.306  10.049 -0.0557  0.3257  0.8509
  321MOL0     C42259   7.839   7.250  10.165 -0.4233 -0.2837 -0.3519
  321MOL0     C42260   7.940   7.220  10.272 -0.4140  0.2892 -0.2865
  321MOL0     C42261   8.064   7.160  10.215 -0.2839 -0.5487 -0.1813
  321MOL0     C42262   8.179   7.251  10.193 -1.5000 -0.0493 -0.8916
  321MOL0     C42263   8.316   7.178  10.171  0.0855 -1.4477  0.1004
  321MOL0     O42264   8.310   7.126  10.036  0.0298  0.1955  0.2226
  321MOL0     C42265   8.404   7.045   9.982  0.5167  0.5192  0.1397
  321MOL0     C42266   8.498   6.972  10.054 -0.2612 -0.2704 -0.6191
  321MOL0     C42267   8.596   6.898   9.985 -0.1795  0.6349 -0.0084
  321MOL0     C42268   8.608   6.886   9.848  0.3552  0.4354 -0.0881
  321MOL0     C42269   8.712   6.808   9.785 -0.0053  0.7008  0.2184
  321MOL0     O42270   8.682   6.781   9.653  0.3974 -0.3303 -0.1683
  321MOL0     C42271   8.773   6.699   9.590 -0.2572 -1.8524  0.0046
  321MOL0     C42272   8.911   6.733   9.589 -0.1545  0.3559  0.1757
  321MOL0     C42273   9.006   6.662   9.519  0.0841  0.5229 -0.0026
  321MOL0     C42274   8.972   6.558   9.445  0.8848 -0.3783 -0.2935
  321MOL0     O42275   9.066   6.493   9.384 -0.0381  1.2676  0.1924
  321MOL0     C42276   9.034   6.454   9.251 -0.1823 -0.7207  0.7220
  321MOL0     C42277   9.160   6.404   9.195 -0.7833 -0.4555  0.3673
  321MOL0     C42278   9.184   6.253   9.239 -0.5156  0.8109 -0.0375
  321MOL0     C42279   9.339   6.229   9.240 -0.0752  0.6409 -0.4359
  321MOL0     C42280   9.414   6.286   9.364  0.9471  1.0923 -0.5290
  321MOL0     C42281   9.572   6.269   9.355  0.8785 -0.1371 -0.2835
  321MOL0     C42282   9.625   6.126   9.373  0.3320  0.1111 -0.1993
  321MOL0     C42283   9.740   6.096   9.279  0.8982 -1.3103  0.1389
  321MOL0    Cl42284   9.772   5.929   9.298 -0.1264 -0.3358  0.4596
  321MOL0     C42285   8.833   6.517   9.436 -0.2352  0.5054 -0.2645
  321MOL0     C42286   8.735   6.594   9.508  0.3954 -0.5169 -0.0567
  321MOL0     O42287   8.808   6.769   9.843 -0.7180 -0.5994 -0.4476
  321MOL0     C42288   8.500   6.942   9.781 -0.8011  0.6865  0.1239
  321MOL0     C42289   8.400   7.013   9.845 -0.3081 -0.9361 -0.5367
  321MOL0     N42290   7.711   7.228  10.203  0.4662 -0.4665  0.6427
  321MOL0     N42291   7.642   7.253  10.102  0.4303  0.3943 -1.0260
  321MOL0     C42292   7.769   7.341   8.894 -0.0355  0.5718 -0.8062
  321MOL0     C42293   7.758   7.371   8.759 -0.3358  0.4167 -0.3966
  321MOL0     C42294   7.623   7.388   8.314 -0.7285 -0.2272  0.4790
  321MOL0     C42295   7.691   7.505   8.290 -0.2621  0.0116 -0.0386
  321MOL0     C42296   7.733   7.543   8.166  0.8989 -0.2857  0.9399
  321MOL0     C42297   7.703   7.464   8.058 -0.7720  0.0580  0.4268
  321MOL0     O42298   7.748   7.513   7.941  0.1374 -0.6791  0.3116
  321MOL0     C42299   7.791   7.418   7.844 -0.1665 -0.8219  0.1920
  321MOL0     C42300   7.826   7.505   7.724  0.4182  0.2716 -0.1000
  321MOL0     C42301   7.903   7.425   7.624 -1.3210 -0.0128  0.6939
  321MOL0     C42302   8.051   7.455   7.630 -0.4062 -0.0198 -0.4220
  321MOL0     C42303   8.140   7.390   7.723  0.9731  0.6119 -0.0097
  321MOL0     C42304   8.205   7.338   7.808 -0.0273 -0.3227  0.0622
  321MOL0     C42305   7.630   7.351   8.073  0.2486 -0.5394 -0.5537
  321MOL0     C42306   7.593   7.306   8.204 -0.6939 -0.1360  0.4075
  321MOL0     H42307   7.437   7.350   8.685 -0.7639 -0.1356  0.8377
  321MOL0     H42308   7.439   7.246   8.930  1.6596 -0.5929  3.3764
  321MOL0     H42309   7.576   7.056   9.044 -0.0515 -0.3374  0.0238
  321MOL0     H42310   7.485   7.171   9.150  0.1163  0.5298 -0.3509
  321MOL0     H42311   7.750   7.035   9.230  1.4463  2.0734  2.3160
  321MOL0     H42312   7.588   6.988   9.281 -2.8728  2.2847  1.2392
  321MOL0     H42313   7.707   7.270   9.338  0.8801  0.0475  2.3785
  321MOL0     H42314   7.722   7.132   9.438 -0.3361  0.9625  0.2658
  321MOL0     H42315   7.481   7.296   9.389  1.3256 -0.3993 -1.1684
  321MOL0     H42316   7.446   7.130   9.362  0.1567  0.1443 -1.3716
  321MOL0     H42317   7.583   7.064   9.573 -2.1974 -0.6989  0.8903
  321MOL0     H42318   7.430   7.124   9.592 -1.0079  0.1059 -0.2943
  321MOL0     H42319   7.508   7.347   9.658 -0.0389 -0.3467  0.8553
  321MOL0     H42320   7.665   7.315   9.573 -2.2818  1.6237 -1.0334
  321MOL0     H42321   7.582   7.164   9.811 -2.3890  0.3409 -1.5557
  321MOL0     H42322   7.750   7.188   9.748  0.1188 -0.0451  1.1227
  321MOL0     H42323   7.558   7.370   9.885  0.5744  0.3065  0.9710
  321MOL0     H42324   7.730   7.418   9.821  1.2335 -0.9390 -1.0626
  321MOL0     H42325   7.945   7.345  10.006 -0.1165 -0.5931 -0.1668
  321MOL0     H42326   7.901   7.137  10.332  0.0917  0.3117  0.0801
  321MOL0     H42327   7.952   7.310  10.332  2.1048 -0.9066  1.1822
  321MOL0     H42328   8.046   7.126  10.112  1.1166 -1.3672 -0.1839
  321MOL0     H42329   8.092   7.076  10.279  0.1299 -0.7901 -0.6746
  321MOL0     H42330   8.153   7.311  10.106  0.9058 -1.1560 -2.4768
  321MOL0     H42331   8.180   7.311  10.284  1.5369  2.3029 -2.2794
  321MOL0     H42332   8.330   7.103  10.249  0.0483  0.6243  2.2162
  321MOL0     H42333   8.397   7.251  10.171  3.6717 -5.0867 -0.2989
  321MOL0     H42334   8.502   6.976  10.162  2.8073 -1.5381 -0.5640
  321MOL0     H42335   8.671   6.853  10.049 -0.1868  0.7658  0.0918
  321MOL0     H42336   8.947   6.810   9.656  3.1310  0.1007 -1.1305
  321MOL0     H42337   9.110   6.680   9.546 -0.1942  0.7616  0.9395
  321MOL0     H42338   9.002   6.534   9.183 -2.4304 -1.3155  1.0194
  321MOL0     H42339   8.955   6.378   9.246  1.3962 -2.5477  2.1845
  321MOL0     H42340   9.243   6.462   9.236 -0.5934 -1.6858  1.8074
  321MOL0     H42341   9.163   6.417   9.086 -0.0635 -0.6497  0.3617
  321MOL0     H42342   9.134   6.201   9.157  1.9522  0.6953 -1.5870
  321MOL0     H42343   9.152   6.230   9.341 -1.7794  1.7524 -0.1958
  321MOL0     H42344   9.348   6.122   9.256 -2.3656  0.3656 -0.5974
  321MOL0     H42345   9.392   6.262   9.150  1.5423 -1.5082 -0.3346
  321MOL0     H42346   9.392   6.227   9.453  4.2221  1.1866  0.4437
  321MOL0     H42347   9.378   6.389   9.365  2.2145  1.5835 -2.2070
  321MOL0     H42348   9.598   6.326   9.445 -3.4850  1.8871 -0.0470
  321MOL0     H42349   9.611   6.312   9.262  3.3512 -0.0869  0.7165
  321MOL0     H42350   9.642   6.108   9.480 -0.7497 -2.9794 -0.4439
  321MOL0     H42351   9.546   6.056   9.344 -0.6253  1.5032 -1.0530
  321MOL0     H42352   9.832   6.151   9.300  0.2767  0.0506 -0.6465
  321MOL0     H42353   9.702   6.119   9.179 -0.5350  4.2350  1.6159
  321MOL0     H42354   8.801   6.435   9.374  1.3221  0.6059 -1.2450
  321MOL0     H42355   8.628   6.575   9.500  0.3638 -0.3928  0.0712
  321MOL0     H42356   8.488   6.936   9.673 -0.1337 -0.1195  0.0844
  321MOL0     H42357   8.312   7.040   9.787  0.0758 -2.0753 -1.6770
  321MOL0     H42358   7.866   7.358   8.939  0.1009 -0.1859 -0.7980
  321MOL0     H42359   7.854   7.392   8.713 -0.4947  1.8303 -0.1156
  321MOL0     H42360   7.699   7.566   8.380 -2.3286  0.3998 -0.0773
  321MOL0     H42361   7.777   7.639   8.140  0.4594 -0.4323 -0.4192
  321MOL0     H42362   7.727   7.340   7.802 -1.4068  0.4678 -0.3891
  321MOL0     H42363   7.883   7.367   7.875  0.0221 -2.2956 -2.5088
  321MOL0     H42364   7.732   7.514   7.668  1.1260 -1.6699 -1.7285
  321MOL0     H42365   7.865   7.606   7.734 -0.5608  0.5815  0.8257
  321MOL0     H42366   7.867   7.441   7.522  1.2226  0.7485 -0.1720
  321MOL0     H42367   7.894   7.317   7.632  0.7361 -0.7946 -4.2394
  321MOL0     H42368   8.099   7.429   7.535  0.0409 -0.7796  0.0041
  321MOL0     H42369   8.071   7.562   7.642  2.7626 -0.6560  0.7716
  321MOL0     H42370   8.267   7.300   7.886  1.4100  0.3277 -0.7298
  321MOL0     H42371   7.595   7.288   7.992  0.3662 -3.4362  1.4970
  321MOL0     H42372   7.532   7.217   8.213  0.1166 -0.8662 -1.0765
  322MOL0     O42373   4.799   5.097   6.738  0.4721  0.4761  1.2825
  322MOL0     C42374   4.868   5.020   6.671 -0.2646 -0.3388  1.0605
  322MOL0     O42375   4.859   4.998   6.540  0.5943 -0.3046  0.1979
  322MOL0     C42376   4.765   5.058   6.462 -0.2162  0.2831  0.4382
  322MOL0     C42377   4.705   4.975   6.375  0.2147 -0.3818  0.6214
  322MOL0     C42378   4.616   5.027   6.281  0.5845  0.3280  0.1391
  322MOL0     C42379   4.582   5.165   6.275  0.2579  0.8758 -1.2242
  322MOL0     O42380   4.494   5.209   6.178 -0.1133  0.1523 -0.5436
  322MOL0     C42381   4.474   5.350   6.166  0.0486  0.0532 -0.1734
  322MOL0     C42382   4.396   5.369   6.045 -0.6787 -0.3347 -0.0016
  322MOL0     C42383   4.250   5.360   6.079 -0.4023  0.4753  0.6297
  322MOL0     C42384   4.165   5.277   5.977 -0.6803  0.3444 -0.4254
  322MOL0     C42385   4.022   5.306   5.952  0.3336  0.3396 -0.5677
  322MOL0     C42386   3.993   5.445   5.890  0.0573  0.0815  0.9343
  322MOL0     C42387   3.855   5.452   5.819 -1.1591 -0.0965  0.0641
  322MOL0     C42388   3.740   5.400   5.903 -0.1397 -0.2136 -0.0086
  322MOL0     N42389   3.620   5.391   5.830  0.0569 -0.3978  0.6323
  322MOL0     C42390   3.511   5.483   5.831 -0.2819 -0.8866  0.0494
  322MOL0     C42391   3.424   5.428   5.739 -0.5075 -0.5644 -1.0599
  322MOL0     C42392   3.291   5.482   5.702 -0.2783 -0.1960 -0.6095
  322MOL0     C42393   3.191   5.398   5.782 -0.5316  0.5001 -0.4172
  322MOL0     C42394   3.050   5.461   5.749  0.8541  0.2268 -0.3056
  322MOL0     C42395   2.938   5.396   5.832 -0.4524  0.7738 -0.1841
  322MOL0     O42396   2.950   5.402   5.975  0.7533  0.7802  1.0646
  322MOL0     C42397   2.944   5.519   6.035 -0.8267 -0.0350 -0.9318
  322MOL0     C42398   2.899   5.650   5.974  0.2798  0.8088  0.4968
  322MOL0     C42399   2.877   5.753   6.062  0.0850  0.0249 -0.6743
  322MOL0     C42400   2.925   5.748   6.197 -0.2055  0.3231  0.5958
  322MOL0     C42401   2.914   5.860   6.292 -0.1416 -0.3549 -0.1288
  322MOL0     O42402   2.971   5.843   6.413  0.7912  0.0340  0.2691
  322MOL0     C42403   2.950   5.941   6.508 -0.4408  0.2190  0.4086
  322MOL0     C42404   2.831   6.015   6.526  0.0160 -0.7554  0.0657
  322MOL0     C42405   2.824   6.113   6.624  0.5773  0.0583  1.0138
  322MOL0     C42406   2.933   6.139   6.706 -1.0423 -0.1534 -0.2602
  322MOL0     O42407   2.934   6.234   6.805  0.2530  0.7442  0.6135
  322MOL0     C42408   2.908   6.367   6.756  0.0236 -0.4468 -0.2399
  322MOL0     C42409   3.037   6.445   6.762 -0.0648  0.1870 -0.2274
  322MOL0     C42410   3.105   6.440   6.905 -0.5851  0.4656  0.2691
  322MOL0     C42411   3.253   6.474   6.909 -0.3253 -1.2364 -0.4377
  322MOL0     C42412   3.311   6.441   7.051  0.2399  0.3588  0.9415
  322MOL0     C42413   3.453   6.489   7.062 -1.1601  0.0886  0.5312
  322MOL0     C42414   3.560   6.396   6.990 -0.3677 -0.0508  0.2668
  322MOL0     C42415   3.696   6.413   7.045  0.0174 -0.6722 -1.1466
  322MOL0    Cl42416   3.689   6.339   7.213 -0.5114 -0.7292 -0.2560
  322MOL0     C42417   3.050   6.070   6.686 -1.1441 -0.0287  0.0749
  322MOL0     C42418   3.059   5.978   6.583  0.0879  1.0932 -1.9035
  322MOL0     O42419   2.848   5.955   6.248 -0.1331 -0.5977 -0.3608
  322MOL0     C42420   2.978   5.625   6.245 -0.2197  0.3170 -0.2954
  322MOL0     C42421   2.979   5.509   6.169  0.3644 -0.3847 -0.5753
  322MOL0     N42422   3.481   5.313   5.686 -0.1011  0.5019  0.6511
  322MOL0     N42423   3.597   5.292   5.738 -0.1823 -0.6454 -0.1236
  322MOL0     C42424   4.650   5.250   6.366  0.3526  0.8035 -0.8397
  322MOL0     C42425   4.744   5.196   6.459  0.1392 -0.4519  0.0159
  322MOL0     C42426   4.970   4.938   6.741 -0.9711  0.1316  0.3535
  322MOL0     C42427   4.994   4.953   6.878  0.4234 -0.4901  0.7435
  322MOL0     C42428   5.086   4.873   6.940  0.3392  0.3213 -0.2141
  322MOL0     C42429   5.157   4.768   6.875  0.6344 -0.2907  0.0360
  322MOL0     O42430   5.253   4.689   6.946  0.5412 -0.0124  0.2434
  322MOL0     C42431   5.370   4.643   6.875 -0.1185  0.3626 -0.5255
  322MOL0     C42432   5.481   4.587   6.962  0.2309  0.1665  0.0178
  322MOL0     C42433   5.623   4.581   6.898 -0.7458 -0.3070  0.2365
  322MOL0     C42434   5.622   4.515   6.761  0.8001  1.0990 -0.0971
  322MOL0     C42435   5.747   4.504   6.705  0.2278 -0.0460  0.0423
  322MOL0     C42436   5.863   4.477   6.664 -0.9206  0.2500  0.4416
  322MOL0     C42437   5.137   4.756   6.737 -0.2847  1.4338 -0.2231
  322MOL0     C42438   5.041   4.838   6.679 -0.1291  0.6689  0.8606
  322MOL0     H42439   4.727   4.868   6.378  0.8734 -0.2404  0.9820
  322MOL0     H42440   4.592   4.971   6.192 -1.1332  1.9236 -0.4723
  322MOL0     H42441   4.566   5.405   6.142 -0.5898  1.8331  1.2884
  322MOL0     H42442   4.438   5.392   6.260 -0.0789  0.1461 -0.2646
  322MOL0     H42443   4.423   5.290   5.974  0.5947  0.3735 -0.3448
  322MOL0     H42444   4.411   5.470   6.005 -3.4019 -1.2186 -3.8792
  322MOL0     H42445   4.212   5.463   6.080  3.5017  2.0874 -0.0879
  322MOL0     H42446   4.222   5.309   6.172 -2.1540 -3.6006 -1.8326
  322MOL0     H42447   4.213   5.279   5.879 -4.0487 -0.6615 -2.2730
  322MOL0     H42448   4.171   5.178   6.023  1.2110  1.4549  1.8735
  322MOL0     H42449   3.968   5.307   6.048  0.3057 -1.4345 -0.5430
  322MOL0     H42450   3.990   5.219   5.895  0.5965 -0.5878  0.6703
  322MOL0     H42451   4.074   5.458   5.817 -0.6729  1.5737  0.3457
  322MOL0     H42452   4.002   5.530   5.958  0.1702  1.3747 -0.6313
  322MOL0     H42453   3.821   5.547   5.777  1.4695 -0.0208 -2.1248
  322MOL0     H42454   3.851   5.394   5.727 -5.0530  3.3460 -2.3277
  322MOL0     H42455   3.724   5.458   5.995  2.1346 -0.9758  0.9519
  322MOL0     H42456   3.755   5.297   5.936 -2.3503 -0.7391 -0.5194
  322MOL0     H42457   3.493   5.569   5.895  1.8149 -1.6079  1.7464
  322MOL0     H42458   3.261   5.488   5.597  0.6029  2.6161 -0.7707
  322MOL0     H42459   3.285   5.586   5.736  2.4049  0.1443 -1.0216
  322MOL0     H42460   3.206   5.394   5.890 -1.9338 -0.1832 -0.2371
  322MOL0     H42461   3.186   5.294   5.748 -3.7684 -0.4415  2.4030
  322MOL0     H42462   3.054   5.569   5.766 -1.1088  0.3680 -0.5066
  322MOL0     H42463   3.028   5.437   5.644  1.8895  1.4620 -0.8364
  322MOL0     H42464   2.933   5.291   5.803  2.3334  0.3418  0.5852
  322MOL0     H42465   2.847   5.445   5.798  1.4339  2.6222 -2.9822
  322MOL0     H42466   2.865   5.655   5.871  1.0104  0.7927  0.2519
  322MOL0     H42467   2.838   5.849   6.029 -1.7855 -0.7590 -0.8508
  322MOL0     H42468   2.741   5.978   6.477 -1.0982  0.4655  1.1354
  322MOL0     H42469   2.733   6.171   6.637  1.3026  0.9375  2.4614
  322MOL0     H42470   2.837   6.422   6.818  0.8428  0.1444  0.2022
  322MOL0     H42471   2.883   6.378   6.650  0.2280 -0.4700 -0.2918
  322MOL0     H42472   3.023   6.548   6.730  0.4179 -0.1800 -1.7025
  322MOL0     H42473   3.106   6.399   6.690  0.2159  1.4805 -0.8000
  322MOL0     H42474   3.105   6.341   6.952  0.1924  0.2980 -0.0608
  322MOL0     H42475   3.048   6.504   6.972 -0.5970 -1.2721  2.0163
  322MOL0     H42476   3.319   6.420   6.840  0.1241 -1.7323  0.3580
  322MOL0     H42477   3.265   6.579   6.882  4.1169 -1.6680 -0.8816
  322MOL0     H42478   3.317   6.334   7.070  0.4961  0.1098 -0.4683
  322MOL0     H42479   3.242   6.480   7.127 -0.7876  2.0147 -0.7734
  322MOL0     H42480   3.480   6.481   7.168 -1.1891  0.8390  0.5966
  322MOL0     H42481   3.467   6.591   7.025 -0.9860 -0.2147 -0.2693
  322MOL0     H42482   3.527   6.294   7.009  0.1957 -0.6070 -1.5234
  322MOL0     H42483   3.571   6.415   6.882  2.7638  0.9855  0.6607
  322MOL0     H42484   3.720   6.518   7.061 -0.6606  0.1017 -4.5455
  322MOL0     H42485   3.773   6.369   6.981  2.2045  3.3407 -1.5486
  322MOL0     H42486   3.146   6.083   6.735  0.6976  0.0580 -3.2614
  322MOL0     H42487   3.149   5.932   6.544  1.5154  3.0893 -1.0835
  322MOL0     H42488   3.020   5.614   6.345 -0.6107  3.5064  0.3306
  322MOL0     H42489   3.012   5.414   6.209 -0.5697 -0.1742  0.7607
  322MOL0     H42490   4.627   5.355   6.378 -1.3237  0.1887  2.3335
  322MOL0     H42491   4.804   5.256   6.527  0.9861 -0.5064 -0.6564
  322MOL0     H42492   4.940   5.028   6.934  3.7776  1.1267  2.0995
  322MOL0     H42493   5.112   4.870   7.046  0.5927 -1.2488 -0.3009
  322MOL0     H42494   5.416   4.716   6.807  0.3712 -1.5650 -2.3614
  322MOL0     H42495   5.335   4.568   6.803  1.3516 -0.1889 -0.6927
  322MOL0     H42496   5.507   4.643   7.052  1.2915  1.4885 -1.0732
  322MOL0     H42497   5.448   4.486   6.991 -1.8424  0.7561 -0.0898
  322MOL0     H42498   5.690   4.531   6.968 -0.1182  0.2857  0.0683
  322MOL0     H42499   5.656   4.684   6.885 -0.5728 -0.5270 -1.1590
  322MOL0     H42500   5.582   4.413   6.765  0.8312  1.0149 -1.5636
  322MOL0     H42501   5.560   4.573   6.692  0.1570  1.1220  0.4873
  322MOL0     H42502   5.960   4.447   6.630 -0.9294  1.7663 -1.0881
  322MOL0     H42503   5.186   4.675   6.685 -1.4858 -1.5789  2.9509
  322MOL0     H42504   5.027   4.819   6.573  0.2068 -3.1943  1.3618
  323MOL0     O42505   2.291  10.624   5.074  0.2538  0.1699 -0.3470
  323MOL0     C42506   2.373  10.536   5.085  0.2777  0.4876  0.7909
  323MOL0     O42507   2.463  10.526   5.192  0.3230 -0.0380 -0.3407
  323MOL0     C42508   2.472  10.622   5.293 -0.4834 -0.6231 -0.4688
  323MOL0     C42509   2.368  10.672   5.360 -0.5937  0.1438 -0.1908
  323MOL0     C42510   2.375  10.766   5.456 -0.3740 -0.6162 -0.4017
  323MOL0     C42511   2.500  10.823   5.485 -0.4686 -0.4679  0.0040
  323MOL0     O42512   2.522  10.917   5.580  0.4412 -0.5666  0.4347
  323MOL0     C42513   2.422  10.959   5.679  0.8525  0.3245 -0.7977
  323MOL0     C42514   2.439  11.099   5.728 -0.5249 -0.8097 -0.0186
  323MOL0     C42515   2.572  11.135   5.801 -0.7921 -0.6696 -0.1001
  323MOL0     C42516   2.569  11.283   5.850  0.5696 -0.0117 -0.4096
  323MOL0     C42517   2.504  11.306   5.976  0.6209  0.3404 -0.2405
  323MOL0     C42518   2.376  11.237   6.026 -0.1563 -0.1705  1.1818
  323MOL0     C42519   2.324  11.292   6.155 -0.0412 -0.1002 -1.0151
  323MOL0     C42520   2.426  11.293   6.271 -0.1742  0.4109 -0.4015
  323MOL0     N42521   2.358  11.330   6.389 -0.0712  0.0102 -0.3637
  323MOL0     C42522   2.283  11.263   6.472 -0.3534  0.3962 -0.7775
  323MOL0     C42523   2.230  11.347   6.568 -0.3351  0.2829 -0.1963
  323MOL0     C42524   2.153  11.300   6.693 -0.3757 -0.5327 -0.0289
  323MOL0     C42525   2.052  11.197   6.670 -0.3334 -0.7257  0.4421
  323MOL0     C42526   1.942  11.187   6.767 -0.0846  0.3448  0.2523
  323MOL0     C42527   1.844  11.061   6.751 -0.6859 -0.2156 -0.1238
  323MOL0     O42528   1.734  11.060   6.833  0.4668  0.1057 -0.0245
  323MOL0     C42529   1.634  10.975   6.798  0.1471 -0.6091 -0.1401
  323MOL0     C42530   1.651  10.838   6.779  0.4137 -0.1106  0.8301
  323MOL0     C42531   1.547  10.756   6.736  0.3498 -0.3002 -1.2738
  323MOL0     C42532   1.420  10.819   6.712 -0.3197  0.8044  0.8952
  323MOL0     C42533   1.310  10.737   6.654  0.1372  0.0737  0.1243
  323MOL0     O42534   1.195  10.804   6.618  0.1580  0.7811  0.4980
  323MOL0     C42535   1.090  10.732   6.560  0.2652  0.5896  0.5341
  323MOL0     C42536   1.021  10.804   6.457 -0.2322 -0.7663  0.2200
  323MOL0     C42537   0.909  10.753   6.406  0.1122 -0.0325  0.3657
  323MOL0     C42538   0.859  10.627   6.437  0.1523 -0.5402 -0.8003
  323MOL0     O42539   0.736  10.590   6.387  0.3054 -0.0058 -0.4410
  323MOL0     C42540   0.723  10.525   6.263  1.2836  0.1789 -0.5217
  323MOL0     C42541   0.612  10.585   6.179  0.2768 -0.1178 -0.2497
  323MOL0     C42542   0.624  10.541   6.029  0.6491  0.2623 -0.6186
  323MOL0     C42543   0.517  10.605   5.939  0.2813 -0.1333  0.5032
  323MOL0     C42544   0.555  10.567   5.790 -0.3965 -0.2183  0.2490
  323MOL0     C42545   0.439  10.561   5.686  0.1015 -0.6315  0.0434
  323MOL0     C42546   0.314  10.486   5.731  0.0199 -0.7859 -0.2402
  323MOL0     C42547   0.322  10.346   5.794  1.0553  0.4447 -0.5165
  323MOL0    Cl42548   0.167  10.304   5.894  0.0562  0.1278  0.1078
  323MOL0     C42549   0.926  10.558   6.539 -0.8835  0.5491 -0.4750
  323MOL0     C42550   1.036  10.610   6.605 -0.4036  0.6389  0.3265
  323MOL0     O42551   1.331  10.621   6.624  0.0557  0.8091 -0.0388
  323MOL0     C42552   1.401  10.953   6.740  0.5336  0.3760  0.0120
  323MOL0     C42553   1.508  11.037   6.778 -0.2600  0.0841 -0.0725
  323MOL0     N42554   2.275  11.470   6.527  0.1804 -1.1298 -0.2430
  323MOL0     N42555   2.349  11.465   6.426  0.2139 -0.2192 -0.5931
  323MOL0     C42556   2.609  10.787   5.408  0.0057 -0.2178 -0.0426
  323MOL0     C42557   2.593  10.697   5.303 -0.0204  0.3636  0.3856
  323MOL0     C42558   2.384  10.430   4.975 -0.0437  0.7707  0.8758
  323MOL0     C42559   2.279  10.404   4.883 -0.0639 -0.6060 -0.5476
  323MOL0     C42560   2.295  10.306   4.785  1.0890 -0.6637  0.1393
  323MOL0     C42561   2.416  10.235   4.776 -0.0199  0.1522  0.3929
  323MOL0     O42562   2.451  10.147   4.678  0.5324  0.3900  0.0338
  323MOL0     C42563   2.364  10.122   4.562  0.6334  0.2073 -0.1673
  323MOL0     C42564   2.281   9.993   4.592 -0.7031 -1.5174  0.3141
  323MOL0     C42565   2.217   9.927   4.473  0.5354  0.3724 -0.3165
  323MOL0     C42566   2.108   9.826   4.510  0.6073  0.2995  1.0816
  323MOL0     C42567   1.990   9.884   4.580 -0.1555  0.1742  0.1972
  323MOL0     C42568   1.899   9.936   4.630  0.4999 -0.3430 -0.0937
  323MOL0     C42569   2.519  10.260   4.864 -0.2172 -0.1941 -0.8406
  323MOL0     C42570   2.502  10.359   4.959 -0.9075 -0.4927  0.9536
  323MOL0     H42571   2.269  10.629   5.352 -0.5004 -0.0295 -0.4129
  323MOL0     H42572   2.286  10.794   5.512  1.1126  0.3231  1.6413
  323MOL0     H42573   2.422  10.890   5.764 -0.8237 -0.0410 -1.0599
  323MOL0     H42574   2.322  10.959   5.633  0.4840  0.1767 -0.0039
  323MOL0     H42575   2.348  11.112   5.788 -1.2403 -3.2292 -0.4501
  323MOL0     H42576   2.423  11.175   5.651  2.0200  1.6312  1.6778
  323MOL0     H42577   2.656  11.128   5.731 -0.4070 -0.7475  0.3682
  323MOL0     H42578   2.588  11.079   5.893  0.0194 -0.6552 -0.2268
  323MOL0     H42579   2.672  11.319   5.853  1.1875 -1.5864  3.6528
  323MOL0     H42580   2.514  11.347   5.780 -0.6236  2.2281  2.3905
  323MOL0     H42581   2.477  11.412   5.979 -0.6727  0.0262  0.0789
  323MOL0     H42582   2.581  11.290   6.052  2.1609  2.3245 -1.2916
  323MOL0     H42583   2.401  11.131   6.043 -0.6742 -0.3302  0.9713
  323MOL0     H42584   2.291  11.235   5.958  0.3091 -0.6924  0.6013
  323MOL0     H42585   2.292  11.394   6.134  1.0047  0.3267 -0.5710
  323MOL0     H42586   2.237  11.230   6.179  0.0697 -0.2708 -1.0445
  323MOL0     H42587   2.508  11.364   6.256  2.1821 -2.6313 -3.3735
  323MOL0     H42588   2.471  11.195   6.285  0.2159  1.0023  3.8109
  323MOL0     H42589   2.265  11.156   6.459  1.5433  0.2869 -3.4976
  323MOL0     H42590   2.109  11.395   6.726 -0.1294 -0.4068 -0.0592
  323MOL0     H42591   2.219  11.277   6.777  1.7342  1.6195 -0.9774
  323MOL0     H42592   2.108  11.105   6.650 -0.6681 -0.2295 -3.5974
  323MOL0     H42593   2.000  11.226   6.579  1.0041 -2.4227 -0.9176
  323MOL0     H42594   1.985  11.175   6.866 -1.4122 -0.7358  0.7359
  323MOL0     H42595   1.894  11.285   6.778  1.1500  0.7030  3.5693
  323MOL0     H42596   1.915  10.984   6.783 -0.3238  1.1384  2.5851
  323MOL0     H42597   1.829  11.056   6.643  0.2154  2.2692 -0.4249
  323MOL0     H42598   1.751  10.809   6.810  0.6162 -0.0301  0.2529
  323MOL0     H42599   1.562  10.649   6.732 -2.2525 -0.7605 -0.8597
  323MOL0     H42600   1.061  10.902   6.434  1.6348 -1.7918 -1.1449
  323MOL0     H42601   0.862  10.830   6.345 -0.8266  0.2126  1.3775
  323MOL0     H42602   0.696  10.420   6.275  1.0663 -0.2157 -3.7198
  323MOL0     H42603   0.820  10.528   6.212  0.7652  2.4972 -1.4999
  323MOL0     H42604   0.615  10.694   6.190  1.7088  0.0226 -1.8133
  323MOL0     H42605   0.513  10.559   6.219 -0.8270  0.8645 -2.2016
  323MOL0     H42606   0.614  10.433   6.023  1.4174  0.2126 -1.1747
  323MOL0     H42607   0.721  10.567   5.985  1.5526  2.7230  2.4666
  323MOL0     H42608   0.418  10.566   5.964  0.2294  0.6133  1.5111
  323MOL0     H42609   0.507  10.713   5.952  2.3073  0.1074  0.3741
  323MOL0     H42610   0.600  10.468   5.794  2.1125  0.8168 -0.3266
  323MOL0     H42611   0.640  10.621   5.748 -0.7253  0.0067 -0.1433
  323MOL0     H42612   0.474  10.524   5.589 -0.7535  0.1768 -0.5894
  323MOL0     H42613   0.405  10.663   5.666 -0.1081 -0.9132 -1.1640
  323MOL0     H42614   0.257  10.538   5.808 -0.4672  0.1333 -1.2072
  323MOL0     H42615   0.250  10.478   5.643  2.6278  2.7888 -2.7356
  323MOL0     H42616   0.411  10.329   5.856  0.3845  2.9188  1.3103
  323MOL0     H42617   0.324  10.280   5.707 -2.8341 -0.7006  0.1043
  323MOL0     H42618   0.875  10.473   6.584 -0.7160  1.6851  2.0255
  323MOL0     H42619   1.084  10.555   6.686 -0.1694 -1.2800 -1.0557
  323MOL0     H42620   1.304  10.994   6.714 -1.3112 -2.4463  1.7787
  323MOL0     H42621   1.493  11.144   6.776  0.9963  0.2822 -1.3044
  323MOL0     H42622   2.702  10.838   5.429  1.2142 -1.0229 -2.9106
  323MOL0     H42623   2.675  10.666   5.238 -2.1931  0.9164 -2.8521
  323MOL0     H42624   2.191  10.464   4.904  1.0424 -0.1036  3.3411
  323MOL0     H42625   2.220  10.295   4.708  0.6369  0.9267  0.3090
  323MOL0     H42626   2.428  10.119   4.473  1.8378  0.7073  0.6460
  323MOL0     H42627   2.285  10.196   4.545  3.0425  3.1349  0.3940
  323MOL0     H42628   2.345   9.923   4.648  0.3145  0.3151  1.5620
  323MOL0     H42629   2.217  10.024   4.675  1.9363 -1.4739  2.5049
  323MOL0     H42630   2.293   9.872   4.417  1.1655 -1.5310  2.2354
  323MOL0     H42631   2.173  10.001   4.406 -2.5499  1.3204  2.4542
  323MOL0     H42632   2.060   9.784   4.421 -2.1005  4.2076  0.4474
  323MOL0     H42633   2.144   9.737   4.563 -0.4024 -1.7476 -1.4326
  323MOL0     H42634   1.816   9.996   4.661  0.5907 -0.6831  0.8326
  323MOL0     H42635   2.608  10.200   4.849 -0.4384 -0.1861 -2.3239
  323MOL0     H42636   2.585  10.378   5.026  0.1824 -0.0175 -0.4626
  324MOL0     O42637   6.892   5.100   6.021  0.6092  0.1354 -0.1524
  324MOL0     C42638   6.808   5.011   6.031  0.1989  0.4264  0.4170
  324MOL0     O42639   6.758   4.938   5.922 -0.0475 -0.5988  0.8154
  324MOL0     C42640   6.800   4.971   5.797  0.0963 -0.5738  0.0025
  324MOL0     C42641   6.751   5.084   5.729 -0.1095 -0.1632 -0.3884
  324MOL0     C42642   6.781   5.100   5.601  0.3923 -0.1484  0.1109
  324MOL0     C42643   6.877   5.022   5.532  0.0523  0.1818  0.6366
  324MOL0     O42644   6.921   5.038   5.397 -0.2243 -0.3023 -0.3406
  324MOL0     C42645   6.839   5.115   5.307 -1.0006 -0.1360 -0.3578
  324MOL0     C42646   6.940   5.135   5.187  0.0918  0.4404  0.6923
  324MOL0     C42647   6.866   5.225   5.079 -0.0082  0.0437  0.6296
  324MOL0     C42648   6.957   5.240   4.953 -0.5222  0.1861  0.3706
  324MOL0     C42649   6.997   5.110   4.885 -0.0812  0.1306  0.0262
  324MOL0     C42650   6.883   5.033   4.821  1.0393 -0.5497  0.7128
  324MOL0     C42651   6.932   4.948   4.709 -0.0651  0.0438 -0.6381
  324MOL0     C42652   6.978   5.030   4.581 -0.3029 -0.0672 -0.2041
  324MOL0     N42653   7.000   4.953   4.457  0.7709  0.2816  0.0036
  324MOL0     C42654   7.111   4.945   4.376 -0.0875  0.1194  0.5028
  324MOL0     C42655   7.078   4.858   4.278  0.4037 -0.1544  0.5767
  324MOL0     C42656   7.159   4.843   4.145 -0.5981 -0.5096  0.7161
  324MOL0     C42657   7.213   4.701   4.119 -0.3710  1.1181 -0.5323
  324MOL0     C42658   7.301   4.645   4.229  0.0139 -0.2978 -0.3599
  324MOL0     C42659   7.425   4.565   4.167  1.7973  0.4669  0.7068
  324MOL0     O42660   7.525   4.648   4.107 -0.7312 -0.3802  0.2091
  324MOL0     C42661   7.654   4.624   4.158 -0.2468 -0.0981  0.5070
  324MOL0     C42662   7.746   4.535   4.098  0.7727  0.1117  0.7771
  324MOL0     C42663   7.873   4.524   4.130  0.0564 -0.3606 -0.0294
  324MOL0     C42664   7.924   4.591   4.244 -0.4557 -0.5385 -0.8732
  324MOL0     C42665   8.067   4.572   4.282 -0.6448 -0.2516  0.4016
  324MOL0     O42666   8.138   4.495   4.190 -0.1244 -0.5835 -0.5012
  324MOL0     C42667   8.275   4.488   4.208  0.3415  0.7398 -1.5019
  324MOL0     C42668   8.332   4.405   4.308 -0.4796  0.0940  0.4584
  324MOL0     C42669   8.472   4.405   4.325 -0.5661 -0.2737  0.3812
  324MOL0     C42670   8.551   4.462   4.223 -0.4150 -0.2233  0.5548
  324MOL0     O42671   8.687   4.454   4.219  0.1090  0.7515  0.3055
  324MOL0     C42672   8.756   4.356   4.296  0.2661  0.7214  0.2190
  324MOL0     C42673   8.906   4.354   4.264 -0.2751 -0.1065 -0.6795
  324MOL0     C42674   8.970   4.471   4.332  0.5618 -0.1973 -0.8087
  324MOL0     C42675   9.120   4.454   4.356 -0.2334 -0.4756  0.2384
  324MOL0     C42676   9.213   4.466   4.227 -0.8904  0.0671 -0.0786
  324MOL0     C42677   9.358   4.407   4.254  0.5249  0.6251  0.1874
  324MOL0     C42678   9.465   4.471   4.171 -0.1084  0.1324  0.6024
  324MOL0     C42679   9.586   4.371   4.172  0.1637 -0.3310 -0.0178
  324MOL0    Cl42680   9.720   4.411   4.063 -0.0308 -0.2039  0.1899
  324MOL0     C42681   8.488   4.541   4.118 -0.0213 -0.0465  0.2230
  324MOL0     C42682   8.348   4.552   4.112 -0.1652  0.6207  0.4849
  324MOL0     O42683   8.104   4.626   4.387  0.4170 -0.0673  0.2782
  324MOL0     C42684   7.845   4.694   4.302  1.0831 -0.6631  0.8988
  324MOL0     C42685   7.711   4.707   4.258  0.3293 -0.0342 -0.0428
  324MOL0     N42686   6.951   4.804   4.300 -0.2893  0.2846  0.6614
  324MOL0     N42687   6.909   4.862   4.412  0.7359  0.3125  0.5457
  324MOL0     C42688   6.949   4.918   5.601  1.6439 -0.6370  1.0242
  324MOL0     C42689   6.912   4.898   5.736 -0.3258  1.5948  0.3823
  324MOL0     C42690   6.771   4.956   6.161 -0.0749  0.3732  0.8120
  324MOL0     C42691   6.666   4.859   6.159 -0.7499  0.3847 -0.9861
  324MOL0     C42692   6.638   4.797   6.277  0.2413  0.6450  0.3415
  324MOL0     C42693   6.694   4.843   6.397 -0.3752 -0.1117 -0.4329
  324MOL0     O42694   6.674   4.770   6.513 -0.3268 -0.1737  0.6769
  324MOL0     C42695   6.620   4.841   6.632 -0.0719 -0.4672  0.1793
  324MOL0     C42696   6.733   4.874   6.728  0.1581 -1.0043  0.4695
  324MOL0     C42697   6.693   4.976   6.833  0.6795 -0.0904  0.1962
  324MOL0     C42698   6.601   4.928   6.942 -0.4768 -0.3454 -0.4367
  324MOL0     C42699   6.459   4.918   6.899 -0.2306  0.1470  1.0976
  324MOL0     C42700   6.343   4.911   6.874 -0.3228  0.5104  0.1810
  324MOL0     C42701   6.787   4.945   6.397  1.0933 -0.3742 -0.0501
  324MOL0     C42702   6.821   5.011   6.278 -0.0894  0.8313 -0.0984
  324MOL0     H42703   6.677   5.140   5.786  1.0411  0.3006  0.7132
  324MOL0     H42704   6.738   5.185   5.549 -0.6447 -0.9068 -0.3018
  324MOL0     H42705   6.823   5.216   5.347  3.2037  0.1399  1.2037
  324MOL0     H42706   6.746   5.069   5.275 -0.3016 -1.7625 -0.1413
  324MOL0     H42707   6.972   5.039   5.147  2.4259  0.8942  1.3143
  324MOL0     H42708   7.030   5.190   5.215 -1.2315  1.5485  3.0553
  324MOL0     H42709   6.850   5.328   5.112  1.1156 -0.4463  2.8753
  324MOL0     H42710   6.765   5.198   5.047  1.3383  1.4811 -6.6113
  324MOL0     H42711   6.911   5.302   4.875  0.5684 -0.5678 -0.9147
  324MOL0     H42712   7.046   5.300   4.976  0.5811 -0.5550 -1.6927
  324MOL0     H42713   7.058   5.045   4.947  1.0562  0.1840 -0.9931
  324MOL0     H42714   7.070   5.140   4.808  0.2961 -0.9356 -0.0438
  324MOL0     H42715   6.812   5.108   4.783  0.1653 -2.1513 -0.9621
  324MOL0     H42716   6.821   4.971   4.887 -1.0540 -1.3004 -1.7740
  324MOL0     H42717   7.022   4.893   4.738  0.2192  0.4570 -0.7228
  324MOL0     H42718   6.852   4.876   4.690 -2.5002  2.2463  0.5552
  324MOL0     H42719   7.070   5.088   4.601 -1.7111  3.5843 -3.1011
  324MOL0     H42720   6.896   5.097   4.555 -2.1896 -1.3391  2.1433
  324MOL0     H42721   7.204   5.000   4.388  0.4935 -0.2060 -2.0093
  324MOL0     H42722   7.249   4.904   4.157 -1.9292  1.6101  0.3913
  324MOL0     H42723   7.105   4.877   4.057  0.1698 -1.9462 -0.3553
  324MOL0     H42724   7.272   4.705   4.027  3.7936 -0.3384  1.8080
  324MOL0     H42725   7.126   4.639   4.096 -1.0996  0.8590  2.4342
  324MOL0     H42726   7.340   4.720   4.298  2.6530 -1.4507 -0.4735
  324MOL0     H42727   7.248   4.574   4.294  3.3358 -0.3587  2.5986
  324MOL0     H42728   7.377   4.510   4.086  1.8974  2.4598 -0.7621
  324MOL0     H42729   7.476   4.510   4.247  2.4410  1.1325  0.7628
  324MOL0     H42730   7.712   4.479   4.012  0.9408  2.7620 -1.1420
  324MOL0     H42731   7.944   4.459   4.081 -0.0787 -1.4298  1.1500
  324MOL0     H42732   8.265   4.342   4.365  1.0099  0.5981  2.9060
  324MOL0     H42733   8.520   4.352   4.407  0.9119  0.9277  0.3319
  324MOL0     H42734   8.718   4.259   4.267 -2.5758 -0.1333  5.5252
  324MOL0     H42735   8.736   4.367   4.403  0.5192 -0.7994  0.4371
  324MOL0     H42736   8.921   4.363   4.156 -2.7292  2.3660 -0.9242
  324MOL0     H42737   8.957   4.265   4.302 -0.3665 -0.0228 -0.3561
  324MOL0     H42738   8.916   4.505   4.421  1.8971 -0.1286 -0.0088
  324MOL0     H42739   8.962   4.552   4.258 -5.4182  1.8114  1.3771
  324MOL0     H42740   9.167   4.527   4.422 -0.1719  0.1784 -0.5188
  324MOL0     H42741   9.127   4.363   4.417  1.2134  0.3831  1.4192
  324MOL0     H42742   9.229   4.573   4.209  0.5246 -0.0224  0.5041
  324MOL0     H42743   9.161   4.427   4.139 -2.5893  1.4927  0.2289
  324MOL0     H42744   9.353   4.301   4.227  1.6399  0.5688  0.1731
  324MOL0     H42745   9.386   4.409   4.359 -0.6971 -3.6485  0.7645
  324MOL0     H42746   9.431   4.486   4.068 -1.6563 -2.8392  0.5867
  324MOL0     H42747   9.499   4.567   4.211  0.0802  2.2679 -3.9625
  324MOL0     H42748   9.562   4.265   4.175 -1.7355  0.0260 -1.1663
  324MOL0     H42749   9.634   4.392   4.268  0.0602 -0.3789  0.0439
  324MOL0     H42750   8.546   4.588   4.039  0.2482  0.4809  0.7238
  324MOL0     H42751   8.302   4.620   4.040  0.3331  1.9041  1.3371
  324MOL0     H42752   7.887   4.770   4.367  0.7823 -0.6983  1.1353
  324MOL0     H42753   7.652   4.778   4.314  0.9378 -0.0043  0.5706
  324MOL0     H42754   7.025   4.855   5.557 -0.1615 -2.0133 -0.3048
  324MOL0     H42755   6.960   4.817   5.790 -0.9347  1.6176  0.9619
  324MOL0     H42756   6.627   4.806   6.072  0.5520 -0.6774 -0.9528
  324MOL0     H42757   6.595   4.698   6.274 -0.3339  0.8812 -2.5430
  324MOL0     H42758   6.546   4.774   6.677 -0.1452 -0.9733 -0.6697
  324MOL0     H42759   6.564   4.931   6.604  3.2175  1.3963 -0.9872
  324MOL0     H42760   6.754   4.773   6.765  3.5241 -1.0569 -1.1681
  324MOL0     H42761   6.827   4.898   6.677 -0.3829  1.5111  0.5314
  324MOL0     H42762   6.662   5.068   6.783  1.0151 -1.0444 -1.8962
  324MOL0     H42763   6.789   5.008   6.876  1.6999 -1.1451 -1.2234
  324MOL0     H42764   6.639   4.831   6.975  0.3968  0.5424  1.2751
  324MOL0     H42765   6.605   4.991   7.032  2.3939  1.9107 -1.9359
  324MOL0     H42766   6.238   4.893   6.870 -0.2695  0.1443  0.4000
  324MOL0     H42767   6.823   4.985   6.491  1.0560 -1.1115  0.2912
  324MOL0     H42768   6.900   5.085   6.274  2.1590 -1.4985 -2.9448
  325MOL0     O42769   9.322  10.208   5.478  0.2166  0.1286  0.1517
  325MOL0     C42770   9.434  10.193   5.531  0.3295 -0.6519  0.2201
  325MOL0     O42771   9.470  10.104   5.624 -0.7872  0.6532 -0.2193
  325MOL0     C42772   9.372  10.018   5.671 -0.9240 -0.1585 -0.3587
  325MOL0     C42773   9.292   9.929   5.593  0.5786 -0.2034  0.7965
  325MOL0     C42774   9.188   9.864   5.653  0.3632  0.0136  0.8047
  325MOL0     C42775   9.160   9.872   5.785  1.1807 -1.2354  0.5541
  325MOL0     O42776   9.058   9.796   5.835  0.3567  0.1656  0.1871
  325MOL0     C42777   9.046   9.773   5.970  0.4522 -0.0359 -0.1862
  325MOL0     C42778   8.948   9.646   5.977  0.2189  0.0258 -0.4253
  325MOL0     C42779   8.907   9.616   6.124  0.1959  0.2062 -0.5239
  325MOL0     C42780   8.818   9.497   6.118  0.5366  0.0661  0.1429
  325MOL0     C42781   8.786   9.432   6.266 -0.2516 -0.2957  0.4492
  325MOL0     C42782   8.760   9.285   6.292  1.3425  1.0148 -0.5906
  325MOL0     C42783   8.867   9.196   6.231 -0.2400 -0.4388 -1.1318
  325MOL0     C42784   8.848   9.051   6.269  0.2101 -0.5472  0.0505
  325MOL0     N42785   8.739   8.995   6.188 -0.3379  0.2809 -0.5069
  325MOL0     C42786   8.730   8.993   6.056  0.4581 -0.8397  0.6616
  325MOL0     C42787   8.619   8.918   6.039 -0.1781  0.5389 -0.1577
  325MOL0     C42788   8.535   8.889   5.911  0.0400 -0.0545  1.1746
  325MOL0     C42789   8.539   8.746   5.863  0.3653 -1.1520  0.7302
  325MOL0     C42790   8.662   8.730   5.779  0.3315  0.0309  0.0342
  325MOL0     C42791   8.682   8.594   5.728 -0.2063 -0.3612 -0.5918
  325MOL0     O42792   8.708   8.485   5.823  0.1660 -0.5251  0.7072
  325MOL0     C42793   8.619   8.386   5.835 -0.6201  0.8912  0.0335
  325MOL0     C42794   8.475   8.399   5.822 -0.0177 -0.1610 -0.1404
  325MOL0     C42795   8.395   8.296   5.855  0.1573  0.0754 -0.2837
  325MOL0     C42796   8.442   8.170   5.892 -0.1213  0.1261  0.3078
  325MOL0     C42797   8.354   8.061   5.906  1.3441  0.9806 -0.1427
  325MOL0     O42798   8.219   8.103   5.925 -0.7759 -0.3297  0.1080
  325MOL0     C42799   8.126   8.011   5.953  0.2080 -0.1950  0.1004
  325MOL0     C42800   8.135   7.916   6.057 -0.2607 -0.1667  0.5980
  325MOL0     C42801   8.024   7.831   6.093 -0.0310  0.5767 -0.8856
  325MOL0     C42802   7.909   7.829   6.013 -0.4408 -0.3253  0.7197
  325MOL0     O42803   7.797   7.759   6.039 -0.0222 -0.5924  0.1209
  325MOL0     C42804   7.719   7.700   5.929 -0.1160 -0.3395  0.1153
  325MOL0     C42805   7.643   7.573   5.978  0.5894 -0.4934  0.2134
  325MOL0     C42806   7.694   7.442   5.921  0.0626 -0.4202 -0.0164
  325MOL0     C42807   7.838   7.406   5.969  1.8238 -0.1804  0.2056
  325MOL0     C42808   7.874   7.255   5.949  0.2599 -0.1146 -0.3985
  325MOL0     C42809   8.022   7.238   5.918 -1.0376  0.3224 -0.0034
  325MOL0     C42810   8.044   7.092   5.890 -0.1877  1.2809  0.6686
  325MOL0     C42811   8.068   7.018   6.029  0.1860  0.7748  0.2031
  325MOL0    Cl42812   8.071   6.849   5.983 -0.1807 -0.1716  0.3300
  325MOL0     C42813   7.908   7.918   5.900 -0.0175 -0.5439  0.1798
  325MOL0     C42814   8.014   8.005   5.871  0.1817 -0.2528 -0.3321
  325MOL0     O42815   8.395   7.944   5.912  0.2794 -0.1080 -0.7966
  325MOL0     C42816   8.578   8.161   5.894  0.2882  0.0013  0.5570
  325MOL0     C42817   8.671   8.260   5.870 -0.4662  0.1056  0.9573
  325MOL0     N42818   8.563   8.888   6.161  0.3435  0.6516  0.2580
  325MOL0     N42819   8.644   8.931   6.256  0.0592 -0.2199  0.6270
  325MOL0     C42820   9.235   9.953   5.857 -0.7492  1.2488  0.1895
  325MOL0     C42821   9.346  10.023   5.811  0.1619  0.7042  0.7042
  325MOL0     C42822   9.535  10.280   5.466  0.4799 -0.0769 -0.2095
  325MOL0     C42823   9.671  10.243   5.466 -0.7689 -0.2605  0.3528
  325MOL0     C42824   9.770  10.322   5.403  0.8041  0.0456  0.1020
  325MOL0     C42825   9.739  10.437   5.332 -0.5471  0.2690 -0.9532
  325MOL0     O42826   9.833  10.521   5.273  0.1698  0.0502 -0.4772
  325MOL0     C42827   9.972  10.488   5.303  0.0296 -0.2801  0.8839
  325MOL0     C42828  10.065  10.598   5.246  0.6051  0.6873  1.0870
  325MOL0     C42829  10.091  10.728   5.329 -0.2435 -0.0474  0.8698
  325MOL0     C42830  10.166  10.832   5.253  0.4576 -0.5339  0.5772
  325MOL0     C42831  10.303  10.780   5.234  0.7152 -1.2747  0.2316
  325MOL0     C42832  10.416  10.748   5.204 -0.0056 -0.7658 -0.5798
  325MOL0     C42833   9.605  10.474   5.334 -0.5922  0.1221  0.9225
  325MOL0     C42834   9.506  10.396   5.399 -0.8502 -0.0164  0.2588
  325MOL0     H42835   9.316   9.919   5.487 -0.0830  3.0400  0.2293
  325MOL0     H42836   9.131   9.800   5.586 -1.0930  1.9812  0.0691
  325MOL0     H42837   8.998   9.860   6.015  1.7474  0.3448  0.5204
  325MOL0     H42838   9.138   9.747   6.023  1.5140  0.0906 -1.8991
  325MOL0     H42839   9.008   9.560   5.947  0.9439 -2.1140  5.6251
  325MOL0     H42840   8.859   9.661   5.915  0.5050 -1.6426 -1.2715
  325MOL0     H42841   8.844   9.689   6.176  0.6904 -1.7131  3.1170
  325MOL0     H42842   8.978   9.584   6.201  0.1127 -0.5284 -0.7346
  325MOL0     H42843   8.725   9.531   6.070  1.6014  4.1633  0.6140
  325MOL0     H42844   8.858   9.419   6.053 -1.0960 -1.3035  0.7035
  325MOL0     H42845   8.700   9.482   6.313  0.3073 -0.9471  2.2423
  325MOL0     H42846   8.880   9.451   6.318  0.4933 -1.0665 -0.5811
  325MOL0     H42847   8.663   9.257   6.250  1.0038  0.1841  0.7078
  325MOL0     H42848   8.753   9.283   6.401  0.1530 -0.3480 -0.6593
  325MOL0     H42849   8.875   9.208   6.123  0.7206 -0.0814 -1.0350
  325MOL0     H42850   8.965   9.232   6.263 -1.3502  1.8843 -0.1217
  325MOL0     H42851   8.824   9.047   6.375  1.2602  0.4198  0.3460
  325MOL0     H42852   8.945   9.003   6.253  0.3482  0.5385 -3.2870
  325MOL0     H42853   8.796   9.038   5.982  1.3501  0.8303  2.3968
  325MOL0     H42854   8.555   8.953   5.825 -5.0307 -0.5067 -0.6363
  325MOL0     H42855   8.433   8.920   5.936  0.6995  2.8447  0.6913
  325MOL0     H42856   8.449   8.724   5.806  1.5986 -0.2064 -1.7420
  325MOL0     H42857   8.542   8.688   5.955 -0.8210  0.9250  2.1667
  325MOL0     H42858   8.656   8.799   5.694 -1.8418  2.3022  1.8608
  325MOL0     H42859   8.752   8.753   5.837  0.0910 -1.1499  0.9188
  325MOL0     H42860   8.771   8.601   5.666  0.2717  0.3486  0.1645
  325MOL0     H42861   8.599   8.575   5.660  1.4354  0.1810 -2.8348
  325MOL0     H42862   8.432   8.498   5.804  0.2323 -0.0492 -0.1297
  325MOL0     H42863   8.288   8.314   5.846  0.7082  3.9609 -0.6095
  325MOL0     H42864   8.223   7.911   6.120  0.0566  1.9884  0.4014
  325MOL0     H42865   8.016   7.783   6.189 -2.0459 -0.5584 -1.5731
  325MOL0     H42866   7.790   7.674   5.851 -0.7621  0.2863 -0.6956
  325MOL0     H42867   7.650   7.770   5.881  1.0364 -0.4841 -1.8238
  325MOL0     H42868   7.537   7.585   5.951  0.5769  0.0488  0.4810
  325MOL0     H42869   7.644   7.562   6.087 -0.8098  3.6782  0.8441
  325MOL0     H42870   7.696   7.443   5.811 -1.0594 -0.7378 -0.0589
  325MOL0     H42871   7.619   7.373   5.960 -0.8396  1.6465  2.1495
  325MOL0     H42872   7.907   7.479   5.926  0.6981 -0.2216 -1.8223
  325MOL0     H42873   7.845   7.419   6.077 -1.0150 -0.9188  0.5506
  325MOL0     H42874   7.826   7.228   5.854  1.9793  1.9234 -1.9390
  325MOL0     H42875   7.832   7.183   6.020 -1.0487  0.9745 -0.0301
  325MOL0     H42876   8.087   7.265   6.002  2.3279  0.6486 -2.4665
  325MOL0     H42877   8.045   7.296   5.828 -2.2568 -2.3100 -2.1571
  325MOL0     H42878   7.964   7.044   5.832  0.7072 -0.3222  0.7122
  325MOL0     H42879   8.129   7.075   5.823  1.0038 -0.0996  2.4618
  325MOL0     H42880   7.988   7.030   6.103  1.1145 -3.7152  2.2594
  325MOL0     H42881   8.164   7.043   6.075  0.9416 -2.1116  0.3493
  325MOL0     H42882   7.817   7.918   5.840  1.2194 -0.4795 -1.7960
  325MOL0     H42883   8.011   8.068   5.783 -1.4601  0.2887  0.0897
  325MOL0     H42884   8.625   8.066   5.917  1.5328  0.6056  0.6005
  325MOL0     H42885   8.778   8.247   5.868 -0.0818  2.4557 -2.3537
  325MOL0     H42886   9.213   9.975   5.961 -1.2887  1.1499  0.1032
  325MOL0     H42887   9.399  10.083   5.883 -0.5755  0.4598  1.4729
  325MOL0     H42888   9.710  10.167   5.533  1.5618  1.5693  1.2481
  325MOL0     H42889   9.871  10.291   5.426  0.6738  0.3164  1.0729
  325MOL0     H42890  10.001  10.390   5.264  3.4749  1.3602 -1.1811
  325MOL0     H42891   9.990  10.481   5.411 -0.0969 -1.0980  0.8580
  325MOL0     H42892  10.156  10.539   5.233 -0.4497 -0.5553 -1.2191
  325MOL0     H42893  10.035  10.620   5.143 -0.1906  0.0786  1.1815
  325MOL0     H42894  10.152  10.711   5.419  0.8346  0.7436  0.3044
  325MOL0     H42895   9.997  10.760   5.376  1.1733  2.2064  2.3100
  325MOL0     H42896  10.120  10.849   5.155 -1.1043  2.5987  1.7362
  325MOL0     H42897  10.181  10.930   5.299 -1.0725  0.6384 -1.2639
  325MOL0     H42898  10.510  10.716   5.164  0.6108 -2.3894  1.9279
  325MOL0     H42899   9.577  10.563   5.277  3.2898  0.3805 -0.9479
  325MOL0     H42900   9.401  10.416   5.385 -0.1313  2.6321 -2.5398
  326MOL0     O42901   5.464   2.126   5.067 -0.2817  0.1758  0.5450
  326MOL0     C42902   5.557   2.200   5.078  0.4519 -0.2420  0.0316
  326MOL0     O42903   5.543   2.329   5.110 -0.3549  0.2775  0.6026
  326MOL0     C42904   5.412   2.369   5.134 -0.6525 -0.2962 -1.3602
  326MOL0     C42905   5.350   2.436   5.033 -0.4820 -0.8222  0.7864
  326MOL0     C42906   5.217   2.478   5.049 -0.4567 -0.4571  0.6728
  326MOL0     C42907   5.149   2.464   5.171 -0.1683  0.1838 -0.0403
  326MOL0     O42908   5.020   2.513   5.175  0.6850  0.5315 -0.0002
  326MOL0     C42909   4.963   2.527   5.306 -0.8858  0.4677  0.5029
  326MOL0     C42910   4.846   2.619   5.292 -0.9608 -0.1773 -0.4878
  326MOL0     C42911   4.787   2.658   5.435 -0.3945 -0.1168  0.3808
  326MOL0     C42912   4.639   2.706   5.421  0.3487 -0.2146  0.1336
  326MOL0     C42913   4.577   2.753   5.544  0.1936 -0.3966 -0.3500
  326MOL0     C42914   4.422   2.780   5.532  0.9761  0.0601  0.2354
  326MOL0     C42915   4.354   2.643   5.521  0.2293 -0.3600  0.7040
  326MOL0     C42916   4.202   2.639   5.572  0.9260  0.2249  0.4136
  326MOL0     N42917   4.117   2.520   5.565 -0.7206  0.2461 -0.3605
  326MOL0     C42918   4.038   2.466   5.461 -0.3991  0.6629 -0.2124
  326MOL0     C42919   4.009   2.335   5.496  0.7981 -0.3549 -0.7791
  326MOL0     C42920   3.938   2.238   5.405  0.5850  0.2623  0.2866
  326MOL0     C42921   3.788   2.272   5.410 -0.9208 -0.2433 -0.2409
  326MOL0     C42922   3.743   2.378   5.320 -0.3255 -0.7455  1.1556
  326MOL0     C42923   3.776   2.351   5.173 -0.6762 -0.0581  0.0590
  326MOL0     O42924   3.745   2.214   5.153 -0.3264  0.5166 -0.8978
  326MOL0     C42925   3.658   2.181   5.056 -0.0226  1.1367 -0.1833
  326MOL0     C42926   3.556   2.093   5.084 -0.4039 -0.0392  0.9245
  326MOL0     C42927   3.460   2.072   4.984  0.0335 -0.8442  0.3161
  326MOL0     C42928   3.468   2.122   4.852 -0.2511  0.4577  0.5246
  326MOL0     C42929   3.364   2.093   4.747  0.2783 -0.2740 -0.5564
  326MOL0     O42930   3.252   2.015   4.794 -0.2824 -0.0677 -0.0253
  326MOL0     C42931   3.136   2.035   4.724 -0.6473 -0.0889  0.3334
  326MOL0     C42932   3.091   1.918   4.666 -0.1629 -0.2320  0.6422
  326MOL0     C42933   2.957   1.919   4.612  0.6500  0.6016 -0.6337
  326MOL0     C42934   2.892   2.039   4.594  0.2637 -0.3507  1.0141
  326MOL0     O42935   2.773   2.033   4.523 -0.1857 -0.4175  0.0268
  326MOL0     C42936   2.665   2.140   4.532  0.6142 -0.1921  0.9818
  326MOL0     C42937   2.544   2.079   4.476  0.5606 -0.5078  0.2434
  326MOL0     C42938   2.520   1.941   4.544  0.2898  0.3404 -0.4126
  326MOL0     C42939   2.376   1.890   4.516 -0.0599  0.4303 -1.0899
  326MOL0     C42940   2.393   1.796   4.395 -0.3553  0.4085  0.5292
  326MOL0     C42941   2.283   1.695   4.384  0.0302  0.4116 -0.3271
  326MOL0     C42942   2.157   1.768   4.338 -0.5220 -0.9485 -1.3407
  326MOL0     C42943   2.073   1.665   4.284  0.4065 -0.3049  0.0230
  326MOL0    Cl42944   2.126   1.596   4.131 -0.2439 -0.2398 -0.2467
  326MOL0     C42945   2.943   2.159   4.643 -0.0712  0.1338 -0.0793
  326MOL0     C42946   3.065   2.156   4.700 -0.5145 -0.2604  0.4584
  326MOL0     O42947   3.372   2.138   4.632 -0.3607  0.0059  0.1105
  326MOL0     C42948   3.583   2.192   4.824  0.0977 -0.2941  0.5308
  326MOL0     C42949   3.674   2.229   4.929 -0.3160 -0.6347  0.3887
  326MOL0     N42950   4.058   2.320   5.621 -0.4410  0.1293  0.8385
  326MOL0     N42951   4.127   2.428   5.663 -0.3596 -0.2543  0.6205
  326MOL0     C42952   5.213   2.412   5.281 -0.8412  0.1541  0.3029
  326MOL0     C42953   5.344   2.359   5.260 -0.3670  0.2230 -0.0009
  326MOL0     C42954   5.698   2.143   5.043 -0.1744  0.3885  0.5601
  326MOL0     C42955   5.813   2.219   5.039 -0.0375 -0.8058  0.3122
  326MOL0     C42956   5.936   2.167   5.012 -0.0281  0.6695 -0.5679
  326MOL0     C42957   5.951   2.036   4.979 -0.3493 -0.4655  0.0363
  326MOL0     O42958   6.086   1.996   4.952 -0.4558 -0.3978 -0.4785
  326MOL0     C42959   6.098   1.852   4.905 -0.2815 -0.3170  0.1623
  326MOL0     C42960   6.245   1.858   4.847  1.1414 -0.3365 -0.3361
  326MOL0     C42961   6.267   1.935   4.712 -1.0696  0.2681  0.0525
  326MOL0     C42962   6.203   1.852   4.589 -0.7763 -0.3450  0.3812
  326MOL0     C42963   6.207   1.939   4.467 -0.1606 -0.1237 -0.4117
  326MOL0     C42964   6.216   2.025   4.388  0.0273 -1.0838 -0.6847
  326MOL0     C42965   5.842   1.953   4.988 -0.2360 -0.3781 -0.3063
  326MOL0     C42966   5.714   2.007   5.023 -0.2946 -0.7873 -0.9383
  326MOL0     H42967   5.407   2.452   4.942 -3.1152 -1.4623 -1.0814
  326MOL0     H42968   5.167   2.530   4.969  0.7367 -1.1416 -0.5576
  326MOL0     H42969   5.031   2.587   5.368 -0.6348 -0.7250  1.4015
  326MOL0     H42970   4.939   2.431   5.352  0.0390 -0.6862 -1.2995
  326MOL0     H42971   4.768   2.574   5.229 -1.4346 -2.3835  1.5633
  326MOL0     H42972   4.871   2.712   5.240 -1.4654 -0.0576 -0.5202
  326MOL0     H42973   4.851   2.721   5.498  1.9534 -4.3478  2.6817
  326MOL0     H42974   4.786   2.573   5.505  3.0363  0.5464  1.3927
  326MOL0     H42975   4.641   2.791   5.352  0.5177 -0.6950 -0.4605
  326MOL0     H42976   4.574   2.633   5.374 -0.9152  0.1808  1.2034
  326MOL0     H42977   4.618   2.845   5.585 -3.4002  0.4956  1.7066
  326MOL0     H42978   4.591   2.683   5.627  0.4694  1.0086  0.8175
  326MOL0     H42979   4.386   2.838   5.446  1.2431 -1.1889 -0.7484
  326MOL0     H42980   4.393   2.838   5.620  3.9393  0.5045  1.0207
  326MOL0     H42981   4.355   2.607   5.418  0.7497  0.4128  0.4224
  326MOL0     H42982   4.416   2.564   5.562  3.0855  1.7372  0.7406
  326MOL0     H42983   4.160   2.725   5.520 -3.5661 -2.9202 -1.8288
  326MOL0     H42984   4.205   2.670   5.677 -0.5133  1.5702  0.0964
  326MOL0     H42985   4.016   2.511   5.365  0.4318 -0.7410 -1.0939
  326MOL0     H42986   3.951   2.137   5.444 -0.0668 -0.4014 -1.1657
  326MOL0     H42987   3.976   2.261   5.305 -1.1497 -0.5100 -0.5811
  326MOL0     H42988   3.769   2.306   5.512  0.5458 -0.0552 -0.0201
  326MOL0     H42989   3.728   2.180   5.404  0.4166 -1.1383 -0.2946
  326MOL0     H42990   3.634   2.382   5.334 -0.7848  2.8413 -1.7540
  326MOL0     H42991   3.780   2.470   5.367 -3.0386  0.2655  1.5169
  326MOL0     H42992   3.878   2.378   5.146 -1.4147  2.2250 -0.7281
  326MOL0     H42993   3.721   2.412   5.100  0.3204 -0.1061 -0.7583
  326MOL0     H42994   3.546   2.046   5.181 -0.8920  3.3864  2.6755
  326MOL0     H42995   3.384   2.005   5.022  1.0627 -2.9903 -1.1943
  326MOL0     H42996   3.162   1.836   4.664  0.4382  0.2824 -0.0400
  326MOL0     H42997   2.907   1.826   4.587  0.7770 -0.5343  2.8630
  326MOL0     H42998   2.694   2.227   4.472  0.6605  0.4264  1.8798
  326MOL0     H42999   2.640   2.172   4.633  0.1584 -3.3124  1.9542
  326MOL0     H43000   2.553   2.065   4.368  2.9198  0.4561  0.2453
  326MOL0     H43001   2.461   2.150   4.483  1.6047  0.9475 -1.2690
  326MOL0     H43002   2.538   1.948   4.652  6.0476 -1.4320 -0.9387
  326MOL0     H43003   2.593   1.867   4.511  1.9249  1.6707  0.0985
  326MOL0     H43004   2.328   1.833   4.596  0.4408  0.6342 -0.6363
  326MOL0     H43005   2.316   1.977   4.490 -0.5261 -0.4240 -3.0100
  326MOL0     H43006   2.487   1.741   4.402  0.0744  1.1600  0.7740
  326MOL0     H43007   2.400   1.862   4.309 -3.2729  0.8701  0.5300
  326MOL0     H43008   2.260   1.645   4.478  3.0186  0.1558  0.3661
  326MOL0     H43009   2.316   1.616   4.316  2.0130  0.5552  0.4141
  326MOL0     H43010   2.102   1.817   4.419 -2.2515 -2.9389 -1.2235
  326MOL0     H43011   2.187   1.845   4.267  1.2388  0.6644  0.9761
  326MOL0     H43012   1.979   1.714   4.257  1.4180  0.2619 -2.8128
  326MOL0     H43013   2.062   1.579   4.351 -3.3689 -0.0682 -0.0471
  326MOL0     H43014   2.886   2.250   4.624 -1.6024 -0.6780  0.4689
  326MOL0     H43015   3.105   2.243   4.751 -0.4663  0.0813 -0.1483
  326MOL0     H43016   3.604   2.231   4.725 -2.0129 -1.6162 -0.4981
  326MOL0     H43017   3.761   2.288   4.903 -1.0305  0.6296  0.8165
  326MOL0     H43018   5.179   2.407   5.384 -0.8855 -0.5576  0.2552
  326MOL0     H43019   5.389   2.309   5.344 -1.9049 -1.5385 -0.1614
  326MOL0     H43020   5.801   2.321   5.075 -0.3325 -0.8480  0.3317
  326MOL0     H43021   6.017   2.237   5.030 -0.9476  0.9227  3.5368
  326MOL0     H43022   6.029   1.832   4.822 -1.4369 -1.4967  1.3652
  326MOL0     H43023   6.080   1.786   4.990 -0.2429 -0.7032 -0.1278
  326MOL0     H43024   6.305   1.879   4.936  1.3553  2.1171 -0.9908
  326MOL0     H43025   6.261   1.752   4.824 -0.4616 -0.9737  1.1677
  326MOL0     H43026   6.376   1.923   4.704 -0.9252 -0.0976  1.9958
  326MOL0     H43027   6.222   2.032   4.733 -4.0285 -1.2988  1.6879
  326MOL0     H43028   6.245   1.754   4.564  2.2956  1.1878 -1.0958
  326MOL0     H43029   6.098   1.839   4.618 -1.6736 -0.5798 -2.6950
  326MOL0     H43030   6.244   2.099   4.314  0.6412 -1.4118 -0.7900
  326MOL0     H43031   5.844   1.850   4.955 -1.9791 -0.2054 -1.0458
  326MOL0     H43032   5.629   1.940   5.027 -0.7083 -0.2206  0.4731
  327MOL0     O43033   3.396  11.306   8.282 -1.3836  0.2631 -0.2397
  327MOL0     C43034   3.350  11.287   8.170  0.0595  0.9913 -0.5868
  327MOL0     O43035   3.412  11.228   8.078  0.2544  0.0948 -0.6096
  327MOL0     C43036   3.552  11.209   8.094  1.4876  0.0835 -0.2605
  327MOL0     C43037   3.640  11.316   8.115  0.3281  0.2700 -0.8734
  327MOL0     C43038   3.776  11.287   8.122  0.3835  0.5908 -0.5963
  327MOL0     C43039   3.825  11.160   8.111 -0.2433  1.2771 -0.3671
  327MOL0     O43040   3.961  11.135   8.097  0.1118  0.1477 -0.9758
  327MOL0     C43041   3.990  11.080   7.967  0.2193 -0.5647 -0.5937
  327MOL0     C43042   4.142  11.116   7.954 -0.9181  0.4740 -0.8955
  327MOL0     C43043   4.244  11.038   8.049  0.4484 -0.0505 -0.5746
  327MOL0     C43044   4.306  10.904   8.006 -0.0173 -0.5701 -0.0875
  327MOL0     C43045   4.439  10.912   7.924  0.8872 -0.3588  0.4652
  327MOL0     C43046   4.523  10.786   7.931  0.1707  0.9324 -0.7629
  327MOL0     C43047   4.664  10.817   7.879 -0.3288 -0.6949  0.1304
  327MOL0     C43048   4.757  10.704   7.886 -0.1084 -0.3110 -0.6654
  327MOL0     N43049   4.874  10.738   7.802  0.7498 -0.6036  0.8283
  327MOL0     C43050   4.889  10.718   7.663  0.1204 -0.5099 -0.5175
  327MOL0     C43051   5.008  10.771   7.631 -0.0547  0.2464  0.1411
  327MOL0     C43052   5.055  10.776   7.485  0.4181  0.1826  0.8557
  327MOL0     C43053   5.059  10.635   7.426 -0.0292  0.4880 -0.5646
  327MOL0     C43054   5.163  10.554   7.512  0.3278  0.9290 -0.0992
  327MOL0     C43055   5.298  10.610   7.525  0.0750 -0.1412 -0.2790
  327MOL0     O43056   5.401  10.513   7.542  0.0040  0.1020 -0.6111
  327MOL0     C43057   5.502  10.555   7.628  0.5684  0.0223  0.0946
  327MOL0     C43058   5.626  10.594   7.573  0.2721 -0.3787  0.1234
  327MOL0     C43059   5.729  10.635   7.646 -0.0109  0.7879  0.2444
  327MOL0     C43060   5.724  10.633   7.793  0.6204 -0.2496  0.2692
  327MOL0     C43061   5.842  10.676   7.876  0.3047  0.3882 -0.0893
  327MOL0     O43062   5.961  10.711   7.817 -0.2600  0.1558 -0.4196
  327MOL0     C43063   6.067  10.738   7.900  0.5741 -0.7514 -0.4337
  327MOL0     C43064   6.167  10.835   7.878  2.0150  0.1716 -0.9365
  327MOL0     C43065   6.284  10.836   7.942 -0.9116  0.2273 -0.3630
  327MOL0     C43066   6.314  10.738   8.039  0.0846 -0.9861 -0.6897
  327MOL0     O43067   6.436  10.726   8.105  0.1230 -0.2250 -0.3841
  327MOL0     C43068   6.555  10.737   8.022  0.3962  0.3804  0.0020
  327MOL0     C43069   6.586  10.600   7.964  0.3461  0.6076  0.2794
  327MOL0     C43070   6.514  10.568   7.832 -0.4056 -0.0752 -0.2916
  327MOL0     C43071   6.556  10.422   7.782  0.2888 -0.6584  0.0424
  327MOL0     C43072   6.451  10.377   7.670 -0.6322  0.0149  0.2177
  327MOL0     C43073   6.307  10.412   7.664  0.0885 -0.3653  0.6337
  327MOL0     C43074   6.274  10.528   7.562 -0.3156  0.2842 -0.0258
  327MOL0     C43075   6.122  10.547   7.569 -0.1572 -0.4923  0.6161
  327MOL0    Cl43076   6.097  10.700   7.473  0.4345  0.0339 -0.1423
  327MOL0     C43077   6.219  10.635   8.068  0.2176 -0.6849  0.6730
  327MOL0     C43078   6.101  10.633   7.988 -0.2658 -0.2305 -0.1878
  327MOL0     O43079   5.803  10.701   7.987 -0.3006 -0.0604  0.1544
  327MOL0     C43080   5.607  10.575   7.852 -0.0111 -0.1918  1.1384
  327MOL0     C43081   5.494  10.536   7.766  0.4728 -1.1246 -1.1142
  327MOL0     N43082   5.069  10.813   7.747  0.2401  0.2384  0.5938
  327MOL0     N43083   4.990  10.780   7.850 -1.1083 -1.1989 -0.8219
  327MOL0     C43084   3.726  11.057   8.084  0.9692 -0.8485  0.4662
  327MOL0     C43085   3.590  11.083   8.073 -0.4218 -0.2010 -0.3513
  327MOL0     C43086   3.214  11.335   8.141 -0.3591 -0.0828 -0.6958
  327MOL0     C43087   3.168  11.375   8.011  0.8252  0.1607 -0.1383
  327MOL0     C43088   3.033  11.411   7.998  1.5659  1.3543 -1.2686
  327MOL0     C43089   2.950  11.422   8.112  0.3602 -0.8244 -0.7768
  327MOL0     O43090   2.821  11.464   8.094  0.5405  0.0651  0.3694
  327MOL0     C43091   2.778  11.558   8.202 -0.0006 -0.3267 -0.1923
  327MOL0     C43092   2.674  11.648   8.147 -0.5326  0.4680  0.0640
  327MOL0     C43093   2.714  11.782   8.108  0.5315 -0.2931 -0.6158
  327MOL0     C43094   2.592  11.861   8.080  0.6464  0.4396  0.2614
  327MOL0     C43095   2.518  11.820   7.961 -0.1070  0.7121 -0.6300
  327MOL0     C43096   2.441  11.805   7.868 -0.1413  0.7520 -0.3553
  327MOL0     C43097   3.007  11.399   8.237 -0.3589 -0.2490  0.4170
  327MOL0     C43098   3.133  11.355   8.247 -0.3758 -0.5321 -0.8218
  327MOL0     H43099   3.594  11.414   8.118  0.6461  0.4068  1.2347
  327MOL0     H43100   3.842  11.372   8.138  0.3934  0.3485  0.7224
  327MOL0     H43101   3.943  11.123   7.879 -2.9631 -4.0281 -0.8141
  327MOL0     H43102   3.956  10.976   7.964  0.6104 -0.8589  1.9991
  327MOL0     H43103   4.151  11.224   7.966  3.4037  0.1682  0.6592
  327MOL0     H43104   4.188  11.105   7.855  1.8574  0.4591  0.2958
  327MOL0     H43105   4.195  11.024   8.146  0.9813 -0.1872 -0.3221
  327MOL0     H43106   4.335  11.096   8.068  1.4157 -2.2849  2.3736
  327MOL0     H43107   4.334  10.849   8.096  1.4792  1.3760  0.6968
  327MOL0     H43108   4.226  10.852   7.952 -1.5162 -0.2783  1.7566
  327MOL0     H43109   4.500  10.992   7.966  1.2140 -0.4689  0.2054
  327MOL0     H43110   4.413  10.936   7.820 -3.4070 -0.5566  1.3346
  327MOL0     H43111   4.489  10.714   7.856  2.9087  1.7211 -2.9461
  327MOL0     H43112   4.525  10.738   8.029 -1.3963 -0.4691 -1.3687
  327MOL0     H43113   4.657  10.850   7.775  2.1386  2.2508  0.7654
  327MOL0     H43114   4.705  10.900   7.936 -3.0162 -1.2584  3.2496
  327MOL0     H43115   4.715  10.607   7.858 -2.0288 -0.6146  2.6932
  327MOL0     H43116   4.789  10.682   7.989 -0.0581  0.0684 -0.5975
  327MOL0     H43117   4.821  10.675   7.591  0.6052  0.3194 -1.4987
  327MOL0     H43118   5.140  10.842   7.468  0.7322 -0.6610 -1.1434
  327MOL0     H43119   4.987  10.834   7.422  1.3468  0.4909  0.1229
  327MOL0     H43120   5.092  10.651   7.323 -2.2945 -2.0977 -1.8520
  327MOL0     H43121   4.955  10.600   7.432  0.1109 -0.0136 -0.9686
  327MOL0     H43122   5.119  10.531   7.610 -0.0408  2.1477  0.0356
  327MOL0     H43123   5.169  10.452   7.473 -2.0247 -0.7203  3.3314
  327MOL0     H43124   5.281  10.676   7.611  2.1168  2.2228 -1.5452
  327MOL0     H43125   5.332  10.676   7.444  0.9887 -1.4008 -0.9631
  327MOL0     H43126   5.636  10.589   7.465 -0.1451  0.9025  0.0115
  327MOL0     H43127   5.826  10.655   7.601 -0.6292  0.8250 -1.1034
  327MOL0     H43128   6.165  10.904   7.794  0.3530 -1.2389 -2.1332
  327MOL0     H43129   6.360  10.907   7.913  3.2262 -3.3417  0.6587
  327MOL0     H43130   6.644  10.760   8.082  1.8611 -4.1566  0.0096
  327MOL0     H43131   6.561  10.810   7.942  2.1167  3.2425  2.5159
  327MOL0     H43132   6.563  10.529   8.044  0.4530 -0.0553 -0.2716
  327MOL0     H43133   6.693  10.592   7.945  0.2854 -0.1281  0.2033
  327MOL0     H43134   6.543  10.643   7.758  2.2713  1.5432  2.2045
  327MOL0     H43135   6.409  10.574   7.865  1.0987  0.0941  5.6368
  327MOL0     H43136   6.661  10.409   7.753  0.4445  0.8397 -0.1468
  327MOL0     H43137   6.543  10.354   7.867 -0.5692 -2.6349 -1.5645
  327MOL0     H43138   6.454  10.268   7.658 -0.8162  0.2105 -1.8909
  327MOL0     H43139   6.497  10.407   7.575 -3.4458  1.2668 -0.8454
  327MOL0     H43140   6.273  10.443   7.763 -0.1248  0.5518  0.2801
  327MOL0     H43141   6.252  10.325   7.628  1.1799 -0.5653 -0.5992
  327MOL0     H43142   6.333  10.616   7.584 -0.7862  1.0800 -1.7640
  327MOL0     H43143   6.316  10.494   7.467  1.4314 -1.2135  1.1996
  327MOL0     H43144   6.087  10.558   7.672 -2.6845 -2.0394  0.0132
  327MOL0     H43145   6.057  10.479   7.512 -0.1880 -0.2866  0.4033
  327MOL0     H43146   6.245  10.546   8.125 -0.4922 -1.1314  0.3025
  327MOL0     H43147   6.030  10.553   8.004 -1.5086  1.1205  1.4093
  327MOL0     H43148   5.597  10.559   7.959  1.0273  3.0174  1.8329
  327MOL0     H43149   5.407  10.496   7.816 -0.0194 -0.8492 -1.7377
  327MOL0     H43150   3.768  10.959   8.062  0.3126 -1.7537  2.8977
  327MOL0     H43151   3.510  11.014   8.045 -1.2131  0.1748  0.9121
  327MOL0     H43152   3.222  11.371   7.917 -0.8796  0.0894 -1.1705
  327MOL0     H43153   3.006  11.428   7.894  0.6198 -0.1551 -1.2963
  327MOL0     H43154   2.865  11.620   8.226 -0.0753 -1.5601  4.2877
  327MOL0     H43155   2.735  11.509   8.290  0.8638  0.4382  0.6797
  327MOL0     H43156   2.640  11.592   8.059  0.2620  1.9372 -1.2438
  327MOL0     H43157   2.592  11.647   8.220  0.0295 -1.8951  0.7466
  327MOL0     H43158   2.778  11.791   8.020 -1.1439  0.1727 -1.8247
  327MOL0     H43159   2.759  11.819   8.201  0.3899 -1.2520 -0.1539
  327MOL0     H43160   2.529  11.870   8.169  0.2516  2.4597 -0.1780
  327MOL0     H43161   2.621  11.966   8.073 -1.1492  1.0157  0.8892
  327MOL0     H43162   2.386  11.780   7.780  3.5642 -2.9322 -1.9461
  327MOL0     H43163   2.936  11.409   8.318 -0.0720  1.5139  0.4914
  327MOL0     H43164   3.168  11.349   8.349 -1.9289  0.0960 -0.2238
  328MOL0     O43165   5.519   6.035   6.580 -0.5415 -0.2519 -0.2922
  328MOL0     C43166   5.613   5.987   6.639 -0.1450  0.9691 -0.2548
  328MOL0     O43167   5.670   6.033   6.760  0.7721 -0.4654 -0.0794
  328MOL0     C43168   5.604   6.147   6.809  0.3197 -0.2197 -0.7986
  328MOL0     C43169   5.612   6.271   6.753 -0.9585 -0.4415  0.6276
  328MOL0     C43170   5.548   6.382   6.811  0.1285  0.1882 -0.2159
  328MOL0     C43171   5.481   6.369   6.930  0.7776  0.2688  0.4313
  328MOL0     O43172   5.414   6.463   6.990 -0.7542 -0.4279  0.1898
  328MOL0     C43173   5.421   6.603   6.936  0.2150  1.5710 -0.1573
  328MOL0     C43174   5.343   6.703   7.007 -0.0872 -0.2469  0.0068
  328MOL0     C43175   5.366   6.854   6.941  0.0818 -0.4803  0.1324
  328MOL0     C43176   5.258   6.950   6.997  0.3289 -0.1830 -0.5203
  328MOL0     C43177   5.317   7.092   7.009 -0.1016  0.5220  0.2618
  328MOL0     C43178   5.375   7.150   6.879 -0.3540 -0.0550  0.1975
  328MOL0     C43179   5.415   7.294   6.893 -0.4652  1.0210 -0.4554
  328MOL0     C43180   5.533   7.311   6.983 -0.5738 -0.2633 -0.3524
  328MOL0     N43181   5.651   7.259   6.919 -0.6255 -0.5962 -1.5275
  328MOL0     C43182   5.735   7.332   6.841 -0.0776  0.0887  0.5048
  328MOL0     C43183   5.851   7.257   6.841  0.4701  0.2453  0.4841
  328MOL0     C43184   5.991   7.291   6.781  0.1044 -0.2683 -0.6909
  328MOL0     C43185   5.985   7.258   6.633  0.6019 -0.0995  0.2529
  328MOL0     C43186   5.961   7.112   6.592 -0.1980  0.8561 -0.0077
  328MOL0     C43187   6.007   7.097   6.449  0.0215 -0.0692  0.6674
  328MOL0     O43188   6.017   6.958   6.394 -0.5490  0.1509 -0.5963
  328MOL0     C43189   6.127   6.939   6.314 -0.2921 -0.1692  0.4241
  328MOL0     C43190   6.197   7.023   6.232  0.2377 -0.3830  0.2749
  328MOL0     C43191   6.304   6.982   6.161  0.1708  0.2332  0.9044
  328MOL0     C43192   6.353   6.849   6.170  0.1726 -0.4059 -0.7573
  328MOL0     C43193   6.469   6.803   6.095 -0.1739  0.1526 -0.0056
  328MOL0     O43194   6.483   6.668   6.085  0.2843  0.0773 -0.5130
  328MOL0     C43195   6.565   6.623   5.981 -0.4428  0.5835  0.0436
  328MOL0     C43196   6.606   6.675   5.861 -0.3138  0.0994  0.5401
  328MOL0     C43197   6.692   6.603   5.764  0.1231 -0.6589  0.0870
  328MOL0     C43198   6.733   6.467   5.795  0.4643  0.6320 -0.2297
  328MOL0     O43199   6.828   6.407   5.720 -0.8867  0.1417  0.3170
  328MOL0     C43200   6.912   6.301   5.790 -0.6961  0.0501 -0.3483
  328MOL0     C43201   6.956   6.201   5.684 -0.2986  0.7439 -0.2754
  328MOL0     C43202   6.954   6.057   5.743 -0.0621  0.8053  0.6127
  328MOL0     C43203   7.047   5.970   5.666  0.0146  0.3150 -0.3457
  328MOL0     C43204   7.024   5.822   5.682 -0.8147 -0.0255  0.8127
  328MOL0     C43205   7.096   5.737   5.573  0.3126  0.6242 -0.1442
  328MOL0     C43206   7.127   5.595   5.631 -0.0423  0.0873  0.0736
  328MOL0     C43207   7.025   5.486   5.609 -0.4362 -0.2999  0.8843
  328MOL0    Cl43208   6.927   5.517   5.747  0.0954 -0.3436 -0.3628
  328MOL0     C43209   6.682   6.418   5.910  0.1382 -0.5459 -0.7503
  328MOL0     C43210   6.594   6.489   5.997 -0.3580  0.1969 -0.3239
  328MOL0     O43211   6.545   6.889   6.046  0.3158  0.4321 -0.4738
  328MOL0     C43212   6.287   6.767   6.263 -0.0361  0.4539 -0.4221
  328MOL0     C43213   6.170   6.806   6.323 -0.7443 -0.4490  0.1173
  328MOL0     N43214   5.826   7.143   6.907  0.6360  0.5210 -0.0715
  328MOL0     N43215   5.717   7.150   6.973 -0.3190  0.5068 -0.3729
  328MOL0     C43216   5.484   6.242   6.994  0.8495  0.5064 -0.5373
  328MOL0     C43217   5.540   6.128   6.932  0.7743 -1.2164  0.5634
  328MOL0     C43218   5.682   5.868   6.577  0.3570  0.0421  0.2094
  328MOL0     C43219   5.690   5.870   6.435  0.2860  0.4543 -0.8327
  328MOL0     C43220   5.785   5.788   6.367  1.1605 -0.6562  0.5400
  328MOL0     C43221   5.871   5.708   6.447  0.1605 -0.3338  0.1311
  328MOL0     O43222   5.969   5.627   6.394 -0.0258 -0.7471 -0.3108
  328MOL0     C43223   5.970   5.604   6.250 -0.0955 -0.4747 -0.2957
  328MOL0     C43224   6.048   5.472   6.221 -0.8946  0.0252 -0.2015
  328MOL0     C43225   5.977   5.356   6.293  0.7456  0.0516 -0.8589
  328MOL0     C43226   5.849   5.306   6.216  0.7587  0.4127  0.2386
  328MOL0     C43227   5.877   5.252   6.084 -0.1952  0.4461  0.1672
  328MOL0     C43228   5.891   5.210   5.969  0.0560 -0.6303 -0.0425
  328MOL0     C43229   5.861   5.708   6.584  0.4087 -0.6137 -1.0956
  328MOL0     C43230   5.760   5.785   6.649  0.5579  0.0058  0.6372
  328MOL0     H43231   5.665   6.280   6.659  0.8776 -0.9554  1.5768
  328MOL0     H43232   5.556   6.479   6.763 -1.5118  0.4366 -0.0450
  328MOL0     H43233   5.385   6.589   6.833  0.4327 -1.5403  0.0965
  328MOL0     H43234   5.525   6.633   6.927  0.9559 -0.1751  1.8193
  328MOL0     H43235   5.382   6.696   7.109  0.6081  1.9918 -0.0672
  328MOL0     H43236   5.237   6.677   6.997  0.2015 -0.8739 -2.0061
  328MOL0     H43237   5.352   6.855   6.833 -0.8901  2.0253  0.2001
  328MOL0     H43238   5.458   6.905   6.971 -1.1550  0.5842  2.4605
  328MOL0     H43239   5.172   6.936   6.931  1.5122 -1.2228 -1.9190
  328MOL0     H43240   5.229   6.914   7.096  1.0384 -0.2864 -0.3426
  328MOL0     H43241   5.387   7.093   7.093 -1.6329  1.8039  1.5632
  328MOL0     H43242   5.230   7.149   7.039 -1.5263 -2.6824  2.8882
  328MOL0     H43243   5.321   7.133   6.786  2.6408  1.7684 -2.0758
  328MOL0     H43244   5.466   7.100   6.843 -0.2660  0.1288  0.1588
  328MOL0     H43245   5.441   7.326   6.792  0.0806 -1.3827 -1.1405
  328MOL0     H43246   5.331   7.351   6.933 -0.2523  0.4833  0.8333
  328MOL0     H43247   5.519   7.259   7.078 -0.3988 -1.3556 -0.9123
  328MOL0     H43248   5.557   7.416   7.004  2.0639 -0.7829 -0.4751
  328MOL0     H43249   5.714   7.419   6.780  0.1652 -0.6908 -0.7329
  328MOL0     H43250   6.070   7.228   6.822  0.5735  0.0396 -1.0965
  328MOL0     H43251   6.012   7.398   6.789  1.1327 -0.5569  0.8599
  328MOL0     H43252   6.084   7.285   6.594  0.5203 -2.7109 -1.9783
  328MOL0     H43253   5.923   7.331   6.579  1.2646 -0.2787 -0.7777
  328MOL0     H43254   6.015   7.050   6.664 -3.1857 -2.0286 -0.0390
  328MOL0     H43255   5.861   7.071   6.605  0.2709 -1.5428 -2.8311
  328MOL0     H43256   6.106   7.145   6.448 -1.6714  3.8873 -1.6158
  328MOL0     H43257   5.947   7.161   6.383  0.3682  1.7447  2.0271
  328MOL0     H43258   6.158   7.124   6.219 -1.8782 -1.0023  1.2549
  328MOL0     H43259   6.350   7.051   6.091 -0.4494 -3.3138 -3.4566
  328MOL0     H43260   6.578   6.777   5.838  1.6439  0.2886 -1.3313
  328MOL0     H43261   6.729   6.656   5.677 -2.5043  0.5811 -0.3783
  328MOL0     H43262   6.846   6.239   5.851 -0.3715 -1.0300 -1.0784
  328MOL0     H43263   6.997   6.334   5.850 -0.8068  2.4675 -1.4167
  328MOL0     H43264   7.049   6.224   5.632 -0.0657  0.7006  0.1197
  328MOL0     H43265   6.882   6.204   5.603 -0.4478 -2.1207 -0.3692
  328MOL0     H43266   6.850   6.023   5.750  0.3156 -0.1839  1.4832
  328MOL0     H43267   6.983   6.060   5.848 -1.3386  1.3671  0.9723
  328MOL0     H43268   7.051   5.991   5.559  1.5970 -1.5496 -0.7119
  328MOL0     H43269   7.147   5.999   5.699 -0.9931  4.3034 -0.2665
  328MOL0     H43270   6.917   5.811   5.699 -0.4559 -1.5378  2.2735
  328MOL0     H43271   7.080   5.810   5.775 -1.8791  2.2812  1.8475
  328MOL0     H43272   7.195   5.781   5.555  0.4704  0.7880  1.0443
  328MOL0     H43273   7.035   5.729   5.483 -2.6659  3.2236  1.4379
  328MOL0     H43274   7.213   5.559   5.573  0.0104 -1.6161  1.1497
  328MOL0     H43275   7.165   5.603   5.734 -0.3492 -1.6471  0.3498
  328MOL0     H43276   7.075   5.389   5.614 -1.0823 -0.6848  0.0088
  328MOL0     H43277   6.969   5.506   5.518 -1.3965 -0.1593  1.4878
  328MOL0     H43278   6.688   6.311   5.931  2.3298 -0.0536  1.6328
  328MOL0     H43279   6.543   6.445   6.082 -0.1166  1.0731  0.2981
  328MOL0     H43280   6.316   6.662   6.262 -0.5234  0.3159 -1.3290
  328MOL0     H43281   6.095   6.740   6.365 -1.5407 -1.8568 -3.2076
  328MOL0     H43282   5.434   6.237   7.090  0.9415  0.2084 -0.5031
  328MOL0     H43283   5.521   6.026   6.965  0.4545 -1.6506 -0.8885
  328MOL0     H43284   5.629   5.936   6.375  1.5171  2.7440  0.2899
  328MOL0     H43285   5.785   5.804   6.260 -1.9563 -2.1950  0.2073
  328MOL0     H43286   6.012   5.694   6.204 -1.4291  0.7902  0.8437
  328MOL0     H43287   5.869   5.581   6.213 -0.3893 -0.8999  0.7160
  328MOL0     H43288   6.052   5.456   6.113 -1.9491  3.4642 -0.8671
  328MOL0     H43289   6.147   5.488   6.265 -1.8659 -0.6036  2.4099
  328MOL0     H43290   5.945   5.389   6.392 -1.6866 -3.6467 -0.1817
  328MOL0     H43291   6.039   5.267   6.306 -0.0128 -1.5758 -6.1438
  328MOL0     H43292   5.793   5.233   6.275  2.6720  0.4490  2.2414
  328MOL0     H43293   5.781   5.380   6.174  0.9568 -1.4290 -3.7413
  328MOL0     H43294   5.908   5.164   5.873 -0.1140 -2.1731  0.6387
  328MOL0     H43295   5.941   5.653   6.632  1.8909 -0.5784 -3.3669
  328MOL0     H43296   5.749   5.786   6.757 -1.3614 -4.4994  0.7114
  329MOL0     O43297  11.075   6.491   3.047  1.2675 -0.3574 -0.1508
  329MOL0     C43298  11.068   6.558   2.946 -1.4066 -0.1351  0.8851
  329MOL0     O43299  10.977   6.652   2.912  0.6933 -0.5694 -0.1657
  329MOL0     C43300  10.860   6.661   2.988 -0.0768 -0.3633  0.2417
  329MOL0     C43301  10.752   6.570   2.975 -0.5274 -0.7331 -0.0992
  329MOL0     C43302  10.636   6.581   3.043  0.2113 -0.6322  0.1075
  329MOL0     C43303  10.632   6.691   3.136 -0.7452  0.4137 -1.0442
  329MOL0     O43304  10.509   6.701   3.202 -1.2475 -0.1109  0.3863
  329MOL0     C43305  10.495   6.760   3.333 -0.5774 -0.6343  0.0844
  329MOL0     C43306  10.557   6.689   3.444 -0.7249 -0.1683 -0.1833
  329MOL0     C43307  10.543   6.774   3.572 -0.6145 -0.1422  0.7723
  329MOL0     C43308  10.634   6.716   3.689  0.3386  0.8146  0.6644
  329MOL0     C43309  10.641   6.828   3.791 -0.3466 -0.0559  0.0666
  329MOL0     C43310  10.713   6.787   3.921  0.3836  0.7092  0.1884
  329MOL0     C43311  10.651   6.846   4.039  0.7075  0.0071  0.3716
  329MOL0     C43312  10.702   6.784   4.166 -0.4775  0.3092  0.2511
  329MOL0     N43313  10.842   6.791   4.199  0.8488  0.0763 -0.5000
  329MOL0     C43314  10.907   6.893   4.264  0.1719  0.0497 -0.0593
  329MOL0     C43315  11.043   6.854   4.261  0.2285 -0.7235 -0.0561
  329MOL0     C43316  11.161   6.929   4.314 -0.2326  0.4347 -0.6944
  329MOL0     C43317  11.140   6.978   4.460 -0.0145 -0.3225  0.1320
  329MOL0     C43318  11.241   7.086   4.502 -0.1235  0.4128  0.1263
  329MOL0     C43319  11.386   7.031   4.494  0.2199 -0.8175  0.8909
  329MOL0     O43320  11.423   6.967   4.613  0.1143  0.3325  0.6120
  329MOL0     C43321  11.561   6.948   4.639  0.2704  0.0140  1.5593
  329MOL0     C43322  11.627   7.028   4.735 -0.3783 -0.5047  0.0976
  329MOL0     C43323  11.753   7.004   4.782  0.4493  0.2100 -0.1156
  329MOL0     C43324  11.829   6.905   4.724 -0.2080  0.5259  0.7686
  329MOL0     C43325  11.965   6.862   4.761 -0.2758  0.7761  0.1327
  329MOL0     O43326  11.996   6.739   4.723 -0.4168 -0.1209  1.2782
  329MOL0     C43327  12.125   6.693   4.756  0.8411  0.8374  0.3960
  329MOL0     C43328  12.162   6.669   4.884 -0.0453 -0.2509  0.0042
  329MOL0     C43329  12.297   6.620   4.905  1.3274 -0.3701  0.6681
  329MOL0     C43330  12.386   6.587   4.800 -0.5986 -0.2170  0.6156
  329MOL0     O43331  12.506   6.530   4.836  0.6550 -0.2769 -0.0114
  329MOL0     C43332  12.572   6.461   4.730  0.6079 -0.2242  1.3174
  329MOL0     C43333  12.689   6.382   4.785  0.1051 -0.3312 -0.2317
  329MOL0     C43334  12.652   6.261   4.883  0.5856  0.1838  0.2515
  329MOL0     C43335  12.772   6.190   4.945 -0.3845  0.6001  0.7285
  329MOL0     C43336  12.859   6.283   5.041  0.9152  0.6651  0.3800
  329MOL0     C43337  12.993   6.218   5.058  0.5295  0.8435 -0.2642
  329MOL0     C43338  13.063   6.267   5.175 -0.4246 -0.5149 -0.1162
  329MOL0     C43339  13.003   6.219   5.305 -0.1570 -0.1163  0.1421
  329MOL0    Cl43340  13.123   6.255   5.443 -0.1162 -0.1690 -0.4049
  329MOL0     C43341  12.340   6.616   4.676  0.1025  0.5082  0.5436
  329MOL0     C43342  12.209   6.667   4.649  0.0209  0.8213  0.3383
  329MOL0     O43343  12.035   6.946   4.824 -0.6405  0.2929  0.4944
  329MOL0     C43344  11.762   6.832   4.622  0.0741 -0.7293  0.7428
  329MOL0     C43345  11.631   6.844   4.580 -0.5188  0.0259 -0.0836
  329MOL0     N43346  11.057   6.731   4.196 -0.2202 -0.8948 -0.4531
  329MOL0     N43347  10.938   6.696   4.172 -0.5872  0.7684  0.5077
  329MOL0     C43348  10.736   6.773   3.160  0.1837 -0.0212  0.8862
  329MOL0     C43349  10.858   6.759   3.085  0.2880  0.2916 -0.2860
  329MOL0     C43350  11.190   6.548   2.851  0.0396  0.7563 -0.7716
  329MOL0     C43351  11.217   6.645   2.755 -0.4711  1.4085 -0.3763
  329MOL0     C43352  11.331   6.636   2.680 -0.0304  0.0854  0.1399
  329MOL0     C43353  11.417   6.535   2.708 -0.2616 -0.4536 -0.3903
  329MOL0     O43354  11.537   6.519   2.634 -0.4108  0.9974 -0.1651
  329MOL0     C43355  11.566   6.623   2.537  0.5595  0.6563 -0.3192
  329MOL0     C43356  11.701   6.600   2.474  0.2415 -0.1820 -0.2446
  329MOL0     C43357  11.821   6.616   2.563  0.0581  0.0663  0.1634
  329MOL0     C43358  11.939   6.557   2.493  0.4897  0.5552  0.2243
  329MOL0     C43359  11.982   6.634   2.376  0.5344  0.7951 -0.4943
  329MOL0     C43360  11.997   6.701   2.272 -0.4751  0.3470 -0.5921
  329MOL0     C43361  11.393   6.441   2.805  0.6761  0.3302 -0.4587
  329MOL0     C43362  11.283   6.444   2.876 -0.2037 -0.0934  0.1992
  329MOL0     H43363  10.764   6.493   2.900 -0.1644 -0.6245 -0.1548
  329MOL0     H43364  10.556   6.508   3.043 -2.1494  1.7894  1.5541
  329MOL0     H43365  10.387   6.771   3.351 -1.1783 -0.5485 -2.9999
  329MOL0     H43366  10.534   6.862   3.332 -0.9096 -0.4194  2.5403
  329MOL0     H43367  10.663   6.666   3.429 -0.1683  3.1494 -2.5502
  329MOL0     H43368  10.501   6.597   3.459  0.0618 -0.4532  1.1782
  329MOL0     H43369  10.437   6.773   3.600 -0.0715 -1.2345  3.1233
  329MOL0     H43370  10.583   6.873   3.551  2.3473 -1.5321 -0.7606
  329MOL0     H43371  10.594   6.622   3.727 -0.9801  0.5582 -1.2480
  329MOL0     H43372  10.734   6.693   3.651  0.3548  2.2579 -0.2355
  329MOL0     H43373  10.536   6.858   3.801 -0.2115  0.9051 -1.1127
  329MOL0     H43374  10.700   6.916   3.762  1.0911 -1.0485 -0.1153
  329MOL0     H43375  10.817   6.815   3.906  0.0087  1.0609 -2.2355
  329MOL0     H43376  10.707   6.679   3.938  0.2318  0.7865  0.6405
  329MOL0     H43377  10.666   6.953   4.054 -1.6681  0.5446 -0.7229
  329MOL0     H43378  10.543   6.830   4.039  0.8067 -0.7187 -0.2283
  329MOL0     H43379  10.666   6.681   4.172 -3.2937  1.2532  1.0446
  329MOL0     H43380  10.650   6.840   4.245 -3.2256 -1.9402  0.1993
  329MOL0     H43381  10.855   6.985   4.289 -0.6618 -0.7177  1.1273
  329MOL0     H43382  11.165   7.010   4.240  1.9335  0.0871 -1.0184
  329MOL0     H43383  11.254   6.871   4.310 -1.6613 -2.2202  1.7270
  329MOL0     H43384  11.143   6.898   4.535 -1.2662  1.0038  1.6698
  329MOL0     H43385  11.042   7.027   4.467  0.1285 -0.2313  1.7518
  329MOL0     H43386  11.250   7.173   4.436 -0.6353  0.5935  0.2938
  329MOL0     H43387  11.220   7.124   4.602  2.1334  2.9859 -0.2933
  329MOL0     H43388  11.439   7.125   4.475 -1.4502  0.1841  1.0209
  329MOL0     H43389  11.408   6.967   4.408  1.9420  0.2301  0.4925
  329MOL0     H43390  11.578   7.101   4.798 -1.7171 -1.3451  0.0687
  329MOL0     H43391  11.780   7.055   4.873 -2.1927  2.0422 -0.2251
  329MOL0     H43392  12.082   6.703   4.949  1.5920  2.3188  0.8429
  329MOL0     H43393  12.322   6.625   5.010 -1.7893  1.8399  1.4434
  329MOL0     H43394  12.602   6.535   4.656  0.1666  0.6632  2.0044
  329MOL0     H43395  12.508   6.394   4.671  0.2305  1.8654 -0.8223
  329MOL0     H43396  12.757   6.453   4.831 -0.6032  0.3306 -0.1880
  329MOL0     H43397  12.747   6.338   4.703 -0.9330  0.2556 -1.3135
  329MOL0     H43398  12.603   6.184   4.822  1.6069 -2.0946  2.1575
  329MOL0     H43399  12.590   6.297   4.966  0.8690 -0.7062  0.8618
  329MOL0     H43400  12.745   6.096   4.994 -1.6900  1.8434  2.5284
  329MOL0     H43401  12.847   6.163   4.870  2.7160  0.7733  3.5083
  329MOL0     H43402  12.793   6.270   5.127  0.3795 -3.5139 -0.4385
  329MOL0     H43403  12.869   6.388   5.012 -3.6471  1.2474  0.2511
  329MOL0     H43404  13.057   6.230   4.971 -1.4793  0.3466 -1.8949
  329MOL0     H43405  12.965   6.113   5.070  1.3244  0.4624 -1.5800
  329MOL0     H43406  13.166   6.231   5.163 -1.3541 -3.2396 -0.4909
  329MOL0     H43407  13.075   6.376   5.174  2.2435 -0.7467 -0.4406
  329MOL0     H43408  12.980   6.112   5.293 -1.7602  0.2701 -0.4510
  329MOL0     H43409  12.911   6.275   5.322  1.3131  2.0269  1.5464
  329MOL0     H43410  12.409   6.586   4.597  0.8409 -0.6264  1.5715
  329MOL0     H43411  12.179   6.698   4.550 -0.6899  0.7781  0.5292
  329MOL0     H43412  11.809   6.752   4.565  2.7862  1.1688  0.1377
  329MOL0     H43413  11.588   6.789   4.496  0.4114  3.2173 -2.8771
  329MOL0     H43414  10.722   6.857   3.227  0.4767  0.3470  0.4946
  329MOL0     H43415  10.930   6.840   3.100 -1.7041  1.7686  2.1093
  329MOL0     H43416  11.151   6.726   2.725 -2.4246 -1.0224 -3.2612
  329MOL0     H43417  11.355   6.714   2.607  0.9497  1.4918  1.8850
  329MOL0     H43418  11.572   6.724   2.579 -0.4842  0.1869  1.0273
  329MOL0     H43419  11.494   6.631   2.455  0.6290  3.9476 -0.2028
  329MOL0     H43420  11.712   6.503   2.424  1.2595  0.0323 -0.4704
  329MOL0     H43421  11.707   6.677   2.396 -1.0064  0.4363  0.2549
  329MOL0     H43422  11.804   6.572   2.661 -1.1255  1.4786  0.6229
  329MOL0     H43423  11.849   6.720   2.585 -1.9046  0.8503 -0.7672
  329MOL0     H43424  12.016   6.565   2.570 -0.4056 -1.9463  1.4928
  329MOL0     H43425  11.923   6.451   2.467 -0.2453  0.0295  2.6293
  329MOL0     H43426  12.015   6.771   2.193 -0.3033  1.4405  0.3820
  329MOL0     H43427  11.454   6.356   2.833  0.2162  0.2395  0.2857
  329MOL0     H43428  11.272   6.373   2.957 -0.5874 -1.4116 -0.9705
  330MOL0     O43429   8.522   3.581   1.771 -0.8458  0.9302  0.1133
  330MOL0     C43430   8.573   3.502   1.853 -0.4206 -0.2477 -0.3006
  330MOL0     O43431   8.506   3.418   1.940 -0.4461  0.0184  0.2018
  330MOL0     C43432   8.373   3.441   1.966 -0.2484 -0.0946  0.1677
  330MOL0     C43433   8.301   3.321   1.993  0.3944  0.1492 -0.0082
  330MOL0     C43434   8.169   3.326   2.031  0.8699 -0.3000 -0.0235
  330MOL0     C43435   8.105   3.443   2.052  0.2815  0.1313 -0.2541
  330MOL0     O43436   7.984   3.447   2.120  0.3679 -0.8462 -0.0772
  330MOL0     C43437   7.951   3.573   2.192 -0.0116  0.4448  0.2786
  330MOL0     C43438   7.809   3.553   2.246  0.1834  0.1525 -0.6096
  330MOL0     C43439   7.762   3.673   2.327 -0.0888  0.1874 -0.7800
  330MOL0     C43440   7.818   3.650   2.481 -0.7093  0.6077  0.7504
  330MOL0     C43441   7.773   3.759   2.571 -0.2128 -0.4791  0.2925
  330MOL0     C43442   7.635   3.799   2.573  0.3346 -0.6546 -0.0826
  330MOL0     C43443   7.536   3.695   2.601  0.0747  0.0832  0.7222
  330MOL0     C43444   7.395   3.742   2.597 -0.2456  0.3199 -0.2860
  330MOL0     N43445   7.343   3.778   2.467 -0.5435 -0.2973 -0.1739
  330MOL0     C43446   7.246   3.715   2.398 -0.2562 -0.2186 -0.6195
  330MOL0     C43447   7.216   3.780   2.284 -0.0415  0.6088 -0.4034
  330MOL0     C43448   7.119   3.740   2.184  0.1275 -0.2490 -0.0273
  330MOL0     C43449   7.036   3.848   2.141  0.5385 -0.7439  0.5255
  330MOL0     C43450   6.927   3.878   2.236  0.5308  0.1817  0.2198
  330MOL0     C43451   6.822   3.976   2.179 -0.3198  0.8195 -0.5865
  330MOL0     O43452   6.714   3.958   2.272 -0.2014  0.6577 -0.3419
  330MOL0     C43453   6.590   3.986   2.216  0.0323  0.7585 -0.2561
  330MOL0     C43454   6.554   4.074   2.102 -0.5857  0.0711  0.1229
  330MOL0     C43455   6.424   4.104   2.075  0.1468 -0.1026  0.0790
  330MOL0     C43456   6.322   4.046   2.154  1.0127 -0.0914 -0.7757
  330MOL0     C43457   6.177   4.061   2.122  0.2267  0.8507 -0.3586
  330MOL0     O43458   6.092   3.974   2.185 -0.3553  1.0268 -0.1615
  330MOL0     C43459   5.953   3.985   2.171 -1.1845  0.2028  0.2820
  330MOL0     C43460   5.889   4.103   2.218  0.0642  0.7707 -0.1885
  330MOL0     C43461   5.748   4.119   2.215 -0.5178 -0.1921 -0.5061
  330MOL0     C43462   5.660   4.020   2.166 -0.3704  0.2066  0.7264
  330MOL0     O43463   5.527   4.045   2.175  0.1301  0.5601  0.5120
  330MOL0     C43464   5.440   4.002   2.072  0.4662 -0.0554  0.2430
  330MOL0     C43465   5.483   4.040   1.924 -0.2159 -0.1070 -0.3099
  330MOL0     C43466   5.425   4.175   1.884 -0.0969  0.4203 -0.7933
  330MOL0     C43467   5.453   4.205   1.738 -0.1114  0.4455 -0.0642
  330MOL0     C43468   5.368   4.308   1.665 -0.2654 -0.1594 -0.2333
  330MOL0     C43469   5.334   4.439   1.744 -0.1390  0.1295  0.5075
  330MOL0     C43470   5.240   4.523   1.651  1.0815  0.5683  0.4149
  330MOL0     C43471   5.188   4.649   1.723 -0.1344 -0.2483 -0.9018
  330MOL0    Cl43472   5.110   4.621   1.888 -0.0433 -0.2093  0.4778
  330MOL0     C43473   5.729   3.898   2.122  0.8015 -0.9976  0.4339
  330MOL0     C43474   5.875   3.883   2.120 -0.2972  0.0462 -0.0742
  330MOL0     O43475   6.141   4.158   2.060  0.3683  0.1816 -0.5132
  330MOL0     C43476   6.351   3.962   2.256 -0.6887 -0.5244  0.4854
  330MOL0     C43477   6.482   3.933   2.284  0.5978  0.2572 -0.3431
  330MOL0     N43478   7.284   3.898   2.290 -0.4827  0.2618  0.1479
  330MOL0     N43479   7.357   3.901   2.405  0.4960 -0.3441  0.0093
  330MOL0     C43480   8.172   3.566   2.013  0.2373 -0.0882  0.7068
  330MOL0     C43481   8.305   3.568   1.962 -0.1918 -0.2479 -0.3357
  330MOL0     C43482   8.719   3.505   1.855  0.1470  0.2917 -0.0313
  330MOL0     C43483   8.789   3.568   1.753 -0.2729  0.2609 -0.7911
  330MOL0     C43484   8.925   3.577   1.762 -0.3835  0.6128  0.3398
  330MOL0     C43485   9.003   3.514   1.865 -0.7287  0.6162  0.2638
  330MOL0     O43486   9.142   3.515   1.877 -0.0974  0.4191  0.1649
  330MOL0     C43487   9.215   3.542   1.759 -0.6800  0.1922 -0.8972
  330MOL0     C43488   9.364   3.529   1.794 -0.3768 -0.3433 -0.1676
  330MOL0     C43489   9.424   3.664   1.825 -0.5895  0.3483  0.0326
  330MOL0     C43490   9.575   3.642   1.838  0.5055  0.1574 -0.6180
  330MOL0     C43491   9.637   3.753   1.911  0.6741  0.6128 -0.2238
  330MOL0     C43492   9.682   3.854   1.944  0.8221  0.2752 -0.2301
  330MOL0     C43493   8.928   3.447   1.965 -0.2830  0.6914  0.0204
  330MOL0     C43494   8.788   3.439   1.950  0.1806  0.1734  0.2451
  330MOL0     H43495   8.341   3.223   1.968 -0.7751 -0.3156 -0.1209
  330MOL0     H43496   8.103   3.240   2.039 -1.6795  1.6250  0.8998
  330MOL0     H43497   7.950   3.664   2.132  0.6188  0.0470 -0.3469
  330MOL0     H43498   8.021   3.588   2.275  0.2940  0.3511  0.0345
  330MOL0     H43499   7.801   3.464   2.310 -1.2352  1.1724  0.7175
  330MOL0     H43500   7.741   3.548   2.161  0.9387 -0.1955 -1.2093
  330MOL0     H43501   7.653   3.680   2.340  0.3515  1.2487  3.8633
  330MOL0     H43502   7.798   3.764   2.278  1.1001  2.0668  3.2315
  330MOL0     H43503   7.789   3.547   2.504  0.2141 -0.6140 -2.8047
  330MOL0     H43504   7.928   3.647   2.474 -0.3898  0.7077  4.2052
  330MOL0     H43505   7.831   3.849   2.548  0.5895 -1.1532 -0.3587
  330MOL0     H43506   7.803   3.729   2.672  0.9443  1.1842  0.4917
  330MOL0     H43507   7.618   3.846   2.476 -3.1826  0.9364  1.1386
  330MOL0     H43508   7.616   3.878   2.646  1.8741 -0.7707  0.4748
  330MOL0     H43509   7.539   3.610   2.531 -2.4204 -0.6930  1.4428
  330MOL0     H43510   7.557   3.645   2.696  0.4033 -0.6785  0.2570
  330MOL0     H43511   7.407   3.831   2.659  0.5764 -1.4885  2.3292
  330MOL0     H43512   7.338   3.657   2.638 -3.2448  0.9525 -2.7159
  330MOL0     H43513   7.217   3.614   2.426  0.9743 -0.9816 -1.9204
  330MOL0     H43514   7.069   3.650   2.219 -2.5612  0.4362 -1.7662
  330MOL0     H43515   7.165   3.707   2.090 -1.5709 -3.5935  0.1665
  330MOL0     H43516   6.987   3.834   2.044 -0.9998 -0.7928  1.2885
  330MOL0     H43517   7.097   3.938   2.135  5.1255 -3.3977  2.2305
  330MOL0     H43518   6.888   3.779   2.263  1.0054 -0.1126 -0.1523
  330MOL0     H43519   6.971   3.914   2.330 -1.4418 -0.1385  1.3177
  330MOL0     H43520   6.783   3.940   2.084 -3.5409 -1.7499  1.5233
  330MOL0     H43521   6.863   4.078   2.176  1.8702  0.0023 -0.1302
  330MOL0     H43522   6.630   4.108   2.032 -1.3224  0.3374 -0.5663
  330MOL0     H43523   6.404   4.180   2.000 -1.7307 -2.6280 -2.1800
  330MOL0     H43524   5.950   4.184   2.256  1.1405 -0.7681  1.5015
  330MOL0     H43525   5.705   4.217   2.233  0.0903  0.3090 -1.6922
  330MOL0     H43526   5.339   4.038   2.096 -0.2326 -2.3574  0.9768
  330MOL0     H43527   5.436   3.893   2.079  0.3124 -0.2302 -1.8133
  330MOL0     H43528   5.443   3.960   1.860 -0.3406  0.6987 -1.2666
  330MOL0     H43529   5.590   4.049   1.906 -0.0741  0.6661  0.8551
  330MOL0     H43530   5.475   4.235   1.960  0.6727 -1.2148  0.0551
  330MOL0     H43531   5.317   4.170   1.902  0.5442 -1.0668  3.7673
  330MOL0     H43532   5.559   4.216   1.715 -0.4315  1.2930 -1.2401
  330MOL0     H43533   5.441   4.116   1.675  1.8199  0.5054 -0.5622
  330MOL0     H43534   5.269   4.262   1.654 -0.6199  0.0495  1.7786
  330MOL0     H43535   5.412   4.332   1.567  2.1892  1.5588  1.1899
  330MOL0     H43536   5.424   4.502   1.752 -0.0052 -0.0362  0.3210
  330MOL0     H43537   5.277   4.423   1.836  1.2826 -1.5405  1.1498
  330MOL0     H43538   5.300   4.542   1.562  1.7983 -0.7823  0.5825
  330MOL0     H43539   5.160   4.457   1.617  3.7924 -2.8743  0.1309
  330MOL0     H43540   5.112   4.685   1.653 -0.6255 -2.3187 -1.4776
  330MOL0     H43541   5.264   4.725   1.745 -1.9500  1.1026  1.1226
  330MOL0     H43542   5.671   3.812   2.091 -3.5657  2.0036 -0.6598
  330MOL0     H43543   5.922   3.789   2.095 -1.8708 -0.9446  0.5545
  330MOL0     H43544   6.274   3.910   2.312 -1.7408  3.2689  2.8544
  330MOL0     H43545   6.489   3.855   2.359 -0.6108 -1.3734 -1.8490
  330MOL0     H43546   8.137   3.666   2.036  2.8995  1.3585 -0.9655
  330MOL0     H43547   8.365   3.657   1.952  1.3024 -0.5642  3.7275
  330MOL0     H43548   8.749   3.610   1.661  2.1102  1.2361 -1.4617
  330MOL0     H43549   8.972   3.644   1.691 -0.5877  0.6885  0.2768
  330MOL0     H43550   9.199   3.639   1.711  1.8818  0.3884 -1.5048
  330MOL0     H43551   9.192   3.472   1.677  2.2494 -0.5315 -1.1901
  330MOL0     H43552   9.383   3.458   1.875  1.4460 -1.1387 -1.2475
  330MOL0     H43553   9.420   3.477   1.716  0.8342 -0.0187  0.4659
  330MOL0     H43554   9.364   3.690   1.913 -1.3713 -0.8391 -0.1233
  330MOL0     H43555   9.413   3.732   1.741 -0.4066 -0.2661 -0.5008
  330MOL0     H43556   9.611   3.544   1.872 -1.5443 -0.6926 -0.7453
  330MOL0     H43557   9.614   3.643   1.736 -0.4562 -2.6015 -1.0921
  330MOL0     H43558   9.740   3.934   1.985 -0.4172  1.4416 -0.6729
  330MOL0     H43559   8.986   3.408   2.048 -0.0146 -0.5983 -0.7405
  330MOL0     H43560   8.738   3.390   2.033 -2.0811  1.4659 -0.2644
  331MOL0     O43561   0.458   5.522   1.435  0.6056 -0.4099 -0.4785
  331MOL0     C43562   0.481   5.520   1.320  0.5911  0.8038  0.3186
  331MOL0     O43563   0.384   5.545   1.224  0.5996 -0.3608 -0.0872
  331MOL0     C43564   0.255   5.565   1.265  0.5427  0.4094  0.0006
  331MOL0     C43565   0.191   5.466   1.344 -0.0114 -0.4921  0.4507
  331MOL0     C43566   0.050   5.472   1.368 -0.3586  0.5218 -0.1110
  331MOL0     C43567  -0.019   5.586   1.336  0.0156  0.8280 -0.0700
  331MOL0     O43568  -0.147   5.595   1.386  0.5667 -0.0419 -0.0444
  331MOL0     C43569  -0.212   5.725   1.365  1.5170 -0.9867 -0.2442
  331MOL0     C43570  -0.344   5.751   1.434 -0.0880 -0.0107  0.2551
  331MOL0     C43571  -0.445   5.641   1.406 -1.1523  1.0248  0.5073
  331MOL0     C43572  -0.585   5.676   1.444  0.4908  0.0663  0.1980
  331MOL0     C43573  -0.614   5.715   1.582 -0.2914 -0.9567  0.2326
  331MOL0     C43574  -0.757   5.693   1.641  0.5532 -0.2283 -0.4161
  331MOL0     C43575  -0.836   5.832   1.658 -0.6524  0.2465  0.4926
  331MOL0     C43576  -0.977   5.800   1.698 -0.4537 -0.8847 -0.1486
  331MOL0     N43577  -0.988   5.737   1.831  0.4010 -0.2353 -0.9914
  331MOL0     C43578  -1.028   5.808   1.935  0.7469 -0.7944  1.2735
  331MOL0     C43579  -1.063   5.721   2.029  0.0177 -0.8519 -0.5503
  331MOL0     C43580  -1.116   5.744   2.169 -0.2513  0.1599 -0.0395
  331MOL0     C43581  -1.261   5.698   2.184  0.0474  0.1965  0.3331
  331MOL0     C43582  -1.345   5.826   2.160  0.8446 -0.8233  0.8212
  331MOL0     C43583  -1.366   5.918   2.286  0.1784 -0.1981  0.7798
  331MOL0     O43584  -1.476   5.864   2.357 -0.4327 -0.5912  0.4136
  331MOL0     C43585  -1.599   5.933   2.353 -0.3684  0.5789 -0.5919
  331MOL0     C43586  -1.633   6.034   2.441 -0.4337 -0.5056  0.0547
  331MOL0     C43587  -1.756   6.101   2.430 -0.6042 -0.5586  0.1102
  331MOL0     C43588  -1.851   6.064   2.327 -0.6319  0.3686 -1.4817
  331MOL0     C43589  -1.988   6.124   2.319 -0.8287  0.2809  0.1489
  331MOL0     O43590  -2.021   6.215   2.423 -0.2553 -0.1612  0.5073
  331MOL0     C43591  -2.146   6.277   2.408  0.0626 -1.0271  0.2609
  331MOL0     C43592  -2.149   6.404   2.373 -0.0992 -0.1296  0.3810
  331MOL0     C43593  -2.275   6.473   2.362  0.4039 -0.3828  0.1102
  331MOL0     C43594  -2.391   6.400   2.384  0.6876 -0.0585 -0.7995
  331MOL0     O43595  -2.516   6.456   2.354  0.5038  0.4752  0.3226
  331MOL0     C43596  -2.570   6.543   2.452  0.2139  0.5004 -0.4821
  331MOL0     C43597  -2.702   6.607   2.402 -0.8829 -0.4441 -0.4654
  331MOL0     C43598  -2.823   6.505   2.407 -0.2761 -0.3289  0.0880
  331MOL0     C43599  -2.850   6.460   2.557 -0.8888 -0.9615 -0.4290
  331MOL0     C43600  -3.000   6.449   2.586 -0.1027  1.0300 -0.5301
  331MOL0     C43601  -3.043   6.394   2.724 -0.3392 -0.8031 -0.3087
  331MOL0     C43602  -3.196   6.391   2.725 -1.2255 -0.5237  0.9366
  331MOL0     C43603  -3.257   6.361   2.863  0.2619 -0.6140  0.3783
  331MOL0    Cl43604  -3.234   6.499   2.968  0.0663 -0.1369  0.2727
  331MOL0     C43605  -2.386   6.274   2.438 -0.3545  0.0832 -0.4129
  331MOL0     C43606  -2.259   6.211   2.452 -0.2007  0.1376 -0.2705
  331MOL0     O43607  -2.058   6.096   2.217 -0.9431 -0.3644 -0.0937
  331MOL0     C43608  -1.818   5.957   2.248 -0.3381 -0.1369  0.1778
  331MOL0     C43609  -1.691   5.894   2.256  0.3408  1.6436  0.0371
  331MOL0     N43610  -1.052   5.599   1.976  0.1231 -0.7240 -0.4056
  331MOL0     N43611  -0.999   5.604   1.857  0.0859  0.2576 -0.0926
  331MOL0     C43612   0.040   5.688   1.245 -0.2943  0.0144  0.0629
  331MOL0     C43613   0.175   5.674   1.221 -0.2189 -0.0037 -0.4620
  331MOL0     C43614   0.624   5.497   1.287 -0.0010  0.5014  0.2385
  331MOL0     C43615   0.669   5.489   1.154  0.6021 -0.3268  0.1735
  331MOL0     C43616   0.805   5.478   1.119 -0.8060  0.2684 -0.6914
  331MOL0     C43617   0.906   5.462   1.212 -0.8300  0.0108 -0.6674
  331MOL0     O43618   1.039   5.455   1.179 -0.0671  0.1156 -0.5668
  331MOL0     C43619   1.078   5.494   1.047  0.0500 -1.0276 -0.2540
  331MOL0     C43620   1.071   5.645   1.016  0.0108 -0.5426 -0.6553
  331MOL0     C43621   1.187   5.710   0.935  0.7725 -0.0631 -0.1672
  331MOL0     C43622   1.168   5.701   0.788 -0.0468  0.9055  0.6685
  331MOL0     C43623   1.282   5.751   0.713  0.6171 -0.4416 -0.0758
  331MOL0     C43624   1.383   5.798   0.669  0.3981 -0.0890  0.0978
  331MOL0     C43625   0.866   5.460   1.345 -0.5009 -0.6083 -0.6501
  331MOL0     C43626   0.728   5.476   1.380 -0.8293 -0.7079  0.3233
  331MOL0     H43627   0.244   5.376   1.375  2.0915  0.4888 -0.1097
  331MOL0     H43628   0.001   5.388   1.417 -1.3397 -0.2989 -2.4037
  331MOL0     H43629  -0.237   5.733   1.258  1.3523 -2.3294 -0.3218
  331MOL0     H43630  -0.149   5.807   1.401  0.4686 -1.3857  2.7905
  331MOL0     H43631  -0.392   5.844   1.400 -2.4200 -1.8430 -1.8810
  331MOL0     H43632  -0.332   5.766   1.542  4.8819  3.9782 -0.4522
  331MOL0     H43633  -0.402   5.555   1.459  0.8755  3.0436  2.3932
  331MOL0     H43634  -0.431   5.615   1.301 -2.9684  0.7643  0.2942
  331MOL0     H43635  -0.614   5.753   1.373  1.2725 -0.9971 -1.3346
  331MOL0     H43636  -0.657   5.594   1.433 -2.0590  2.0638  1.1145
  331MOL0     H43637  -0.587   5.819   1.604 -1.9957 -1.1235  3.8435
  331MOL0     H43638  -0.549   5.644   1.633 -0.6718 -2.3417 -1.1290
  331MOL0     H43639  -0.735   5.640   1.734 -1.8085  0.3292  0.5207
  331MOL0     H43640  -0.810   5.623   1.575 -0.1642  1.3115 -1.5399
  331MOL0     H43641  -0.781   5.898   1.726  0.6892 -0.0269 -0.3114
  331MOL0     H43642  -0.835   5.878   1.559  0.1969 -3.2816 -1.2777
  331MOL0     H43643  -1.010   5.731   1.620 -0.3885 -1.9095  0.7131
  331MOL0     H43644  -1.041   5.888   1.692 -1.9386 -1.8707  0.5364
  331MOL0     H43645  -1.022   5.916   1.936 -3.0381 -0.4362  1.5003
  331MOL0     H43646  -1.103   5.850   2.193 -2.3416  0.5250 -0.3887
  331MOL0     H43647  -1.060   5.688   2.245 -1.9431 -0.8711  0.5066
  331MOL0     H43648  -1.290   5.654   2.280 -2.8529 -1.6878 -1.2609
  331MOL0     H43649  -1.271   5.619   2.109 -0.2244 -0.6386  1.2325
  331MOL0     H43650  -1.305   5.888   2.079  1.6302 -2.9257 -0.4920
  331MOL0     H43651  -1.448   5.805   2.132  0.5863  1.2954 -0.0410
  331MOL0     H43652  -1.383   6.020   2.252  2.1120  0.3382  1.2930
  331MOL0     H43653  -1.272   5.916   2.342  1.6290  1.0158 -1.4615
  331MOL0     H43654  -1.558   6.071   2.511 -1.1831  1.7880 -0.2786
  331MOL0     H43655  -1.787   6.180   2.498  0.6906 -1.8762  2.3617
  331MOL0     H43656  -2.050   6.449   2.364 -0.7192  1.3303  0.5011
  331MOL0     H43657  -2.275   6.576   2.329  1.1888 -0.9477 -1.8042
  331MOL0     H43658  -2.498   6.623   2.472  1.5965 -1.4228  3.2222
  331MOL0     H43659  -2.585   6.481   2.540  0.5801  2.9948  1.4610
  331MOL0     H43660  -2.694   6.645   2.300 -2.4919  2.6912  0.4560
  331MOL0     H43661  -2.723   6.691   2.469 -0.1202  0.8187 -1.7581
  331MOL0     H43662  -2.796   6.420   2.343 -0.0012 -0.2008  0.0319
  331MOL0     H43663  -2.913   6.546   2.361 -1.1982 -2.4000 -0.0679
  331MOL0     H43664  -2.816   6.359   2.586 -3.3053 -0.9091  3.3302
  331MOL0     H43665  -2.819   6.538   2.627 -1.5285 -2.7279  2.0058
  331MOL0     H43666  -3.044   6.384   2.509  3.1109 -0.8270 -0.9963
  331MOL0     H43667  -3.038   6.551   2.592  2.5813  2.1225 -0.7345
  331MOL0     H43668  -3.012   6.474   2.793 -2.5109  1.1801 -1.5055
  331MOL0     H43669  -2.993   6.302   2.758 -1.4073 -1.7547 -1.2219
  331MOL0     H43670  -3.234   6.485   2.683 -1.4403 -0.8634  0.3634
  331MOL0     H43671  -3.225   6.313   2.654 -0.2305 -1.4925  1.5631
  331MOL0     H43672  -3.214   6.267   2.898 -1.2618 -0.3311  3.3002
  331MOL0     H43673  -3.363   6.347   2.839  0.3214  2.9661 -2.8762
  331MOL0     H43674  -2.474   6.220   2.472  2.4309 -3.6649  1.6066
  331MOL0     H43675  -2.242   6.123   2.514  0.0365  1.0675  1.0094
  331MOL0     H43676  -1.888   5.915   2.175 -0.8890 -0.5837  0.9496
  331MOL0     H43677  -1.665   5.816   2.185  1.2254  1.0656  0.9651
  331MOL0     H43678  -0.004   5.780   1.209  0.1403  1.1032  2.1088
  331MOL0     H43679   0.236   5.733   1.154  3.5329 -2.3909  0.5462
  331MOL0     H43680   0.594   5.503   1.077  0.6858  0.3368  0.2042
  331MOL0     H43681   0.804   5.460   1.012  2.7153 -2.1944 -0.4852
  331MOL0     H43682   1.012   5.446   0.973 -1.4405  1.2517 -0.4919
  331MOL0     H43683   1.178   5.460   1.018 -0.7150 -1.3232 -2.8023
  331MOL0     H43684   0.974   5.666   0.970 -0.0554  0.2739 -0.1641
  331MOL0     H43685   1.060   5.694   1.113  0.2756 -1.5987 -0.0796
  331MOL0     H43686   1.287   5.674   0.960 -0.1916 -3.0621 -0.2394
  331MOL0     H43687   1.176   5.811   0.975 -2.5259  0.2969 -1.6316
  331MOL0     H43688   1.165   5.595   0.760  2.2919  1.1116 -0.5722
  331MOL0     H43689   1.079   5.753   0.752  0.8574  1.9753 -0.1071
  331MOL0     H43690   1.469   5.830   0.614  2.8668 -0.3950  3.4732
  331MOL0     H43691   0.941   5.434   1.419 -1.7217 -0.2841  0.7435
  331MOL0     H43692   0.694   5.496   1.482 -0.9315  1.1695 -0.0544
  332MOL0     O43693   8.704   0.959   0.957 -0.4159 -0.2701  0.4262
  332MOL0     C43694   8.773   0.998   1.052  0.6968  0.3890  0.1667
  332MOL0     O43695   8.730   1.003   1.185  0.0625  0.0150 -0.2411
  332MOL0     C43696   8.615   0.938   1.235 -0.4446 -0.0250 -0.4404
  332MOL0     C43697   8.539   0.996   1.341  0.0400 -0.7103  0.9141
  332MOL0     C43698   8.418   0.947   1.394 -0.5949 -0.1752 -0.0087
  332MOL0     C43699   8.374   0.817   1.343 -0.4503 -0.5732  0.2645
  332MOL0     O43700   8.263   0.755   1.398  0.2557  0.2257 -0.6786
  332MOL0     C43701   8.141   0.766   1.320  0.9891  0.4843 -0.7238
  332MOL0     C43702   8.014   0.750   1.403  0.3519 -0.9256 -0.6371
  332MOL0     C43703   7.883   0.734   1.314 -0.5762  1.2038 -0.4829
  332MOL0     C43704   7.769   0.692   1.412  0.2836 -0.0007 -1.0497
  332MOL0     C43705   7.642   0.648   1.342  0.6321  0.3416 -0.1584
  332MOL0     C43706   7.648   0.557   1.221 -0.3967  0.5210  0.7842
  332MOL0     C43707   7.514   0.534   1.167  0.3642 -0.4012 -0.5695
  332MOL0     C43708   7.509   0.453   1.040 -0.7784  1.2117  0.6775
  332MOL0     N43709   7.582   0.497   0.924 -0.3188 -1.0499  0.6993
  332MOL0     C43710   7.668   0.417   0.852  0.8492  0.0169  0.0877
  332MOL0     C43711   7.716   0.497   0.752 -0.2881  0.1437 -0.3667
  332MOL0     C43712   7.828   0.477   0.658  0.0296  0.5108  0.2544
  332MOL0     C43713   7.786   0.454   0.510  0.1762  0.0998  0.0614
  332MOL0     C43714   7.668   0.351   0.497 -0.6418  0.2911 -0.2238
  332MOL0     C43715   7.725   0.207   0.502 -0.6491 -0.2595  0.8053
  332MOL0     O43716   7.626   0.106   0.487  0.1894  0.0360 -0.5009
  332MOL0     C43717   7.560   0.072   0.606 -0.0428 -0.4296 -0.5472
  332MOL0     C43718   7.418   0.062   0.611  0.8808  0.2500 -0.4318
  332MOL0     C43719   7.352   0.040   0.733 -0.0693  0.6396  0.1425
  332MOL0     C43720   7.422   0.034   0.852 -0.1713 -0.2080 -0.4461
  332MOL0     C43721   7.359   0.009   0.980 -0.6179  0.1374  0.5307
  332MOL0     O43722   7.435  -0.039   1.089  0.0554 -0.3293 -0.4477
  332MOL0     C43723   7.379  -0.044   1.210  0.5043  0.1977 -0.6320
  332MOL0     C43724   7.340  -0.166   1.262  0.5358 -0.5218  0.1853
  332MOL0     C43725   7.258  -0.169   1.377 -0.3469  0.1625 -0.7448
  332MOL0     C43726   7.239  -0.051   1.456 -0.3209 -0.5225 -0.2657
  332MOL0     O43727   7.173  -0.046   1.576 -0.2898 -0.1711 -0.5041
  332MOL0     C43728   7.035  -0.086   1.595 -0.0776 -0.3613  0.7345
  332MOL0     C43729   7.027  -0.136   1.738 -0.0734  0.0833  1.0358
  332MOL0     C43730   6.897  -0.199   1.765  0.6636  0.6139 -0.2303
  332MOL0     C43731   6.874  -0.205   1.917  1.0512 -0.4195 -0.2480
  332MOL0     C43732   6.752  -0.279   1.944  0.8575 -0.9201  0.4309
  332MOL0     C43733   6.746  -0.305   2.096  0.4549 -0.5183 -0.2834
  332MOL0     C43734   6.688  -0.183   2.174 -0.3220 -0.3141  0.3477
  332MOL0     C43735   6.544  -0.183   2.194  0.8981  0.1718  0.1219
  332MOL0    Cl43736   6.507  -0.339   2.266 -0.0481 -0.0750 -0.1603
  332MOL0     C43737   7.287   0.070   1.397  0.7570  0.5637 -0.4759
  332MOL0     C43738   7.344   0.073   1.274 -0.4788  0.5054 -0.0407
  332MOL0     O43739   7.238   0.013   0.978 -0.3690 -0.3404 -0.5224
  332MOL0     C43740   7.565   0.043   0.848  0.3261 -0.1338  0.7808
  332MOL0     C43741   7.635   0.056   0.730  0.4266 -1.3142  0.9468
  332MOL0     N43742   7.648   0.617   0.765  0.9080  0.5680 -0.2659
  332MOL0     N43743   7.565   0.616   0.868 -0.6879 -0.5981  0.0805
  332MOL0     C43744   8.445   0.759   1.239 -0.1586 -0.4340  0.5692
  332MOL0     C43745   8.550   0.823   1.175 -0.6604  0.3462 -0.6986
  332MOL0     C43746   8.908   1.016   1.024  0.1544 -0.6083 -0.7123
  332MOL0     C43747   8.982   1.082   1.122 -0.8748 -0.6438  1.3970
  332MOL0     C43748   9.117   1.108   1.112  0.5322  0.4710  0.0185
  332MOL0     C43749   9.185   1.076   0.993 -0.1447 -0.5788  0.7565
  332MOL0     O43750   9.315   1.111   0.985  0.5095 -0.3318 -1.0052
  332MOL0     C43751   9.386   1.046   0.874 -0.3236 -0.2926  0.1408
  332MOL0     C43752   9.536   1.083   0.902  0.0579  0.4724  0.3457
  332MOL0     C43753   9.645   0.995   0.817 -0.3862  0.4514 -0.3783
  332MOL0     C43754   9.790   1.019   0.877  0.3843 -1.0388 -0.5563
  332MOL0     C43755   9.886   1.070   0.766  0.6961  0.6108  0.1001
  332MOL0     C43756   9.949   1.112   0.677 -1.0545  0.4933 -0.3534
  332MOL0     C43757   9.106   1.018   0.890  0.0626  0.7041  1.1769
  332MOL0     C43758   8.974   0.990   0.900 -0.1600 -0.2368  0.1342
  332MOL0     H43759   8.581   1.088   1.381  0.2261 -0.6330  0.5376
  332MOL0     H43760   8.367   0.991   1.479 -3.0871  0.1173 -1.5315
  332MOL0     H43761   8.127   0.696   1.237 -3.3867 -1.9224  1.7094
  332MOL0     H43762   8.145   0.868   1.282  3.9031  0.0446 -1.8587
  332MOL0     H43763   8.015   0.834   1.473  0.5003 -0.2517 -1.4262
  332MOL0     H43764   8.030   0.663   1.466 -2.1290  0.8942  2.8778
  332MOL0     H43765   7.898   0.653   1.243  1.7716  0.3628  0.8717
  332MOL0     H43766   7.856   0.825   1.260 -1.0721  0.5966 -1.2794
  332MOL0     H43767   7.793   0.604   1.473 -5.9599 -0.5364  1.3928
  332MOL0     H43768   7.749   0.779   1.475 -0.1673 -0.5465 -0.4241
  332MOL0     H43769   7.587   0.739   1.313 -0.4003  0.7178  2.6288
  332MOL0     H43770   7.579   0.600   1.418  1.9964  0.5480  1.1330
  332MOL0     H43771   7.691   0.460   1.249 -0.8521  0.3990  1.0715
  332MOL0     H43772   7.710   0.610   1.148 -2.0262 -0.0838 -1.1379
  332MOL0     H43773   7.457   0.483   1.244 -0.3253  1.9959  0.5982
  332MOL0     H43774   7.463   0.625   1.133  1.5333  0.6384  0.3545
  332MOL0     H43775   7.404   0.442   1.013 -0.5227 -1.0793  0.3748
  332MOL0     H43776   7.554   0.356   1.065 -2.1980  0.1416 -0.6853
  332MOL0     H43777   7.695   0.315   0.878 -0.6569  0.1547  2.4404
  332MOL0     H43778   7.877   0.388   0.699 -0.9013 -0.4779 -0.7142
  332MOL0     H43779   7.900   0.559   0.662  0.4048  0.1986 -0.0827
  332MOL0     H43780   7.872   0.427   0.447  1.0263 -0.7825  1.5388
  332MOL0     H43781   7.735   0.541   0.468 -2.0314 -0.5607  1.2081
  332MOL0     H43782   7.604   0.366   0.585 -1.1547 -2.0670 -0.1166
  332MOL0     H43783   7.608   0.352   0.406 -2.6235 -1.9793  0.9439
  332MOL0     H43784   7.787   0.192   0.591  0.7364  0.3378 -0.0341
  332MOL0     H43785   7.789   0.196   0.414  0.0344  3.6329  0.6395
  332MOL0     H43786   7.362   0.049   0.519  0.9743  1.9085 -0.7466
  332MOL0     H43787   7.244   0.037   0.735 -0.0497 -1.4438  0.8817
  332MOL0     H43788   7.367  -0.253   1.204  0.3735 -0.7776  0.4962
  332MOL0     H43789   7.223  -0.260   1.423 -5.3300  0.7633 -2.7627
  332MOL0     H43790   6.998  -0.163   1.527  1.9516 -1.5662  0.9184
  332MOL0     H43791   6.972   0.003   1.582 -0.0546 -0.7549 -2.9010
  332MOL0     H43792   7.046  -0.050   1.803 -1.0946  1.4407 -0.3986
  332MOL0     H43793   7.099  -0.216   1.757 -1.3787 -1.7436 -1.1361
  332MOL0     H43794   6.900  -0.301   1.726 -3.4958 -0.1358  0.9187
  332MOL0     H43795   6.817  -0.148   1.711 -1.2806 -3.1477 -1.2332
  332MOL0     H43796   6.965  -0.251   1.958  0.8618  1.1930  2.1968
  332MOL0     H43797   6.852  -0.103   1.952 -1.7477 -0.3495 -1.9046
  332MOL0     H43798   6.759  -0.376   1.893 -0.0320 -0.6440 -0.2343
  332MOL0     H43799   6.665  -0.221   1.912 -0.5395 -3.3099 -0.3281
  332MOL0     H43800   6.848  -0.312   2.137  3.1102 -0.3609 -5.9793
  332MOL0     H43801   6.690  -0.399   2.103 -1.8920  0.7607 -0.8258
  332MOL0     H43802   6.726  -0.193   2.276 -1.0756  2.2377  0.9352
  332MOL0     H43803   6.716  -0.093   2.118 -0.5922  0.0061  0.7239
  332MOL0     H43804   6.487  -0.163   2.103  0.5753 -0.4045  0.1964
  332MOL0     H43805   6.510  -0.105   2.263 -1.1881  0.6786 -1.3894
  332MOL0     H43806   7.263   0.168   1.437 -2.4476 -0.8749  1.4586
  332MOL0     H43807   7.366   0.166   1.221  0.5501  2.4021  3.3880
  332MOL0     H43808   7.625   0.014   0.934 -0.4794 -1.3801  0.9586
  332MOL0     H43809   7.742   0.040   0.722  0.7008 -1.0012  3.1886
  332MOL0     H43810   8.432   0.654   1.215 -1.1403 -0.1668 -0.1530
  332MOL0     H43811   8.601   0.760   1.103 -2.7827 -1.9004 -0.3734
  332MOL0     H43812   8.956   1.128   1.217  1.2951  0.9239  1.3041
  332MOL0     H43813   9.171   1.159   1.192 -0.0222 -0.8352  1.2779
  332MOL0     H43814   9.371   1.093   0.777  0.3625 -1.0009 -0.3218
  332MOL0     H43815   9.379   0.938   0.863 -1.5311 -0.1298 -0.9261
  332MOL0     H43816   9.555   1.188   0.879 -0.0839  0.1165 -1.6139
  332MOL0     H43817   9.552   1.068   1.009  0.8034  1.8123  0.4474
  332MOL0     H43818   9.630   1.018   0.711 -1.4277  0.9508 -0.1413
  332MOL0     H43819   9.634   0.888   0.835  2.4833  0.4985  2.4134
  332MOL0     H43820   9.786   1.103   0.947 -0.5257 -0.6534 -1.0494
  332MOL0     H43821   9.829   0.932   0.931  1.5886  0.1461  0.5796
  332MOL0     H43822  10.000   1.149   0.590 -1.1459  0.9571 -0.2085
  332MOL0     H43823   9.147   0.983   0.796 -0.4364 -0.9477  1.5359
  332MOL0     H43824   8.917   0.935   0.826  0.1893 -0.0750 -0.2595
  333MOL0     O43825   4.122   5.125   6.583  0.4106  0.4328  0.2668
  333MOL0     C43826   4.104   5.083   6.701 -0.6139  0.5455 -0.0011
  333MOL0     O43827   3.986   5.032   6.754  0.6184 -0.5205  0.1986
  333MOL0     C43828   3.884   5.025   6.666  0.9211 -0.7605  0.0240
  333MOL0     C43829   3.849   4.898   6.613 -0.0000 -0.4164  0.0365
  333MOL0     C43830   3.723   4.881   6.551 -0.3713  0.4342  0.1909
  333MOL0     C43831   3.643   4.994   6.516  0.1612  0.6054 -0.0237
  333MOL0     O43832   3.526   4.977   6.443 -0.3800  0.1612  0.6401
  333MOL0     C43833   3.544   4.908   6.322  0.2099  0.2527  0.4131
  333MOL0     C43834   3.402   4.891   6.265 -0.8767 -0.3648  0.2960
  333MOL0     C43835   3.311   4.789   6.347 -0.4523 -0.1471 -0.2379
  333MOL0     C43836   3.175   4.773   6.278 -0.7490 -1.0368  0.1777
  333MOL0     C43837   3.072   4.693   6.359  0.6049 -0.3284 -0.1433
  333MOL0     C43838   3.033   4.755   6.494 -0.3724  0.4168  0.8137
  333MOL0     C43839   2.949   4.654   6.576 -0.0181 -0.0726  0.2681
  333MOL0     C43840   2.901   4.702   6.715 -0.4282 -0.4779  0.4917
  333MOL0     N43841   2.806   4.608   6.786  0.3093  0.2338  0.3272
  333MOL0     C43842   2.822   4.478   6.820 -0.4547  0.5312  0.1446
  333MOL0     C43843   2.703   4.440   6.872  0.1601 -0.0968  0.5446
  333MOL0     C43844   2.670   4.318   6.955  0.0785 -0.3909  0.4637
  333MOL0     C43845   2.634   4.199   6.856  0.4000  0.8213 -0.3204
  333MOL0     C43846   2.575   4.078   6.933  0.7806 -1.0012  0.3000
  333MOL0     C43847   2.482   3.977   6.855 -0.6644  0.1607  0.4578
  333MOL0     O43848   2.385   4.043   6.783  0.2033 -0.1537  0.0810
  333MOL0     C43849   2.261   4.091   6.841 -0.2160 -1.4210  0.6263
  333MOL0     C43850   2.233   4.067   6.972 -0.0034  0.2646  0.1519
  333MOL0     C43851   2.117   4.117   7.032 -0.6172  0.0805  0.7225
  333MOL0     C43852   2.034   4.200   6.963  0.1498 -0.1341  0.8747
  333MOL0     C43853   1.907   4.241   7.019  0.7724 -0.3610  0.8349
  333MOL0     O43854   1.829   4.312   6.924 -0.4476  0.0302  0.6549
  333MOL0     C43855   1.706   4.351   6.962 -0.5637 -0.0240  0.6276
  333MOL0     C43856   1.666   4.489   6.966 -0.7139  0.0398  0.0736
  333MOL0     C43857   1.535   4.526   6.998  0.1710 -0.3882 -0.2224
  333MOL0     C43858   1.440   4.431   7.035 -0.4196  0.3531 -1.3439
  333MOL0     O43859   1.310   4.449   7.077  0.2011 -0.8238 -0.3519
  333MOL0     C43860   1.257   4.587   7.106 -0.6332  0.2643 -0.3796
  333MOL0     C43861   1.100   4.595   7.111  0.4861  1.0340  0.0576
  333MOL0     C43862   1.048   4.727   7.168 -0.8488 -0.4684  0.0895
  333MOL0     C43863   0.896   4.746   7.142  0.9028  0.7573 -0.4272
  333MOL0     C43864   0.808   4.841   7.242 -0.3294 -0.3922  0.1426
  333MOL0     C43865   0.790   4.765   7.379  0.4603  0.6147  0.3692
  333MOL0     C43866   0.668   4.665   7.361 -0.4755  0.9503 -1.2089
  333MOL0     C43867   0.691   4.541   7.463 -0.4213 -0.7796 -0.5361
  333MOL0    Cl43868   0.794   4.433   7.376  0.2662 -0.0555 -0.1444
  333MOL0     C43869   1.476   4.293   7.026 -0.4869 -0.2443  0.2232
  333MOL0     C43870   1.604   4.262   6.992  0.2371 -0.0240 -0.3270
  333MOL0     O43871   1.867   4.203   7.129  0.3286  0.0366 -0.5193
  333MOL0     C43872   2.056   4.222   6.826  0.0798 -0.3369  0.0990
  333MOL0     C43873   2.170   4.168   6.770  0.8078 -0.3762 -0.0818
  333MOL0     N43874   2.611   4.549   6.854 -0.0797 -0.3347  0.7505
  333MOL0     N43875   2.674   4.643   6.801 -0.0757 -0.2131  0.3519
  333MOL0     C43876   3.678   5.110   6.573  0.3924  0.3482  0.5664
  333MOL0     C43877   3.800   5.132   6.645 -0.0306  0.0935 -0.6723
  333MOL0     C43878   4.230   5.075   6.782  0.1201  0.0566 -0.2427
  333MOL0     C43879   4.362   5.113   6.729 -0.4986  1.2479 -0.5697
  333MOL0     C43880   4.475   5.103   6.804 -0.2079  0.9890  0.5642
  333MOL0     C43881   4.476   5.076   6.939 -0.3175  0.8445 -0.3699
  333MOL0     O43882   4.599   5.075   7.007  0.7450 -0.2334  0.2730
  333MOL0     C43883   4.618   5.007   7.133 -0.2969 -0.2710 -0.2265
  333MOL0     C43884   4.767   4.998   7.178  0.3833 -0.1880 -0.0510
  333MOL0     C43885   4.834   5.125   7.215  0.1000  0.0988  0.2366
  333MOL0     C43886   4.962   5.101   7.292  0.1351 -0.4389  0.0410
  333MOL0     C43887   4.939   5.065   7.430  0.1798 -1.3125  1.2932
  333MOL0     C43888   4.914   5.023   7.536 -0.5510 -0.1731  0.0122
  333MOL0     C43889   4.349   5.056   6.995  0.0897  1.0331  0.2328
  333MOL0     C43890   4.231   5.042   6.919 -0.5562 -0.3666 -0.1711
  333MOL0     H43891   3.917   4.813   6.621  2.8452  1.6926 -0.2993
  333MOL0     H43892   3.712   4.777   6.521  1.5219  0.2838 -0.1053
  333MOL0     H43893   3.589   4.811   6.345  2.0105  0.2527 -2.5130
  333MOL0     H43894   3.611   4.962   6.254  2.6897 -1.0857  1.6361
  333MOL0     H43895   3.426   4.850   6.167 -2.3713 -2.4927  0.7640
  333MOL0     H43896   3.351   4.988   6.258 -1.8684 -0.9085 -0.3600
  333MOL0     H43897   3.288   4.828   6.447 -3.1394  2.0004 -1.5563
  333MOL0     H43898   3.354   4.692   6.373  1.8403  1.0657  0.8052
  333MOL0     H43899   3.123   4.868   6.266 -1.6634 -1.1365  2.6683
  333MOL0     H43900   3.185   4.738   6.175  1.6494 -0.5953  0.2050
  333MOL0     H43901   3.131   4.603   6.379 -1.2778 -1.8517 -1.1198
  333MOL0     H43902   2.981   4.681   6.299  0.3515 -0.6739  0.3052
  333MOL0     H43903   2.984   4.851   6.479 -0.8245  0.2285  1.0758
  333MOL0     H43904   3.127   4.780   6.545 -0.2337  5.0725 -1.2577
  333MOL0     H43905   2.863   4.606   6.528  1.2931 -4.8186  2.0927
  333MOL0     H43906   3.016   4.570   6.597 -0.1030  0.2806  2.1178
  333MOL0     H43907   2.852   4.798   6.695 -1.3060 -0.8337  0.9239
  333MOL0     H43908   2.984   4.729   6.780 -0.4717  3.2907 -0.7813
  333MOL0     H43909   2.914   4.420   6.813 -0.6346  0.0671  1.4780
  333MOL0     H43910   2.588   4.327   7.027 -0.8098 -0.1023 -0.5685
  333MOL0     H43911   2.759   4.282   7.007 -2.9793 -7.2781  2.1082
  333MOL0     H43912   2.719   4.165   6.796 -0.6341 -0.7516 -0.9911
  333MOL0     H43913   2.558   4.225   6.781 -1.5087 -1.4498  0.6772
  333MOL0     H43914   2.655   4.027   6.988  0.3654 -1.8767  0.1163
  333MOL0     H43915   2.520   4.128   7.014  0.6529 -2.0026  0.8540
  333MOL0     H43916   2.435   3.900   6.918 -2.6994  0.7461 -0.2981
  333MOL0     H43917   2.544   3.923   6.783 -1.3894 -3.1218  2.0719
  333MOL0     H43918   2.294   4.000   7.032 -1.7077 -2.2146 -0.7433
  333MOL0     H43919   2.103   4.091   7.136 -0.8531  3.7715  1.7508
  333MOL0     H43920   1.740   4.567   6.953 -0.6521  0.1306  0.9094
  333MOL0     H43921   1.518   4.633   7.002 -1.5395 -0.6742  1.6570
  333MOL0     H43922   1.297   4.664   7.041 -0.4713 -0.0247 -0.6249
  333MOL0     H43923   1.282   4.601   7.212 -0.3057  0.4104 -0.4749
  333MOL0     H43924   1.050   4.514   7.166  2.4007 -0.8085 -0.7479
  333MOL0     H43925   1.068   4.583   7.007  0.0079 -0.3388  0.3416
  333MOL0     H43926   1.109   4.803   7.119  1.5314 -2.1429  0.2908
  333MOL0     H43927   1.065   4.741   7.275 -2.1723  0.4754  0.2084
  333MOL0     H43928   0.907   4.786   7.040  0.1909 -0.9465 -1.2218
  333MOL0     H43929   0.843   4.652   7.126 -1.8726  1.8976  1.2695
  333MOL0     H43930   0.711   4.868   7.201  1.7353  2.7406 -3.3653
  333MOL0     H43931   0.866   4.931   7.264  0.7371 -1.3269  1.3282
  333MOL0     H43932   0.761   4.829   7.464 -2.4525  0.7708 -0.6070
  333MOL0     H43933   0.880   4.711   7.408 -0.6309 -1.2533  0.3973
  333MOL0     H43934   0.573   4.716   7.384 -2.4912 -2.7947 -0.5067
  333MOL0     H43935   0.678   4.625   7.260  1.4940  0.7956 -0.9806
  333MOL0     H43936   0.603   4.480   7.484 -0.2097 -0.1208  2.6403
  333MOL0     H43937   0.725   4.576   7.560  0.6289  1.0590 -1.5082
  333MOL0     H43938   1.407   4.216   7.060 -1.4906 -0.0655 -1.3238
  333MOL0     H43939   1.622   4.156   6.979 -1.7049 -0.4962  0.5165
  333MOL0     H43940   1.994   4.275   6.754 -0.0498 -0.2971  0.2399
  333MOL0     H43941   2.196   4.191   6.668  0.0061  1.6560  0.1196
  333MOL0     H43942   3.613   5.194   6.551  1.6306  1.2518  0.2326
  333MOL0     H43943   3.820   5.225   6.698 -1.0524 -0.7417  1.2630
  333MOL0     H43944   4.383   5.135   6.625  0.5862  2.1620 -0.1723
  333MOL0     H43945   4.574   5.118   6.763 -0.1196  2.2485  1.2006
  333MOL0     H43946   4.591   4.902   7.120 -0.2259 -0.0872 -2.1055
  333MOL0     H43947   4.561   5.051   7.215 -0.8002  0.4956 -0.9765
  333MOL0     H43948   4.768   4.935   7.268  3.6941 -0.5602 -0.2434
  333MOL0     H43949   4.817   4.939   7.101  1.0358 -1.0986  1.0449
  333MOL0     H43950   4.772   5.191   7.276 -0.1752 -1.8085  2.1434
  333MOL0     H43951   4.860   5.177   7.123 -1.1515  1.3191  0.5397
  333MOL0     H43952   5.011   5.010   7.257  2.6879 -0.0389  2.2430
  333MOL0     H43953   5.037   5.181   7.299  1.9338 -2.1551  1.8461
  333MOL0     H43954   4.905   4.988   7.637  1.2613 -0.5506  0.0785
  333MOL0     H43955   4.345   5.029   7.100  1.8164 -1.8375 -0.3116
  333MOL0     H43956   4.134   5.013   6.958 -3.3804  0.3545 -5.6306
  334MOL0     O43957  11.208  10.879   5.197  0.6702  0.3575  0.0190
  334MOL0     C43958  11.222  11.005   5.226  0.2122  0.9891  0.0295
  334MOL0     O43959  11.130  11.089   5.282 -0.4110 -0.2811  0.0396
  334MOL0     C43960  11.002  11.038   5.326 -0.1342  0.0489 -0.0856
  334MOL0     C43961  10.896  11.129   5.325 -0.6631  0.4144 -0.3368
  334MOL0     C43962  10.763  11.085   5.340 -0.3382 -0.6750  0.1705
  334MOL0     C43963  10.732  10.948   5.377 -0.9672  0.7979 -0.0407
  334MOL0     O43964  10.603  10.905   5.410  0.5775  0.3298  0.7473
  334MOL0     C43965  10.540  10.969   5.517  0.4645 -0.0939 -0.2312
  334MOL0     C43966  10.442  10.862   5.578 -0.4806 -0.2471 -0.5056
  334MOL0     C43967  10.339  10.944   5.659 -0.5468  0.4339 -0.3460
  334MOL0     C43968  10.240  10.849   5.730  0.0307 -0.5992 -0.8382
  334MOL0     C43969  10.115  10.929   5.784 -0.0416 -0.6383  0.8793
  334MOL0     C43970  10.151  11.033   5.893  0.5370  0.7917  0.1056
  334MOL0     C43971  10.028  11.098   5.960  0.2141  0.2981  0.1169
  334MOL0     C43972   9.948  11.189   5.874 -0.2505 -0.3137 -0.5657
  334MOL0     N43973   9.811  11.204   5.930  0.5040 -0.5286 -0.3046
  334MOL0     C43974   9.694  11.139   5.904 -0.1763  1.1558  1.0186
  334MOL0     C43975   9.601  11.194   5.988 -0.7356  0.0506  0.5729
  334MOL0     C43976   9.462  11.131   6.000  0.1335  0.3026  0.0028
  334MOL0     C43977   9.356  11.237   5.965  0.4576 -0.2548 -0.3095
  334MOL0     C43978   9.204  11.180   5.974  0.3505 -0.3220  1.1578
  334MOL0     C43979   9.171  11.105   6.098  0.3923  0.3625  0.0042
  334MOL0     O43980   9.107  11.199   6.199  0.4483 -0.4756  0.0979
  334MOL0     C43981   8.997  11.144   6.258 -0.7062  0.1308 -0.5594
  334MOL0     C43982   9.005  11.028   6.344 -0.6113  0.2754  0.3023
  334MOL0     C43983   8.899  10.974   6.412  1.2706  0.0734 -0.0538
  334MOL0     C43984   8.770  11.020   6.390  0.0969  0.3840  0.6035
  334MOL0     C43985   8.650  10.981   6.463 -0.5462 -0.1946 -0.8293
  334MOL0     O43986   8.526  10.999   6.394 -0.0851 -0.2970 -0.5261
  334MOL0     C43987   8.414  10.956   6.446  0.5776 -0.0814 -0.1592
  334MOL0     C43988   8.337  10.854   6.390 -0.3372  0.4130 -0.4829
  334MOL0     C43989   8.220  10.804   6.452 -0.1484 -0.2855  0.4926
  334MOL0     C43990   8.167  10.858   6.569  0.3022 -0.2831 -0.3368
  334MOL0     O43991   8.058  10.815   6.633  1.2502 -0.7149  0.0309
  334MOL0     C43992   7.964  10.734   6.561 -0.3456  0.4641 -0.4718
  334MOL0     C43993   7.857  10.668   6.649 -0.4443  0.0333  0.5466
  334MOL0     C43994   7.769  10.569   6.577  1.0419  0.9050  0.4617
  334MOL0     C43995   7.696  10.476   6.679 -0.4006 -0.6364  1.3989
  334MOL0     C43996   7.559  10.442   6.634 -0.3962 -0.2178 -0.1367
  334MOL0     C43997   7.502  10.343   6.738  0.8766 -0.0560 -0.1116
  334MOL0     C43998   7.360  10.307   6.693  0.1347 -0.2320  0.4356
  334MOL0     C43999   7.323  10.181   6.772  1.5256  0.1827 -0.4920
  334MOL0    Cl44000   7.154  10.123   6.731  0.4538  0.4390 -0.2968
  334MOL0     C44001   8.248  10.961   6.629 -0.6426 -0.3327 -0.7171
  334MOL0     C44002   8.371  11.011   6.573  0.0282  0.4688  0.8281
  334MOL0     O44003   8.667  10.957   6.585  0.1932  0.0708  0.0389
  334MOL0     C44004   8.756  11.133   6.295  0.1716  0.3840  0.5117
  334MOL0     C44005   8.869  11.191   6.231 -0.6043 -0.8601 -0.0549
  334MOL0     N44006   9.659  11.297   6.055  0.0026 -1.1169 -0.1770
  334MOL0     N44007   9.783  11.309   6.025 -0.7270  0.9646  0.5837
  334MOL0     C44008  10.842  10.865   5.403 -0.4230 -1.0059  0.6222
  334MOL0     C44009  10.974  10.906   5.361  0.4314 -0.2357 -1.1429
  334MOL0     C44010  11.352  11.068   5.191  0.4777 -0.4192  0.8211
  334MOL0     C44011  11.360  11.202   5.178 -0.1065  1.1745 -0.1322
  334MOL0     C44012  11.489  11.255   5.156  0.7267 -0.7420  0.0557
  334MOL0     C44013  11.606  11.180   5.153  0.1872 -0.1875  0.1270
  334MOL0     O44014  11.719  11.259   5.140  0.6505  0.1069  0.2950
  334MOL0     C44015  11.846  11.210   5.180  0.4915 -0.1520 -0.4541
  334MOL0     C44016  11.951  11.182   5.074 -0.1039  0.0352 -0.1614
  334MOL0     C44017  12.097  11.197   5.134 -0.2457 -0.6461 -0.8720
  334MOL0     C44018  12.184  11.148   5.022  1.1948 -0.3670  0.1454
  334MOL0     C44019  12.319  11.172   5.050 -0.5493 -0.6393 -0.0066
  334MOL0     C44020  12.441  11.180   5.067  0.2707  0.4631 -0.8888
  334MOL0     C44021  11.595  11.044   5.155 -0.0446  0.1755 -0.4122
  334MOL0     C44022  11.464  10.992   5.180 -0.3674  0.1206 -0.1768
  334MOL0     H44023  10.899  11.230   5.284 -1.7080  0.9505  0.8133
  334MOL0     H44024  10.675  11.149   5.330 -0.1404 -0.4548 -0.1675
  334MOL0     H44025  10.492  11.050   5.462 -0.7354  0.2206  1.2467
  334MOL0     H44026  10.612  11.010   5.589 -1.1440 -1.7837  2.4820
  334MOL0     H44027  10.496  10.789   5.640  1.4784  0.9904 -0.6525
  334MOL0     H44028  10.383  10.819   5.497 -0.1117 -0.4895 -0.6457
  334MOL0     H44029  10.280  10.997   5.584 -2.7023  0.4525  1.2800
  334MOL0     H44030  10.389  11.006   5.734  1.0614 -2.2414  0.9580
  334MOL0     H44031  10.207  10.774   5.657  0.4518 -0.2502 -1.3935
  334MOL0     H44032  10.288  10.799   5.814 -0.8641 -1.6919 -0.9524
  334MOL0     H44033  10.051  10.853   5.829  1.4394 -2.7571 -0.3899
  334MOL0     H44034  10.066  10.984   5.704 -3.2156 -3.0381  0.9834
  334MOL0     H44035  10.202  11.115   5.841  2.2646  0.5570  1.3364
  334MOL0     H44036  10.220  10.988   5.965 -0.9326 -2.3304 -0.2408
  334MOL0     H44037   9.962  11.018   5.994  0.4611  0.1217  0.1842
  334MOL0     H44038  10.067  11.153   6.046  0.5478  0.8490 -0.3818
  334MOL0     H44039   9.948  11.155   5.771 -0.4672  0.4883 -0.8408
  334MOL0     H44040  10.001  11.285   5.872  1.7443 -1.1494  2.9712
  334MOL0     H44041   9.680  11.045   5.851  1.6154  0.9961  0.7446
  334MOL0     H44042   9.463  11.101   6.105  3.3317 -0.2146 -0.0735
  334MOL0     H44043   9.458  11.040   5.940 -0.1368  0.3636 -0.0710
  334MOL0     H44044   9.381  11.269   5.864  1.2586 -1.0207 -0.3704
  334MOL0     H44045   9.365  11.324   6.031 -1.2164  1.2010 -1.8829
  334MOL0     H44046   9.133  11.261   5.960 -0.2131 -1.2339 -2.3180
  334MOL0     H44047   9.204  11.107   5.892  1.2432  0.6821  0.2284
  334MOL0     H44048   9.252  11.050   6.148  0.6728  1.6240  1.0107
  334MOL0     H44049   9.098  11.026   6.082 -1.9361  2.6264 -1.3783
  334MOL0     H44050   9.103  10.988   6.367 -0.2609 -0.1262 -1.7162
  334MOL0     H44051   8.914  10.904   6.493 -1.4011 -2.0954 -1.2450
  334MOL0     H44052   8.362  10.832   6.287 -0.6138  0.3546 -0.5386
  334MOL0     H44053   8.186  10.709   6.411  1.3699 -0.1480 -1.2411
  334MOL0     H44054   8.022  10.656   6.511  0.7557  0.4316  0.7929
  334MOL0     H44055   7.912  10.801   6.491  1.0515  1.3931 -0.6753
  334MOL0     H44056   7.797  10.745   6.701 -0.7610  0.3956 -0.3286
  334MOL0     H44057   7.913  10.609   6.721  0.4786  1.0240  0.6575
  334MOL0     H44058   7.831  10.503   6.516  1.0775  2.7688 -1.6508
  334MOL0     H44059   7.697  10.618   6.512 -0.2980  0.2537  1.4038
  334MOL0     H44060   7.761  10.391   6.701 -0.4885 -1.0044  0.2950
  334MOL0     H44061   7.669  10.533   6.769 -3.6085  1.4146 -0.6652
  334MOL0     H44062   7.562  10.386   6.540  0.7956  1.2896 -1.0334
  334MOL0     H44063   7.495  10.531   6.630 -2.0807 -1.3923 -0.3863
  334MOL0     H44064   7.516  10.384   6.839  0.8391 -2.2030  0.8204
  334MOL0     H44065   7.567  10.256   6.747  1.0365  0.2231  1.8309
  334MOL0     H44066   7.298  10.389   6.730 -0.0077 -0.6900  1.2424
  334MOL0     H44067   7.356  10.300   6.584  0.5135  0.7370  0.3552
  334MOL0     H44068   7.324  10.196   6.880  0.8218  0.0679 -0.4622
  334MOL0     H44069   7.394  10.103   6.745  0.2072 -0.6643 -1.6771
  334MOL0     H44070   8.220  11.000   6.726  2.2420  0.9003 -0.2813
  334MOL0     H44071   8.427  11.092   6.617 -1.6340  0.4284  3.2347
  334MOL0     H44072   8.656  11.166   6.267  0.4588  0.5022 -0.3806
  334MOL0     H44073   8.856  11.278   6.168 -2.4416 -0.7164  0.4667
  334MOL0     H44074  10.836  10.777   5.466  2.6678 -0.7494  1.4446
  334MOL0     H44075  11.059  10.842   5.380 -1.5884 -2.8832 -0.3061
  334MOL0     H44076  11.272  11.266   5.177 -0.8218  0.2129  0.2418
  334MOL0     H44077  11.498  11.362   5.139  4.1987 -0.2697  3.5774
  334MOL0     H44078  11.846  11.124   5.248 -0.1547 -1.3925 -1.9557
  334MOL0     H44079  11.884  11.297   5.234 -1.0246 -0.3421  1.0021
  334MOL0     H44080  11.933  11.083   5.031 -0.4201 -0.4512  1.0509
  334MOL0     H44081  11.946  11.255   4.992  0.8638  0.8432  0.4749
  334MOL0     H44082  12.122  11.130   5.217  2.0538  0.4774 -0.5679
  334MOL0     H44083  12.096  11.301   5.169  0.3961 -0.0230 -2.5895
  334MOL0     H44084  12.170  11.040   5.011 -0.5271 -0.1665 -0.0660
  334MOL0     H44085  12.151  11.200   4.931  0.0060  1.4694  1.5472
  334MOL0     H44086  12.542  11.212   5.082 -0.3067  1.8471  0.2390
  334MOL0     H44087  11.675  10.971   5.141  0.3261  1.0630 -3.8288
  334MOL0     H44088  11.465  10.884   5.188  4.3080 -0.0079  0.6026
  335MOL0     O44089   8.112   0.141   0.262  0.3309 -0.1140  0.4874
  335MOL0     C44090   8.142   0.021   0.249 -0.4291 -0.9628  0.8234
  335MOL0     O44091   8.218  -0.018   0.143 -0.5211 -0.9391  0.1322
  335MOL0     C44092   8.270   0.076   0.054  0.4233  0.5314 -0.0927
  335MOL0     C44093   8.208   0.108  -0.062 -0.8084 -0.2733 -0.2404
  335MOL0     C44094   8.259   0.214  -0.143  0.5138  0.0022 -0.0659
  335MOL0     C44095   8.379   0.281  -0.103 -0.2090  0.3982 -0.4184
  335MOL0     O44096   8.416   0.383  -0.190 -0.3866 -0.4223  0.7033
  335MOL0     C44097   8.552   0.421  -0.206  0.2103 -0.0519  0.4437
  335MOL0     C44098   8.652   0.316  -0.260 -0.8011 -0.1069 -0.1927
  335MOL0     C44099   8.648   0.297  -0.413 -0.5145  0.4328  0.4589
  335MOL0     C44100   8.507   0.333  -0.485 -0.4006 -0.0134 -0.2188
  335MOL0     C44101   8.489   0.310  -0.638  0.3052 -0.5957  0.4647
  335MOL0     C44102   8.503   0.164  -0.682  0.0340 -0.1992 -0.2179
  335MOL0     C44103   8.470   0.141  -0.834 -0.2985 -0.2087  0.7373
  335MOL0     C44104   8.488  -0.007  -0.867  0.4515  0.9665  0.1518
  335MOL0     N44105   8.367  -0.071  -0.816 -0.4994  0.3499 -0.0367
  335MOL0     C44106   8.350  -0.144  -0.704  0.5946 -0.3450  0.1594
  335MOL0     C44107   8.227  -0.204  -0.712  0.9504 -0.4286  0.2398
  335MOL0     C44108   8.178  -0.289  -0.598 -0.2374 -0.8280  0.5237
  335MOL0     C44109   8.130  -0.185  -0.486  0.6430  0.2507 -0.6488
  335MOL0     C44110   8.046  -0.258  -0.375 -0.5171 -0.2935  0.6334
  335MOL0     C44111   8.040  -0.162  -0.254 -0.1542  0.6753  0.1188
  335MOL0     O44112   7.960  -0.207  -0.147  0.3527 -0.7549 -0.1613
  335MOL0     C44113   8.010  -0.298  -0.054  0.8730  0.5059 -0.1714
  335MOL0     C44114   7.923  -0.363   0.044 -0.7457  0.7288  0.0937
  335MOL0     C44115   7.962  -0.469   0.124 -0.7111 -0.3375  0.2009
  335MOL0     C44116   8.095  -0.517   0.119 -0.2192 -0.1194  0.6019
  335MOL0     C44117   8.143  -0.627   0.209  0.7870 -0.4019 -0.4287
  335MOL0     O44118   8.053  -0.668   0.300 -0.2536  0.9346 -0.5804
  335MOL0     C44119   8.079  -0.778   0.372  0.8394 -0.7392 -0.0542
  335MOL0     C44120   8.174  -0.778   0.473  0.4877 -0.7081 -0.8621
  335MOL0     C44121   8.174  -0.885   0.559  0.3520  0.1074 -0.0500
  335MOL0     C44122   8.097  -0.991   0.546  0.5036  0.2225 -0.4006
  335MOL0     O44123   8.094  -1.096   0.639 -0.5758 -0.9337  0.6822
  335MOL0     C44124   8.139  -1.227   0.597 -0.1806 -0.5580 -0.3432
  335MOL0     C44125   8.128  -1.320   0.727 -0.3338  0.5222  0.1587
  335MOL0     C44126   7.983  -1.330   0.768 -0.3967 -1.3637 -0.0583
  335MOL0     C44127   7.965  -1.437   0.874  0.2157  0.7172 -0.9801
  335MOL0     C44128   7.820  -1.487   0.880 -0.5124 -0.1944 -0.2725
  335MOL0     C44129   7.788  -1.571   1.010  0.6720  0.8313  0.6143
  335MOL0     C44130   7.875  -1.700   1.028 -0.0201 -0.5606  0.3775
  335MOL0     C44131   7.877  -1.776   1.163  0.3850  0.6717 -0.0086
  335MOL0    Cl44132   7.827  -1.655   1.286  0.0960  0.3589 -0.0048
  335MOL0     C44133   7.993  -0.980   0.450 -0.9902 -0.1030 -0.5437
  335MOL0     C44134   7.992  -0.878   0.360  0.6928 -1.1386 -0.3054
  335MOL0     O44135   8.262  -0.675   0.194  0.1499  0.3541 -0.4417
  335MOL0     C44136   8.187  -0.454   0.025 -0.4883 -0.3146  0.3437
  335MOL0     C44137   8.144  -0.351  -0.059  0.6980 -0.0669 -0.9080
  335MOL0     N44138   8.169  -0.168  -0.827 -0.5063 -0.4872 -0.8918
  335MOL0     N44139   8.253  -0.088  -0.886 -0.0576  0.1267 -1.1524
  335MOL0     C44140   8.443   0.236   0.016  0.3070 -0.4242  0.5088
  335MOL0     C44141   8.391   0.134   0.089 -0.3414 -1.0369  1.1995
  335MOL0     C44142   8.092  -0.082   0.336  0.1366 -0.4376 -0.4370
  335MOL0     C44143   8.129  -0.218   0.324  0.1768  0.5448  0.1225
  335MOL0     C44144   8.072  -0.314   0.404 -0.9666 -0.5631  0.0527
  335MOL0     C44145   7.972  -0.280   0.490 -0.2924 -0.1106  0.6889
  335MOL0     O44146   7.904  -0.362   0.574 -1.0210 -0.5388  0.3339
  335MOL0     C44147   7.940  -0.504   0.570  1.0596  0.2845 -0.2902
  335MOL0     C44148   7.876  -0.576   0.683 -0.3005  0.1414 -0.4671
  335MOL0     C44149   7.969  -0.585   0.809  0.3489  0.5108 -0.5668
  335MOL0     C44150   7.894  -0.628   0.940  0.4722 -1.0940  1.0632
  335MOL0     C44151   7.779  -0.719   0.913 -0.2068 -0.0630 -0.2021
  335MOL0     C44152   7.700  -0.797   0.873  0.8148  0.0485 -0.0198
  335MOL0     C44153   7.924  -0.149   0.502 -0.1413  0.4925  0.0372
  335MOL0     C44154   7.995  -0.052   0.429  1.1537 -0.1259 -0.1072
  335MOL0     H44155   8.119   0.051  -0.088  0.7821 -1.9757 -2.2513
  335MOL0     H44156   8.199   0.248  -0.227  0.1051  0.4218  0.3827
  335MOL0     H44157   8.596   0.450  -0.110 -0.3064 -1.7022  1.2105
  335MOL0     H44158   8.563   0.511  -0.268  1.4308 -0.2065  0.4086
  335MOL0     H44159   8.637   0.223  -0.206 -0.6480 -0.4498 -0.7325
  335MOL0     H44160   8.751   0.346  -0.226 -0.7357 -1.3874  0.7860
  335MOL0     H44161   8.689   0.197  -0.426  4.1004  2.3843 -2.1341
  335MOL0     H44162   8.728   0.348  -0.467  1.0264 -2.8712 -0.6181
  335MOL0     H44163   8.423   0.293  -0.428  0.4757  0.1898  1.2582
  335MOL0     H44164   8.500   0.440  -0.467  1.1813  0.6342 -2.8281
  335MOL0     H44165   8.564   0.368  -0.691 -0.0850  0.3773  0.9587
  335MOL0     H44166   8.394   0.352  -0.672  0.0509 -1.1092  0.5266
  335MOL0     H44167   8.434   0.109  -0.618 -3.4632 -0.4089 -3.7653
  335MOL0     H44168   8.607   0.135  -0.668 -0.3130 -0.8816  1.1431
  335MOL0     H44169   8.366   0.172  -0.849 -1.6693 -3.5093  2.3736
  335MOL0     H44170   8.542   0.200  -0.892  0.5638 -2.3727 -0.5116
  335MOL0     H44171   8.580  -0.052  -0.828  0.6722 -1.5650 -2.8556
  335MOL0     H44172   8.487  -0.025  -0.975 -0.2936  1.0986  0.1305
  335MOL0     H44173   8.415  -0.179  -0.625  0.0374 -1.6722  0.0619
  335MOL0     H44174   8.254  -0.359  -0.561 -1.3647 -0.9770  2.7162
  335MOL0     H44175   8.094  -0.349  -0.634 -2.5787  1.9627  1.0126
  335MOL0     H44176   8.070  -0.107  -0.535  4.8087  2.9631 -1.9605
  335MOL0     H44177   8.216  -0.146  -0.431  1.3807 -1.9699 -0.1366
  335MOL0     H44178   7.947  -0.286  -0.415  0.4454 -1.3951 -1.1308
  335MOL0     H44179   8.094  -0.352  -0.348 -0.2702  0.1133  1.6320
  335MOL0     H44180   8.010  -0.065  -0.295  2.1381  0.8366 -1.3372
  335MOL0     H44181   8.142  -0.164  -0.216 -0.1681 -1.3211  0.1699
  335MOL0     H44182   7.829  -0.310   0.057 -1.6675 -1.1595  1.6376
  335MOL0     H44183   7.896  -0.509   0.200  0.2561 -1.5855  0.4156
  335MOL0     H44184   8.232  -0.692   0.503 -0.2217 -0.0788 -1.2557
  335MOL0     H44185   8.238  -0.896   0.646  1.7690 -0.2723 -1.0967
  335MOL0     H44186   8.237  -1.224   0.548 -0.2652  0.6098 -0.4496
  335MOL0     H44187   8.073  -1.265   0.519 -0.8527  1.3959 -0.7585
  335MOL0     H44188   8.170  -1.267   0.813 -1.6677  1.3789  0.3047
  335MOL0     H44189   8.174  -1.419   0.718 -0.1852  0.2037  3.4337
  335MOL0     H44190   7.927  -1.360   0.679 -0.3052 -0.9662 -0.2554
  335MOL0     H44191   7.948  -1.231   0.799  1.2544 -0.6301 -0.4126
  335MOL0     H44192   8.026  -1.524   0.848 -0.5977 -1.0003  2.4023
  335MOL0     H44193   7.997  -1.398   0.971  0.7811  0.9354 -1.2504
  335MOL0     H44194   7.820  -1.556   0.796  1.5668 -0.6055  0.0184
  335MOL0     H44195   7.752  -1.401   0.869  1.5093  1.5716  0.2884
  335MOL0     H44196   7.680  -1.591   1.015 -0.1650  4.4644 -0.3039
  335MOL0     H44197   7.811  -1.509   1.097  0.8683  2.6101 -0.6609
  335MOL0     H44198   7.846  -1.764   0.944 -4.4027  0.2827  1.0558
  335MOL0     H44199   7.976  -1.659   1.014 -0.3901  0.3470  0.3084
  335MOL0     H44200   7.967  -1.833   1.186 -0.6390 -1.5921 -1.2472
  335MOL0     H44201   7.798  -1.852   1.155 -0.3084  1.5116 -1.7476
  335MOL0     H44202   7.915  -1.056   0.446 -0.7189 -0.4200 -0.0016
  335MOL0     H44203   7.903  -0.881   0.298 -0.2941  0.4530  0.9763
  335MOL0     H44204   8.292  -0.482   0.033  1.5907  5.8647 -0.0725
  335MOL0     H44205   8.221  -0.315  -0.127  2.0466  1.5400  1.3392
  335MOL0     H44206   8.537   0.282   0.046  0.9787 -0.9729 -0.6802
  335MOL0     H44207   8.450   0.094   0.170  1.3837 -0.1435  0.4334
  335MOL0     H44208   8.205  -0.249   0.254  0.7831  0.4741  0.8019
  335MOL0     H44209   8.130  -0.405   0.394  2.0130  1.1260  0.7498
  335MOL0     H44210   8.045  -0.532   0.556  1.6986  1.9821  0.7363
  335MOL0     H44211   7.891  -0.533   0.477  0.7756  2.7115 -0.9760
  335MOL0     H44212   7.784  -0.526   0.715  0.5093  0.2995  1.8637
  335MOL0     H44213   7.853  -0.677   0.650 -0.7563  0.0954 -0.0287
  335MOL0     H44214   8.013  -0.490   0.841 -0.2753  0.3057  1.0222
  335MOL0     H44215   8.045  -0.661   0.793 -2.1811 -1.7528 -2.7816
  335MOL0     H44216   7.972  -0.678   0.998  0.9940 -1.2142  0.2712
  335MOL0     H44217   7.849  -0.538   0.983 -3.2494 -0.4026 -3.3673
  335MOL0     H44218   7.636  -0.883   0.865  1.1186 -0.1606 -0.2009
  335MOL0     H44219   7.848  -0.133   0.577 -1.6767 -3.2787 -0.5128
  335MOL0     H44220   7.965   0.051   0.446 -0.1325  0.2592 -3.7311
  336MOL0     O44221   0.110   0.318   4.900 -0.3883  0.9648 -0.1294
  336MOL0     C44222   0.173   0.268   4.995  0.1468 -0.4027 -0.6800
  336MOL0     O44223   0.139   0.266   5.131 -0.1752  0.8928 -0.2607
  336MOL0     C44224   0.015   0.307   5.161  0.5922 -0.9545  0.0663
  336MOL0     C44225  -0.096   0.249   5.100  0.0676 -0.3448  0.5169
  336MOL0     C44226  -0.225   0.279   5.148 -0.5101  0.5748 -0.1596
  336MOL0     C44227  -0.243   0.365   5.259  0.5699 -0.3128 -0.7899
  336MOL0     O44228  -0.373   0.375   5.305  0.0585 -0.3245 -0.2564
  336MOL0     C44229  -0.401   0.468   5.412 -1.2964 -0.5492  0.1535
  336MOL0     C44230  -0.391   0.610   5.365  0.4140 -0.0303  0.3782
  336MOL0     C44231  -0.474   0.702   5.463  0.4619 -0.2026 -0.3670
  336MOL0     C44232  -0.498   0.844   5.417 -0.3223  0.2902 -0.4389
  336MOL0     C44233  -0.608   0.836   5.304 -0.7336 -0.2147 -0.6960
  336MOL0     C44234  -0.613   0.967   5.235 -0.0726  0.2341 -0.0985
  336MOL0     C44235  -0.709   0.960   5.116 -0.0688 -0.5497 -0.0696
  336MOL0     C44236  -0.851   1.002   5.150 -0.2387 -1.0459  0.5079
  336MOL0     N44237  -0.919   0.904   5.234 -0.2795 -0.2359 -0.0328
  336MOL0     C44238  -0.988   0.930   5.352  0.0017  1.2093 -1.2897
  336MOL0     C44239  -1.060   0.815   5.383 -0.0171  0.4073 -0.3952
  336MOL0     C44240  -1.140   0.786   5.499  0.1412  0.4713 -0.2341
  336MOL0     C44241  -1.237   0.890   5.551  0.7335 -1.1246 -0.0948
  336MOL0     C44242  -1.332   0.942   5.435  0.3784 -0.4217  0.3740
  336MOL0     C44243  -1.450   0.865   5.401 -0.2128  0.4133 -0.2880
  336MOL0     O44244  -1.540   0.867   5.518  0.3884  0.2898  0.8414
  336MOL0     C44245  -1.644   0.779   5.517  0.1511 -0.7158 -0.0744
  336MOL0     C44246  -1.759   0.816   5.585 -0.0061  0.0524  0.8739
  336MOL0     C44247  -1.877   0.739   5.585  0.1699 -0.1094 -0.1450
  336MOL0     C44248  -1.883   0.606   5.531 -1.3004  0.1109 -0.1816
  336MOL0     C44249  -1.996   0.511   5.528  0.2772 -1.0083 -0.8506
  336MOL0     O44250  -2.111   0.571   5.573  0.2602  0.4832  0.1276
  336MOL0     C44251  -2.207   0.500   5.639  0.7790  0.1320  0.3395
  336MOL0     C44252  -2.334   0.563   5.642  0.4708  0.1005  0.2934
  336MOL0     C44253  -2.443   0.498   5.698 -0.2337  0.1001 -0.0004
  336MOL0     C44254  -2.429   0.375   5.752 -0.2437  0.2062 -0.1483
  336MOL0     O44255  -2.528   0.293   5.793  0.4329  0.3206  0.4043
  336MOL0     C44256  -2.663   0.327   5.775  0.6664  0.7504  0.8562
  336MOL0     C44257  -2.726   0.289   5.640  0.2954 -0.9104 -0.6574
  336MOL0     C44258  -2.880   0.318   5.643  0.8417  0.1483 -0.2296
  336MOL0     C44259  -2.970   0.211   5.706 -0.4090  0.3713 -0.4598
  336MOL0     C44260  -3.036   0.121   5.604  0.6720 -0.2904  0.0429
  336MOL0     C44261  -3.117   0.008   5.669 -0.0596  0.0146  0.3223
  336MOL0     C44262  -3.174  -0.082   5.555 -0.7000 -0.0973  0.2103
  336MOL0     C44263  -3.087  -0.215   5.533  0.0121  0.6633  0.6465
  336MOL0    Cl44264  -2.977  -0.173   5.393  0.2051 -0.6290  0.0336
  336MOL0     C44265  -2.303   0.318   5.761  0.2020  0.1631  0.1799
  336MOL0     C44266  -2.189   0.383   5.706 -0.6760  1.0872  0.2892
  336MOL0     O44267  -1.997   0.407   5.457  0.6359  0.2159  0.4648
  336MOL0     C44268  -1.763   0.574   5.455  0.0859  0.2067  0.0973
  336MOL0     C44269  -1.651   0.658   5.443  0.2834 -0.1902 -0.1358
  336MOL0     N44270  -1.042   0.731   5.281  0.6073 -0.1526  0.8759
  336MOL0     N44271  -0.962   0.782   5.189  0.4317  0.4274  0.4681
  336MOL0     C44272  -0.136   0.418   5.323 -0.5555 -0.2408  0.4653
  336MOL0     C44273  -0.005   0.394   5.269 -1.3529  0.0643 -0.6106
  336MOL0     C44274   0.305   0.215   4.973 -0.1639 -0.5145 -0.7364
  336MOL0     C44275   0.364   0.206   4.846  0.6203  1.4551 -0.1706
  336MOL0     C44276   0.495   0.172   4.823 -0.4018 -0.4169 -0.2825
  336MOL0     C44277   0.573   0.143   4.941 -0.9182 -0.9548  0.4920
  336MOL0     O44278   0.700   0.097   4.947 -0.2350 -0.5126 -0.3231
  336MOL0     C44279   0.770   0.112   4.823 -0.9104 -0.1502 -0.1918
  336MOL0     C44280   0.918   0.132   4.851  0.5073 -0.3981  0.5395
  336MOL0     C44281   0.986   0.169   4.723 -0.0564 -0.3830 -0.2122
  336MOL0     C44282   0.977   0.073   4.607  0.3603  0.7200 -0.7830
  336MOL0     C44283   1.065  -0.048   4.619  0.5819  0.8673 -0.2154
  336MOL0     C44284   1.142  -0.146   4.641 -0.6110  0.0606  0.5860
  336MOL0     C44285   0.517   0.158   5.060 -0.2960  0.3187 -0.9141
  336MOL0     C44286   0.389   0.192   5.078 -0.1362  0.5065 -0.3112
  336MOL0     H44287  -0.075   0.175   5.024 -2.8472 -0.4963 -0.2588
  336MOL0     H44288  -0.307   0.224   5.102  0.1467  0.8504 -1.7284
  336MOL0     H44289  -0.329   0.451   5.493 -1.5585  0.4521  0.6106
  336MOL0     H44290  -0.493   0.432   5.460 -0.3027 -0.5878  2.1634
  336MOL0     H44291  -0.425   0.612   5.261  1.0025  2.3049  0.1774
  336MOL0     H44292  -0.286   0.638   5.361  0.1336  0.8734 -0.9319
  336MOL0     H44293  -0.428   0.701   5.562 -0.4515 -4.2704  0.1685
  336MOL0     H44294  -0.576   0.674   5.490  0.6980 -1.3051 -0.5660
  336MOL0     H44295  -0.547   0.900   5.497  1.2949  0.0938  0.7598
  336MOL0     H44296  -0.402   0.890   5.392 -0.0039 -0.1244 -0.0017
  336MOL0     H44297  -0.698   0.799   5.353 -0.4003 -0.9621 -0.6441
  336MOL0     H44298  -0.578   0.761   5.231  1.3122 -1.9923  1.7676
  336MOL0     H44299  -0.515   0.982   5.188 -1.5261 -2.7356 -4.7640
  336MOL0     H44300  -0.648   1.052   5.295 -0.6199 -0.3450  0.4190
  336MOL0     H44301  -0.657   1.014   5.036 -0.9248  0.6026  0.1238
  336MOL0     H44302  -0.718   0.859   5.075  1.1269  0.4032 -3.0162
  336MOL0     H44303  -0.913   1.017   5.061 -0.7882  0.2640  1.0914
  336MOL0     H44304  -0.853   1.103   5.192  0.4786 -1.3941  1.4257
  336MOL0     H44305  -0.978   1.017   5.415 -0.8762  1.4377 -1.4521
  336MOL0     H44306  -1.073   0.768   5.584 -4.4403  3.8612  4.7694
  336MOL0     H44307  -1.194   0.692   5.480 -1.1843  0.5457  2.6390
  336MOL0     H44308  -1.185   0.983   5.574 -0.8878 -0.2553  0.1654
  336MOL0     H44309  -1.277   0.844   5.641  0.3264 -2.4115 -0.9001
  336MOL0     H44310  -1.379   1.038   5.460 -1.6747 -0.9308 -1.2768
  336MOL0     H44311  -1.280   0.958   5.340  1.1726  2.0920  1.1306
  336MOL0     H44312  -1.420   0.763   5.375 -2.8150  0.2518 -3.2708
  336MOL0     H44313  -1.507   0.909   5.318  0.8264 -0.3348 -1.4206
  336MOL0     H44314  -1.750   0.913   5.633  2.9309  0.4362 -0.2245
  336MOL0     H44315  -1.963   0.777   5.639 -0.0109 -0.0292 -0.4821
  336MOL0     H44316  -2.344   0.659   5.593 -0.0616 -0.2648 -0.3332
  336MOL0     H44317  -2.539   0.549   5.690  0.0334  0.5071 -0.6775
  336MOL0     H44318  -2.679   0.435   5.776 -2.0032  0.6194 -2.8070
  336MOL0     H44319  -2.712   0.275   5.858 -0.5317 -0.8381 -0.7644
  336MOL0     H44320  -2.702   0.183   5.629  1.0593 -0.8421  0.1998
  336MOL0     H44321  -2.669   0.347   5.567  4.7032 -1.5636  1.8963
  336MOL0     H44322  -2.909   0.337   5.540  2.3268 -1.4883 -0.9870
  336MOL0     H44323  -2.895   0.413   5.696 -0.5311 -0.6880  0.9579
  336MOL0     H44324  -2.919   0.139   5.771 -2.1398 -0.6738 -0.2031
  336MOL0     H44325  -3.037   0.267   5.773 -0.6999  1.6787 -1.7734
  336MOL0     H44326  -2.955   0.086   5.540  1.9421  2.8838 -0.2639
  336MOL0     H44327  -3.111   0.176   5.546  0.7243  0.7639  0.9467
  336MOL0     H44328  -3.202   0.047   5.725  0.1118  1.6375 -0.4998
  336MOL0     H44329  -3.052  -0.052   5.733  0.8166  1.9605  1.3238
  336MOL0     H44330  -3.280  -0.106   5.551 -0.4171 -1.2298 -1.7300
  336MOL0     H44331  -3.169  -0.026   5.461  0.3811 -1.5217 -0.6214
  336MOL0     H44332  -3.159  -0.291   5.501  0.7445  0.7931 -1.5192
  336MOL0     H44333  -3.020  -0.241   5.615  2.7958  1.0581 -1.3523
  336MOL0     H44334  -2.278   0.222   5.806  3.6429  1.2408  0.8737
  336MOL0     H44335  -2.088   0.344   5.703 -0.9567  0.3953 -0.5295
  336MOL0     H44336  -1.759   0.474   5.412  0.5935 -0.8914  2.5439
  336MOL0     H44337  -1.566   0.611   5.394 -2.1159 -3.4700 -1.5006
  336MOL0     H44338  -0.144   0.475   5.415 -1.9432  3.5623 -1.7639
  336MOL0     H44339   0.071   0.428   5.339 -2.7944 -2.1396  2.2553
  336MOL0     H44340   0.304   0.230   4.759  2.8017  0.5582 -2.0283
  336MOL0     H44341   0.528   0.160   4.720  0.7883  2.6392 -0.3672
  336MOL0     H44342   0.736   0.205   4.776 -1.0520 -0.2577 -0.3021
  336MOL0     H44343   0.743   0.025   4.762  1.2668  0.0442 -1.5608
  336MOL0     H44344   0.926   0.217   4.919 -2.8719  0.7030 -0.2390
  336MOL0     H44345   0.965   0.047   4.901  2.2280  0.6173  0.7274
  336MOL0     H44346   1.092   0.187   4.745  0.4199 -1.2223 -1.6814
  336MOL0     H44347   0.941   0.266   4.697  0.2413  0.3430  1.7999
  336MOL0     H44348   0.877   0.031   4.590  1.5726 -2.8713  0.1753
  336MOL0     H44349   1.008   0.129   4.518  1.5914 -0.5786 -1.2008
  336MOL0     H44350   1.205  -0.231   4.660 -1.7769 -0.6630  1.3199
  336MOL0     H44351   0.586   0.129   5.139 -0.8784 -1.3175 -0.9484
  336MOL0     H44352   0.362   0.203   5.183 -0.8197 -2.5439 -0.0604
  337MOL0     O44353   8.789   4.917   5.689 -0.2395  0.3411  0.3415
  337MOL0     C44354   8.737   4.897   5.583 -0.0216 -0.5580 -0.1241
  337MOL0     O44355   8.797   4.919   5.461  0.3157  0.4907 -0.1189
  337MOL0     C44356   8.918   4.992   5.448 -0.3873 -0.4094  0.2324
  337MOL0     C44357   9.024   4.953   5.361 -0.0324 -0.2666  0.0654
  337MOL0     C44358   9.130   5.042   5.330  0.6358 -0.3328 -0.6337
  337MOL0     C44359   9.122   5.170   5.379 -0.2114  0.0592  0.9407
  337MOL0     O44360   9.221   5.264   5.352  0.5595  0.4169  0.4605
  337MOL0     C44361   9.249   5.361   5.444 -0.4700 -0.3480 -0.6584
  337MOL0     C44362   9.401   5.371   5.431  0.2183  0.3272  0.5760
  337MOL0     C44363   9.464   5.251   5.501 -0.7656 -0.1685  0.3228
  337MOL0     C44364   9.615   5.224   5.459  0.6598 -0.6063 -0.7724
  337MOL0     C44365   9.710   5.340   5.438 -0.2949 -0.8471  0.0725
  337MOL0     C44366   9.845   5.311   5.375  0.1776  0.0569 -0.1671
  337MOL0     C44367   9.931   5.440   5.371 -0.8563 -0.3783  0.1683
  337MOL0     C44368  10.069   5.427   5.293  1.2754 -0.3169 -0.4624
  337MOL0     N44369  10.144   5.301   5.330  0.7435  0.1895 -0.4267
  337MOL0     C44370  10.123   5.176   5.277 -0.8788  0.2029 -0.6568
  337MOL0     C44371  10.210   5.091   5.335 -0.3416  0.5427 -0.5489
  337MOL0     C44372  10.192   4.944   5.309 -0.3924 -0.3553  0.6676
  337MOL0     C44373  10.326   4.863   5.304 -0.4569 -0.7285 -0.8543
  337MOL0     C44374  10.313   4.725   5.235  0.3645 -0.0849  0.1355
  337MOL0     C44375  10.435   4.636   5.242  0.1586  0.2748  0.0973
  337MOL0     O44376  10.522   4.687   5.142 -0.3605  0.2081  0.5821
  337MOL0     C44377  10.619   4.602   5.099  0.2110  0.4695 -0.0135
  337MOL0     C44378  10.667   4.638   4.973  0.4688 -0.1864  0.1904
  337MOL0     C44379  10.772   4.559   4.924 -0.4813 -0.2582 -0.6939
  337MOL0     C44380  10.833   4.456   4.998  0.2245  0.9392 -0.0042
  337MOL0     C44381  10.932   4.370   4.942  0.1592  0.0105  1.3831
  337MOL0     O44382  11.014   4.302   5.035  0.3477  0.2407  0.0755
  337MOL0     C44383  11.117   4.215   5.007 -0.1870  0.1525 -0.4009
  337MOL0     C44384  11.168   4.139   5.108 -0.9260 -0.6111 -0.0301
  337MOL0     C44385  11.277   4.057   5.089 -0.7526  0.9890 -0.0769
  337MOL0     C44386  11.346   4.045   4.965  0.1945 -0.1141 -0.6921
  337MOL0     O44387  11.459   3.963   4.961  0.0810 -0.7901 -0.0345
  337MOL0     C44388  11.504   3.925   4.829  0.8966  0.2191 -0.7872
  337MOL0     C44389  11.585   3.792   4.825  0.6656  0.0689  0.4019
  337MOL0     C44390  11.732   3.794   4.871  0.1452 -0.4631  0.4342
  337MOL0     C44391  11.813   3.665   4.837  0.6304 -0.3980 -0.3766
  337MOL0     C44392  11.965   3.666   4.868 -0.0508 -0.2598 -0.2598
  337MOL0     C44393  12.030   3.538   4.798  1.0863  0.8853 -0.0736
  337MOL0     C44394  12.181   3.535   4.817  0.8324 -0.0618 -0.6748
  337MOL0     C44395  12.246   3.398   4.800  0.6102  1.2463  0.9657
  337MOL0    Cl44396  12.431   3.389   4.800  0.2762 -0.1140 -0.1295
  337MOL0     C44397  11.301   4.135   4.865 -0.2497  0.1141 -0.1678
  337MOL0     C44398  11.187   4.213   4.882 -0.5501 -0.4289 -0.3645
  337MOL0     O44399  10.929   4.353   4.817 -0.4101 -0.5576  0.1312
  337MOL0     C44400  10.773   4.423   5.119  0.0490  0.1926 -0.6790
  337MOL0     C44401  10.669   4.494   5.169  0.2097 -1.4177 -1.0075
  337MOL0     N44402  10.300   5.166   5.411  0.1088 -0.9772  0.9654
  337MOL0     N44403  10.261   5.288   5.401  0.8927 -1.0423  0.0752
  337MOL0     C44404   9.017   5.208   5.459 -0.7227 -0.7577  0.7080
  337MOL0     C44405   8.916   5.119   5.497 -0.0436  0.1395 -0.0782
  337MOL0     C44406   8.602   4.833   5.577 -0.1522  0.5221  0.4061
  337MOL0     C44407   8.554   4.785   5.449  0.9187 -0.0759  0.6434
  337MOL0     C44408   8.428   4.718   5.441  0.5055 -0.5888  0.0028
  337MOL0     C44409   8.352   4.698   5.558 -0.2960 -0.1975  0.5039
  337MOL0     O44410   8.231   4.634   5.551  0.6128 -0.2369  0.0689
  337MOL0     C44411   8.199   4.529   5.649 -0.7498 -0.0485 -0.6260
  337MOL0     C44412   8.090   4.437   5.584  0.2463  0.3571  0.5734
  337MOL0     C44413   7.951   4.485   5.608  0.3517 -0.3274  0.7390
  337MOL0     C44414   7.839   4.396   5.573  0.9198 -0.0913 -0.8002
  337MOL0     C44415   7.709   4.470   5.586 -1.2551  0.4490 -0.6812
  337MOL0     C44416   7.598   4.521   5.608  0.7669 -0.1893  0.1421
  337MOL0     C44417   8.400   4.746   5.684 -0.0140 -0.3513 -0.7576
  337MOL0     C44418   8.525   4.811   5.688 -0.8926 -0.9603  1.0359
  337MOL0     H44419   9.019   4.850   5.329 -2.6829 -1.1049  2.7017
  337MOL0     H44420   9.218   5.004   5.279  1.3463  1.4506 -0.7915
  337MOL0     H44421   9.222   5.336   5.547  2.2497  1.6632  0.6706
  337MOL0     H44422   9.204   5.458   5.422 -2.2854 -0.4755  2.0201
  337MOL0     H44423   9.445   5.461   5.474  0.0292  0.8170 -0.2222
  337MOL0     H44424   9.427   5.367   5.324 -0.5484  1.6098  0.3157
  337MOL0     H44425   9.421   5.159   5.461  1.7448 -0.2418 -2.6222
  337MOL0     H44426   9.456   5.263   5.609  1.2336  1.3518  0.3716
  337MOL0     H44427   9.658   5.154   5.532  0.9738 -0.5217 -0.8751
  337MOL0     H44428   9.604   5.168   5.365  0.9906 -0.7451 -0.7301
  337MOL0     H44429   9.729   5.373   5.540  0.3317 -2.5750  0.5446
  337MOL0     H44430   9.658   5.411   5.373 -0.6462 -1.9413 -0.8954
  337MOL0     H44431   9.837   5.253   5.282 -0.3814 -3.5598  1.9499
  337MOL0     H44432   9.904   5.242   5.436  2.6963  1.4465 -0.8784
  337MOL0     H44433   9.882   5.529   5.332 -0.5536  0.6219  1.9708
  337MOL0     H44434   9.950   5.459   5.477  1.5697 -2.7227  0.2678
  337MOL0     H44435  10.134   5.515   5.299  0.4494  0.4775 -2.2933
  337MOL0     H44436  10.042   5.411   5.188 -0.0642 -1.6302  0.0493
  337MOL0     H44437  10.043   5.159   5.205 -1.8938  0.5724  0.3464
  337MOL0     H44438  10.151   4.927   5.209  2.7231  2.3420 -1.2685
  337MOL0     H44439  10.123   4.912   5.388 -0.1739 -1.6406  0.3612
  337MOL0     H44440  10.365   4.849   5.405  0.2120  1.0696 -0.8226
  337MOL0     H44441  10.400   4.923   5.251  0.8321 -0.9309  0.6464
  337MOL0     H44442  10.227   4.672   5.278  2.2783 -1.6713  2.2195
  337MOL0     H44443  10.299   4.749   5.129  5.7392  3.4915 -0.1690
  337MOL0     H44444  10.410   4.532   5.217  0.4006  0.5960 -1.5870
  337MOL0     H44445  10.476   4.641   5.344  1.8195  1.7712 -0.6035
  337MOL0     H44446  10.636   4.732   4.929 -0.3050 -0.2696  0.5380
  337MOL0     H44447  10.799   4.568   4.819 -2.5348 -1.9653 -1.4384
  337MOL0     H44448  11.126   4.152   5.207 -2.2738  1.8529 -0.8398
  337MOL0     H44449  11.301   3.990   5.171  1.1441 -1.9746 -2.8098
  337MOL0     H44450  11.567   4.006   4.792 -1.6314  2.4566 -0.4859
  337MOL0     H44451  11.418   3.928   4.761 -0.9251  4.3199  1.3729
  337MOL0     H44452  11.606   3.782   4.718  1.2958  5.5652 -0.2548
  337MOL0     H44453  11.526   3.713   4.873 -1.6398  3.1434  3.0962
  337MOL0     H44454  11.737   3.816   4.979  2.8527  0.3057  0.2290
  337MOL0     H44455  11.769   3.888   4.829  0.7392  0.5047  2.9333
  337MOL0     H44456  11.761   3.579   4.880  2.5422 -1.2797  0.2695
  337MOL0     H44457  11.827   3.657   4.729  2.6934 -0.6185 -0.1313
  337MOL0     H44458  11.985   3.657   4.975  1.5909 -0.1587 -0.5280
  337MOL0     H44459  12.011   3.760   4.836  0.5168 -1.1023 -2.0454
  337MOL0     H44460  12.011   3.543   4.691 -1.2031  1.7266  0.3114
  337MOL0     H44461  11.978   3.450   4.837 -1.5773  2.0659 -0.7421
  337MOL0     H44462  12.226   3.609   4.751 -0.6560  0.8855 -0.6556
  337MOL0     H44463  12.200   3.583   4.913 -1.5367 -0.2405 -0.0542
  337MOL0     H44464  12.217   3.357   4.703  1.1834  0.8798  0.9467
  337MOL0     H44465  12.207   3.341   4.885 -0.3990  2.3619  1.2861
  337MOL0     H44466  11.354   4.149   4.772  2.4005 -0.8168  1.0961
  337MOL0     H44467  11.148   4.272   4.800 -3.1603  0.3466  1.3158
  337MOL0     H44468  10.807   4.338   5.179  1.3318  1.8387  1.0346
  337MOL0     H44469  10.624   4.464   5.264  1.8267 -2.4131 -0.5130
  337MOL0     H44470   9.003   5.309   5.494  2.3625  0.2249 -0.5416
  337MOL0     H44471   8.833   5.158   5.554  0.6862  2.6409 -0.6366
  337MOL0     H44472   8.600   4.805   5.353 -3.2143 -1.2423 -1.8409
  337MOL0     H44473   8.397   4.685   5.342 -2.0829  0.0553  0.5266
  337MOL0     H44474   8.168   4.569   5.746 -2.3371  0.1680 -1.2008
  337MOL0     H44475   8.292   4.472   5.660 -1.3442 -0.6496  2.1282
  337MOL0     H44476   8.109   4.435   5.476  0.3714 -1.8943  0.5896
  337MOL0     H44477   8.096   4.330   5.608  2.7267 -0.3188 -2.3884
  337MOL0     H44478   7.941   4.581   5.556 -0.9691 -0.8028  0.0759
  337MOL0     H44479   7.939   4.505   5.715 -0.8665  0.2271  0.5139
  337MOL0     H44480   7.846   4.373   5.466 -0.4710 -1.2572 -0.6618
  337MOL0     H44481   7.844   4.311   5.641  0.1708  1.0128  0.6724
  337MOL0     H44482   7.507   4.577   5.606  1.0232  0.3077  1.4547
  337MOL0     H44483   8.338   4.741   5.773 -0.9805 -2.9484 -1.4814
  337MOL0     H44484   8.553   4.856   5.783 -0.8003  3.6093 -0.8781
  338MOL0     O44485  10.308   4.649  10.639 -0.6192 -0.2929 -0.1911
  338MOL0     C44486  10.293   4.675  10.523 -0.6348  0.2697  0.8435
  338MOL0     O44487  10.361   4.769  10.452  0.2771  0.8450 -0.4807
  338MOL0     C44488  10.461   4.843  10.517 -0.7367 -0.1671 -0.8198
  338MOL0     C44489  10.591   4.833  10.473 -0.2170 -0.3190  0.0888
  338MOL0     C44490  10.693   4.899  10.532 -0.2599 -0.4654  0.6950
  338MOL0     C44491  10.669   4.961  10.654 -0.9710 -0.3041 -0.7491
  338MOL0     O44492  10.768   5.023  10.729 -0.7890 -0.3208  0.3044
  338MOL0     C44493  10.903   4.966  10.726  0.3189 -0.1810  0.1236
  338MOL0     C44494  10.995   5.056  10.803 -0.4207  0.2128 -1.2033
  338MOL0     C44495  11.134   5.012  10.766 -0.8099 -0.2350  0.4222
  338MOL0     C44496  11.239   5.085  10.842 -0.0066  0.1172  0.5357
  338MOL0     C44497  11.377   5.029  10.820  0.1635  0.5704 -0.7172
  338MOL0     C44498  11.484   5.106  10.893  0.4627 -0.4725 -0.1882
  338MOL0     C44499  11.631   5.057  10.888  1.0088 -0.1872 -0.0083
  338MOL0     C44500  11.735   5.176  10.879  0.7155 -0.1458 -1.3156
  338MOL0     N44501  11.865   5.143  10.834 -0.4817  0.5288  0.1679
  338MOL0     C44502  11.978   5.136  10.909  0.3810  0.7519  0.1828
  338MOL0     C44503  12.075   5.094  10.820  0.1491  0.7208 -0.2476
  338MOL0     C44504  12.215   5.052  10.854  0.2349 -0.3075 -0.2222
  338MOL0     C44505  12.258   5.059  11.006 -0.7595  0.0742 -0.0879
  338MOL0     C44506  12.216   4.931  11.083 -0.3110 -0.4648  0.8450
  338MOL0     C44507  12.225   4.955  11.235  0.4752  0.0438 -0.2370
  338MOL0     O44508  12.148   5.066  11.270 -0.1959  0.7274  0.2201
  338MOL0     C44509  12.013   5.045  11.291 -0.0405 -0.0340 -0.3895
  338MOL0     C44510  11.940   5.156  11.338  0.5464 -0.0270  0.0330
  338MOL0     C44511  11.799   5.149  11.361 -0.3818 -0.4397  0.7282
  338MOL0     C44512  11.736   5.028  11.345 -0.1822 -0.9461  0.7233
  338MOL0     C44513  11.590   5.013  11.367 -0.5248 -0.3904 -0.3728
  338MOL0     O44514  11.552   5.064  11.484 -0.1386  0.0489  0.9779
  338MOL0     C44515  11.419   5.089  11.513 -0.7566 -0.6541 -0.8773
  338MOL0     C44516  11.299   5.051  11.443 -0.4025 -0.2033  0.3133
  338MOL0     C44517  11.176   5.107  11.472 -0.6868 -0.4747 -0.1756
  338MOL0     C44518  11.166   5.188  11.587  0.0616 -0.2854  0.2842
  338MOL0     O44519  11.059   5.243  11.647 -0.2354  0.0776  0.1686
  338MOL0     C44520  10.932   5.209  11.588  0.1364  0.1713  0.7188
  338MOL0     C44521  10.815   5.242  11.675 -0.3619 -0.0872 -0.7082
  338MOL0     C44522  10.680   5.167  11.649 -0.2352 -0.2113 -0.8910
  338MOL0     C44523  10.563   5.247  11.689  0.1473 -0.4227  0.4505
  338MOL0     C44524  10.428   5.157  11.684  0.0071 -0.8465  1.5203
  338MOL0     C44525  10.393   5.086  11.549  0.6395 -1.0456  0.5849
  338MOL0     C44526  10.254   5.025  11.534  0.5592  0.8673  0.1824
  338MOL0     C44527  10.226   4.990  11.396  0.2398  0.4436 -0.0510
  338MOL0    Cl44528  10.050   4.952  11.389  0.0805 -0.3083 -0.0304
  338MOL0     C44529  11.282   5.210  11.661 -0.4249 -0.7747 -0.6054
  338MOL0     C44530  11.406   5.157  11.628  0.1919  0.5180  0.9990
  338MOL0     O44531  11.520   5.005  11.265 -0.2914 -0.3255 -0.3204
  338MOL0     C44532  11.813   4.923  11.301 -0.2932 -0.2173  0.6223
  338MOL0     C44533  11.951   4.920  11.275 -0.2856 -0.1036  0.3773
  338MOL0     N44534  12.025   5.081  10.694  0.4256 -0.2739 -0.3379
  338MOL0     N44535  11.895   5.099  10.711  0.2523 -0.0847 -0.0128
  338MOL0     C44536  10.542   4.975  10.709 -0.9522  0.5977  0.2203
  338MOL0     C44537  10.433   4.924  10.636 -0.2904 -1.0418  0.4117
  338MOL0     C44538  10.176   4.610  10.452 -0.2583 -0.0637 -0.0994
  338MOL0     C44539  10.143   4.477  10.483  0.8766  0.8751 -0.3177
  338MOL0     C44540  10.031   4.420  10.434 -0.6062  0.0131  1.1759
  338MOL0     C44541   9.955   4.490  10.339  0.2463  0.1765 -0.0401
  338MOL0     O44542   9.855   4.419  10.290  0.3400 -0.3265 -0.1554
  338MOL0     C44543   9.813   4.434  10.151 -0.4753  0.4423 -0.0042
  338MOL0     C44544   9.700   4.334  10.118 -0.3860  0.3639  0.2241
  338MOL0     C44545   9.721   4.187  10.156  0.0214  0.0626  0.7208
  338MOL0     C44546   9.644   4.099  10.060 -0.2995 -0.4273  0.1997
  338MOL0     C44547   9.492   4.114  10.054 -0.4951  0.0948  0.1852
  338MOL0     C44548   9.371   4.114  10.051  0.8679 -0.4105  0.0311
  338MOL0     C44549   9.990   4.618  10.300 -0.3114 -0.9975 -0.6426
  338MOL0     C44550  10.097   4.682  10.362 -0.9531 -0.8345 -0.2255
  338MOL0     H44551  10.618   4.773  10.387 -0.7360  2.5701 -2.2223
  338MOL0     H44552  10.795   4.887  10.495  0.6931 -2.5735  3.5758
  338MOL0     H44553  10.924   4.967  10.618 -1.3976 -0.3098 -0.2536
  338MOL0     H44554  10.914   4.864  10.762 -0.9951 -0.2101  0.5135
  338MOL0     H44555  10.968   5.043  10.909 -0.4007  2.2105 -0.9076
  338MOL0     H44556  10.975   5.163  10.791  3.3748  0.8732 -2.9036
  338MOL0     H44557  11.157   5.028  10.660 -0.4858  1.8183  0.7490
  338MOL0     H44558  11.144   4.904  10.775  0.6437 -0.6623 -3.9235
  338MOL0     H44559  11.243   5.191  10.816 -0.6373  1.2285  4.3117
  338MOL0     H44560  11.218   5.088  10.949  0.9668 -1.3750  0.8022
  338MOL0     H44561  11.400   5.040  10.714  0.3300  0.3048 -0.7090
  338MOL0     H44562  11.368   4.928  10.862 -0.5834  1.1809  0.6628
  338MOL0     H44563  11.458   5.116  10.999 -0.5641  1.3724 -0.5775
  338MOL0     H44564  11.467   5.208  10.856  1.7734 -0.1925 -0.0788
  338MOL0     H44565  11.645   4.994  10.976  3.3653 -0.6954 -0.6806
  338MOL0     H44566  11.646   4.998  10.797  2.7929 -1.2125  0.9012
  338MOL0     H44567  11.748   5.209  10.983  0.7798  1.5718 -1.8368
  338MOL0     H44568  11.697   5.259  10.818 -2.3969  1.3276  2.1994
  338MOL0     H44569  11.983   5.156  11.015 -1.6649 -0.1748  0.5106
  338MOL0     H44570  12.277   5.123  10.798  0.2127  1.3152  1.6905
  338MOL0     H44571  12.237   4.954  10.812 -0.1743 -0.5022  0.0208
  338MOL0     H44572  12.195   5.135  11.053 -1.0820  0.5139 -1.2016
  338MOL0     H44573  12.364   5.086  11.017 -0.0973 -1.2207 -2.5613
  338MOL0     H44574  12.109   4.924  11.064  0.1450 -3.7647 -1.4105
  338MOL0     H44575  12.267   4.842  11.045  0.1612  0.7531 -1.5603
  338MOL0     H44576  12.327   4.979  11.268  0.9201  1.2234 -2.3176
  338MOL0     H44577  12.201   4.866  11.295  0.3508 -0.3440 -0.8524
  338MOL0     H44578  11.988   5.249  11.367  1.9826 -1.0709  1.1468
  338MOL0     H44579  11.740   5.232  11.396 -0.0138 -0.0246  0.3913
  338MOL0     H44580  11.316   4.986  11.358  1.4905 -0.0638  0.5378
  338MOL0     H44581  11.089   5.088  11.410 -1.1755  0.5542  0.1683
  338MOL0     H44582  10.933   5.102  11.565  0.3551  0.9930 -4.1488
  338MOL0     H44583  10.922   5.265  11.495  2.2903 -0.4061  0.0950
  338MOL0     H44584  10.802   5.349  11.655 -0.2647 -0.4137 -2.6558
  338MOL0     H44585  10.845   5.216  11.777 -0.3034 -0.1302 -0.7369
  338MOL0     H44586  10.688   5.074  11.705 -1.8393 -0.5634 -1.1875
  338MOL0     H44587  10.652   5.150  11.544 -1.4737 -2.2101 -0.2916
  338MOL0     H44588  10.572   5.284  11.792 -2.4196  1.7129  0.0285
  338MOL0     H44589  10.548   5.325  11.614 -1.4048 -0.1957  0.9644
  338MOL0     H44590  10.334   5.204  11.716 -1.3323 -1.5222 -1.1213
  338MOL0     H44591  10.445   5.090  11.769  1.8628 -0.3773  1.5548
  338MOL0     H44592  10.469   5.009  11.535  0.4265 -1.1812  0.1681
  338MOL0     H44593  10.404   5.157  11.467 -1.1767  0.7254  1.7628
  338MOL0     H44594  10.248   4.945  11.608  1.7159  0.1621 -0.4483
  338MOL0     H44595  10.178   5.099  11.559  1.8785  2.3974 -0.1877
  338MOL0     H44596  10.294   4.910  11.365 -0.1863 -0.6846  1.7992
  338MOL0     H44597  10.248   5.078  11.335  1.3256  0.8800  0.9324
  338MOL0     H44598  11.262   5.257  11.756  1.0173 -2.7225  0.7317
  338MOL0     H44599  11.497   5.179  11.682  0.3659 -1.1158  1.4103
  338MOL0     H44600  11.748   4.836  11.298 -0.6930 -0.0947  3.5292
  338MOL0     H44601  11.988   4.821  11.249 -2.4681 -0.3771 -2.0520
  338MOL0     H44602  10.519   5.035  10.796 -1.8220 -1.2273  1.3187
  338MOL0     H44603  10.335   4.954  10.672  0.1372 -0.6450  1.2511
  338MOL0     H44604  10.190   4.420  10.563 -2.5157 -2.5547 -0.4416
  338MOL0     H44605  10.006   4.318  10.459 -0.2062 -0.7552 -1.3050
  338MOL0     H44606   9.905   4.421  10.093  1.5264 -2.3068  3.3632
  338MOL0     H44607   9.759   4.526  10.125 -3.2753 -1.8550 -3.1682
  338MOL0     H44608   9.605   4.366  10.162 -1.4290 -2.3754  0.1113
  338MOL0     H44609   9.688   4.354  10.011 -3.1579 -2.3042 -0.0916
  338MOL0     H44610   9.710   4.162  10.262  2.1775  0.0957  0.9956
  338MOL0     H44611   9.825   4.160  10.139  0.0425  0.0171  0.9109
  338MOL0     H44612   9.678   4.105   9.956 -0.1805  1.8645  0.3064
  338MOL0     H44613   9.661   3.998  10.097 -1.8209  0.2018  2.8513
  338MOL0     H44614   9.267   4.127  10.027  1.6929  0.7887 -3.6145
  338MOL0     H44615   9.929   4.680  10.235 -1.4673 -1.0634  0.3383
  338MOL0     H44616  10.106   4.783  10.324 -0.2879 -1.1516 -0.9544
  339MOL0     O44617   9.137   4.543   6.736 -0.8385 -0.5063  0.0618
  339MOL0     C44618   9.201   4.619   6.815  0.3249 -0.5102  0.0707
  339MOL0     O44619   9.165   4.651   6.940 -0.5478 -0.6361  0.0876
  339MOL0     C44620   9.028   4.650   6.970 -0.0242  0.3828 -0.2674
  339MOL0     C44621   8.992   4.595   7.101  0.5067 -0.5226  0.8757
  339MOL0     C44622   8.861   4.576   7.143 -0.1837 -0.4614  0.1400
  339MOL0     C44623   8.762   4.632   7.062  0.5312 -0.5714  0.6296
  339MOL0     O44624   8.621   4.614   7.074 -0.2175 -0.3797  0.0008
  339MOL0     C44625   8.576   4.544   7.198  0.2413  0.5981  0.6213
  339MOL0     C44626   8.425   4.520   7.174 -0.1950 -0.1464 -0.4072
  339MOL0     C44627   8.373   4.476   7.311  0.2452  0.9721  0.1832
  339MOL0     C44628   8.223   4.520   7.320 -0.2249  0.1447  0.5119
  339MOL0     C44629   8.142   4.413   7.401 -1.2117 -0.3575  0.3060
  339MOL0     C44630   8.195   4.426   7.546  0.6148  0.9257 -0.7415
  339MOL0     C44631   8.124   4.335   7.646  0.7306  0.1069  0.4733
  339MOL0     C44632   8.129   4.392   7.789  0.2232 -0.2637  0.6549
  339MOL0     N44633   8.051   4.319   7.886 -0.5103  0.2521  0.2586
  339MOL0     C44634   8.080   4.188   7.918 -0.6418  0.1864 -0.1594
  339MOL0     C44635   7.992   4.169   8.016  0.2406  0.3761 -0.3007
  339MOL0     C44636   7.978   4.031   8.103 -0.2868  0.8153  0.6679
  339MOL0     C44637   8.111   3.994   8.168  0.4561 -0.4325 -0.0339
  339MOL0     C44638   8.085   3.863   8.257 -0.3557  0.2707  0.3386
  339MOL0     C44639   8.209   3.845   8.348 -0.4328 -0.0160 -0.4868
  339MOL0     O44640   8.229   3.955   8.440  0.4704 -0.4140  1.0929
  339MOL0     C44641   8.332   3.961   8.529  0.0090 -0.1471 -0.4232
  339MOL0     C44642   8.339   4.081   8.600 -0.5143 -0.5070  0.3212
  339MOL0     C44643   8.456   4.105   8.667  0.4724  0.5423 -1.3203
  339MOL0     C44644   8.548   4.004   8.699 -0.7730 -0.4997  0.0382
  339MOL0     C44645   8.659   4.032   8.798 -1.0389 -0.5806 -0.2706
  339MOL0     O44646   8.758   3.941   8.801  0.7016 -0.9312  0.5080
  339MOL0     C44647   8.876   3.963   8.869 -0.0300  1.0300 -0.0015
  339MOL0     C44648   8.993   3.920   8.806 -1.6544  0.0588  0.9103
  339MOL0     C44649   9.122   3.947   8.870 -0.8860 -0.1035  0.3730
  339MOL0     C44650   9.133   4.012   8.998  0.5197  0.5954  1.0436
  339MOL0     O44651   9.245   4.033   9.072 -0.2236  0.0817  0.1063
  339MOL0     C44652   9.369   4.001   9.011 -0.1914 -0.9861 -0.6781
  339MOL0     C44653   9.486   4.019   9.108  0.1269 -0.7295 -0.4553
  339MOL0     C44654   9.483   4.154   9.173  0.3309  0.5019 -0.7762
  339MOL0     C44655   9.620   4.192   9.228 -0.0514 -0.2942  0.0024
  339MOL0     C44656   9.607   4.327   9.299 -0.6647  0.0179 -0.1444
  339MOL0     C44657   9.739   4.393   9.314  0.1552  0.4049 -0.2171
  339MOL0     C44658   9.791   4.454   9.185  0.3565 -0.3282 -1.1769
  339MOL0     C44659   9.926   4.505   9.195  0.5002 -0.0940 -0.7394
  339MOL0    Cl44660   9.915   4.676   9.172 -0.1093 -0.0419 -0.3970
  339MOL0     C44661   9.007   4.042   9.053  0.6054  0.2194 -1.2962
  339MOL0     C44662   8.881   4.021   8.992 -0.6639 -0.0232 -0.2326
  339MOL0     O44663   8.664   4.142   8.861 -0.3500  0.4739 -0.2675
  339MOL0     C44664   8.535   3.885   8.638 -0.3050  0.7117  0.6056
  339MOL0     C44665   8.420   3.858   8.560  1.0771 -0.7750 -0.7202
  339MOL0     N44666   7.920   4.279   8.052 -0.0407 -0.2956  0.2059
  339MOL0     N44667   7.964   4.368   7.973  0.2960  0.3497 -0.5923
  339MOL0     C44668   8.797   4.709   6.944 -0.3773  1.3138 -0.0232
  339MOL0     C44669   8.929   4.705   6.901  0.1514 -0.3355  0.8556
  339MOL0     C44670   9.340   4.649   6.783  0.0358 -1.5662  0.0811
  339MOL0     C44671   9.423   4.570   6.698 -0.4361  0.0605  0.2494
  339MOL0     C44672   9.557   4.595   6.684 -0.1174  0.4775 -0.1861
  339MOL0     C44673   9.623   4.700   6.755  0.9105  1.0885 -0.1486
  339MOL0     O44674   9.758   4.704   6.738  0.4009 -0.1069  0.7433
  339MOL0     C44675   9.829   4.780   6.833  0.0784 -1.3844  0.4317
  339MOL0     C44676   9.828   4.729   6.978  0.3641  0.0866 -0.0872
  339MOL0     C44677   9.875   4.589   6.986  0.2276  0.6937  0.0540
  339MOL0     C44678   9.862   4.533   7.133 -0.8409  0.2289 -0.0177
  339MOL0     C44679   9.915   4.397   7.138  0.0233 -0.0060 -0.7760
  339MOL0     C44680   9.956   4.277   7.133 -0.1057 -1.1269 -0.6715
  339MOL0     C44681   9.539   4.782   6.827  1.0605 -0.6596 -0.2118
  339MOL0     C44682   9.405   4.754   6.849 -0.5491 -0.8253 -0.5407
  339MOL0     H44683   9.065   4.553   7.170  0.4600 -1.3397  0.4280
  339MOL0     H44684   8.843   4.517   7.232 -3.0197  0.8070  0.5136
  339MOL0     H44685   8.600   4.591   7.294  1.8246  1.0749  0.0117
  339MOL0     H44686   8.622   4.444   7.204 -0.7107  0.2141  2.0022
  339MOL0     H44687   8.416   4.441   7.100 -0.8066  2.8732 -3.8103
  339MOL0     H44688   8.397   4.620   7.138 -1.2200  1.4457  4.1263
  339MOL0     H44689   8.425   4.524   7.395  2.5991  0.4291 -0.8907
  339MOL0     H44690   8.377   4.368   7.328 -0.2046  1.1567  1.6661
  339MOL0     H44691   8.204   4.624   7.349  0.6147  0.3770  0.2769
  339MOL0     H44692   8.195   4.523   7.214  1.2952 -4.4200 -0.2112
  339MOL0     H44693   8.152   4.311   7.363  0.0341  0.0734 -0.5844
  339MOL0     H44694   8.036   4.440   7.392 -1.8882 -2.9520 -0.2665
  339MOL0     H44695   8.161   4.523   7.583  0.2316 -0.2276  2.2483
  339MOL0     H44696   8.304   4.417   7.558  0.7540  2.1931 -0.8422
  339MOL0     H44697   8.024   4.326   7.603 -0.1047  1.7993  1.9307
  339MOL0     H44698   8.170   4.236   7.654  2.6049  0.8649 -0.3167
  339MOL0     H44699   8.077   4.488   7.783  1.4462  0.3449 -0.5947
  339MOL0     H44700   8.232   4.394   7.824  1.2258 -1.1484 -2.0013
  339MOL0     H44701   8.160   4.124   7.882  0.1045  2.7265 -3.4902
  339MOL0     H44702   7.937   3.957   8.034  2.7164 -2.2203  1.8247
  339MOL0     H44703   7.902   4.050   8.180  0.3405 -0.0065  1.5125
  339MOL0     H44704   8.140   4.077   8.232  1.2614 -0.4295 -0.3903
  339MOL0     H44705   8.189   3.959   8.100 -1.1058 -4.2110 -0.1735
  339MOL0     H44706   7.999   3.866   8.324 -1.7862 -2.2272 -1.2344
  339MOL0     H44707   8.060   3.776   8.195 -0.1768 -0.2610  1.0081
  339MOL0     H44708   8.296   3.820   8.287 -0.8899 -4.2147  0.2811
  339MOL0     H44709   8.198   3.759   8.414 -0.3237  1.3146  1.3622
  339MOL0     H44710   8.282   4.168   8.571 -0.9078 -1.3764 -1.7389
  339MOL0     H44711   8.484   4.205   8.696 -0.3394  0.6938 -1.0283
  339MOL0     H44712   8.996   3.877   8.706 -0.0292 -0.3861  1.1202
  339MOL0     H44713   9.201   3.911   8.805 -3.7416 -2.6810 -2.0388
  339MOL0     H44714   9.375   4.059   8.918 -0.1284 -3.6465 -2.4633
  339MOL0     H44715   9.376   3.898   8.974  4.2717 -1.3194  0.5737
  339MOL0     H44716   9.576   4.001   9.048 -0.6127 -2.4074 -1.1574
  339MOL0     H44717   9.484   3.931   9.173 -0.2264 -1.6774 -1.6966
  339MOL0     H44718   9.410   4.149   9.253  0.4590  3.7956 -0.3417
  339MOL0     H44719   9.447   4.228   9.101 -0.7450  0.0551 -0.7192
  339MOL0     H44720   9.667   4.123   9.299 -0.2357  0.6984  1.1218
  339MOL0     H44721   9.688   4.194   9.142  2.6985  1.2710  2.0325
  339MOL0     H44722   9.565   4.308   9.398 -0.1207 -1.8774 -0.2508
  339MOL0     H44723   9.543   4.392   9.238  1.3521  1.2402 -1.0565
  339MOL0     H44724   9.807   4.320   9.361 -0.7265 -0.0835  0.3275
  339MOL0     H44725   9.725   4.471   9.389  1.6082  0.6707 -0.1873
  339MOL0     H44726   9.792   4.373   9.111  0.2730 -2.4456  0.9777
  339MOL0     H44727   9.719   4.531   9.158  0.1497 -0.5447 -1.2524
  339MOL0     H44728   9.998   4.463   9.123  5.4253  3.2141  1.6637
  339MOL0     H44729   9.981   4.498   9.290  1.7977  1.1869 -1.3526
  339MOL0     H44730   9.012   4.092   9.149  1.7142 -1.6588 -0.3093
  339MOL0     H44731   8.788   4.035   9.047  0.0872  5.1277  0.2154
  339MOL0     H44732   8.599   3.799   8.659 -0.7878  0.1889 -0.0406
  339MOL0     H44733   8.396   3.756   8.530 -1.1686 -1.0872  1.7172
  339MOL0     H44734   8.728   4.725   6.862 -1.1300 -4.5436 -1.0205
  339MOL0     H44735   8.963   4.754   6.810 -3.0687 -1.1918 -0.9956
  339MOL0     H44736   9.378   4.475   6.670  0.4178 -1.2040  2.8197
  339MOL0     H44737   9.621   4.530   6.625 -0.3683  1.2216 -1.3181
  339MOL0     H44738   9.798   4.885   6.833  2.5370 -0.5776 -0.6971
  339MOL0     H44739   9.932   4.780   6.796  0.2624  0.6163  0.8173
  339MOL0     H44740   9.890   4.796   7.039  1.7048  0.0611 -1.3650
  339MOL0     H44741   9.724   4.726   7.011  0.5600 -1.7796  0.4730
  339MOL0     H44742   9.977   4.584   6.947  0.7087  1.0366  1.2340
  339MOL0     H44743   9.811   4.528   6.921  0.5216 -1.7786  1.9150
  339MOL0     H44744   9.896   4.597   7.214  1.1332 -0.5274 -0.1924
  339MOL0     H44745   9.754   4.533   7.151 -0.8048 -1.9308  0.5018
  339MOL0     H44746  10.001   4.180   7.123 -2.0120 -1.7799 -4.4796
  339MOL0     H44747   9.583   4.870   6.872  0.8875 -0.0465 -1.1959
  339MOL0     H44748   9.344   4.821   6.909 -1.4079  0.7390 -3.0012
  340MOL0     O44749  10.280   1.564  11.216  0.4492  0.2304 -0.4118
  340MOL0     C44750  10.248   1.545  11.337  0.0127 -0.5196  0.4369
  340MOL0     O44751  10.315   1.474  11.428 -0.5832 -0.1174  0.4174
  340MOL0     C44752  10.447   1.451  11.407 -1.1743 -0.6469 -0.0976
  340MOL0     C44753  10.544   1.556  11.385  0.6264 -0.8821 -0.1049
  340MOL0     C44754  10.683   1.532  11.381 -0.6886  0.3561 -0.5916
  340MOL0     C44755  10.734   1.407  11.387  0.4830  0.1484 -0.1944
  340MOL0     O44756  10.871   1.390  11.372 -0.2597 -0.2129  0.3039
  340MOL0     C44757  10.935   1.273  11.433  0.5624 -0.2219 -0.0130
  340MOL0     C44758  10.964   1.312  11.586 -0.4690  0.4995  0.1297
  340MOL0     C44759  11.089   1.238  11.635  0.1298  0.5110 -0.8427
  340MOL0     C44760  11.066   1.080  11.659 -0.0673 -0.7602  0.5235
  340MOL0     C44761  11.180   1.004  11.726  0.9045  0.2549 -0.6117
  340MOL0     C44762  11.329   1.040  11.683 -0.1542 -0.6015  0.2417
  340MOL0     C44763  11.353   1.033  11.531  0.2813  0.6968  0.4132
  340MOL0     C44764  11.493   1.007  11.487 -1.0016 -1.0529  0.0132
  340MOL0     N44765  11.521   0.861  11.501 -0.3862  0.3770  0.3678
  340MOL0     C44766  11.629   0.802  11.565 -0.6857 -0.1489  0.1642
  340MOL0     C44767  11.601   0.673  11.542  0.1139  0.0864  0.8066
  340MOL0     C44768  11.665   0.559  11.606  0.1170  0.1867  0.4777
  340MOL0     C44769  11.800   0.603  11.675  0.3432  0.5027 -0.3736
  340MOL0     C44770  11.864   0.470  11.716 -0.4018 -0.8028 -0.2973
  340MOL0     C44771  11.993   0.517  11.803 -0.1799 -0.3851  0.4536
  340MOL0     O44772  12.090   0.577  11.710  0.3976  0.1997 -0.3287
  340MOL0     C44773  12.217   0.609  11.759 -0.2554  0.0899  0.9253
  340MOL0     C44774  12.276   0.587  11.892 -0.3919 -0.6338 -0.4992
  340MOL0     C44775  12.414   0.608  11.907  0.9296  2.1440 -0.2090
  340MOL0     C44776  12.494   0.657  11.805  0.1447 -0.2168  0.9339
  340MOL0     C44777  12.637   0.666  11.812  0.7272 -0.1042 -0.0739
  340MOL0     O44778  12.683   0.626  11.937 -0.3301 -0.3348  0.1147
  340MOL0     C44779  12.823   0.617  11.961  0.0012  0.0655  0.1533
  340MOL0     C44780  12.914   0.722  11.911 -0.0589  0.1624 -0.1691
  340MOL0     C44781  13.054   0.706  11.919  0.6826  0.0226 -0.6451
  340MOL0     C44782  13.108   0.584  11.973 -0.0169  0.0963  0.2544
  340MOL0     O44783  13.237   0.539  11.964 -0.5127 -0.9579  0.0852
  340MOL0     C44784  13.325   0.617  11.887 -0.6158 -0.3991 -0.8628
  340MOL0     C44785  13.467   0.566  11.916 -0.4999  0.9314  0.5503
  340MOL0     C44786  13.569   0.623  11.811 -0.7255  0.1431  0.0529
  340MOL0     C44787  13.705   0.546  11.804 -0.4026 -0.7412 -0.6273
  340MOL0     C44788  13.791   0.577  11.930 -0.0358 -0.3703 -0.0162
  340MOL0     C44789  13.920   0.494  11.921  0.3377 -0.2065  0.1408
  340MOL0     C44790  14.020   0.518  12.033 -0.5000  0.0145 -0.7753
  340MOL0     C44791  13.987   0.415  12.138  0.0686  0.2323  0.1822
  340MOL0    Cl44792  14.041   0.250  12.099  0.1896  0.1531  0.4207
  340MOL0     C44793  13.016   0.482  12.017  0.4533 -0.0849 -0.3747
  340MOL0     C44794  12.876   0.501  12.012  0.2053  0.2640  0.6526
  340MOL0     O44795  12.705   0.698  11.715  0.1506  0.2508  0.2054
  340MOL0     C44796  12.434   0.684  11.682  0.0507 -1.0979  0.1974
  340MOL0     C44797  12.296   0.664  11.665 -0.3464 -0.1355  0.8780
  340MOL0     N44798  11.490   0.660  11.450  0.0831 -0.0318 -0.2895
  340MOL0     N44799  11.450   0.774  11.417  0.0555 -0.2482 -0.0119
  340MOL0     C44800  10.635   1.298  11.402  0.1170  0.3229  0.7336
  340MOL0     C44801  10.496   1.318  11.409  0.0677  0.1657 -0.2353
  340MOL0     C44802  10.113   1.588  11.381 -0.6661 -0.6527  0.1231
  340MOL0     C44803  10.082   1.614  11.520  0.1920  0.1004 -1.2868
  340MOL0     C44804   9.945   1.633  11.555  0.0078  0.2077 -0.0977
  340MOL0     C44805   9.845   1.668  11.458 -0.4802 -0.6203  0.5718
  340MOL0     O44806   9.725   1.716  11.501  0.0355 -0.0826 -0.5723
  340MOL0     C44807   9.642   1.766  11.394  0.7950 -0.2418  0.4471
  340MOL0     C44808   9.504   1.809  11.440 -0.8163 -0.2985 -0.0469
  340MOL0     C44809   9.431   1.709  11.530  0.4726  0.6429 -0.3602
  340MOL0     C44810   9.280   1.760  11.549 -0.2017 -0.6710 -0.7206
  340MOL0     C44811   9.199   1.674  11.641  0.7660  0.9442  0.0426
  340MOL0     C44812   9.131   1.595  11.698 -0.0595 -0.2748 -0.3453
  340MOL0     C44813   9.885   1.656  11.320  0.5510  0.0580 -0.5469
  340MOL0     C44814  10.015   1.616  11.288 -0.0440  0.3073  0.9006
  340MOL0     H44815  10.509   1.658  11.371  2.4115 -0.2077  0.0422
  340MOL0     H44816  10.761   1.606  11.365 -0.2992  0.0646 -0.0814
  340MOL0     H44817  11.031   1.248  11.387  1.1352  1.5517  0.1560
  340MOL0     H44818  10.874   1.185  11.413 -2.7064  2.2111 -1.6436
  340MOL0     H44819  10.874   1.289  11.645  0.2726 -1.4793  0.5511
  340MOL0     H44820  10.980   1.420  11.599  0.0796  0.7649 -2.3862
  340MOL0     H44821  11.112   1.278  11.734  1.2127 -0.3732 -0.7171
  340MOL0     H44822  11.186   1.249  11.585  1.9571 -0.7411  2.1432
  340MOL0     H44823  10.971   1.074  11.713  0.3759 -0.3462  1.3708
  340MOL0     H44824  11.064   1.035  11.560  1.2887  0.5921 -0.1497
  340MOL0     H44825  11.182   0.896  11.710  5.0641 -0.4340  2.7883
  340MOL0     H44826  11.166   1.021  11.833 -2.2958 -2.2637 -0.4665
  340MOL0     H44827  11.383   0.959  11.730 -0.0243 -1.4114 -1.2335
  340MOL0     H44828  11.348   1.140  11.724 -2.5698 -0.1337  0.3683
  340MOL0     H44829  11.285   0.962  11.482  1.0763 -1.5365  2.3593
  340MOL0     H44830  11.345   1.130  11.480  0.5735  1.4962  1.8507
  340MOL0     H44831  11.569   1.059  11.546 -2.0282  0.0095  0.4323
  340MOL0     H44832  11.517   1.033  11.384 -0.8052 -1.9116 -0.1657
  340MOL0     H44833  11.695   0.833  11.645  3.4000 -0.6764 -2.6649
  340MOL0     H44834  11.674   0.479  11.532 -2.1047  1.9633 -1.8857
  340MOL0     H44835  11.596   0.518  11.681  1.1257 -0.1367  1.2518
  340MOL0     H44836  11.767   0.659  11.763  1.7092  2.0758 -0.8116
  340MOL0     H44837  11.862   0.660  11.605 -0.3614  0.2361 -1.2445
  340MOL0     H44838  11.801   0.416  11.787  0.6246  1.4256  2.4831
  340MOL0     H44839  11.895   0.412  11.629 -3.1382 -0.5449 -1.5339
  340MOL0     H44840  12.035   0.430  11.855  3.2289  0.0251 -1.3474
  340MOL0     H44841  11.969   0.596  11.875  1.6577  0.7068 -0.0617
  340MOL0     H44842  12.207   0.558  11.971 -2.4450  2.4023 -1.0008
  340MOL0     H44843  12.461   0.587  12.002 -1.2454  2.9232  1.1174
  340MOL0     H44844  12.869   0.806  11.860  0.2860 -0.9961 -2.5040
  340MOL0     H44845  13.114   0.790  11.887 -3.4314  2.5628 -2.5705
  340MOL0     H44846  13.320   0.724  11.908 -0.6391 -0.5580 -0.0072
  340MOL0     H44847  13.298   0.600  11.783 -1.2100 -1.0728 -0.6111
  340MOL0     H44848  13.466   0.457  11.906  2.0152  0.7466  1.5891
  340MOL0     H44849  13.498   0.589  12.017 -0.6345  1.1946  0.5316
  340MOL0     H44850  13.580   0.730  11.829 -0.4387  0.0773  0.2690
  340MOL0     H44851  13.522   0.605  11.714  0.2811 -4.0333  0.1252
  340MOL0     H44852  13.695   0.437  11.801  3.0762 -1.2040  0.2346
  340MOL0     H44853  13.772   0.578  11.723  1.8457 -3.5432 -0.0238
  340MOL0     H44854  13.750   0.557  12.030 -0.0226  0.5680  0.1919
  340MOL0     H44855  13.817   0.683  11.921  0.0710 -0.5216 -1.7744
  340MOL0     H44856  13.964   0.512  11.822 -0.6300 -0.5467 -0.3745
  340MOL0     H44857  13.885   0.390  11.917 -1.0419  0.1194  2.3038
  340MOL0     H44858  14.120   0.507  11.989 -0.3967 -1.2416 -0.2604
  340MOL0     H44859  14.003   0.615  12.080 -1.2700  0.0102 -1.0367
  340MOL0     H44860  13.878   0.408  12.143 -0.1889 -1.2790 -3.7920
  340MOL0     H44861  14.033   0.452  12.230 -1.0514  1.6086  0.2094
  340MOL0     H44862  13.059   0.392  12.060  0.8480  0.5355  0.5647
  340MOL0     H44863  12.796   0.436  12.047 -4.4014  3.8891 -1.9731
  340MOL0     H44864  12.492   0.727  11.601  1.5660  0.1940  1.9005
  340MOL0     H44865  12.262   0.686  11.565  1.3344 -0.9373  0.1058
  340MOL0     H44866  10.667   1.194  11.397  1.6401  0.7903  0.0907
  340MOL0     H44867  10.423   1.239  11.419  1.0518 -0.6125  1.1747
  340MOL0     H44868  10.153   1.595  11.599  0.9248  2.3156 -1.3496
  340MOL0     H44869   9.919   1.631  11.661  0.5336 -2.2430  0.0511
  340MOL0     H44870   9.628   1.682  11.325  2.0518  1.5682 -2.2005
  340MOL0     H44871   9.674   1.852  11.335 -2.5153  0.5550 -0.3757
  340MOL0     H44872   9.516   1.904  11.492 -1.1689  0.6828 -1.6892
  340MOL0     H44873   9.436   1.838  11.359 -2.1992  2.2797  1.9100
  340MOL0     H44874   9.479   1.694  11.628 -2.2874  2.0311  1.3414
  340MOL0     H44875   9.434   1.613  11.479 -0.7541 -0.3642  1.3399
  340MOL0     H44876   9.288   1.863  11.587  2.6769 -1.0275 -0.1476
  340MOL0     H44877   9.225   1.763  11.455 -0.2267 -1.4648 -0.7335
  340MOL0     H44878   9.060   1.517  11.718 -1.2535  0.1174 -2.6533
  340MOL0     H44879   9.818   1.670  11.236 -0.5524 -0.3275  0.2409
  340MOL0     H44880  10.048   1.614  11.185  1.3806 -0.2753  1.3500
  341MOL0     O44881   5.571   2.500   6.831 -0.1309 -0.0990 -0.8788
  341MOL0     C44882   5.563   2.401   6.757  0.2357  0.6482  0.5939
  341MOL0     O44883   5.477   2.378   6.657 -0.2552 -0.4638  0.0394
  341MOL0     C44884   5.389   2.469   6.602  0.6878 -0.2223 -0.1286
  341MOL0     C44885   5.356   2.596   6.649  0.0222 -0.2504  0.1416
  341MOL0     C44886   5.245   2.659   6.590 -0.0516 -0.6876 -0.8018
  341MOL0     C44887   5.176   2.608   6.476 -0.3089  0.4305 -0.2618
  341MOL0     O44888   5.074   2.672   6.399  0.1322  0.0428  0.5230
  341MOL0     C44889   4.996   2.765   6.477  0.0834  0.5365 -1.2735
  341MOL0     C44890   4.888   2.834   6.389 -0.4256  0.2353  0.4096
  341MOL0     C44891   4.816   2.952   6.438 -0.3666 -0.0528  0.1852
  341MOL0     C44892   4.754   3.034   6.319  0.0420 -1.1593  0.1165
  341MOL0     C44893   4.678   3.162   6.353  0.1516  0.5013  0.8613
  341MOL0     C44894   4.647   3.229   6.222 -0.9805  0.1596 -0.4348
  341MOL0     C44895   4.560   3.355   6.244  0.4293 -0.4611  0.2043
  341MOL0     C44896   4.565   3.450   6.114 -0.4593 -0.5558 -0.1439
  341MOL0     N44897   4.497   3.376   6.012 -0.1426  0.4254 -0.9249
  341MOL0     C44898   4.551   3.303   5.913 -1.1522  1.0017  0.0561
  341MOL0     C44899   4.461   3.280   5.821 -0.2707  0.0703  0.6209
  341MOL0     C44900   4.469   3.191   5.699  0.5340 -0.5214  0.3402
  341MOL0     C44901   4.434   3.276   5.570 -0.4574  0.0878  0.2185
  341MOL0     C44902   4.442   3.198   5.442  0.3388 -0.2474  0.3801
  341MOL0     C44903   4.583   3.132   5.414  0.3995 -0.0685  0.1295
  341MOL0     O44904   4.677   3.240   5.415  0.4383  0.5178  0.0820
  341MOL0     C44905   4.803   3.216   5.372 -0.8642 -0.8929  0.3931
  341MOL0     C44906   4.838   3.120   5.281 -0.1336 -0.2551 -0.5767
  341MOL0     C44907   4.967   3.094   5.258 -0.0763 -0.8327 -0.2257
  341MOL0     C44908   5.073   3.172   5.309  0.0762  0.4277  0.0817
  341MOL0     C44909   5.215   3.123   5.280  0.5748  0.6811 -1.2810
  341MOL0     O44910   5.304   3.194   5.350 -0.8865  0.0402 -0.2499
  341MOL0     C44911   5.441   3.173   5.344 -0.4242 -0.9527 -0.3496
  341MOL0     C44912   5.527   3.277   5.389 -0.5258 -0.4504  0.3234
  341MOL0     C44913   5.664   3.253   5.390 -0.1027 -0.6819  0.2749
  341MOL0     C44914   5.731   3.134   5.349  0.3402 -0.0720 -0.2554
  341MOL0     O44915   5.864   3.133   5.349 -0.2272  0.4014 -0.6021
  341MOL0     C44916   5.922   3.005   5.384 -0.2319 -0.2500  0.4165
  341MOL0     C44917   6.070   3.017   5.365  0.4820 -0.4568  0.3222
  341MOL0     C44918   6.116   2.977   5.224  0.4081  0.5063  0.2243
  341MOL0     C44919   6.265   2.997   5.214 -0.8453 -0.0133  0.2090
  341MOL0     C44920   6.324   2.942   5.077 -0.3677  0.3370 -0.3976
  341MOL0     C44921   6.474   2.958   5.054  0.0682  0.0068 -1.0538
  341MOL0     C44922   6.534   2.876   4.942 -0.3823  0.6839 -0.6914
  341MOL0     C44923   6.587   2.735   4.976 -0.0037  0.6216  0.3992
  341MOL0    Cl44924   6.623   2.656   4.807  0.1917  0.0035  0.1744
  341MOL0     C44925   5.642   3.029   5.318  0.0901 -0.0831  0.2355
  341MOL0     C44926   5.509   3.052   5.314  0.2130 -0.2620  0.4468
  341MOL0     O44927   5.237   3.042   5.196 -0.1192 -0.6503  1.3168
  341MOL0     C44928   5.029   3.276   5.390 -1.0450 -1.4826  0.9762
  341MOL0     C44929   4.896   3.301   5.421 -0.7771  0.0471 -0.0070
  341MOL0     N44930   4.349   3.339   5.866  0.0740 -1.0175  0.8185
  341MOL0     N44931   4.366   3.395   5.977 -0.2467  0.1322 -0.1336
  341MOL0     C44932   5.216   2.484   6.429 -0.4167 -0.0018  0.8230
  341MOL0     C44933   5.325   2.424   6.483 -0.6531  0.3991 -0.1187
  341MOL0     C44934   5.679   2.316   6.787 -0.1224  0.3749  0.1631
  341MOL0     C44935   5.691   2.206   6.704 -0.9452  0.1000  0.3107
  341MOL0     C44936   5.802   2.114   6.716 -1.0318 -0.6307 -0.5883
  341MOL0     C44937   5.892   2.117   6.830  0.0306 -0.5245  0.1316
  341MOL0     O44938   5.987   2.018   6.843 -1.0884  0.1581 -0.6436
  341MOL0     C44939   6.070   2.030   6.960 -0.4977  0.0721  0.9338
  341MOL0     C44940   6.177   1.911   6.969 -0.5136 -0.4458 -0.5093
  341MOL0     C44941   6.115   1.770   6.971 -0.3047  0.3646  0.2596
  341MOL0     C44942   6.220   1.665   7.000 -0.1723 -0.2136 -0.6540
  341MOL0     C44943   6.209   1.545   6.917 -0.6468  0.6857  0.5384
  341MOL0     C44944   6.215   1.438   6.859  0.4220  0.2795 -0.3103
  341MOL0     C44945   5.876   2.232   6.906 -0.3715 -0.7623 -0.9360
  341MOL0     C44946   5.779   2.327   6.884 -0.2271  0.7127  0.3693
  341MOL0     H44947   5.400   2.634   6.741 -0.6643 -0.1738  0.4448
  341MOL0     H44948   5.200   2.750   6.628  1.6206  1.0286 -2.7035
  341MOL0     H44949   5.058   2.843   6.522  0.7364 -0.7622  0.1729
  341MOL0     H44950   4.948   2.709   6.558  1.4050  3.8119  2.0568
  341MOL0     H44951   4.808   2.765   6.363 -1.7886  1.9138 -0.0861
  341MOL0     H44952   4.937   2.864   6.296 -1.7506  1.1567 -0.0180
  341MOL0     H44953   4.886   3.023   6.482 -2.0823  0.1585  2.7998
  341MOL0     H44954   4.740   2.932   6.515 -0.7620  2.3737  0.5072
  341MOL0     H44955   4.834   3.055   6.248 -3.7794  2.2353 -3.8602
  341MOL0     H44956   4.689   2.967   6.262 -0.7720  0.2222 -0.6370
  341MOL0     H44957   4.724   3.227   6.428  1.8411 -0.5925  0.8309
  341MOL0     H44958   4.580   3.133   6.393 -0.7571  2.8884  0.5459
  341MOL0     H44959   4.592   3.161   6.156 -1.3660 -1.8413  1.7822
  341MOL0     H44960   4.742   3.247   6.171  0.2660 -5.0869 -0.5529
  341MOL0     H44961   4.454   3.335   6.257 -0.4286  1.5414 -2.5870
  341MOL0     H44962   4.603   3.411   6.327  3.2968 -0.4596 -1.1520
  341MOL0     H44963   4.665   3.470   6.073 -0.8027 -0.4402 -0.9552
  341MOL0     H44964   4.511   3.543   6.133  0.1355 -0.3708  0.7064
  341MOL0     H44965   4.655   3.272   5.921 -0.9743  1.8673  1.4908
  341MOL0     H44966   4.391   3.115   5.697 -0.4565  0.4397 -2.9613
  341MOL0     H44967   4.567   3.142   5.702 -0.1983 -2.2219 -1.4598
  341MOL0     H44968   4.502   3.361   5.573  0.5123 -0.6799  2.8684
  341MOL0     H44969   4.333   3.315   5.585 -0.4093 -0.0448  0.9127
  341MOL0     H44970   4.365   3.121   5.453  0.4707 -0.4884 -0.2780
  341MOL0     H44971   4.414   3.265   5.360  1.8231 -1.7736 -1.4978
  341MOL0     H44972   4.576   3.085   5.315  2.9906 -0.8896  0.2391
  341MOL0     H44973   4.603   3.052   5.486 -2.0664 -1.0595 -0.2174
  341MOL0     H44974   4.772   3.056   5.224  0.2396 -3.0379  1.8692
  341MOL0     H44975   4.998   3.018   5.187  0.4447 -0.0126 -0.9042
  341MOL0     H44976   5.480   3.369   5.420 -4.5379 -1.8994 -0.8314
  341MOL0     H44977   5.732   3.337   5.405 -2.1433  1.3551 -1.0890
  341MOL0     H44978   5.886   2.935   5.308  0.0554  0.7067 -0.6180
  341MOL0     H44979   5.889   2.970   5.483 -0.6225 -1.5879 -0.1693
  341MOL0     H44980   6.120   2.946   5.432  1.1887 -0.6450 -0.3853
  341MOL0     H44981   6.103   3.119   5.389  0.1527 -0.5397  1.1798
  341MOL0     H44982   6.057   3.038   5.155  1.7825  1.6096 -0.0353
  341MOL0     H44983   6.094   2.872   5.208 -5.0709  1.0089  2.4498
  341MOL0     H44984   6.294   3.102   5.223 -2.1550  0.3790 -0.0165
  341MOL0     H44985   6.295   2.932   5.296  0.4108 -2.3897 -1.9878
  341MOL0     H44986   6.273   2.998   4.999 -0.6991  2.3860  1.2057
  341MOL0     H44987   6.301   2.835   5.068 -1.3883  0.2313  2.2732
  341MOL0     H44988   6.523   2.938   5.150 -2.0363 -0.3286  0.0329
  341MOL0     H44989   6.487   3.066   5.042 -0.6553  0.2739  0.2939
  341MOL0     H44990   6.465   2.858   4.859  0.4998  0.6867 -1.4497
  341MOL0     H44991   6.616   2.932   4.895 -0.9942  1.3420 -0.9862
  341MOL0     H44992   6.512   2.676   5.029  0.5739 -1.4524 -0.9792
  341MOL0     H44993   6.677   2.761   5.032 -0.5528  5.5808 -0.5801
  341MOL0     H44994   5.678   2.929   5.295  1.5508 -0.0309  2.0967
  341MOL0     H44995   5.444   2.967   5.293  1.2189 -0.2615 -3.3674
  341MOL0     H44996   5.104   3.345   5.425 -2.8288 -0.1863  2.4269
  341MOL0     H44997   4.866   3.379   5.491  2.6180  0.8360  0.7921
  341MOL0     H44998   5.171   2.450   6.336 -0.3236 -0.7751  1.0518
  341MOL0     H44999   5.364   2.334   6.437  1.5914  1.5455 -0.5895
  341MOL0     H45000   5.619   2.199   6.624 -1.3197  0.7091  0.5911
  341MOL0     H45001   5.801   2.033   6.644 -0.4429  0.3526 -1.7373
  341MOL0     H45002   6.015   2.033   7.055 -0.4253  1.8366  0.9487
  341MOL0     H45003   6.120   2.128   6.967  1.1060 -0.7395  1.4220
  341MOL0     H45004   6.245   1.917   6.884 -1.2958  0.7264 -1.0830
  341MOL0     H45005   6.226   1.934   7.064 -2.5754 -1.5318  0.9207
  341MOL0     H45006   6.068   1.756   6.873 -0.9554  0.1158  0.6067
  341MOL0     H45007   6.039   1.754   7.048  1.6977 -1.1861  2.0451
  341MOL0     H45008   6.321   1.701   6.982  1.5305 -4.9197 -2.3025
  341MOL0     H45009   6.200   1.627   7.101 -1.9994 -3.6491 -2.1044
  341MOL0     H45010   6.233   1.345   6.809  0.5592  0.5456 -0.7635
  341MOL0     H45011   5.929   2.245   7.000 -0.2932 -0.8347 -0.9692
  341MOL0     H45012   5.758   2.407   6.954 -3.3376 -0.2220  0.6684
  342MOL0     O45013   6.149   2.449   9.254  0.3890 -0.0352 -0.2716
  342MOL0     C45014   6.073   2.393   9.326 -0.3625  0.3998 -1.0689
  342MOL0     O45015   6.075   2.260   9.356  0.0803  0.2418  0.1325
  342MOL0     C45016   6.181   2.187   9.309  0.3523 -0.2696 -0.1903
  342MOL0     C45017   6.263   2.137   9.406 -0.5852  0.1110 -0.0341
  342MOL0     C45018   6.382   2.069   9.374  0.4005 -0.5771  0.7990
  342MOL0     C45019   6.420   2.044   9.245 -0.4426 -1.1589 -0.0157
  342MOL0     O45020   6.540   1.988   9.210  0.2079  0.0939 -0.0578
  342MOL0     C45021   6.656   2.028   9.290  0.1904 -0.4544 -0.8558
  342MOL0     C45022   6.725   2.132   9.198 -0.6295  0.6568 -0.4314
  342MOL0     C45023   6.816   2.215   9.280  0.5228 -0.1574 -0.1451
  342MOL0     C45024   6.888   2.311   9.184  0.3650 -0.2751  1.1185
  342MOL0     C45025   7.015   2.371   9.248  0.2314 -0.2065 -0.3040
  342MOL0     C45026   7.073   2.491   9.173  0.0344 -0.1383 -0.2806
  342MOL0     C45027   7.218   2.509   9.199  0.2063 -0.1207 -0.4684
  342MOL0     C45028   7.250   2.558   9.348 -0.4015  1.1804  0.2597
  342MOL0     N45029   7.350   2.670   9.364  0.8229  0.2048 -0.6595
  342MOL0     C45030   7.444   2.709   9.271  0.5554  0.6697  0.2086
  342MOL0     C45031   7.512   2.813   9.320  0.4995 -0.1730 -0.2968
  342MOL0     C45032   7.627   2.891   9.274  0.4428  0.3803 -0.0280
  342MOL0     C45033   7.575   2.993   9.170  0.0057  0.1743 -0.0417
  342MOL0     C45034   7.676   3.103   9.137 -0.1415  0.6247 -0.6570
  342MOL0     C45035   7.613   3.190   9.032 -0.2074  0.5173  0.3661
  342MOL0     O45036   7.482   3.243   9.062  0.1231  0.4631  0.2719
  342MOL0     C45037   7.458   3.338   9.161 -0.1462  0.6000  0.2527
  342MOL0     C45038   7.327   3.387   9.173 -0.0153 -0.1915  0.2619
  342MOL0     C45039   7.296   3.497   9.251  0.1964 -0.7264 -0.2223
  342MOL0     C45040   7.402   3.565   9.300  0.5095 -0.5576  0.1935
  342MOL0     C45041   7.366   3.691   9.383 -0.3400 -0.0976  0.3713
  342MOL0     O45042   7.240   3.713   9.416 -0.0203 -0.6184 -0.3489
  342MOL0     C45043   7.219   3.834   9.485  0.1543 -0.5609 -0.4281
  342MOL0     C45044   7.147   3.932   9.413 -0.4296  0.2480  0.3524
  342MOL0     C45045   7.102   4.043   9.478  0.4149 -0.2860 -0.1128
  342MOL0     C45046   7.130   4.064   9.611  0.2706 -0.4071 -0.1615
  342MOL0     O45047   7.092   4.174   9.689 -0.2478 -0.0523 -0.0297
  342MOL0     C45048   7.099   4.301   9.615  0.1350  0.0776 -0.4282
  342MOL0     C45049   7.044   4.397   9.721 -0.0066 -0.1135 -0.2156
  342MOL0     C45050   7.026   4.534   9.673 -0.1574 -0.2713 -0.2409
  342MOL0     C45051   6.957   4.625   9.779 -0.2098  0.0745  0.2465
  342MOL0     C45052   6.939   4.773   9.723  0.1532  0.3357 -0.4395
  342MOL0     C45053   6.856   4.841   9.834 -0.0226 -0.0124  0.3435
  342MOL0     C45054   6.812   4.976   9.792 -0.3487 -0.1154  0.1911
  342MOL0     C45055   6.750   5.044   9.915  0.6183  0.9224 -0.1466
  342MOL0    Cl45056   6.867   5.079  10.031 -0.0994 -0.0795 -0.1647
  342MOL0     C45057   7.220   3.977   9.674  0.4362  0.8747 -0.0887
  342MOL0     C45058   7.255   3.850   9.618  0.2815 -0.0773  0.7081
  342MOL0     O45059   7.463   3.770   9.402  0.0197  0.0108 -0.3784
  342MOL0     C45060   7.534   3.518   9.290 -0.0078  0.5996 -0.6009
  342MOL0     C45061   7.559   3.398   9.232 -0.2131  0.4985  0.0327
  342MOL0     N45062   7.458   2.837   9.450  0.0916  0.2689 -0.4299
  342MOL0     N45063   7.356   2.759   9.465 -0.5536  0.2006 -1.2453
  342MOL0     C45064   6.334   2.096   9.144 -0.4621  0.6766  0.0325
  342MOL0     C45065   6.212   2.168   9.174 -0.4901 -0.0700 -0.3553
  342MOL0     C45066   5.970   2.472   9.391 -0.2346 -0.2917 -0.6258
  342MOL0     C45067   5.860   2.410   9.456 -0.7583  0.6594 -0.1658
  342MOL0     C45068   5.758   2.481   9.515 -0.2500  0.0898  1.0108
  342MOL0     C45069   5.770   2.621   9.514 -0.7057 -0.0276  0.3882
  342MOL0     O45070   5.694   2.679   9.616 -0.5985  0.7977  0.5779
  342MOL0     C45071   5.670   2.823   9.615  0.0986 -0.1934 -0.4081
  342MOL0     C45072   5.548   2.859   9.686  0.6085 -0.4568 -0.0661
  342MOL0     C45073   5.567   2.859   9.838 -0.8750 -0.0078  0.0164
  342MOL0     C45074   5.447   2.885   9.912 -0.1811 -0.0228 -0.0978
  342MOL0     C45075   5.389   3.011   9.873  0.3527 -0.6439 -0.7884
  342MOL0     C45076   5.349   3.110   9.822 -0.7218 -0.7787 -1.0974
  342MOL0     C45077   5.875   2.689   9.452 -0.0751  0.0021 -1.1532
  342MOL0     C45078   5.974   2.609   9.396 -0.0705 -0.4747  0.0526
  342MOL0     H45079   6.239   2.151   9.511 -0.3759  0.4828 -0.0333
  342MOL0     H45080   6.438   2.031   9.459  2.5911 -1.2493 -0.8565
  342MOL0     H45081   6.724   1.942   9.290 -1.2438 -1.6265 -1.1180
  342MOL0     H45082   6.630   2.073   9.386 -0.4048  1.9302 -2.0510
  342MOL0     H45083   6.654   2.192   9.140 -3.1853 -0.6633  1.1704
  342MOL0     H45084   6.788   2.081   9.124  0.8709  1.2148  0.4217
  342MOL0     H45085   6.889   2.156   9.336 -1.1825 -0.8381  1.4698
  342MOL0     H45086   6.760   2.277   9.350  0.9662 -2.8713  2.8153
  342MOL0     H45087   6.910   2.266   9.086  1.8477 -1.2525  1.8658
  342MOL0     H45088   6.818   2.394   9.171 -0.9138 -1.2962  1.2901
  342MOL0     H45089   7.089   2.291   9.237 -0.8066 -1.2522  0.1365
  342MOL0     H45090   7.014   2.393   9.355  1.5709  0.4946 -0.4005
  342MOL0     H45091   7.016   2.584   9.183  4.2951  3.4520 -4.1976
  342MOL0     H45092   7.060   2.470   9.066 -2.3527 -0.3704 -0.0055
  342MOL0     H45093   7.262   2.410   9.188 -0.0988 -0.3328  0.2066
  342MOL0     H45094   7.260   2.584   9.130  0.4191  1.3847  1.2166
  342MOL0     H45095   7.285   2.470   9.402  1.1003 -0.4780 -3.1041
  342MOL0     H45096   7.152   2.589   9.385 -0.9481  1.2973 -1.2262
  342MOL0     H45097   7.445   2.671   9.169  0.6756  3.0637 -0.7288
  342MOL0     H45098   7.705   2.826   9.232  0.9277  1.7617 -1.3745
  342MOL0     H45099   7.650   2.956   9.359  0.1481  3.2291 -1.9831
  342MOL0     H45100   7.486   3.031   9.220  0.0009  0.8580 -0.5713
  342MOL0     H45101   7.552   2.930   9.084  0.5300  1.6060 -1.2545
  342MOL0     H45102   7.709   3.142   9.234  0.1921  0.4237 -0.6867
  342MOL0     H45103   7.767   3.064   9.091  1.2532  3.7059 -0.7714
  342MOL0     H45104   7.597   3.137   8.937 -0.8597  2.7298 -0.8346
  342MOL0     H45105   7.680   3.272   9.004 -2.9747  1.8175 -3.3135
  342MOL0     H45106   7.258   3.327   9.115 -2.5365  0.6263  2.2238
  342MOL0     H45107   7.192   3.522   9.270  0.5044  0.0028  0.5453
  342MOL0     H45108   7.124   3.909   9.309  0.4228 -1.5805  0.5338
  342MOL0     H45109   7.034   4.107   9.422 -0.5701 -2.7399 -1.9250
  342MOL0     H45110   7.043   4.294   9.522  0.0357  1.6687 -0.5011
  342MOL0     H45111   7.203   4.336   9.607  1.2874 -1.5962  3.7738
  342MOL0     H45112   7.110   4.406   9.808  0.4904  0.9684 -0.6982
  342MOL0     H45113   6.949   4.358   9.762 -1.3943  3.0753 -0.1125
  342MOL0     H45114   6.973   4.527   9.577 -1.0220  1.9303  0.0302
  342MOL0     H45115   7.125   4.578   9.658 -0.2385  0.2689  0.7194
  342MOL0     H45116   6.866   4.573   9.809  0.8216 -0.2040  3.2702
  342MOL0     H45117   7.016   4.623   9.872 -1.5737  0.3624  1.1415
  342MOL0     H45118   6.884   4.768   9.628 -1.1029 -0.5815  0.3152
  342MOL0     H45119   7.033   4.827   9.704  0.7923 -1.8366 -4.8392
  342MOL0     H45120   6.910   4.841   9.929 -0.0656  1.4795  0.3930
  342MOL0     H45121   6.777   4.773   9.868  0.5724 -2.1638 -2.2383
  342MOL0     H45122   6.897   5.027   9.746  0.2340 -1.9467 -0.8519
  342MOL0     H45123   6.735   4.967   9.715 -1.0410  2.7516  0.4307
  342MOL0     H45124   6.657   4.997   9.948  0.8135 -1.2048 -2.2980
  342MOL0     H45125   6.712   5.139   9.879 -2.2205  0.4894  1.4241
  342MOL0     H45126   7.241   4.012   9.774 -3.3270  2.6229  0.2426
  342MOL0     H45127   7.312   3.782   9.681 -0.0165 -0.1110  0.9471
  342MOL0     H45128   7.609   3.580   9.339 -0.9448  0.5731  0.9202
  342MOL0     H45129   7.661   3.363   9.220 -0.1815  1.1399 -2.2017
  342MOL0     H45130   6.352   2.074   9.039  0.2203  3.6584 -0.5465
  342MOL0     H45131   6.155   2.216   9.095  1.3089  0.8518 -1.1555
  342MOL0     H45132   5.851   2.302   9.451 -0.6768  0.6143  0.5745
  342MOL0     H45133   5.669   2.442   9.563 -3.5360  2.1112 -2.8124
  342MOL0     H45134   5.674   2.870   9.516 -1.2264 -1.0687 -0.9096
  342MOL0     H45135   5.751   2.869   9.673 -0.5844  1.1431 -0.4578
  342MOL0     H45136   5.520   2.957   9.647 -1.0443 -0.2075  1.5840
  342MOL0     H45137   5.463   2.792   9.668 -1.0262  1.9950 -2.1272
  342MOL0     H45138   5.638   2.940   9.860  0.6014 -1.1305 -0.4865
  342MOL0     H45139   5.601   2.763   9.878 -1.1018  1.3695  3.9286
  342MOL0     H45140   5.369   2.809   9.898  1.7202 -2.1664  0.3229
  342MOL0     H45141   5.459   2.874  10.020 -1.3570 -0.3690  0.0191
  342MOL0     H45142   5.326   3.208   9.787  2.5698  0.4312 -0.2238
  342MOL0     H45143   5.875   2.797   9.459 -1.1298 -0.0549  0.1598
  342MOL0     H45144   6.052   2.664   9.345  0.7909 -1.5724  0.1488
  343MOL0     O45145  10.987   1.524   8.022  0.9279  1.0101 -0.0853
  343MOL0     C45146  11.077   1.449   7.981  0.9054 -0.9172  0.3037
  343MOL0     O45147  11.068   1.309   7.976  0.6615 -0.2933  0.2984
  343MOL0     C45148  10.938   1.260   7.994 -0.0887 -0.0623  0.1501
  343MOL0     C45149  10.902   1.216   8.125 -0.0551  0.6637 -0.5342
  343MOL0     C45150  10.780   1.152   8.137  0.5634 -0.1556 -0.1417
  343MOL0     C45151  10.695   1.134   8.032  0.1819 -0.0095 -0.4725
  343MOL0     O45152  10.591   1.057   8.067 -1.1369 -0.1279 -0.3328
  343MOL0     C45153  10.508   1.026   7.960 -0.1629  1.2273 -0.2341
  343MOL0     C45154  10.387   0.953   8.010 -0.3031 -0.6720  0.4707
  343MOL0     C45155  10.308   1.026   8.126 -0.6434  0.3276 -0.0594
  343MOL0     C45156  10.185   0.933   8.161  0.2783  0.1548 -0.2389
  343MOL0     C45157  10.104   1.001   8.276 -0.1032 -0.6418 -0.2523
  343MOL0     C45158   9.983   0.915   8.316 -0.5402 -1.0330  0.4815
  343MOL0     C45159   9.911   0.998   8.426  0.0399  0.3793 -0.3896
  343MOL0     C45160   9.761   0.953   8.450 -0.0858 -0.3125 -0.4498
  343MOL0     N45161   9.658   1.041   8.514 -0.2904 -0.5925  0.6099
  343MOL0     C45162   9.525   1.046   8.483  0.7032  0.0806  0.7855
  343MOL0     C45163   9.478   1.157   8.549 -0.2972 -0.6571  0.3352
  343MOL0     C45164   9.339   1.214   8.569  1.1572 -0.4130 -1.2366
  343MOL0     C45165   9.273   1.170   8.709  0.1919 -0.0704  0.4613
  343MOL0     C45166   9.316   1.245   8.836  0.3057 -0.9620 -0.8550
  343MOL0     C45167   9.273   1.390   8.839 -0.2124  0.2461  0.6417
  343MOL0     O45168   9.317   1.466   8.949 -0.6350 -0.5910 -0.0009
  343MOL0     C45169   9.443   1.522   8.941 -0.7478  1.0042 -0.0515
  343MOL0     C45170   9.483   1.608   9.045 -0.0068  0.2985  0.2784
  343MOL0     C45171   9.599   1.691   9.028  0.6207  0.0713 -0.4060
  343MOL0     C45172   9.691   1.664   8.925  0.5275  0.0084 -0.1869
  343MOL0     C45173   9.819   1.741   8.913  0.1746  0.3135 -0.1724
  343MOL0     O45174   9.899   1.715   8.807  0.6130  0.0871  0.7857
  343MOL0     C45175   9.994   1.807   8.777 -0.0262  0.1225  0.2454
  343MOL0     C45176  10.131   1.775   8.769  0.1666 -0.5955  0.8912
  343MOL0     C45177  10.225   1.877   8.745  0.1880  0.3751  0.0403
  343MOL0     C45178  10.188   2.017   8.738  0.2426  0.1406 -0.2665
  343MOL0     O45179  10.305   2.091   8.719  0.2290 -0.8474 -0.1729
  343MOL0     C45180  10.290   2.230   8.691 -0.0286  1.2278 -0.0804
  343MOL0     C45181  10.395   2.303   8.776  0.4006  0.0906  0.1354
  343MOL0     C45182  10.346   2.442   8.799  0.8005  0.8242  0.7589
  343MOL0     C45183  10.430   2.510   8.908 -0.4096 -0.1574 -0.1504
  343MOL0     C45184  10.358   2.635   8.974 -0.6597  0.9953 -0.0225
  343MOL0     C45185  10.340   2.755   8.888 -0.9225 -0.3510  0.6955
  343MOL0     C45186  10.465   2.846   8.896  0.1038 -0.5619 -0.4873
  343MOL0     C45187  10.522   2.875   8.760  0.7323 -0.9898 -0.6176
  343MOL0    Cl45188  10.412   2.972   8.658  0.2065  0.4462 -0.5042
  343MOL0     C45189  10.052   2.042   8.741 -0.6531 -0.2153  0.5836
  343MOL0     C45190   9.960   1.946   8.757  0.8675 -0.7630  0.1393
  343MOL0     O45191   9.845   1.815   9.007  0.0197  0.7421  0.0999
  343MOL0     C45192   9.662   1.570   8.836  0.4372 -0.2515  0.1432
  343MOL0     C45193   9.538   1.503   8.841  0.4356  0.5249 -0.8775
  343MOL0     N45194   9.587   1.214   8.623  0.2938  0.4142  1.1979
  343MOL0     N45195   9.692   1.147   8.598  0.2272  0.4598  0.2841
  343MOL0     C45196  10.741   1.169   7.899 -0.3508  1.1003  0.3575
  343MOL0     C45197  10.857   1.245   7.881 -0.0853 -0.5187  0.4399
  343MOL0     C45198  11.188   1.515   7.916 -0.8129  0.4961  0.4922
  343MOL0     C45199  11.283   1.427   7.851 -0.8033 -0.9959  0.3602
  343MOL0     C45200  11.395   1.475   7.786  0.0263 -0.4263  0.8242
  343MOL0     C45201  11.424   1.608   7.773  0.1030 -0.0957 -0.1316
  343MOL0     O45202  11.537   1.639   7.709  0.0650  0.6633  0.5142
  343MOL0     C45203  11.543   1.767   7.653 -0.2850  0.8017  0.8977
  343MOL0     C45204  11.649   1.755   7.541 -0.0901 -0.2148  0.4358
  343MOL0     C45205  11.796   1.764   7.601 -0.2402  0.2814  0.7175
  343MOL0     C45206  11.901   1.805   7.492 -0.1287 -0.6403  0.9813
  343MOL0     C45207  12.023   1.834   7.563  0.0589 -1.0035  0.1246
  343MOL0     C45208  12.117   1.856   7.637 -0.0900 -0.4820 -0.3371
  343MOL0     C45209  11.335   1.700   7.848 -0.2868  0.2388 -0.4489
  343MOL0     C45210  11.218   1.652   7.914 -1.0358  0.6799 -1.2544
  343MOL0     H45211  10.965   1.232   8.212  0.7896 -1.0753 -0.7840
  343MOL0     H45212  10.759   1.114   8.237  3.6042  0.7514  0.9558
  343MOL0     H45213  10.541   0.959   7.880 -4.6365  0.1221 -1.4983
  343MOL0     H45214  10.481   1.121   7.912 -0.4082  1.9860  1.3434
  343MOL0     H45215  10.419   0.850   8.026  0.9692 -0.4433 -0.4369
  343MOL0     H45216  10.320   0.944   7.924  0.8815 -1.8103 -0.3648
  343MOL0     H45217  10.281   1.127   8.094  1.1252  0.0449 -2.8881
  343MOL0     H45218  10.366   1.024   8.218 -1.7778 -2.3771  0.6931
  343MOL0     H45219  10.126   0.941   8.069  0.6384  1.7463 -0.3658
  343MOL0     H45220  10.226   0.836   8.189  2.1396  0.7423 -0.7603
  343MOL0     H45221  10.073   1.100   8.243  1.6584  0.2966  0.7846
  343MOL0     H45222  10.170   1.017   8.362 -1.7619  0.3310  0.8802
  343MOL0     H45223   9.998   0.811   8.347 -1.6831 -0.9354  1.4512
  343MOL0     H45224   9.919   0.922   8.228  0.2290  1.2657  0.0370
  343MOL0     H45225   9.964   0.981   8.521  3.4147 -2.1244 -2.4699
  343MOL0     H45226   9.900   1.105   8.405 -0.6672  0.0248 -1.9287
  343MOL0     H45227   9.763   0.865   8.515  0.7202 -0.9563 -1.3243
  343MOL0     H45228   9.713   0.923   8.356 -1.0380 -1.5705  0.3937
  343MOL0     H45229   9.471   0.975   8.422  0.7197 -0.5383  1.4751
  343MOL0     H45230   9.267   1.182   8.493 -1.3819  0.6155  0.5861
  343MOL0     H45231   9.363   1.320   8.558  0.2043  0.0023  0.4457
  343MOL0     H45232   9.303   1.067   8.731  1.8623  0.5608  1.2963
  343MOL0     H45233   9.166   1.184   8.688  0.4144 -0.0647 -0.7495
  343MOL0     H45234   9.279   1.191   8.923 -0.2525  1.0737  0.2256
  343MOL0     H45235   9.425   1.248   8.849  0.1966  4.0523  0.9079
  343MOL0     H45236   9.165   1.376   8.835 -0.1752  0.0742  0.1732
  343MOL0     H45237   9.300   1.435   8.743 -2.4452  0.3549  0.0136
  343MOL0     H45238   9.422   1.615   9.134  1.5715 -1.4996  1.5901
  343MOL0     H45239   9.625   1.763   9.106  2.1964  2.5081 -2.9692
  343MOL0     H45240  10.164   1.673   8.783  1.3460 -0.2067  1.0350
  343MOL0     H45241  10.325   1.837   8.729 -0.2685 -0.6703 -0.3144
  343MOL0     H45242  10.188   2.268   8.705 -0.5465 -0.2362  0.2996
  343MOL0     H45243  10.317   2.241   8.585  0.0336 -1.9956 -0.5013
  343MOL0     H45244  10.495   2.303   8.733 -0.7698  0.7845 -2.8442
  343MOL0     H45245  10.405   2.244   8.868  1.3415 -1.8170 -1.1340
  343MOL0     H45246  10.242   2.434   8.831 -0.2317  1.9004 -2.0512
  343MOL0     H45247  10.339   2.497   8.705  2.2758  0.4575  0.4099
  343MOL0     H45248  10.461   2.434   8.980  0.8273  0.4183 -0.0473
  343MOL0     H45249  10.526   2.529   8.859  0.0512 -1.9745 -0.0199
  343MOL0     H45250  10.422   2.663   9.059  0.0073 -2.1200  0.6277
  343MOL0     H45251  10.267   2.591   9.015  0.1211 -2.6992 -1.9079
  343MOL0     H45252  10.260   2.821   8.923 -1.7507 -1.2448  0.5282
  343MOL0     H45253  10.303   2.720   8.791  0.2296 -1.7367  0.7327
  343MOL0     H45254  10.440   2.937   8.952  1.8379 -0.2881 -0.0897
  343MOL0     H45255  10.546   2.802   8.955  2.4004  2.4082 -1.1471
  343MOL0     H45256  10.554   2.779   8.718 -1.8350 -1.8149 -0.8901
  343MOL0     H45257  10.612   2.937   8.768 -1.7637  2.9445 -0.2219
  343MOL0     H45258  10.013   2.142   8.728 -0.0911 -0.0310  0.2918
  343MOL0     H45259   9.855   1.974   8.752  1.0949 -0.1556 -2.2601
  343MOL0     H45260   9.728   1.547   8.753  0.8363  0.1373  0.3427
  343MOL0     H45261   9.531   1.437   8.755  0.9621 -2.0199  0.9227
  343MOL0     H45262  10.682   1.138   7.813  1.3850  2.7570 -1.5271
  343MOL0     H45263  10.897   1.249   7.780 -2.9454  0.9661 -0.7589
  343MOL0     H45264  11.269   1.320   7.857  1.3709 -1.3308  0.1511
  343MOL0     H45265  11.459   1.402   7.738 -0.7378 -0.9783  0.6256
  343MOL0     H45266  11.573   1.835   7.734  1.0103  0.2200  0.9206
  343MOL0     H45267  11.447   1.798   7.610 -0.5228  0.0338  0.8733
  343MOL0     H45268  11.630   1.662   7.486  0.5438  1.6708 -3.2246
  343MOL0     H45269  11.632   1.832   7.466 -2.2736 -0.4194  0.6437
  343MOL0     H45270  11.832   1.675   7.654  2.7062  1.4940  0.9668
  343MOL0     H45271  11.793   1.840   7.680  0.9433 -0.7914  1.8576
  343MOL0     H45272  11.924   1.727   7.419  0.0999  1.6764 -1.5452
  343MOL0     H45273  11.863   1.894   7.442 -1.7503 -1.9623 -0.2625
  343MOL0     H45274  12.200   1.887   7.698  0.3388 -0.5319 -0.8916
  343MOL0     H45275  11.359   1.803   7.826 -0.6381  0.2925 -0.5796
  343MOL0     H45276  11.152   1.710   7.978 -0.1427  0.0352  0.3264
  344MOL0     O45277   4.966   4.005   3.761  0.5291  0.4058 -0.1507
  344MOL0     C45278   4.963   3.880   3.770 -0.1369  0.2103 -0.4598
  344MOL0     O45279   4.848   3.815   3.815  0.4419 -0.5864  0.1952
  344MOL0     C45280   4.729   3.889   3.823 -0.3354 -0.7784  0.3371
  344MOL0     C45281   4.698   3.941   3.953 -1.2375  1.3164  0.1061
  344MOL0     C45282   4.581   4.007   3.975 -0.0768 -1.0781 -0.5717
  344MOL0     C45283   4.484   4.019   3.876  0.3901 -0.0966 -0.1154
  344MOL0     O45284   4.368   4.091   3.900 -0.0595  0.2165  0.2694
  344MOL0     C45285   4.323   4.100   4.040  0.9534  0.3565 -0.6789
  344MOL0     C45286   4.183   4.164   4.044 -0.1387 -0.5473 -0.2805
  344MOL0     C45287   4.124   4.202   4.187 -1.4608  0.2372 -1.3741
  344MOL0     C45288   3.993   4.265   4.167  0.5652 -0.2099  0.6838
  344MOL0     C45289   3.910   4.258   4.295  0.3355  0.0269  0.3423
  344MOL0     C45290   3.757   4.288   4.270  0.0778 -0.7899  0.8349
  344MOL0     C45291   3.732   4.415   4.187 -0.4172  0.6709  0.2764
  344MOL0     C45292   3.582   4.454   4.171  0.8666  0.4620 -0.3814
  344MOL0     N45293   3.510   4.493   4.296  0.2326 -0.1157  0.2142
  344MOL0     C45294   3.469   4.621   4.320 -0.4294 -0.6585  0.1148
  344MOL0     C45295   3.444   4.626   4.452 -0.1620  0.2657 -0.8419
  344MOL0     C45296   3.383   4.730   4.537  0.2674 -0.3849  0.0403
  344MOL0     C45297   3.247   4.780   4.498 -0.0215 -0.6680  0.6268
  344MOL0     C45298   3.130   4.716   4.583  0.7702  0.1372 -0.2563
  344MOL0     C45299   3.114   4.565   4.560 -0.2074 -0.5217  0.4609
  344MOL0     O45300   3.024   4.540   4.448  1.0156 -0.4122 -0.3366
  344MOL0     C45301   3.010   4.406   4.438  0.0819  0.3112 -0.3317
  344MOL0     C45302   2.931   4.332   4.531  0.2219  0.2106  0.0292
  344MOL0     C45303   2.910   4.196   4.506  0.5043  0.4033 -0.0399
  344MOL0     C45304   2.950   4.133   4.387  0.5659 -0.4630  0.1757
  344MOL0     C45305   2.918   3.989   4.350  0.2179 -1.0329  0.5062
  344MOL0     O45306   2.948   3.956   4.222 -0.0968  1.2383  0.5298
  344MOL0     C45307   2.903   3.832   4.175 -0.4732  0.5321 -0.1355
  344MOL0     C45308   2.794   3.830   4.085 -0.3894  0.3405  0.0372
  344MOL0     C45309   2.767   3.715   4.009 -0.4244 -1.2267  0.1528
  344MOL0     C45310   2.848   3.601   4.026  0.1429  0.2666  0.4283
  344MOL0     O45311   2.829   3.488   3.950  0.1997 -0.1018 -1.0877
  344MOL0     C45312   2.775   3.378   4.021 -0.1374  0.0956  0.0155
  344MOL0     C45313   2.624   3.392   4.012  0.8654 -0.0623 -0.5739
  344MOL0     C45314   2.565   3.355   3.879 -0.0117 -0.1013 -0.0298
  344MOL0     C45315   2.419   3.314   3.892  1.4781  0.1929 -0.1495
  344MOL0     C45316   2.335   3.419   3.954 -0.7944  0.1908 -0.5895
  344MOL0     C45317   2.212   3.355   4.021 -0.6391 -0.1818 -0.9211
  344MOL0     C45318   2.102   3.453   4.077  0.9045 -0.5868 -0.4591
  344MOL0     C45319   2.026   3.410   4.206  0.7452 -1.0428  0.2164
  344MOL0    Cl45320   1.925   3.552   4.260  0.1181 -0.0359 -0.0219
  344MOL0     C45321   2.952   3.601   4.124  0.2257  0.7568 -0.1132
  344MOL0     C45322   2.973   3.710   4.208 -0.9055 -0.4570 -0.3712
  344MOL0     O45323   2.863   3.913   4.428 -0.4036 -0.6371 -0.6331
  344MOL0     C45324   3.030   4.206   4.297 -0.0888 -0.3990 -0.6679
  344MOL0     C45325   3.061   4.339   4.326 -0.2793  0.7449  1.6667
  344MOL0     N45326   3.470   4.501   4.504  0.6703  0.3269  0.3093
  344MOL0     N45327   3.512   4.424   4.412  0.2244  0.1274 -0.0343
  344MOL0     C45328   4.514   3.964   3.754  0.7292  0.3665 -0.7640
  344MOL0     C45329   4.634   3.908   3.725 -0.1637  1.0689 -0.8456
  344MOL0     C45330   5.095   3.805   3.743 -0.4550  0.8472  0.7823
  344MOL0     C45331   5.223   3.866   3.729  0.7106 -0.4730  0.2006
  344MOL0     C45332   5.335   3.797   3.704 -0.3277  0.6730 -0.3196
  344MOL0     C45333   5.330   3.662   3.676  0.4206 -0.0028 -1.2650
  344MOL0     O45334   5.430   3.573   3.630  0.2572 -0.2906 -0.1257
  344MOL0     C45335   5.563   3.617   3.616 -0.6376 -0.8809  0.4572
  344MOL0     C45336   5.598   3.680   3.482  0.4676  0.0362  0.1912
  344MOL0     C45337   5.744   3.723   3.475 -0.8414 -0.6258  1.0415
  344MOL0     C45338   5.764   3.837   3.376  0.1823  0.6740  0.1481
  344MOL0     C45339   5.726   3.801   3.236  0.4571  1.2593 -0.9741
  344MOL0     C45340   5.683   3.776   3.130  0.7896  0.3331  0.3261
  344MOL0     C45341   5.208   3.604   3.688  1.1584 -1.0735  0.3954
  344MOL0     C45342   5.086   3.669   3.720  0.0809 -0.4264  0.6997
  344MOL0     H45343   4.756   3.908   4.039  0.8394 -1.2171 -2.0903
  344MOL0     H45344   4.562   4.042   4.076  0.4340  3.6134 -1.8621
  344MOL0     H45345   4.396   4.162   4.093 -2.1958  1.9982  2.1826
  344MOL0     H45346   4.310   4.000   4.083 -0.8297  0.0653 -1.7897
  344MOL0     H45347   4.109   4.102   3.993  1.0307 -2.0398 -0.2438
  344MOL0     H45348   4.195   4.249   3.977  2.7377 -0.9807 -0.4610
  344MOL0     H45349   4.201   4.265   4.231  0.6731  0.1427 -4.6672
  344MOL0     H45350   4.118   4.119   4.258 -0.2846  0.9259 -0.4242
  344MOL0     H45351   4.009   4.366   4.127  2.8694 -0.3983  1.0040
  344MOL0     H45352   3.945   4.204   4.090  0.6154 -1.5102  1.6474
  344MOL0     H45353   3.942   4.343   4.356  0.4003 -0.2457  0.6923
  344MOL0     H45354   3.917   4.165   4.352  1.4821 -0.3912 -0.4626
  344MOL0     H45355   3.714   4.302   4.370 -1.3514  3.2242 -0.1532
  344MOL0     H45356   3.709   4.206   4.215 -1.3753  0.8559 -0.4566
  344MOL0     H45357   3.788   4.502   4.221  1.5401  0.1122 -1.3583
  344MOL0     H45358   3.755   4.398   4.081 -0.0517  4.0554 -0.2782
  344MOL0     H45359   3.525   4.380   4.115 -0.9868  2.1867 -0.8943
  344MOL0     H45360   3.582   4.543   4.108  1.5302  0.4259 -0.4354
  344MOL0     H45361   3.458   4.701   4.247 -4.0636 -0.8444  0.2465
  344MOL0     H45362   3.439   4.821   4.564 -2.1842  1.5603 -1.0423
  344MOL0     H45363   3.371   4.680   4.633 -1.7997  0.0626  0.0556
  344MOL0     H45364   3.237   4.763   4.391  0.1460  1.6205  0.2024
  344MOL0     H45365   3.241   4.888   4.512  1.3009 -0.2891 -1.3424
  344MOL0     H45366   3.162   4.736   4.686  0.8458  1.2580 -0.4954
  344MOL0     H45367   3.038   4.772   4.565  0.9034  0.4929  0.1715
  344MOL0     H45368   3.082   4.508   4.648 -0.7182  0.8200  1.1626
  344MOL0     H45369   3.214   4.525   4.539  0.5420  1.0207  0.9137
  344MOL0     H45370   2.877   4.375   4.615  0.0353 -0.9150  0.5077
  344MOL0     H45371   2.845   4.134   4.566  0.7381 -1.9120 -2.0094
  344MOL0     H45372   2.738   3.917   4.055  0.1214  0.7671  0.3093
  344MOL0     H45373   2.687   3.715   3.935  0.0365  1.6410 -0.4908
  344MOL0     H45374   2.808   3.358   4.123 -2.0220  1.6843  0.9859
  344MOL0     H45375   2.802   3.289   3.963 -1.3906 -0.6072  0.4723
  344MOL0     H45376   2.603   3.496   4.041  0.5140 -0.5446  0.9757
  344MOL0     H45377   2.577   3.331   4.089  0.0259  0.1922 -0.8733
  344MOL0     H45378   2.627   3.268   3.855  1.2369  0.5812  0.6223
  344MOL0     H45379   2.571   3.435   3.804 -2.2157  1.0165  0.9106
  344MOL0     H45380   2.367   3.295   3.798  2.4254 -1.1555 -0.4168
  344MOL0     H45381   2.415   3.227   3.958 -3.9659  0.4738  0.3640
  344MOL0     H45382   2.309   3.491   3.876  1.0403  0.7673 -0.7239
  344MOL0     H45383   2.383   3.472   4.038 -1.5898 -2.7213  1.8751
  344MOL0     H45384   2.236   3.289   4.105  0.1193  0.4349 -0.6383
  344MOL0     H45385   2.175   3.286   3.945 -0.5501 -0.6886 -0.5130
  344MOL0     H45386   2.156   3.546   4.093 -1.9980  1.3867 -1.2741
  344MOL0     H45387   2.032   3.476   3.996  1.8424 -0.3522 -1.2161
  344MOL0     H45388   2.098   3.395   4.287  0.0060  0.3736  1.1786
  344MOL0     H45389   1.969   3.318   4.189 -0.4883 -0.6913  2.2156
  344MOL0     H45390   3.012   3.511   4.121 -0.8376  0.0310 -2.8252
  344MOL0     H45391   3.055   3.706   4.279 -0.4282 -2.9069 -0.9695
  344MOL0     H45392   3.066   4.167   4.203  3.4797  1.3477 -0.1713
  344MOL0     H45393   3.131   4.388   4.258 -0.4837 -0.4229  0.5781
  344MOL0     H45394   4.436   3.962   3.678  1.5156  0.4263 -1.5970
  344MOL0     H45395   4.654   3.869   3.625  0.6497 -1.0984  0.0964
  344MOL0     H45396   5.230   3.973   3.742 -1.6948 -0.0854 -1.1124
  344MOL0     H45397   5.431   3.845   3.685 -0.2960  0.3772 -0.9451
  344MOL0     H45398   5.620   3.526   3.632 -1.4763 -2.0642 -2.5200
  344MOL0     H45399   5.586   3.691   3.693  1.7132  1.5837 -2.3549
  344MOL0     H45400   5.580   3.607   3.403 -0.7897  0.2093  0.2966
  344MOL0     H45401   5.516   3.751   3.467 -3.3211 -3.5033  1.9565
  344MOL0     H45402   5.805   3.636   3.449  0.8444  0.5150  1.0123
  344MOL0     H45403   5.779   3.766   3.569 -2.0407  1.2131  0.6893
  344MOL0     H45404   5.714   3.925   3.418 -0.3202  1.1728 -1.4303
  344MOL0     H45405   5.871   3.853   3.362  0.4294  0.2675  1.4250
  344MOL0     H45406   5.650   3.763   3.029 -1.3422  2.1820  0.6953
  344MOL0     H45407   5.196   3.497   3.684  4.0131 -1.4411 -0.1952
  344MOL0     H45408   4.991   3.620   3.736 -1.4250  1.9341 -0.3648
  345MOL0     O45409   4.482   6.066   3.811  0.1791  0.0436  0.7366
  345MOL0     C45410   4.395   6.042   3.726 -0.3720  0.4710 -0.0981
  345MOL0     O45411   4.412   5.972   3.608 -0.0086 -0.5534 -0.8815
  345MOL0     C45412   4.538   5.946   3.555  0.2194  0.3177  0.6409
  345MOL0     C45413   4.657   5.927   3.630 -0.5945 -0.5684  0.0212
  345MOL0     C45414   4.786   5.921   3.571  0.3512 -0.5419  0.5035
  345MOL0     C45415   4.794   5.920   3.429 -0.5742 -0.2911 -0.0927
  345MOL0     O45416   4.927   5.918   3.382  0.2446 -0.3373 -0.8628
  345MOL0     C45417   4.958   5.856   3.263 -0.5996  0.4331 -0.7478
  345MOL0     C45418   5.089   5.913   3.217  0.8864  0.5447  1.0508
  345MOL0     C45419   5.119   5.843   3.082  1.3562 -0.1445  0.5206
  345MOL0     C45420   5.262   5.877   3.041 -0.2565 -0.6037  0.3072
  345MOL0     C45421   5.291   5.842   2.899 -0.5533 -0.5403  0.2309
  345MOL0     C45422   5.434   5.899   2.867 -0.6263 -0.2253 -0.1953
  345MOL0     C45423   5.542   5.812   2.927  0.6667 -0.0092 -0.8162
  345MOL0     C45424   5.673   5.828   2.842 -0.1542 -0.2517 -0.4750
  345MOL0     N45425   5.730   5.962   2.864 -0.4234 -0.6597  0.5686
  345MOL0     C45426   5.838   5.992   2.937 -0.6666 -1.3664 -0.0359
  345MOL0     C45427   5.857   6.125   2.921  0.3163  0.4647 -0.0415
  345MOL0     C45428   5.960   6.216   2.996  0.4046 -0.0239  0.5267
  345MOL0     C45429   5.955   6.175   3.142 -0.1269 -0.7577 -0.7266
  345MOL0     C45430   5.851   6.247   3.223 -0.2342  0.0737  0.3768
  345MOL0     C45431   5.850   6.205   3.373  0.4050 -0.0194  0.7886
  345MOL0     O45432   5.973   6.237   3.426 -0.2906 -0.8078 -0.0401
  345MOL0     C45433   5.991   6.283   3.548 -0.2588 -0.1596 -0.2826
  345MOL0     C45434   6.117   6.332   3.574  0.3329 -0.2700 -0.2263
  345MOL0     C45435   6.139   6.385   3.698  0.0066  0.5869  0.8654
  345MOL0     C45436   6.063   6.383   3.807 -0.4198  0.3744  0.4446
  345MOL0     C45437   6.125   6.439   3.929 -0.3482  0.5248 -0.6124
  345MOL0     O45438   6.261   6.438   3.939 -0.7192 -0.1974  0.2106
  345MOL0     C45439   6.338   6.467   4.052  0.1152  0.5670  0.5189
  345MOL0     C45440   6.297   6.494   4.185  1.2743 -0.3394 -0.1156
  345MOL0     C45441   6.388   6.512   4.288 -0.7178  0.5136  0.3617
  345MOL0     C45442   6.522   6.486   4.266  0.2140 -0.9366 -0.5828
  345MOL0     O45443   6.594   6.492   4.392  0.1810 -0.1198  0.6588
  345MOL0     C45444   6.724   6.433   4.384  0.3250 -0.8256  1.0892
  345MOL0     C45445   6.783   6.415   4.517  0.5024  0.6025 -0.1650
  345MOL0     C45446   6.890   6.301   4.543 -0.6531  1.2617  0.4367
  345MOL0     C45447   6.955   6.318   4.681 -0.2354 -1.0091 -0.4763
  345MOL0     C45448   7.053   6.210   4.710  0.1834  0.1680  1.7085
  345MOL0     C45449   7.190   6.225   4.642  0.3635  0.0035 -0.2013
  345MOL0     C45450   7.294   6.131   4.695 -0.1790 -0.2478  0.0278
  345MOL0     C45451   7.269   5.977   4.688  0.2875 -0.4536  0.4097
  345MOL0    Cl45452   7.257   5.931   4.509 -0.2821  0.2607 -0.5394
  345MOL0     C45453   6.563   6.446   4.136  0.3325  0.0942 -0.4928
  345MOL0     C45454   6.468   6.442   4.032 -0.7170  0.5511  0.0183
  345MOL0     O45455   6.038   6.479   4.015  0.9533 -0.4823  0.3808
  345MOL0     C45456   5.938   6.317   3.781 -0.2054 -0.3192  0.1030
  345MOL0     C45457   5.896   6.274   3.652  0.8915 -0.0975 -0.2995
  345MOL0     N45458   5.770   6.169   2.827 -0.6701 -0.8421 -0.7087
  345MOL0     N45459   5.698   6.075   2.797  0.2217 -1.0309  0.7290
  345MOL0     C45460   4.678   5.932   3.351 -0.3324 -0.6084  0.8450
  345MOL0     C45461   4.555   5.950   3.414  0.1532 -0.1757 -0.2138
  345MOL0     C45462   4.268   6.079   3.765  0.2404  0.2828  0.5278
  345MOL0     C45463   4.255   6.196   3.842 -0.3964  0.7531 -0.5407
  345MOL0     C45464   4.131   6.230   3.896  0.2822 -0.5674  0.3260
  345MOL0     C45465   4.015   6.150   3.847  0.2186 -0.4758  0.7342
  345MOL0     O45466   3.892   6.181   3.887 -0.3742  0.1214  0.6612
  345MOL0     C45467   3.866   6.290   3.971  0.2489 -0.4518 -0.4258
  345MOL0     C45468   3.728   6.311   4.008 -0.5773 -0.2792  0.8439
  345MOL0     C45469   3.652   6.206   4.080 -0.6239  0.4935  0.9764
  345MOL0     C45470   3.706   6.170   4.227  0.1727  0.3618 -0.4530
  345MOL0     C45471   3.643   6.270   4.315  0.1273  0.6594  0.3544
  345MOL0     C45472   3.591   6.361   4.371 -0.8014  0.3612 -0.0793
  345MOL0     C45473   4.025   6.038   3.765 -0.3013  0.4309 -0.1892
  345MOL0     C45474   4.158   6.003   3.728  0.6161  0.5772  0.4849
  345MOL0     H45475   4.652   5.918   3.738  0.5469  2.4342  0.4272
  345MOL0     H45476   4.864   5.908   3.645 -2.1938  0.1927  3.5644
  345MOL0     H45477   4.896   5.879   3.176  3.6785 -0.2914 -4.3776
  345MOL0     H45478   4.956   5.748   3.279 -1.4199  0.7013  1.2494
  345MOL0     H45479   5.163   5.893   3.295  2.7291  1.1378 -0.4587
  345MOL0     H45480   5.082   6.021   3.201 -3.1391  0.2536 -0.2463
  345MOL0     H45481   5.050   5.882   3.007  0.7737 -3.4067 -0.8150
  345MOL0     H45482   5.104   5.735   3.087 -0.9104  0.0079 -1.2011
  345MOL0     H45483   5.269   5.986   3.042  1.9424 -0.6202 -2.2566
  345MOL0     H45484   5.334   5.833   3.110 -1.7360  1.8311  3.6642
  345MOL0     H45485   5.219   5.890   2.832 -1.6279 -2.7824 -0.3083
  345MOL0     H45486   5.278   5.737   2.872 -0.7978  0.2426 -3.1876
  345MOL0     H45487   5.442   5.996   2.917 -1.3691 -0.8998  1.3113
  345MOL0     H45488   5.449   5.915   2.760  0.8530  4.4674  0.4906
  345MOL0     H45489   5.560   5.827   3.034 -1.4723 -1.9743 -0.0953
  345MOL0     H45490   5.509   5.708   2.927  1.3565 -0.3625  3.1797
  345MOL0     H45491   5.640   5.814   2.739 -0.7198  1.1103 -0.4967
  345MOL0     H45492   5.748   5.749   2.857  2.4272  1.8071 -1.6378
  345MOL0     H45493   5.880   5.930   3.015 -0.5646 -1.4918 -0.1906
  345MOL0     H45494   5.935   6.321   2.978  3.2941  0.4970 -1.0540
  345MOL0     H45495   6.059   6.196   2.956  1.7956  0.2817  3.5280
  345MOL0     H45496   6.051   6.195   3.189 -0.5995  0.8048 -0.3604
  345MOL0     H45497   5.945   6.067   3.150 -1.6395 -0.6026 -0.2798
  345MOL0     H45498   5.856   6.356   3.216  0.4873  0.1127  1.3419
  345MOL0     H45499   5.751   6.222   3.188  0.2842  0.7622 -1.7249
  345MOL0     H45500   5.826   6.099   3.386  0.2629 -0.1643 -0.5113
  345MOL0     H45501   5.776   6.266   3.427  1.7545  0.7846  1.8009
  345MOL0     H45502   6.199   6.352   3.506  1.1793  0.0805  0.8705
  345MOL0     H45503   6.239   6.428   3.701 -0.1121  0.9018  0.4028
  345MOL0     H45504   6.194   6.521   4.207  1.3161  0.6735 -1.0736
  345MOL0     H45505   6.348   6.538   4.385 -1.5447  0.1971  0.1183
  345MOL0     H45506   6.790   6.492   4.320 -2.9641 -1.4357 -3.3237
  345MOL0     H45507   6.719   6.334   4.338 -1.8231 -1.0194  1.6475
  345MOL0     H45508   6.696   6.412   4.582 -0.3353  3.3313 -1.0325
  345MOL0     H45509   6.833   6.510   4.541 -1.4103  1.5025  0.4436
  345MOL0     H45510   6.964   6.309   4.463 -0.9163  2.0096  0.2651
  345MOL0     H45511   6.842   6.204   4.526 -0.3872  1.3490 -0.9338
  345MOL0     H45512   7.012   6.410   4.693  1.0903 -2.0269  1.6717
  345MOL0     H45513   6.878   6.301   4.757  0.5596  1.4843  0.9886
  345MOL0     H45514   7.005   6.115   4.685  0.6189  0.0729  1.2073
  345MOL0     H45515   7.061   6.207   4.819  0.2165 -1.1811  1.6856
  345MOL0     H45516   7.223   6.323   4.678  1.6629 -0.4103 -0.2143
  345MOL0     H45517   7.197   6.223   4.533  0.0299 -2.4846 -0.2489
  345MOL0     H45518   7.391   6.153   4.651  0.0334 -1.3181 -0.0628
  345MOL0     H45519   7.290   6.161   4.801 -1.8019 -2.3849  0.6388
  345MOL0     H45520   7.173   5.968   4.739  0.8532 -0.0551  1.5915
  345MOL0     H45521   7.341   5.920   4.748  1.8527  0.0525 -0.9032
  345MOL0     H45522   6.671   6.443   4.123  0.2277  2.4929 -2.8903
  345MOL0     H45523   6.513   6.417   3.937  4.1599 -1.5743  2.5404
  345MOL0     H45524   5.867   6.297   3.861 -0.8205 -2.5253 -0.9218
  345MOL0     H45525   5.804   6.217   3.639  2.4975 -2.7970 -0.4770
  345MOL0     H45526   4.686   5.940   3.243  3.1635 -0.0323  1.0470
  345MOL0     H45527   4.463   5.966   3.358 -0.5352 -2.5007  0.1622
  345MOL0     H45528   4.343   6.247   3.879  0.5208  0.7497 -2.5766
  345MOL0     H45529   4.121   6.325   3.949 -0.0180 -0.6140  0.3555
  345MOL0     H45530   3.921   6.374   3.928  1.5929 -1.2910 -0.4061
  345MOL0     H45531   3.927   6.281   4.062  0.7748  2.9259 -0.3285
  345MOL0     H45532   3.746   6.404   4.062  3.0811  0.5301 -1.3986
  345MOL0     H45533   3.679   6.314   3.910 -3.0636 -0.9376  1.9827
  345MOL0     H45534   3.661   6.117   4.016  0.4052  3.0088 -2.7185
  345MOL0     H45535   3.545   6.227   4.089 -0.5665  0.3997  1.9421
  345MOL0     H45536   3.669   6.071   4.256  1.6115  0.4293  1.8820
  345MOL0     H45537   3.815   6.172   4.241  0.4209 -0.3007 -2.0721
  345MOL0     H45538   3.544   6.442   4.423 -1.4676  0.2810 -0.5502
  345MOL0     H45539   3.938   5.981   3.734  2.4216 -3.7408 -0.9903
  345MOL0     H45540   4.165   5.911   3.671  1.0272  0.0375  1.3878
  346MOL0     O45541   2.201   8.497   6.625  0.2367 -0.3059  0.4057
  346MOL0     C45542   2.309   8.438   6.643  0.2189  0.4213  0.1078
  346MOL0     O45543   2.319   8.333   6.716 -0.1072 -0.5031 -0.3397
  346MOL0     C45544   2.211   8.274   6.778  0.6701 -0.1296  0.5014
  346MOL0     C45545   2.195   8.279   6.918  0.3239  0.4358  0.6591
  346MOL0     C45546   2.075   8.236   6.980 -0.5720  0.3931  0.1434
  346MOL0     C45547   1.971   8.183   6.899 -0.0558 -0.6006  0.1324
  346MOL0     O45548   1.869   8.142   6.973  0.6297 -0.0683 -0.2160
  346MOL0     C45549   1.750   8.106   6.903 -0.5293 -0.2912  0.4365
  346MOL0     C45550   1.659   8.097   7.015  0.3916 -0.0575 -0.4756
  346MOL0     C45551   1.517   8.052   6.972  0.2575 -0.3416  0.2473
  346MOL0     C45552   1.424   8.165   6.916  0.4034 -0.3214  0.0228
  346MOL0     C45553   1.284   8.120   6.882  0.5305 -0.6572 -0.4772
  346MOL0     C45554   1.203   8.235   6.819  0.1563  0.1313  0.7427
  346MOL0     C45555   1.056   8.198   6.806  0.8838  0.3204 -0.4430
  346MOL0     C45556   0.976   8.291   6.710  0.5554 -0.1335  0.3533
  346MOL0     N45557   1.021   8.288   6.564  0.7498  0.4516  0.6011
  346MOL0     C45558   1.121   8.368   6.509  0.5076  0.0291 -0.4235
  346MOL0     C45559   1.114   8.333   6.377 -0.2110 -0.1039 -0.2938
  346MOL0     C45560   1.210   8.384   6.267  0.5147 -0.1876  0.2264
  346MOL0     C45561   1.140   8.478   6.169  0.9723 -0.3433 -0.4293
  346MOL0     C45562   1.099   8.616   6.233  0.7544 -0.4322  0.5773
  346MOL0     C45563   1.220   8.698   6.281 -0.6207 -0.4372  1.0291
  346MOL0     O45564   1.178   8.820   6.309  0.1219 -0.4146 -0.0335
  346MOL0     C45565   1.268   8.900   6.375  0.1725  0.5965 -0.7494
  346MOL0     C45566   1.404   8.870   6.411 -0.3295  0.1642  0.1951
  346MOL0     C45567   1.482   8.966   6.470  0.4897  0.3460  1.1177
  346MOL0     C45568   1.432   9.090   6.511  0.5365 -1.2192 -0.1220
  346MOL0     C45569   1.527   9.203   6.557 -1.0553  0.1836  0.3314
  346MOL0     O45570   1.487   9.333   6.577  0.1385 -0.2076  0.1754
  346MOL0     C45571   1.592   9.411   6.625 -0.6043 -0.6260 -0.2203
  346MOL0     C45572   1.615   9.417   6.763 -0.3195 -0.1855  0.6318
  346MOL0     C45573   1.716   9.500   6.805 -0.4597  0.2480 -1.1422
  346MOL0     C45574   1.792   9.568   6.720  0.2855  0.7139 -0.8421
  346MOL0     O45575   1.887   9.639   6.789  0.1475  0.0785 -0.7054
  346MOL0     C45576   1.964   9.727   6.706  0.0357 -0.9113 -0.4214
  346MOL0     C45577   2.014   9.837   6.803 -0.9950  0.5082 -0.1538
  346MOL0     C45578   2.136   9.923   6.745 -0.1608  1.2348 -0.5451
  346MOL0     C45579   2.112  10.032   6.641 -0.5637 -0.5065 -0.7807
  346MOL0     C45580   2.061  10.155   6.723 -0.0607  0.6926  0.1298
  346MOL0     C45581   2.051  10.265   6.628 -0.3173 -0.6943  0.3182
  346MOL0     C45582   2.182  10.311   6.563 -0.4507 -0.0967  0.6381
  346MOL0     C45583   2.156  10.441   6.495  0.1473  0.4479  0.1433
  346MOL0    Cl45584   2.302  10.477   6.400 -0.1776 -0.0979 -0.1172
  346MOL0     C45585   1.769   9.564   6.580  0.4837 -0.2098 -0.3467
  346MOL0     C45586   1.667   9.484   6.537 -1.3001 -0.0399  0.3248
  346MOL0     O45587   1.643   9.155   6.582 -0.3377  0.1806 -0.2102
  346MOL0     C45588   1.291   9.122   6.490 -0.1915  0.2660  0.5035
  346MOL0     C45589   1.211   9.026   6.421 -0.5333  0.4303  0.7971
  346MOL0     N45590   1.021   8.241   6.351  0.3300 -0.1794  0.1976
  346MOL0     N45591   0.961   8.214   6.465  0.0979 -0.6135  0.3130
  346MOL0     C45592   1.997   8.171   6.758  0.1525 -0.2483 -0.7612
  346MOL0     C45593   2.115   8.217   6.701 -0.0198  0.3997 -0.0474
  346MOL0     C45594   2.430   8.507   6.585  0.4233  0.0018  0.5475
  346MOL0     C45595   2.553   8.446   6.591  0.2502  0.2562 -1.0314
  346MOL0     C45596   2.667   8.502   6.532  0.7903  0.4026 -0.7075
  346MOL0     C45597   2.657   8.621   6.460 -0.0227 -0.4937 -0.0485
  346MOL0     O45598   2.757   8.684   6.390  0.4539  0.1164  0.0273
  346MOL0     C45599   2.869   8.600   6.356  0.9479 -0.1102  0.2366
  346MOL0     C45600   2.989   8.618   6.441 -0.5096 -0.4830 -0.0092
  346MOL0     C45601   3.072   8.740   6.410  0.3315  0.1319  0.4031
  346MOL0     C45602   3.211   8.762   6.459 -0.5289 -0.5739  0.8097
  346MOL0     C45603   3.298   8.653   6.436 -0.9613 -0.0976  0.0860
  346MOL0     C45604   3.374   8.562   6.396  0.6493  1.4289  0.4945
  346MOL0     C45605   2.532   8.681   6.452 -0.0972 -0.1463 -0.6385
  346MOL0     C45606   2.423   8.626   6.514  0.5429 -0.2600 -0.5050
  346MOL0     H45607   2.268   8.308   6.993  1.5888 -1.9427  0.4374
  346MOL0     H45608   2.073   8.229   7.088 -2.3882  0.8345  0.1752
  346MOL0     H45609   1.761   8.006   6.860 -1.1953 -0.6515  1.1009
  346MOL0     H45610   1.716   8.186   6.837 -1.3661  0.2281  1.4797
  346MOL0     H45611   1.653   8.193   7.067  1.3622  0.7440 -1.7954
  346MOL0     H45612   1.704   8.028   7.088 -0.4243  1.4298  1.5090
  346MOL0     H45613   1.470   8.008   7.060  0.6719  0.3110  0.8029
  346MOL0     H45614   1.535   7.967   6.906 -0.1875 -0.5799  0.4279
  346MOL0     H45615   1.432   8.254   6.980  2.0844 -1.0263  0.8560
  346MOL0     H45616   1.463   8.192   6.818 -2.4342 -4.0749 -2.3848
  346MOL0     H45617   1.249   8.097   6.983  2.3704  0.8782  0.5763
  346MOL0     H45618   1.293   8.044   6.804  3.7013  1.1898 -2.1564
  346MOL0     H45619   1.248   8.253   6.720 -0.8345 -1.7190 -0.0858
  346MOL0     H45620   1.211   8.322   6.885  0.9476 -0.2729  1.1980
  346MOL0     H45621   1.049   8.101   6.756 -0.8809  0.3255 -0.2826
  346MOL0     H45622   1.004   8.181   6.901  1.1105 -1.6932 -0.6511
  346MOL0     H45623   0.975   8.393   6.751 -0.1049 -0.1769  0.4697
  346MOL0     H45624   0.871   8.265   6.692  0.9016 -0.8892 -0.6214
  346MOL0     H45625   1.174   8.444   6.565 -2.0293  1.0546  0.7390
  346MOL0     H45626   1.230   8.289   6.216  1.7726 -0.4370  1.1387
  346MOL0     H45627   1.300   8.427   6.312 -2.4773  2.7231  4.0728
  346MOL0     H45628   1.049   8.431   6.132 -0.3295  1.7436 -0.0862
  346MOL0     H45629   1.217   8.488   6.092 -0.0435 -1.7874 -1.6723
  346MOL0     H45630   1.049   8.675   6.156  2.7047 -1.3666 -1.5243
  346MOL0     H45631   1.037   8.603   6.322 -0.5105 -0.5804 -0.2980
  346MOL0     H45632   1.305   8.689   6.213 -0.3258  0.8337  1.1972
  346MOL0     H45633   1.259   8.658   6.375  1.3677 -0.3097  0.2899
  346MOL0     H45634   1.442   8.770   6.391 -0.8792  0.0362 -0.2774
  346MOL0     H45635   1.587   8.943   6.483  1.1553 -0.2038 -3.4814
  346MOL0     H45636   1.554   9.357   6.830 -1.1153  0.4281  0.4793
  346MOL0     H45637   1.725   9.503   6.913  0.2581 -0.0662 -1.1870
  346MOL0     H45638   1.906   9.780   6.630 -1.1648 -0.8429  0.5173
  346MOL0     H45639   2.049   9.675   6.660  0.4054 -1.3573  0.7265
  346MOL0     H45640   2.061   9.782   6.885 -1.2057 -3.4134 -2.4017
  346MOL0     H45641   1.931   9.903   6.832 -3.7612 -2.9301  0.4432
  346MOL0     H45642   2.205   9.847   6.706 -2.0424 -2.1955  2.1475
  346MOL0     H45643   2.173   9.959   6.842  0.0826 -0.1994 -0.0758
  346MOL0     H45644   2.204  10.053   6.586  0.0019  2.8783  1.1376
  346MOL0     H45645   2.033  10.014   6.568 -0.9285  2.3033 -1.2064
  346MOL0     H45646   2.124  10.195   6.803 -1.5173  1.6027  0.8715
  346MOL0     H45647   1.962  10.139   6.767  0.3965 -1.3649  0.5451
  346MOL0     H45648   2.016  10.354   6.682  0.6290  1.0328 -1.7212
  346MOL0     H45649   1.977  10.226   6.557 -0.1846  1.0282 -0.8420
  346MOL0     H45650   2.262  10.312   6.638  0.1835  0.9870 -0.0373
  346MOL0     H45651   2.202  10.248   6.476 -0.9231 -0.0108  0.4683
  346MOL0     H45652   2.131  10.523   6.564  0.5474  0.3270  0.4339
  346MOL0     H45653   2.074  10.437   6.423  0.5386  2.3065 -0.4706
  346MOL0     H45654   1.824   9.623   6.508  0.8344  2.4293  1.9397
  346MOL0     H45655   1.656   9.489   6.429 -0.5046 -2.6916  0.0451
  346MOL0     H45656   1.255   9.223   6.506  2.5470  1.3694  0.2459
  346MOL0     H45657   1.111   9.056   6.391  0.5583  2.2966 -1.2311
  346MOL0     H45658   1.935   8.117   6.687  0.6067 -0.6731 -0.8436
  346MOL0     H45659   2.129   8.213   6.594  2.4698 -0.1318  0.2162
  346MOL0     H45660   2.557   8.349   6.639 -3.6941 -0.2460 -1.3829
  346MOL0     H45661   2.759   8.447   6.550 -0.3016 -0.7532  1.9212
  346MOL0     H45662   2.884   8.621   6.250  0.1810  0.7382  0.2746
  346MOL0     H45663   2.838   8.495   6.359  0.1547  0.1226  2.4983
  346MOL0     H45664   2.950   8.609   6.543 -0.9061 -2.1853 -0.2813
  346MOL0     H45665   3.052   8.534   6.411 -0.9213 -0.5098 -0.8072
  346MOL0     H45666   3.019   8.826   6.452  0.0944 -1.0877  2.7497
  346MOL0     H45667   3.068   8.745   6.301 -1.5061  1.3112  0.4799
  346MOL0     H45668   3.252   8.850   6.409 -0.2639 -0.9549  0.3521
  346MOL0     H45669   3.216   8.777   6.567  2.5480  0.5409  0.5981
  346MOL0     H45670   3.429   8.479   6.355 -1.9852  0.1333 -0.6906
  346MOL0     H45671   2.519   8.774   6.396 -0.4320  0.2563  0.0846
  346MOL0     H45672   2.333   8.686   6.521  1.1223  0.6498 -0.8305
  347MOL0     O45673   2.617   6.574  10.328 -0.3780 -0.1674 -0.4872
  347MOL0     C45674   2.700   6.650  10.382  0.3369  0.1442  0.0814
  347MOL0     O45675   2.663   6.755  10.460 -0.6144 -0.2703 -0.4880
  347MOL0     C45676   2.529   6.757  10.503 -0.0854  0.6040 -0.0730
  347MOL0     C45677   2.445   6.858  10.446 -0.2723  0.3774  0.0216
  347MOL0     C45678   2.317   6.889  10.494  0.0038 -0.0654  0.6481
  347MOL0     C45679   2.264   6.796  10.582  0.1037 -0.1407 -0.5459
  347MOL0     O45680   2.128   6.780  10.607 -1.1907 -0.3523 -0.3864
  347MOL0     C45681   2.057   6.904  10.632  0.4179  0.6417  0.1102
  347MOL0     C45682   1.908   6.876  10.683 -0.6175  0.5847 -0.0814
  347MOL0     C45683   1.844   7.004  10.714  0.5559  0.0845  0.3160
  347MOL0     C45684   1.708   6.960  10.772 -0.3260 -0.5325  0.5029
  347MOL0     C45685   1.649   7.076  10.852  0.0566 -0.8221 -0.4717
  347MOL0     C45686   1.643   7.210  10.779 -0.0434 -0.3049 -0.1909
  347MOL0     C45687   1.513   7.283  10.814  0.3474  0.5893 -0.5840
  347MOL0     C45688   1.520   7.374  10.941 -0.3178  0.4271  0.2452
  347MOL0     N45689   1.405   7.466  10.981 -0.2166  0.4552 -0.3979
  347MOL0     C45690   1.370   7.478  11.116  0.0428  0.6010 -0.0050
  347MOL0     C45691   1.314   7.601  11.122  0.7467  0.2946  0.3160
  347MOL0     C45692   1.281   7.681  11.240  1.3465 -0.8501 -0.6371
  347MOL0     C45693   1.132   7.657  11.284  0.1791  0.7845  0.5057
  347MOL0     C45694   1.099   7.515  11.330 -0.3697 -0.1329 -0.4555
  347MOL0     C45695   0.958   7.499  11.375 -0.4447  0.2602  0.4578
  347MOL0     O45696   0.926   7.537  11.511 -0.0062  1.2540  0.0556
  347MOL0     C45697   0.792   7.514  11.537 -0.3291  0.7767  0.3490
  347MOL0     C45698   0.684   7.509  11.457  0.0731  0.5732  0.4148
  347MOL0     C45699   0.563   7.469  11.506 -0.0892  0.1467  0.0912
  347MOL0     C45700   0.540   7.437  11.641 -0.7336  0.2885 -0.1513
  347MOL0     C45701   0.405   7.417  11.699  0.1432 -0.0991  0.0961
  347MOL0     O45702   0.301   7.426  11.610 -0.0232 -0.1640  0.3186
  347MOL0     C45703   0.170   7.411  11.661 -0.8978  0.2411 -0.8993
  347MOL0     C45704   0.105   7.299  11.620  0.4864 -0.0131 -0.0999
  347MOL0     C45705  -0.030   7.283  11.649  0.9940 -0.3116 -0.7389
  347MOL0     C45706  -0.094   7.371  11.731  0.6785  0.8944  0.0020
  347MOL0     O45707  -0.222   7.356  11.770 -0.0666 -1.2543  0.4824
  347MOL0     C45708  -0.296   7.230  11.734 -0.8353 -0.2102  0.1116
  347MOL0     C45709  -0.435   7.218  11.805  0.2033  0.3510  0.3993
  347MOL0     C45710  -0.476   7.354  11.873  0.8771 -0.3221 -1.2926
  347MOL0     C45711  -0.614   7.340  11.926 -0.1553 -0.6130  0.2304
  347MOL0     C45712  -0.723   7.398  11.820  0.1558 -1.1792 -0.4041
  347MOL0     C45713  -0.856   7.335  11.845  0.0993 -0.6595  0.0024
  347MOL0     C45714  -0.921   7.359  11.983 -0.6241  0.6595 -0.3111
  347MOL0     C45715  -0.937   7.512  12.016 -0.4235  0.5921 -0.2636
  347MOL0    Cl45716  -1.053   7.591  11.920 -0.2631  0.0392  0.5703
  347MOL0     C45717  -0.024   7.488  11.766 -0.4322  1.0456 -0.2759
  347MOL0     C45718   0.105   7.516  11.726  0.0397  0.8641  0.0954
  347MOL0     O45719   0.387   7.395  11.817  1.1341  0.3308 -0.7934
  347MOL0     C45720   0.647   7.450  11.731 -0.4453  0.1867  0.4898
  347MOL0     C45721   0.768   7.484  11.676 -0.6178 -0.5997  0.3019
  347MOL0     N45722   1.302   7.655  10.997 -0.3139 -0.1995  0.7522
  347MOL0     N45723   1.360   7.573  10.909 -0.1035 -0.0902  0.7208
  347MOL0     C45724   2.342   6.690  10.637  0.1362  0.5625 -0.3721
  347MOL0     C45725   2.475   6.673  10.602 -0.1675 -0.7876 -0.2037
  347MOL0     C45726   2.843   6.627  10.358  0.1329  0.6991  0.1045
  347MOL0     C45727   2.951   6.705  10.419  0.4468  0.3150 -0.2902
  347MOL0     C45728   3.083   6.674  10.377  1.0766  0.1645 -1.1064
  347MOL0     C45729   3.117   6.590  10.275  0.2635 -0.6014 -0.4985
  347MOL0     O45730   3.247   6.590  10.236  1.2341  0.1392 -0.2062
  347MOL0     C45731   3.289   6.479  10.154  1.0682 -0.3494 -0.0281
  347MOL0     C45732   3.433   6.482  10.107  0.0612  0.3354 -0.7947
  347MOL0     C45733   3.527   6.419  10.211  0.2465  0.7275  0.0773
  347MOL0     C45734   3.665   6.468  10.187 -1.3084 -0.9529  0.2334
  347MOL0     C45735   3.736   6.411  10.070 -0.0721  0.9813 -0.3877
  347MOL0     C45736   3.794   6.369   9.976  0.2270  0.8586 -0.1060
  347MOL0     C45737   3.008   6.526  10.212  0.0678  0.1093  0.3160
  347MOL0     C45738   2.876   6.538  10.252 -0.4152  1.0668 -0.2397
  347MOL0     H45739   2.481   6.915  10.360 -1.5774  0.6325 -0.3717
  347MOL0     H45740   2.257   6.968  10.450 -1.6823 -2.6453 -2.0604
  347MOL0     H45741   2.051   6.969  10.544 -1.2138 -0.4733 -0.6589
  347MOL0     H45742   2.100   6.945  10.723  1.2936 -2.3777  1.1713
  347MOL0     H45743   1.919   6.808  10.768  0.6398  0.4464 -0.3448
  347MOL0     H45744   1.841   6.820  10.616  0.0109 -1.0469  0.6031
  347MOL0     H45745   1.842   7.059  10.620  2.8126  0.7350  0.5908
  347MOL0     H45746   1.909   7.053  10.786  1.3339 -1.6758  0.8856
  347MOL0     H45747   1.644   6.911  10.698 -1.2973 -2.9934  2.8284
  347MOL0     H45748   1.722   6.883  10.848  1.4475 -1.7322 -0.9413
  347MOL0     H45749   1.707   7.098  10.943 -1.5861 -0.5339  0.5394
  347MOL0     H45750   1.545   7.059  10.880 -0.6485  2.4647 -0.7309
  347MOL0     H45751   1.653   7.177  10.675 -0.2226 -2.1240  0.3506
  347MOL0     H45752   1.733   7.271  10.791 -0.6652  0.3919  1.1710
  347MOL0     H45753   1.490   7.343  10.726  2.5867  2.2156 -0.1463
  347MOL0     H45754   1.430   7.212  10.825  0.0126  0.9320 -0.8988
  347MOL0     H45755   1.617   7.425  10.946  0.3317 -0.8749  1.8430
  347MOL0     H45756   1.534   7.310  11.029  3.9851  1.8315  0.8343
  347MOL0     H45757   1.387   7.410  11.198  0.0537  0.2899 -0.2648
  347MOL0     H45758   1.300   7.783  11.205  3.4546 -1.4295 -1.3533
  347MOL0     H45759   1.346   7.663  11.326 -1.6292 -3.2308  1.3350
  347MOL0     H45760   1.064   7.685  11.203 -0.9544  0.1917  1.2266
  347MOL0     H45761   1.104   7.730  11.361  1.4561 -0.5972  2.3612
  347MOL0     H45762   1.112   7.452  11.241 -0.7624 -1.0775  0.1432
  347MOL0     H45763   1.176   7.495  11.405  0.4409  0.5328 -1.0924
  347MOL0     H45764   0.944   7.391  11.374  1.7095 -0.0528 -0.1444
  347MOL0     H45765   0.900   7.550  11.297  0.0699  0.6266  0.3072
  347MOL0     H45766   0.689   7.516  11.349 -0.3858 -3.8192 -0.0456
  347MOL0     H45767   0.482   7.463  11.435  0.2392  0.3613 -0.3038
  347MOL0     H45768   0.146   7.217  11.563 -0.5763  1.6524 -3.4891
  347MOL0     H45769  -0.100   7.215  11.602 -2.3763  2.6450 -0.4670
  347MOL0     H45770  -0.239   7.140  11.757  0.4847  0.4778 -0.3448
  347MOL0     H45771  -0.314   7.218  11.627 -0.4379 -0.0296  0.0211
  347MOL0     H45772  -0.416   7.141  11.880  0.5827  1.0418  1.0216
  347MOL0     H45773  -0.515   7.174  11.746 -0.3317 -3.0695  3.3300
  347MOL0     H45774  -0.468   7.436  11.800  1.6456  1.8899  1.1179
  347MOL0     H45775  -0.418   7.373  11.964 -2.0698  3.0790  0.0828
  347MOL0     H45776  -0.637   7.236  11.949 -0.5358  0.1161  3.7510
  347MOL0     H45777  -0.620   7.392  12.022  1.1845 -0.7873  0.4347
  347MOL0     H45778  -0.693   7.378  11.717 -3.3629 -2.2651 -1.3323
  347MOL0     H45779  -0.745   7.506  11.824 -1.2334 -1.4423  3.0919
  347MOL0     H45780  -0.846   7.226  11.833 -0.2928 -0.5602 -1.3471
  347MOL0     H45781  -0.939   7.367  11.781 -0.8804 -1.0146  1.0550
  347MOL0     H45782  -1.014   7.301  11.992  0.2359 -0.4323  2.3856
  347MOL0     H45783  -0.867   7.307  12.062 -1.7396 -0.8303 -0.4665
  347MOL0     H45784  -0.839   7.558  12.001 -0.9718  1.5126 -1.1455
  347MOL0     H45785  -0.971   7.533  12.118 -4.1697  1.4251 -1.5358
  347MOL0     H45786  -0.077   7.563  11.823 -0.9193 -0.4748  1.3350
  347MOL0     H45787   0.158   7.610  11.740 -0.6032  1.6674 -2.2934
  347MOL0     H45788   0.639   7.424  11.836  1.7460 -2.7373  0.0476
  347MOL0     H45789   0.857   7.491  11.738  0.7069  0.5593 -1.6406
  347MOL0     H45790   2.281   6.631  10.704 -0.2346  1.0043 -0.3132
  347MOL0     H45791   2.532   6.593  10.648  3.3274  0.2664 -2.2420
  347MOL0     H45792   2.940   6.782  10.494  0.1752  1.4921 -1.4965
  347MOL0     H45793   3.159   6.721  10.438  0.7813 -0.8708  0.1174
  347MOL0     H45794   3.226   6.476  10.065  0.6973 -0.0440  0.2195
  347MOL0     H45795   3.257   6.381  10.190  2.7707 -1.6607 -1.8996
  347MOL0     H45796   3.436   6.435  10.008  0.7406 -0.5777 -0.3591
  347MOL0     H45797   3.463   6.586  10.092  0.1785  0.4433  0.1372
  347MOL0     H45798   3.520   6.312  10.187  2.3221  0.7169 -0.7015
  347MOL0     H45799   3.496   6.454  10.310  0.5762  1.8018 -0.1888
  347MOL0     H45800   3.669   6.575  10.166  3.7397 -0.7686  0.9871
  347MOL0     H45801   3.738   6.443  10.265  3.9190  0.4286 -3.6515
  347MOL0     H45802   3.840   6.323   9.891  1.0986  1.6849 -0.0988
  347MOL0     H45803   3.034   6.457  10.132 -1.7051  0.9610 -1.0567
  347MOL0     H45804   2.795   6.491  10.196 -1.5107  3.8451 -1.1584
  348MOL0     O45805   2.631   9.568   1.534  0.0005  0.5510  0.2092
  348MOL0     C45806   2.724   9.526   1.607  0.2282 -0.3611 -0.0755
  348MOL0     O45807   2.713   9.429   1.700  0.2980  0.1265  0.9400
  348MOL0     C45808   2.588   9.376   1.719 -0.4901  0.0140 -0.0500
  348MOL0     C45809   2.559   9.249   1.689 -0.0712  0.5488  0.1518
  348MOL0     C45810   2.431   9.195   1.711  0.3502  0.0844 -0.9059
  348MOL0     C45811   2.327   9.276   1.764  0.0539 -0.2157  0.6562
  348MOL0     O45812   2.187   9.222   1.765 -0.2818 -0.1463  0.5559
  348MOL0     C45813   2.094   9.297   1.841 -1.4048  0.7214 -0.6681
  348MOL0     C45814   1.954   9.249   1.829  0.1243 -0.3548 -0.3031
  348MOL0     C45815   1.866   9.345   1.906  0.6757 -0.0548 -0.6909
  348MOL0     C45816   1.713   9.352   1.854  0.2469 -0.6614 -0.2113
  348MOL0     C45817   1.650   9.209   1.829  0.0107 -0.8690  0.2774
  348MOL0     C45818   1.632   9.139   1.963  0.6187  0.0175 -0.3483
  348MOL0     C45819   1.527   9.020   1.948  0.8300  1.1700 -0.2643
  348MOL0     C45820   1.543   8.895   2.034 -1.2466 -0.3897 -0.4942
  348MOL0     N45821   1.560   8.928   2.178 -0.2524  0.2290  0.5367
  348MOL0     C45822   1.674   8.965   2.234 -0.7438 -0.3061  0.7004
  348MOL0     C45823   1.638   9.001   2.359 -0.2963  0.5186  0.0662
  348MOL0     C45824   1.713   9.070   2.462 -0.0913 -0.2086  0.3779
  348MOL0     C45825   1.728   9.220   2.435 -0.0996 -0.0603 -0.0182
  348MOL0     C45826   1.603   9.315   2.403  0.5411  0.5574  0.1064
  348MOL0     C45827   1.651   9.456   2.355 -0.4056  0.3934 -0.0579
  348MOL0     O45828   1.758   9.484   2.450  0.1563  0.1891 -0.1267
  348MOL0     C45829   1.889   9.519   2.419  0.5709 -1.2909 -0.2723
  348MOL0     C45830   1.961   9.561   2.530 -0.5634 -0.0278 -1.0478
  348MOL0     C45831   2.096   9.596   2.520  0.5998  1.3449  0.0021
  348MOL0     C45832   2.153   9.592   2.390  0.4827 -0.0968  0.2270
  348MOL0     C45833   2.293   9.617   2.383 -0.3154  0.2604  0.7281
  348MOL0     O45834   2.347   9.646   2.266  0.0538  0.4202  0.2124
  348MOL0     C45835   2.479   9.661   2.228  0.2656  0.3373 -0.1437
  348MOL0     C45836   2.576   9.743   2.299 -0.0029  0.9073 -0.2126
  348MOL0     C45837   2.696   9.757   2.239 -1.3522 -0.5732 -0.4161
  348MOL0     C45838   2.741   9.684   2.129  0.2109  0.3477  1.8177
  348MOL0     O45839   2.869   9.704   2.086 -0.4321  0.2947 -0.3668
  348MOL0     C45840   2.958   9.594   2.099  0.6235  0.3360  0.1127
  348MOL0     C45841   3.108   9.640   2.089 -0.3699 -0.8603 -0.5996
  348MOL0     C45842   3.150   9.711   2.215 -0.2925 -0.8073 -1.1594
  348MOL0     C45843   3.306   9.741   2.216  0.1077  0.5941 -0.0532
  348MOL0     C45844   3.351   9.830   2.333  0.0090 -0.1483 -0.1268
  348MOL0     C45845   3.388   9.751   2.461  0.3064  0.5235  0.1330
  348MOL0     C45846   3.266   9.705   2.539  0.2448  0.2928 -0.2977
  348MOL0     C45847   3.287   9.676   2.687  0.4870 -0.5012 -0.2475
  348MOL0    Cl45848   3.409   9.556   2.713 -0.1645 -0.2596 -0.1077
  348MOL0     C45849   2.656   9.592   2.063  0.4664  0.1839  0.1147
  348MOL0     C45850   2.522   9.590   2.108  0.7223  0.1019  0.2844
  348MOL0     O45851   2.360   9.596   2.481 -0.0729 -0.7689 -0.2707
  348MOL0     C45852   2.074   9.565   2.273 -0.4992  0.2763 -1.1889
  348MOL0     C45853   1.941   9.527   2.296 -1.4165  0.2792  0.2338
  348MOL0     N45854   1.502   8.976   2.380 -0.4955 -0.1744 -0.0090
  348MOL0     N45855   1.459   8.919   2.272  0.7212 -0.3518 -0.0227
  348MOL0     C45856   2.360   9.405   1.799 -0.1011  0.8603 -0.3275
  348MOL0     C45857   2.492   9.458   1.781  0.8485  0.2922 -0.0938
  348MOL0     C45858   2.856   9.596   1.592  0.5159  0.5535 -0.4055
  348MOL0     C45859   2.873   9.705   1.510 -0.1310 -0.0859  0.2899
  348MOL0     C45860   2.998   9.764   1.511  0.6285 -0.3941 -0.3711
  348MOL0     C45861   3.106   9.727   1.595 -0.5848  0.6568 -0.3361
  348MOL0     O45862   3.219   9.809   1.588  0.0536 -0.3123 -0.1844
  348MOL0     C45863   3.344   9.739   1.624 -0.0014  0.5189  0.6361
  348MOL0     C45864   3.458   9.834   1.596  0.5961 -0.2443  0.3105
  348MOL0     C45865   3.457   9.966   1.675 -1.1709 -0.0621 -0.5242
  348MOL0     C45866   3.590  10.054   1.665  0.6772 -0.2553 -0.3043
  348MOL0     C45867   3.608  10.095   1.521 -0.3617 -0.2464  0.3669
  348MOL0     C45868   3.613  10.139   1.405  0.0828 -0.1158  0.2927
  348MOL0     C45869   3.086   9.613   1.671  0.1321 -0.0223 -0.2296
  348MOL0     C45870   2.961   9.549   1.673  0.3230 -0.5105 -0.5879
  348MOL0     H45871   2.633   9.176   1.656  0.2029  1.4487 -1.3167
  348MOL0     H45872   2.392   9.096   1.688 -2.3124 -0.3497  4.0833
  348MOL0     H45873   2.090   9.399   1.803 -2.1763  1.7022  1.8306
  348MOL0     H45874   2.135   9.298   1.943  0.6049 -1.0750 -1.3723
  348MOL0     H45875   1.955   9.147   1.870  3.1648  0.0115  0.7938
  348MOL0     H45876   1.920   9.236   1.726  0.2475 -1.0119 -0.2708
  348MOL0     H45877   1.909   9.444   1.925 -0.4038  0.4302 -0.6924
  348MOL0     H45878   1.850   9.303   2.006  0.2067  3.1102  0.6848
  348MOL0     H45879   1.656   9.401   1.933  0.2626  0.5971 -0.9478
  348MOL0     H45880   1.696   9.416   1.767  1.3758  2.1156  1.4786
  348MOL0     H45881   1.718   9.163   1.756 -1.4438 -0.8780 -1.1277
  348MOL0     H45882   1.552   9.222   1.782  0.6453  2.5497 -0.3578
  348MOL0     H45883   1.592   9.205   2.041  0.7377 -1.1332  0.7050
  348MOL0     H45884   1.732   9.105   1.992 -0.5226 -2.9021  0.5179
  348MOL0     H45885   1.429   9.056   1.982  1.2306  1.5012  0.5771
  348MOL0     H45886   1.522   8.991   1.843 -0.4667  1.4348 -0.2915
  348MOL0     H45887   1.637   8.858   1.993 -2.7566 -2.9700 -1.8765
  348MOL0     H45888   1.465   8.823   2.006 -0.8348 -1.8496  1.8248
  348MOL0     H45889   1.775   8.980   2.196 -1.3198 -0.4103 -0.9737
  348MOL0     H45890   1.814   9.028   2.461  0.6559  1.4544 -0.8556
  348MOL0     H45891   1.676   9.066   2.565 -0.5284 -0.7743  0.2005
  348MOL0     H45892   1.809   9.238   2.364 -0.0228  1.3031  0.3706
  348MOL0     H45893   1.763   9.260   2.530 -1.7321  1.8482 -0.1398
  348MOL0     H45894   1.544   9.261   2.328 -1.0826 -1.6657  2.7791
  348MOL0     H45895   1.535   9.333   2.487 -1.0122 -1.7317 -0.5385
  348MOL0     H45896   1.573   9.532   2.364 -2.9602 -2.1916  1.1108
  348MOL0     H45897   1.686   9.462   2.251  0.2459 -0.2442  0.1143
  348MOL0     H45898   1.918   9.565   2.630  1.2123  1.8567 -0.2913
  348MOL0     H45899   2.163   9.628   2.600  1.3424  0.4270 -0.2344
  348MOL0     H45900   2.552   9.806   2.384 -1.7441  0.5788 -0.4203
  348MOL0     H45901   2.781   9.816   2.273  0.5440 -1.9234 -2.5235
  348MOL0     H45902   2.942   9.528   2.013 -0.4888 -1.0043  1.3017
  348MOL0     H45903   2.932   9.539   2.189 -0.6588  0.0757 -0.3856
  348MOL0     H45904   3.134   9.699   2.001  1.8980 -0.5631  0.2103
  348MOL0     H45905   3.170   9.551   2.074  1.4319  0.5051 -1.6798
  348MOL0     H45906   3.137   9.634   2.291  4.2336  0.2571  1.0712
  348MOL0     H45907   3.100   9.807   2.233 -0.6272 -1.5141  2.4255
  348MOL0     H45908   3.358   9.645   2.214 -2.3404 -0.8001 -1.0493
  348MOL0     H45909   3.325   9.791   2.121 -2.6947 -0.3474 -1.2308
  348MOL0     H45910   3.276   9.905   2.356 -0.7318 -0.8579 -0.1840
  348MOL0     H45911   3.442   9.883   2.301 -1.1048  2.3941  0.7005
  348MOL0     H45912   3.436   9.825   2.526  0.1872  0.4495  0.3070
  348MOL0     H45913   3.461   9.671   2.448 -0.8280 -0.9348  2.0852
  348MOL0     H45914   3.184   9.777   2.523  0.0058 -0.0337 -0.5581
  348MOL0     H45915   3.240   9.606   2.501 -1.1123 -0.4053  2.2170
  348MOL0     H45916   3.188   9.658   2.732  0.1085  1.0047 -0.4056
  348MOL0     H45917   3.321   9.765   2.741 -0.5673  0.8416 -1.7147
  348MOL0     H45918   2.683   9.546   1.969 -0.0839  0.1515 -0.0313
  348MOL0     H45919   2.447   9.540   2.047  0.2089 -2.3743  2.7124
  348MOL0     H45920   2.110   9.571   2.171  2.0980 -0.3635 -0.3957
  348MOL0     H45921   1.882   9.511   2.206 -0.2402 -0.5205 -0.4159
  348MOL0     H45922   2.279   9.475   1.822 -0.1868  0.8703 -0.6586
  348MOL0     H45923   2.519   9.562   1.803  0.2152  0.3333  0.5082
  348MOL0     H45924   2.815   9.759   1.437 -2.8532 -1.1911  1.4987
  348MOL0     H45925   3.006   9.851   1.447  1.6286  2.3835  3.1999
  348MOL0     H45926   3.367   9.653   1.560 -1.4829  0.5270  0.0447
  348MOL0     H45927   3.332   9.700   1.725 -0.8326  0.0905  0.3817
  348MOL0     H45928   3.554   9.782   1.611 -0.1427 -1.5003  0.8644
  348MOL0     H45929   3.449   9.864   1.491  2.0628  0.9906  0.5009
  348MOL0     H45930   3.435   9.944   1.780  1.7224 -1.3561 -0.0915
  348MOL0     H45931   3.374  10.027   1.639 -1.9086 -0.0930  1.0260
  348MOL0     H45932   3.578  10.148   1.719 -1.2399  0.3176 -1.6284
  348MOL0     H45933   3.673   9.993   1.702 -0.2288 -2.5868 -1.8974
  348MOL0     H45934   3.618  10.184   1.308 -0.4239  2.1278  1.2382
  348MOL0     H45935   3.161   9.554   1.723 -2.1821 -2.1449  0.8991
  348MOL0     H45936   2.957   9.459   1.732 -0.5366 -0.7796 -1.0348
  349MOL0     O45937   5.314   3.681   0.073  0.4871  0.2834  0.1149
  349MOL0     C45938   5.393   3.583   0.101  0.2571 -0.1324 -0.0356
  349MOL0     O45939   5.527   3.598   0.139  0.4086 -0.0175 -0.8076
  349MOL0     C45940   5.587   3.721   0.160  0.6442  0.4603  0.9619
  349MOL0     C45941   5.710   3.719   0.223  0.1564  0.0001 -0.5994
  349MOL0     C45942   5.798   3.828   0.227  0.1392  0.2906 -0.1161
  349MOL0     C45943   5.751   3.955   0.193  0.6490  0.4945 -0.4949
  349MOL0     O45944   5.830   4.067   0.199  0.6494  0.3002 -0.0228
  349MOL0     C45945   5.966   4.059   0.168 -0.0147  0.2289 -0.0938
  349MOL0     C45946   6.026   4.200   0.156 -0.6134 -0.1315 -0.2302
  349MOL0     C45947   6.172   4.198   0.125 -0.6035 -1.0055  0.1665
  349MOL0     C45948   6.220   4.343   0.145  0.3144  1.0329 -0.3665
  349MOL0     C45949   6.362   4.356   0.085  0.7939  0.3074 -0.3634
  349MOL0     C45950   6.429   4.492   0.139  0.6203 -0.3151  0.2929
  349MOL0     C45951   6.566   4.521   0.079 -0.9422  0.5359 -0.0978
  349MOL0     C45952   6.656   4.591   0.182  1.0486  1.0508 -0.4856
  349MOL0     N45953   6.774   4.629   0.109 -0.0074  0.2690 -0.2439
  349MOL0     C45954   6.765   4.731   0.019  0.5177  0.0225 -0.0111
  349MOL0     C45955   6.893   4.755  -0.022  0.3801 -0.7410  0.3960
  349MOL0     C45956   6.935   4.856  -0.125 -0.7771  0.1569 -0.2574
  349MOL0     C45957   7.064   4.925  -0.099 -0.6937 -0.4987 -0.3132
  349MOL0     C45958   7.082   5.039  -0.202 -0.0485 -1.1966  0.4109
  349MOL0     C45959   7.008   5.177  -0.174 -0.7608  0.4190 -0.1045
  349MOL0     O45960   6.870   5.162  -0.222 -0.5944  0.4880 -0.6538
  349MOL0     C45961   6.812   5.283  -0.248 -0.2434  0.4801 -0.2895
  349MOL0     C45962   6.688   5.281  -0.314 -0.3136  0.3872 -1.6230
  349MOL0     C45963   6.620   5.395  -0.354 -0.4564 -0.2351  0.0948
  349MOL0     C45964   6.664   5.524  -0.302  0.7866  0.5297 -0.9435
  349MOL0     C45965   6.574   5.641  -0.304  0.5577 -0.2657 -0.5718
  349MOL0     O45966   6.624   5.757  -0.268 -0.0406 -0.5155 -0.7094
  349MOL0     C45967   6.555   5.874  -0.300  1.5622  1.1034 -0.3903
  349MOL0     C45968   6.553   5.914  -0.436  0.2745  0.4920 -0.5364
  349MOL0     C45969   6.476   6.033  -0.468  0.4688  0.8076 -0.0152
  349MOL0     C45970   6.406   6.107  -0.372  0.2322  0.2136  0.2858
  349MOL0     O45971   6.340   6.222  -0.414 -0.2634  0.0636 -0.0547
  349MOL0     C45972   6.296   6.327  -0.323 -0.6587  1.0610  0.8889
  349MOL0     C45973   6.284   6.458  -0.406 -0.1982 -0.4872 -0.3799
  349MOL0     C45974   6.186   6.441  -0.527 -0.0919 -0.8129  0.1821
  349MOL0     C45975   6.172   6.593  -0.600 -0.2209 -0.4882 -0.0319
  349MOL0     C45976   6.018   6.611  -0.629  0.0108 -0.3516 -0.0191
  349MOL0     C45977   5.940   6.620  -0.493 -0.4199 -0.4170 -0.0450
  349MOL0     C45978   5.999   6.742  -0.405  0.5366  0.4794 -0.7879
  349MOL0     C45979   5.905   6.768  -0.282  0.4196 -0.3659  0.1745
  349MOL0    Cl45980   5.961   6.689  -0.134 -0.0670  0.3004 -0.1118
  349MOL0     C45981   6.418   6.069  -0.236 -0.1995 -0.3115 -0.0871
  349MOL0     C45982   6.484   5.948  -0.204 -0.0152  0.4465 -0.0626
  349MOL0     O45983   6.456   5.619  -0.330  0.0966  0.2562 -0.6032
  349MOL0     C45984   6.793   5.534  -0.244  0.0819  0.0532  0.3134
  349MOL0     C45985   6.859   5.412  -0.209 -0.7034 -0.1852  0.8199
  349MOL0     N45986   6.976   4.666   0.050 -0.5594  0.7131  0.0702
  349MOL0     N45987   6.907   4.598   0.137  0.4787  0.3398  0.2958
  349MOL0     C45988   5.614   3.961   0.138  0.8531 -0.5171  0.5168
  349MOL0     C45989   5.538   3.846   0.118 -0.7535  0.0817 -0.1059
  349MOL0     C45990   5.349   3.450   0.084 -0.3482  0.1122  0.1213
  349MOL0     C45991   5.235   3.418   0.018  0.1688 -0.0990  0.1557
  349MOL0     C45992   5.196   3.283   0.006  0.1060 -0.4939 -0.1059
  349MOL0     C45993   5.274   3.175   0.046  0.4941  0.1541 -0.5502
  349MOL0     O45994   5.246   3.044   0.033 -0.2853 -0.2030  0.5312
  349MOL0     C45995   5.162   3.004  -0.077 -0.1768  0.4219  0.2739
  349MOL0     C45996   5.013   2.996  -0.026  0.2022 -0.4280  0.5262
  349MOL0     C45997   4.914   2.936  -0.132 -0.4538 -0.8885 -0.4713
  349MOL0     C45998   4.798   3.011  -0.176 -0.1061  0.1905  0.4290
  349MOL0     C45999   4.863   3.127  -0.245  0.3164 -0.2931  0.3268
  349MOL0     C46000   4.941   3.201  -0.295  0.5500 -0.6880  1.2654
  349MOL0     C46001   5.396   3.207   0.105 -0.6348  0.9721 -0.2554
  349MOL0     C46002   5.432   3.345   0.123 -0.7645 -0.2242  0.6699
  349MOL0     H46003   5.749   3.631   0.273 -0.8979 -0.7739 -1.1062
  349MOL0     H46004   5.899   3.820   0.268 -0.3845 -2.9441  0.8385
  349MOL0     H46005   5.981   4.011   0.071  0.5810 -0.0139  0.1152
  349MOL0     H46006   6.023   3.994   0.235 -1.7545 -1.7435 -0.4013
  349MOL0     H46007   6.010   4.256   0.249 -0.4558  3.1418 -2.0169
  349MOL0     H46008   5.984   4.261   0.076  2.2481  3.5590  0.8044
  349MOL0     H46009   6.184   4.169   0.020 -2.3705 -2.4361  0.3275
  349MOL0     H46010   6.233   4.129   0.184  0.1935 -0.9134 -0.5215
  349MOL0     H46011   6.149   4.412   0.098 -2.7011 -1.5957 -0.0185
  349MOL0     H46012   6.226   4.362   0.252  2.5288 -3.7336  0.6014
  349MOL0     H46013   6.356   4.362  -0.024 -0.9207 -0.2772 -0.3420
  349MOL0     H46014   6.413   4.268   0.126  0.7860 -0.5978 -2.1991
  349MOL0     H46015   6.436   4.489   0.248  2.7406  1.8942  0.3062
  349MOL0     H46016   6.369   4.583   0.128 -2.2438 -2.2144 -1.0329
  349MOL0     H46017   6.616   4.427   0.055 -3.5652 -1.0705  0.4086
  349MOL0     H46018   6.555   4.578  -0.013  0.1047  2.2812  0.8030
  349MOL0     H46019   6.693   4.522   0.258  0.7912  1.4476  0.0021
  349MOL0     H46020   6.601   4.672   0.229  1.4341  1.9394 -1.5153
  349MOL0     H46021   6.672   4.786   0.005  0.1897  0.0112  1.8117
  349MOL0     H46022   6.852   4.923  -0.150 -2.9093 -2.2505 -0.0625
  349MOL0     H46023   6.959   4.801  -0.217 -0.7969  2.7435 -1.8916
  349MOL0     H46024   7.145   4.856  -0.124 -1.8035 -1.3697 -1.7038
  349MOL0     H46025   7.086   4.964   0.001  0.9449 -1.5449 -0.2214
  349MOL0     H46026   7.188   5.066  -0.201 -0.2605 -0.2421 -0.6032
  349MOL0     H46027   7.066   5.013  -0.308  2.7728 -0.3471 -0.2998
  349MOL0     H46028   7.055   5.244  -0.246 -0.9000  1.6900  0.9484
  349MOL0     H46029   7.017   5.224  -0.075  0.6176  1.3511 -0.6455
  349MOL0     H46030   6.651   5.182  -0.338 -0.3316 -0.4281  1.3712
  349MOL0     H46031   6.523   5.386  -0.402 -0.0247 -0.2161 -0.8065
  349MOL0     H46032   6.597   5.853  -0.514 -1.8909 -2.4938  0.3767
  349MOL0     H46033   6.447   6.055  -0.570 -4.0459 -1.5422  0.4616
  349MOL0     H46034   6.377   6.345  -0.251 -0.4828 -0.7238  1.2021
  349MOL0     H46035   6.201   6.310  -0.271 -0.8652 -0.0274  0.1929
  349MOL0     H46036   6.384   6.470  -0.448 -0.1111  3.5685  0.6510
  349MOL0     H46037   6.264   6.537  -0.333 -0.2460 -2.1690  1.5236
  349MOL0     H46038   6.087   6.402  -0.501 -2.2782  1.0028 -4.3165
  349MOL0     H46039   6.228   6.384  -0.610 -0.4633  2.6798 -2.6537
  349MOL0     H46040   6.208   6.669  -0.530 -1.0022 -2.2483  2.3816
  349MOL0     H46041   6.233   6.599  -0.691  1.7120  2.8561  1.3016
  349MOL0     H46042   5.975   6.522  -0.674 -2.5168 -0.6934  2.7124
  349MOL0     H46043   6.004   6.702  -0.688  0.1396 -1.0889 -1.1986
  349MOL0     H46044   5.952   6.527  -0.436  1.4110 -1.3109 -1.7679
  349MOL0     H46045   5.836   6.650  -0.507 -0.5852 -0.3440  1.2237
  349MOL0     H46046   6.097   6.716  -0.366 -0.3944 -3.7706 -0.7746
  349MOL0     H46047   6.017   6.824  -0.475 -0.3388  0.2311 -1.3175
  349MOL0     H46048   5.801   6.744  -0.306  0.0466  2.5707 -1.6813
  349MOL0     H46049   5.915   6.876  -0.264 -0.9689 -0.2784  0.5472
  349MOL0     H46050   6.368   6.118  -0.153 -0.1971  3.3014 -2.0498
  349MOL0     H46051   6.480   5.919  -0.100  0.4301  0.6107  0.0030
  349MOL0     H46052   6.842   5.623  -0.208  2.1818 -0.5686 -0.8525
  349MOL0     H46053   6.958   5.426  -0.167 -1.1293  1.2368  1.4089
  349MOL0     H46054   5.574   4.058   0.114  0.4082 -0.4329  1.5294
  349MOL0     H46055   5.459   3.847   0.044 -1.9136 -3.5938  0.8883
  349MOL0     H46056   5.169   3.484  -0.037  0.9123  0.7300  0.2365
  349MOL0     H46057   5.100   3.255  -0.037  0.7975 -0.7121 -1.5931
  349MOL0     H46058   5.190   2.908  -0.120 -0.0600  1.0946 -1.2059
  349MOL0     H46059   5.156   3.071  -0.163 -0.0506  0.4756  0.3057
  349MOL0     H46060   5.004   2.932   0.063 -5.2278  1.1040  1.4562
  349MOL0     H46061   4.979   3.098  -0.005  2.0929  0.4004 -0.2385
  349MOL0     H46062   4.891   2.841  -0.083  2.7057  0.0269  3.3268
  349MOL0     H46063   4.968   2.908  -0.223 -1.5763 -1.4000 -0.9993
  349MOL0     H46064   4.733   2.948  -0.238  0.4552 -1.2102  1.2176
  349MOL0     H46065   4.731   3.044  -0.096 -1.0410 -1.4880  0.3919
  349MOL0     H46066   5.015   3.260  -0.346  0.7205  0.4082  2.7053
  349MOL0     H46067   5.467   3.128   0.128  1.3878  2.5939 -0.6454
  349MOL0     H46068   5.528   3.364   0.170  0.9720 -1.9785 -1.8571
  350MOL0     O46069   9.143   3.154   3.257  0.6443 -0.1930  0.2774
  350MOL0     C46070   9.113   3.265   3.296 -0.6898 -0.5388 -0.0840
  350MOL0     O46071   8.989   3.331   3.282  0.3429  0.0500  0.2071
  350MOL0     C46072   8.893   3.253   3.217 -0.1150  0.2922 -0.4555
  350MOL0     C46073   8.893   3.237   3.073 -0.3065 -0.7710  1.3023
  350MOL0     C46074   8.778   3.190   3.006  0.4343 -0.7355  0.0427
  350MOL0     C46075   8.675   3.137   3.082 -0.2463 -0.3962 -0.8476
  350MOL0     O46076   8.567   3.078   3.018 -0.5827  0.3112  0.0752
  350MOL0     C46077   8.575   3.067   2.874  0.6120 -0.6466 -0.3240
  350MOL0     C46078   8.439   3.008   2.813 -0.6471  1.0579 -0.3094
  350MOL0     C46079   8.434   2.864   2.851 -0.7829 -0.0696  0.1859
  350MOL0     C46080   8.496   2.781   2.744 -0.4523 -0.3409  0.7048
  350MOL0     C46081   8.465   2.633   2.777 -0.5913  0.3418 -0.5684
  350MOL0     C46082   8.546   2.576   2.901 -0.4336 -0.0227  0.5049
  350MOL0     C46083   8.517   2.423   2.922 -0.5187  0.7107  0.2815
  350MOL0     C46084   8.554   2.335   2.802 -0.3322  0.3050  1.2824
  350MOL0     N46085   8.691   2.345   2.756 -0.8260 -1.2365  0.1605
  350MOL0     C46086   8.734   2.446   2.670  0.0471  0.9150  0.4706
  350MOL0     C46087   8.853   2.406   2.625  0.2544 -0.2446  0.2122
  350MOL0     C46088   8.938   2.493   2.532 -0.5889  0.0578 -0.1287
  350MOL0     C46089   9.090   2.466   2.568 -0.1081 -0.5232 -1.0964
  350MOL0     C46090   9.168   2.543   2.468 -0.4193  0.4441  0.3047
  350MOL0     C46091   9.326   2.556   2.501  0.9513 -0.1589  0.7072
  350MOL0     O46092   9.377   2.653   2.410  0.4325 -0.7934 -0.1706
  350MOL0     C46093   9.506   2.688   2.425  0.9073 -0.1966 -0.7107
  350MOL0     C46094   9.540   2.791   2.338  0.3112 -0.0306  1.3569
  350MOL0     C46095   9.665   2.839   2.349 -0.2230 -0.5726  0.2135
  350MOL0     C46096   9.764   2.780   2.434  0.1144 -0.5214 -0.0213
  350MOL0     C46097   9.899   2.833   2.451 -1.2288  0.3850  0.4164
  350MOL0     O46098   9.990   2.741   2.500 -0.1208  0.3167  0.1382
  350MOL0     C46099  10.109   2.778   2.549  0.3435 -0.3377 -0.0768
  350MOL0     C46100  10.138   2.893   2.615  0.0726 -0.6932 -0.0661
  350MOL0     C46101  10.263   2.919   2.662  0.6645  0.1951  0.6508
  350MOL0     C46102  10.367   2.833   2.622  0.1483 -0.3077 -0.3030
  350MOL0     O46103  10.493   2.876   2.663 -0.1727  0.3365  0.4122
  350MOL0     C46104  10.604   2.850   2.581 -0.2482 -0.4447  0.1646
  350MOL0     C46105  10.718   2.828   2.675  0.1629 -0.8708 -0.2526
  350MOL0     C46106  10.846   2.812   2.598  0.6514 -0.3312 -0.5568
  350MOL0     C46107  10.859   2.664   2.562  0.0846 -0.6086  0.5129
  350MOL0     C46108  10.989   2.662   2.477 -1.0480  0.1265  0.6949
  350MOL0     C46109  11.027   2.519   2.439  0.0128 -0.1469 -0.9183
  350MOL0     C46110  11.155   2.495   2.355  0.5588  0.5797 -0.7107
  350MOL0     C46111  11.129   2.521   2.202  0.6085  0.6297  0.6351
  350MOL0    Cl46112  11.263   2.469   2.096  0.0613 -0.0036 -0.0892
  350MOL0     C46113  10.338   2.714   2.554  1.3444  0.2050  0.3622
  350MOL0     C46114  10.207   2.691   2.526  0.2928 -0.1352  0.2039
  350MOL0     O46115   9.926   2.945   2.410 -0.3631  0.6681  0.2291
  350MOL0     C46116   9.730   2.676   2.521  0.1381 -0.2039  0.5454
  350MOL0     C46117   9.599   2.623   2.516 -0.1905  0.1497  0.4586
  350MOL0     N46118   8.888   2.288   2.696 -0.1019  0.0026 -0.2383
  350MOL0     N46119   8.793   2.256   2.776 -0.0804  0.1673 -0.4385
  350MOL0     C46120   8.679   3.138   3.227  0.3044  0.3635  0.5761
  350MOL0     C46121   8.790   3.201   3.299 -0.5923  0.7926  0.4361
  350MOL0     C46122   9.220   3.347   3.337 -1.2927 -0.9278  1.0099
  350MOL0     C46123   9.354   3.300   3.326  1.2683 -0.1791  0.4487
  350MOL0     C46124   9.460   3.379   3.377 -0.3960  0.2978 -0.3838
  350MOL0     C46125   9.444   3.506   3.438 -0.6215 -0.2350 -0.3683
  350MOL0     O46126   9.545   3.589   3.485 -0.3167 -0.4694  0.3569
  350MOL0     C46127   9.678   3.553   3.455 -0.3216  0.4602 -1.2337
  350MOL0     C46128   9.773   3.660   3.503  0.2419 -0.5730  0.1378
  350MOL0     C46129   9.784   3.776   3.399 -0.5223  0.1446  0.1946
  350MOL0     C46130   9.854   3.736   3.265  0.1103  0.7246 -0.3117
  350MOL0     C46131   9.983   3.686   3.281  0.0638 -0.0696 -0.1297
  350MOL0     C46132  10.103   3.662   3.298 -0.3087 -0.0297 -0.1614
  350MOL0     C46133   9.312   3.555   3.448  0.4998  0.5779 -0.8519
  350MOL0     C46134   9.201   3.474   3.391 -0.0197 -0.2810 -0.2455
  350MOL0     H46135   8.964   3.281   3.003 -1.4709 -1.5809 -0.4463
  350MOL0     H46136   8.772   3.194   2.897 -1.2028  1.1194  0.1353
  350MOL0     H46137   8.658   3.005   2.839  0.0021 -2.2067  0.8352
  350MOL0     H46138   8.587   3.165   2.828 -2.3782 -0.6321 -1.2955
  350MOL0     H46139   8.442   3.023   2.705 -0.8131  3.0063 -0.0680
  350MOL0     H46140   8.356   3.068   2.852  0.2190  2.0291  0.0566
  350MOL0     H46141   8.328   2.840   2.839  0.0940 -3.9164 -1.1559
  350MOL0     H46142   8.473   2.837   2.949 -1.5030 -4.0146 -0.4590
  350MOL0     H46143   8.464   2.817   2.646 -1.5992 -2.6880  0.1407
  350MOL0     H46144   8.605   2.788   2.747 -0.4993  0.0364  2.3508
  350MOL0     H46145   8.480   2.572   2.687 -0.4805 -0.4435 -0.0349
  350MOL0     H46146   8.357   2.627   2.791 -0.5818  0.2593 -0.5231
  350MOL0     H46147   8.504   2.632   2.986 -2.8016 -0.8361 -0.0369
  350MOL0     H46148   8.653   2.596   2.904 -0.1864 -1.3408  2.2131
  350MOL0     H46149   8.587   2.389   2.997  0.8792  0.7692 -0.9530
  350MOL0     H46150   8.413   2.409   2.953 -0.0998 -3.9155  0.2288
  350MOL0     H46151   8.488   2.359   2.718  1.4770 -0.8477 -0.5545
  350MOL0     H46152   8.542   2.229   2.825  1.3308 -0.0769  0.4885
  350MOL0     H46153   8.688   2.537   2.632  2.9371  1.0886 -3.0854
  350MOL0     H46154   8.913   2.597   2.555  2.0535  0.3144  2.0324
  350MOL0     H46155   8.905   2.462   2.432 -2.6051 -0.6684  0.6996
  350MOL0     H46156   9.099   2.359   2.546 -1.4135 -1.4433  2.2437
  350MOL0     H46157   9.116   2.501   2.668  0.9661  0.3057 -1.6457
  350MOL0     H46158   9.160   2.493   2.372  1.9112  1.5010 -0.5270
  350MOL0     H46159   9.122   2.640   2.445 -0.7040  0.7974  2.2163
  350MOL0     H46160   9.361   2.455   2.479 -0.5476 -1.3998  3.5030
  350MOL0     H46161   9.346   2.580   2.606  2.2769 -1.5409  0.8066
  350MOL0     H46162   9.467   2.843   2.276  2.2173  0.3189 -0.7193
  350MOL0     H46163   9.684   2.928   2.290 -0.5793  0.9520  2.3011
  350MOL0     H46164  10.063   2.970   2.629  0.0462 -0.4648 -1.3494
  350MOL0     H46165  10.274   3.010   2.719  1.0902  0.6018 -0.0608
  350MOL0     H46166  10.622   2.943   2.527 -0.3074 -0.8759 -0.6127
  350MOL0     H46167  10.598   2.767   2.510  1.1516  0.6309 -1.2746
  350MOL0     H46168  10.695   2.742   2.738  3.4559 -2.0187 -0.4179
  350MOL0     H46169  10.720   2.921   2.732 -0.6366  0.3099 -2.0402
  350MOL0     H46170  10.924   2.831   2.672 -0.8191  4.0783  0.1384
  350MOL0     H46171  10.866   2.882   2.516  0.3959  0.8014  0.3216
  350MOL0     H46172  10.883   2.599   2.646  0.5695 -1.8714 -0.5670
  350MOL0     H46173  10.765   2.629   2.518 -0.1281 -0.2918  0.7107
  350MOL0     H46174  11.064   2.702   2.547 -2.5592 -1.4257  3.3625
  350MOL0     H46175  10.974   2.730   2.393  2.9206  0.6759  0.2394
  350MOL0     H46176  10.941   2.470   2.392  0.9929  1.1960 -4.4224
  350MOL0     H46177  11.034   2.474   2.538 -2.4661  0.3494 -0.4763
  350MOL0     H46178  11.240   2.545   2.403  1.0983 -0.1881 -0.8394
  350MOL0     H46179  11.175   2.388   2.371 -0.3692  0.6544  1.0527
  350MOL0     H46180  11.102   2.626   2.193  2.0803  1.1908  2.0842
  350MOL0     H46181  11.034   2.476   2.172 -0.5020  3.7776 -1.0449
  350MOL0     H46182  10.402   2.627   2.545 -1.6277 -2.4712  2.8553
  350MOL0     H46183  10.172   2.604   2.471 -0.0552  1.0528 -1.5579
  350MOL0     H46184   9.794   2.621   2.590  1.1875 -2.0146 -1.7334
  350MOL0     H46185   9.574   2.541   2.582  0.2528  1.1571  1.9263
  350MOL0     H46186   8.592   3.100   3.280  0.2090 -0.1856  0.0306
  350MOL0     H46187   8.795   3.206   3.408 -3.4338  2.8791  0.5848
  350MOL0     H46188   9.372   3.208   3.271 -0.8624  0.1862 -0.9669
  350MOL0     H46189   9.559   3.336   3.365 -1.1194 -1.0601 -1.8953
  350MOL0     H46190   9.704   3.521   3.354 -0.3243 -3.0610 -0.2273
  350MOL0     H46191   9.701   3.465   3.515 -0.5931  0.1461 -1.5883
  350MOL0     H46192   9.753   3.705   3.601 -1.5084  1.2332 -0.9616
  350MOL0     H46193   9.868   3.607   3.496 -0.3692 -1.4847 -3.9342
  350MOL0     H46194   9.830   3.864   3.444  1.9049 -0.7881 -0.2977
  350MOL0     H46195   9.685   3.806   3.364  0.2605 -0.3833 -2.7304
  350MOL0     H46196   9.802   3.666   3.199  0.5597  0.1857 -0.1055
  350MOL0     H46197   9.869   3.835   3.220 -0.4569  1.7137  1.5945
  350MOL0     H46198  10.207   3.639   3.292 -0.6373 -1.5052 -0.7249
  350MOL0     H46199   9.284   3.652   3.487 -0.2716  1.6352 -3.7978
  350MOL0     H46200   9.102   3.514   3.404  0.3562  0.8893 -0.8512
  351MOL0     O46201   0.123   1.189   3.837 -0.7999  0.1859 -0.0017
  351MOL0     C46202   0.160   1.192   3.714 -0.9305  0.7556  0.0226
  351MOL0     O46203   0.079   1.145   3.609  0.0150 -0.6330 -0.1015
  351MOL0     C46204  -0.060   1.149   3.620 -0.4823 -0.5666 -0.3407
  351MOL0     C46205  -0.136   1.034   3.642  0.4633  0.5451 -0.0628
  351MOL0     C46206  -0.268   1.041   3.686  0.4121  0.1568  0.6979
  351MOL0     C46207  -0.341   1.156   3.688  0.0398 -0.5576  0.6473
  351MOL0     O46208  -0.461   1.142   3.741 -0.0660 -0.3278  0.6676
  351MOL0     C46209  -0.573   1.232   3.725 -0.4128  0.1228 -0.4780
  351MOL0     C46210  -0.591   1.311   3.853 -0.8038 -0.4741 -0.3784
  351MOL0     C46211  -0.708   1.404   3.853 -0.8485  0.6242  0.4245
  351MOL0     C46212  -0.832   1.324   3.811  0.2646 -0.4513  0.1611
  351MOL0     C46213  -0.956   1.397   3.855 -0.4608 -0.4473  0.1918
  351MOL0     C46214  -0.979   1.387   4.005  0.8340  0.4888 -0.6810
  351MOL0     C46215  -1.085   1.498   4.043  0.0679  0.0932 -0.0572
  351MOL0     C46216  -1.036   1.639   4.014  0.2112  0.2990 -0.1947
  351MOL0     N46217  -0.894   1.676   4.034  0.3684  1.1351  0.1826
  351MOL0     C46218  -0.817   1.748   3.939  0.2658  0.2839 -0.8715
  351MOL0     C46219  -0.694   1.742   3.991 -1.3293  0.3558  0.2054
  351MOL0     C46220  -0.563   1.791   3.926  0.1839  0.7165 -0.4529
  351MOL0     C46221  -0.461   1.690   3.893 -0.1804 -0.0524  0.2919
  351MOL0     C46222  -0.337   1.748   3.830  0.0988  0.2529  0.5387
  351MOL0     C46223  -0.254   1.843   3.924  0.5549 -0.1893  0.3866
  351MOL0     O46224  -0.185   1.764   4.026  0.0540  0.0450  0.1785
  351MOL0     C46225  -0.045   1.763   4.018  1.0220  1.1202  0.0292
  351MOL0     C46226   0.039   1.779   4.132  0.3810  0.5015  0.8253
  351MOL0     C46227   0.174   1.791   4.127 -0.0580 -1.2170  0.3730
  351MOL0     C46228   0.245   1.784   4.001 -0.0229 -0.0594  0.7232
  351MOL0     C46229   0.391   1.796   3.990  0.4016 -0.2459  0.2291
  351MOL0     O46230   0.448   1.718   3.899  0.7741 -0.3245 -0.5669
  351MOL0     C46231   0.583   1.686   3.896  0.7786 -0.3075 -0.0868
  351MOL0     C46232   0.614   1.611   3.786  0.1398 -0.3300 -0.4140
  351MOL0     C46233   0.747   1.563   3.762  0.2074 -0.3692 -0.1176
  351MOL0     C46234   0.853   1.614   3.846 -0.9433 -0.1003 -0.3236
  351MOL0     O46235   0.982   1.577   3.821  0.0758 -0.6624 -0.1890
  351MOL0     C46236   1.013   1.450   3.859  0.6736  0.7304 -0.0696
  351MOL0     C46237   1.090   1.467   3.981  0.2179  0.6880 -0.6306
  351MOL0     C46238   1.237   1.520   3.966  0.5089 -1.5799  0.7383
  351MOL0     C46239   1.322   1.435   3.867  0.6936  0.1177 -1.0311
  351MOL0     C46240   1.471   1.458   3.883 -0.7178  0.1913  0.5274
  351MOL0     C46241   1.534   1.439   4.036 -0.3552  0.1603 -0.0007
  351MOL0     C46242   1.689   1.428   4.016 -0.4603 -0.6323 -0.0174
  351MOL0     C46243   1.744   1.327   4.112 -0.4200 -0.1416  0.3906
  351MOL0    Cl46244   1.913   1.305   4.090  0.0972 -0.1868  0.1308
  351MOL0     C46245   0.823   1.709   3.948 -0.0280 -0.1602 -0.2393
  351MOL0     C46246   0.688   1.728   3.982  0.2018 -0.6441 -0.4580
  351MOL0     O46247   0.451   1.857   4.080  0.2862  0.3714  0.6248
  351MOL0     C46248   0.168   1.769   3.890 -0.0554 -0.3961  0.5747
  351MOL0     C46249   0.029   1.741   3.896 -0.0733 -0.7485  0.2293
  351MOL0     N46250  -0.692   1.686   4.114  0.1854  0.0530  0.1580
  351MOL0     N46251  -0.807   1.647   4.142  0.7734 -1.0299 -0.3573
  351MOL0     C46252  -0.273   1.274   3.658 -0.2212 -0.5209  0.3040
  351MOL0     C46253  -0.134   1.273   3.633 -0.0921 -0.5139  0.0002
  351MOL0     C46254   0.306   1.211   3.682  0.2504 -0.0374 -0.0005
  351MOL0     C46255   0.355   1.163   3.560 -0.5157 -0.3736 -0.4267
  351MOL0     C46256   0.494   1.168   3.542 -0.1441  0.2964 -0.1207
  351MOL0     C46257   0.586   1.219   3.639 -0.1195 -0.3959 -0.1182
  351MOL0     O46258   0.724   1.225   3.634 -0.4024  0.3448 -0.4031
  351MOL0     C46259   0.773   1.160   3.520 -0.2842 -0.9961  0.0159
  351MOL0     C46260   0.922   1.198   3.515  0.7894  0.1452  0.6802
  351MOL0     C46261   1.016   1.134   3.621 -0.0716  0.2166  0.1443
  351MOL0     C46262   1.160   1.164   3.591  0.5154  0.5591 -0.7843
  351MOL0     C46263   1.237   1.127   3.709  0.0540  0.4109 -1.1616
  351MOL0     C46264   1.296   1.079   3.810  0.3884 -0.0758  0.7592
  351MOL0     C46265   0.527   1.281   3.750 -0.2566  0.3661 -0.8215
  351MOL0     C46266   0.388   1.280   3.773 -0.5201  0.3222 -0.5214
  351MOL0     H46267  -0.082   0.940   3.635  1.6512  1.2829 -1.5429
  351MOL0     H46268  -0.312   0.943   3.706 -2.0829  0.9669 -0.4190
  351MOL0     H46269  -0.663   1.171   3.713  0.7376 -2.0379  1.1484
  351MOL0     H46270  -0.576   1.286   3.630 -2.8395  0.3726 -0.3039
  351MOL0     H46271  -0.490   1.350   3.864  0.4742 -3.5314 -0.3764
  351MOL0     H46272  -0.605   1.241   3.936  0.9152  0.4383  0.7241
  351MOL0     H46273  -0.689   1.479   3.775 -1.7466 -0.3526 -0.7644
  351MOL0     H46274  -0.713   1.450   3.952 -2.4451 -0.6883  1.0028
  351MOL0     H46275  -0.821   1.327   3.702  0.3890 -0.9712  0.1566
  351MOL0     H46276  -0.831   1.218   3.837 -1.6511 -0.5714 -0.1209
  351MOL0     H46277  -1.045   1.351   3.812 -1.4467  1.7053 -0.2009
  351MOL0     H46278  -0.952   1.501   3.822 -1.5381 -1.1706 -2.4045
  351MOL0     H46279  -0.891   1.406   4.068 -1.8382  1.4863  3.0880
  351MOL0     H46280  -1.009   1.283   4.023  2.7982 -0.1111 -0.6226
  351MOL0     H46281  -1.177   1.466   3.992 -0.9518  0.3793  1.5434
  351MOL0     H46282  -1.094   1.488   4.151 -1.7193  1.9832  0.0322
  351MOL0     H46283  -1.096   1.714   4.068  1.2630  2.8647 -2.3935
  351MOL0     H46284  -1.061   1.663   3.910  0.6520 -0.1882 -0.4127
  351MOL0     H46285  -0.854   1.790   3.846 -2.0662  2.0949  0.7404
  351MOL0     H46286  -0.535   1.875   3.991 -4.4364  4.2681 -2.3864
  351MOL0     H46287  -0.601   1.838   3.835 -1.2853  2.8981  1.1678
  351MOL0     H46288  -0.509   1.625   3.819  1.0424 -0.6141 -0.0383
  351MOL0     H46289  -0.436   1.637   3.985 -1.2100  4.0155  3.1817
  351MOL0     H46290  -0.272   1.668   3.792  0.0823  0.0829  0.8610
  351MOL0     H46291  -0.366   1.809   3.744  1.6243  0.1743 -0.0514
  351MOL0     H46292  -0.321   1.916   3.972 -1.0557  0.9198 -3.2038
  351MOL0     H46293  -0.182   1.902   3.867 -1.8464  2.4372 -0.1860
  351MOL0     H46294  -0.007   1.790   4.230 -4.2139  2.7847 -1.2717
  351MOL0     H46295   0.227   1.803   4.221  0.0642 -0.1504  0.1721
  351MOL0     H46296   0.533   1.589   3.718  0.7527 -1.6704 -0.7349
  351MOL0     H46297   0.771   1.516   3.668  0.1773  0.8833 -0.7748
  351MOL0     H46298   1.073   1.405   3.779  0.1636  0.8080 -0.5073
  351MOL0     H46299   0.928   1.382   3.872  0.8122  0.7212  0.8250
  351MOL0     H46300   1.106   1.371   4.033 -0.0581  1.9982  2.0647
  351MOL0     H46301   1.042   1.535   4.052  3.2112  2.1834  0.1299
  351MOL0     H46302   1.286   1.534   4.063  1.8088  0.5056 -0.1721
  351MOL0     H46303   1.227   1.619   3.923  2.2277 -0.4117  2.8329
  351MOL0     H46304   1.292   1.331   3.879  1.1147  0.2143  1.1888
  351MOL0     H46305   1.281   1.466   3.770 -0.5265  3.9629  0.4946
  351MOL0     H46306   1.491   1.561   3.852 -0.6829  0.8309  2.5571
  351MOL0     H46307   1.520   1.386   3.817 -1.1487  0.9488 -0.6530
  351MOL0     H46308   1.503   1.341   4.075  2.8238 -0.5949  0.9468
  351MOL0     H46309   1.524   1.521   4.107 -0.1327  1.4839 -1.4456
  351MOL0     H46310   1.720   1.402   3.914  1.1217 -1.7650  0.7003
  351MOL0     H46311   1.741   1.520   4.044 -2.6319  1.5014 -2.4520
  351MOL0     H46312   1.696   1.234   4.081  1.1820 -0.9398  0.1934
  351MOL0     H46313   1.717   1.363   4.212  1.3251  1.9620  0.1879
  351MOL0     H46314   0.909   1.749   4.000  0.8957 -1.5575 -0.6465
  351MOL0     H46315   0.663   1.785   4.071  1.0928 -0.2128 -0.4689
  351MOL0     H46316   0.222   1.756   3.797  1.1387  0.7262  1.0844
  351MOL0     H46317  -0.023   1.704   3.808 -0.7440 -0.9293  0.6956
  351MOL0     H46318  -0.314   1.373   3.671  0.8543  0.0876 -0.6916
  351MOL0     H46319  -0.093   1.373   3.632 -0.5262 -0.3363 -0.2954
  351MOL0     H46320   0.290   1.095   3.506  0.2186 -2.2247  0.9089
  351MOL0     H46321   0.532   1.128   3.449 -1.8471 -0.8602 -0.3695
  351MOL0     H46322   0.733   1.196   3.425 -0.3302  2.6249  1.2455
  351MOL0     H46323   0.760   1.053   3.534 -3.1979 -0.5598  1.5135
  351MOL0     H46324   0.962   1.163   3.420  1.6822 -0.8161  1.3804
  351MOL0     H46325   0.945   1.304   3.502  0.3603  0.1108 -0.4339
  351MOL0     H46326   1.002   1.027   3.638  0.8474  0.2945  1.5198
  351MOL0     H46327   0.990   1.188   3.713  0.8716  2.3878 -0.7951
  351MOL0     H46328   1.179   1.108   3.499 -2.8521  0.7458 -1.7475
  351MOL0     H46329   1.169   1.272   3.577 -1.7838  0.3792 -5.7032
  351MOL0     H46330   1.354   1.059   3.898 -0.0005  0.9154  1.2545
  351MOL0     H46331   0.597   1.329   3.818 -0.6166  2.1094 -1.6062
  351MOL0     H46332   0.351   1.321   3.867 -0.3776 -1.8392  0.5559
  352MOL0     O46333   9.901   8.846   3.087 -0.6690  0.1779  0.3892
  352MOL0     C46334  10.006   8.908   3.060 -0.2522  1.1507 -0.9414
  352MOL0     O46335  10.048   9.020   3.124 -0.1318 -0.0031 -0.0683
  352MOL0     C46336   9.997   9.038   3.249 -0.3606  0.2317 -0.3416
  352MOL0     C46337  10.079   9.068   3.356  0.0974  0.9417 -0.3120
  352MOL0     C46338  10.035   9.083   3.487  0.1375  1.2560  0.0518
  352MOL0     C46339   9.903   9.084   3.520  0.2821  0.4325  0.2299
  352MOL0     O46340   9.872   9.112   3.651  0.4020  0.4580  0.5775
  352MOL0     C46341   9.731   9.136   3.684  0.3810 -0.1449  0.4454
  352MOL0     C46342   9.701   9.192   3.830  0.0119  0.0180  0.0820
  352MOL0     C46343   9.556   9.204   3.871 -0.5490 -0.2576  0.5685
  352MOL0     C46344   9.465   9.294   3.773  0.5314 -0.2105 -0.4551
  352MOL0     C46345   9.325   9.305   3.818  0.5807  0.3603  0.2353
  352MOL0     C46346   9.223   9.371   3.722 -0.5232 -0.8504 -0.4443
  352MOL0     C46347   9.199   9.299   3.591  0.3180 -0.2390  0.3694
  352MOL0     C46348   9.109   9.367   3.486 -0.7320 -0.3174  0.1463
  352MOL0     N46349   9.117   9.290   3.366  0.2446 -0.1381  0.1637
  352MOL0     C46350   9.072   9.161   3.338  0.5703 -0.7848  0.1244
  352MOL0     C46351   9.127   9.135   3.217 -0.7966 -0.5436  0.1396
  352MOL0     C46352   9.131   9.013   3.133  0.6280 -0.2182  0.7682
  352MOL0     C46353   9.212   8.895   3.194 -0.8840  1.1324 -0.7061
  352MOL0     C46354   9.358   8.923   3.241 -0.2377  0.3781 -1.0209
  352MOL0     C46355   9.442   9.005   3.133  0.6981  0.4055 -0.2422
  352MOL0     O46356   9.418   8.932   3.015 -0.6392 -0.0373 -0.1682
  352MOL0     C46357   9.440   8.981   2.888  0.1163 -0.6119 -0.2845
  352MOL0     C46358   9.441   8.901   2.775 -0.3808 -0.1767 -0.2786
  352MOL0     C46359   9.460   8.949   2.645  0.2891  0.3530  0.5728
  352MOL0     C46360   9.497   9.082   2.631  0.2046 -0.5433 -1.3043
  352MOL0     C46361   9.539   9.137   2.497 -0.2588  0.0639  0.7378
  352MOL0     O46362   9.593   9.263   2.499  0.3135  0.7667 -0.3860
  352MOL0     C46363   9.663   9.313   2.399 -0.3961  0.4066  0.2229
  352MOL0     C46364   9.658   9.454   2.368 -0.1834  0.3956  0.2446
  352MOL0     C46365   9.719   9.503   2.247 -0.7250  0.0154  0.1054
  352MOL0     C46366   9.809   9.425   2.170 -0.0183  0.5959 -0.6597
  352MOL0     O46367   9.887   9.482   2.070 -0.0838  0.2189  0.1993
  352MOL0     C46368   9.966   9.595   2.114  0.0968  0.5130 -0.3801
  352MOL0     C46369  10.014   9.675   2.003 -1.0328  0.3511 -1.1605
  352MOL0     C46370  10.117   9.607   1.919 -0.4147  0.3208  0.0303
  352MOL0     C46371  10.170   9.692   1.808 -1.0609 -0.9470  0.2717
  352MOL0     C46372  10.300   9.645   1.749 -0.0096  0.0772 -0.0947
  352MOL0     C46373  10.306   9.677   1.597  0.1933 -0.0081 -0.8888
  352MOL0     C46374  10.399   9.582   1.528 -0.5748 -0.1625 -0.8068
  352MOL0     C46375  10.375   9.561   1.383 -0.7222  0.5990  0.0454
  352MOL0    Cl46376  10.381   9.713   1.299 -0.1792 -0.1037 -0.2173
  352MOL0     C46377   9.817   9.289   2.208  0.8715  0.1482 -0.1844
  352MOL0     C46378   9.749   9.230   2.323 -0.2992 -0.8555  0.5745
  352MOL0     O46379   9.516   9.073   2.387  0.2390 -0.0376 -0.2013
  352MOL0     C46380   9.485   9.167   2.742 -0.1138 -0.3438 -0.5140
  352MOL0     C46381   9.469   9.118   2.869 -0.3702  1.3847 -0.0223
  352MOL0     N46382   9.195   9.255   3.167  1.3237  0.8151  0.0390
  352MOL0     N46383   9.178   9.346   3.253 -0.5873  0.1163 -0.3792
  352MOL0     C46384   9.807   9.064   3.418 -0.2330  0.1025  0.7663
  352MOL0     C46385   9.859   9.062   3.283 -0.4678  0.1979 -1.1024
  352MOL0     C46386  10.098   8.863   2.959 -0.0517 -0.2635 -0.3272
  352MOL0     C46387  10.226   8.904   2.960 -0.7711 -0.4049 -0.3301
  352MOL0     C46388  10.315   8.886   2.862 -0.1460  0.9815  1.0119
  352MOL0     C46389  10.282   8.800   2.757 -0.3673 -0.1230  0.4301
  352MOL0     O46390  10.363   8.787   2.641  0.3217  0.7439 -0.7071
  352MOL0     C46391  10.505   8.809   2.657  0.6392 -0.2904  0.6607
  352MOL0     C46392  10.561   8.713   2.552  0.2233  0.1780 -0.7428
  352MOL0     C46393  10.543   8.762   2.417  0.2908  0.1263  0.0348
  352MOL0     C46394  10.411   8.731   2.337  0.6195  0.3669 -0.0486
  352MOL0     C46395  10.396   8.786   2.195 -0.2351  0.5015 -0.8443
  352MOL0     C46396  10.385   8.826   2.083 -0.6027 -0.7126 -0.5813
  352MOL0     C46397  10.153   8.745   2.745  1.3793 -0.0336 -0.1121
  352MOL0     C46398  10.064   8.778   2.852 -0.3436  0.3493 -0.5474
  352MOL0     H46399  10.185   9.076   3.334  0.0708  1.6515 -0.2146
  352MOL0     H46400  10.106   9.086   3.569 -1.8882  0.7514  1.8928
  352MOL0     H46401   9.666   9.050   3.665 -0.1962  0.5962 -1.1261
  352MOL0     H46402   9.682   9.200   3.609 -2.4726 -2.5188  0.0914
  352MOL0     H46403   9.750   9.290   3.822  1.8327 -0.9343 -1.1967
  352MOL0     H46404   9.753   9.126   3.900 -1.6418  0.7123  2.0893
  352MOL0     H46405   9.544   9.235   3.975  0.4434 -0.2691  0.6963
  352MOL0     H46406   9.514   9.103   3.861 -1.2740  0.0231  0.6806
  352MOL0     H46407   9.510   9.393   3.763  0.2728 -0.0410  0.0327
  352MOL0     H46408   9.468   9.237   3.680 -1.1914 -0.1041 -0.5974
  352MOL0     H46409   9.323   9.351   3.917  2.0092  2.0880 -0.4764
  352MOL0     H46410   9.287   9.202   3.824 -1.5386  1.1146  0.6197
  352MOL0     H46411   9.250   9.476   3.707 -1.9153 -0.6211 -1.5612
  352MOL0     H46412   9.126   9.373   3.774 -0.7826  2.1050 -0.8501
  352MOL0     H46413   9.301   9.297   3.551  0.3241 -2.4610  0.3683
  352MOL0     H46414   9.174   9.194   3.607  2.4778 -0.7119  0.9062
  352MOL0     H46415   9.166   9.460   3.473  2.1282 -1.7271  1.7118
  352MOL0     H46416   9.008   9.398   3.516 -0.6748  1.5733 -1.3871
  352MOL0     H46417   9.020   9.086   3.397  3.6317 -4.5697 -1.5714
  352MOL0     H46418   9.165   9.037   3.032 -3.5671  1.9082 -0.3530
  352MOL0     H46419   9.025   8.988   3.118  0.5545  0.4025  0.1841
  352MOL0     H46420   9.208   8.811   3.124  1.8676 -0.3380  0.7222
  352MOL0     H46421   9.154   8.840   3.269 -0.1421  0.2924 -0.7280
  352MOL0     H46422   9.354   8.974   3.338  1.8746 -2.0709  0.4925
  352MOL0     H46423   9.407   8.826   3.255  0.9836  0.3566 -4.5881
  352MOL0     H46424   9.545   9.014   3.170  0.4747  0.1913  0.4488
  352MOL0     H46425   9.403   9.107   3.125  1.7491  1.0354  1.9355
  352MOL0     H46426   9.415   8.798   2.799  0.8222 -0.0408  1.9359
  352MOL0     H46427   9.463   8.879   2.562 -3.0103  1.5816 -0.7699
  352MOL0     H46428   9.608   9.523   2.435 -0.0585  0.3000  0.4395
  352MOL0     H46429   9.694   9.605   2.218 -0.6231 -0.7462 -3.0377
  352MOL0     H46430  10.046   9.575   2.185 -2.3233 -1.2218  2.0695
  352MOL0     H46431   9.893   9.660   2.164 -0.8202  1.8912 -3.2651
  352MOL0     H46432  10.049   9.773   2.038  0.4025 -1.0250  1.6299
  352MOL0     H46433   9.929   9.691   1.936 -4.3146  1.9363  2.9340
  352MOL0     H46434  10.072   9.521   1.869 -0.3066 -1.4960  2.8536
  352MOL0     H46435  10.203   9.572   1.977  0.3359  0.9554 -0.6717
  352MOL0     H46436  10.094   9.695   1.730 -0.9500  0.4443  0.1943
  352MOL0     H46437  10.181   9.798   1.832 -5.4628  0.3167 -2.3025
  352MOL0     H46438  10.312   9.537   1.764 -2.1282 -0.4179 -1.4794
  352MOL0     H46439  10.376   9.700   1.806  1.5482  0.5461 -2.4975
  352MOL0     H46440  10.339   9.781   1.595  1.2996 -0.2595  1.1471
  352MOL0     H46441  10.208   9.676   1.548  0.6075  0.4529 -1.7523
  352MOL0     H46442  10.499   9.604   1.566 -0.9020 -2.2676  1.5431
  352MOL0     H46443  10.378   9.484   1.572 -3.0122  0.3576 -0.6208
  352MOL0     H46444  10.277   9.517   1.367  0.8708 -2.3949 -2.6663
  352MOL0     H46445  10.450   9.490   1.345 -3.2574 -1.7729 -0.8234
  352MOL0     H46446   9.888   9.227   2.154  1.4605  2.5770 -2.4194
  352MOL0     H46447   9.759   9.123   2.339  2.8445 -0.6293  0.8141
  352MOL0     H46448   9.516   9.271   2.730  0.1485 -0.2787  0.5575
  352MOL0     H46449   9.479   9.185   2.953 -1.0925  0.6251  0.6875
  352MOL0     H46450   9.702   9.055   3.443 -0.7579 -1.0746 -1.5585
  352MOL0     H46451   9.779   9.046   3.211 -1.7231 -0.9152  0.4655
  352MOL0     H46452  10.265   8.963   3.042  0.7212 -2.4079  0.4917
  352MOL0     H46453  10.411   8.937   2.863  0.8928 -0.8072 -1.2405
  352MOL0     H46454  10.549   8.786   2.754 -0.9996 -1.6331  1.1328
  352MOL0     H46455  10.517   8.915   2.630  2.7296 -0.4548  0.8164
  352MOL0     H46456  10.665   8.692   2.581 -0.2125 -0.6998  0.2501
  352MOL0     H46457  10.516   8.613   2.555  0.8102 -0.0796  2.1936
  352MOL0     H46458  10.628   8.720   2.362  1.2309 -0.0521  1.5635
  352MOL0     H46459  10.554   8.871   2.426 -1.4973  0.2082  1.6084
  352MOL0     H46460  10.409   8.622   2.337  0.4117  0.2593  3.2694
  352MOL0     H46461  10.320   8.760   2.392 -1.7064 -3.1769 -1.7043
  352MOL0     H46462  10.381   8.880   1.990 -3.9686  3.6518  1.7013
  352MOL0     H46463  10.115   8.691   2.658 -0.4771  1.6415 -0.4182
  352MOL0     H46464   9.964   8.736   2.847 -0.2425  0.0358  0.0264
  353MOL0     O46465   5.119   8.015   9.403 -0.3009  0.2057 -0.0104
  353MOL0     C46466   5.194   8.021   9.499  0.6010  0.7164 -0.6609
  353MOL0     O46467   5.324   8.046   9.494  0.0410 -0.4664 -0.0941
  353MOL0     C46468   5.392   8.082   9.377  0.1040  0.3567 -0.9514
  353MOL0     C46469   5.450   7.978   9.292 -0.4193 -0.3103 -0.3638
  353MOL0     C46470   5.531   8.021   9.190 -0.3256  1.3864  0.4429
  353MOL0     C46471   5.552   8.154   9.168  0.0966  0.3277  0.3460
  353MOL0     O46472   5.641   8.213   9.088  0.1171  0.1950  0.1702
  353MOL0     C46473   5.659   8.159   8.956 -0.5268 -1.1157 -0.4923
  353MOL0     C46474   5.527   8.147   8.871 -0.1963  0.2175  0.2757
  353MOL0     C46475   5.556   8.052   8.747 -0.3657 -0.3855  0.7828
  353MOL0     C46476   5.428   8.008   8.675  0.3439  0.0223 -0.0452
  353MOL0     C46477   5.394   8.103   8.568 -0.3982  0.6660 -0.1052
  353MOL0     C46478   5.271   8.054   8.493 -0.3706 -1.1266 -0.3973
  353MOL0     C46479   5.272   7.918   8.434 -0.5685 -0.1294  0.0773
  353MOL0     C46480   5.171   7.895   8.313 -0.0227  0.2606 -0.3857
  353MOL0     N46481   5.037   7.874   8.366 -0.0514  0.0253  0.2382
  353MOL0     C46482   4.948   7.969   8.409 -0.7481 -0.8444 -0.0003
  353MOL0     C46483   4.857   7.903   8.473 -0.2297  0.1906  0.5868
  353MOL0     C46484   4.716   7.958   8.521  0.4278 -0.3869 -0.7287
  353MOL0     C46485   4.724   8.029   8.656  0.5387  0.3427 -1.2040
  353MOL0     C46486   4.596   8.075   8.727 -1.2169  0.3649  0.7161
  353MOL0     C46487   4.534   8.202   8.659 -1.0283 -0.2529 -0.5622
  353MOL0     O46488   4.392   8.217   8.684 -0.2931 -0.2046  0.1438
  353MOL0     C46489   4.350   8.244   8.808  0.1626  0.0474  0.5212
  353MOL0     C46490   4.425   8.278   8.930  0.1095  0.6523 -0.3697
  353MOL0     C46491   4.349   8.302   9.051 -0.2274 -0.4386  0.2415
  353MOL0     C46492   4.214   8.297   9.062 -0.5398 -0.1511  0.2419
  353MOL0     C46493   4.154   8.313   9.197 -0.4108  0.1210 -0.7535
  353MOL0     O46494   4.241   8.281   9.306  1.1386  0.2197 -0.1760
  353MOL0     C46495   4.196   8.282   9.432  0.0298  0.3922 -0.8146
  353MOL0     C46496   4.067   8.245   9.472  0.0730  0.7888 -0.4382
  353MOL0     C46497   4.035   8.241   9.606  0.4008  0.2480 -0.1447
  353MOL0     C46498   4.133   8.282   9.695  0.3495 -0.2538 -0.2979
  353MOL0     O46499   4.086   8.298   9.822 -0.7699 -0.0365 -0.2907
  353MOL0     C46500   4.156   8.233   9.929 -0.4463 -0.1821  0.0072
  353MOL0     C46501   4.063   8.231  10.055 -1.0381  0.7503  1.3207
  353MOL0     C46502   3.953   8.128  10.035  0.2552  0.2181  0.0596
  353MOL0     C46503   3.849   8.144  10.146  0.3065  0.1107  0.0219
  353MOL0     C46504   3.742   8.029  10.150  0.5561 -0.1636  0.2070
  353MOL0     C46505   3.625   8.064  10.244  0.2487  0.4073 -0.8057
  353MOL0     C46506   3.539   7.942  10.261  0.9120 -0.4595 -0.4209
  353MOL0     C46507   3.436   7.949  10.382 -0.5954 -0.2334  0.2505
  353MOL0    Cl46508   3.511   7.913  10.539 -0.5117  0.1465 -0.2013
  353MOL0     C46509   4.268   8.310   9.657 -0.2361  0.1022 -0.3779
  353MOL0     C46510   4.303   8.302   9.523 -0.5465  0.2531 -1.0167
  353MOL0     O46511   4.033   8.348   9.206  0.2733  0.5436  0.0093
  353MOL0     C46512   4.143   8.274   8.939  0.2783 -0.1175  0.2364
  353MOL0     C46513   4.212   8.258   8.816 -0.1589 -0.1143 -0.6960
  353MOL0     N46514   4.898   7.772   8.482  0.3192  0.3307 -0.2829
  353MOL0     N46515   5.004   7.762   8.419 -0.0081 -0.1845  0.7778
  353MOL0     C46516   5.495   8.252   9.250 -0.7508  0.4575  0.6485
  353MOL0     C46517   5.410   8.215   9.355 -0.0595 -0.6254 -0.0646
  353MOL0     C46518   5.123   7.993   9.625  1.0555  0.1149  0.2631
  353MOL0     C46519   5.195   8.021   9.740 -0.3321  0.0146  1.2380
  353MOL0     C46520   5.140   8.018   9.865 -0.4310  0.4632 -0.2852
  353MOL0     C46521   5.007   7.984   9.880 -0.4024  0.2594  0.8305
  353MOL0     O46522   4.958   7.988  10.007  0.3927 -0.2987  0.1572
  353MOL0     C46523   4.847   7.905  10.041 -0.8007 -0.2879  0.1983
  353MOL0     C46524   4.843   7.873  10.186  0.1667  0.7618  0.5855
  353MOL0     C46525   4.715   7.798  10.230 -0.5975 -0.1827 -0.4426
  353MOL0     C46526   4.733   7.740  10.370 -0.9929 -0.0951 -0.3688
  353MOL0     C46527   4.630   7.651  10.409  0.0104  0.3853 -0.5599
  353MOL0     C46528   4.531   7.593  10.447  0.5070 -0.5818  0.3152
  353MOL0     C46529   4.930   7.947   9.765 -0.5184 -0.4986 -0.1173
  353MOL0     C46530   4.985   7.963   9.636 -0.4857 -0.3333 -0.6862
  353MOL0     H46531   5.431   7.872   9.302  3.1148 -1.0844 -0.4877
  353MOL0     H46532   5.567   7.943   9.124 -1.0556 -0.7150  2.3823
  353MOL0     H46533   5.713   8.064   8.960  1.0366 -0.2082  1.7589
  353MOL0     H46534   5.737   8.215   8.905  0.8782 -1.9761  0.6405
  353MOL0     H46535   5.495   8.245   8.833  0.0626  0.9263  1.7826
  353MOL0     H46536   5.445   8.107   8.931 -1.5395  0.1557 -1.5009
  353MOL0     H46537   5.608   7.965   8.789 -1.8207  0.1589  4.0791
  353MOL0     H46538   5.618   8.102   8.671 -0.1606 -0.1656  1.0874
  353MOL0     H46539   5.448   7.913   8.624  0.4523  1.4414 -2.8166
  353MOL0     H46540   5.345   8.003   8.746 -0.4554  2.3412 -0.7253
  353MOL0     H46541   5.486   8.105   8.508 -0.7609 -1.4552 -0.8303
  353MOL0     H46542   5.371   8.207   8.591 -1.3519  0.7501 -1.3843
  353MOL0     H46543   5.253   8.125   8.412  0.6957 -0.8917 -0.4434
  353MOL0     H46544   5.186   8.061   8.562 -0.4581  0.2951 -0.6253
  353MOL0     H46545   5.373   7.888   8.406 -1.0677 -0.8878 -1.0062
  353MOL0     H46546   5.240   7.858   8.520  2.0151 -2.4249 -0.4342
  353MOL0     H46547   5.200   7.798   8.273  1.0415  0.2369  0.3877
  353MOL0     H46548   5.178   7.972   8.236 -4.0497  1.3627  0.0906
  353MOL0     H46549   4.953   8.076   8.392 -0.2152 -0.1224  3.8475
  353MOL0     H46550   4.646   7.874   8.531 -1.4369  1.1818 -0.1190
  353MOL0     H46551   4.668   8.023   8.447  1.6219  0.9694 -0.3534
  353MOL0     H46552   4.780   8.122   8.644 -3.4146  3.3698  1.2134
  353MOL0     H46553   4.784   7.966   8.722 -0.2394  2.1664  1.3772
  353MOL0     H46554   4.522   7.994   8.727 -1.0904  0.1867  2.9673
  353MOL0     H46555   4.616   8.096   8.833 -0.4085  1.4372  0.3680
  353MOL0     H46556   4.553   8.195   8.552 -1.3199 -3.5840 -0.4966
  353MOL0     H46557   4.590   8.290   8.693  0.2259 -0.6745 -1.4434
  353MOL0     H46558   4.533   8.280   8.924  0.1897 -0.0593  0.6045
  353MOL0     H46559   4.398   8.328   9.144 -2.0679 -1.3293  1.5107
  353MOL0     H46560   3.987   8.222   9.403  0.2023  1.5272 -0.8466
  353MOL0     H46561   3.935   8.217   9.642  1.9504 -3.7529  2.0885
  353MOL0     H46562   4.242   8.291   9.965 -0.7061 -0.6012  1.3361
  353MOL0     H46563   4.189   8.134   9.898 -1.4443 -0.6497  0.4071
  353MOL0     H46564   4.026   8.331  10.078 -0.7426  1.8853 -2.3530
  353MOL0     H46565   4.125   8.200  10.140  1.0610  0.4360 -0.2226
  353MOL0     H46566   3.996   8.027  10.038 -0.6217 -0.1854 -0.4659
  353MOL0     H46567   3.900   8.156   9.944  2.0339  1.9014 -0.5418
  353MOL0     H46568   3.899   8.146  10.244  3.2919 -2.7068 -1.2479
  353MOL0     H46569   3.796   8.237  10.128  2.2218  1.7083  2.0140
  353MOL0     H46570   3.782   7.934  10.186 -4.0424 -1.4835  2.7657
  353MOL0     H46571   3.699   8.009  10.052 -0.8399 -1.8688  1.0926
  353MOL0     H46572   3.566   8.146  10.202  0.6099  0.1416 -1.8773
  353MOL0     H46573   3.659   8.107  10.338 -1.0471 -0.5515  0.1312
  353MOL0     H46574   3.484   7.935  10.166  1.0923  0.0227 -0.5676
  353MOL0     H46575   3.596   7.852  10.286  0.5001 -1.3737 -2.5177
  353MOL0     H46576   3.344   7.889  10.375 -0.9136  0.0097  1.7828
  353MOL0     H46577   3.410   8.055  10.392  0.5357  0.1267 -0.5515
  353MOL0     H46578   4.345   8.332   9.729  0.1810  1.3337 -1.1667
  353MOL0     H46579   4.406   8.306   9.490  0.4168 -3.7830  0.8461
  353MOL0     H46580   4.036   8.257   8.953  0.1410 -4.4270 -3.6698
  353MOL0     H46581   4.153   8.237   8.728 -1.9149  0.7437  0.2121
  353MOL0     H46582   5.509   8.360   9.249  0.5544  0.2949 -0.1482
  353MOL0     H46583   5.367   8.282   9.429 -0.8754 -3.1471  1.9221
  353MOL0     H46584   5.293   8.068   9.740  0.4395 -1.3356 -1.6431
  353MOL0     H46585   5.193   8.068   9.945  0.7965  0.8215 -1.2977
  353MOL0     H46586   4.845   7.807   9.992 -0.3811 -0.3128  0.2304
  353MOL0     H46587   4.762   7.966  10.011  1.0105  0.9541 -2.7718
  353MOL0     H46588   4.927   7.808  10.209 -2.0838 -2.3042  0.8197
  353MOL0     H46589   4.865   7.964  10.243 -1.6626  1.5344  0.1377
  353MOL0     H46590   4.692   7.709  10.171  2.3614 -2.1601  1.1445
  353MOL0     H46591   4.635   7.872  10.222  1.7939  3.3325  3.5513
  353MOL0     H46592   4.827   7.685  10.361 -0.6598  0.2973  0.5516
  353MOL0     H46593   4.749   7.815  10.448  1.3070  0.7644 -1.5766
  353MOL0     H46594   4.434   7.558  10.475 -0.0158  0.5904  0.0419
  353MOL0     H46595   4.824   7.925   9.779 -0.5360  1.0395  2.9063
  353MOL0     H46596   4.929   7.954   9.543 -0.0195  0.2455 -1.0283
  354MOL0     O46597  11.208   8.643   5.392 -0.6078 -0.0588 -0.0625
  354MOL0     C46598  11.229   8.764   5.372  1.4875  1.3970  0.1337
  354MOL0     O46599  11.153   8.868   5.414 -0.1447  0.3327 -1.1612
  354MOL0     C46600  11.024   8.863   5.460  0.5968 -0.2743  0.0618
  354MOL0     C46601  10.967   8.803   5.570 -0.0410  0.5990  0.5305
  354MOL0     C46602  10.838   8.809   5.608 -0.0667 -0.2128 -0.4533
  354MOL0     C46603  10.747   8.870   5.526  0.1397  0.1152 -0.2374
  354MOL0     O46604  10.611   8.874   5.562  0.7722  0.5894 -0.8608
  354MOL0     C46605  10.559   8.779   5.656 -0.4533  0.2970  0.2290
  354MOL0     C46606  10.399   8.789   5.654 -0.1397 -0.2110 -1.1048
  354MOL0     C46607  10.342   8.681   5.752  0.3713  0.0732  0.5659
  354MOL0     C46608  10.194   8.704   5.795  0.6487 -0.3532 -0.5355
  354MOL0     C46609  10.145   8.621   5.922 -0.4373 -0.3362  0.0801
  354MOL0     C46610  10.027   8.524   5.883  0.1808 -0.6414 -0.5216
  354MOL0     C46611   9.948   8.476   6.007  0.4114 -0.3781  0.1099
  354MOL0     C46612   9.813   8.424   5.952 -0.3429 -0.2879  0.3942
  354MOL0     N46613   9.718   8.402   6.063 -0.7644  0.9400 -0.2684
  354MOL0     C46614   9.671   8.280   6.103  0.0429 -0.1878  0.2651
  354MOL0     C46615   9.564   8.310   6.187  0.0905 -0.0763  0.3148
  354MOL0     C46616   9.489   8.201   6.258  0.3996  0.2030 -0.7078
  354MOL0     C46617   9.334   8.206   6.241 -0.6723 -0.2571  0.0824
  354MOL0     C46618   9.275   8.095   6.322  0.6978  0.4946 -1.0573
  354MOL0     C46619   9.141   8.052   6.259 -0.6970 -0.5629  0.4912
  354MOL0     O46620   9.072   7.975   6.362 -1.0136  0.2700 -0.6598
  354MOL0     C46621   8.950   7.927   6.338 -0.4672  0.1103 -0.0777
  354MOL0     C46622   8.845   8.008   6.295  0.3104  0.0945  0.2655
  354MOL0     C46623   8.715   7.953   6.290  0.6571 -0.9158 -1.0016
  354MOL0     C46624   8.687   7.828   6.331 -0.4586  0.2062  0.6093
  354MOL0     C46625   8.552   7.786   6.327 -0.1803 -0.4512 -0.7451
  354MOL0     O46626   8.535   7.662   6.276 -0.4575 -0.2254 -0.7604
  354MOL0     C46627   8.412   7.607   6.275  0.2825  0.0404  0.5288
  354MOL0     C46628   8.363   7.551   6.391 -0.3617 -0.4947 -0.4850
  354MOL0     C46629   8.241   7.498   6.392  0.3033  0.9928  0.7193
  354MOL0     C46630   8.161   7.497   6.275  0.3177  0.1573  0.3404
  354MOL0     O46631   8.032   7.441   6.262 -0.2064 -0.1342 -0.0504
  354MOL0     C46632   7.976   7.396   6.385 -0.1802  0.5308 -1.4159
  354MOL0     C46633   7.827   7.379   6.359  0.4469 -0.5673  0.6044
  354MOL0     C46634   7.743   7.498   6.336 -0.5912  0.3411 -0.0424
  354MOL0     C46635   7.741   7.599   6.446  0.3699 -0.1611 -0.0522
  354MOL0     C46636   7.656   7.718   6.388  0.7421 -0.5401 -0.5249
  354MOL0     C46637   7.598   7.809   6.492 -0.1549 -1.0975 -0.7757
  354MOL0     C46638   7.500   7.902   6.438 -0.2116 -0.6407  0.1330
  354MOL0     C46639   7.561   8.004   6.340  1.4456 -0.0038  0.0983
  354MOL0    Cl46640   7.630   8.130   6.439  0.2408  0.2788  0.3362
  354MOL0     C46641   8.214   7.539   6.157  0.0899 -0.7065  0.6376
  354MOL0     C46642   8.340   7.595   6.154 -1.1066  0.1853  0.9308
  354MOL0     O46643   8.465   7.865   6.357  0.8174  0.2444 -0.2879
  354MOL0     C46644   8.796   7.739   6.362  0.1212 -0.2028 -0.1122
  354MOL0     C46645   8.924   7.796   6.366  0.9527  0.7190 -0.9912
  354MOL0     N46646   9.567   8.451   6.208  0.2098 -0.3306  0.1543
  354MOL0     N46647   9.672   8.499   6.145  0.1197  0.8525  0.7579
  354MOL0     C46648  10.790   8.920   5.405 -0.2126 -0.1897  0.0543
  354MOL0     C46649  10.927   8.919   5.377 -0.6474  0.7897 -0.2608
  354MOL0     C46650  11.366   8.813   5.330  0.2143  0.3312  0.4788
  354MOL0     C46651  11.446   8.719   5.255 -0.2890 -0.0482 -0.4247
  354MOL0     C46652  11.567   8.754   5.217 -0.0815 -0.4729 -0.4601
  354MOL0     C46653  11.621   8.884   5.241  0.2435  0.8610 -0.1792
  354MOL0     O46654  11.745   8.913   5.188  0.0880 -0.7866 -0.1399
  354MOL0     C46655  11.780   9.051   5.179  0.0871 -0.4851 -0.1499
  354MOL0     C46656  11.890   9.068   5.074  0.6492 -0.1062 -0.8426
  354MOL0     C46657  11.913   9.206   5.020 -0.0914  0.3407 -0.1176
  354MOL0     C46658  12.014   9.208   4.903 -0.2171  0.5074 -0.2445
  354MOL0     C46659  12.055   9.337   4.865 -0.8920 -0.7513  0.9341
  354MOL0     C46660  12.106   9.447   4.840  0.0502 -0.4041  1.1852
  354MOL0     C46661  11.548   8.971   5.314  0.5970  0.6525  0.3343
  354MOL0     C46662  11.412   8.942   5.347  0.0494  0.1236  0.1819
  354MOL0     H46663  11.023   8.753   5.649 -2.9426 -1.4309  1.5071
  354MOL0     H46664  10.800   8.766   5.699 -3.8182 -0.1295 -1.8017
  354MOL0     H46665  10.592   8.810   5.755  3.5157 -1.4142 -0.3769
  354MOL0     H46666  10.600   8.680   5.636  2.7347  1.4507  0.4839
  354MOL0     H46667  10.353   8.777   5.555 -0.0628  5.9797 -2.2771
  354MOL0     H46668  10.361   8.880   5.701 -0.4717 -1.2578  0.7926
  354MOL0     H46669  10.413   8.673   5.834  1.2730  0.4433 -0.1618
  354MOL0     H46670  10.335   8.578   5.715 -1.1000 -0.7225  2.8433
  354MOL0     H46671  10.185   8.811   5.815 -0.0968 -0.0914 -2.0714
  354MOL0     H46672  10.122   8.690   5.713 -1.8278  0.6452  1.3334
  354MOL0     H46673  10.115   8.700   5.993 -2.4638  0.6919 -1.8071
  354MOL0     H46674  10.227   8.570   5.973  0.1005  0.2900 -0.1443
  354MOL0     H46675  10.073   8.439   5.832 -0.1133 -1.2411  0.2110
  354MOL0     H46676   9.954   8.577   5.820  1.5989  3.1260  0.6859
  354MOL0     H46677   9.999   8.392   6.055  1.2842  1.2793  2.2784
  354MOL0     H46678   9.929   8.554   6.082 -2.4679  0.9949 -1.8619
  354MOL0     H46679   9.829   8.336   5.889 -1.7542 -0.0852 -0.2798
  354MOL0     H46680   9.764   8.491   5.882 -1.3943 -1.3849  0.0503
  354MOL0     H46681   9.715   8.188   6.067 -0.7579  0.9095 -4.0789
  354MOL0     H46682   9.504   8.219   6.364 -0.6967  0.0964 -0.5253
  354MOL0     H46683   9.527   8.105   6.223  2.8952  1.3299 -1.3054
  354MOL0     H46684   9.303   8.184   6.138  1.3632  1.0235 -0.8669
  354MOL0     H46685   9.296   8.306   6.261 -1.9203 -0.8025  0.5393
  354MOL0     H46686   9.345   8.012   6.330  0.2718 -0.0972 -2.9635
  354MOL0     H46687   9.257   8.129   6.425 -0.9503  1.1267 -1.5179
  354MOL0     H46688   9.156   8.002   6.163 -3.1678  2.8355 -1.9372
  354MOL0     H46689   9.079   8.142   6.248 -1.2588 -0.9762  0.2421
  354MOL0     H46690   8.865   8.111   6.266  0.9917 -0.6821 -2.2060
  354MOL0     H46691   8.634   8.023   6.271  1.2826 -0.2403 -1.2226
  354MOL0     H46692   8.423   7.549   6.481  1.0792  1.3057 -1.3525
  354MOL0     H46693   8.213   7.464   6.491 -2.6491 -1.9364 -0.9384
  354MOL0     H46694   7.994   7.450   6.478 -1.8465  2.6485 -2.2412
  354MOL0     H46695   8.025   7.301   6.411 -4.2943 -1.7512 -1.1553
  354MOL0     H46696   7.785   7.326   6.445  0.4188 -0.5103  0.6251
  354MOL0     H46697   7.830   7.317   6.269  0.7183 -1.4483  1.2065
  354MOL0     H46698   7.641   7.462   6.318  0.6639 -3.3718 -0.7715
  354MOL0     H46699   7.778   7.545   6.244  0.5069 -2.4211 -1.1637
  354MOL0     H46700   7.708   7.555   6.541  2.5374 -0.2084  0.7302
  354MOL0     H46701   7.838   7.647   6.463  0.3445  0.4246 -1.4464
  354MOL0     H46702   7.572   7.666   6.341  1.8550 -0.2277 -3.0236
  354MOL0     H46703   7.715   7.762   6.307  0.2662  0.4907 -0.3223
  354MOL0     H46704   7.659   7.878   6.552 -2.4116 -0.7708  1.3196
  354MOL0     H46705   7.545   7.751   6.569  1.4989  0.7963  2.0029
  354MOL0     H46706   7.434   7.836   6.382 -0.2211  0.7772 -1.5998
  354MOL0     H46707   7.446   7.951   6.520  0.4530 -2.4725  1.7542
  354MOL0     H46708   7.484   8.045   6.275  1.4669 -3.5298 -2.4670
  354MOL0     H46709   7.629   7.947   6.276  3.1411 -2.6911  3.8767
  354MOL0     H46710   8.157   7.528   6.065  0.4062  3.9003 -0.3306
  354MOL0     H46711   8.380   7.621   6.056 -1.1493 -1.0704  0.5591
  354MOL0     H46712   8.778   7.638   6.398  0.6631 -1.4409 -3.0179
  354MOL0     H46713   9.004   7.729   6.397 -0.1159 -0.8104 -1.4365
  354MOL0     H46714  10.717   8.975   5.346 -1.5800 -0.0689  1.7822
  354MOL0     H46715  10.951   8.987   5.296 -1.0565  2.8050  1.2178
  354MOL0     H46716  11.404   8.621   5.236 -0.0922  0.0357 -1.3289
  354MOL0     H46717  11.618   8.679   5.159  3.0338 -1.1715  2.8463
  354MOL0     H46718  11.820   9.077   5.277  0.8117 -3.2585  0.3649
  354MOL0     H46719  11.691   9.109   5.151  2.4488  4.5283  1.5094
  354MOL0     H46720  11.985   9.027   5.110 -1.4516 -1.8953  3.4588
  354MOL0     H46721  11.840   9.015   4.992 -1.4082 -0.7193  0.7186
  354MOL0     H46722  11.958   9.251   5.109 -0.2049 -0.1181  0.1724
  354MOL0     H46723  11.820   9.255   4.988 -1.5616 -1.0173  1.8336
  354MOL0     H46724  12.098   9.142   4.929 -1.1881 -1.0077 -0.8296
  354MOL0     H46725  11.959   9.167   4.817  0.1486 -1.3007  0.3361
  354MOL0     H46726  12.142   9.548   4.831 -0.5018 -0.2094  1.0922
  354MOL0     H46727  11.582   9.068   5.349 -0.3636  0.9726  0.3932
  354MOL0     H46728  11.363   9.022   5.402  2.0662 -0.0363  2.3733
  355MOL0     O46729   8.233   5.490   4.199  0.6691  0.4374 -0.6994
  355MOL0     C46730   8.296   5.593   4.234  0.2954  1.0509 -0.4476
  355MOL0     O46731   8.240   5.711   4.266  0.3743 -0.1033  0.1112
  355MOL0     C46732   8.100   5.727   4.272  0.6075  0.5296  0.1881
  355MOL0     C46733   7.993   5.632   4.264 -0.4912  0.0641 -0.3314
  355MOL0     C46734   7.858   5.660   4.255  1.1357  0.0666 -1.2831
  355MOL0     C46735   7.821   5.800   4.270 -0.0555 -0.1883 -0.2065
  355MOL0     O46736   7.703   5.864   4.261 -0.2564 -0.4200 -0.0208
  355MOL0     C46737   7.584   5.788   4.233  1.8643  0.1115  0.2452
  355MOL0     C46738   7.476   5.880   4.179  0.0144 -0.3619 -0.0197
  355MOL0     C46739   7.362   5.786   4.139  0.0149 -0.2087 -0.0859
  355MOL0     C46740   7.237   5.872   4.126 -0.2561  0.8569 -0.3320
  355MOL0     C46741   7.108   5.783   4.111  0.4333  0.1133 -0.0547
  355MOL0     C46742   6.985   5.876   4.100 -0.7114 -0.0085 -0.8812
  355MOL0     C46743   6.864   5.783   4.089  0.7848 -0.4549 -0.8958
  355MOL0     C46744   6.734   5.863   4.106 -0.3787 -0.1308 -0.4336
  355MOL0     N46745   6.728   5.936   4.231 -0.3008  0.5444 -0.4599
  355MOL0     C46746   6.627   6.022   4.258  0.4465  0.0762 -0.5244
  355MOL0     C46747   6.621   6.034   4.395 -0.1063  0.3138  0.8971
  355MOL0     C46748   6.538   6.141   4.463  0.1767 -0.6799  0.6115
  355MOL0     C46749   6.411   6.070   4.528  0.1076 -0.0488 -0.0954
  355MOL0     C46750   6.308   6.189   4.552  0.3787 -0.6369 -0.9225
  355MOL0     C46751   6.357   6.308   4.646 -0.2860 -0.8533 -0.2871
  355MOL0     O46752   6.245   6.399   4.670 -0.9773  0.3224 -0.4681
  355MOL0     C46753   6.262   6.525   4.718 -0.4715  0.1257  0.7473
  355MOL0     C46754   6.364   6.563   4.809 -0.7438 -0.8691  0.1212
  355MOL0     C46755   6.376   6.693   4.843 -0.9209 -0.4822 -0.5981
  355MOL0     C46756   6.282   6.786   4.807  0.0939 -0.5832  0.0394
  355MOL0     C46757   6.272   6.928   4.854  0.2945  0.0996 -0.0353
  355MOL0     O46758   6.376   6.964   4.937  0.1615 -0.1450 -0.2065
  355MOL0     C46759   6.361   7.074   5.009  0.3445 -0.3080 -0.1535
  355MOL0     C46760   6.429   7.199   4.987  0.8674  0.1314  0.1039
  355MOL0     C46761   6.420   7.304   5.083 -0.1829 -0.6379 -0.0119
  355MOL0     C46762   6.346   7.280   5.197  0.9730 -0.0506  0.0427
  355MOL0     O46763   6.320   7.372   5.296  0.2724  0.2565 -0.4813
  355MOL0     C46764   6.352   7.509   5.270  1.2233  0.1358  0.8401
  355MOL0     C46765   6.264   7.604   5.359 -0.1202  0.7825 -0.2911
  355MOL0     C46766   6.238   7.549   5.498 -0.1849  0.7630 -0.0775
  355MOL0     C46767   6.179   7.655   5.590  0.1612  0.7071  0.2570
  355MOL0     C46768   6.040   7.706   5.561  0.7880  0.5163 -0.0723
  355MOL0     C46769   5.951   7.722   5.689 -0.7229  0.3355 -0.9551
  355MOL0     C46770   5.929   7.596   5.765  1.0582 -0.1737  0.8078
  355MOL0     C46771   5.809   7.601   5.863 -1.0819  0.5577  0.6224
  355MOL0    Cl46772   5.692   7.727   5.834  0.2959 -0.4899  0.0412
  355MOL0     C46773   6.287   7.150   5.224  0.4122  0.0155  0.2580
  355MOL0     C46774   6.295   7.053   5.127 -0.7034  0.7249  0.6558
  355MOL0     O46775   6.180   7.011   4.826  0.6651 -0.3555  0.0780
  355MOL0     C46776   6.172   6.745   4.730  0.1314  0.6211  0.1279
  355MOL0     C46777   6.167   6.613   4.680  0.0199  0.5882  0.6225
  355MOL0     N46778   6.711   5.949   4.451 -0.0305 -0.4099 -0.4125
  355MOL0     N46779   6.782   5.901   4.355  0.3317 -0.4240 -0.3105
  355MOL0     C46780   7.921   5.897   4.280  0.2538  0.4740  0.0525
  355MOL0     C46781   8.057   5.863   4.287 -0.0032 -0.8613 -0.9084
  355MOL0     C46782   8.446   5.575   4.242 -0.5849 -0.3481 -0.6208
  355MOL0     C46783   8.511   5.474   4.171 -0.5015  0.5348  1.5525
  355MOL0     C46784   8.646   5.450   4.175 -0.1616  0.5994  0.1179
  355MOL0     C46785   8.719   5.538   4.245  0.3157  0.1101 -0.3225
  355MOL0     O46786   8.858   5.545   4.261  0.7789  0.1595 -0.3329
  355MOL0     C46787   8.942   5.450   4.191  0.2198 -0.8390  0.2722
  355MOL0     C46788   9.089   5.453   4.246  1.4871  0.2536  0.3964
  355MOL0     C46789   9.201   5.413   4.140  0.6303 -1.0412 -0.4109
  355MOL0     C46790   9.271   5.537   4.100  0.3335 -0.9696 -1.0177
  355MOL0     C46791   9.187   5.638   4.037  0.6689 -0.7661  0.5787
  355MOL0     C46792   9.134   5.727   3.973  0.8635 -0.7994  0.1889
  355MOL0     C46793   8.667   5.643   4.313 -0.1989  0.4683  0.0761
  355MOL0     C46794   8.526   5.664   4.320 -0.1804  1.3025 -0.8561
  355MOL0     H46795   8.011   5.527   4.246  0.7735 -0.1802  1.8868
  355MOL0     H46796   7.776   5.592   4.238 -1.2626  2.0015  1.6143
  355MOL0     H46797   7.548   5.743   4.326 -0.6345 -0.4201 -0.9009
  355MOL0     H46798   7.606   5.705   4.165 -1.6667  1.7016 -3.2110
  355MOL0     H46799   7.505   5.930   4.086  1.3553 -2.1499 -0.6161
  355MOL0     H46800   7.457   5.950   4.262  1.0554 -3.0002  2.6280
  355MOL0     H46801   7.364   5.695   4.200 -1.7803 -0.8039 -0.8394
  355MOL0     H46802   7.389   5.740   4.044  2.5138  0.3165  0.2817
  355MOL0     H46803   7.234   5.932   4.217  2.0363 -0.9149  0.9912
  355MOL0     H46804   7.247   5.925   4.030  0.7331 -2.1027 -2.0119
  355MOL0     H46805   7.093   5.710   4.190  0.5336  0.0555 -0.0876
  355MOL0     H46806   7.119   5.725   4.019  2.3032 -2.0273  1.4195
  355MOL0     H46807   6.996   5.951   4.021  1.2314  3.3554  2.2432
  355MOL0     H46808   6.984   5.944   4.186 -0.5031 -1.0014 -0.0854
  355MOL0     H46809   6.868   5.726   3.996 -0.7422  0.3159 -1.4699
  355MOL0     H46810   6.872   5.708   4.169  0.7219  1.6161  1.1620
  355MOL0     H46811   6.649   5.800   4.081 -2.5375  2.8860 -1.2886
  355MOL0     H46812   6.740   5.932   4.020  1.9169 -0.5522 -0.6814
  355MOL0     H46813   6.574   6.081   4.185 -0.9775 -1.9377 -1.1984
  355MOL0     H46814   6.514   6.224   4.396 -0.4942 -0.8339  0.6485
  355MOL0     H46815   6.594   6.173   4.551  0.6751  0.3469 -0.0610
  355MOL0     H46816   6.425   6.018   4.623 -0.0822 -0.0830 -0.0855
  355MOL0     H46817   6.367   6.014   4.444  0.8079  0.9080 -1.1353
  355MOL0     H46818   6.288   6.239   4.457 -1.0454 -0.8780 -0.7732
  355MOL0     H46819   6.208   6.149   4.570 -0.3384  0.5489 -2.1275
  355MOL0     H46820   6.439   6.355   4.590 -1.4402  2.2662  0.4381
  355MOL0     H46821   6.382   6.267   4.744  0.7881 -2.3824 -1.1596
  355MOL0     H46822   6.420   6.483   4.857 -2.0071 -1.6276  0.3840
  355MOL0     H46823   6.446   6.723   4.920  0.5810  2.5508 -2.9412
  355MOL0     H46824   6.495   7.215   4.902  0.7635 -0.8642 -0.1826
  355MOL0     H46825   6.460   7.399   5.049 -0.8185  0.1520  1.3576
  355MOL0     H46826   6.343   7.527   5.163 -1.1126 -0.0041  0.9444
  355MOL0     H46827   6.459   7.519   5.289  1.2998  1.0312  0.0173
  355MOL0     H46828   6.173   7.625   5.303  0.9779  2.2103 -1.6196
  355MOL0     H46829   6.321   7.697   5.369  0.3324  0.8362 -2.7362
  355MOL0     H46830   6.329   7.511   5.547 -1.0896 -1.7007 -0.1768
  355MOL0     H46831   6.171   7.463   5.491  2.0710 -1.0339 -1.2233
  355MOL0     H46832   6.171   7.602   5.685 -1.5290  1.5370  0.6123
  355MOL0     H46833   6.241   7.745   5.604 -2.6088  2.5670  1.5299
  355MOL0     H46834   6.000   7.632   5.491 -1.0790  1.8407 -0.4853
  355MOL0     H46835   6.055   7.799   5.505  1.3668 -0.4011 -1.5095
  355MOL0     H46836   5.863   7.784   5.668 -0.3289  0.6893 -1.5766
  355MOL0     H46837   6.013   7.783   5.755 -1.5884 -0.1318  0.3364
  355MOL0     H46838   5.904   7.518   5.692 -2.8081 -0.1527  1.8986
  355MOL0     H46839   6.014   7.560   5.824  0.2595 -1.1105  1.4136
  355MOL0     H46840   5.859   7.616   5.959  1.2376  0.9152 -0.5610
  355MOL0     H46841   5.759   7.504   5.863 -4.2300  2.0228 -1.4406
  355MOL0     H46842   6.252   7.112   5.319  2.3725 -2.8916 -0.0361
  355MOL0     H46843   6.255   6.958   5.161 -0.7624  1.0962  1.6809
  355MOL0     H46844   6.101   6.820   4.696  1.0575  2.1428  1.3993
  355MOL0     H46845   6.080   6.576   4.627  0.0041 -1.4230  1.9254
  355MOL0     H46846   7.893   6.002   4.277 -1.7726 -0.0326 -0.4590
  355MOL0     H46847   8.128   5.944   4.302 -2.3001  1.0393  0.4557
  355MOL0     H46848   8.449   5.424   4.097  0.7064  0.0944  0.8104
  355MOL0     H46849   8.681   5.364   4.119  1.8873  1.6134 -0.2184
  355MOL0     H46850   8.935   5.471   4.084 -2.8377 -0.5008  0.4405
  355MOL0     H46851   8.894   5.352   4.200  0.3390 -1.1961 -2.1873
  355MOL0     H46852   9.109   5.544   4.304  0.8785 -1.4221  3.4677
  355MOL0     H46853   9.085   5.373   4.321 -3.4013 -1.0401 -0.8684
  355MOL0     H46854   9.160   5.365   4.051  0.0997 -0.9698 -0.2120
  355MOL0     H46855   9.273   5.342   4.182  0.0517 -0.8524  0.9674
  355MOL0     H46856   9.324   5.577   4.186  1.4107 -1.7834 -1.2809
  355MOL0     H46857   9.353   5.509   4.033  0.8617  0.6607 -1.0950
  355MOL0     H46858   9.101   5.812   3.916 -2.8682  0.0998  3.2218
  355MOL0     H46859   8.732   5.702   4.378  0.3953  0.8209 -0.8199
  355MOL0     H46860   8.476   5.723   4.396  0.2076 -0.4209  0.8365
  356MOL0     O46861   5.796   1.590   8.877 -0.0311 -0.3713  0.3939
  356MOL0     C46862   5.710   1.552   8.802  1.0905 -0.3243  0.0321
  356MOL0     O46863   5.729   1.542   8.664 -0.3307 -0.6671  0.2426
  356MOL0     C46864   5.849   1.508   8.615  0.4470 -0.7495  0.1113
  356MOL0     C46865   5.877   1.538   8.481 -0.2351  0.6592 -0.8710
  356MOL0     C46866   5.987   1.476   8.418 -0.0764  0.4753  0.3256
  356MOL0     C46867   6.089   1.404   8.487 -0.0822 -0.9447 -0.1902
  356MOL0     O46868   6.195   1.355   8.424  0.2843 -0.3784 -0.2954
  356MOL0     C46869   6.302   1.289   8.497  0.2098 -0.1858 -0.3517
  356MOL0     C46870   6.422   1.246   8.397  0.0316  0.5192 -0.0012
  356MOL0     C46871   6.549   1.224   8.467 -0.0854  0.6512  0.6377
  356MOL0     C46872   6.666   1.194   8.366 -0.0063  0.6085  0.1692
  356MOL0     C46873   6.795   1.136   8.430 -0.3947 -0.3545 -0.1600
  356MOL0     C46874   6.875   1.078   8.314  1.0349 -0.2277  0.0459
  356MOL0     C46875   7.015   1.023   8.350  0.2361  0.3326  0.9056
  356MOL0     C46876   7.116   1.128   8.405  0.3683  0.3033 -0.2875
  356MOL0     N46877   7.258   1.072   8.421 -0.2017  0.5711  0.4560
  356MOL0     C46878   7.311   0.953   8.366 -0.5222  0.3408 -0.2458
  356MOL0     C46879   7.426   0.938   8.438  0.2181  0.0532 -0.6355
  356MOL0     C46880   7.523   0.816   8.444  0.0671 -0.5496 -0.4840
  356MOL0     C46881   7.673   0.863   8.459 -0.8011  0.1683  0.1298
  356MOL0     C46882   7.770   0.785   8.366  0.5600  0.8628  0.2487
  356MOL0     C46883   7.778   0.639   8.396  0.3734 -0.3691  0.0386
  356MOL0     O46884   7.866   0.573   8.298 -0.0730 -0.7657 -0.3206
  356MOL0     C46885   7.890   0.442   8.312 -1.0111 -0.1766 -0.0874
  356MOL0     C46886   8.001   0.395   8.245 -0.1083  0.8775  0.5491
  356MOL0     C46887   8.041   0.261   8.254 -0.1418 -0.4568 -0.7712
  356MOL0     C46888   7.976   0.172   8.342 -0.1186  0.7286  1.0447
  356MOL0     C46889   8.003   0.033   8.341  0.7783  0.9128  0.2001
  356MOL0     O46890   8.060  -0.011   8.223 -0.8554 -0.3153  0.4524
  356MOL0     C46891   8.105  -0.135   8.192  0.0812 -0.8473 -1.0436
  356MOL0     C46892   8.093  -0.256   8.268 -0.0006  0.5172  0.4879
  356MOL0     C46893   8.151  -0.370   8.221  0.0029 -0.0006 -0.0479
  356MOL0     C46894   8.228  -0.379   8.102  0.1056  0.1028  0.6839
  356MOL0     O46895   8.273  -0.496   8.061 -0.0827 -0.3779 -0.0184
  356MOL0     C46896   8.270  -0.522   7.919 -1.1474 -0.3004  0.4819
  356MOL0     C46897   8.298  -0.669   7.897  0.1757  0.8326  0.9755
  356MOL0     C46898   8.451  -0.701   7.906 -0.2176 -0.6265 -0.8140
  356MOL0     C46899   8.493  -0.827   7.831  0.0955 -0.4232  0.0835
  356MOL0     C46900   8.403  -0.954   7.869 -0.2044  0.2249  0.4079
  356MOL0     C46901   8.465  -1.097   7.860  0.2636 -0.0711 -0.1925
  356MOL0     C46902   8.388  -1.179   7.756  0.1188  0.6345  0.2107
  356MOL0     C46903   8.453  -1.304   7.689  0.3293 -0.9524 -0.7604
  356MOL0    Cl46904   8.483  -1.439   7.795 -0.3847  0.0379  0.2010
  356MOL0     C46905   8.241  -0.255   8.029 -0.9815  0.4596  0.0725
  356MOL0     C46906   8.181  -0.143   8.078  0.3065  0.2035  1.3469
  356MOL0     O46907   7.971  -0.044   8.429 -0.2078  0.3692 -0.6255
  356MOL0     C46908   7.862   0.223   8.404 -1.0824  0.6206 -0.8803
  356MOL0     C46909   7.811   0.353   8.383 -0.3343  0.1764 -0.4766
  356MOL0     N46910   7.447   1.048   8.522 -0.3303 -0.4913  0.0336
  356MOL0     N46911   7.347   1.133   8.508  0.5943 -0.9128  0.7397
  356MOL0     C46912   6.060   1.398   8.624  0.4362 -0.1396  0.0808
  356MOL0     C46913   5.941   1.437   8.685 -1.0172 -0.3849 -0.3246
  356MOL0     C46914   5.574   1.534   8.855  0.1810  0.1852 -0.0004
  356MOL0     C46915   5.546   1.540   8.994  0.4270 -0.0767 -0.2798
  356MOL0     C46916   5.411   1.530   9.034 -0.4634 -1.0606 -0.1260
  356MOL0     C46917   5.318   1.501   8.934 -0.1368 -0.1715  0.0012
  356MOL0     O46918   5.196   1.489   8.994  0.3729  0.1521 -0.6225
  356MOL0     C46919   5.080   1.457   8.918 -0.8644  0.2844 -1.2593
  356MOL0     C46920   5.043   1.305   8.923 -0.2165  0.3090  1.0631
  356MOL0     C46921   5.150   1.216   8.847  1.2105  0.0793 -0.1349
  356MOL0     C46922   5.255   1.158   8.944 -0.2215  0.5643 -0.0836
  356MOL0     C46923   5.205   1.040   9.021  0.0495 -0.1210  0.9086
  356MOL0     C46924   5.151   0.957   9.098  0.9412 -0.6712  1.3316
  356MOL0     C46925   5.344   1.483   8.799 -0.8438  0.4433 -0.0670
  356MOL0     C46926   5.471   1.503   8.764 -0.3129  0.6249  0.1244
  356MOL0     H46927   5.803   1.596   8.428  0.4875  3.2029  0.6922
  356MOL0     H46928   5.999   1.494   8.311  1.1955 -0.2252  0.3359
  356MOL0     H46929   6.261   1.217   8.568 -0.8983  0.0792 -0.7095
  356MOL0     H46930   6.345   1.371   8.556 -0.1902 -0.5756  0.5077
  356MOL0     H46931   6.437   1.324   8.322  1.7095  0.0478 -0.1945
  356MOL0     H46932   6.392   1.156   8.343 -1.2097  0.7006  0.3532
  356MOL0     H46933   6.536   1.140   8.535 -1.4148 -0.5300 -0.9628
  356MOL0     H46934   6.574   1.306   8.534 -0.7809  0.9100  0.5951
  356MOL0     H46935   6.625   1.122   8.294  0.2001 -1.3300  1.8987
  356MOL0     H46936   6.686   1.284   8.307 -0.4313 -0.9901 -2.5960
  356MOL0     H46937   6.779   1.050   8.495  3.2370 -1.7572 -0.8870
  356MOL0     H46938   6.854   1.215   8.477  2.4832 -1.1933 -2.0465
  356MOL0     H46939   6.889   1.156   8.239 -1.1636  0.1944  0.0037
  356MOL0     H46940   6.817   1.002   8.261  0.9137  0.9132 -1.5104
  356MOL0     H46941   7.014   0.937   8.417  2.3805  0.4527  1.1486
  356MOL0     H46942   7.056   0.989   8.255  0.2766  1.3528  0.5522
  356MOL0     H46943   7.075   1.150   8.504 -1.9560 -0.2412 -1.0522
  356MOL0     H46944   7.115   1.227   8.357 -1.7429  0.5139  0.0953
  356MOL0     H46945   7.271   0.884   8.293 -1.7498  0.7680 -0.0129
  356MOL0     H46946   7.526   0.756   8.352  0.9136 -1.7765  0.3046
  356MOL0     H46947   7.502   0.737   8.517 -2.1657 -2.0077 -2.5285
  356MOL0     H46948   7.705   0.846   8.562 -0.5478 -2.8941 -0.3658
  356MOL0     H46949   7.667   0.968   8.429  0.7196 -0.2034 -1.6112
  356MOL0     H46950   7.743   0.799   8.261 -2.0104  1.1948  0.8900
  356MOL0     H46951   7.874   0.816   8.382  1.1776 -0.4339 -0.9917
  356MOL0     H46952   7.677   0.597   8.385 -0.3257  1.2220  0.0319
  356MOL0     H46953   7.812   0.626   8.499  0.4088  2.1132  0.4016
  356MOL0     H46954   8.056   0.468   8.186  0.7308  0.2556  0.5446
  356MOL0     H46955   8.136   0.233   8.209 -0.3457 -1.9406 -0.3312
  356MOL0     H46956   8.028  -0.266   8.354 -2.4541  0.1598 -1.2936
  356MOL0     H46957   8.122  -0.464   8.268 -1.7405  0.7442  0.4257
  356MOL0     H46958   8.350  -0.475   7.861 -2.2425 -1.0757 -1.7587
  356MOL0     H46959   8.176  -0.500   7.869  0.0880  0.2855 -1.6832
  356MOL0     H46960   8.260  -0.690   7.796 -1.4383  3.1671  1.0075
  356MOL0     H46961   8.244  -0.728   7.972 -0.5834 -0.5478 -0.5858
  356MOL0     H46962   8.482  -0.688   8.010 -2.5769  3.0428 -0.3809
  356MOL0     H46963   8.506  -0.617   7.863  0.1437  0.7284  2.0232
  356MOL0     H46964   8.497  -0.820   7.722  2.8921  0.2446  0.1613
  356MOL0     H46965   8.592  -0.846   7.872  1.2723  2.7493 -1.0150
  356MOL0     H46966   8.320  -0.928   7.803 -0.4494  1.4354  1.1518
  356MOL0     H46967   8.380  -0.934   7.974  0.4341 -0.4079  0.6750
  356MOL0     H46968   8.456  -1.155   7.953  1.1951 -0.1683 -0.1609
  356MOL0     H46969   8.571  -1.091   7.835  1.1696  0.1239  3.2420
  356MOL0     H46970   8.300  -1.214   7.810 -0.5991  0.7376 -0.8774
  356MOL0     H46971   8.353  -1.115   7.675  1.1988  2.1520  0.8777
  356MOL0     H46972   8.544  -1.261   7.648  0.3244  1.5264  1.5040
  356MOL0     H46973   8.388  -1.334   7.607  0.1810 -1.1117 -0.5853
  356MOL0     H46974   8.302  -0.255   7.939 -2.2307 -2.3261 -0.8896
  356MOL0     H46975   8.181  -0.051   8.020  0.9604  2.1573  4.2348
  356MOL0     H46976   7.805   0.163   8.474 -2.7011  0.7312 -2.0487
  356MOL0     H46977   7.720   0.387   8.430 -1.4275 -1.2372 -1.4451
  356MOL0     H46978   6.128   1.352   8.695  0.2505 -1.0890 -0.3381
  356MOL0     H46979   5.934   1.402   8.787  0.3912 -3.0976 -1.0819
  356MOL0     H46980   5.621   1.553   9.071 -1.5269 -0.5366  1.7916
  356MOL0     H46981   5.373   1.553   9.133 -0.7968 -1.4458 -0.1609
  356MOL0     H46982   5.087   1.496   8.816  0.8082  0.9123 -0.9349
  356MOL0     H46983   4.998   1.509   8.969 -0.4257 -1.1489  1.0715
  356MOL0     H46984   5.031   1.277   9.028  1.4126 -1.9330  0.7403
  356MOL0     H46985   4.956   1.291   8.859  1.5884  1.1163 -1.8143
  356MOL0     H46986   5.189   1.281   8.768  0.0028 -0.7394 -1.4462
  356MOL0     H46987   5.108   1.127   8.800  3.1697 -0.5034 -0.8979
  356MOL0     H46988   5.350   1.124   8.902 -0.8504 -0.1828 -0.9246
  356MOL0     H46989   5.299   1.233   9.011  1.1145  1.2891 -1.7093
  356MOL0     H46990   5.090   0.902   9.166 -0.7362  0.7317  1.0287
  356MOL0     H46991   5.265   1.460   8.729 -2.4662  1.4496  1.3524
  356MOL0     H46992   5.487   1.491   8.657 -4.8543 -2.9081 -0.4893
  357MOL0     O46993   9.594   8.657   0.124 -0.6928 -0.0765  1.0369
  357MOL0     C46994   9.576   8.760   0.185  0.7410 -0.2412 -0.3260
  357MOL0     O46995   9.465   8.789   0.251  0.6720  0.2566  0.8100
  357MOL0     C46996   9.342   8.733   0.197 -0.2476  0.7669  0.0917
  357MOL0     C46997   9.239   8.712   0.293  0.3143 -1.1917  0.4835
  357MOL0     C46998   9.121   8.661   0.257  0.9284  0.1384 -0.9200
  357MOL0     C46999   9.089   8.622   0.126  1.0111  0.1303 -0.0373
  357MOL0     O47000   8.970   8.572   0.083  0.2045 -0.3714 -0.5903
  357MOL0     C47001   8.864   8.532   0.171 -0.0503 -0.4376 -0.9899
  357MOL0     C47002   8.749   8.498   0.080  0.6848 -0.0565  0.2527
  357MOL0     C47003   8.646   8.414   0.160 -0.9338  0.5785  0.4190
  357MOL0     C47004   8.525   8.372   0.087 -0.5260  0.4893  0.4095
  357MOL0     C47005   8.408   8.346   0.199 -0.0866  0.0479  0.3692
  357MOL0     C47006   8.275   8.283   0.123 -0.5014 -0.4836 -0.2984
  357MOL0     C47007   8.140   8.292   0.193 -0.3247 -0.1382 -0.0256
  357MOL0     C47008   8.128   8.205   0.320 -0.4688  0.8028 -0.2602
  357MOL0     N47009   8.164   8.064   0.290 -0.3766 -0.0549  0.4004
  357MOL0     C47010   8.065   7.983   0.239 -0.5962 -0.2977  0.3070
  357MOL0     C47011   8.112   7.855   0.240 -0.4936  0.0290  0.4281
  357MOL0     C47012   8.057   7.727   0.182  0.6353 -1.0068  0.1422
  357MOL0     C47013   8.157   7.606   0.197  0.3026  0.3315 -0.2638
  357MOL0     C47014   8.106   7.482   0.118 -0.3555  0.4778  0.9509
  357MOL0     C47015   8.015   7.388   0.191 -0.0651 -0.1031 -0.5685
  357MOL0     O47016   7.990   7.276   0.105 -0.3154  0.0944  0.0160
  357MOL0     C47017   7.910   7.183   0.163 -0.3595 -0.6059  0.3884
  357MOL0     C47018   7.793   7.162   0.093  0.3405  0.2862  0.0581
  357MOL0     C47019   7.692   7.086   0.146 -0.1323  1.5979  0.4812
  357MOL0     C47020   7.715   7.011   0.264  0.5197  0.3527 -1.1066
  357MOL0     C47021   7.621   6.919   0.318 -0.2226  0.1486 -0.8034
  357MOL0     O47022   7.656   6.855   0.434 -0.3514 -0.2117 -0.0793
  357MOL0     C47023   7.566   6.773   0.504 -0.5697 -0.3256  0.0216
  357MOL0     C47024   7.450   6.816   0.571  0.1210  1.0455  0.3449
  357MOL0     C47025   7.368   6.736   0.654 -0.2894 -0.1566  0.4049
  357MOL0     C47026   7.421   6.603   0.680  0.2118 -0.6765  0.7830
  357MOL0     O47027   7.353   6.509   0.756 -0.4550  0.3706  0.0760
  357MOL0     C47028   7.213   6.505   0.771  0.1216 -0.5405  0.5262
  357MOL0     C47029   7.172   6.361   0.778  0.2946  0.4165 -0.9015
  357MOL0     C47030   7.022   6.350   0.817  0.3349 -0.8123 -0.0872
  357MOL0     C47031   6.991   6.217   0.868  0.0480 -0.2554 -0.1442
  357MOL0     C47032   6.841   6.218   0.903 -0.5384 -0.0050 -0.3983
  357MOL0     C47033   6.781   6.078   0.896  0.1246 -0.7222  0.1525
  357MOL0     C47034   6.645   6.085   0.970 -1.3536  0.4879 -0.4967
  357MOL0     C47035   6.578   5.954   0.968 -0.5257  0.1770  1.5500
  357MOL0    Cl47036   6.401   5.964   0.972  0.1301  0.7227  0.0748
  357MOL0     C47037   7.535   6.558   0.619  0.5013 -0.0539 -0.6678
  357MOL0     C47038   7.605   6.637   0.527  0.3723  0.0382 -0.3590
  357MOL0     O47039   7.517   6.890   0.260  0.2174  0.3645 -0.1793
  357MOL0     C47040   7.842   7.026   0.329 -0.1569 -0.2916  0.3205
  357MOL0     C47041   7.939   7.114   0.282  0.1919  0.1429 -0.6954
  357MOL0     N47042   8.238   7.874   0.297  0.3843 -0.0977  0.4515
  357MOL0     N47043   8.268   7.993   0.334  0.4030  0.1759  0.2467
  357MOL0     C47044   9.185   8.639   0.025  0.4987  0.1461 -0.1956
  357MOL0     C47045   9.305   8.690   0.060 -0.2316  0.5873  0.6339
  357MOL0     C47046   9.686   8.853   0.201  0.9745  0.9507  0.3688
  357MOL0     C47047   9.675   8.980   0.249 -0.6687  1.0889 -0.1512
  357MOL0     C47048   9.793   9.057   0.275  1.3571 -0.4170  0.0150
  357MOL0     C47049   9.911   9.002   0.249 -0.8927  0.0921 -0.7026
  357MOL0     O47050  10.020   9.069   0.296 -1.3806 -0.3252 -0.0037
  357MOL0     C47051  10.040   9.075   0.438 -0.1341  0.4248  0.0238
  357MOL0     C47052  10.121   8.961   0.500 -0.1023 -0.6319 -0.3677
  357MOL0     C47053  10.178   8.997   0.646  0.0366  0.2851 -0.0891
  357MOL0     C47054  10.113   8.907   0.754  0.4687 -0.3464 -0.5537
  357MOL0     C47055   9.976   8.952   0.787 -1.1489  0.3593 -0.2081
  357MOL0     C47056   9.868   9.007   0.804  0.4560 -0.3580  0.6679
  357MOL0     C47057   9.930   8.869   0.215 -0.3784 -0.7888 -0.0923
  357MOL0     C47058   9.816   8.798   0.189 -0.3906  0.7348  0.9724
  357MOL0     H47059   9.261   8.743   0.394  0.0048 -1.8714  0.7698
  357MOL0     H47060   9.043   8.656   0.332  2.1813  1.1465  0.5016
  357MOL0     H47061   8.834   8.615   0.236 -0.4028  0.4944 -2.2841
  357MOL0     H47062   8.899   8.448   0.231  1.8432  0.5418 -0.6499
  357MOL0     H47063   8.795   8.436   0.003  0.1795  3.9350 -3.6240
  357MOL0     H47064   8.701   8.583   0.031 -1.3557 -1.9113 -1.1331
  357MOL0     H47065   8.618   8.459   0.256 -2.7237 -0.9702  0.6799
  357MOL0     H47066   8.700   8.322   0.183 -1.2259  0.9021  2.6238
  357MOL0     H47067   8.496   8.466   0.040 -0.2109  2.0804  3.1628
  357MOL0     H47068   8.543   8.293   0.014  1.6879 -0.0322  1.4159
  357MOL0     H47069   8.378   8.444   0.236  0.3488 -0.5929  2.5372
  357MOL0     H47070   8.443   8.288   0.285 -0.5503 -2.3686 -0.9901
  357MOL0     H47071   8.294   8.178   0.101 -0.7111 -0.8841  1.2801
  357MOL0     H47072   8.258   8.337   0.030 -4.2952 -1.5248 -0.3859
  357MOL0     H47073   8.119   8.397   0.219  1.9037  0.6325 -1.0517
  357MOL0     H47074   8.064   8.267   0.118 -1.0782  1.4692  0.1541
  357MOL0     H47075   8.026   8.215   0.360 -0.2414  0.9689  0.2872
  357MOL0     H47076   8.199   8.239   0.396 -1.9255 -2.1538  2.6928
  357MOL0     H47077   7.970   8.023   0.205 -0.8138 -0.9755  0.0923
  357MOL0     H47078   8.046   7.758   0.077  4.4200 -0.6199 -0.2812
  357MOL0     H47079   7.958   7.704   0.222 -0.0513 -0.3574 -1.1251
  357MOL0     H47080   8.161   7.577   0.303 -1.0029 -0.2146 -0.3394
  357MOL0     H47081   8.261   7.634   0.180 -0.5545  2.4336 -2.4898
  357MOL0     H47082   8.053   7.520   0.030  0.2375  0.3096  0.5142
  357MOL0     H47083   8.189   7.421   0.082 -1.5699 -0.5704 -0.2205
  357MOL0     H47084   7.923   7.444   0.214 -0.7597 -0.0042 -3.2895
  357MOL0     H47085   8.064   7.366   0.286 -0.0487  3.5269  0.4003
  357MOL0     H47086   7.791   7.211  -0.004 -1.7662 -2.0282 -1.1676
  357MOL0     H47087   7.602   7.057   0.092  0.7830 -1.4175  0.3701
  357MOL0     H47088   7.419   6.919   0.556  0.2418  0.7846 -2.2899
  357MOL0     H47089   7.281   6.780   0.702 -0.5200  0.4977 -0.5852
  357MOL0     H47090   7.163   6.562   0.692  0.6369 -0.3132  0.3594
  357MOL0     H47091   7.189   6.556   0.865 -1.1142 -1.2324  0.6037
  357MOL0     H47092   7.220   6.307   0.860 -3.0108 -3.6186 -1.2804
  357MOL0     H47093   7.204   6.293   0.698  1.0956 -4.8336  3.3383
  357MOL0     H47094   6.959   6.375   0.731  2.0313 -1.6201 -1.6215
  357MOL0     H47095   7.005   6.418   0.901 -1.1903  1.9755 -2.4502
  357MOL0     H47096   7.025   6.135   0.804 -2.5457  0.6141 -2.8892
  357MOL0     H47097   7.051   6.195   0.957  2.6544  2.4788 -1.0665
  357MOL0     H47098   6.785   6.285   0.838 -0.1036 -0.5849 -1.3889
  357MOL0     H47099   6.828   6.263   1.002  0.0895 -2.8127  1.0744
  357MOL0     H47100   6.840   5.992   0.929  2.5325  1.4317  1.9015
  357MOL0     H47101   6.763   6.053   0.791  1.1630 -1.8318  0.2070
  357MOL0     H47102   6.665   6.109   1.075 -0.3125 -0.9865 -0.3105
  357MOL0     H47103   6.590   6.167   0.924 -2.9800 -0.2020  0.1522
  357MOL0     H47104   6.618   5.895   1.051 -1.2425 -0.0188  1.7605
  357MOL0     H47105   6.606   5.900   0.877 -2.5783  3.4313 -1.2662
  357MOL0     H47106   7.561   6.455   0.642 -2.7650 -0.4605  1.9531
  357MOL0     H47107   7.688   6.599   0.468  2.0339  0.7625  1.4209
  357MOL0     H47108   7.864   6.988   0.428  0.9546  3.1285  1.5466
  357MOL0     H47109   8.029   7.123   0.341  0.9984 -0.9321 -1.7021
  357MOL0     H47110   9.174   8.601  -0.076  2.1339 -1.2207  0.0778
  357MOL0     H47111   9.376   8.710  -0.020 -1.4548  1.8181 -0.2018
  357MOL0     H47112   9.574   9.015   0.270 -0.4988  0.2561  2.3724
  357MOL0     H47113   9.772   9.154   0.319 -0.7002 -0.1073 -1.4596
  357MOL0     H47114   9.948   9.074   0.498 -1.8064 -0.7251 -2.4030
  357MOL0     H47115  10.095   9.166   0.466 -2.1261  1.8821 -0.5003
  357MOL0     H47116  10.047   8.880   0.500 -2.4242  1.3211  1.7982
  357MOL0     H47117  10.214   8.938   0.448  1.4332  1.5936  1.2004
  357MOL0     H47118  10.172   9.103   0.671  0.3656  0.3668 -0.3323
  357MOL0     H47119  10.283   8.967   0.637 -0.6948 -2.2606 -1.3069
  357MOL0     H47120  10.109   8.804   0.718 -1.7680 -0.5771  0.1992
  357MOL0     H47121  10.174   8.903   0.845 -3.2862  0.1983  2.2619
  357MOL0     H47122   9.787   9.070   0.836  2.2609  1.4013  2.0689
  357MOL0     H47123  10.033   8.837   0.208 -0.7756 -2.0989 -0.2907
  357MOL0     H47124   9.827   8.695   0.157 -1.1864 -0.3400  3.9058
  358MOL0     O47125  10.776   0.692   3.880 -0.3211  0.2447 -0.8395
  358MOL0     C47126  10.823   0.792   3.932  0.1758  0.0095 -0.6273
  358MOL0     O47127  10.760   0.909   3.966  0.1136  0.3603  0.9201
  358MOL0     C47128  10.631   0.917   3.969 -1.1611 -0.6282 -0.5483
  358MOL0     C47129  10.547   0.948   3.862  0.1446  0.9517  0.1553
  358MOL0     C47130  10.406   0.986   3.883 -0.4763 -0.1525  0.0155
  358MOL0     C47131  10.356   0.981   4.010 -0.1242 -0.4754 -0.4716
  358MOL0     O47132  10.224   1.002   4.033  0.3920 -0.0268 -0.7410
  358MOL0     C47133  10.180   1.076   4.152  0.4274 -0.2889 -0.3798
  358MOL0     C47134  10.077   1.179   4.114 -0.3914  0.8486  0.7580
  358MOL0     C47135   9.926   1.140   4.145 -0.3287 -0.9088 -0.3454
  358MOL0     C47136   9.850   1.276   4.184  0.1948  0.1801 -0.2102
  358MOL0     C47137   9.692   1.257   4.215 -0.7401  0.3237  0.8546
  358MOL0     C47138   9.600   1.234   4.093  0.5518  0.2026 -0.4622
  358MOL0     C47139   9.454   1.207   4.153 -0.0493 -0.4655  0.8831
  358MOL0     C47140   9.352   1.147   4.051 -1.6347 -0.9760 -0.1255
  358MOL0     N47141   9.227   1.121   4.115 -0.2036 -0.9418 -0.7626
  358MOL0     C47142   9.187   0.990   4.131 -0.6386 -0.1994 -0.0988
  358MOL0     C47143   9.066   0.999   4.189  0.7771  0.8229  0.0483
  358MOL0     C47144   8.978   0.877   4.225 -0.0849  0.8440 -0.5131
  358MOL0     C47145   8.829   0.901   4.213  0.1235 -1.1554 -1.5321
  358MOL0     C47146   8.773   0.937   4.348  0.0213  0.3169 -0.1664
  358MOL0     C47147   8.618   0.935   4.349 -0.0284 -0.8504  0.5883
  358MOL0     O47148   8.561   0.807   4.381 -0.1791  0.2567  0.8479
  358MOL0     C47149   8.428   0.792   4.390 -0.7900 -0.3654 -0.6827
  358MOL0     C47150   8.335   0.885   4.349 -0.7119 -0.5440 -1.0595
  358MOL0     C47151   8.199   0.865   4.379  0.2892  0.4549 -0.5901
  358MOL0     C47152   8.160   0.748   4.447 -0.1896 -0.8582  0.2252
  358MOL0     C47153   8.011   0.733   4.481  1.1253  0.3268  0.4389
  358MOL0     O47154   7.937   0.847   4.456 -0.2692  0.5062 -0.0244
  358MOL0     C47155   7.810   0.868   4.511 -0.3263 -0.2800 -0.3349
  358MOL0     C47156   7.777   1.001   4.549  0.5774  0.8667  0.3843
  358MOL0     C47157   7.646   1.028   4.600 -0.5275 -0.0704  0.3333
  358MOL0     C47158   7.545   0.925   4.608  0.4981 -1.1486 -0.9281
  358MOL0     O47159   7.423   0.964   4.646  1.1951  0.6420 -0.2621
  358MOL0     C47160   7.395   0.916   4.778 -0.8678  0.8652  1.0210
  358MOL0     C47161   7.362   1.042   4.866  0.4262  0.3990 -0.2074
  358MOL0     C47162   7.230   1.117   4.834 -0.2237  0.2148 -0.1823
  358MOL0     C47163   7.113   1.030   4.828  0.9839 -1.2585  0.1552
  358MOL0     C47164   6.971   1.092   4.839 -0.2037 -0.7602  0.0251
  358MOL0     C47165   6.924   1.157   4.709  0.6815  0.6229 -0.8757
  358MOL0     C47166   6.867   1.052   4.616  0.0481 -0.4656 -0.2323
  358MOL0     C47167   6.844   1.106   4.473  0.6373  0.4733 -0.4679
  358MOL0    Cl47168   6.722   1.252   4.484  0.1002  0.2064  0.4218
  358MOL0     C47169   7.579   0.804   4.555  0.4666 -0.1704 -0.2030
  358MOL0     C47170   7.706   0.778   4.508  0.5928 -0.7964 -0.0443
  358MOL0     O47171   7.963   0.632   4.543 -0.0101 -0.5195 -0.8885
  358MOL0     C47172   8.253   0.654   4.487 -0.6090 -0.1121  0.3747
  358MOL0     C47173   8.384   0.668   4.445 -0.8069 -0.7314  0.9992
  358MOL0     N47174   9.039   1.137   4.207  0.4980  0.1330 -0.1803
  358MOL0     N47175   9.133   1.208   4.158 -0.7957 -0.5554  0.1439
  358MOL0     C47176  10.447   0.952   4.113  0.7365  0.6792 -0.4718
  358MOL0     C47177  10.575   0.925   4.095 -0.7733 -0.0127  0.8450
  358MOL0     C47178  10.972   0.803   3.948  0.2538 -0.0087 -0.7943
  358MOL0     C47179  11.037   0.924   3.982  0.3494  0.3509  0.4415
  358MOL0     C47180  11.185   0.927   3.992 -0.0587  0.1850 -0.4803
  358MOL0     C47181  11.264   0.809   3.994  0.1262  0.8755  0.9435
  358MOL0     O47182  11.393   0.795   4.012 -0.4206  0.5540  0.6250
  358MOL0     C47183  11.481   0.910   4.021 -0.5204  1.1390  0.0575
  358MOL0     C47184  11.622   0.876   3.975 -0.9324  0.1663  0.8857
  358MOL0     C47185  11.619   0.823   3.826  0.2071  0.5950 -0.5592
  358MOL0     C47186  11.760   0.782   3.762  0.2464  0.0538 -0.1629
  358MOL0     C47187  11.784   0.661   3.829 -0.7002  0.3469 -0.2403
  358MOL0     C47188  11.780   0.554   3.878  0.7015  0.7555 -0.6347
  358MOL0     C47189  11.192   0.691   3.967 -0.6076  0.5215 -0.2668
  358MOL0     C47190  11.056   0.689   3.942 -0.1045 -0.2165 -0.2756
  358MOL0     H47191  10.588   0.950   3.762  0.0722 -1.1706  0.0445
  358MOL0     H47192  10.340   1.019   3.804 -0.4666 -1.2105 -0.4537
  358MOL0     H47193  10.261   1.120   4.210 -0.9845  0.6023  0.9882
  358MOL0     H47194  10.138   1.009   4.227  1.7795 -0.6219  0.1145
  358MOL0     H47195  10.077   1.205   4.008  0.9690  1.9102  0.9846
  358MOL0     H47196  10.115   1.268   4.165 -1.2225  3.0143 -2.1480
  358MOL0     H47197   9.913   1.064   4.222  1.9419 -0.2745  0.7598
  358MOL0     H47198   9.871   1.111   4.055 -4.5358  1.7288  1.1036
  358MOL0     H47199   9.897   1.332   4.266  1.8050 -2.2381  0.6476
  358MOL0     H47200   9.856   1.334   4.092  0.6441 -0.5755 -0.6741
  358MOL0     H47201   9.663   1.358   4.248  0.6741  1.3790 -0.9785
  358MOL0     H47202   9.669   1.177   4.286  0.3135 -1.7781 -1.0401
  358MOL0     H47203   9.637   1.150   4.034 -0.5765 -0.3842 -0.3673
  358MOL0     H47204   9.598   1.325   4.033 -0.3686 -1.4140 -3.0344
  358MOL0     H47205   9.455   1.138   4.238 -1.7349 -1.6260  0.0011
  358MOL0     H47206   9.413   1.298   4.198  2.4467  0.9812  0.4008
  358MOL0     H47207   9.392   1.053   4.014 -0.1126 -0.8927  1.1974
  358MOL0     H47208   9.350   1.222   3.972  1.9378  0.1321  0.6444
  358MOL0     H47209   9.240   0.899   4.104  2.4317  0.8777  1.7746
  358MOL0     H47210   9.008   0.839   4.323  1.5107 -0.4778 -1.4841
  358MOL0     H47211   9.005   0.803   4.150  1.6416 -0.3333  1.1971
  358MOL0     H47212   8.791   0.812   4.162 -1.4651 -2.4403  1.6004
  358MOL0     H47213   8.809   0.984   4.143 -0.8127  0.3459  0.4071
  358MOL0     H47214   8.795   0.866   4.428 -0.1093  1.0390  0.5190
  358MOL0     H47215   8.808   1.033   4.386 -1.7105  0.7140  0.5276
  358MOL0     H47216   8.592   0.974   4.250 -0.1041 -0.0384  0.9197
  358MOL0     H47217   8.576   1.007   4.421  0.2331  1.8614 -1.7879
  358MOL0     H47218   8.374   0.958   4.279  3.6092  0.4368  1.9439
  358MOL0     H47219   8.123   0.936   4.347  0.4321  1.9125  2.0022
  358MOL0     H47220   7.863   1.067   4.551  0.6656  0.7408  2.5328
  358MOL0     H47221   7.631   1.127   4.642  1.3668 -0.6657  2.6275
  358MOL0     H47222   7.475   0.851   4.815  0.9951  1.3224 -1.8836
  358MOL0     H47223   7.300   0.862   4.782 -2.2656  3.2566  2.4622
  358MOL0     H47224   7.443   1.115   4.860 -0.2739  1.9142  4.5529
  358MOL0     H47225   7.375   1.013   4.970  4.0513 -0.1019 -0.6832
  358MOL0     H47226   7.239   1.160   4.734  0.8927 -0.4324 -0.3803
  358MOL0     H47227   7.218   1.201   4.903 -4.2747  0.3028 -0.7963
  358MOL0     H47228   7.118   0.958   4.745  0.8257 -0.0077 -0.9662
  358MOL0     H47229   7.130   0.986   4.927  1.5977  2.1157  1.6820
  358MOL0     H47230   6.964   1.166   4.920 -0.4695 -4.7064  4.0164
  358MOL0     H47231   6.908   1.011   4.876 -1.3159  0.5507  1.1422
  358MOL0     H47232   7.011   1.198   4.657  2.1472  0.5893  1.4087
  358MOL0     H47233   6.851   1.235   4.732  0.3331 -0.1492  0.7886
  358MOL0     H47234   6.934   0.966   4.616 -1.3096 -1.7262  3.2271
  358MOL0     H47235   6.776   1.023   4.670 -1.0059  4.0791  0.8663
  358MOL0     H47236   6.814   1.025   4.407 -1.8702 -0.0944  1.2475
  358MOL0     H47237   6.939   1.147   4.435  0.8244  1.2580  0.7691
  358MOL0     H47238   7.495   0.735   4.545  0.6135 -0.1055 -2.6187
  358MOL0     H47239   7.732   0.678   4.474  0.0641 -1.1766  0.6208
  358MOL0     H47240   8.209   0.572   4.542 -2.3656 -0.7658 -1.8397
  358MOL0     H47241   8.453   0.590   4.478  2.5370 -0.6849 -4.6288
  358MOL0     H47242  10.414   0.946   4.216 -0.9184 -2.2053 -1.0776
  358MOL0     H47243  10.639   0.925   4.183  2.1190 -1.0304 -1.1101
  358MOL0     H47244  10.981   1.016   3.987  2.0012  1.4183  0.0594
  358MOL0     H47245  11.223   1.023   4.024  0.2274 -0.4719  1.2650
  358MOL0     H47246  11.477   0.954   4.121  0.9006 -0.0967  0.7063
  358MOL0     H47247  11.441   0.973   3.941 -2.8153 -2.3086 -1.7839
  358MOL0     H47248  11.692   0.960   3.981  0.7638 -0.9996 -1.0385
  358MOL0     H47249  11.663   0.797   4.039  0.3685  0.0657 -0.0237
  358MOL0     H47250  11.570   0.908   3.778 -0.8852  0.6636  0.6220
  358MOL0     H47251  11.552   0.736   3.822  2.4100 -1.3187  1.4560
  358MOL0     H47252  11.735   0.759   3.659 -1.1329 -0.7361  0.3234
  358MOL0     H47253  11.831   0.865   3.773  0.6451  0.0682 -2.3789
  358MOL0     H47254  11.776   0.462   3.932  0.6082  0.2417 -1.4905
  358MOL0     H47255  11.235   0.592   3.976  1.2006  1.2824 -0.1787
  358MOL0     H47256  11.020   0.590   3.914  0.9526  0.1272 -3.2435
  359MOL0     O47257   8.932   3.332  10.449  0.2601  1.4036 -0.2130
  359MOL0     C47258   9.053   3.339  10.419 -0.7623 -0.6492  1.0504
  359MOL0     O47259   9.097   3.303  10.288 -0.1225  0.2738  0.3611
  359MOL0     C47260   8.994   3.296  10.192  0.9229 -0.0805 -0.1588
  359MOL0     C47261   8.894   3.386  10.172 -0.8234  0.4019 -0.7134
  359MOL0     C47262   8.798   3.353  10.076 -0.3658 -0.0306  0.1753
  359MOL0     C47263   8.808   3.246   9.991  0.3581 -0.6695  0.3279
  359MOL0     O47264   8.719   3.216   9.891  0.5276  0.7873  0.3548
  359MOL0     C47265   8.593   3.275   9.886 -1.1829  0.3856  0.8840
  359MOL0     C47266   8.515   3.203   9.773  0.5978 -0.1944 -0.2441
  359MOL0     C47267   8.405   3.112   9.839  0.3715 -0.2484  0.1953
  359MOL0     C47268   8.457   3.026   9.949  1.0998  0.0945  0.6122
  359MOL0     C47269   8.375   2.891   9.972  0.4048 -0.0035 -0.0359
  359MOL0     C47270   8.236   2.919  10.028  0.3953 -0.3318 -0.4136
  359MOL0     C47271   8.170   2.777  10.069 -0.0032 -0.2884 -0.2566
  359MOL0     C47272   8.128   2.683   9.951  0.2276  0.3428  1.2103
  359MOL0     N47273   8.057   2.745   9.836 -0.0266  0.0475 -0.8086
  359MOL0     C47274   7.929   2.787   9.843 -0.1297 -0.4501 -0.0030
  359MOL0     C47275   7.887   2.788   9.717 -0.7019 -0.1355 -0.4006
  359MOL0     C47276   7.746   2.806   9.674  0.0053 -0.3617  0.1191
  359MOL0     C47277   7.674   2.673   9.654  0.5471 -0.3012 -0.3790
  359MOL0     C47278   7.742   2.581   9.554 -1.3263 -1.0720  0.4945
  359MOL0     C47279   7.679   2.442   9.537  1.3757  0.2052 -0.1891
  359MOL0     O47280   7.773   2.371   9.461  0.1674 -0.0801 -0.5881
  359MOL0     C47281   7.733   2.292   9.361 -0.3084  0.0054 -0.2248
  359MOL0     C47282   7.812   2.286   9.249  0.7175  0.0887 -0.2067
  359MOL0     C47283   7.775   2.215   9.139  0.3534  0.1822  0.1131
  359MOL0     C47284   7.655   2.143   9.135 -0.3342  0.5837  0.3526
  359MOL0     C47285   7.594   2.079   9.011 -0.9685  1.3176  0.0951
  359MOL0     O47286   7.659   2.098   8.892 -0.0287  0.4617  0.2335
  359MOL0     C47287   7.622   2.056   8.762 -0.8405  0.0227  0.5988
  359MOL0     C47288   7.490   2.062   8.728  0.3162 -0.6146  0.3094
  359MOL0     C47289   7.450   2.028   8.591  0.2568  0.7550 -0.6922
  359MOL0     C47290   7.553   1.976   8.507 -0.4353  0.0967  0.6786
  359MOL0     O47291   7.531   1.924   8.385 -0.0225 -0.2007 -0.3702
  359MOL0     C47292   7.410   1.961   8.313 -0.6317  0.1518 -0.4597
  359MOL0     C47293   7.426   1.916   8.172 -0.1472  0.9196 -0.5774
  359MOL0     C47294   7.323   2.002   8.096 -0.3941  0.5303 -0.8280
  359MOL0     C47295   7.318   1.964   7.944  0.4471 -0.8898 -0.3304
  359MOL0     C47296   7.215   2.056   7.878  0.6569  0.1909  0.2309
  359MOL0     C47297   7.195   2.051   7.723 -1.0740  0.1739  0.4560
  359MOL0     C47298   7.326   2.097   7.653  0.2417 -0.9538 -0.2988
  359MOL0     C47299   7.345   2.070   7.502  0.8429  0.1052  0.1640
  359MOL0    Cl47300   7.523   2.125   7.459 -0.0532  0.3749 -0.3563
  359MOL0     C47301   7.680   1.966   8.552 -1.1147 -0.4744 -0.4995
  359MOL0     C47302   7.724   2.017   8.677 -0.2629  0.2565 -0.4956
  359MOL0     O47303   7.498   2.002   9.030 -0.1069 -0.5868  0.2624
  359MOL0     C47304   7.576   2.132   9.251 -0.0116 -0.5088  0.3893
  359MOL0     C47305   7.614   2.215   9.360 -0.1743 -0.2907  0.5869
  359MOL0     N47306   7.995   2.769   9.637  0.3368 -0.2973 -0.3513
  359MOL0     N47307   8.100   2.738   9.712  0.0427  0.1344  0.2366
  359MOL0     C47308   8.921   3.166   9.999  0.1304 -0.7825 -0.1254
  359MOL0     C47309   9.005   3.190  10.106 -0.2431  0.6629 -0.6556
  359MOL0     C47310   9.160   3.389  10.513  0.4316  0.3317  0.0772
  359MOL0     C47311   9.144   3.398  10.654 -1.0584 -0.7640  0.4326
  359MOL0     C47312   9.240   3.438  10.739 -0.1193 -0.3021 -0.1745
  359MOL0     C47313   9.366   3.478  10.689 -0.3546 -0.2987  0.0226
  359MOL0     O47314   9.467   3.526  10.770  0.9932  0.3400 -0.1964
  359MOL0     C47315   9.509   3.425  10.862 -0.3987  0.2523  0.1827
  359MOL0     C47316   9.479   3.473  10.999  0.5865  1.1169 -0.5072
  359MOL0     C47317   9.572   3.406  11.108  0.2720  0.8452 -0.2183
  359MOL0     C47318   9.538   3.261  11.139 -0.2147 -0.0340  0.5272
  359MOL0     C47319   9.619   3.211  11.257  0.2336  1.5656  0.3090
  359MOL0     C47320   9.709   3.191  11.331  0.1898 -0.0184  1.1554
  359MOL0     C47321   9.391   3.469  10.550 -0.0513  0.0968 -0.5581
  359MOL0     C47322   9.287   3.425  10.463  1.2738 -0.5178 -0.4360
  359MOL0     H47323   8.892   3.469  10.243 -0.4041  0.1646 -0.4218
  359MOL0     H47324   8.700   3.397  10.090  1.1073  3.7068  0.1146
  359MOL0     H47325   8.622   3.378   9.865  1.4516 -0.7800 -1.8602
  359MOL0     H47326   8.537   3.267   9.980 -5.8906  1.4148 -1.5607
  359MOL0     H47327   8.575   3.134   9.712 -1.4767 -0.8976 -1.5852
  359MOL0     H47328   8.464   3.272   9.706  1.0701 -1.6198 -2.1682
  359MOL0     H47329   8.384   3.041   9.759 -1.7560 -1.2228  1.5217
  359MOL0     H47330   8.314   3.162   9.875  0.3549 -1.1334  1.4653
  359MOL0     H47331   8.563   3.007   9.931  0.6524 -0.2897 -2.0883
  359MOL0     H47332   8.457   3.080  10.043  1.1619 -1.8512  1.7884
  359MOL0     H47333   8.436   2.828  10.037  0.4847 -2.3342 -2.2442
  359MOL0     H47334   8.358   2.834   9.881 -1.9007 -0.3090  0.5062
  359MOL0     H47335   8.172   2.975   9.960  2.0507  2.4979  0.2167
  359MOL0     H47336   8.236   2.988  10.112 -2.4669  0.7306 -1.1765
  359MOL0     H47337   8.221   2.707  10.135 -1.5314 -1.6524 -0.4621
  359MOL0     H47338   8.075   2.797  10.119 -0.4062 -0.7156 -0.8392
  359MOL0     H47339   8.068   2.597   9.982  1.6150 -2.2204 -2.5114
  359MOL0     H47340   8.220   2.646   9.906 -0.1946 -0.6312  1.1124
  359MOL0     H47341   7.861   2.805   9.926  0.5235  1.4823  0.1721
  359MOL0     H47342   7.729   2.862   9.582 -0.5571 -2.9705 -1.4728
  359MOL0     H47343   7.698   2.858   9.758  1.4209 -0.9091  1.3200
  359MOL0     H47344   7.575   2.702   9.619 -0.0288  1.4392  2.3537
  359MOL0     H47345   7.662   2.624   9.751 -0.2354 -0.3338 -0.4856
  359MOL0     H47346   7.747   2.631   9.457  2.0983  0.2763  1.2018
  359MOL0     H47347   7.847   2.563   9.580 -1.2192  0.6445  1.4245
  359MOL0     H47348   7.576   2.450   9.501 -0.1229 -1.9466  3.1633
  359MOL0     H47349   7.669   2.389   9.632  1.0592  1.4737  0.5020
  359MOL0     H47350   7.910   2.332   9.240  1.2865 -0.7614  1.2445
  359MOL0     H47351   7.820   2.214   9.041 -3.1087  0.2954 -1.6174
  359MOL0     H47352   7.423   2.094   8.807  1.1162  0.2453  0.6415
  359MOL0     H47353   7.349   2.037   8.552 -0.7069 -3.5421  0.2284
  359MOL0     H47354   7.402   2.069   8.328  3.0673  0.2072  2.3473
  359MOL0     H47355   7.324   1.909   8.357 -0.6361  1.5511  1.3109
  359MOL0     H47356   7.419   1.807   8.162 -1.3588  0.8536  0.6160
  359MOL0     H47357   7.525   1.946   8.136 -0.1918  0.7634 -0.8308
  359MOL0     H47358   7.350   2.107   8.108 -1.0039  0.6887 -0.7898
  359MOL0     H47359   7.230   1.985   8.152  1.1346  1.5586  2.2453
  359MOL0     H47360   7.417   1.996   7.908 -0.3054 -0.4991 -2.1436
  359MOL0     H47361   7.323   1.856   7.924  0.8365 -0.9363  0.0104
  359MOL0     H47362   7.224   2.160   7.912 -3.1878 -0.3332  3.6639
  359MOL0     H47363   7.116   2.027   7.915  1.1822  0.1840  1.6865
  359MOL0     H47364   7.108   2.106   7.687 -0.9661  1.9825  2.7067
  359MOL0     H47365   7.186   1.947   7.690  3.1204  0.1460 -1.1981
  359MOL0     H47366   7.341   2.204   7.665  2.4876 -1.0312 -1.8472
  359MOL0     H47367   7.411   2.058   7.710  0.7919  2.3623  1.4213
  359MOL0     H47368   7.276   2.133   7.446 -0.2389  0.5125  1.8752
  359MOL0     H47369   7.314   1.969   7.474  2.8333 -0.6690  0.5600
  359MOL0     H47370   7.758   1.918   8.493  1.4326  3.8196 -0.9994
  359MOL0     H47371   7.826   2.028   8.713 -1.0271  0.5152  1.7692
  359MOL0     H47372   7.486   2.076   9.275  0.0145 -0.7130  0.0284
  359MOL0     H47373   7.544   2.217   9.443 -0.9262  2.5348 -0.0035
  359MOL0     H47374   8.932   3.085   9.928 -1.5984 -0.3658 -0.9304
  359MOL0     H47375   9.091   3.128  10.128 -1.0494  0.4987  2.4163
  359MOL0     H47376   9.051   3.388  10.708 -0.8375  1.1699  1.2758
  359MOL0     H47377   9.216   3.430  10.845  0.3613 -2.1013 -0.1713
  359MOL0     H47378   9.616   3.406  10.851 -0.1665  2.4858 -2.6015
  359MOL0     H47379   9.457   3.329  10.858  1.6512 -0.8828 -1.0262
  359MOL0     H47380   9.501   3.580  11.007  0.3231  1.0519  1.8943
  359MOL0     H47381   9.372   3.464  11.021 -0.3935  0.0813 -4.8055
  359MOL0     H47382   9.570   3.467  11.199 -1.2675  0.0503  0.3055
  359MOL0     H47383   9.671   3.407  11.061 -1.2790 -1.4574 -3.9961
  359MOL0     H47384   9.432   3.255  11.167 -0.0551 -1.5300  0.9038
  359MOL0     H47385   9.556   3.203  11.048 -1.5106  2.3877 -1.3978
  359MOL0     H47386   9.789   3.187  11.402  2.2783 -0.0393 -1.0565
  359MOL0     H47387   9.476   3.509  10.496 -1.3747  4.0023 -0.0931
  359MOL0     H47388   9.304   3.418  10.356 -3.2076 -0.4530 -1.3392
  360MOL0     O47389   2.551   7.944   5.737 -0.1358 -0.2108  0.0924
  360MOL0     C47390   2.485   8.005   5.821 -0.0171 -0.7468 -0.3533
  360MOL0     O47391   2.470   7.964   5.951 -0.6562 -0.1571  0.5976
  360MOL0     C47392   2.518   7.837   5.973 -0.0358  0.5803  0.5934
  360MOL0     C47393   2.432   7.734   5.971 -0.7262 -0.2868 -0.6568
  360MOL0     C47394   2.483   7.609   6.033  0.3114 -0.0029 -0.0387
  360MOL0     C47395   2.616   7.596   6.065 -0.2212 -0.3687  0.6737
  360MOL0     O47396   2.663   7.480   6.131  0.2375 -0.0626  0.4267
  360MOL0     C47397   2.675   7.363   6.046 -0.0413  0.2150  1.2704
  360MOL0     C47398   2.793   7.273   6.097  0.8825 -0.5442  0.0040
  360MOL0     C47399   2.929   7.343   6.080  0.2731 -0.2120 -0.4009
  360MOL0     C47400   3.030   7.257   6.153  0.1246  0.5902 -0.0794
  360MOL0     C47401   3.168   7.299   6.103 -1.2440  0.5237 -0.4909
  360MOL0     C47402   3.227   7.428   6.169 -0.1285 -0.3366  0.3740
  360MOL0     C47403   3.284   7.520   6.054 -0.1165 -0.1519  0.2786
  360MOL0     C47404   3.411   7.459   5.988  0.1607  0.0103  0.1719
  360MOL0     N47405   3.475   7.552   5.898  0.4044 -0.4230 -0.1590
  360MOL0     C47406   3.530   7.674   5.927  0.4789  0.2063  0.3019
  360MOL0     C47407   3.587   7.718   5.812 -0.1623 -0.2775 -0.8697
  360MOL0     C47408   3.681   7.837   5.786  0.5418  0.4078 -0.3373
  360MOL0     C47409   3.623   7.968   5.838 -0.4273  0.1285 -0.0453
  360MOL0     C47410   3.491   8.001   5.775  0.9350 -0.1179 -0.4920
  360MOL0     C47411   3.364   7.969   5.868  0.8888 -0.5089  1.0441
  360MOL0     O47412   3.360   8.043   5.994  0.0985 -0.0805 -0.2568
  360MOL0     C47413   3.244   8.053   6.074 -0.6290  0.1033 -0.8619
  360MOL0     C47414   3.240   8.151   6.171 -0.2214 -0.0191  0.5780
  360MOL0     C47415   3.130   8.154   6.261 -0.5519 -0.1996  0.4514
  360MOL0     C47416   3.019   8.068   6.240 -0.4424  0.3714 -0.4042
  360MOL0     C47417   2.900   8.082   6.329 -0.6240 -0.4668 -0.5241
  360MOL0     O47418   2.829   7.970   6.331 -0.5308  0.4166  0.1171
  360MOL0     C47419   2.704   7.948   6.387  0.4514 -0.7533  0.2551
  360MOL0     C47420   2.650   7.824   6.362  0.3667  0.2619  0.4154
  360MOL0     C47421   2.517   7.782   6.392 -1.0602  0.0011  1.0277
  360MOL0     C47422   2.445   7.868   6.471  0.6841  0.1915 -0.0772
  360MOL0     O47423   2.315   7.824   6.509  0.0428 -0.4710  0.1575
  360MOL0     C47424   2.214   7.927   6.525  0.0018 -0.0043 -0.5404
  360MOL0     C47425   2.076   7.873   6.518 -0.1515  0.0075  0.6629
  360MOL0     C47426   2.022   7.850   6.380  0.4398  0.4689 -0.8403
  360MOL0     C47427   2.104   7.759   6.303 -0.4929 -0.1688  0.5317
  360MOL0     C47428   2.124   7.617   6.356 -0.5151  0.6365  0.1477
  360MOL0     C47429   2.009   7.512   6.349 -0.2607 -0.2444  0.0819
  360MOL0     C47430   2.056   7.378   6.407 -0.1154  1.4721  1.1326
  360MOL0     C47431   1.943   7.280   6.409  0.9782  0.1302  0.5512
  360MOL0    Cl47432   1.890   7.242   6.243  0.1617  0.4010 -0.1111
  360MOL0     C47433   2.501   8.000   6.511 -0.3171  0.6276  0.7772
  360MOL0     C47434   2.626   8.042   6.460  1.1489 -0.3021  0.2148
  360MOL0     O47435   2.869   8.192   6.384  0.0982 -0.3896  0.0431
  360MOL0     C47436   3.023   7.979   6.129 -0.1440 -0.5186  0.5151
  360MOL0     C47437   3.136   7.970   6.054 -0.5230 -0.2505 -0.2463
  360MOL0     N47438   3.546   7.638   5.714 -0.3742  0.5827  0.0374
  360MOL0     N47439   3.481   7.535   5.766 -0.4511 -0.5639  0.2765
  360MOL0     C47440   2.699   7.706   6.052 -0.0406  0.7668  1.5735
  360MOL0     C47441   2.643   7.828   6.012 -0.3156  0.0694  0.0222
  360MOL0     C47442   2.421   8.125   5.776 -0.4606 -0.0447 -0.8978
  360MOL0     C47443   2.463   8.198   5.661  0.5694  0.3412 -0.3050
  360MOL0     C47444   2.407   8.316   5.620  0.0114 -0.5378  0.1537
  360MOL0     C47445   2.289   8.358   5.681 -0.1075  0.4874 -0.3782
  360MOL0     O47446   2.233   8.470   5.624  1.1017  0.2347 -0.3506
  360MOL0     C47447   2.193   8.461   5.482 -0.8939 -0.0674  0.3538
  360MOL0     C47448   2.236   8.587   5.409 -0.4820 -0.8758 -0.2970
  360MOL0     C47449   2.254   8.573   5.255 -0.5028 -0.3133 -0.4317
  360MOL0     C47450   2.342   8.678   5.201  0.2518 -0.3474 -0.2169
  360MOL0     C47451   2.345   8.670   5.056  0.8224 -0.6050  0.0343
  360MOL0     C47452   2.327   8.659   4.933 -0.7744 -0.2248 -0.1695
  360MOL0     C47453   2.239   8.292   5.795 -0.1558  0.8639  0.0571
  360MOL0     C47454   2.306   8.170   5.841 -0.2764  0.2704  0.1659
  360MOL0     H47455   2.325   7.730   5.952 -0.8409  1.3530 -0.4558
  360MOL0     H47456   2.421   7.520   6.032  1.2778 -0.7207 -2.3114
  360MOL0     H47457   2.693   7.391   5.942  0.5342 -1.3742  0.9146
  360MOL0     H47458   2.583   7.304   6.045  1.7038 -2.6590  1.3455
  360MOL0     H47459   2.788   7.170   6.061 -1.0509 -0.0823 -1.1838
  360MOL0     H47460   2.776   7.273   6.205 -3.3269  0.8554 -0.4963
  360MOL0     H47461   2.929   7.447   6.114 -3.6819 -0.0835 -0.3331
  360MOL0     H47462   2.956   7.356   5.975  0.7718 -1.2324 -0.4123
  360MOL0     H47463   3.020   7.268   6.262  0.9150 -0.3136  0.1046
  360MOL0     H47464   3.020   7.151   6.127  3.3971  0.3298 -0.7390
  360MOL0     H47465   3.176   7.299   5.994 -1.7112 -2.3736 -0.6118
  360MOL0     H47466   3.231   7.214   6.132 -1.8991 -0.6017 -2.2103
  360MOL0     H47467   3.306   7.399   6.238 -0.0414 -0.4319  0.2347
  360MOL0     H47468   3.144   7.485   6.212  0.8631  0.9029  0.7130
  360MOL0     H47469   3.204   7.542   5.982  1.3793  1.7745 -0.9005
  360MOL0     H47470   3.311   7.614   6.102 -1.4053  1.2735 -1.6037
  360MOL0     H47471   3.377   7.373   5.930 -1.2247 -1.0561  2.4306
  360MOL0     H47472   3.493   7.424   6.050  0.8276 -1.6465 -1.5487
  360MOL0     H47473   3.538   7.722   6.024 -1.3072  3.6164 -1.0565
  360MOL0     H47474   3.701   7.840   5.679 -2.5586  2.2152 -0.9763
  360MOL0     H47475   3.775   7.809   5.834  1.6449  0.8162 -2.1534
  360MOL0     H47476   3.702   8.037   5.807 -0.8466  1.0227  0.8300
  360MOL0     H47477   3.624   7.976   5.947  2.9201 -1.3552  0.1813
  360MOL0     H47478   3.492   8.108   5.754  2.3012 -0.0848 -0.3664
  360MOL0     H47479   3.462   7.942   5.688 -0.7199  2.2720 -1.6512
  360MOL0     H47480   3.362   7.861   5.883  0.7228 -0.6110  0.3042
  360MOL0     H47481   3.271   7.986   5.812  1.0838  2.5213  1.4264
  360MOL0     H47482   3.325   8.218   6.182  0.1359 -0.7652  3.1299
  360MOL0     H47483   3.126   8.229   6.339  0.0659  0.3620 -0.0367
  360MOL0     H47484   2.714   7.748   6.318  0.5676 -0.4922  1.9138
  360MOL0     H47485   2.474   7.685   6.372 -0.6464 -0.8405  3.7253
  360MOL0     H47486   2.233   8.004   6.450  2.7832 -2.4564 -2.5959
  360MOL0     H47487   2.221   7.969   6.626  2.4026  1.3493 -1.1854
  360MOL0     H47488   1.998   7.942   6.553  0.1485  0.4148  0.5442
  360MOL0     H47489   2.077   7.783   6.579  3.0221  0.2021  1.0859
  360MOL0     H47490   2.014   7.945   6.327 -2.1313  0.9821  0.2976
  360MOL0     H47491   1.918   7.817   6.385  0.5013  0.4227  0.5537
  360MOL0     H47492   2.070   7.747   6.200 -3.0558  2.1155  0.9772
  360MOL0     H47493   2.202   7.808   6.298 -0.0748 -0.8122  1.8692
  360MOL0     H47494   2.154   7.622   6.461  0.1719 -0.9521  0.0532
  360MOL0     H47495   2.212   7.574   6.309 -0.4837 -0.3350  1.0546
  360MOL0     H47496   1.986   7.495   6.243 -0.5206  0.1581  0.0706
  360MOL0     H47497   1.925   7.557   6.403  0.1060  0.0898  0.3816
  360MOL0     H47498   2.132   7.340   6.338  0.1021 -0.8881  2.5439
  360MOL0     H47499   2.098   7.378   6.508 -1.4861 -0.4429  1.7659
  360MOL0     H47500   1.853   7.306   6.464 -1.5303 -3.0074 -1.6955
  360MOL0     H47501   1.970   7.186   6.458 -0.5784 -0.4094  0.4291
  360MOL0     H47502   2.449   8.072   6.575 -0.4332 -0.2876  1.7353
  360MOL0     H47503   2.639   8.149   6.458  1.5425 -0.3578 -0.6209
  360MOL0     H47504   2.936   7.919   6.103  1.0677 -1.5479 -1.3759
  360MOL0     H47505   3.142   7.885   5.986  0.2060  0.8927 -1.6717
  360MOL0     H47506   2.804   7.695   6.078 -0.6136 -1.8549  3.0596
  360MOL0     H47507   2.702   7.919   6.016  0.1789 -0.2941  1.7489
  360MOL0     H47508   2.562   8.170   5.626  1.3309 -0.7841  2.4159
  360MOL0     H47509   2.444   8.373   5.535  1.7064 -0.6236  0.7974
  360MOL0     H47510   2.084   8.455   5.469 -0.9806  2.3814 -0.5522
  360MOL0     H47511   2.230   8.370   5.434  2.6792  1.7762 -0.7390
  360MOL0     H47512   2.165   8.667   5.430  2.0708  1.3688  0.4187
  360MOL0     H47513   2.327   8.623   5.460  0.1973 -2.7191 -0.1316
  360MOL0     H47514   2.157   8.569   5.204  0.3218 -0.6530 -2.0377
  360MOL0     H47515   2.308   8.479   5.242  1.8805  0.7268  1.3153
  360MOL0     H47516   2.301   8.776   5.228 -0.9436 -1.2073  1.2199
  360MOL0     H47517   2.435   8.666   5.256 -1.1035 -2.1708  1.8209
  360MOL0     H47518   2.316   8.657   4.826 -1.6348 -1.0298 -0.0793
  360MOL0     H47519   2.145   8.314   5.845 -2.1570 -1.4777 -2.3329
  360MOL0     H47520   2.268   8.109   5.923  0.2163 -0.7090 -0.3226
  361MOL0     O47521   4.266   9.490  10.478 -0.5269  0.9048 -0.0613
  361MOL0     C47522   4.295   9.388  10.533  0.5057  0.2719  0.5152
  361MOL0     O47523   4.231   9.335  10.642 -0.0026 -0.6137  0.5446
  361MOL0     C47524   4.108   9.383  10.696 -0.0188 -0.0234 -0.8286
  361MOL0     C47525   4.079   9.353  10.828  1.3555 -0.1920 -0.7776
  361MOL0     C47526   3.965   9.414  10.890  0.8181  0.0573  0.0607
  361MOL0     C47527   3.871   9.487  10.820  0.3350 -0.3771 -0.4639
  361MOL0     O47528   3.767   9.548  10.889  0.0755  0.2119 -0.3824
  361MOL0     C47529   3.681   9.630  10.821 -0.1702 -0.4202 -0.2270
  361MOL0     C47530   3.595   9.718  10.905  0.7751 -0.1432  0.5015
  361MOL0     C47531   3.504   9.631  10.983  0.3164  0.0107 -0.3670
  361MOL0     C47532   3.441   9.717  11.094  1.0549  0.4745 -0.0186
  361MOL0     C47533   3.361   9.647  11.213 -0.4951  0.1908 -0.3424
  361MOL0     C47534   3.251   9.547  11.160 -0.5731  0.4788  0.1179
  361MOL0     C47535   3.158   9.483  11.272  0.7433 -0.2685 -0.4278
  361MOL0     C47536   3.094   9.592  11.369  0.5995  0.1995 -0.7180
  361MOL0     N47537   3.009   9.692  11.302 -0.5898  0.4151  0.5827
  361MOL0     C47538   3.047   9.818  11.263  0.3566 -0.4840  0.5722
  361MOL0     C47539   2.940   9.862  11.189  0.3731  0.0375  1.3427
  361MOL0     C47540   2.922  10.006  11.123 -0.3642 -0.5815  0.8200
  361MOL0     C47541   3.015  10.016  11.003  0.9812 -0.8920 -0.5215
  361MOL0     C47542   3.003   9.908  10.887 -0.0806  0.7228  0.6423
  361MOL0     C47543   2.861   9.860  10.859 -0.0591 -0.0928 -0.4570
  361MOL0     O47544   2.799   9.969  10.783  0.0445  0.8609 -0.3278
  361MOL0     C47545   2.662  10.003  10.803 -0.0758 -0.6676  0.0676
  361MOL0     C47546   2.582  10.006  10.922 -0.2469  0.3702  0.2956
  361MOL0     C47547   2.456  10.069  10.916 -0.2633  0.6932  0.0330
  361MOL0     C47548   2.400  10.126  10.809 -0.0454 -0.1428  0.1331
  361MOL0     C47549   2.267  10.187  10.810  0.1574  0.5825  0.4616
  361MOL0     O47550   2.214  10.207  10.930 -0.4415 -0.2982  0.2080
  361MOL0     C47551   2.081  10.254  10.937  0.0072 -0.4643 -0.1484
  361MOL0     C47552   2.054  10.379  10.890  0.1195 -1.1516  0.6012
  361MOL0     C47553   1.922  10.439  10.899 -0.1226  0.8112  0.7275
  361MOL0     C47554   1.819  10.379  10.969 -0.5677  0.0884 -0.7774
  361MOL0     O47555   1.691  10.433  10.964  0.0246  0.1763 -0.0901
  361MOL0     C47556   1.589  10.341  10.919  0.2315  0.5492  1.0624
  361MOL0     C47557   1.448  10.394  10.948  0.0815  0.8788  1.1316
  361MOL0     C47558   1.405  10.417  11.096 -0.3651  0.0648  0.2159
  361MOL0     C47559   1.350  10.559  11.117  1.3031 -0.3465  0.1269
  361MOL0     C47560   1.452  10.672  11.085  0.4041  0.4957 -0.5935
  361MOL0     C47561   1.558  10.680  11.199  0.6179  0.0015 -0.7135
  361MOL0     C47562   1.674  10.778  11.153 -0.0434  0.3781 -0.1135
  361MOL0     C47563   1.796  10.700  11.108  0.7768  0.1402 -0.5446
  361MOL0    Cl47564   1.929  10.821  11.075 -0.7945 -0.1437 -0.2319
  361MOL0     C47565   1.851  10.257  11.033 -0.0403  0.3232 -0.0859
  361MOL0     C47566   1.977  10.199  11.013  1.3605  0.3054 -1.1594
  361MOL0     O47567   2.222  10.223  10.700 -0.4356  0.1470  0.7361
  361MOL0     C47568   2.480  10.127  10.691  0.3409 -0.6897 -0.8390
  361MOL0     C47569   2.610  10.059  10.681  0.7314  1.3388 -0.1604
  361MOL0     N47570   2.839   9.762  11.196  0.0787  0.1290  0.5034
  361MOL0     N47571   2.877   9.671  11.269 -0.3254 -0.8046 -0.0628
  361MOL0     C47572   3.896   9.513  10.681  0.2498 -0.3518 -0.4075
  361MOL0     C47573   4.010   9.461  10.623 -1.3542 -0.1982 -0.4307
  361MOL0     C47574   4.416   9.319  10.486  0.6208 -0.4470 -0.2692
  361MOL0     C47575   4.441   9.199  10.548  0.0755  0.6622 -0.3878
  361MOL0     C47576   4.555   9.138  10.519 -0.1892 -1.1602 -0.1815
  361MOL0     C47577   4.638   9.187  10.425 -0.2150  0.1351 -0.4756
  361MOL0     O47578   4.755   9.123  10.396  0.0923 -0.3797 -0.9446
  361MOL0     C47579   4.868   9.142  10.483  0.0505 -0.0417  0.5801
  361MOL0     C47580   4.986   9.170  10.403  0.2199 -0.2260  0.5411
  361MOL0     C47581   5.022   9.053  10.308  0.1045 -0.0007  0.1734
  361MOL0     C47582   5.129   9.114  10.204  0.1267  0.1335 -0.8748
  361MOL0     C47583   5.178   9.008  10.116  0.2505  0.4100  0.4749
  361MOL0     C47584   5.192   8.921  10.029  0.4086 -0.2656 -0.1500
  361MOL0     C47585   4.618   9.309  10.365 -0.1192 -0.6884 -0.3199
  361MOL0     C47586   4.509   9.383  10.399  0.3787  0.9717 -1.0868
  361MOL0     H47587   4.149   9.289  10.881  0.7918 -1.2277 -1.2704
  361MOL0     H47588   3.937   9.400  10.994 -0.7233  0.0415 -0.3364
  361MOL0     H47589   3.629   9.579  10.740  0.0949 -0.6761 -0.2342
  361MOL0     H47590   3.749   9.705  10.780 -0.7096  0.5593  0.5919
  361MOL0     H47591   3.541   9.792  10.846 -0.5060 -3.2063 -2.4924
  361MOL0     H47592   3.654   9.777  10.977 -0.4986  1.5306  0.2413
  361MOL0     H47593   3.561   9.550  11.028 -0.5542  0.4880  1.7230
  361MOL0     H47594   3.429   9.590  10.915  0.7730 -0.2079 -0.7421
  361MOL0     H47595   3.527   9.761  11.144 -0.8145  2.4009  1.6920
  361MOL0     H47596   3.385   9.807  11.065  0.5321  1.6374  3.9546
  361MOL0     H47597   3.315   9.715  11.285 -1.6107 -1.6017  0.7231
  361MOL0     H47598   3.434   9.588  11.270 -0.6933  0.0122 -0.2736
  361MOL0     H47599   3.297   9.474  11.093 -0.7608 -2.0958  2.5979
  361MOL0     H47600   3.180   9.604  11.100  0.0208  2.4016  1.1408
  361MOL0     H47601   3.082   9.413  11.237 -1.2568  1.6365 -0.0789
  361MOL0     H47602   3.226   9.426  11.336 -0.1597  0.4840  1.3013
  361MOL0     H47603   3.172   9.642  11.428 -1.1947 -1.6194  3.6018
  361MOL0     H47604   3.037   9.531  11.439 -4.2400  2.4846 -2.2392
  361MOL0     H47605   3.144   9.864  11.282  0.5404 -1.3697  1.9642
  361MOL0     H47606   2.951  10.078  11.200  0.8757 -1.8637  1.6043
  361MOL0     H47607   2.823  10.030  11.082  1.0343  0.8849 -1.9306
  361MOL0     H47608   3.119  10.014  11.035  0.2870  1.3995  2.2543
  361MOL0     H47609   3.007  10.116  10.960  2.5202 -1.5253 -2.4503
  361MOL0     H47610   3.038   9.961  10.798 -1.5169  0.4283 -0.1257
  361MOL0     H47611   3.066   9.821  10.912  1.1951  0.3224 -3.3071
  361MOL0     H47612   2.807   9.852  10.954 -0.7522 -1.4276 -0.9304
  361MOL0     H47613   2.856   9.764  10.806  0.4053 -0.5362  0.2818
  361MOL0     H47614   2.606   9.945  11.008  1.1526 -2.3734 -1.8702
  361MOL0     H47615   2.398  10.067  11.008  1.0518  0.8302  0.8822
  361MOL0     H47616   2.130  10.434  10.833  0.4647 -1.7931  0.4328
  361MOL0     H47617   1.905  10.529  10.841  0.3868  0.1476 -0.4814
  361MOL0     H47618   1.594  10.245  10.971 -1.2256 -0.0213  0.2261
  361MOL0     H47619   1.611  10.331  10.812 -1.3807 -1.2073  0.8381
  361MOL0     H47620   1.381  10.321  10.903  2.8029  0.1444 -2.0815
  361MOL0     H47621   1.433  10.488  10.894 -1.5462  0.8644  1.4939
  361MOL0     H47622   1.498  10.406  11.152 -0.5973 -2.1465  0.2516
  361MOL0     H47623   1.343  10.333  11.130  0.3095 -2.3987 -3.9925
  361MOL0     H47624   1.255  10.573  11.063  1.1527 -1.2986  0.1200
  361MOL0     H47625   1.330  10.576  11.223 -1.6908 -0.8403 -0.2686
  361MOL0     H47626   1.404  10.770  11.079  1.5064  1.0100 -1.4615
  361MOL0     H47627   1.491  10.651  10.985 -0.7214 -0.3756 -0.8740
  361MOL0     H47628   1.588  10.577  11.219 -0.6891 -0.0696  1.0949
  361MOL0     H47629   1.505  10.715  11.288 -2.2314  0.0654 -2.3306
  361MOL0     H47630   1.637  10.830  11.065  2.8984 -0.1896 -1.8056
  361MOL0     H47631   1.702  10.854  11.227  0.0783 -0.6105  0.8791
  361MOL0     H47632   1.775  10.649  11.014  0.5148  1.7791 -1.4141
  361MOL0     H47633   1.828  10.634  11.189 -3.3395  2.1073  3.1241
  361MOL0     H47634   1.774  10.201  11.086  1.1997  0.3639  1.8485
  361MOL0     H47635   1.993  10.105  11.065  2.1013  1.3230  0.5402
  361MOL0     H47636   2.441  10.177  10.603 -0.1527 -1.9892 -1.3889
  361MOL0     H47637   2.671  10.052  10.592 -0.2436 -2.0140 -0.7322
  361MOL0     H47638   3.818   9.569  10.631  1.4995  0.8509 -1.0666
  361MOL0     H47639   4.017   9.476  10.516 -1.4766  0.4710 -0.3462
  361MOL0     H47640   4.375   9.143  10.614 -1.1591  0.7854 -1.4792
  361MOL0     H47641   4.600   9.058  10.577  2.0591  0.9280  1.1353
  361MOL0     H47642   4.888   9.044  10.529  0.7248 -2.5318 -4.3795
  361MOL0     H47643   4.848   9.222  10.555 -0.8920  1.4826 -1.3111
  361MOL0     H47644   4.966   9.263  10.348  3.0470  1.7382  2.5551
  361MOL0     H47645   5.066   9.207  10.468 -0.9227  1.3214  1.1281
  361MOL0     H47646   4.943   9.011  10.246  0.7589 -0.5122 -0.3337
  361MOL0     H47647   5.067   8.968  10.361 -0.4886  0.0844  0.8148
  361MOL0     H47648   5.076   9.182  10.137 -1.2369 -0.8771 -0.8669
  361MOL0     H47649   5.208   9.167  10.257 -0.3357  2.6170 -2.4928
  361MOL0     H47650   5.193   8.841   9.958 -3.4780 -0.1551 -0.5617
  361MOL0     H47651   4.692   9.365  10.309 -0.6593  3.0631  2.3568
  361MOL0     H47652   4.497   9.484  10.359  4.1152  2.0396  0.0407
  362MOL0     O47653   0.117   6.334   4.203 -0.2629  0.2330 -0.1263
  362MOL0     C47654   0.086   6.409   4.293  0.7368  0.7992 -0.0420
  362MOL0     O47655   0.169   6.497   4.360 -0.1434  0.4935  1.2490
  362MOL0     C47656   0.305   6.491   4.338  0.3717  0.5243  0.3028
  362MOL0     C47657   0.389   6.466   4.442  0.2878  0.2851  0.0264
  362MOL0     C47658   0.531   6.457   4.427  0.4281  0.2712  0.1626
  362MOL0     C47659   0.589   6.502   4.305 -0.1944 -0.0790  0.4491
  362MOL0     O47660   0.725   6.499   4.295  0.0594 -0.7787 -0.0141
  362MOL0     C47661   0.778   6.615   4.224  0.5629  0.0510 -0.2901
  362MOL0     C47662   0.931   6.607   4.232 -0.8313 -0.4676  0.5591
  362MOL0     C47663   0.988   6.460   4.218 -0.2608 -0.7165  0.1850
  362MOL0     C47664   1.144   6.465   4.239  0.2553  0.5356  0.5324
  362MOL0     C47665   1.200   6.323   4.229 -0.1444 -1.5931  0.6978
  362MOL0     C47666   1.350   6.312   4.199 -0.5291  0.4574  0.3616
  362MOL0     C47667   1.392   6.168   4.198  0.3080  0.2159 -0.4281
  362MOL0     C47668   1.536   6.145   4.153  0.3693  0.5773  0.6114
  362MOL0     N47669   1.633   6.171   4.260  0.3892 -0.1973 -0.0404
  362MOL0     C47670   1.681   6.086   4.361  0.4793 -0.4370  0.7190
  362MOL0     C47671   1.780   6.148   4.416 -0.8222  1.4842  0.1574
  362MOL0     C47672   1.850   6.076   4.532  0.4660  0.6230  0.1420
  362MOL0     C47673   1.963   5.976   4.500  0.3138  0.2303 -0.1540
  362MOL0     C47674   2.001   5.876   4.610 -0.4546 -0.2647 -0.3214
  362MOL0     C47675   2.115   5.786   4.563  0.1115 -0.8212 -0.2683
  362MOL0     O47676   2.242   5.848   4.552 -0.6503 -0.3459  0.7065
  362MOL0     C47677   2.324   5.814   4.445 -0.4456 -0.3718  0.6508
  362MOL0     C47678   2.288   5.840   4.314  0.1223  0.8094  0.4154
  362MOL0     C47679   2.370   5.817   4.202 -0.4226  0.0441  0.1921
  362MOL0     C47680   2.504   5.761   4.216 -0.7976 -0.0808  0.7626
  362MOL0     C47681   2.600   5.746   4.099 -0.2248 -0.4165 -0.4977
  362MOL0     O47682   2.730   5.740   4.135 -0.5033 -0.3496  0.0183
  362MOL0     C47683   2.825   5.815   4.067 -0.4569  1.0985  0.4538
  362MOL0     C47684   2.957   5.789   4.104  0.2334 -0.1850 -0.9445
  362MOL0     C47685   3.061   5.863   4.057  0.0874  0.2690  0.0234
  362MOL0     C47686   3.044   5.963   3.957  0.5047 -0.5290 -0.1645
  362MOL0     O47687   3.147   6.038   3.904 -0.2647 -0.4204 -0.2372
  362MOL0     C47688   3.283   6.029   3.948  0.2053 -0.2679  0.0242
  362MOL0     C47689   3.379   6.060   3.833 -0.8199 -0.4032 -1.0277
  362MOL0     C47690   3.393   6.218   3.812  0.2531  0.1966 -0.2685
  362MOL0     C47691   3.502   6.237   3.708 -0.6197  0.2291 -0.2504
  362MOL0     C47692   3.493   6.382   3.660 -0.1014 -0.7284 -0.0503
  362MOL0     C47693   3.596   6.416   3.555  0.2908 -0.2478  0.3119
  362MOL0     C47694   3.561   6.362   3.417  0.3266  0.3282 -0.1260
  362MOL0     C47695   3.639   6.439   3.310 -0.5083 -0.2838  0.9432
  362MOL0    Cl47696   3.795   6.367   3.279  0.0368  0.1421 -0.0127
  362MOL0     C47697   2.914   5.981   3.915 -1.3535  0.3620  0.9142
  362MOL0     C47698   2.806   5.911   3.961 -1.1293 -0.3298 -0.4450
  362MOL0     O47699   2.553   5.749   3.988 -0.0839  0.4223 -0.1184
  362MOL0     C47700   2.549   5.727   4.351 -0.1231 -0.6887  0.7944
  362MOL0     C47701   2.452   5.751   4.459 -0.6204 -1.0347 -0.5045
  362MOL0     N47702   1.807   6.265   4.351  0.0531  0.5911  0.6011
  362MOL0     N47703   1.722   6.267   4.250 -0.1432 -1.0705 -0.5828
  362MOL0     C47704   0.507   6.547   4.203  0.3192 -0.5734  0.2121
  362MOL0     C47705   0.363   6.537   4.215 -0.4629  0.2860 -1.3774
  362MOL0     C47706  -0.063   6.396   4.331 -0.1639  0.4721 -0.6785
  362MOL0     C47707  -0.118   6.510   4.385  0.1004  0.6562  0.6267
  362MOL0     C47708  -0.253   6.516   4.412 -1.2424 -0.2261 -0.3721
  362MOL0     C47709  -0.336   6.395   4.414  0.2252  0.2131 -0.1137
  362MOL0     O47710  -0.455   6.420   4.480 -0.3656  0.5715 -0.7020
  362MOL0     C47711  -0.527   6.304   4.539  0.9299  0.1401 -0.2852
  362MOL0     C47712  -0.446   6.211   4.631 -0.7745  0.4159 -0.8581
  362MOL0     C47713  -0.366   6.287   4.730  0.3070 -0.1244  0.1396
  362MOL0     C47714  -0.266   6.189   4.789  0.1458  0.3563 -0.5628
  362MOL0     C47715  -0.208   6.236   4.912  1.1589 -0.2039 -0.2279
  362MOL0     C47716  -0.165   6.287   5.009 -0.4777 -0.7561  0.6180
  362MOL0     C47717  -0.280   6.284   4.354  0.3299  0.4558 -0.0147
  362MOL0     C47718  -0.147   6.286   4.305 -0.0320 -0.7152 -0.8387
  362MOL0     H47719   0.332   6.443   4.532 -1.6796 -2.6243 -1.7807
  362MOL0     H47720   0.583   6.425   4.516  1.8373  2.8064  0.3507
  362MOL0     H47721   0.739   6.711   4.258  1.1629  1.4175 -3.1484
  362MOL0     H47722   0.754   6.613   4.118  0.4819  1.3560 -0.3123
  362MOL0     H47723   0.952   6.646   4.332  2.4932 -0.4829 -0.0168
  362MOL0     H47724   0.987   6.681   4.174  1.5142  1.0536  4.3833
  362MOL0     H47725   0.959   6.413   4.124 -0.5791  0.6235 -0.4140
  362MOL0     H47726   0.957   6.395   4.300 -1.3766 -0.5736 -0.1099
  362MOL0     H47727   1.178   6.540   4.168 -1.3831  1.9027  1.1188
  362MOL0     H47728   1.172   6.507   4.335 -0.4421  0.1500  0.9178
  362MOL0     H47729   1.146   6.272   4.149 -0.4210  0.5465 -0.5516
  362MOL0     H47730   1.177   6.273   4.324  0.8764 -0.0110  1.8411
  362MOL0     H47731   1.406   6.366   4.276  2.2212 -2.1216  0.3484
  362MOL0     H47732   1.370   6.352   4.100  0.7086  0.3104  0.5357
  362MOL0     H47733   1.377   6.106   4.287 -0.2462  0.1847 -0.5398
  362MOL0     H47734   1.316   6.118   4.138  0.0552  1.5602 -1.2815
  362MOL0     H47735   1.551   6.205   4.063  0.4880  0.4022  0.5131
  362MOL0     H47736   1.552   6.038   4.134 -0.7157  0.1048  2.1177
  362MOL0     H47737   1.630   5.992   4.381 -1.2135 -0.0434 -1.4153
  362MOL0     H47738   1.777   6.017   4.587  1.1044 -1.7900 -1.4497
  362MOL0     H47739   1.886   6.149   4.605 -3.1622  2.2208  0.5768
  362MOL0     H47740   2.049   6.041   4.480 -0.0660  2.2419  3.6530
  362MOL0     H47741   1.934   5.915   4.415 -0.4954 -1.5354  1.3114
  362MOL0     H47742   2.028   5.942   4.693 -3.0808  1.4864 -0.7574
  362MOL0     H47743   1.923   5.808   4.643  0.7465 -2.7469 -2.2842
  362MOL0     H47744   2.085   5.741   4.468 -0.6916 -0.1319 -0.3507
  362MOL0     H47745   2.122   5.704   4.636 -0.3634  1.0527  1.9905
  362MOL0     H47746   2.201   5.899   4.287  1.1261  1.2275 -2.2617
  362MOL0     H47747   2.329   5.838   4.104  0.4473 -1.0391 -0.4205
  362MOL0     H47748   2.983   5.717   4.181 -0.9801  0.2585 -0.0987
  362MOL0     H47749   3.158   5.843   4.101  0.1440 -1.9650 -0.9757
  362MOL0     H47750   3.317   5.929   3.976 -0.9878 -0.7188 -0.0931
  362MOL0     H47751   3.296   6.095   4.034 -2.1932  2.7586 -1.7326
  362MOL0     H47752   3.344   6.016   3.739 -2.1400  1.7549 -1.5933
  362MOL0     H47753   3.473   6.014   3.866 -0.5720  1.2523  0.7673
  362MOL0     H47754   3.417   6.267   3.907  0.5939  1.0902 -0.7950
  362MOL0     H47755   3.309   6.270   3.766  0.3280 -2.0059 -3.1743
  362MOL0     H47756   3.601   6.219   3.751 -1.6136 -1.0695  1.6544
  362MOL0     H47757   3.474   6.167   3.628 -2.8111  1.5052 -0.6802
  362MOL0     H47758   3.505   6.445   3.749 -0.2084 -0.3683 -0.2914
  362MOL0     H47759   3.393   6.409   3.627  0.6113  1.1936 -0.7541
  362MOL0     H47760   3.698   6.382   3.570  0.7629  0.8129 -0.3932
  362MOL0     H47761   3.608   6.525   3.558  1.6421 -0.3636 -0.4173
  362MOL0     H47762   3.593   6.258   3.408  0.7641  0.5496 -1.2119
  362MOL0     H47763   3.452   6.374   3.417  0.3439  1.9753  3.7049
  362MOL0     H47764   3.640   6.547   3.323 -1.2374  0.0929 -1.5874
  362MOL0     H47765   3.590   6.437   3.212 -2.7545  1.6846  1.9302
  362MOL0     H47766   2.880   6.062   3.851  0.2969 -0.3881 -1.0574
  362MOL0     H47767   2.709   5.940   3.923 -0.3752  1.6565 -1.0044
  362MOL0     H47768   2.646   5.682   4.369 -0.8769 -2.7793 -0.0084
  362MOL0     H47769   2.501   5.727   4.553 -0.9839 -1.1806 -0.3495
  362MOL0     H47770   0.540   6.582   4.106  2.8720 -0.9268  0.8744
  362MOL0     H47771   0.296   6.563   4.134 -2.0399  1.0114  0.0821
  362MOL0     H47772  -0.054   6.596   4.404  2.5283 -0.7281 -0.8739
  362MOL0     H47773  -0.283   6.614   4.449 -0.5350  1.1378 -3.1458
  362MOL0     H47774  -0.580   6.242   4.466 -0.1090  1.9960 -1.1636
  362MOL0     H47775  -0.602   6.349   4.604 -0.1640 -1.5234 -0.3509
  362MOL0     H47776  -0.522   6.155   4.686 -2.5069  3.0535 -0.3946
  362MOL0     H47777  -0.390   6.129   4.587  1.0320  1.6097 -0.9019
  362MOL0     H47778  -0.428   6.337   4.804 -1.1130  1.3742 -1.9305
  362MOL0     H47779  -0.312   6.367   4.679 -1.6559  0.0745 -1.7964
  362MOL0     H47780  -0.316   6.096   4.815  1.1585 -0.8508 -2.6625
  362MOL0     H47781  -0.184   6.172   4.719  2.7004 -1.4392  2.6371
  362MOL0     H47782  -0.133   6.321   5.105  0.9738  1.4348 -0.5429
  362MOL0     H47783  -0.321   6.184   4.342  0.3727  0.3946  0.3607
  362MOL0     H47784  -0.118   6.193   4.259 -2.8976 -1.5643 -1.1108
  363MOL0     O47785   4.740   9.569   1.125 -0.2930 -0.0761  0.4315
  363MOL0     C47786   4.639   9.523   1.081  0.7026 -0.0200  0.4670
  363MOL0     O47787   4.602   9.526   0.948 -0.1011  0.3373 -0.9765
  363MOL0     C47788   4.677   9.603   0.860  0.5659 -0.6232 -0.4404
  363MOL0     C47789   4.603   9.690   0.775 -0.4550  1.3750 -0.5359
  363MOL0     C47790   4.673   9.761   0.675  0.3185 -0.9420  0.1040
  363MOL0     C47791   4.805   9.770   0.668 -0.8401 -0.3192  1.0201
  363MOL0     O47792   4.863   9.859   0.578  0.1400 -0.2558  0.1760
  363MOL0     C47793   4.881   9.987   0.651  0.3631  0.2891 -0.1931
  363MOL0     C47794   4.924  10.097   0.565  0.2115  0.1427 -0.8318
  363MOL0     C47795   4.813  10.141   0.450 -1.2395  0.5286 -0.4167
  363MOL0     C47796   4.702  10.230   0.499  0.7119 -0.2984 -0.3969
  363MOL0     C47797   4.569  10.185   0.444 -0.0399 -0.1799  0.2003
  363MOL0     C47798   4.439  10.277   0.485 -1.0179  0.2936 -0.1362
  363MOL0     C47799   4.309  10.213   0.451  0.1495 -0.4958 -1.0977
  363MOL0     C47800   4.189  10.317   0.417  0.0171  0.2340 -0.3689
  363MOL0     N47801   4.138  10.407   0.520  0.2711 -0.6936  0.2287
  363MOL0     C47802   4.016  10.399   0.582  0.0460 -0.3172 -0.3549
  363MOL0     C47803   4.021  10.502   0.669  0.2773  0.7897  0.5869
  363MOL0     C47804   3.902  10.541   0.756  0.2010 -0.3499  0.2395
  363MOL0     C47805   3.853  10.683   0.726 -0.3715 -0.1619  0.0794
  363MOL0     C47806   3.705  10.709   0.753  0.0642 -0.1862 -0.9071
  363MOL0     C47807   3.664  10.861   0.763  0.3690  0.2118 -0.3952
  363MOL0     O47808   3.519  10.879   0.777 -0.3345 -0.0172  0.2438
  363MOL0     C47809   3.438  10.878   0.659  0.3008  0.8923  0.2101
  363MOL0     C47810   3.487  10.850   0.534  0.0298 -0.4911  0.0667
  363MOL0     C47811   3.403  10.830   0.424  1.0307  0.3421 -0.6335
  363MOL0     C47812   3.265  10.859   0.443  0.2169  0.3887  0.0743
  363MOL0     C47813   3.173  10.852   0.325 -0.0839  0.0223 -0.7771
  363MOL0     O47814   3.242  10.822   0.208  0.3855 -0.1735  0.2681
  363MOL0     C47815   3.172  10.825   0.085 -0.6924  0.6496  0.0673
  363MOL0     C47816   3.037  10.792   0.078  0.2611  0.0053  0.3052
  363MOL0     C47817   2.971  10.788  -0.044 -0.3995 -0.2735  0.1835
  363MOL0     C47818   3.039  10.824  -0.162  0.1468  0.0619 -0.7027
  363MOL0     O47819   2.959  10.822  -0.271  0.2661 -0.0060  0.0519
  363MOL0     C47820   3.017  10.796  -0.397 -0.2712 -0.2840 -0.6038
  363MOL0     C47821   2.912  10.754  -0.504 -0.6896 -0.5866 -0.3734
  363MOL0     C47822   2.875  10.606  -0.479 -0.1949  0.1584 -0.0129
  363MOL0     C47823   2.788  10.551  -0.591  1.8543  0.3336  0.0357
  363MOL0     C47824   2.783  10.399  -0.603 -1.0689  0.5438 -0.6794
  363MOL0     C47825   2.757  10.334  -0.468  0.4706  0.2673 -0.4135
  363MOL0     C47826   2.621  10.370  -0.408  0.9534 -0.3150 -0.9044
  363MOL0     C47827   2.584  10.315  -0.271 -0.3589  0.6346  0.5882
  363MOL0    Cl47828   2.674  10.378  -0.143  0.4595 -0.0011  0.0686
  363MOL0     C47829   3.172  10.849  -0.155 -0.8030  0.8862 -0.5132
  363MOL0     C47830   3.240  10.855  -0.036  0.0904 -0.3386 -0.1774
  363MOL0     O47831   3.063  10.900   0.327 -0.7683 -0.0546 -0.1619
  363MOL0     C47832   3.221  10.893   0.568  0.2474 -0.2839 -0.0640
  363MOL0     C47833   3.304  10.901   0.677  0.2310  0.0224 -1.1393
  363MOL0     N47834   4.148  10.561   0.658  0.0149  0.1940  0.1956
  363MOL0     N47835   4.209  10.519   0.556 -0.1049 -0.5064  0.1203
  363MOL0     C47836   4.876   9.689   0.755 -0.8218  0.4873  0.6913
  363MOL0     C47837   4.816   9.604   0.842 -0.8131  0.0574 -0.5791
  363MOL0     C47838   4.571   9.433   1.172 -0.0572 -0.6658 -0.7330
  363MOL0     C47839   4.635   9.374   1.286  0.3053  0.3296  0.4819
  363MOL0     C47840   4.559   9.286   1.360 -0.7739 -0.2833  0.3874
  363MOL0     C47841   4.427   9.240   1.321 -0.1898  0.6207 -0.1435
  363MOL0     O47842   4.356   9.145   1.396  0.5105  0.1636  0.3322
  363MOL0     C47843   4.365   9.166   1.540 -0.2088  0.7996  0.4273
  363MOL0     C47844   4.226   9.139   1.593 -0.5199  0.1166 -0.2922
  363MOL0     C47845   4.207   9.167   1.733  0.6210 -0.0280 -0.9119
  363MOL0     C47846   4.071   9.114   1.789  1.0659 -0.2409  0.4889
  363MOL0     C47847   4.013   9.224   1.867 -0.2489 -1.0468 -1.1544
  363MOL0     C47848   3.980   9.327   1.922 -0.0951  0.7204 -0.2910
  363MOL0     C47849   4.366   9.298   1.208  0.7093  0.4748 -1.0234
  363MOL0     C47850   4.434   9.395   1.137 -0.3528 -0.4570 -0.8491
  363MOL0     H47851   4.495   9.680   0.779 -0.2950 -0.5180  0.2497
  363MOL0     H47852   4.613   9.808   0.598  0.4552 -2.2058 -0.8048
  363MOL0     H47853   4.957   9.970   0.727 -0.6194 -2.3436  0.3050
  363MOL0     H47854   4.780  10.009   0.688  0.3914 -2.1717  1.5500
  363MOL0     H47855   5.020  10.073   0.519  1.0440 -0.6310  1.1731
  363MOL0     H47856   4.937  10.185   0.629 -0.3932 -0.5962  0.3496
  363MOL0     H47857   4.768  10.052   0.406  0.9461 -2.0287  2.0981
  363MOL0     H47858   4.875  10.177   0.367 -0.6445  0.7281  0.0985
  363MOL0     H47859   4.689  10.220   0.607  3.0584  0.9140  0.0571
  363MOL0     H47860   4.742  10.329   0.477  3.5289 -1.7821 -2.7708
  363MOL0     H47861   4.548  10.083   0.478 -0.1250 -0.3925 -0.4712
  363MOL0     H47862   4.589  10.176   0.337  0.8462 -2.5356  0.5120
  363MOL0     H47863   4.455  10.368   0.426  1.0903 -1.7393 -2.9882
  363MOL0     H47864   4.444  10.297   0.592  0.5092  0.5176 -0.2278
  363MOL0     H47865   4.315  10.145   0.366  1.0025 -1.3225 -0.4002
  363MOL0     H47866   4.263  10.156   0.533 -1.2278 -0.1857 -1.6226
  363MOL0     H47867   4.105  10.259   0.375 -1.1136  1.6831 -0.1899
  363MOL0     H47868   4.240  10.381   0.344  1.8606 -2.5832 -1.7378
  363MOL0     H47869   3.940  10.324   0.561  0.8508 -1.5455  0.9655
  363MOL0     H47870   3.946  10.535   0.856 -0.3294  0.5274  0.5341
  363MOL0     H47871   3.820  10.469   0.748 -0.3207  0.4913 -3.6701
  363MOL0     H47872   3.868  10.693   0.619 -0.2262 -1.2247 -0.0154
  363MOL0     H47873   3.914  10.764   0.767 -2.2070  0.7609  1.1335
  363MOL0     H47874   3.646  10.659   0.675 -1.4321  0.6828 -0.3617
  363MOL0     H47875   3.684  10.669   0.852  0.6277 -0.7817 -1.0201
  363MOL0     H47876   3.702  10.919   0.679  3.6958  0.3639  1.0629
  363MOL0     H47877   3.715  10.915   0.843 -3.6372  1.9337  1.2708
  363MOL0     H47878   3.593  10.833   0.524  0.4114  2.0866 -0.9309
  363MOL0     H47879   3.450  10.786   0.336  1.7872  0.6446 -0.3902
  363MOL0     H47880   2.984  10.763   0.168  1.1323 -0.1692  0.7773
  363MOL0     H47881   2.869  10.752  -0.056 -0.9805 -0.2597  3.8643
  363MOL0     H47882   3.102  10.728  -0.387  1.1027  1.6473  1.6063
  363MOL0     H47883   3.050  10.894  -0.431 -1.8990  0.0710 -1.2485
  363MOL0     H47884   2.956  10.762  -0.604  4.1456  0.9924  1.6005
  363MOL0     H47885   2.827  10.822  -0.503 -0.9580 -0.9267  0.3572
  363MOL0     H47886   2.814  10.595  -0.389 -1.1241 -1.9589 -0.8420
  363MOL0     H47887   2.966  10.547  -0.469 -0.0727 -0.3354 -3.0759
  363MOL0     H47888   2.685  10.585  -0.582  1.7401 -0.0856  0.3327
  363MOL0     H47889   2.822  10.585  -0.689 -2.2806  1.4668 -1.1970
  363MOL0     H47890   2.879  10.366  -0.645  0.3290  1.5345  1.5063
  363MOL0     H47891   2.704  10.368  -0.671 -0.9023  0.2987 -0.7648
  363MOL0     H47892   2.831  10.361  -0.393 -0.6513  1.7398  0.2013
  363MOL0     H47893   2.764  10.225  -0.469 -0.1977  0.2119 -1.6235
  363MOL0     H47894   2.609  10.479  -0.409  0.5008 -0.3353 -3.2099
  363MOL0     H47895   2.551  10.331  -0.483  3.5725 -1.4120 -2.9154
  363MOL0     H47896   2.607  10.209  -0.263 -0.9494  0.3433 -1.1029
  363MOL0     H47897   2.476  10.315  -0.256 -0.2564  1.4177  1.3973
  363MOL0     H47898   3.219  10.855  -0.253 -0.1329 -1.2251 -0.3796
  363MOL0     H47899   3.346  10.877  -0.036  0.4764 -1.9615 -1.6806
  363MOL0     H47900   3.116  10.919   0.575  1.2513  4.7915  0.2392
  363MOL0     H47901   3.264  10.928   0.774 -1.7802 -3.3144 -0.8919
  363MOL0     H47902   4.985   9.683   0.754 -0.8443 -3.2312 -2.7194
  363MOL0     H47903   4.877   9.552   0.916 -2.4049 -0.2477  0.5765
  363MOL0     H47904   4.739   9.399   1.308  0.4730  0.3347 -0.2878
  363MOL0     H47905   4.603   9.252   1.454  0.8654  3.4911  1.1701
  363MOL0     H47906   4.406   9.262   1.573 -2.3690  1.4255  1.4991
  363MOL0     H47907   4.428   9.084   1.576 -0.7125 -0.2556 -0.9917
  363MOL0     H47908   4.147   9.190   1.537 -0.1660 -0.9445 -1.8209
  363MOL0     H47909   4.228   9.030   1.584 -1.3542  0.0658  0.0713
  363MOL0     H47910   4.238   9.270   1.755  1.6045  0.4451 -3.9496
  363MOL0     H47911   4.272   9.103   1.793 -0.1182  2.0472  2.3428
  363MOL0     H47912   4.001   9.082   1.711  0.3901 -2.2631  1.8497
  363MOL0     H47913   4.090   9.032   1.859 -2.4663  0.7911  2.9639
  363MOL0     H47914   3.941   9.409   1.978  2.2884  0.6377  1.6672
  363MOL0     H47915   4.276   9.255   1.165  2.7511 -0.9058 -4.3700
  363MOL0     H47916   4.386   9.424   1.045 -1.8684  0.1487  0.0902
  364MOL0     O47917   0.298   1.149   5.988 -0.1312  0.5813  0.5903
  364MOL0     C47918   0.187   1.113   5.942 -0.1978  0.6486  0.1510
  364MOL0     O47919   0.154   0.977   5.903  0.0151  0.5624 -0.0550
  364MOL0     C47920   0.258   0.894   5.902  0.3240  1.3765  0.5808
  364MOL0     C47921   0.298   0.834   5.781  0.1011  0.3169  0.2162
  364MOL0     C47922   0.394   0.738   5.777 -0.8898 -0.3103 -0.5612
  364MOL0     C47923   0.449   0.695   5.894 -0.9839  0.4861 -0.2925
  364MOL0     O47924   0.548   0.597   5.907  0.9888  0.0833 -0.3629
  364MOL0     C47925   0.538   0.489   5.810  0.2342  0.1684 -0.4670
  364MOL0     C47926   0.604   0.362   5.859  0.2290 -0.4058 -0.0053
  364MOL0     C47927   0.748   0.361   5.821  0.2731  0.0587 -0.7100
  364MOL0     C47928   0.827   0.491   5.853  0.4418 -0.2604  1.0368
  364MOL0     C47929   0.966   0.490   5.801  0.4640  0.1753  0.1890
  364MOL0     C47930   1.059   0.396   5.868 -0.1700  0.4390  0.4685
  364MOL0     C47931   1.193   0.413   5.803 -0.2627 -0.2618 -0.0885
  364MOL0     C47932   1.296   0.318   5.861 -0.6745  0.3158 -0.9481
  364MOL0     N47933   1.405   0.282   5.775  0.6130 -1.0534  0.5326
  364MOL0     C47934   1.524   0.347   5.787  0.2650 -0.5733 -0.3605
  364MOL0     C47935   1.595   0.301   5.683 -0.2997  0.0397 -0.7916
  364MOL0     C47936   1.732   0.361   5.642  0.9787  0.6104 -0.0619
  364MOL0     C47937   1.728   0.506   5.583  0.0610  0.2728 -0.6013
  364MOL0     C47938   1.646   0.519   5.456 -0.4024  0.8860  0.0581
  364MOL0     C47939   1.495   0.509   5.468  0.2731  0.5924  0.4930
  364MOL0     O47940   1.453   0.591   5.573  0.7404 -0.0619  0.3844
  364MOL0     C47941   1.324   0.637   5.576 -0.0652  0.2079  0.4245
  364MOL0     C47942   1.305   0.750   5.640  0.8837 -0.5190 -0.7254
  364MOL0     C47943   1.177   0.809   5.656  0.6577  0.3307 -0.3390
  364MOL0     C47944   1.067   0.753   5.586  0.0347 -0.3451  0.3452
  364MOL0     C47945   0.935   0.815   5.591 -0.4889  0.9587  1.1446
  364MOL0     O47946   0.932   0.931   5.647 -0.1536 -0.1089 -0.2707
  364MOL0     C47947   0.833   1.018   5.638 -1.0239 -0.1603  0.0601
  364MOL0     C47948   0.711   0.988   5.700  0.3716 -0.4186 -0.2464
  364MOL0     C47949   0.615   1.087   5.722 -0.0048  0.2487  0.3849
  364MOL0     C47950   0.626   1.219   5.666  0.0449 -0.6866  1.4992
  364MOL0     O47951   0.530   1.314   5.664  0.2515  0.1307 -0.1439
  364MOL0     C47952   0.411   1.267   5.593 -0.6447  0.6081 -0.1307
  364MOL0     C47953   0.319   1.389   5.621  0.9063 -0.8199 -0.1615
  364MOL0     C47954   0.180   1.373   5.547 -0.1593 -0.9178  0.2930
  364MOL0     C47955   0.107   1.509   5.570 -0.0030  0.9808  0.2043
  364MOL0     C47956  -0.028   1.514   5.499  0.2036  0.2029  0.6191
  364MOL0     C47957  -0.111   1.641   5.513 -0.8363 -1.0606 -0.7626
  364MOL0     C47958  -0.238   1.632   5.433 -0.1115  0.6160  0.0369
  364MOL0     C47959  -0.345   1.734   5.457  0.2707 -0.7078  0.1256
  364MOL0    Cl47960  -0.409   1.739   5.632 -0.4428 -0.7187 -0.0893
  364MOL0     C47961   0.753   1.249   5.611 -0.8394  0.1596 -0.2508
  364MOL0     C47962   0.858   1.152   5.600  0.5171  0.0550 -0.1503
  364MOL0     O47963   0.837   0.759   5.535  0.8715 -0.1236 -0.0203
  364MOL0     C47964   1.089   0.633   5.513 -0.4095 -0.0838 -0.2199
  364MOL0     C47965   1.214   0.569   5.516 -0.3454 -0.1956 -1.2180
  364MOL0     N47966   1.526   0.208   5.609 -0.2653 -0.0172  0.2869
  364MOL0     N47967   1.411   0.198   5.667 -0.2694  0.4596 -0.0242
  364MOL0     C47968   0.416   0.757   6.018 -0.2153  0.6767 -0.0341
  364MOL0     C47969   0.311   0.847   6.023 -0.6867 -0.4264 -0.0005
  364MOL0     C47970   0.085   1.223   5.925 -0.0116 -0.5279 -0.3373
  364MOL0     C47971  -0.043   1.201   5.861 -0.9791  0.1712 -0.1105
  364MOL0     C47972  -0.133   1.310   5.847  0.4017  0.4583  0.4825
  364MOL0     C47973  -0.097   1.435   5.900  0.3051  0.1565 -0.7866
  364MOL0     O47974  -0.190   1.539   5.879 -0.6914 -0.0837 -0.4188
  364MOL0     C47975  -0.148   1.677   5.892  0.6208  0.6805  0.9333
  364MOL0     C47976  -0.175   1.732   6.028  0.2278 -0.3706  0.2302
  364MOL0     C47977  -0.113   1.877   6.032  1.7764  0.5006 -0.9446
  364MOL0     C47978  -0.211   1.975   6.111 -0.8440 -0.4747  0.4739
  364MOL0     C47979  -0.314   2.003   6.008 -0.8471 -0.0119  0.5606
  364MOL0     C47980  -0.405   2.003   5.931  1.0535  0.5839 -0.0420
  364MOL0     C47981   0.026   1.449   5.961  0.0898 -0.8500 -0.1722
  364MOL0     C47982   0.110   1.348   5.975 -0.0211 -0.1219  0.9758
  364MOL0     H47983   0.266   0.873   5.685  0.3713 -0.5110 -0.2222
  364MOL0     H47984   0.420   0.686   5.685 -0.0897 -0.7720 -0.0850
  364MOL0     H47985   0.575   0.523   5.713  0.1369 -1.7676 -1.2111
  364MOL0     H47986   0.431   0.472   5.794 -0.3099  2.8560 -0.2886
  364MOL0     H47987   0.557   0.280   5.804  1.4449  0.6936 -2.8934
  364MOL0     H47988   0.590   0.352   5.967  1.9134  0.1814  0.3008
  364MOL0     H47989   0.765   0.354   5.714  2.2331  1.4807 -0.5627
  364MOL0     H47990   0.778   0.267   5.869  0.9648  2.1109  3.4267
  364MOL0     H47991   0.782   0.577   5.803  1.7044 -1.5444 -2.6017
  364MOL0     H47992   0.832   0.493   5.963 -2.2203 -2.8610  1.3292
  364MOL0     H47993   1.005   0.589   5.828 -0.5314 -0.1180  3.1491
  364MOL0     H47994   0.962   0.475   5.693 -1.8662  3.0656 -0.2570
  364MOL0     H47995   1.028   0.294   5.840 -0.8739  1.3181 -2.3321
  364MOL0     H47996   1.058   0.410   5.976 -1.1899  0.6625  0.4468
  364MOL0     H47997   1.177   0.383   5.699 -3.2337 -1.3735  0.5768
  364MOL0     H47998   1.228   0.516   5.804 -2.9818  0.7527 -1.0898
  364MOL0     H47999   1.242   0.228   5.893  1.8926 -0.4867  1.6221
  364MOL0     H48000   1.345   0.355   5.952 -0.8692  2.4283 -1.6526
  364MOL0     H48001   1.554   0.424   5.858 -1.6206  0.2602 -0.3968
  364MOL0     H48002   1.773   0.290   5.570 -2.5941  0.7273 -2.5185
  364MOL0     H48003   1.800   0.358   5.727  1.6948 -0.1179 -0.6542
  364MOL0     H48004   1.833   0.531   5.565 -0.1813  1.3534 -0.5353
  364MOL0     H48005   1.699   0.584   5.653  4.3729  2.9175 -1.3345
  364MOL0     H48006   1.658   0.622   5.421 -2.8237  2.4181  3.1838
  364MOL0     H48007   1.687   0.445   5.386 -0.8365  0.4503  0.2558
  364MOL0     H48008   1.468   0.403   5.476  1.4641 -0.0349 -2.5116
  364MOL0     H48009   1.445   0.548   5.379 -1.6947  1.8847  2.0737
  364MOL0     H48010   1.386   0.797   5.695 -1.0282  2.1987 -0.0191
  364MOL0     H48011   1.168   0.899   5.716 -0.0862 -1.1645  1.9255
  364MOL0     H48012   0.689   0.892   5.745  0.9802 -0.1056  0.7604
  364MOL0     H48013   0.527   1.046   5.771  1.5822 -1.3792  2.0244
  364MOL0     H48014   0.371   1.167   5.615 -0.9825  0.3374 -1.8157
  364MOL0     H48015   0.436   1.270   5.487 -0.7456 -0.8773 -0.2220
  364MOL0     H48016   0.371   1.483   5.598 -0.5427  0.1598  0.3896
  364MOL0     H48017   0.294   1.380   5.727  0.0819  3.2886  0.1842
  364MOL0     H48018   0.114   1.292   5.579 -1.4529  0.6330  1.7019
  364MOL0     H48019   0.203   1.356   5.441 -0.2795  0.7244 -0.0178
  364MOL0     H48020   0.088   1.526   5.677 -3.1944  0.9595 -0.2454
  364MOL0     H48021   0.162   1.592   5.526  1.3477 -0.0035 -0.0118
  364MOL0     H48022  -0.092   1.440   5.548 -0.8410  0.0177 -0.9628
  364MOL0     H48023  -0.004   1.495   5.394 -2.3109 -3.1846  0.5049
  364MOL0     H48024  -0.054   1.723   5.468 -4.0407  1.3615 -0.7600
  364MOL0     H48025  -0.120   1.662   5.620  0.7026 -2.1262 -0.3837
  364MOL0     H48026  -0.215   1.631   5.326  1.8285  0.6835  0.4245
  364MOL0     H48027  -0.295   1.541   5.457 -0.5443  0.7003 -0.6447
  364MOL0     H48028  -0.433   1.726   5.394 -1.1344 -0.5624  1.9889
  364MOL0     H48029  -0.299   1.832   5.442 -1.0240  0.0295  0.8343
  364MOL0     H48030   0.778   1.351   5.583 -0.9040  0.9043  2.2160
  364MOL0     H48031   0.956   1.179   5.563  1.6477 -1.6196  1.3963
  364MOL0     H48032   1.002   0.587   5.466  0.0293 -0.6986 -0.4536
  364MOL0     H48033   1.231   0.476   5.463  2.7685 -1.1793  1.1981
  364MOL0     H48034   0.469   0.717   6.104 -0.8516  0.1791  0.1266
  364MOL0     H48035   0.267   0.868   6.120  1.6867  2.4216  0.6149
  364MOL0     H48036  -0.060   1.101   5.823  0.9672 -0.2414 -0.0469
  364MOL0     H48037  -0.229   1.287   5.802  2.2880 -0.3507 -3.6342
  364MOL0     H48038  -0.204   1.732   5.816 -1.2657 -1.7865  0.4011
  364MOL0     H48039  -0.046   1.693   5.856 -0.6614  2.5398 -2.2549
  364MOL0     H48040  -0.281   1.725   6.053 -0.0028 -1.8954 -1.0320
  364MOL0     H48041  -0.116   1.673   6.099  1.6619 -0.8102 -1.2576
  364MOL0     H48042  -0.090   1.905   5.929 -0.5055 -0.8789 -1.8904
  364MOL0     H48043  -0.011   1.887   6.073  0.1008  0.8757  3.7351
  364MOL0     H48044  -0.259   1.935   6.200  1.0557  0.0394  1.7899
  364MOL0     H48045  -0.153   2.064   6.135  1.0038 -1.7513  0.9179
  364MOL0     H48046  -0.484   1.997   5.859  1.8026 -4.8571 -0.8166
  364MOL0     H48047   0.057   1.543   6.004 -0.6848 -0.7118  0.0967
  364MOL0     H48048   0.188   1.369   6.048 -0.3009 -0.1279  1.2786
  365MOL0     O48049   3.337   4.269  10.795  0.2831 -0.1080  0.4036
  365MOL0     C48050   3.220   4.307  10.832 -0.1082 -0.2357 -0.2236
  365MOL0     O48051   3.129   4.227  10.904 -0.0156  0.6376  0.5076
  365MOL0     C48052   3.148   4.092  10.920  0.5764 -0.2915  0.9168
  365MOL0     C48053   3.142   4.040  11.046  0.6181 -0.9546 -0.5207
  365MOL0     C48054   3.164   3.906  11.078 -1.0313  0.2429 -0.2011
  365MOL0     C48055   3.182   3.817  10.969 -0.9718 -0.2383 -0.0020
  365MOL0     O48056   3.196   3.681  11.000  0.2001  0.0308  0.0691
  365MOL0     C48057   3.153   3.581  10.906 -0.0015 -0.3507  0.3825
  365MOL0     C48058   3.004   3.596  10.849  0.6967 -0.5506  0.1937
  365MOL0     C48059   2.979   3.529  10.712 -0.0635  0.4848  0.3805
  365MOL0     C48060   2.981   3.378  10.720  0.6431  0.3846 -1.0441
  365MOL0     C48061   2.918   3.330  10.589  0.0359  0.1384  0.2131
  365MOL0     C48062   2.961   3.180  10.576  0.0708 -0.1451 -0.2448
  365MOL0     C48063   2.890   3.107  10.459 -0.3141  0.8772  1.1062
  365MOL0     C48064   2.924   3.167  10.322 -0.5106  0.7632 -0.5589
  365MOL0     N48065   2.826   3.113  10.231 -0.5802 -0.3234 -0.2603
  365MOL0     C48066   2.853   3.017  10.136  1.3313 -0.2972  0.4631
  365MOL0     C48067   2.759   3.038  10.038 -0.2858  0.4619  0.9543
  365MOL0     C48068   2.752   2.938   9.921 -0.7144 -0.0764  0.3945
  365MOL0     C48069   2.796   3.012   9.788 -0.2686 -0.1335  0.4704
  365MOL0     C48070   2.939   3.041   9.793 -0.8251 -0.3992 -0.2333
  365MOL0     C48071   3.016   3.081   9.659  0.2325  0.1846  0.3914
  365MOL0     O48072   3.140   3.128   9.701 -0.0277  0.1632  0.3744
  365MOL0     C48073   3.253   3.085   9.630  0.8420  0.4454  0.1302
  365MOL0     C48074   3.253   3.029   9.497 -0.0343  0.6675 -0.2348
  365MOL0     C48075   3.373   2.987   9.430 -1.0800  0.0434 -0.8296
  365MOL0     C48076   3.495   3.003   9.503  0.0846  0.2053 -0.5870
  365MOL0     C48077   3.608   2.962   9.430 -1.1989 -0.7557  0.4471
  365MOL0     O48078   3.724   2.950   9.494 -0.3488  0.7428  0.6807
  365MOL0     C48079   3.839   2.905   9.429 -0.0507 -0.6761 -0.2133
  365MOL0     C48080   3.926   2.794   9.457 -0.0533  0.3367 -0.7200
  365MOL0     C48081   4.058   2.800   9.411  0.5875  0.2476  0.9726
  365MOL0     C48082   4.112   2.908   9.349  0.3284 -0.2787  0.8599
  365MOL0     O48083   4.242   2.898   9.315 -0.2470  0.4804 -0.3820
  365MOL0     C48084   4.317   3.000   9.245  0.6684 -0.1033 -0.3996
  365MOL0     C48085   4.351   3.119   9.330 -1.4670 -0.5324 -0.1939
  365MOL0     C48086   4.479   3.108   9.425  0.2144 -0.6426 -0.0055
  365MOL0     C48087   4.475   2.987   9.510 -0.6146 -0.3326  0.2313
  365MOL0     C48088   4.582   3.010   9.625  0.8193  0.2254  0.3085
  365MOL0     C48089   4.590   2.892   9.726  0.3873 -0.8530  0.2657
  365MOL0     C48090   4.662   2.907   9.854 -0.3166 -0.1914 -0.2688
  365MOL0     C48091   4.654   2.769   9.920 -0.1661 -0.3946  0.6872
  365MOL0    Cl48092   4.765   2.662   9.839 -0.1338  0.2282 -0.7360
  365MOL0     C48093   4.033   3.020   9.328 -0.1286  0.4461  0.5609
  365MOL0     C48094   3.901   3.017   9.369 -0.0726  0.4040  0.3508
  365MOL0     O48095   3.588   2.923   9.316  0.7075 -0.4845 -0.1119
  365MOL0     C48096   3.489   3.048   9.635 -1.1408  0.3692 -0.1751
  365MOL0     C48097   3.373   3.089   9.705 -0.1254 -0.4495  0.0377
  365MOL0     N48098   2.680   3.146  10.081 -0.4069  0.2715  0.5847
  365MOL0     N48099   2.725   3.188  10.195  0.0954 -0.4559  0.1150
  365MOL0     C48100   3.173   3.865  10.840 -0.2881 -0.5528 -0.5515
  365MOL0     C48101   3.170   4.003  10.817  0.0335  0.4367 -0.3043
  365MOL0     C48102   3.178   4.438  10.798  0.0020 -0.3251  0.0630
  365MOL0     C48103   3.041   4.462  10.768 -0.5779 -0.2791  0.0121
  365MOL0     C48104   3.000   4.587  10.712  0.6804 -0.1395 -1.5359
  365MOL0     C48105   3.091   4.688  10.689  0.2016 -0.2869 -1.3219
  365MOL0     O48106   3.047   4.818  10.652 -0.5515  1.0819  0.0429
  365MOL0     C48107   3.061   4.931  10.742 -1.3694 -0.3474  0.4244
  365MOL0     C48108   2.935   4.944  10.821 -1.4109 -0.3244 -0.5810
  365MOL0     C48109   2.914   5.093  10.870  0.8084  1.1442  1.4234
  365MOL0     C48110   3.017   5.135  10.972 -1.1020 -0.3374  0.1820
  365MOL0     C48111   3.148   5.176  10.905 -0.1576  0.0761 -1.0134
  365MOL0     C48112   3.249   5.207  10.856 -0.1818  0.4334 -1.1927
  365MOL0     C48113   3.223   4.665  10.724 -1.1220  0.1050 -0.1246
  365MOL0     C48114   3.266   4.543  10.780  0.3081  1.0217 -0.5180
  365MOL0     H48115   3.120   4.109  11.126  1.2814  0.6748 -1.6924
  365MOL0     H48116   3.158   3.859  11.176 -1.0761  2.1679  0.7624
  365MOL0     H48117   3.171   3.484  10.953  0.0110 -2.1717 -3.0713
  365MOL0     H48118   3.212   3.585  10.814 -1.5701  1.8768 -0.6161
  365MOL0     H48119   2.969   3.699  10.847 -0.8638 -0.9962  1.8276
  365MOL0     H48120   2.939   3.547  10.922 -1.1349  1.1563 -0.2054
  365MOL0     H48121   3.048   3.562  10.633 -0.4380 -1.0106 -0.6254
  365MOL0     H48122   2.881   3.564  10.675  1.4120  2.0655 -2.4028
  365MOL0     H48123   3.083   3.339  10.724  0.6618  0.3557 -1.6747
  365MOL0     H48124   2.922   3.332  10.800  0.4657  1.8835 -0.2797
  365MOL0     H48125   2.945   3.381  10.496 -2.8523 -2.8036 -2.5053
  365MOL0     H48126   2.809   3.334  10.596  0.0631  0.5808  0.3773
  365MOL0     H48127   2.913   3.126  10.658 -0.9622 -4.7588 -3.4860
  365MOL0     H48128   3.067   3.161  10.559 -0.3722 -1.3695 -1.9707
  365MOL0     H48129   2.893   2.998  10.470 -1.6388  0.4202 -2.1337
  365MOL0     H48130   2.782   3.125  10.461 -0.1076  2.3791 -0.1433
  365MOL0     H48131   3.019   3.132  10.280 -1.5742 -0.1990 -2.3134
  365MOL0     H48132   2.919   3.276  10.323 -0.3530  0.7668  0.3357
  365MOL0     H48133   2.926   2.938  10.125  0.4921 -0.7330 -4.8000
  365MOL0     H48134   2.654   2.891   9.910  0.2246 -2.0836  0.1719
  365MOL0     H48135   2.815   2.849   9.929 -2.2083 -1.3135 -1.0129
  365MOL0     H48136   2.735   3.102   9.778  0.3829  0.3209  0.5102
  365MOL0     H48137   2.785   2.953   9.697  0.5338  2.5260 -1.4488
  365MOL0     H48138   2.961   3.110   9.874  0.2438  1.4646 -2.0081
  365MOL0     H48139   2.993   2.951   9.825  1.0885  0.7926  0.0154
  365MOL0     H48140   2.962   3.161   9.608 -0.2711  0.4138  1.2738
  365MOL0     H48141   3.017   2.991   9.596 -3.7582 -1.5280  2.3992
  365MOL0     H48142   3.161   3.033   9.440 -2.2446  2.8313  3.1403
  365MOL0     H48143   3.364   2.967   9.324  1.0767  0.7077 -1.1805
  365MOL0     H48144   3.888   2.721   9.527 -0.2464  3.4919  2.8023
  365MOL0     H48145   4.119   2.712   9.429  1.5255  0.4684 -0.8275
  365MOL0     H48146   4.254   3.027   9.160 -3.0106 -1.7741  1.5826
  365MOL0     H48147   4.413   2.964   9.206  1.1147  0.4927  0.1324
  365MOL0     H48148   4.262   3.149   9.387 -2.2116 -2.5669 -0.2001
  365MOL0     H48149   4.375   3.200   9.260 -2.4733 -2.0299 -2.3752
  365MOL0     H48150   4.479   3.193   9.494 -0.5368 -0.3013 -0.4245
  365MOL0     H48151   4.571   3.107   9.366  0.1377 -6.4403 -0.6209
  365MOL0     H48152   4.373   2.971   9.546 -1.0930  1.8011 -0.0372
  365MOL0     H48153   4.484   2.892   9.458 -0.5549  0.7369 -1.7999
  365MOL0     H48154   4.561   3.098   9.686  1.2683 -0.1840  1.0664
  365MOL0     H48155   4.681   3.021   9.581  1.3876 -2.7919  0.5932
  365MOL0     H48156   4.623   2.801   9.674 -2.9714 -1.0053 -1.8758
  365MOL0     H48157   4.486   2.879   9.757 -0.1079  2.4116  0.2957
  365MOL0     H48158   4.764   2.944   9.841 -1.2741  3.1772  0.8002
  365MOL0     H48159   4.606   2.984   9.908 -1.1744 -1.1903  0.3350
  365MOL0     H48160   4.553   2.729   9.908 -0.3980  0.4137 -0.1778
  365MOL0     H48161   4.679   2.781  10.026  2.8800  0.1602 -0.0073
  365MOL0     H48162   4.081   3.107   9.283  0.7089 -0.9040 -1.2888
  365MOL0     H48163   3.855   3.109   9.335  1.4869  1.2590  0.4585
  365MOL0     H48164   3.581   3.047   9.692 -1.9295  1.8311  1.2156
  365MOL0     H48165   3.377   3.127   9.807  0.1108  0.8566 -0.4366
  365MOL0     H48166   3.183   3.801  10.753  3.5145 -1.4609  0.3254
  365MOL0     H48167   3.171   4.038  10.715 -0.4954  0.2516 -0.3712
  365MOL0     H48168   2.972   4.382  10.789 -0.7987 -0.1907 -0.3728
  365MOL0     H48169   2.894   4.590  10.687  0.2803 -2.6535 -0.3779
  365MOL0     H48170   3.092   5.016  10.680 -0.7593 -1.6403 -1.1417
  365MOL0     H48171   3.150   4.910  10.803 -0.6780 -1.4217 -0.8978
  365MOL0     H48172   2.847   4.906  10.769 -2.5936  0.0687  1.0585
  365MOL0     H48173   2.954   4.898  10.918  0.4710  1.9731  0.2550
  365MOL0     H48174   2.819   5.089  10.924 -0.0394 -0.6248 -0.0950
  365MOL0     H48175   2.906   5.162  10.786  0.2098 -0.2519  0.3047
  365MOL0     H48176   2.979   5.224  11.023 -0.6706  0.8486 -1.4907
  365MOL0     H48177   3.027   5.061  11.052  1.5575 -0.6974 -0.3724
  365MOL0     H48178   3.345   5.233  10.817  1.2751  2.4210  3.0824
  365MOL0     H48179   3.296   4.744  10.710 -1.1864 -0.0194 -1.2288
  365MOL0     H48180   3.374   4.532  10.790  0.6210  0.3981 -3.5922
  366MOL0     O48181   4.861   4.874   5.324  0.3717  0.2590  0.7082
  366MOL0     C48182   4.929   4.968   5.359 -0.0860 -0.2435 -0.1538
  366MOL0     O48183   4.893   5.078   5.433  0.5005  0.5291  0.4198
  366MOL0     C48184   4.762   5.110   5.459 -0.3824 -0.6231  0.2629
  366MOL0     C48185   4.653   5.024   5.479 -0.4503 -0.1968 -0.6165
  366MOL0     C48186   4.526   5.071   5.474  0.2524  0.7577 -0.2009
  366MOL0     C48187   4.497   5.201   5.454  0.1920 -0.7201  0.2186
  366MOL0     O48188   4.358   5.238   5.456  0.2182 -0.2046  0.3297
  366MOL0     C48189   4.330   5.375   5.478 -0.3281 -0.4330  0.0086
  366MOL0     C48190   4.187   5.410   5.513  0.5098 -0.5330 -0.2203
  366MOL0     C48191   4.158   5.544   5.450  0.5086 -1.2208  0.5644
  366MOL0     C48192   4.019   5.599   5.494  0.0588  0.2889  0.1224
  366MOL0     C48193   3.908   5.508   5.451 -0.2237  0.1308  0.1019
  366MOL0     C48194   3.767   5.580   5.487  0.4752 -0.6532  0.9944
  366MOL0     C48195   3.649   5.482   5.468 -0.7480 -0.0025 -0.0432
  366MOL0     C48196   3.625   5.476   5.317  0.5651  0.5603  0.2106
  366MOL0     N48197   3.532   5.359   5.287 -0.0872 -0.1029  0.0794
  366MOL0     C48198   3.426   5.315   5.360  0.0341 -0.1004  0.0243
  366MOL0     C48199   3.355   5.230   5.285 -0.2210  0.4333 -0.1332
  366MOL0     C48200   3.240   5.142   5.312  0.1778  0.6665  0.0564
  366MOL0     C48201   3.187   5.157   5.456 -0.8079 -0.3436  0.0324
  366MOL0     C48202   3.059   5.068   5.498  0.0115 -0.1727 -0.5205
  366MOL0     C48203   3.061   4.914   5.457 -0.1557 -0.2135  0.1785
  366MOL0     O48204   3.054   4.907   5.309  0.6909 -0.2677 -0.2283
  366MOL0     C48205   3.003   4.793   5.247 -0.8366 -0.1072 -0.1345
  366MOL0     C48206   3.005   4.799   5.110 -0.6818 -0.5865  0.9753
  366MOL0     C48207   2.967   4.688   5.030 -0.2648  0.2498  0.2619
  366MOL0     C48208   2.925   4.562   5.084 -0.0319 -0.3461  0.3102
  366MOL0     C48209   2.905   4.436   5.008 -1.3828  0.6379  0.2927
  366MOL0     O48210   2.958   4.330   5.068  0.0017  0.0094  0.2300
  366MOL0     C48211   2.939   4.199   5.017  0.6005  0.8325 -0.7827
  366MOL0     C48212   2.886   4.091   5.096  0.3780  0.1508  0.3963
  366MOL0     C48213   2.875   3.963   5.035  0.5915  1.0990 -0.6229
  366MOL0     C48214   2.907   3.936   4.905 -0.1806 -0.5199 -0.1896
  366MOL0     O48215   2.882   3.818   4.842  0.0895  1.8662 -0.6363
  366MOL0     C48216   2.949   3.764   4.726  0.2296 -0.1387  0.1974
  366MOL0     C48217   3.082   3.693   4.780  0.2396 -0.0113 -1.4802
  366MOL0     C48218   3.159   3.630   4.663  0.0855 -0.2665 -0.1798
  366MOL0     C48219   3.291   3.570   4.714 -0.1184  0.4801 -0.0087
  366MOL0     C48220   3.278   3.440   4.795  0.6708  0.0765  0.1076
  366MOL0     C48221   3.257   3.321   4.696  0.5489 -0.6903  0.4481
  366MOL0     C48222   3.279   3.179   4.759  0.5691 -1.0095  0.4458
  366MOL0     C48223   3.422   3.138   4.776  0.0669 -0.2230  0.0644
  366MOL0    Cl48224   3.436   2.982   4.840  0.1375  0.6178  0.0476
  366MOL0     C48225   2.956   4.048   4.832  0.2646  0.1470 -0.5433
  366MOL0     C48226   2.978   4.174   4.886  0.4211 -0.4805 -0.3359
  366MOL0     O48227   2.841   4.436   4.902  0.5950  0.0954 -0.6749
  366MOL0     C48228   2.922   4.560   5.227  0.0947 -0.0712 -0.3452
  366MOL0     C48229   2.957   4.675   5.305  0.4703  1.1163 -0.2673
  366MOL0     N48230   3.427   5.218   5.165 -0.1036 -0.1854  0.5930
  366MOL0     N48231   3.524   5.294   5.170  0.1992 -0.4723  0.7443
  366MOL0     C48232   4.604   5.287   5.429 -0.3516  0.4844 -0.1712
  366MOL0     C48233   4.738   5.243   5.438  0.1464 -0.6757  0.1457
  366MOL0     C48234   5.071   4.958   5.344 -1.3786  0.4988 -0.1094
  366MOL0     C48235   5.150   5.065   5.382  0.6296 -0.3363  0.2945
  366MOL0     C48236   5.290   5.054   5.378  0.5576  0.7101 -0.0582
  366MOL0     C48237   5.354   4.935   5.348  0.5798  0.5665 -0.0452
  366MOL0     O48238   5.487   4.950   5.333 -0.1240 -0.4648 -0.1667
  366MOL0     C48239   5.574   4.835   5.321  0.0861  0.1150  0.1319
  366MOL0     C48240   5.617   4.810   5.172 -0.0336 -0.1214 -0.1942
  366MOL0     C48241   5.711   4.925   5.127  0.4204  0.1658 -0.6017
  366MOL0     C48242   5.791   4.895   5.003 -0.5398  1.7254 -0.2583
  366MOL0     C48243   5.712   4.849   4.885  0.1668  0.5445  0.3051
  366MOL0     C48244   5.646   4.809   4.791 -0.5219 -0.5174  0.0478
  366MOL0     C48245   5.277   4.824   5.325  0.7985  1.2556  0.2131
  366MOL0     C48246   5.134   4.829   5.323 -0.7151 -0.3679 -0.4395
  366MOL0     H48247   4.671   4.917   5.477  2.3334  0.1213  1.0081
  366MOL0     H48248   4.458   4.991   5.499  3.2956 -1.1029  2.8322
  366MOL0     H48249   4.369   5.419   5.385  0.4461 -1.8414 -0.3628
  366MOL0     H48250   4.392   5.414   5.559 -1.7650  2.0971 -0.0008
  366MOL0     H48251   4.186   5.411   5.623 -2.1304  0.4551 -0.1849
  366MOL0     H48252   4.129   5.325   5.476  3.5422 -2.5693 -0.6462
  366MOL0     H48253   4.167   5.530   5.342 -0.4135  3.2282 -0.3077
  366MOL0     H48254   4.238   5.602   5.495 -0.2704 -1.9516  3.0905
  366MOL0     H48255   4.031   5.609   5.603 -0.3303  0.9125  0.1163
  366MOL0     H48256   3.996   5.692   5.442 -0.6951  2.4813  3.9220
  366MOL0     H48257   3.917   5.406   5.491 -0.5094  0.8546  2.1251
  366MOL0     H48258   3.907   5.510   5.342 -3.0458  3.7902  0.0084
  366MOL0     H48259   3.759   5.670   5.425  1.0790 -0.9534  0.4706
  366MOL0     H48260   3.748   5.617   5.588 -2.0982 -0.1804  0.4195
  366MOL0     H48261   3.685   5.391   5.518 -1.0046  0.6840  1.4587
  366MOL0     H48262   3.557   5.520   5.513  0.7861  3.1164  0.7894
  366MOL0     H48263   3.715   5.448   5.261  0.3541  1.9735 -0.8864
  366MOL0     H48264   3.578   5.568   5.281  2.5467  0.5986 -2.5707
  366MOL0     H48265   3.389   5.336   5.460  1.9750  3.0047  0.2524
  366MOL0     H48266   3.283   5.042   5.308  0.4425  0.7861 -0.1830
  366MOL0     H48267   3.162   5.154   5.237  0.4613  2.4014 -0.0199
  366MOL0     H48268   3.170   5.264   5.467  0.9059  0.0879 -1.2653
  366MOL0     H48269   3.271   5.130   5.521 -1.4160  1.1163  1.5145
  366MOL0     H48270   3.046   5.073   5.606  2.8004 -1.4367 -0.0298
  366MOL0     H48271   2.969   5.105   5.449  0.0079  0.4012 -0.0910
  366MOL0     H48272   2.974   4.866   5.503 -0.7569  0.6967  0.0069
  366MOL0     H48273   3.155   4.879   5.500  0.0891  0.2188  0.0018
  366MOL0     H48274   3.041   4.892   5.068 -0.2570  1.0699  4.6282
  366MOL0     H48275   2.972   4.699   4.922 -1.2817  1.7272  0.3455
  366MOL0     H48276   2.847   4.099   5.196 -1.8330 -0.3112 -0.3684
  366MOL0     H48277   2.837   3.884   5.098  1.1124  1.2324 -0.1311
  366MOL0     H48278   2.958   3.847   4.655  0.7299  0.9587  1.4804
  366MOL0     H48279   2.894   3.689   4.670  0.5629 -0.6214  0.5061
  366MOL0     H48280   3.058   3.619   4.857 -0.9639  1.0115 -0.8448
  366MOL0     H48281   3.153   3.761   4.829 -0.1195  0.3116 -1.4062
  366MOL0     H48282   3.193   3.704   4.591  2.0002  0.8341  1.7468
  366MOL0     H48283   3.097   3.548   4.624 -0.2870 -0.2503  0.3634
  366MOL0     H48284   3.359   3.547   4.631  0.1748 -0.3478  0.4572
  366MOL0     H48285   3.347   3.636   4.780  1.4961 -2.6193  1.9545
  366MOL0     H48286   3.192   3.450   4.861 -0.0317  0.9675 -0.9059
  366MOL0     H48287   3.373   3.424   4.847 -0.1553 -0.6275  1.4421
  366MOL0     H48288   3.317   3.326   4.605  0.7794  1.0895  0.6583
  366MOL0     H48289   3.157   3.333   4.652  0.8549 -1.5228 -0.5110
  366MOL0     H48290   3.243   3.181   4.863 -1.6303  0.1306 -0.2617
  366MOL0     H48291   3.215   3.108   4.706 -1.1866  0.0335  1.0523
  366MOL0     H48292   3.482   3.214   4.828 -1.7832 -0.3663  2.6107
  366MOL0     H48293   3.470   3.127   4.678  2.1317 -3.1744  1.2647
  366MOL0     H48294   2.972   4.030   4.726 -0.4607 -2.5209 -0.2752
  366MOL0     H48295   3.017   4.251   4.820 -1.5771 -0.3604 -1.4380
  366MOL0     H48296   2.885   4.471   5.278 -1.7119 -1.1757 -3.3449
  366MOL0     H48297   2.955   4.674   5.413  3.7357 -1.2468 -0.0783
  366MOL0     H48298   4.594   5.392   5.404  2.3450  0.5518 -1.2911
  366MOL0     H48299   4.829   5.302   5.426  1.0074 -1.4807  2.1495
  366MOL0     H48300   5.116   5.163   5.416  2.5360 -0.1848  1.9224
  366MOL0     H48301   5.350   5.137   5.411  1.6132  0.3368 -0.9522
  366MOL0     H48302   5.534   4.754   5.381  1.6446  0.2528  1.4316
  366MOL0     H48303   5.671   4.859   5.367 -0.3247  0.6691  0.7197
  366MOL0     H48304   5.660   4.709   5.169  1.3818  0.3221  2.2761
  366MOL0     H48305   5.539   4.806   5.096 -1.2820  3.3146  0.7356
  366MOL0     H48306   5.776   4.961   5.207 -1.8381 -1.0231  1.9575
  366MOL0     H48307   5.637   5.005   5.120  2.0273  2.1459  2.5309
  366MOL0     H48308   5.845   4.986   4.978  2.6627  0.3515  1.1595
  366MOL0     H48309   5.862   4.814   5.022 -1.7182  0.3376 -1.4632
  366MOL0     H48310   5.598   4.791   4.697 -4.0721  0.4725  1.5208
  366MOL0     H48311   5.335   4.733   5.312  0.5136  1.2746 -1.4047
  366MOL0     H48312   5.073   4.741   5.305  1.3657 -1.5372 -2.1726
  367MOL0     O48313   3.683   1.859   4.148 -0.1113 -0.1113 -0.5385
  367MOL0     C48314   3.784   1.919   4.111 -0.4083 -0.2772 -0.1951
  367MOL0     O48315   3.800   1.975   3.989  0.1674  0.3805  0.0089
  367MOL0     C48316   3.706   1.998   3.899 -0.1737  0.6460  0.0197
  367MOL0     C48317   3.572   2.017   3.922  0.1390 -0.5725 -0.4173
  367MOL0     C48318   3.481   2.014   3.819  1.0742 -0.2107 -0.4209
  367MOL0     C48319   3.529   2.023   3.688  0.1936 -0.3220  0.4525
  367MOL0     O48320   3.451   2.025   3.580  0.0425 -0.2320 -0.5049
  367MOL0     C48321   3.333   1.941   3.570 -0.1981 -0.4911  0.3774
  367MOL0     C48322   3.371   1.800   3.530  0.3021 -0.4817  0.4885
  367MOL0     C48323   3.254   1.713   3.492  0.4359 -0.4444  0.9837
  367MOL0     C48324   3.301   1.593   3.404 -0.1560 -0.2859  0.4500
  367MOL0     C48325   3.186   1.503   3.362  0.1390  0.1705  0.1613
  367MOL0     C48326   3.171   1.379   3.457 -0.4880 -0.1493 -0.2146
  367MOL0     C48327   3.109   1.413   3.598 -0.0865 -0.2952  0.2956
  367MOL0     C48328   3.086   1.276   3.668 -0.2704  0.4205  0.0746
  367MOL0     N48329   3.127   1.276   3.813  1.1275  0.2558  0.3908
  367MOL0     C48330   3.249   1.305   3.874 -0.1447  0.1284 -0.6279
  367MOL0     C48331   3.235   1.294   4.011 -0.0189  0.4107 -0.4142
  367MOL0     C48332   3.328   1.324   4.122  0.5956 -1.1104 -0.4851
  367MOL0     C48333   3.311   1.206   4.227 -0.2126  0.3768 -0.4355
  367MOL0     C48334   3.428   1.216   4.331  0.1563 -0.7277  0.7848
  367MOL0     C48335   3.413   1.334   4.428  0.2141 -1.0371  0.3763
  367MOL0     O48336   3.476   1.309   4.558 -0.8691  0.0030  0.9457
  367MOL0     C48337   3.606   1.353   4.571 -0.3025  0.7254  0.1363
  367MOL0     C48338   3.656   1.361   4.701  0.0975 -0.1670 -0.1544
  367MOL0     C48339   3.789   1.387   4.735  0.7469 -0.2610 -0.4992
  367MOL0     C48340   3.873   1.431   4.634 -0.3889  0.1559  0.0802
  367MOL0     C48341   4.004   1.482   4.683 -0.3364 -0.1974  0.4060
  367MOL0     O48342   4.043   1.470   4.816  0.1246  0.3651 -1.0587
  367MOL0     C48343   4.138   1.555   4.866  0.3680  0.1472 -0.2029
  367MOL0     C48344   4.174   1.535   5.001  0.6287 -0.1730  0.3678
  367MOL0     C48345   4.290   1.609   5.050  0.2854  1.1030  0.3994
  367MOL0     C48346   4.349   1.709   4.977  0.2456  0.2876  0.5649
  367MOL0     O48347   4.420   1.793   5.058 -0.3370 -0.2710 -0.4199
  367MOL0     C48348   4.519   1.880   4.997 -0.2793  0.5685  0.2842
  367MOL0     C48349   4.617   1.941   5.090 -0.7279  0.6325 -0.4336
  367MOL0     C48350   4.723   1.844   5.147  0.5001 -0.7312 -0.5745
  367MOL0     C48351   4.847   1.928   5.190  0.3568  0.1030  0.0962
  367MOL0     C48352   4.960   1.840   5.252 -0.7390 -0.2923 -0.2111
  367MOL0     C48353   5.036   1.739   5.156  0.2465 -0.2934 -0.2221
  367MOL0     C48354   5.178   1.710   5.180 -0.0129 -0.7401  0.6125
  367MOL0     C48355   5.269   1.830   5.148 -0.0091  0.2308 -0.5711
  367MOL0    Cl48356   5.439   1.782   5.146  0.4784 -0.2909  0.3361
  367MOL0     C48357   4.314   1.723   4.842 -0.3793  0.0539 -1.4300
  367MOL0     C48358   4.221   1.645   4.790  0.2298 -0.2398  0.1355
  367MOL0     O48359   4.067   1.524   4.585 -0.2861  0.0383 -1.0488
  367MOL0     C48360   3.834   1.422   4.500  0.3229 -0.1759  0.1824
  367MOL0     C48361   3.699   1.387   4.472 -0.2525  1.0759 -1.0729
  367MOL0     N48362   3.106   1.248   4.018  0.4288  0.0270 -0.3272
  367MOL0     N48363   3.033   1.241   3.908 -0.1472  0.1916 -0.1886
  367MOL0     C48364   3.668   2.020   3.670  0.0146  0.1446 -0.2111
  367MOL0     C48365   3.758   1.993   3.773  0.1199  0.6442  0.7377
  367MOL0     C48366   3.902   1.904   4.194  0.3084 -0.7038 -0.3793
  367MOL0     C48367   4.021   1.970   4.158  0.0052  0.7571  0.1123
  367MOL0     C48368   4.133   1.963   4.240 -0.4332  1.6607  0.3814
  367MOL0     C48369   4.136   1.885   4.354  0.5120  0.0020  0.1834
  367MOL0     O48370   4.246   1.851   4.426 -0.0733  0.1665 -0.1554
  367MOL0     C48371   4.370   1.906   4.395 -0.3805  0.4037  0.1318
  367MOL0     C48372   4.471   1.831   4.481  0.6606 -0.3813 -0.0356
  367MOL0     C48373   4.611   1.837   4.429 -0.5644  0.9455  0.0382
  367MOL0     C48374   4.716   1.741   4.498  0.1500  0.2546  0.4861
  367MOL0     C48375   4.772   1.819   4.611  0.2080 -0.1618 -0.0781
  367MOL0     C48376   4.839   1.876   4.692 -0.2810 -0.2583 -0.5592
  367MOL0     C48377   4.017   1.811   4.380 -0.4071  0.5207  0.3940
  367MOL0     C48378   3.903   1.830   4.306  0.3706 -0.6053  0.1094
  367MOL0     H48379   3.529   2.019   4.022  0.7269  2.3790 -0.1457
  367MOL0     H48380   3.374   2.029   3.831  1.5141  2.2997  1.1318
  367MOL0     H48381   3.264   1.989   3.500 -0.0555 -2.5202 -1.2741
  367MOL0     H48382   3.286   1.932   3.668  1.7963  1.2133  1.5746
  367MOL0     H48383   3.429   1.760   3.614  1.3272  0.2702  0.1610
  367MOL0     H48384   3.441   1.811   3.447 -0.5151  1.4081  0.0260
  367MOL0     H48385   3.182   1.778   3.442  0.3706 -0.6092  0.8617
  367MOL0     H48386   3.200   1.677   3.580 -2.5158 -1.9612 -1.2517
  367MOL0     H48387   3.344   1.642   3.317  0.3087  1.9915  1.8854
  367MOL0     H48388   3.376   1.534   3.458  0.8638  0.1940 -0.4070
  367MOL0     H48389   3.214   1.469   3.262 -0.0351 -0.0217  0.1767
  367MOL0     H48390   3.092   1.558   3.353  1.2456  2.0522 -0.4194
  367MOL0     H48391   3.265   1.325   3.471  0.5490  1.4926 -0.6026
  367MOL0     H48392   3.100   1.312   3.407  0.1980 -1.9371  1.0922
  367MOL0     H48393   3.164   1.481   3.665 -1.9186  0.3892  1.1642
  367MOL0     H48394   3.010   1.453   3.576 -0.9715 -1.9166  1.2244
  367MOL0     H48395   3.125   1.196   3.605 -1.4223  0.6399 -0.9585
  367MOL0     H48396   2.977   1.276   3.656 -0.2422 -0.3183 -0.2021
  367MOL0     H48397   3.341   1.320   3.819  0.4756 -1.2611 -0.0188
  367MOL0     H48398   3.290   1.420   4.159 -0.6188 -0.5592 -2.9913
  367MOL0     H48399   3.433   1.344   4.097  0.6596 -0.1641  0.4611
  367MOL0     H48400   3.329   1.104   4.190 -1.1722  0.4120 -1.0314
  367MOL0     H48401   3.212   1.200   4.274 -1.0013 -2.4269 -2.1562
  367MOL0     H48402   3.440   1.123   4.388 -2.6137 -1.1456  0.8179
  367MOL0     H48403   3.521   1.231   4.276  1.7692  1.7660  3.8312
  367MOL0     H48404   3.306   1.346   4.445  0.5458  0.1387  1.9302
  367MOL0     H48405   3.449   1.431   4.393  0.2410 -0.7867  1.0803
  367MOL0     H48406   3.580   1.328   4.770 -2.0056  3.8960 -0.2264
  367MOL0     H48407   3.803   1.380   4.842  0.7469  1.9862 -0.2967
  367MOL0     H48408   4.119   1.472   5.070  0.3455  1.5575  1.7826
  367MOL0     H48409   4.316   1.598   5.155  0.6913 -1.1430  0.1122
  367MOL0     H48410   4.467   1.967   4.957 -1.2844  0.5140  1.4091
  367MOL0     H48411   4.573   1.828   4.917 -0.2532 -0.4578  0.9488
  367MOL0     H48412   4.577   1.993   5.177  1.6292 -2.0702  2.5128
  367MOL0     H48413   4.674   2.006   5.024  2.7792 -2.8703 -1.2436
  367MOL0     H48414   4.737   1.761   5.076 -2.4134 -1.9006  0.0910
  367MOL0     H48415   4.666   1.803   5.231 -4.5980 -0.6332 -3.5795
  367MOL0     H48416   4.883   1.988   5.106 -0.7008  0.7281  0.0746
  367MOL0     H48417   4.815   2.001   5.265  0.6298 -0.8062  1.1282
  367MOL0     H48418   4.919   1.774   5.329 -0.2870 -3.4526 -2.4910
  367MOL0     H48419   5.035   1.903   5.301  1.0100 -3.4971  1.5151
  367MOL0     H48420   5.024   1.785   5.058  1.1410 -1.4850 -0.9249
  367MOL0     H48421   4.985   1.643   5.170  0.0717  0.0827  2.2045
  367MOL0     H48422   5.201   1.696   5.287  1.1233 -0.7932  0.3811
  367MOL0     H48423   5.195   1.618   5.124 -0.6730  1.6817 -4.0810
  367MOL0     H48424   5.256   1.907   5.225 -0.9940  0.2144 -0.7035
  367MOL0     H48425   5.240   1.871   5.050 -2.7724 -3.2469 -1.4080
  367MOL0     H48426   4.348   1.809   4.785 -1.4945  0.2382 -1.8390
  367MOL0     H48427   4.196   1.677   4.689  2.9999 -0.0229 -0.5526
  367MOL0     H48428   3.895   1.455   4.416  0.1414  2.9408  1.1426
  367MOL0     H48429   3.677   1.391   4.365  2.6176  0.9719 -1.7647
  367MOL0     H48430   3.708   2.027   3.569  1.1286  1.1391  0.2864
  367MOL0     H48431   3.862   1.976   3.746  0.2393  1.7415  0.4648
  367MOL0     H48432   4.025   2.035   4.071 -0.5141  0.5573 -0.0675
  367MOL0     H48433   4.218   2.021   4.206 -0.5157  1.0860 -0.8543
  367MOL0     H48434   4.372   2.010   4.429  3.3736 -0.2627  2.5434
  367MOL0     H48435   4.389   1.889   4.289 -1.7261 -1.2414  0.1175
  367MOL0     H48436   4.466   1.868   4.584  0.2623  0.9282 -0.5034
  367MOL0     H48437   4.428   1.731   4.471  1.2861 -0.5528 -1.1481
  367MOL0     H48438   4.647   1.940   4.440  3.2709 -0.2375  0.0665
  367MOL0     H48439   4.615   1.803   4.325 -0.6863  3.6739 -0.9510
  367MOL0     H48440   4.672   1.653   4.545 -0.9788  0.8129  0.4876
  367MOL0     H48441   4.800   1.722   4.430  0.2368 -0.1938  0.7146
  367MOL0     H48442   4.896   1.930   4.765 -2.5689  1.1125  0.2988
  367MOL0     H48443   4.011   1.740   4.461 -2.3429  1.5624  1.2449
  367MOL0     H48444   3.804   1.791   4.329  0.1372 -0.9362 -1.3524
  368MOL0     O48445   0.574   5.640   9.645 -0.3911 -0.2566  0.8571
  368MOL0     C48446   0.653   5.731   9.665 -0.9204  0.2872  1.0134
  368MOL0     O48447   0.629   5.839   9.736  0.2191 -0.3106  0.6894
  368MOL0     C48448   0.502   5.884   9.762  0.3106  0.4578 -0.9288
  368MOL0     C48449   0.471   6.024   9.729 -0.0396  0.4907  0.2230
  368MOL0     C48450   0.334   6.065   9.743  0.1943 -0.2008 -0.0143
  368MOL0     C48451   0.230   5.981   9.791  0.6686  0.5594  0.1487
  368MOL0     O48452   0.119   6.046   9.823 -0.2539 -0.0825  0.7177
  368MOL0     C48453   0.028   5.982   9.924  0.0270 -0.8644  0.0055
  368MOL0     C48454  -0.081   6.079   9.969 -0.8696  0.3027 -0.8325
  368MOL0     C48455  -0.163   6.123   9.852 -0.6121 -0.1799 -0.5347
  368MOL0     C48456  -0.272   6.231   9.889 -0.5381 -0.9241  0.4187
  368MOL0     C48457  -0.416   6.182   9.890 -0.3470  0.2962 -0.5997
  368MOL0     C48458  -0.507   6.293   9.935 -0.4216 -0.0934 -0.2819
  368MOL0     C48459  -0.650   6.243   9.943 -0.5943  0.3159 -0.2556
  368MOL0     C48460  -0.752   6.349   9.944 -0.6517 -0.3866 -0.9132
  368MOL0     N48461  -0.884   6.288   9.920 -0.2236 -0.9384  0.2080
  368MOL0     C48462  -0.971   6.259  10.022 -0.1047  0.1671 -0.3105
  368MOL0     C48463  -1.083   6.210   9.960 -1.1994  0.7482  0.5198
  368MOL0     C48464  -1.201   6.152  10.033 -0.2038 -0.2009 -0.0479
  368MOL0     C48465  -1.284   6.282  10.063 -0.6649 -0.1288  0.7869
  368MOL0     C48466  -1.409   6.244  10.135 -0.0938  0.3964 -0.5405
  368MOL0     C48467  -1.513   6.354  10.156 -0.1225 -0.6708 -0.1806
  368MOL0     O48468  -1.465   6.460  10.235 -0.0487  0.8906  0.3907
  368MOL0     C48469  -1.554   6.565  10.234 -0.0775  0.0571 -0.4134
  368MOL0     C48470  -1.536   6.668  10.139  0.7277  0.5820  0.0037
  368MOL0     C48471  -1.628   6.771  10.141  0.8098  0.6070 -0.4777
  368MOL0     C48472  -1.753   6.773  10.214 -0.9689 -0.1412  0.5344
  368MOL0     C48473  -1.843   6.884  10.201  1.0185 -0.4407  0.5939
  368MOL0     O48474  -1.900   6.922  10.315  0.4604  0.1470 -0.3999
  368MOL0     C48475  -2.015   6.989  10.320 -0.1896  0.1003 -0.1567
  368MOL0     C48476  -2.123   6.979  10.220 -0.7196 -0.3226  0.4339
  368MOL0     C48477  -2.250   7.048  10.232 -0.9059 -1.8222  0.3321
  368MOL0     C48478  -2.278   7.128  10.346 -0.1227 -0.3732  0.7585
  368MOL0     O48479  -2.403   7.188  10.350 -0.4646 -0.3764  0.3213
  368MOL0     C48480  -2.488   7.140  10.443 -0.0591 -0.2581 -0.9743
  368MOL0     C48481  -2.590   7.049  10.378  0.3604 -0.3698  0.5649
  368MOL0     C48482  -2.694   7.017  10.488 -0.3317 -1.1757 -0.3160
  368MOL0     C48483  -2.769   6.890  10.465  0.7116  0.2030  0.1891
  368MOL0     C48484  -2.868   6.865  10.581 -0.2821 -0.3795  0.0481
  368MOL0     C48485  -2.993   6.956  10.543  0.1623 -0.7381  0.4095
  368MOL0     C48486  -3.118   6.935  10.624  0.1838  0.0172  0.4209
  368MOL0     C48487  -3.106   6.992  10.763  0.9557 -0.1055  0.0430
  368MOL0    Cl48488  -3.268   6.973  10.839 -0.0034 -0.0547  0.1410
  368MOL0     C48489  -2.177   7.145  10.443 -0.1443  0.5126  0.3675
  368MOL0     C48490  -2.052   7.066  10.429 -0.1915 -1.0350 -0.3728
  368MOL0     O48491  -1.856   6.949  10.100 -0.6689  0.1845  0.2659
  368MOL0     C48492  -1.763   6.676  10.316  0.0366 -0.6882  0.1452
  368MOL0     C48493  -1.667   6.576  10.326 -0.5399 -0.2424  0.7030
  368MOL0     N48494  -1.065   6.218   9.819 -0.0096 -0.8672 -0.6299
  368MOL0     N48495  -0.953   6.265   9.797 -0.0616 -0.4090  0.1866
  368MOL0     C48496   0.263   5.849   9.820  0.0930  0.6390 -0.7057
  368MOL0     C48497   0.391   5.798   9.800 -0.8248  0.1329  0.7818
  368MOL0     C48498   0.798   5.716   9.630 -0.2695 -0.3827  0.0590
  368MOL0     C48499   0.848   5.600   9.570  0.1340  0.6642 -0.1793
  368MOL0     C48500   0.988   5.575   9.547  0.1668 -0.1176  0.0825
  368MOL0     C48501   1.083   5.668   9.596 -1.1493  0.1134 -0.1251
  368MOL0     O48502   1.213   5.637   9.561  0.4194 -0.5385  0.4717
  368MOL0     C48503   1.308   5.749   9.554  0.1020  0.1816 -0.6456
  368MOL0     C48504   1.373   5.751   9.420 -0.2575 -0.1340 -1.0668
  368MOL0     C48505   1.466   5.634   9.384  0.3818 -0.5527 -0.7390
  368MOL0     C48506   1.602   5.638   9.449  0.3741  0.3558  0.3873
  368MOL0     C48507   1.675   5.522   9.397  0.2171 -0.3854  0.4978
  368MOL0     C48508   1.736   5.433   9.353 -0.0428 -0.0488 -0.1048
  368MOL0     C48509   1.037   5.795   9.652  0.0135  0.6175  0.0811
  368MOL0     C48510   0.898   5.802   9.675  0.4452  0.5950  0.4912
  368MOL0     H48511   0.552   6.083   9.687 -1.2071  1.7315 -0.3704
  368MOL0     H48512   0.301   6.161   9.704 -1.7510 -1.4893 -1.7467
  368MOL0     H48513   0.089   5.934  10.002 -0.8658  0.4408  1.5663
  368MOL0     H48514  -0.027   5.904   9.870  1.4003 -1.4728 -0.5784
  368MOL0     H48515  -0.038   6.168  10.016 -1.8518 -0.2797  1.2668
  368MOL0     H48516  -0.146   6.040  10.048 -0.0525  1.7432  0.6092
  368MOL0     H48517  -0.219   6.041   9.806 -3.2079 -0.2158  2.4016
  368MOL0     H48518  -0.102   6.169   9.774  1.0319  0.8848  1.2830
  368MOL0     H48519  -0.248   6.281   9.983  1.6126  2.1993 -1.5840
  368MOL0     H48520  -0.267   6.321   9.827  0.1038 -1.0359  0.3018
  368MOL0     H48521  -0.414   6.094   9.955  0.5942 -0.3440 -1.4651
  368MOL0     H48522  -0.452   6.153   9.791 -0.9406 -1.5236  0.1128
  368MOL0     H48523  -0.497   6.378   9.866 -1.3609  1.1909  1.0914
  368MOL0     H48524  -0.473   6.355  10.019 -1.1077  2.3987 -1.7341
  368MOL0     H48525  -0.671   6.176   9.858  1.9713 -1.7944  0.6192
  368MOL0     H48526  -0.658   6.186  10.036 -1.1040  1.7339  0.5910
  368MOL0     H48527  -0.729   6.417   9.861 -0.5895 -2.2902 -2.5303
  368MOL0     H48528  -0.744   6.396  10.042  0.5084 -2.1776 -0.1023
  368MOL0     H48529  -0.962   6.270  10.130 -1.3783  2.6071 -0.4094
  368MOL0     H48530  -1.174   6.095  10.123 -5.8429 -0.8368  1.6258
  368MOL0     H48531  -1.255   6.080   9.970  0.4845 -1.0732  0.3335
  368MOL0     H48532  -1.321   6.316   9.966 -2.5491 -1.8336  0.8445
  368MOL0     H48533  -1.218   6.349  10.119  1.4394  0.6381 -2.3576
  368MOL0     H48534  -1.456   6.156  10.090 -2.0269  0.5008  1.1529
  368MOL0     H48535  -1.375   6.209  10.232 -0.1200  0.5767 -0.4660
  368MOL0     H48536  -1.602   6.314  10.206 -1.3396  2.4856  0.4609
  368MOL0     H48537  -1.547   6.389  10.058 -1.3173  1.7354  0.9967
  368MOL0     H48538  -1.459   6.669  10.062 -0.6819  0.4466 -1.4660
  368MOL0     H48539  -1.619   6.843  10.060  1.3807  2.0934  0.8752
  368MOL0     H48540  -2.108   6.914  10.134 -1.7722  0.1762 -0.1477
  368MOL0     H48541  -2.318   7.026  10.150  2.3550 -3.6945 -2.1233
  368MOL0     H48542  -2.539   7.230  10.480 -0.6742 -0.7473 -0.6220
  368MOL0     H48543  -2.433   7.098  10.528  0.3806  2.3671  0.1395
  368MOL0     H48544  -2.535   6.958  10.352 -0.3912 -0.1720 -2.0266
  368MOL0     H48545  -2.628   7.091  10.284 -0.0304 -1.2441  0.3188
  368MOL0     H48546  -2.773   7.092  10.495 -0.9474 -1.8291 -0.1657
  368MOL0     H48547  -2.647   7.010  10.587 -1.2828  1.3033  0.3673
  368MOL0     H48548  -2.825   6.882  10.372  0.3503  2.9277  0.0935
  368MOL0     H48549  -2.696   6.808  10.462  0.3253 -0.2119  1.4406
  368MOL0     H48550  -2.831   6.890  10.681  1.5074  2.4389 -1.1818
  368MOL0     H48551  -2.906   6.762  10.581 -2.0250  0.2300  0.6932
  368MOL0     H48552  -3.019   6.923  10.442  2.3666 -0.5184 -0.2712
  368MOL0     H48553  -2.970   7.062  10.531  0.7315 -0.8740  0.2793
  368MOL0     H48554  -3.202   6.970  10.564  1.7591 -0.3961 -2.1640
  368MOL0     H48555  -3.129   6.827  10.640  0.1165 -0.6119 -3.0834
  368MOL0     H48556  -3.082   7.099  10.758  5.2939 -0.9194 -0.7182
  368MOL0     H48557  -3.038   6.945  10.834  0.5172 -0.7892  0.0151
  368MOL0     H48558  -2.191   7.213  10.526  0.3341  0.5976  0.3843
  368MOL0     H48559  -1.972   7.070  10.503 -1.0242  1.5138  0.4921
  368MOL0     H48560  -1.851   6.659  10.378 -0.5873 -1.6151 -0.9380
  368MOL0     H48561  -1.668   6.509  10.412  2.4009 -1.5109 -0.1199
  368MOL0     H48562   0.182   5.786   9.855  0.2385  1.2005  0.7379
  368MOL0     H48563   0.399   5.690   9.811 -1.3628 -0.0708 -0.6278
  368MOL0     H48564   0.791   5.513   9.541 -1.4346  2.2243 -2.1360
  368MOL0     H48565   1.027   5.484   9.502 -1.7874 -0.3268 -1.3154
  368MOL0     H48566   1.382   5.745   9.634  1.6853  1.6251 -1.9639
  368MOL0     H48567   1.259   5.845   9.568  0.1319  0.2760 -1.1635
  368MOL0     H48568   1.283   5.747   9.358 -0.5686  0.0596 -0.6344
  368MOL0     H48569   1.427   5.839   9.386  2.5674 -0.4961  1.9855
  368MOL0     H48570   1.475   5.643   9.275  2.8684  2.3507 -0.4168
  368MOL0     H48571   1.415   5.539   9.405 -2.0593  1.3396  2.8855
  368MOL0     H48572   1.647   5.734   9.422  0.5743  0.1970  0.1513
  368MOL0     H48573   1.589   5.635   9.558  0.6740 -0.2409  0.4144
  368MOL0     H48574   1.796   5.352   9.316 -1.6010 -1.3140  0.0338
  368MOL0     H48575   1.105   5.875   9.679  0.2970  0.6570 -0.7141
  368MOL0     H48576   0.864   5.895   9.719 -0.4205  0.1094  0.8740
  369MOL0     O48577  10.533   3.846   8.181 -0.0460 -0.0186 -0.0457
  369MOL0     C48578  10.481   3.883   8.280  0.7542 -0.3099  0.5021
  369MOL0     O48579  10.544   3.902   8.403 -0.2848  0.1358  0.5025
  369MOL0     C48580  10.654   3.842   8.452 -0.7521 -1.0913  0.0907
  369MOL0     C48581  10.777   3.902   8.470 -0.0404 -0.9942  0.6587
  369MOL0     C48582  10.879   3.825   8.527 -0.3353  0.3032  0.1327
  369MOL0     C48583  10.870   3.687   8.556  0.0638  0.2025  0.5474
  369MOL0     O48584  10.965   3.612   8.623 -0.6474 -0.2444 -0.0271
  369MOL0     C48585  11.090   3.590   8.559 -0.2065  0.2839 -0.2831
  369MOL0     C48586  11.140   3.458   8.616  0.7150 -0.5135 -0.5653
  369MOL0     C48587  11.031   3.356   8.592 -0.3434  0.4719 -0.4657
  369MOL0     C48588  11.073   3.208   8.630  0.0638 -0.0162  0.4511
  369MOL0     C48589  10.962   3.095   8.595  0.3503  0.2987 -0.1525
  369MOL0     C48590  10.936   3.071   8.450  0.9949  1.0285 -0.1447
  369MOL0     C48591  10.806   3.004   8.418 -0.0361  0.6342  0.0576
  369MOL0     C48592  10.786   2.987   8.272 -0.9039  0.2871 -0.2461
  369MOL0     N48593  10.651   2.939   8.224 -0.4993  0.6111 -0.0352
  369MOL0     C48594  10.609   2.837   8.137  0.6541 -0.7249  0.2246
  369MOL0     C48595  10.475   2.833   8.138  0.6211  0.2796  0.1168
  369MOL0     C48596  10.395   2.729   8.074  1.0198  0.2824 -0.2136
  369MOL0     C48597  10.288   2.798   7.982 -0.0800 -0.3284 -0.2449
  369MOL0     C48598  10.207   2.700   7.897  0.3000  0.0349  0.1933
  369MOL0     C48599  10.159   2.559   7.952 -0.1647 -1.0007  0.3968
  369MOL0     O48600  10.071   2.581   8.063 -0.0300  0.3165  0.2013
  369MOL0     C48601   9.938   2.603   8.039 -0.4806  1.4791  0.2667
  369MOL0     C48602   9.881   2.604   7.909 -0.6021 -0.3074 -0.1109
  369MOL0     C48603   9.753   2.623   7.876 -0.2443 -0.0457  0.3121
  369MOL0     C48604   9.660   2.632   7.976  0.1537  0.2804 -0.6538
  369MOL0     C48605   9.512   2.650   7.950 -0.7063  0.4765  0.4993
  369MOL0     O48606   9.439   2.653   8.064 -0.7877  0.0317  0.3095
  369MOL0     C48607   9.303   2.676   8.076  0.9441 -0.0023  0.1915
  369MOL0     C48608   9.203   2.628   7.982  0.6950  0.2606 -0.0321
  369MOL0     C48609   9.071   2.660   7.994  0.8935 -0.8510 -0.0140
  369MOL0     C48610   9.023   2.749   8.085 -0.2377 -0.0408 -0.0232
  369MOL0     O48611   8.896   2.789   8.076 -0.4845 -0.1642  0.6377
  369MOL0     C48612   8.842   2.873   8.168  0.1880  0.1574 -0.3778
  369MOL0     C48613   8.687   2.900   8.131 -0.8266 -0.5856  0.0205
  369MOL0     C48614   8.645   3.024   8.211 -0.1895  0.2485 -0.3336
  369MOL0     C48615   8.490   3.037   8.231  0.7343  0.4082  0.1380
  369MOL0     C48616   8.429   3.133   8.134 -0.4177 -0.4050  0.6174
  369MOL0     C48617   8.445   3.278   8.193  0.6320 -0.1992  0.2301
  369MOL0     C48618   8.333   3.315   8.299  1.4293 -0.5245  0.2584
  369MOL0     C48619   8.356   3.466   8.339 -0.1339  0.2900 -0.0482
  369MOL0    Cl48620   8.518   3.483   8.401 -0.1040 -0.2651 -0.0421
  369MOL0     C48621   9.119   2.788   8.186 -0.6882 -0.0753  0.4080
  369MOL0     C48622   9.262   2.749   8.179  0.5445 -0.1010 -0.2811
  369MOL0     O48623   9.464   2.644   7.835 -0.0555  0.1939  0.6007
  369MOL0     C48624   9.715   2.613   8.112  1.0752  0.9018  0.5505
  369MOL0     C48625   9.849   2.600   8.141 -0.2356 -0.8755  0.2241
  369MOL0     N48626  10.432   2.930   8.231 -0.0073  0.1494  0.6902
  369MOL0     N48627  10.538   2.991   8.279  0.2246  0.2776 -0.0867
  369MOL0     C48628  10.746   3.633   8.543 -0.2288  0.0960 -0.6509
  369MOL0     C48629  10.636   3.712   8.486  0.5128  1.1743  0.7332
  369MOL0     C48630  10.344   3.927   8.265  0.4399  0.1542  0.3342
  369MOL0     C48631  10.285   3.978   8.379 -0.1931  0.3641  0.4686
  369MOL0     C48632  10.154   4.004   8.385  0.2542 -0.5593 -0.0153
  369MOL0     C48633  10.061   3.971   8.281  0.6124  0.4510 -0.0289
  369MOL0     O48634   9.925   3.987   8.299 -0.1748 -0.1093 -0.2711
  369MOL0     C48635   9.875   4.004   8.434  0.4660 -0.3104  0.4260
  369MOL0     C48636   9.722   4.041   8.414  0.2739 -0.8283 -0.4766
  369MOL0     C48637   9.649   3.965   8.310  0.8639 -1.0741  0.8795
  369MOL0     C48638   9.497   3.984   8.323  0.2610  0.5331  0.7911
  369MOL0     C48639   9.457   4.125   8.312  0.4233 -0.8356  0.3736
  369MOL0     C48640   9.427   4.244   8.306 -0.1062  0.2057 -0.1995
  369MOL0     C48641  10.119   3.928   8.161  0.3419 -0.1561 -0.9861
  369MOL0     C48642  10.265   3.901   8.151  0.1818  0.7737  0.2024
  369MOL0     H48643  10.791   4.007   8.443  1.9040 -1.7289 -1.4610
  369MOL0     H48644  10.972   3.873   8.558  1.8676 -3.0863 -0.6327
  369MOL0     H48645  11.169   3.659   8.588  1.6194 -1.4281 -0.9434
  369MOL0     H48646  11.087   3.580   8.450  0.4262 -1.7375 -0.1679
  369MOL0     H48647  11.171   3.482   8.718  1.3732  2.5502 -1.4109
  369MOL0     H48648  11.225   3.432   8.551 -0.7460 -2.9482 -1.6526
  369MOL0     H48649  11.012   3.365   8.485 -0.1762 -0.6869 -0.6132
  369MOL0     H48650  10.942   3.380   8.651 -1.6858 -2.1089 -1.2523
  369MOL0     H48651  11.175   3.189   8.595  1.1742  0.9932  2.8462
  369MOL0     H48652  11.080   3.221   8.739  0.4905 -1.2326  0.5828
  369MOL0     H48653  10.863   3.119   8.634  0.2125  0.4835 -0.6075
  369MOL0     H48654  10.988   3.003   8.647  1.8303  0.6730 -0.1810
  369MOL0     H48655  11.019   3.016   8.403 -1.9336 -1.5776 -2.7624
  369MOL0     H48656  10.930   3.170   8.403  2.3474  0.9798 -0.4721
  369MOL0     H48657  10.793   2.914   8.480 -0.2379 -1.1810 -2.4585
  369MOL0     H48658  10.733   3.081   8.445 -0.4988  0.4834 -0.7265
  369MOL0     H48659  10.870   2.924   8.240  0.1544  2.2524 -1.5080
  369MOL0     H48660  10.809   3.081   8.221 -0.9736 -0.8334 -2.4682
  369MOL0     H48661  10.674   2.761   8.094  2.2393  0.1201  1.0460
  369MOL0     H48662  10.344   2.672   8.152 -2.4613  3.0431 -0.2084
  369MOL0     H48663  10.458   2.658   8.020  1.3545  1.4260 -1.3931
  369MOL0     H48664  10.338   2.862   7.909  1.8258 -2.2726 -0.7654
  369MOL0     H48665  10.216   2.851   8.045  0.8437  2.4659 -1.3754
  369MOL0     H48666  10.114   2.754   7.879  0.9785  1.0191 -0.4895
  369MOL0     H48667  10.258   2.679   7.802 -0.5430 -2.3381  0.2150
  369MOL0     H48668  10.245   2.501   7.987  0.0948 -1.1069 -0.4026
  369MOL0     H48669  10.113   2.503   7.870 -0.7064  0.2701 -0.1913
  369MOL0     H48670   9.938   2.586   7.818 -1.3124 -1.9146 -0.2763
  369MOL0     H48671   9.705   2.635   7.779 -2.4197  0.2799  1.3534
  369MOL0     H48672   9.230   2.555   7.907  0.9059 -0.7623  0.9943
  369MOL0     H48673   9.018   2.621   7.908 -0.3375  1.3934 -0.3501
  369MOL0     H48674   8.883   2.974   8.169  1.4521 -0.3371  0.1287
  369MOL0     H48675   8.845   2.824   8.265 -2.1775  1.8448  0.6360
  369MOL0     H48676   8.623   2.820   8.169 -0.2277 -2.1479 -2.0289
  369MOL0     H48677   8.667   2.900   8.023  4.3461  2.6009 -1.2679
  369MOL0     H48678   8.691   3.117   8.176 -2.7613  0.7904 -2.6274
  369MOL0     H48679   8.679   2.995   8.311 -3.2602  1.8608  1.3273
  369MOL0     H48680   8.438   2.940   8.232  1.2043  0.1125 -1.6045
  369MOL0     H48681   8.483   3.074   8.334 -3.1137 -2.9942  1.3771
  369MOL0     H48682   8.326   3.108   8.107 -0.8140  1.0546  0.6872
  369MOL0     H48683   8.495   3.127   8.047  1.3847 -0.9599  1.9595
  369MOL0     H48684   8.442   3.346   8.107  2.0546 -2.5047 -1.7843
  369MOL0     H48685   8.543   3.281   8.241 -0.1995 -2.8057  2.3082
  369MOL0     H48686   8.231   3.309   8.262  1.3734 -0.7667  0.4507
  369MOL0     H48687   8.343   3.246   8.384  0.3968  0.1149  0.9117
  369MOL0     H48688   8.293   3.501   8.421  5.3648  0.3920  4.7535
  369MOL0     H48689   8.341   3.520   8.245 -2.5537 -0.7401 -0.3301
  369MOL0     H48690   9.097   2.868   8.256  1.5621 -1.7980  3.3337
  369MOL0     H48691   9.340   2.783   8.246 -1.2987  0.9509  1.4344
  369MOL0     H48692   9.646   2.610   8.196  2.6482  0.0347  1.8834
  369MOL0     H48693   9.879   2.573   8.242 -1.9416 -4.6645 -0.1014
  369MOL0     H48694  10.736   3.530   8.575  4.1695 -0.2895  0.2319
  369MOL0     H48695  10.542   3.657   8.479  2.1556 -2.0141  1.8155
  369MOL0     H48696  10.334   3.997   8.474 -1.5657 -0.2614  1.3402
  369MOL0     H48697  10.117   4.049   8.477 -1.3807  2.0840 -1.8319
  369MOL0     H48698   9.927   4.088   8.482 -2.5749  2.1042 -0.2474
  369MOL0     H48699   9.891   3.912   8.492 -0.3758 -2.2290 -2.1994
  369MOL0     H48700   9.676   4.033   8.513  4.0522 -0.8366  1.4627
  369MOL0     H48701   9.717   4.146   8.383 -1.0356 -0.1324  1.8783
  369MOL0     H48702   9.673   3.859   8.322  1.9904 -1.0304 -0.5827
  369MOL0     H48703   9.682   3.999   8.211 -0.1113  3.0330  1.7873
  369MOL0     H48704   9.445   3.924   8.249  0.0479 -1.5709  2.5411
  369MOL0     H48705   9.459   3.953   8.421  1.5043  0.1343  1.1657
  369MOL0     H48706   9.387   4.343   8.299 -1.0742 -0.2453 -1.5111
  369MOL0     H48707  10.053   3.901   8.079 -0.0352 -1.8678 -0.1718
  369MOL0     H48708  10.318   3.874   8.060  0.2566  2.0365 -0.1396
  370MOL0     O48709   2.091   4.856  10.023  0.7762 -0.2316 -0.7402
  370MOL0     C48710   2.043   4.962  10.066 -0.9819 -0.9905 -0.3972
  370MOL0     O48711   2.092   5.087  10.042  1.0966  0.0145  0.0273
  370MOL0     C48712   2.181   5.104   9.940  0.9859 -0.2960  0.0004
  370MOL0     C48713   2.314   5.147   9.961 -0.5685  0.0444  0.7759
  370MOL0     C48714   2.400   5.171   9.843  0.4005  0.4414  0.2017
  370MOL0     C48715   2.353   5.166   9.712 -0.6472 -0.3147 -0.0256
  370MOL0     O48716   2.445   5.187   9.608 -0.2238 -0.0478 -0.0191
  370MOL0     C48717   2.382   5.242   9.492 -0.2281 -0.9558  0.0266
  370MOL0     C48718   2.488   5.249   9.379 -0.2605 -0.0373  0.3078
  370MOL0     C48719   2.610   5.325   9.412  1.2110  0.0090 -0.2036
  370MOL0     C48720   2.705   5.321   9.295 -0.0668  0.3888 -0.0779
  370MOL0     C48721   2.853   5.354   9.343  0.6733 -0.0661  0.1170
  370MOL0     C48722   2.953   5.341   9.234 -0.7148 -1.0363 -0.0167
  370MOL0     C48723   3.091   5.384   9.285  0.6904 -0.3093  0.0616
  370MOL0     C48724   3.161   5.286   9.376  0.4897  0.0034 -0.9269
  370MOL0     N48725   3.281   5.349   9.430  0.3676  0.1268 -0.2680
  370MOL0     C48726   3.400   5.361   9.357 -0.3991  1.6684  0.0793
  370MOL0     C48727   3.494   5.396   9.440  0.1492  1.3931 -0.1340
  370MOL0     C48728   3.627   5.434   9.394 -0.0409 -0.0564 -0.6158
  370MOL0     C48729   3.706   5.322   9.331 -0.1216  0.1701 -0.6224
  370MOL0     C48730   3.784   5.256   9.437  0.1552  0.1695 -0.4388
  370MOL0     C48731   3.867   5.153   9.383  1.0188  0.4391 -0.1290
  370MOL0     O48732   3.962   5.120   9.480  0.2271 -1.1958 -0.3822
  370MOL0     C48733   4.081   5.190   9.492 -0.6723 -0.3666 -0.2579
  370MOL0     C48734   4.136   5.267   9.392 -0.9859 -0.5246  0.2609
  370MOL0     C48735   4.257   5.329   9.430 -1.1463 -1.0248 -0.2302
  370MOL0     C48736   4.311   5.329   9.563 -0.0970  0.2976 -0.4198
  370MOL0     C48737   4.443   5.385   9.607 -0.5055 -0.0596 -0.0051
  370MOL0     O48738   4.501   5.477   9.525 -0.4144  0.6977  0.0281
  370MOL0     C48739   4.565   5.588   9.573 -0.6464  0.1084  0.0650
  370MOL0     C48740   4.665   5.656   9.505  1.0233  0.4519  0.1473
  370MOL0     C48741   4.717   5.775   9.552  0.0085 -0.5170 -0.4203
  370MOL0     C48742   4.694   5.825   9.680  0.2697 -0.8099  0.0951
  370MOL0     O48743   4.746   5.939   9.707 -0.6471 -0.4784  0.6291
  370MOL0     C48744   4.733   5.982   9.845 -0.3248  0.0992  0.7938
  370MOL0     C48745   4.806   6.117   9.858  0.6845 -0.7969 -0.1937
  370MOL0     C48746   4.947   6.117   9.822 -0.1584  0.1149  0.0791
  370MOL0     C48747   4.966   6.165   9.679 -0.6616  0.2823  0.5695
  370MOL0     C48748   5.108   6.175   9.635 -0.5061 -0.0589  0.4520
  370MOL0     C48749   5.201   6.269   9.714 -0.4222  0.0016 -0.6319
  370MOL0     C48750   5.338   6.280   9.630 -0.0369 -0.0106  0.3269
  370MOL0     C48751   5.432   6.176   9.694  0.5549  0.3821  1.7219
  370MOL0    Cl48752   5.593   6.206   9.623  0.1024  0.1816  0.1912
  370MOL0     C48753   4.604   5.748   9.755 -0.2963 -0.4113 -0.9402
  370MOL0     C48754   4.546   5.634   9.699  1.0612 -0.1920 -0.6025
  370MOL0     O48755   4.491   5.354   9.714  1.0086  0.1214 -0.9848
  370MOL0     C48756   4.247   5.250   9.656 -0.6627  0.4830 -0.5824
  370MOL0     C48757   4.130   5.190   9.628  0.7903  0.6611  0.0986
  370MOL0     N48758   3.430   5.423   9.557 -0.1376 -0.1009 -0.2339
  370MOL0     N48759   3.312   5.382   9.561 -0.6106  0.5821  0.1314
  370MOL0     C48760   2.226   5.109   9.700 -0.8392 -0.0598 -0.7204
  370MOL0     C48761   2.142   5.084   9.809 -0.2568 -0.4401 -1.6764
  370MOL0     C48762   1.947   4.946  10.172 -0.8967  1.1891  0.2153
  370MOL0     C48763   1.931   5.042  10.268  0.0233 -1.2691 -0.2402
  370MOL0     C48764   1.837   5.034  10.374  0.2509  0.5920  0.1796
  370MOL0     C48765   1.747   4.926  10.379 -0.5903 -1.2873 -0.0469
  370MOL0     O48766   1.657   4.921  10.474  0.0528 -0.2917 -0.6358
  370MOL0     C48767   1.537   4.846  10.456  0.3928  0.5244 -0.1452
  370MOL0     C48768   1.434   4.910  10.542  0.6996  0.4143 -0.7837
  370MOL0     C48769   1.302   4.838  10.532  0.3480 -0.3027 -0.5612
  370MOL0     C48770   1.209   4.880  10.646 -0.7892  1.7742  0.2902
  370MOL0     C48771   1.250   4.814  10.770 -0.3007  0.7149 -0.4371
  370MOL0     C48772   1.275   4.766  10.882 -0.1208 -0.3342 -0.1364
  370MOL0     C48773   1.770   4.825  10.292 -0.2484  0.1875  0.1348
  370MOL0     C48774   1.879   4.823  10.199  0.8610 -0.6758 -0.0619
  370MOL0     H48775   2.351   5.161  10.061  0.2676 -2.5585  0.8835
  370MOL0     H48776   2.502   5.204   9.863  1.2657 -1.9130 -0.0444
  370MOL0     H48777   2.350   5.344   9.515  1.1800 -0.5612  0.3880
  370MOL0     H48778   2.308   5.174   9.450 -1.6375 -0.2551  1.3007
  370MOL0     H48779   2.432   5.294   9.296  0.7146  0.5410 -0.0472
  370MOL0     H48780   2.519   5.146   9.359  1.2135  0.4021  0.2183
  370MOL0     H48781   2.665   5.281   9.496 -1.8121 -3.4173  0.2347
  370MOL0     H48782   2.580   5.426   9.439  1.7476 -0.2334  1.4159
  370MOL0     H48783   2.721   5.222   9.252 -0.7842  0.5153 -0.6571
  370MOL0     H48784   2.671   5.387   9.214  2.2072  0.8482 -0.7303
  370MOL0     H48785   2.875   5.282   9.422 -2.1354 -0.5141  0.5867
  370MOL0     H48786   2.865   5.451   9.392  3.1271 -0.8105  1.1273
  370MOL0     H48787   2.921   5.396   9.146 -0.5683 -1.2934 -0.2335
  370MOL0     H48788   2.953   5.234   9.211 -2.8310 -1.1016  0.0990
  370MOL0     H48789   3.147   5.421   9.199 -1.6952  2.5292 -0.4505
  370MOL0     H48790   3.079   5.478   9.339  0.4869 -0.0728 -0.3929
  370MOL0     H48791   3.198   5.195   9.329  2.4033  0.6460 -0.7380
  370MOL0     H48792   3.096   5.277   9.463  0.0020  2.4123 -0.9646
  370MOL0     H48793   3.421   5.345   9.251  0.3011  1.8194  0.1926
  370MOL0     H48794   3.688   5.477   9.474 -0.1771 -2.0442  0.6191
  370MOL0     H48795   3.617   5.510   9.316 -0.8903 -0.3954 -0.8580
  370MOL0     H48796   3.771   5.369   9.257  1.7865  0.0884  0.9152
  370MOL0     H48797   3.644   5.250   9.277 -0.5003  0.1185 -0.1337
  370MOL0     H48798   3.844   5.323   9.499 -2.7345  0.3609  2.4636
  370MOL0     H48799   3.714   5.209   9.507 -2.4462  1.9299 -1.7074
  370MOL0     H48800   3.915   5.174   9.287  0.4921  1.2177 -0.2295
  370MOL0     H48801   3.804   5.065   9.366  0.6726  1.0041 -2.0017
  370MOL0     H48802   4.088   5.281   9.295  3.2930 -0.0632 -2.0092
  370MOL0     H48803   4.302   5.399   9.361 -1.8752 -0.1203  0.1811
  370MOL0     H48804   4.704   5.605   9.417 -1.6882  0.0941 -0.9343
  370MOL0     H48805   4.782   5.828   9.483 -0.3480 -0.5619 -0.7998
  370MOL0     H48806   4.785   5.909   9.908  0.6314 -0.9797 -1.1302
  370MOL0     H48807   4.626   5.987   9.869 -0.1157 -1.9670  2.4288
  370MOL0     H48808   4.805   6.147   9.964 -1.2692  0.7607 -0.5834
  370MOL0     H48809   4.749   6.195   9.807  2.5165  1.6223  1.2681
  370MOL0     H48810   4.992   6.019   9.837  1.2099  0.2796 -2.3541
  370MOL0     H48811   5.005   6.185   9.885 -1.8445  1.0297  0.6886
  370MOL0     H48812   4.907   6.118   9.599 -1.4867  0.5249  1.0208
  370MOL0     H48813   4.932   6.269   9.686 -1.7539  0.0200 -0.4464
  370MOL0     H48814   5.106   6.219   9.535 -1.4731  2.5474  1.5528
  370MOL0     H48815   5.139   6.070   9.630  0.4609  0.2707 -3.0942
  370MOL0     H48816   5.224   6.222   9.810 -0.5195 -0.7224 -0.9622
  370MOL0     H48817   5.158   6.369   9.732  3.9518  1.8804  0.6051
  370MOL0     H48818   5.327   6.270   9.522 -1.6092 -3.8308  0.6579
  370MOL0     H48819   5.381   6.378   9.653  1.8444 -0.3089 -1.5330
  370MOL0     H48820   5.404   6.073   9.671  0.1198  0.5809  1.3257
  370MOL0     H48821   5.445   6.181   9.802  2.1295  1.3494  1.5216
  370MOL0     H48822   4.586   5.772   9.859  2.0297 -1.0032 -0.3580
  370MOL0     H48823   4.468   5.595   9.764  2.2339  0.0930  1.0242
  370MOL0     H48824   4.285   5.221   9.754 -4.7793 -1.8919  0.5578
  370MOL0     H48825   4.080   5.125   9.699 -1.4763  1.2378 -0.8898
  370MOL0     H48826   2.195   5.067   9.605  0.5924  0.4925 -1.4606
  370MOL0     H48827   2.043   5.049   9.780 -0.2076 -1.7901 -0.3548
  370MOL0     H48828   1.954   5.146  10.248 -1.4474 -0.5958  1.2297
  370MOL0     H48829   1.839   5.117  10.444 -2.9534  1.3718 -0.5244
  370MOL0     H48830   1.551   4.740  10.482  0.2819  0.2547 -1.1388
  370MOL0     H48831   1.511   4.844  10.350 -0.0962 -3.4725 -0.1163
  370MOL0     H48832   1.470   4.905  10.645  1.7462  3.9404 -0.8457
  370MOL0     H48833   1.412   5.014  10.515 -0.6324 -0.2235 -2.4025
  370MOL0     H48834   1.311   4.730  10.546 -1.4688 -0.3296  0.7303
  370MOL0     H48835   1.260   4.867  10.435  3.4945  2.6562 -1.2629
  370MOL0     H48836   1.209   4.988  10.664  3.7445  2.0288 -0.0579
  370MOL0     H48837   1.108   4.852  10.614 -0.3245  1.9082 -1.4065
  370MOL0     H48838   1.291   4.710  10.972 -0.0101 -0.6412 -0.3488
  370MOL0     H48839   1.704   4.739  10.289 -1.7153  1.1525 -5.0667
  370MOL0     H48840   1.904   4.738  10.136 -0.9685  1.5654 -4.2277
  371MOL0     O48841   1.811   8.902  11.363  0.4534  0.0789 -0.0387
  371MOL0     C48842   1.745   8.984  11.428 -0.0612  0.7542 -0.4760
  371MOL0     O48843   1.767   9.117  11.429  0.7475 -0.1208 -0.1669
  371MOL0     C48844   1.874   9.180  11.360 -0.1596 -0.2583 -0.0004
  371MOL0     C48845   1.864   9.321  11.356 -0.9761  0.5664 -0.1201
  371MOL0     C48846   1.961   9.394  11.285  0.0545 -0.4375 -0.1476
  371MOL0     C48847   2.072   9.347  11.226 -0.3892  0.9295  0.1801
  371MOL0     O48848   2.167   9.431  11.176 -0.2161  0.0197 -0.5133
  371MOL0     C48849   2.299   9.405  11.231  0.4261  0.3299  0.1086
  371MOL0     C48850   2.320   9.481  11.361 -0.3621 -0.7903  0.2677
  371MOL0     C48851   2.463   9.465  11.397  0.2923  0.2493  0.5110
  371MOL0     C48852   2.483   9.560  11.510  0.1510  0.6063  0.7664
  371MOL0     C48853   2.628   9.546  11.554 -0.0382  0.5304 -0.6388
  371MOL0     C48854   2.668   9.429  11.645 -0.6011  0.0999 -0.3369
  371MOL0     C48855   2.822   9.461  11.664 -0.2269  0.6169  0.4395
  371MOL0     C48856   2.903   9.345  11.717  0.0430 -0.0444  0.3685
  371MOL0     N48857   2.897   9.233  11.626 -1.1210 -0.2659  0.6524
  371MOL0     C48858   2.930   9.235  11.494  0.2768  0.3362  0.1677
  371MOL0     C48859   2.938   9.106  11.455  0.3918 -0.4915 -0.1784
  371MOL0     C48860   2.955   9.065  11.308 -0.0684  0.3161 -0.1968
  371MOL0     C48861   3.111   9.049  11.266  0.4613  0.4430  0.0823
  371MOL0     C48862   3.160   8.917  11.330 -0.1079 -0.1728  0.0765
  371MOL0     C48863   3.318   8.891  11.290  0.6976 -0.3371  0.0566
  371MOL0     O48864   3.367   8.801  11.377 -0.4959 -0.4403 -1.1873
  371MOL0     C48865   3.496   8.809  11.426 -0.2524 -0.9840  0.1036
  371MOL0     C48866   3.524   8.761  11.553  0.3159  0.1697  0.8011
  371MOL0     C48867   3.654   8.761  11.604  0.4704 -0.0967 -0.5040
  371MOL0     C48868   3.759   8.830  11.539  0.8939 -0.2189  0.6173
  371MOL0     C48869   3.906   8.830  11.583  0.0592 -0.3486 -0.4294
  371MOL0     O48870   4.000   8.893  11.510  0.1532 -0.5758 -0.0683
  371MOL0     C48871   4.136   8.904  11.553  0.6907  0.1881  0.1710
  371MOL0     C48872   4.206   8.830  11.638  0.1183 -0.3076 -1.2400
  371MOL0     C48873   4.344   8.854  11.665 -0.6091  0.4539 -0.0745
  371MOL0     C48874   4.404   8.969  11.612  0.0130 -0.0317  0.1553
  371MOL0     O48875   4.529   8.991  11.658  0.7634  0.1698  0.3977
  371MOL0     C48876   4.605   9.105  11.616  0.4646  0.3209  0.5044
  371MOL0     C48877   4.758   9.085  11.630 -0.3281  0.4891  0.5472
  371MOL0     C48878   4.806   9.079  11.778  0.4693 -0.8426  0.0348
  371MOL0     C48879   4.956   9.045  11.775  0.3263  0.1079 -0.0638
  371MOL0     C48880   5.018   9.031  11.912 -0.5697  1.5566 -1.0916
  371MOL0     C48881   5.177   9.004  11.893 -0.4414 -0.9251 -0.4760
  371MOL0     C48882   5.242   8.964  12.022 -0.7976  0.2151 -0.1185
  371MOL0     C48883   5.392   9.010  12.010  0.5557 -0.5490 -0.0407
  371MOL0    Cl48884   5.461   8.903  11.879 -0.0998  0.6652  0.3519
  371MOL0     C48885   4.327   9.052  11.518  0.4436  1.1213  0.2097
  371MOL0     C48886   4.194   9.011  11.488 -0.7951 -0.9845  0.0590
  371MOL0     O48887   3.927   8.776  11.690 -0.0945  0.3108  0.0771
  371MOL0     C48888   3.723   8.873  11.410 -0.0762 -0.7950  0.6254
  371MOL0     C48889   3.595   8.854  11.348 -0.3870 -0.0001  0.4920
  371MOL0     N48890   2.911   9.027  11.569 -0.0007  0.9486  0.3286
  371MOL0     N48891   2.894   9.105  11.667 -0.6988  0.4802  0.3692
  371MOL0     C48892   2.075   9.207  11.219 -0.8282  0.8997 -0.6029
  371MOL0     C48893   1.985   9.122  11.286 -0.1626 -0.6326 -0.5926
  371MOL0     C48894   1.628   8.934  11.491 -0.3018  0.1786  0.3790
  371MOL0     C48895   1.518   9.011  11.477  0.0429  0.5641  0.3096
  371MOL0     C48896   1.396   8.977  11.543 -0.0322 -0.0019  0.5536
  371MOL0     C48897   1.396   8.864  11.620 -0.1295  0.3793 -0.3952
  371MOL0     O48898   1.288   8.818  11.685 -0.5944 -0.0653 -0.2139
  371MOL0     C48899   1.176   8.911  11.694 -0.4681 -0.6073 -0.6105
  371MOL0     C48900   1.079   8.869  11.798  0.6153 -0.6550 -0.0457
  371MOL0     C48901   1.010   8.738  11.773  0.2779  0.9248 -0.4304
  371MOL0     C48902   0.966   8.666  11.912 -0.1121  0.2972 -1.0761
  371MOL0     C48903   1.074   8.576  11.974  0.6518 -1.6073  0.4205
  371MOL0     C48904   1.165   8.510  12.025  0.3555 -0.4130 -0.6145
  371MOL0     C48905   1.508   8.787  11.635  0.4083 -0.1074 -0.2398
  371MOL0     C48906   1.627   8.818  11.570  0.0463  0.5711 -0.2045
  371MOL0     H48907   1.783   9.371  11.409 -0.9016  0.0958  0.4478
  371MOL0     H48908   1.975   9.500  11.303  4.0553 -0.6011 -1.2162
  371MOL0     H48909   2.367   9.443  11.154  1.1697 -0.2277  0.4789
  371MOL0     H48910   2.321   9.298  11.236 -0.8597 -0.1484 -2.5606
  371MOL0     H48911   2.258   9.450  11.445 -0.5726  0.7453  0.7072
  371MOL0     H48912   2.303   9.585  11.331  0.0284 -0.7802  0.0708
  371MOL0     H48913   2.533   9.484  11.316 -0.2506  1.4893  0.2986
  371MOL0     H48914   2.489   9.366  11.435  1.8098 -0.1126 -1.3188
  371MOL0     H48915   2.477   9.662  11.472  1.1336 -0.0851 -1.4202
  371MOL0     H48916   2.410   9.536  11.587  0.5383 -1.4956  0.5362
  371MOL0     H48917   2.640   9.634  11.618 -1.1843  0.3128 -0.1012
  371MOL0     H48918   2.682   9.547  11.459  0.1286 -1.8369 -0.6208
  371MOL0     H48919   2.658   9.333  11.594 -1.5477 -0.6868  1.2625
  371MOL0     H48920   2.611   9.422  11.738  1.5756  1.3729  1.1970
  371MOL0     H48921   2.868   9.493  11.569 -1.4177 -0.6096 -0.5987
  371MOL0     H48922   2.822   9.540  11.740 -0.4676 -0.9124  2.0891
  371MOL0     H48923   2.859   9.315  11.813  2.7345 -1.3823  1.2690
  371MOL0     H48924   3.008   9.371  11.730  0.6551  0.5959 -4.1733
  371MOL0     H48925   2.941   9.328  11.438  1.3894  0.9611  1.3475
  371MOL0     H48926   2.915   9.143  11.242  2.7294 -0.0155 -2.5002
  371MOL0     H48927   2.901   8.970  11.295 -1.1822  0.8747  0.2006
  371MOL0     H48928   3.162   9.137  11.306 -2.5258  2.4928 -0.2829
  371MOL0     H48929   3.119   9.036  11.158  1.7257 -2.1361  0.4153
  371MOL0     H48930   3.162   8.938  11.438  1.2973  1.0542 -0.1430
  371MOL0     H48931   3.095   8.835  11.299 -1.1881  1.2885 -1.7491
  371MOL0     H48932   3.371   8.986  11.298 -0.0490  0.0567  0.5292
  371MOL0     H48933   3.322   8.854  11.187 -1.1088 -2.2285  0.5931
  371MOL0     H48934   3.440   8.723  11.611  0.3059 -1.9539 -0.4981
  371MOL0     H48935   3.667   8.738  11.709  0.9224 -0.8497 -0.7200
  371MOL0     H48936   4.167   8.739  11.682  0.1228  0.0821 -0.4085
  371MOL0     H48937   4.393   8.784  11.732 -1.5017 -0.0064  0.1138
  371MOL0     H48938   4.581   9.193  11.677  3.5561  0.5267  1.6125
  371MOL0     H48939   4.576   9.127  11.513 -3.1570 -1.0216  1.0805
  371MOL0     H48940   4.809   9.167  11.578 -1.5021 -0.5031 -2.3039
  371MOL0     H48941   4.792   8.998  11.574  2.7259  2.7431 -1.4029
  371MOL0     H48942   4.750   9.002  11.832 -0.0136 -0.2133  0.4454
  371MOL0     H48943   4.783   9.173  11.829  1.7173 -0.9465  0.8484
  371MOL0     H48944   4.964   8.957  11.711 -0.0030 -0.5199  0.7514
  371MOL0     H48945   5.019   9.124  11.731  0.0691  0.2280 -0.2171
  371MOL0     H48946   4.972   8.944  11.960  0.3446  0.5088 -2.0379
  371MOL0     H48947   5.000   9.122  11.969  0.1206  1.8387 -1.3098
  371MOL0     H48948   5.217   9.097  11.853 -1.1883 -0.7683 -0.8761
  371MOL0     H48949   5.201   8.933  11.813  2.4796 -0.2868 -0.2709
  371MOL0     H48950   5.181   9.010  12.100 -1.3347  0.8098 -0.8814
  371MOL0     H48951   5.243   8.855  12.027  1.4231  0.0985 -1.5940
  371MOL0     H48952   5.450   9.002  12.103  2.5463  3.8859 -0.6585
  371MOL0     H48953   5.392   9.116  11.984  2.5061 -0.1697  1.2818
  371MOL0     H48954   4.396   9.120  11.468  3.5897 -1.6517  0.3906
  371MOL0     H48955   4.136   9.065  11.413 -0.6359  2.1891  2.0414
  371MOL0     H48956   3.788   8.920  11.337 -0.8383 -1.5626 -0.5884
  371MOL0     H48957   3.576   8.902  11.253  0.9666  1.2137  0.7817
  371MOL0     H48958   2.157   9.157  11.168 -1.0806  1.8654 -1.9980
  371MOL0     H48959   1.993   9.016  11.268  1.2457 -0.4749 -0.9931
  371MOL0     H48960   1.520   9.096  11.410 -1.2920  0.2906 -0.1155
  371MOL0     H48961   1.305   9.034  11.528 -1.4013 -1.4272  2.8423
  371MOL0     H48962   1.128   8.919  11.596  1.0835  0.8691 -1.3063
  371MOL0     H48963   1.201   9.011  11.732 -1.4195 -0.2749 -0.8448
  371MOL0     H48964   1.138   8.845  11.886 -0.8862 -0.4857  1.0451
  371MOL0     H48965   1.018   8.960  11.812  2.7721  0.7850  0.4477
  371MOL0     H48966   1.073   8.666  11.719 -1.1182 -0.0164 -0.8685
  371MOL0     H48967   0.918   8.766  11.721  0.9727  3.6191 -0.3507
  371MOL0     H48968   0.948   8.742  11.988  1.5823 -2.4836  2.4211
  371MOL0     H48969   0.869   8.616  11.906 -1.1981  2.4421 -2.3440
  371MOL0     H48970   1.242   8.452  12.072 -0.4913  0.0527  1.4289
  371MOL0     H48971   1.497   8.702  11.701 -0.2931  0.9031  1.0000
  371MOL0     H48972   1.715   8.756  11.587 -1.1507 -0.6777  1.8449
  372MOL0     O48973   7.989   5.420   9.510 -0.0993  0.2964  0.8544
  372MOL0     C48974   7.995   5.525   9.572  0.2751 -0.6752 -0.7907
  372MOL0     O48975   8.085   5.622   9.573 -0.6449  1.1501 -1.1505
  372MOL0     C48976   8.188   5.622   9.478  0.1803  0.1740 -0.8831
  372MOL0     C48977   8.305   5.681   9.522 -1.0664  0.4004 -0.3820
  372MOL0     C48978   8.413   5.694   9.434  0.7205 -0.6374  0.0267
  372MOL0     C48979   8.399   5.677   9.296 -0.6990  0.0190 -0.4736
  372MOL0     O48980   8.507   5.698   9.213  0.6652 -0.3392 -0.2129
  372MOL0     C48981   8.594   5.587   9.225  0.2132 -0.6320  0.2831
  372MOL0     C48982   8.687   5.608   9.096  0.9741  0.3651 -0.1834
  372MOL0     C48983   8.785   5.487   9.090  0.5170 -0.9285  0.3099
  372MOL0     C48984   8.874   5.498   8.970  0.1450 -0.8295  0.0683
  372MOL0     C48985   8.972   5.374   8.977  0.8353 -0.2544 -0.3288
  372MOL0     C48986   9.063   5.386   8.854  0.3430  0.2938 -0.1655
  372MOL0     C48987   9.150   5.264   8.832 -0.7200 -0.1041 -0.3630
  372MOL0     C48988   9.248   5.248   8.949 -0.0328  0.5405  0.0281
  372MOL0     N48989   9.348   5.361   8.944 -0.1624 -0.1981 -0.3759
  372MOL0     C48990   9.468   5.351   8.881 -0.6721  0.6492  1.1260
  372MOL0     C48991   9.551   5.439   8.936  0.9364 -0.1772  0.0198
  372MOL0     C48992   9.692   5.465   8.916  0.6987 -0.5612  0.8678
  372MOL0     C48993   9.746   5.568   9.022 -0.4951  0.3665 -0.4493
  372MOL0     C48994   9.757   5.716   8.988  1.3354 -0.8292  0.2064
  372MOL0     C48995   9.618   5.777   8.978  0.9141 -0.3670  0.8972
  372MOL0     O48996   9.625   5.915   9.004  0.3334 -0.3881 -0.6786
  372MOL0     C48997   9.531   6.008   8.962  0.8444 -0.6615 -0.8799
  372MOL0     C48998   9.575   6.134   8.924  0.1552  0.4860 -0.2138
  372MOL0     C48999   9.486   6.233   8.879 -0.1487  0.5400 -0.0354
  372MOL0     C49000   9.356   6.195   8.857 -0.4522  0.0092 -0.3746
  372MOL0     C49001   9.267   6.305   8.801 -0.4494  0.3767 -0.0814
  372MOL0     O49002   9.304   6.435   8.798 -0.6345 -0.1113  0.2213
  372MOL0     C49003   9.243   6.532   8.726  0.3121  0.3121 -0.1650
  372MOL0     C49004   9.210   6.516   8.594  0.4372  0.3966 -0.0362
  372MOL0     C49005   9.152   6.626   8.525 -0.4422 -0.0307  0.0067
  372MOL0     C49006   9.132   6.745   8.582 -0.1723  0.1017 -0.6202
  372MOL0     O49007   9.073   6.853   8.518  0.2933  0.4328 -0.4255
  372MOL0     C49008   9.029   6.980   8.576  0.4680  1.2479  0.5744
  372MOL0     C49009   8.901   6.963   8.662 -0.0236  0.2671 -0.3480
  372MOL0     C49010   8.848   7.110   8.706 -0.7911  0.1781  0.6064
  372MOL0     C49011   8.712   7.106   8.784 -0.1067  0.1273  1.5374
  372MOL0     C49012   8.602   7.044   8.702 -0.3253 -0.3117 -0.4963
  372MOL0     C49013   8.473   7.042   8.775  0.7314 -0.1157  0.2439
  372MOL0     C49014   8.358   7.002   8.682  0.2172 -0.0654  0.2462
  372MOL0     C49015   8.214   7.037   8.737  0.3137 -1.6778 -0.1990
  372MOL0    Cl49016   8.181   6.985   8.897 -0.0438  0.5551 -0.2576
  372MOL0     C49017   9.188   6.761   8.715 -0.6661 -0.4537  0.4247
  372MOL0     C49018   9.236   6.658   8.784  0.2822 -0.0532 -0.0671
  372MOL0     O49019   9.155   6.266   8.775  0.0465 -0.2724  0.2300
  372MOL0     C49020   9.311   6.066   8.896  0.7964 -0.9034  0.7309
  372MOL0     C49021   9.394   5.973   8.945 -0.4929  0.5807 -0.4411
  372MOL0     N49022   9.470   5.512   9.028  0.3557 -0.0702 -0.7500
  372MOL0     N49023   9.352   5.462   9.032  0.3842 -0.0630  1.1007
  372MOL0     C49024   8.276   5.641   9.249  0.5793 -0.0615 -0.4342
  372MOL0     C49025   8.166   5.603   9.336  0.3983  0.0288 -0.4463
  372MOL0     C49026   7.879   5.548   9.658 -0.4349  0.2459  0.2951
  372MOL0     C49027   7.860   5.659   9.751  0.1278  0.5030  0.4754
  372MOL0     C49028   7.749   5.664   9.831  0.2184  0.7249  0.2954
  372MOL0     C49029   7.635   5.582   9.819 -0.3603  0.9024  0.1854
  372MOL0     O49030   7.516   5.593   9.885  0.0906  0.7384  0.3646
  372MOL0     C49031   7.519   5.635  10.022  0.2346 -0.0604  0.5040
  372MOL0     C49032   7.501   5.793  10.031 -0.2979  0.0931  0.6810
  372MOL0     C49033   7.469   5.839  10.180 -0.9601  0.5558  0.5081
  372MOL0     C49034   7.330   5.842  10.221  0.4299  0.2792  0.0494
  372MOL0     C49035   7.320   5.821  10.369 -0.6426 -0.1671  0.6633
  372MOL0     C49036   7.325   5.803  10.489  0.5603  0.1481 -1.3353
  372MOL0     C49037   7.651   5.477   9.732  0.3843  0.2396  0.2908
  372MOL0     C49038   7.766   5.460   9.655 -0.0883 -0.0565 -0.5598
  372MOL0     H49039   8.319   5.698   9.629  1.3451  0.5154 -0.6445
  372MOL0     H49040   8.512   5.725   9.465  1.9349 -3.0671 -1.1342
  372MOL0     H49041   8.542   5.491   9.222  1.2541 -1.1942 -2.0822
  372MOL0     H49042   8.662   5.597   9.311  3.7082  0.3478 -2.3361
  372MOL0     H49043   8.740   5.703   9.105  1.0250  0.2377  0.9606
  372MOL0     H49044   8.629   5.607   9.003 -0.2645  1.8143  0.5362
  372MOL0     H49045   8.724   5.397   9.080 -1.2052  0.3565 -1.4727
  372MOL0     H49046   8.843   5.494   9.183  0.0477 -1.1084  0.6188
  372MOL0     H49047   8.810   5.505   8.881  1.0425  1.4855 -0.4749
  372MOL0     H49048   8.929   5.592   8.974 -0.2381 -0.6225  3.4874
  372MOL0     H49049   8.923   5.276   8.973  1.1479 -0.3941 -1.0633
  372MOL0     H49050   9.022   5.378   9.074 -0.0943  2.1555  0.1130
  372MOL0     H49051   9.125   5.475   8.850  0.2841  0.3140 -0.7230
  372MOL0     H49052   9.001   5.392   8.764  0.9792 -2.4793 -0.9147
  372MOL0     H49053   9.078   5.186   8.803 -2.9006  0.8217  2.1925
  372MOL0     H49054   9.202   5.285   8.738 -0.7163 -1.5815 -0.7262
  372MOL0     H49055   9.293   5.149   8.937 -4.4850 -1.4927 -2.2266
  372MOL0     H49056   9.202   5.247   9.048 -1.9192 -1.9367 -0.7694
  372MOL0     H49057   9.496   5.280   8.804 -3.4701  2.6739 -2.0440
  372MOL0     H49058   9.726   5.503   8.819  2.4365  0.1494  1.7212
  372MOL0     H49059   9.739   5.368   8.932  0.3074 -0.5876  1.8869
  372MOL0     H49060   9.853   5.548   9.027 -0.2605  1.7262  0.6687
  372MOL0     H49061   9.701   5.536   9.116  1.5341 -1.4882 -0.0386
  372MOL0     H49062   9.811   5.767   9.068  2.1562  2.1116 -2.0619
  372MOL0     H49063   9.819   5.735   8.900 -0.5592 -0.4604 -1.0809
  372MOL0     H49064   9.547   5.729   9.046  2.6738 -2.0453  1.6302
  372MOL0     H49065   9.581   5.753   8.878  2.4678 -2.3794  0.7336
  372MOL0     H49066   9.682   6.145   8.938  0.3827 -1.2477 -0.3485
  372MOL0     H49067   9.517   6.332   8.848 -1.3685  0.2263 -2.4412
  372MOL0     H49068   9.214   6.417   8.549  2.9787  0.4627 -0.0789
  372MOL0     H49069   9.113   6.613   8.425 -1.3688 -1.4094  0.5216
  372MOL0     H49070   8.986   7.052   8.506 -3.0645  2.3274  3.5945
  372MOL0     H49071   9.115   7.028   8.623  0.7012  4.2686 -2.5981
  372MOL0     H49072   8.932   6.902   8.746 -0.8586  1.8221  1.1514
  372MOL0     H49073   8.826   6.908   8.604 -0.8481  3.1585 -2.2844
  372MOL0     H49074   8.835   7.181   8.624 -0.3390  0.2444  0.5904
  372MOL0     H49075   8.933   7.146   8.766  0.6336  0.1469 -1.2925
  372MOL0     H49076   8.730   7.048   8.875 -2.2394 -0.0600  1.8810
  372MOL0     H49077   8.682   7.205   8.816 -2.1591 -0.2917  1.0302
  372MOL0     H49078   8.620   6.943   8.667 -1.5154 -1.1306  1.0943
  372MOL0     H49079   8.598   7.109   8.614 -0.0683  0.6512  0.1834
  372MOL0     H49080   8.452   7.144   8.807  0.2881  0.8518 -2.7543
  372MOL0     H49081   8.485   6.968   8.855 -0.3591 -2.4474 -1.6098
  372MOL0     H49082   8.373   7.054   8.587 -0.6627 -1.1426 -0.5032
  372MOL0     H49083   8.358   6.893   8.673 -0.5043 -0.2112  1.7001
  372MOL0     H49084   8.143   6.975   8.683 -2.0309 -0.2013  1.0084
  372MOL0     H49085   8.197   7.145   8.730  0.5439 -1.5342  1.0523
  372MOL0     H49086   9.176   6.857   8.763 -0.8596  0.7833 -1.9319
  372MOL0     H49087   9.256   6.660   8.891 -2.6304  0.5908  0.5606
  372MOL0     H49088   9.209   6.030   8.886  1.6671 -3.4626  0.2102
  372MOL0     H49089   9.372   5.870   8.973  0.2566  0.3833 -0.5639
  372MOL0     H49090   8.259   5.636   9.142  1.3691 -3.2776 -0.5220
  372MOL0     H49091   8.066   5.581   9.299  0.4207  1.8417 -1.6877
  372MOL0     H49092   7.946   5.722   9.770  0.0976  0.5608  0.4220
  372MOL0     H49093   7.745   5.733   9.915  0.3721  1.1140 -0.0154
  372MOL0     H49094   7.603   5.599  10.082  0.7374  1.0450  0.4919
  372MOL0     H49095   7.433   5.588  10.072 -0.9470 -0.0484 -1.4017
  372MOL0     H49096   7.588   5.849   9.995 -0.1515 -0.7485 -0.3010
  372MOL0     H49097   7.413   5.820   9.973 -0.2794 -0.7126  0.2636
  372MOL0     H49098   7.524   5.933  10.191 -0.2111  0.4076 -1.5654
  372MOL0     H49099   7.529   5.761  10.227 -1.9142 -1.5788 -1.6442
  372MOL0     H49100   7.272   5.931  10.195  0.2535  0.5457  1.3104
  372MOL0     H49101   7.281   5.754  10.180  0.1644  0.3966  0.1136
  372MOL0     H49102   7.340   5.794  10.594 -4.1647 -2.3611 -0.5883
  372MOL0     H49103   7.558   5.422   9.725 -0.2803  1.0587  2.1211
  372MOL0     H49104   7.769   5.370   9.595 -2.7189 -1.8731  1.8414
  373MOL0     O49105   9.113   8.006  10.847  0.3888 -0.3780  0.1029
  373MOL0     C49106   9.163   8.109  10.802 -0.5178  0.3631 -0.2680
  373MOL0     O49107   9.115   8.182  10.696  0.3330 -0.1610  0.1429
  373MOL0     C49108   8.984   8.156  10.657  0.4591 -0.5273  0.4555
  373MOL0     C49109   8.947   8.041  10.588  1.0171  0.1793  0.0798
  373MOL0     C49110   8.811   8.007  10.587 -1.1986  0.2431  0.2469
  373MOL0     C49111   8.711   8.095  10.610  0.2783 -1.6220  0.4697
  373MOL0     O49112   8.574   8.074  10.595 -0.3404  0.2139  0.0104
  373MOL0     C49113   8.527   7.941  10.618  0.3588  0.0003 -0.3452
  373MOL0     C49114   8.470   7.882  10.496  0.8528  0.5249  0.5291
  373MOL0     C49115   8.362   7.965  10.423 -0.0116  0.0032 -0.3240
  373MOL0     C49116   8.279   7.905  10.293 -0.0453  0.1078 -0.2266
  373MOL0     C49117   8.204   8.005  10.211  0.2967 -0.1050 -0.6292
  373MOL0     C49118   8.097   8.080  10.293 -0.5958  0.7347  0.3527
  373MOL0     C49119   7.985   8.005  10.345  0.1033  0.0389 -1.1105
  373MOL0     C49120   7.861   8.095  10.401 -0.1574  0.3698  0.4338
  373MOL0     N49121   7.763   8.015  10.466 -0.7035  0.1371 -0.4217
  373MOL0     C49122   7.752   8.009  10.605 -0.2320 -0.1340  0.2556
  373MOL0     C49123   7.627   7.950  10.620 -0.0604 -0.5570  0.3254
  373MOL0     C49124   7.579   7.925  10.757 -0.3232 -0.0351  0.3347
  373MOL0     C49125   7.621   7.777  10.799 -0.0473 -1.0953  1.2724
  373MOL0     C49126   7.523   7.665  10.779 -0.0106 -0.5871 -0.5978
  373MOL0     C49127   7.460   7.657  10.642 -1.2282 -0.0468  0.0960
  373MOL0     O49128   7.367   7.552  10.632  0.0957 -0.2308 -0.4558
  373MOL0     C49129   7.311   7.542  10.505  0.8290  0.5521 -0.3495
  373MOL0     C49130   7.358   7.604  10.392  0.7076 -0.1111 -0.4357
  373MOL0     C49131   7.297   7.576  10.272 -0.1777 -0.5499  0.2635
  373MOL0     C49132   7.198   7.480  10.249 -0.2850  0.6043 -0.9439
  373MOL0     C49133   7.159   7.455  10.109  0.2777 -1.0798  1.0405
  373MOL0     O49134   7.200   7.548  10.008 -0.3592 -0.1234 -0.1516
  373MOL0     C49135   7.170   7.513   9.877  0.0267 -0.2540  0.0992
  373MOL0     C49136   7.054   7.570   9.825 -0.1576  0.4046 -0.1523
  373MOL0     C49137   7.025   7.523   9.695  1.3704  0.0405 -1.3196
  373MOL0     C49138   7.098   7.434   9.611 -0.3785  0.4148 -0.6570
  373MOL0     O49139   7.056   7.417   9.487 -0.0943 -0.0496  0.2182
  373MOL0     C49140   7.046   7.286   9.444  0.0058 -0.5083  0.9072
  373MOL0     C49141   7.130   7.258   9.317  0.0625  0.2720  0.6014
  373MOL0     C49142   7.120   7.113   9.304 -0.3499  0.8212 -0.9390
  373MOL0     C49143   7.174   7.066   9.166 -0.4641 -0.4267 -0.0136
  373MOL0     C49144   7.070   7.061   9.060 -0.2524 -0.3234  0.9521
  373MOL0     C49145   7.133   6.991   8.940 -0.3228  0.5173  0.1009
  373MOL0     C49146   7.076   7.033   8.802 -0.2470 -0.6182 -1.1799
  373MOL0     C49147   7.134   6.930   8.699  0.5835 -0.2180 -0.2379
  373MOL0    Cl49148   7.063   6.768   8.713  0.0461  0.2070  0.0191
  373MOL0     C49149   7.215   7.389   9.669 -0.4210  0.3724 -0.1778
  373MOL0     C49150   7.251   7.425   9.800 -0.1761  0.0350  0.3914
  373MOL0     O49151   7.087   7.358  10.085 -0.1068 -0.7607 -0.7698
  373MOL0     C49152   7.155   7.406  10.366 -0.3025 -0.0853 -1.0270
  373MOL0     C49153   7.210   7.446  10.486  0.5560 -0.2691 -0.0646
  373MOL0     N49154   7.573   7.921  10.493  0.1692 -0.1908  0.1305
  373MOL0     N49155   7.653   7.968  10.404 -0.1174 -0.3079 -0.3466
  373MOL0     C49156   8.753   8.226  10.651  0.8705  0.0949  0.4926
  373MOL0     C49157   8.887   8.258  10.687  0.5106  0.1444  0.7471
  373MOL0     C49158   9.300   8.153  10.858 -1.0161 -0.4518  0.7579
  373MOL0     C49159   9.390   8.247  10.790 -0.0945 -0.5651 -0.8373
  373MOL0     C49160   9.507   8.286  10.852 -0.3460 -0.0024 -0.5452
  373MOL0     C49161   9.550   8.243  10.976 -0.8227  0.1876  0.2310
  373MOL0     O49162   9.662   8.295  11.025 -0.8432 -0.1611 -0.2163
  373MOL0     C49163   9.778   8.209  11.012 -0.1455  0.8213  0.2473
  373MOL0     C49164   9.844   8.186  11.148 -0.4901 -0.0062  0.0599
  373MOL0     C49165   9.951   8.084  11.149 -0.7146  0.7646  0.3491
  373MOL0     C49166   9.899   7.944  11.198 -0.0215  0.4876 -0.4024
  373MOL0     C49167  10.004   7.845  11.155  0.8873 -0.9223 -0.1695
  373MOL0     C49168  10.082   7.755  11.151  0.2950 -0.1115  0.1429
  373MOL0     C49169   9.469   8.148  11.042 -0.1622  0.3281  0.4087
  373MOL0     C49170   9.343   8.110  10.985 -0.7935 -0.9069  0.3112
  373MOL0     H49171   9.008   7.961  10.546 -4.3695 -3.5369 -1.6780
  373MOL0     H49172   8.788   7.912  10.541  0.2977 -0.1025  0.1354
  373MOL0     H49173   8.444   7.948  10.689 -0.7782 -1.4935 -1.4691
  373MOL0     H49174   8.600   7.868  10.657  0.0006 -0.1588  0.0366
  373MOL0     H49175   8.421   7.786  10.518 -0.2733  0.9625 -0.0276
  373MOL0     H49176   8.551   7.846  10.432  0.7413 -1.5889  1.4819
  373MOL0     H49177   8.393   8.064  10.390  1.9570 -0.2216  0.7343
  373MOL0     H49178   8.299   7.964  10.512  1.9135 -3.7100  1.2463
  373MOL0     H49179   8.342   7.856  10.218 -2.7604 -3.9595 -0.1937
  373MOL0     H49180   8.206   7.828  10.322 -1.6365  1.1182 -1.4029
  373MOL0     H49181   8.138   7.963  10.134 -0.9479 -0.4514  0.6008
  373MOL0     H49182   8.267   8.081  10.164 -0.4080  0.8041 -0.1367
  373MOL0     H49183   8.052   8.153  10.225 -0.7968  2.0305  1.8289
  373MOL0     H49184   8.141   8.149  10.366  1.5965  0.2081 -0.4090
  373MOL0     H49185   7.945   7.943  10.264 -1.3697 -0.4023 -0.0742
  373MOL0     H49186   8.017   7.939  10.426 -2.0983 -0.5905 -0.6836
  373MOL0     H49187   7.818   8.156  10.321 -0.8618  4.2216  3.4753
  373MOL0     H49188   7.891   8.178  10.466 -1.6136  0.3460  1.1736
  373MOL0     H49189   7.816   8.055  10.680  2.0485  3.0702 -3.2885
  373MOL0     H49190   7.470   7.930  10.752 -0.3095 -0.6447 -0.9834
  373MOL0     H49191   7.623   8.000  10.823  2.8126  0.4044 -2.0507
  373MOL0     H49192   7.630   7.771  10.908 -2.0848 -1.2899  1.4601
  373MOL0     H49193   7.716   7.758  10.748 -0.0938  0.0216  0.7339
  373MOL0     H49194   7.563   7.565  10.799  0.1060 -0.2060  1.1897
  373MOL0     H49195   7.443   7.689  10.849  1.0964  4.0995 -0.6402
  373MOL0     H49196   7.545   7.636  10.576 -2.0506  0.0348 -1.0158
  373MOL0     H49197   7.409   7.751  10.623 -1.0544 -0.6501 -4.2896
  373MOL0     H49198   7.438   7.678  10.389 -0.5228  1.3112  0.6537
  373MOL0     H49199   7.341   7.628  10.188 -0.9099 -0.6674 -0.2031
  373MOL0     H49200   6.991   7.645   9.871 -0.2759  0.2616 -0.0802
  373MOL0     H49201   6.935   7.566   9.651  0.7826 -1.1860 -1.3459
  373MOL0     H49202   6.941   7.263   9.426 -0.4915  1.0028  1.6865
  373MOL0     H49203   7.084   7.214   9.518  0.8986  2.2032  3.2420
  373MOL0     H49204   7.237   7.279   9.330  0.5791 -1.2653 -0.7744
  373MOL0     H49205   7.084   7.306   9.230 -0.3542 -1.6812 -0.3153
  373MOL0     H49206   7.016   7.083   9.314 -1.1861  3.6038 -0.4450
  373MOL0     H49207   7.188   7.065   9.376 -0.6905 -0.0285 -1.1755
  373MOL0     H49208   7.266   7.122   9.147  0.8593 -1.7542  1.9671
  373MOL0     H49209   7.206   6.964   9.191 -2.1990 -1.1062 -0.4826
  373MOL0     H49210   7.034   7.160   9.030  2.4154  0.1351 -1.0999
  373MOL0     H49211   6.988   6.995   9.088  1.3495 -3.5668 -1.3447
  373MOL0     H49212   7.103   6.886   8.949  0.0462  0.0917 -2.6147
  373MOL0     H49213   7.242   6.990   8.939 -0.3044  1.8081 -0.5126
  373MOL0     H49214   6.967   7.027   8.810 -0.0867 -1.9609  0.9601
  373MOL0     H49215   7.100   7.138   8.780  1.0161 -0.8484 -0.9242
  373MOL0     H49216   7.242   6.943   8.688  0.1649  2.7987 -1.9304
  373MOL0     H49217   7.095   6.961   8.601 -0.5787  1.2151  0.6342
  373MOL0     H49218   7.272   7.308   9.623  0.4434  0.9154 -0.0701
  373MOL0     H49219   7.330   7.384   9.861  0.3493  1.9351  1.0522
  373MOL0     H49220   7.088   7.321  10.367  0.8693 -1.2618  4.4040
  373MOL0     H49221   7.179   7.384  10.570  2.8259 -4.3561 -1.9250
  373MOL0     H49222   8.688   8.309  10.679  2.0827  2.0661 -2.1031
  373MOL0     H49223   8.921   8.354  10.727  2.0335  0.4901 -1.2253
  373MOL0     H49224   9.360   8.285  10.693  2.5498 -0.6195 -1.7484
  373MOL0     H49225   9.565   8.354  10.790  0.9749 -0.7039 -0.1224
  373MOL0     H49226   9.842   8.270  10.948 -0.6487  1.4520  0.3314
  373MOL0     H49227   9.753   8.110  10.973 -1.8742 -0.5909  4.3089
  373MOL0     H49228   9.891   8.281  11.177  2.5488 -1.0011 -1.1954
  373MOL0     H49229   9.765   8.166  11.221 -0.2033 -1.6717 -0.0434
  373MOL0     H49230  10.038   8.109  11.210  0.0130  1.1626 -0.8011
  373MOL0     H49231   9.994   8.072  11.049  2.9370 -4.2736  2.1577
  373MOL0     H49232   9.871   7.939  11.303 -0.5770 -1.4098 -0.5981
  373MOL0     H49233   9.805   7.922  11.147 -1.6029  1.8595  1.7406
  373MOL0     H49234  10.151   7.674  11.158  0.8974  0.3400 -0.3791
  373MOL0     H49235   9.510   8.113  11.136 -1.8868  0.3884  1.2140
  373MOL0     H49236   9.286   8.030  11.032 -0.5939 -0.7765  0.7884
  374MOL0     O49237   1.783   3.699   6.443 -0.6092 -0.6319 -0.1299
  374MOL0     C49238   1.768   3.586   6.395 -0.0805  1.1517 -0.4770
  374MOL0     O49239   1.647   3.526   6.373 -0.0332  0.3653 -0.2807
  374MOL0     C49240   1.542   3.576   6.445  0.3022  0.3827  0.5907
  374MOL0     C49241   1.472   3.692   6.409  0.9051 -0.1402 -0.4456
  374MOL0     C49242   1.351   3.725   6.479  1.1146 -0.3186 -0.2229
  374MOL0     C49243   1.310   3.649   6.591  0.0104  0.5931 -0.3428
  374MOL0     O49244   1.218   3.680   6.687 -0.1267 -0.4657  0.1096
  374MOL0     C49245   1.115   3.771   6.636  0.3716 -0.1929 -0.6379
  374MOL0     C49246   1.021   3.809   6.755  0.2742  0.4969  0.5152
  374MOL0     C49247   0.925   3.699   6.784  0.4777 -0.2413 -0.6531
  374MOL0     C49248   0.831   3.737   6.908  0.1835  0.0174  0.2146
  374MOL0     C49249   0.684   3.682   6.872 -0.8035  0.3793 -0.2380
  374MOL0     C49250   0.599   3.690   6.995  0.1312 -0.2172  0.1226
  374MOL0     C49251   0.453   3.649   6.974 -0.4950 -0.2494 -0.1665
  374MOL0     C49252   0.358   3.770   6.956  0.9539 -0.4442 -0.0616
  374MOL0     N49253   0.230   3.728   7.023  0.3589  1.0247  0.5129
  374MOL0     C49254   0.187   3.783   7.136  0.2233 -0.2868 -0.3194
  374MOL0     C49255   0.063   3.730   7.159  0.0015 -1.5484 -1.1552
  374MOL0     C49256  -0.041   3.744   7.276 -0.4717 -0.3070  0.2195
  374MOL0     C49257   0.017   3.689   7.404 -0.3728 -0.1071  0.3296
  374MOL0     C49258  -0.075   3.703   7.534 -0.1688 -0.0336 -0.8031
  374MOL0     C49259  -0.194   3.608   7.544 -0.8946 -0.2008  0.3007
  374MOL0     O49260  -0.295   3.640   7.444  0.1581  0.5037  0.0376
  374MOL0     C49261  -0.413   3.575   7.449 -0.7764 -0.2518 -0.4574
  374MOL0     C49262  -0.507   3.605   7.351  0.3683 -0.5198 -0.0951
  374MOL0     C49263  -0.630   3.538   7.347  1.0202 -0.7925  0.0586
  374MOL0     C49264  -0.669   3.454   7.444 -0.3088 -0.0621  0.3183
  374MOL0     C49265  -0.806   3.410   7.455 -0.5100 -0.1302 -0.1194
  374MOL0     O49266  -0.892   3.435   7.354 -0.3327  0.7170 -1.0281
  374MOL0     C49267  -1.019   3.412   7.344 -0.4659  0.9460 -0.8106
  374MOL0     C49268  -1.112   3.441   7.445  0.1554 -0.2351  0.3134
  374MOL0     C49269  -1.247   3.400   7.429  0.5855 -0.0013 -0.1348
  374MOL0     C49270  -1.292   3.335   7.309  0.9997  0.3374  0.5933
  374MOL0     O49271  -1.424   3.298   7.305 -0.3161 -0.5813  0.8017
  374MOL0     C49272  -1.462   3.214   7.199  0.0817 -0.9298  0.8268
  374MOL0     C49273  -1.605   3.183   7.215  1.0059 -0.5574 -0.5929
  374MOL0     C49274  -1.629   3.082   7.336 -0.7802 -0.6434  0.5350
  374MOL0     C49275  -1.775   3.039   7.367  0.1103 -0.2535  0.5717
  374MOL0     C49276  -1.780   2.945   7.486  0.2226 -0.1217  0.5170
  374MOL0     C49277  -1.898   2.846   7.480 -0.2100  0.0558  0.3859
  374MOL0     C49278  -2.027   2.925   7.455 -1.0164  0.7344 -0.8120
  374MOL0     C49279  -2.147   2.835   7.504  0.2645  0.5888  0.0497
  374MOL0    Cl49280  -2.144   2.686   7.407 -0.5664  0.0169 -0.2569
  374MOL0     C49281  -1.196   3.328   7.202  0.6584 -0.3101  0.0715
  374MOL0     C49282  -1.067   3.351   7.232 -0.2825  0.6553 -0.4152
  374MOL0     O49283  -0.845   3.365   7.568 -0.3169 -0.0399  0.6576
  374MOL0     C49284  -0.582   3.416   7.547 -1.0129  0.4768 -0.0614
  374MOL0     C49285  -0.455   3.481   7.554 -0.0107  0.6219 -0.6616
  374MOL0     N49286   0.025   3.663   7.045  0.4240  0.7936 -0.7793
  374MOL0     N49287   0.127   3.659   6.969 -0.1625  1.1934  0.1479
  374MOL0     C49288   1.389   3.536   6.623  0.5034  0.6277  0.0204
  374MOL0     C49289   1.503   3.505   6.555 -0.5883  0.5447  0.2937
  374MOL0     C49290   1.885   3.510   6.348  0.4216  0.4602  0.9400
  374MOL0     C49291   1.880   3.380   6.301  0.0079 -0.5633  0.1748
  374MOL0     C49292   1.983   3.313   6.247 -0.7114 -0.0733 -0.4255
  374MOL0     C49293   2.103   3.378   6.246 -1.0332  0.6360  0.9407
  374MOL0     O49294   2.219   3.312   6.207 -0.3543  0.4102 -0.0833
  374MOL0     C49295   2.304   3.265   6.309  0.4402 -0.4085  0.2535
  374MOL0     C49296   2.250   3.184   6.424 -0.8570  0.3280  0.0027
  374MOL0     C49297   2.212   3.045   6.379 -0.1332 -0.5190 -0.2250
  374MOL0     C49298   2.222   3.007   6.234 -0.9748  0.5032  0.4354
  374MOL0     C49299   2.172   2.872   6.222  0.8494  0.0651  0.6303
  374MOL0     C49300   2.129   2.759   6.219 -0.3148 -0.3034 -1.4249
  374MOL0     C49301   2.120   3.506   6.290 -0.0672 -1.1893  0.2130
  374MOL0     C49302   2.010   3.572   6.343 -0.3551 -0.6516 -0.1040
  374MOL0     H49303   1.527   3.747   6.334  1.7190 -1.9988 -1.2824
  374MOL0     H49304   1.315   3.824   6.451 -0.6064 -1.0979 -0.8942
  374MOL0     H49305   1.068   3.708   6.560  0.5904 -4.1241  2.1719
  374MOL0     H49306   1.147   3.870   6.602 -2.2686  0.6754 -0.7959
  374MOL0     H49307   0.962   3.893   6.717 -0.6051 -0.9207 -1.4469
  374MOL0     H49308   1.069   3.846   6.845 -0.1058  1.2369  0.4228
  374MOL0     H49309   0.974   3.602   6.804 -1.6974 -0.7494  3.1719
  374MOL0     H49310   0.866   3.685   6.693 -1.7223  0.8479  0.5423
  374MOL0     H49311   0.862   3.688   7.000 -2.3689 -2.0304  0.0757
  374MOL0     H49312   0.837   3.845   6.926 -1.5192 -0.3465  3.8908
  374MOL0     H49313   0.681   3.577   6.842  0.0362 -0.5699  2.6741
  374MOL0     H49314   0.641   3.747   6.795  0.0004 -1.0124 -1.9335
  374MOL0     H49315   0.594   3.796   7.021 -0.3699  0.4135 -2.3406
  374MOL0     H49316   0.640   3.624   7.073 -0.7208  0.6696  1.3742
  374MOL0     H49317   0.451   3.576   6.892  2.3255 -0.5762 -0.0493
  374MOL0     H49318   0.420   3.600   7.066 -0.3607 -0.6437 -0.3255
  374MOL0     H49319   0.338   3.789   6.850 -0.8667 -3.5325 -0.3978
  374MOL0     H49320   0.399   3.858   7.008  1.1896 -0.2517 -0.5669
  374MOL0     H49321   0.247   3.850   7.196 -0.8608 -1.5970  2.3876
  374MOL0     H49322  -0.138   3.700   7.252 -0.1488 -0.7488 -0.3049
  374MOL0     H49323  -0.058   3.850   7.297  0.8218 -0.2859  1.2747
  374MOL0     H49324   0.115   3.731   7.425 -0.9340  1.0353  0.7572
  374MOL0     H49325   0.030   3.581   7.388  1.4924  0.1914 -0.4422
  374MOL0     H49326  -0.027   3.698   7.632 -1.7296 -0.0878 -0.0194
  374MOL0     H49327  -0.108   3.806   7.525 -1.1739 -0.5319 -4.0414
  374MOL0     H49328  -0.229   3.624   7.646  0.7698 -2.4200  1.3016
  374MOL0     H49329  -0.157   3.505   7.538 -0.1483  0.0009  1.2685
  374MOL0     H49330  -0.487   3.676   7.272  0.3579 -0.4705 -0.0530
  374MOL0     H49331  -0.708   3.553   7.273  1.3091  1.9089  0.2138
  374MOL0     H49332  -1.067   3.478   7.536  0.0304  0.7070  0.0078
  374MOL0     H49333  -1.322   3.401   7.507 -1.7484 -1.5155 -2.1808
  374MOL0     H49334  -1.405   3.122   7.189 -2.6152 -2.6823  0.3765
  374MOL0     H49335  -1.438   3.266   7.106 -1.0860 -2.8896 -0.6550
  374MOL0     H49336  -1.635   3.133   7.123 -0.1366 -0.9167 -0.0508
  374MOL0     H49337  -1.662   3.275   7.234 -1.9105 -2.2312 -0.5108
  374MOL0     H49338  -1.595   3.137   7.424  3.1945 -0.8026 -0.7377
  374MOL0     H49339  -1.572   2.990   7.325 -0.4256 -0.1971 -1.9578
  374MOL0     H49340  -1.836   3.130   7.367 -1.3830 -1.1377 -2.0817
  374MOL0     H49341  -1.802   2.990   7.272  0.6156  0.0593  0.2594
  374MOL0     H49342  -1.792   3.003   7.578  1.8277  0.3632  0.4572
  374MOL0     H49343  -1.691   2.881   7.489 -0.5199 -1.1566  2.9206
  374MOL0     H49344  -1.900   2.798   7.578  1.7483 -0.1381  0.3590
  374MOL0     H49345  -1.882   2.776   7.397 -0.8699 -3.7874  3.2159
  374MOL0     H49346  -2.027   3.023   7.503  2.3775  0.8660 -0.8892
  374MOL0     H49347  -2.040   2.946   7.348 -3.4827  1.9094 -0.3579
  374MOL0     H49348  -2.246   2.875   7.477 -0.2111 -0.7328 -0.2437
  374MOL0     H49349  -2.154   2.820   7.612  2.3303  1.1434  0.3110
  374MOL0     H49350  -1.216   3.298   7.099  1.2993 -0.4795 -0.0093
  374MOL0     H49351  -0.991   3.332   7.156  0.7065 -2.1869  1.1405
  374MOL0     H49352  -0.611   3.345   7.625 -5.1147  0.3512 -1.4626
  374MOL0     H49353  -0.381   3.449   7.627  1.6192 -0.8287 -2.8117
  374MOL0     H49354   1.361   3.479   6.711  3.3138  1.3649  1.5072
  374MOL0     H49355   1.543   3.413   6.598  0.2475 -0.1432 -1.8341
  374MOL0     H49356   1.782   3.334   6.288 -1.0015  1.6224 -0.4297
  374MOL0     H49357   1.963   3.219   6.196  0.2952 -0.2619 -0.4787
  374MOL0     H49358   2.353   3.350   6.358  0.3248  0.1056 -0.5015
  374MOL0     H49359   2.384   3.210   6.258  0.3005  1.8542 -2.6935
  374MOL0     H49360   2.332   3.183   6.496  0.9610  0.5360 -1.9702
  374MOL0     H49361   2.163   3.237   6.465 -0.5617  2.1502 -1.5636
  374MOL0     H49362   2.108   3.042   6.414  0.9147  0.7952  3.4130
  374MOL0     H49363   2.261   2.974   6.446 -1.2697 -2.3926 -1.2686
  374MOL0     H49364   2.160   3.063   6.164 -2.3696  0.0416  1.2626
  374MOL0     H49365   2.322   3.014   6.191  0.1299 -2.5944  2.1817
  374MOL0     H49366   2.094   2.658   6.225 -1.2768 -0.0043  5.0154
  374MOL0     H49367   2.219   3.549   6.278 -1.1733  0.7228 -3.6385
  374MOL0     H49368   2.033   3.661   6.400  0.9940 -1.1943  0.2545
  375MOL0     O49369   1.604   6.936  11.320 -0.0569 -0.0186 -0.3192
  375MOL0     C49370   1.709   6.900  11.374  0.5439 -0.3351 -0.7599
  375MOL0     O49371   1.707   6.870  11.505 -0.7259  0.2776 -0.7316
  375MOL0     C49372   1.600   6.874  11.589 -0.8244 -0.6723  0.4679
  375MOL0     C49373   1.568   6.996  11.651  0.1094  1.1299 -0.0518
  375MOL0     C49374   1.456   6.993  11.735 -0.1693  0.0997 -0.2768
  375MOL0     C49375   1.368   6.886  11.760 -1.3238  0.4315  0.1329
  375MOL0     O49376   1.261   6.883  11.843 -0.0505 -0.6392  0.9413
  375MOL0     C49377   1.174   7.004  11.847 -0.9205  0.2369  0.0913
  375MOL0     C49378   1.071   6.998  11.955  0.6936  0.7879 -0.3590
  375MOL0     C49379   0.990   7.126  11.971 -0.7342 -1.0018  0.1342
  375MOL0     C49380   0.849   7.100  12.010 -0.4159 -0.2419 -0.2656
  375MOL0     C49381   0.759   7.228  12.001  0.7878 -0.8002 -0.2373
  375MOL0     C49382   0.803   7.337  12.114  0.7782  0.1549  0.2092
  375MOL0     C49383   0.722   7.462  12.118  0.6296 -0.2326  0.5917
  375MOL0     C49384   0.577   7.443  12.172 -0.3502  0.2928 -0.4061
  375MOL0     N49385   0.507   7.573  12.161 -0.1515  0.1042 -0.4024
  375MOL0     C49386   0.479   7.650  12.055  0.7550 -0.0395  0.5982
  375MOL0     C49387   0.441   7.774  12.089  0.3478 -0.3176 -1.0929
  375MOL0     C49388   0.397   7.886  12.002  0.1408 -0.5553 -0.7590
  375MOL0     C49389   0.264   7.932  12.050  0.2964  0.4278  0.0980
  375MOL0     C49390   0.167   7.817  12.051  0.4178  0.6874 -0.1534
  375MOL0     C49391   0.037   7.870  12.111 -0.1446  0.1030  0.1515
  375MOL0     O49392  -0.076   7.815  12.033  0.0536  0.3670 -0.8015
  375MOL0     C49393  -0.198   7.811  12.097  0.9121  0.1146  0.5988
  375MOL0     C49394  -0.240   7.869  12.219  0.1708 -1.2327  0.3014
  375MOL0     C49395  -0.372   7.838  12.269  0.1293 -0.2219 -0.2141
  375MOL0     C49396  -0.461   7.751  12.195 -0.1170 -0.2275  0.0458
  375MOL0     C49397  -0.599   7.712  12.252  0.6406  0.0749 -0.4288
  375MOL0     O49398  -0.659   7.792  12.344 -0.1099 -0.4418 -1.1343
  375MOL0     C49399  -0.757   7.734  12.419  0.3591  0.0491 -0.8570
  375MOL0     C49400  -0.726   7.628  12.507 -0.6155 -0.3228 -0.4308
  375MOL0     C49401  -0.826   7.563  12.585  0.1917  0.3073  0.1331
  375MOL0     C49402  -0.965   7.599  12.576 -0.2433  0.0137  0.1740
  375MOL0     O49403  -1.069   7.552  12.652 -0.2806  0.0043 -0.1067
  375MOL0     C49404  -1.039   7.454  12.751  0.6513  0.9396  0.3748
  375MOL0     C49405  -1.175   7.389  12.784 -0.7670  1.3810 -0.7583
  375MOL0     C49406  -1.294   7.472  12.779  0.0778 -0.5448  0.2729
  375MOL0     C49407  -1.413   7.386  12.805  0.3500 -0.6559  0.2990
  375MOL0     C49408  -1.534   7.480  12.836 -0.8197 -0.7297  0.1631
  375MOL0     C49409  -1.525   7.564  12.969 -0.5263  1.3176  0.7093
  375MOL0     C49410  -1.653   7.637  12.991 -1.1136  0.5091 -0.1458
  375MOL0     C49411  -1.649   7.730  13.110 -0.2475 -0.1908 -0.1509
  375MOL0    Cl49412  -1.664   7.630  13.258  1.0227  0.3926 -0.0522
  375MOL0     C49413  -0.989   7.706  12.491 -0.3093  0.2805  0.3810
  375MOL0     C49414  -0.891   7.775  12.419 -0.5701  0.1978 -0.0784
  375MOL0     O49415  -0.654   7.608  12.207  0.8529  0.3644 -0.1254
  375MOL0     C49416  -0.413   7.702  12.076  0.2044  0.2900 -0.3639
  375MOL0     C49417  -0.282   7.722  12.030  0.0863 -1.1383 -0.4351
  375MOL0     N49418   0.431   7.769  12.229 -0.0303  0.3785 -0.0963
  375MOL0     N49419   0.477   7.651  12.267  0.2449  0.5508  0.4872
  375MOL0     C49420   1.415   6.767  11.707  0.8309  0.6763  0.5415
  375MOL0     C49421   1.531   6.758  11.623  0.5494 -1.1943  0.0054
  375MOL0     C49422   1.838   6.881  11.303  0.0915  0.0428 -0.5852
  375MOL0     C49423   1.834   6.892  11.159 -0.5224  0.0740 -0.5683
  375MOL0     C49424   1.953   6.870  11.082  0.6809 -0.4274  0.8181
  375MOL0     C49425   2.072   6.849  11.145 -0.2006  0.1969 -0.5682
  375MOL0     O49426   2.202   6.848  11.099 -0.5428 -1.1385  0.2558
  375MOL0     C49427   2.228   6.882  10.965 -0.3601 -1.0088 -0.1748
  375MOL0     C49428   2.378   6.871  10.940 -0.6770 -0.1282 -0.0434
  375MOL0     C49429   2.463   6.955  11.037 -0.2291  0.3061  0.6296
  375MOL0     C49430   2.606   6.890  11.042  0.1052 -0.4144 -0.1613
  375MOL0     C49431   2.604   6.778  11.130 -0.4425 -0.0449  0.3480
  375MOL0     C49432   2.595   6.690  11.218  1.6547 -0.2880  0.1359
  375MOL0     C49433   2.069   6.847  11.278 -1.0796 -0.8245  0.5446
  375MOL0     C49434   1.964   6.851  11.362  0.4640  0.0757  0.4309
  375MOL0     H49435   1.633   7.083  11.644  0.2106  0.9676 -1.3503
  375MOL0     H49436   1.446   7.080  11.798  2.1144 -0.6662  1.2574
  375MOL0     H49437   1.118   7.021  11.754 -2.4484  0.8274  1.0917
  375MOL0     H49438   1.240   7.085  11.876 -2.1171  1.4248 -0.4062
  375MOL0     H49439   1.118   6.965  12.048 -0.1349 -1.3946 -0.6536
  375MOL0     H49440   1.002   6.918  11.928 -5.4842  3.3033  5.1966
  375MOL0     H49441   1.009   7.188  11.883  1.3877 -1.9679 -0.1481
  375MOL0     H49442   1.035   7.182  12.053 -0.6226 -3.2170  1.6816
  375MOL0     H49443   0.803   7.017  11.955  0.4588 -1.4478  0.7758
  375MOL0     H49444   0.848   7.057  12.111  2.3645  0.2038  0.0289
  375MOL0     H49445   0.656   7.191  12.008  0.5491 -0.7050 -2.5354
  375MOL0     H49446   0.780   7.279  11.906  3.0945  1.4303  1.3218
  375MOL0     H49447   0.902   7.374  12.085 -0.5487  1.6726 -2.8659
  375MOL0     H49448   0.793   7.291  12.213  0.4370  1.3443  0.7436
  375MOL0     H49449   0.769   7.538  12.180 -0.5509  2.7510 -1.8886
  375MOL0     H49450   0.728   7.500  12.015  1.6965 -2.6256 -0.2939
  375MOL0     H49451   0.579   7.408  12.276 -1.1247 -0.2057 -0.5444
  375MOL0     H49452   0.526   7.368  12.111  0.0322 -3.0230  2.9508
  375MOL0     H49453   0.489   7.617  11.952 -0.2982  0.8754  0.1858
  375MOL0     H49454   0.384   7.846  11.901  0.3989  0.0201 -1.0215
  375MOL0     H49455   0.462   7.972  11.982 -0.1003 -0.0812  0.4100
  375MOL0     H49456   0.227   8.014  11.989 -0.0251  0.8184  0.8143
  375MOL0     H49457   0.280   7.976  12.149 -1.1575 -1.8308  1.4265
  375MOL0     H49458   0.143   7.787  11.949 -1.4020  3.8227 -0.7895
  375MOL0     H49459   0.196   7.733  12.115 -0.3542 -0.8537 -1.7477
  375MOL0     H49460   0.035   7.979  12.099 -0.8585  0.4270  2.6628
  375MOL0     H49461   0.038   7.837  12.215  0.5015  0.2788  0.2048
  375MOL0     H49462  -0.180   7.936  12.280  0.9586 -0.3553 -1.3660
  375MOL0     H49463  -0.403   7.877  12.366 -2.2459 -0.4261 -0.8276
  375MOL0     H49464  -0.627   7.591  12.486  0.5794  2.9830 -1.2574
  375MOL0     H49465  -0.790   7.480  12.645  0.0952  0.0639 -0.1463
  375MOL0     H49466  -1.004   7.495  12.846 -1.7686  0.5440  1.5073
  375MOL0     H49467  -0.962   7.389  12.709  0.4297  1.9958 -1.8319
  375MOL0     H49468  -1.164   7.349  12.885  1.8646 -0.0293 -1.5031
  375MOL0     H49469  -1.193   7.306  12.714 -0.2628  1.7305 -1.3166
  375MOL0     H49470  -1.306   7.528  12.686  0.8336  0.4759  0.7588
  375MOL0     H49471  -1.273   7.547  12.857  2.0087  0.6875 -1.3316
  375MOL0     H49472  -1.439   7.329  12.714 -0.3893 -0.5358  0.4267
  375MOL0     H49473  -1.397   7.310  12.882  1.7975 -0.0322  0.6351
  375MOL0     H49474  -1.622   7.416  12.849 -2.0752  0.8139 -0.3086
  375MOL0     H49475  -1.555   7.559  12.763 -0.2257 -0.3449  0.4024
  375MOL0     H49476  -1.433   7.622  12.970  0.4815 -0.1773  2.3193
  375MOL0     H49477  -1.510   7.490  13.048 -0.9077  3.6015  3.0650
  375MOL0     H49478  -1.667   7.696  12.899  0.8315  1.9090  0.3927
  375MOL0     H49479  -1.743   7.576  12.999 -0.3183 -0.5962  0.4598
  375MOL0     H49480  -1.736   7.796  13.107  0.0520  0.3725  1.7627
  375MOL0     H49481  -1.559   7.793  13.112 -0.8753  0.7882 -1.1666
  375MOL0     H49482  -1.089   7.747  12.489 -0.7377 -0.7354 -0.7992
  375MOL0     H49483  -0.914   7.857  12.353 -2.1380  0.2567  0.5155
  375MOL0     H49484  -0.472   7.643  12.006  0.4214 -1.0933  0.5868
  375MOL0     H49485  -0.246   7.682  11.936 -1.0666  0.0940 -1.4449
  375MOL0     H49486   1.362   6.677  11.737  0.7182  0.4969 -0.1764
  375MOL0     H49487   1.554   6.661  11.580  0.0208 -1.7746  0.9924
  375MOL0     H49488   1.730   6.895  11.128 -1.1278 -2.5902  0.8868
  375MOL0     H49489   1.946   6.878  10.973 -0.0960 -0.0066  0.8909
  375MOL0     H49490   2.193   6.985  10.951 -0.6126 -1.0390  0.2082
  375MOL0     H49491   2.183   6.807  10.900  3.0985 -1.5032 -2.2755
  375MOL0     H49492   2.413   6.768  10.941  2.2781  0.6376  3.9059
  375MOL0     H49493   2.410   6.907  10.842  0.7425 -1.4157 -0.0882
  375MOL0     H49494   2.422   6.958  11.138 -2.2601  2.3383 -0.1654
  375MOL0     H49495   2.474   7.058  11.001 -0.4696  0.1830  0.1933
  375MOL0     H49496   2.650   6.853  10.949 -0.6448 -0.3652 -0.5407
  375MOL0     H49497   2.669   6.965  11.090  0.2948 -0.2398 -0.6803
  375MOL0     H49498   2.587   6.626  11.303  3.9564 -2.3934 -1.0712
  375MOL0     H49499   2.164   6.832  11.327 -1.0250  0.7122  0.9389
  375MOL0     H49500   1.973   6.828  11.467 -1.8716 -0.9036  0.4768
  376MOL0     O49501   4.675   6.271   0.223 -0.1163  0.3146  0.4432
  376MOL0     C49502   4.745   6.169   0.189  0.1988 -0.0859 -0.2494
  376MOL0     O49503   4.692   6.041   0.195 -0.1323 -0.0041  1.0174
  376MOL0     C49504   4.558   6.025   0.208  0.5713 -0.0601 -0.0833
  376MOL0     C49505   4.518   5.933   0.309  0.4354 -0.1570  0.0577
  376MOL0     C49506   4.390   5.885   0.316  0.1885 -0.5255 -0.3331
  376MOL0     C49507   4.288   5.940   0.231  0.6226  0.2264  0.1836
  376MOL0     O49508   4.157   5.896   0.231  0.4059 -0.3719  0.3409
  376MOL0     C49509   4.055   5.986   0.276 -0.3449 -0.7145  0.6268
  376MOL0     C49510   3.990   6.078   0.165 -0.3162 -0.4564  0.2784
  376MOL0     C49511   3.926   5.993   0.050  0.4439  0.3018 -0.3288
  376MOL0     C49512   3.796   5.930   0.093  0.2241  0.5054 -1.0072
  376MOL0     C49513   3.682   6.023   0.125  0.1206  0.4697  0.0342
  376MOL0     C49514   3.546   5.945   0.097 -0.1676  0.0591  0.1202
  376MOL0     C49515   3.424   6.019   0.168  0.0189  0.7664 -0.1763
  376MOL0     C49516   3.361   6.133   0.091 -0.1430 -0.7363  0.2305
  376MOL0     N49517   3.223   6.168   0.153  0.3994  0.1731 -0.6046
  376MOL0     C49518   3.184   6.263   0.251  0.0190  0.6438  0.7643
  376MOL0     C49519   3.053   6.234   0.285 -0.8935  0.1536  0.5031
  376MOL0     C49520   2.970   6.294   0.383  0.2771 -0.3502 -0.1628
  376MOL0     C49521   2.822   6.292   0.369  0.4455  0.7238  0.0480
  376MOL0     C49522   2.750   6.366   0.244 -0.4934  0.4042  0.2587
  376MOL0     C49523   2.603   6.342   0.264  0.4754 -0.9276  0.9334
  376MOL0     O49524   2.530   6.438   0.181  1.1273 -0.3154  0.7661
  376MOL0     C49525   2.388   6.439   0.196 -0.9943 -0.3102 -0.7928
  376MOL0     C49526   2.318   6.378   0.301  0.2390  0.4219 -0.2703
  376MOL0     C49527   2.180   6.384   0.314 -0.3550  0.3507 -0.1585
  376MOL0     C49528   2.102   6.452   0.226 -1.2963 -0.2755 -0.3929
  376MOL0     C49529   1.957   6.469   0.241  0.4432  0.3013  0.3870
  376MOL0     O49530   1.920   6.435   0.370  0.1828 -0.2890  0.1106
  376MOL0     C49531   1.794   6.440   0.411 -0.3924  0.0424 -1.2364
  376MOL0     C49532   1.774   6.496   0.545 -0.7250  1.6032  0.3914
  376MOL0     C49533   1.651   6.501   0.594 -0.2439  0.3515 -0.6049
  376MOL0     C49534   1.538   6.460   0.528 -0.0457 -0.3375  1.0197
  376MOL0     O49535   1.413   6.454   0.588 -0.0912 -0.5405 -0.1773
  376MOL0     C49536   1.404   6.478   0.732  0.2953 -0.3984  0.3552
  376MOL0     C49537   1.258   6.464   0.767  1.1243  0.3347  0.2735
  376MOL0     C49538   1.256   6.446   0.922 -0.8907 -0.0393  0.3736
  376MOL0     C49539   1.120   6.454   0.988 -0.2893  0.5561 -0.3033
  376MOL0     C49540   1.021   6.346   0.951  0.6059 -0.1720  0.8629
  376MOL0     C49541   0.896   6.334   1.042 -0.0009 -0.2720 -0.0726
  376MOL0     C49542   0.783   6.431   1.033  0.2678  0.1204 -0.6344
  376MOL0     C49543   0.821   6.566   1.099 -0.0479  0.2031  0.6003
  376MOL0    Cl49544   0.677   6.677   1.125  0.4218 -0.0814 -0.1701
  376MOL0     C49545   1.559   6.408   0.395  0.3613  0.2933  0.1030
  376MOL0     C49546   1.684   6.396   0.337  0.3877  0.0443  0.8454
  376MOL0     O49547   1.887   6.511   0.152  0.2692  0.5658 -0.0708
  376MOL0     C49548   2.169   6.506   0.113 -0.4162  0.6599 -0.3001
  376MOL0     C49549   2.307   6.510   0.104  0.0779  0.8597 -0.0250
  376MOL0     N49550   3.012   6.132   0.210 -0.0905 -0.0713  0.2333
  376MOL0     N49551   3.107   6.098   0.128  0.0157  0.6768  0.6496
  376MOL0     C49552   4.327   6.023   0.125 -0.8386 -0.1763  0.4690
  376MOL0     C49553   4.466   6.063   0.106 -0.1929  0.2201 -0.0320
  376MOL0     C49554   4.892   6.175   0.181  0.0299  0.2532 -1.4207
  376MOL0     C49555   4.962   6.058   0.211  0.0943  0.0052  0.0578
  376MOL0     C49556   5.099   6.051   0.192  0.2070 -0.0478  0.5339
  376MOL0     C49557   5.167   6.167   0.143  0.1288 -0.7489  0.3599
  376MOL0     O49558   5.302   6.174   0.114  0.8341  0.6966 -0.4580
  376MOL0     C49559   5.380   6.053   0.139 -1.0698  0.9588 -0.8075
  376MOL0     C49560   5.522   6.056   0.090  0.8770 -0.0216  0.3496
  376MOL0     C49561   5.607   6.156   0.159  0.5515 -0.9407  0.3742
  376MOL0     C49562   5.591   6.301   0.112  0.5237 -0.1555  0.3543
  376MOL0     C49563   5.720   6.375   0.108 -0.0496 -0.3775 -0.4276
  376MOL0     C49564   5.822   6.441   0.089  0.2796  0.5449  0.2532
  376MOL0     C49565   5.095   6.286   0.115  0.2281  1.1697 -0.0513
  376MOL0     C49566   4.960   6.284   0.124 -0.4029 -0.4552 -0.6794
  376MOL0     H49567   4.598   5.924   0.382  1.6184  2.2677 -0.8521
  376MOL0     H49568   4.344   5.819   0.389 -0.0806 -2.9080 -2.4874
  376MOL0     H49569   4.082   6.040   0.367 -2.4272 -0.2044  0.9824
  376MOL0     H49570   3.970   5.930   0.315 -1.0760  0.8076  1.3145
  376MOL0     H49571   4.064   6.155   0.142 -0.7304  0.3991  1.6332
  376MOL0     H49572   3.905   6.136   0.203 -0.8845 -0.6606 -0.6572
  376MOL0     H49573   3.995   5.914   0.019 -0.7227 -0.3679 -1.2737
  376MOL0     H49574   3.915   6.053  -0.041 -0.2420 -0.0626 -0.4973
  376MOL0     H49575   3.759   5.858   0.019  0.1227 -0.3546 -0.1435
  376MOL0     H49576   3.816   5.871   0.183  2.7311  3.0876  0.3124
  376MOL0     H49577   3.687   6.108   0.056  1.5683  0.3539 -0.0272
  376MOL0     H49578   3.705   6.051   0.228 -1.3993 -2.5714  1.3405
  376MOL0     H49579   3.566   5.845   0.137 -3.3116 -2.1873 -3.2571
  376MOL0     H49580   3.532   5.930  -0.010 -1.9766  0.9975  0.1912
  376MOL0     H49581   3.349   5.946   0.199 -1.0458  2.9335  2.8917
  376MOL0     H49582   3.463   6.057   0.263 -0.7420 -1.2638  1.0102
  376MOL0     H49583   3.347   6.113  -0.016 -0.7660  0.2200  0.1164
  376MOL0     H49584   3.429   6.217   0.105  0.7183 -1.6787  1.9295
  376MOL0     H49585   3.233   6.352   0.288  1.3907  1.5605 -2.8022
  376MOL0     H49586   2.995   6.400   0.393  1.0796 -0.5152 -0.3346
  376MOL0     H49587   2.998   6.258   0.482  1.3358  2.6982  0.7868
  376MOL0     H49588   2.786   6.346   0.457 -0.3386  1.2500 -0.5778
  376MOL0     H49589   2.796   6.188   0.390  0.1218  0.9727  0.9269
  376MOL0     H49590   2.776   6.472   0.252 -2.6216  0.8649  1.7671
  376MOL0     H49591   2.787   6.325   0.149 -2.9752 -2.0369  0.1927
  376MOL0     H49592   2.580   6.345   0.371 -1.0888 -2.6625  0.7086
  376MOL0     H49593   2.585   6.238   0.236 -2.1056 -0.1516 -0.5918
  376MOL0     H49594   2.371   6.305   0.361 -0.9694 -0.7174 -0.5602
  376MOL0     H49595   2.141   6.323   0.395 -0.4071  0.7320  0.1040
  376MOL0     H49596   1.869   6.520   0.592 -1.8416  1.6000  2.7860
  376MOL0     H49597   1.651   6.536   0.696  1.3900  0.7361 -0.7038
  376MOL0     H49598   1.443   6.575   0.762 -0.9555  0.5427 -0.9495
  376MOL0     H49599   1.461   6.398   0.782  1.1169 -1.3030 -1.8982
  376MOL0     H49600   1.207   6.379   0.719 -0.4193  1.4673 -0.1776
  376MOL0     H49601   1.212   6.557   0.733 -1.1457  0.9297  4.3296
  376MOL0     H49602   1.320   6.522   0.966 -1.1351  1.1316 -1.1953
  376MOL0     H49603   1.291   6.344   0.940  0.4059  0.2833 -0.2044
  376MOL0     H49604   1.155   6.463   1.092 -0.6588 -0.0441 -0.1263
  376MOL0     H49605   1.077   6.549   0.953  1.8856  0.8388 -2.4197
  376MOL0     H49606   1.080   6.255   0.954 -1.2311 -1.4255  0.6743
  376MOL0     H49607   0.991   6.363   0.848 -0.9924 -1.8602  0.9937
  376MOL0     H49608   0.940   6.333   1.143  1.3990  5.9989 -0.2029
  376MOL0     H49609   0.845   6.238   1.028 -1.4379 -0.1855  3.3947
  376MOL0     H49610   0.752   6.439   0.928 -4.2232 -1.1368  0.3477
  376MOL0     H49611   0.694   6.396   1.086  3.2832 -1.3402  4.0931
  376MOL0     H49612   0.900   6.606   1.035 -1.2866 -0.8812 -1.7570
  376MOL0     H49613   0.862   6.558   1.200 -1.2704  1.6457  1.2446
  376MOL0     H49614   1.471   6.370   0.343  1.2996  0.6805 -1.8362
  376MOL0     H49615   1.694   6.340   0.245  0.4181 -0.6926  1.2892
  376MOL0     H49616   2.107   6.553   0.038  1.2192 -0.2932 -2.3630
  376MOL0     H49617   2.354   6.564   0.022 -1.1621 -0.3261 -1.5780
  376MOL0     H49618   4.262   6.057   0.046  2.6052  0.7568 -2.2279
  376MOL0     H49619   4.496   6.126   0.022  0.7970  0.5900  0.5887
  376MOL0     H49620   4.910   5.973   0.253 -2.1085  0.8869 -0.6882
  376MOL0     H49621   5.155   5.959   0.208  2.5590  1.6309  2.8511
  376MOL0     H49622   5.334   5.966   0.091 -2.7349 -0.1202  2.4274
  376MOL0     H49623   5.383   6.036   0.247 -1.8359  0.4138 -0.8629
  376MOL0     H49624   5.571   5.960   0.106 -1.4378 -1.4393 -0.4555
  376MOL0     H49625   5.521   6.056  -0.020  1.2497  2.3697  0.2830
  376MOL0     H49626   5.706   6.126   0.123 -0.3875 -0.1243 -3.4269
  376MOL0     H49627   5.595   6.150   0.267  0.9478 -1.1223  0.4110
  376MOL0     H49628   5.546   6.304   0.012 -0.6744 -0.0961  0.8815
  376MOL0     H49629   5.515   6.352   0.172 -1.0425  1.2032 -2.5766
  376MOL0     H49630   5.910   6.486   0.047  0.7318 -0.4161  0.1343
  376MOL0     H49631   5.133   6.374   0.064 -0.8228  0.1744 -2.7211
  376MOL0     H49632   4.896   6.365   0.090  0.4401  0.8862  0.8366
  377MOL0     O49633   2.047  10.283   4.505 -0.0001 -0.3806  0.0619
  377MOL0     C49634   1.981  10.250   4.411  1.1121  0.1387  0.0552
  377MOL0     O49635   2.026  10.229   4.279  0.5562 -0.3465  0.0009
  377MOL0     C49636   2.153  10.280   4.251  0.7972 -0.8302  0.7363
  377MOL0     C49637   2.159  10.421   4.242 -0.2655  0.2543 -0.2135
  377MOL0     C49638   2.271  10.487   4.189 -0.5209  0.3102 -0.3078
  377MOL0     C49639   2.381  10.409   4.145  0.6570 -0.5175 -0.5165
  377MOL0     O49640   2.499  10.464   4.114 -0.6120 -0.6280 -0.3216
  377MOL0     C49641   2.574  10.487   4.229  0.0470  0.3970  0.5472
  377MOL0     C49642   2.702  10.570   4.193 -0.3195 -0.1961 -0.9629
  377MOL0     C49643   2.793  10.492   4.095  0.8371 -0.5937  0.2431
  377MOL0     C49644   2.867  10.382   4.174 -0.7840 -0.7303 -0.3403
  377MOL0     C49645   2.966  10.306   4.085  0.2173  0.0565 -0.4974
  377MOL0     C49646   3.035  10.205   4.173  0.4523 -1.2662 -0.5758
  377MOL0     C49647   3.119  10.115   4.081 -0.0169  0.1130 -0.5946
  377MOL0     C49648   3.134   9.980   4.151 -0.7202 -0.1479  1.1159
  377MOL0     N49649   3.248   9.897   4.101  0.1883 -0.3367  0.2086
  377MOL0     C49650   3.276   9.777   4.155 -0.0735  0.8597 -0.0073
  377MOL0     C49651   3.412   9.751   4.129  0.2903  0.7513  0.3799
  377MOL0     C49652   3.485   9.627   4.173  0.8376 -0.0153  0.6716
  377MOL0     C49653   3.520   9.641   4.315  0.0980  0.4396 -0.8065
  377MOL0     C49654   3.564   9.506   4.372  0.2794  0.5766  0.5634
  377MOL0     C49655   3.446   9.438   4.457 -0.6997  0.4127 -0.0632
  377MOL0     O49656   3.322   9.436   4.381 -0.1376 -0.2217 -0.7008
  377MOL0     C49657   3.200   9.459   4.448 -0.5989 -0.1800  0.1072
  377MOL0     C49658   3.194   9.470   4.585  1.1658  0.0472 -0.6555
  377MOL0     C49659   3.061   9.480   4.641 -0.9324 -0.2446 -0.7587
  377MOL0     C49660   2.949   9.477   4.561  0.6542 -0.5113  0.2183
  377MOL0     C49661   2.812   9.470   4.619 -0.5558  0.2552 -0.3370
  377MOL0     O49662   2.806   9.504   4.756  0.1942  0.3255 -0.3407
  377MOL0     C49663   2.678   9.520   4.804 -0.1423 -1.0107 -0.4232
  377MOL0     C49664   2.618   9.434   4.898  0.1476  0.1137  0.1398
  377MOL0     C49665   2.485   9.451   4.944 -0.4872  0.6992  0.0621
  377MOL0     C49666   2.416   9.559   4.899  0.5395 -0.7865 -0.8665
  377MOL0     O49667   2.287   9.566   4.950  0.5658  0.3898 -0.4451
  377MOL0     C49668   2.194   9.620   4.852 -0.1053 -0.0253 -0.3436
  377MOL0     C49669   2.052   9.593   4.915  0.1257  0.9380  1.7056
  377MOL0     C49670   1.938   9.650   4.833 -0.9500 -0.1754  0.0358
  377MOL0     C49671   1.802   9.602   4.878 -0.4951 -0.0199  0.0771
  377MOL0     C49672   1.680   9.652   4.803  0.3949 -0.5437 -0.1001
  377MOL0     C49673   1.669   9.608   4.660 -0.8005 -0.1940 -0.4314
  377MOL0     C49674   1.552   9.661   4.584  0.5262 -0.4746 -0.7017
  377MOL0     C49675   1.574   9.802   4.521 -0.1610  0.7152 -0.9789
  377MOL0    Cl49676   1.701   9.793   4.409 -0.3897  0.2412  0.7566
  377MOL0     C49677   2.477   9.660   4.817 -0.5743 -0.5584  0.1257
  377MOL0     C49678   2.610   9.640   4.767 -0.5400  0.0231 -0.6654
  377MOL0     O49679   2.715   9.433   4.551  0.5027 -0.0903 -0.1278
  377MOL0     C49680   2.972   9.482   4.430  0.0668 -0.5784  0.1790
  377MOL0     C49681   3.089   9.470   4.365  0.2356  0.4492 -0.6198
  377MOL0     N49682   3.452   9.847   4.046 -0.5722  0.0640  0.5283
  377MOL0     N49683   3.354   9.929   4.025  0.0829 -0.1913  0.5442
  377MOL0     C49684   2.374  10.274   4.142 -0.3199 -0.1213 -0.9104
  377MOL0     C49685   2.256  10.210   4.191 -0.4368  0.3332 -0.4129
  377MOL0     C49686   1.840  10.220   4.451 -0.7989 -0.2033 -1.0086
  377MOL0     C49687   1.783  10.262   4.576  0.6558  0.3736  0.1236
  377MOL0     C49688   1.650  10.240   4.604 -0.9890 -0.7081 -0.2587
  377MOL0     C49689   1.575  10.164   4.513 -0.3133 -0.4068 -0.1476
  377MOL0     O49690   1.440  10.135   4.544 -0.3264 -0.3946  0.1939
  377MOL0     C49691   1.401  10.111   4.684  0.2852 -0.0606 -0.2699
  377MOL0     C49692   1.268  10.034   4.673  0.1796 -0.7043 -0.3408
  377MOL0     C49693   1.195  10.017   4.820  0.3305 -0.6028  0.1999
  377MOL0     C49694   1.229   9.883   4.881  0.8672 -0.5445  0.5268
  377MOL0     C49695   1.141   9.778   4.837  0.1856  0.0430 -0.2437
  377MOL0     C49696   1.068   9.685   4.805 -0.9473 -0.3460 -0.7249
  377MOL0     C49697   1.634  10.115   4.405 -0.4814 -0.0536 -0.0800
  377MOL0     C49698   1.767  10.135   4.371 -0.4362  0.7811 -0.0443
  377MOL0     H49699   2.075  10.470   4.289 -0.2535  0.7031 -0.6453
  377MOL0     H49700   2.259  10.594   4.179 -0.0021  0.2822 -1.3739
  377MOL0     H49701   2.597  10.396   4.285  0.7873 -0.0099 -0.3996
  377MOL0     H49702   2.511  10.561   4.280  0.0369  0.6184  0.2204
  377MOL0     H49703   2.760  10.587   4.284 -2.3257  2.2890 -0.0299
  377MOL0     H49704   2.670  10.666   4.152 -1.1916  0.9074  2.0638
  377MOL0     H49705   2.862  10.557   4.040  0.2958 -0.2740 -0.0613
  377MOL0     H49706   2.726  10.448   4.020  0.1829  4.4763 -2.5525
  377MOL0     H49707   2.930  10.436   4.245 -1.0124 -0.2810 -0.4723
  377MOL0     H49708   2.799  10.314   4.227 -1.0664  1.6844  2.7011
  377MOL0     H49709   3.034  10.370   4.028 -0.8943  0.5326 -1.3472
  377MOL0     H49710   2.911  10.243   4.015 -1.2195  0.2487  0.4068
  377MOL0     H49711   2.960  10.156   4.236  0.2114  1.8234  1.7677
  377MOL0     H49712   3.103  10.256   4.242 -0.6002  1.1620 -1.2437
  377MOL0     H49713   3.069  10.085   3.989  1.2412  0.6403 -1.4866
  377MOL0     H49714   3.217  10.159   4.059  1.3230 -2.4445 -0.0989
  377MOL0     H49715   3.041   9.925   4.131  0.0872 -0.9451 -0.6301
  377MOL0     H49716   3.127   9.985   4.260 -3.6791 -0.7567  1.0478
  377MOL0     H49717   3.203   9.704   4.188  1.3966 -1.1111 -0.8905
  377MOL0     H49718   3.581   9.618   4.122  1.5825  0.7408  1.8831
  377MOL0     H49719   3.417   9.542   4.159 -0.9294  1.5304 -0.5847
  377MOL0     H49720   3.440   9.672   4.383  2.1187 -1.3012  2.5779
  377MOL0     H49721   3.605   9.709   4.329  1.1846 -1.1033  0.3379
  377MOL0     H49722   3.574   9.434   4.291  3.1169 -2.1106  2.9967
  377MOL0     H49723   3.649   9.514   4.441 -1.0305 -1.7946  2.6083
  377MOL0     H49724   3.440   9.494   4.550 -3.6139 -0.8554  0.6109
  377MOL0     H49725   3.462   9.331   4.473 -3.1146  0.0833  0.5717
  377MOL0     H49726   3.277   9.439   4.648  1.1525 -0.5877 -0.9504
  377MOL0     H49727   3.056   9.470   4.749 -0.5922  0.7830 -0.6379
  377MOL0     H49728   2.676   9.349   4.933 -1.7520 -1.1699  0.2574
  377MOL0     H49729   2.450   9.377   5.016  3.3323  0.2158  1.6680
  377MOL0     H49730   2.197   9.577   4.752 -2.5113 -1.4147  0.1101
  377MOL0     H49731   2.224   9.725   4.844  1.1296 -0.2834  0.5346
  377MOL0     H49732   2.052   9.617   5.022 -2.4388  1.0243  1.7435
  377MOL0     H49733   2.039   9.486   4.896  0.8302  1.0949  0.1135
  377MOL0     H49734   1.937   9.608   4.732 -1.4772 -0.8639  0.3211
  377MOL0     H49735   1.949   9.759   4.832  0.4897 -0.2975 -1.0729
  377MOL0     H49736   1.785   9.494   4.874 -2.7907  0.2883  0.2608
  377MOL0     H49737   1.800   9.617   4.986 -1.2849  1.0084 -0.0751
  377MOL0     H49738   1.670   9.761   4.805 -5.1613 -0.7760  0.8684
  377MOL0     H49739   1.590   9.618   4.855  0.0946 -0.1041 -0.3243
  377MOL0     H49740   1.647   9.501   4.660 -0.4974 -0.2955 -2.7535
  377MOL0     H49741   1.762   9.635   4.609 -0.3309 -1.9225 -0.5540
  377MOL0     H49742   1.528   9.603   4.495  2.2225  2.2885 -3.1278
  377MOL0     H49743   1.460   9.656   4.644  0.8839 -1.3120 -0.2054
  377MOL0     H49744   1.596   9.883   4.591  0.5017 -1.4114  1.4307
  377MOL0     H49745   1.479   9.824   4.471 -2.3078  1.6005  3.0786
  377MOL0     H49746   2.438   9.755   4.784 -0.2367 -0.9971 -1.7006
  377MOL0     H49747   2.664   9.715   4.711  1.0576 -1.7595 -1.6420
  377MOL0     H49748   2.877   9.493   4.378  0.1297 -0.3505  0.1125
  377MOL0     H49749   3.092   9.470   4.256  0.4342 -0.3499 -0.6192
  377MOL0     H49750   2.461  10.217   4.109  0.5434  1.8033 -2.1309
  377MOL0     H49751   2.254  10.102   4.206  0.8345  0.4908  1.1021
  377MOL0     H49752   1.854  10.298   4.651  1.8392 -4.7728  1.8961
  377MOL0     H49753   1.597  10.270   4.694 -3.0500  1.5289 -2.0677
  377MOL0     H49754   1.384  10.209   4.730 -0.1843 -0.7471  1.0629
  377MOL0     H49755   1.482  10.046   4.717 -1.7322 -1.6646  1.7743
  377MOL0     H49756   1.194  10.066   4.599  1.7846  0.7783 -1.3632
  377MOL0     H49757   1.304   9.932   4.654  0.9624 -1.1438  2.8834
  377MOL0     H49758   1.087  10.026   4.801  0.1648 -0.6620  1.0840
  377MOL0     H49759   1.236  10.095   4.885 -0.8609 -0.2312  0.5326
  377MOL0     H49760   1.335   9.864   4.860  1.0941  1.6432 -0.5221
  377MOL0     H49761   1.217   9.888   4.990 -1.0755 -0.6325  0.3504
  377MOL0     H49762   1.023   9.595   4.769 -1.1226 -0.0130 -1.3483
  377MOL0     H49763   1.591  10.048   4.330 -0.1542  2.6103 -2.8577
  377MOL0     H49764   1.798  10.094   4.276  0.4383  0.2531  0.4596
  378MOL0     O49765   5.375   3.121   2.417 -0.0990  0.4490  0.2858
  378MOL0     C49766   5.380   2.994   2.409  0.6457  0.5983  0.3686
  378MOL0     O49767   5.489   2.923   2.362 -0.0914  0.1988 -0.3454
  378MOL0     C49768   5.603   2.974   2.306  0.1475 -0.5649 -0.4306
  378MOL0     C49769   5.676   2.882   2.232  0.6933  0.0154 -0.4414
  378MOL0     C49770   5.786   2.922   2.165  0.9466 -0.7178 -0.7882
  378MOL0     C49771   5.824   3.061   2.171  0.2184 -0.6023 -0.0969
  378MOL0     O49772   5.941   3.112   2.104  0.4889  0.5456 -0.4664
  378MOL0     C49773   5.957   3.083   1.964  0.7744  1.0092  0.1423
  378MOL0     C49774   6.064   2.971   1.926 -0.3065 -0.3507  0.5898
  378MOL0     C49775   6.209   3.014   1.959 -0.2720 -0.0346 -0.0428
  378MOL0     C49776   6.312   2.906   1.917 -0.0811  0.7469 -0.2153
  378MOL0     C49777   6.463   2.938   1.933  0.6671  0.9294 -0.6153
  378MOL0     C49778   6.524   3.037   1.833  0.9567  0.7151  0.2760
  378MOL0     C49779   6.686   3.010   1.824  1.3080 -0.5321 -0.3467
  378MOL0     C49780   6.725   2.899   1.732 -1.0011  0.0255  0.5401
  378MOL0     N49781   6.875   2.871   1.731  0.5808  0.0110  0.5334
  378MOL0     C49782   6.976   2.965   1.748 -0.6483  0.1264  0.3254
  378MOL0     C49783   7.090   2.891   1.744  0.2737  0.4770  0.4134
  378MOL0     C49784   7.235   2.939   1.769 -0.3243  0.5374 -0.1909
  378MOL0     C49785   7.299   2.879   1.888  0.2196 -0.3402 -0.8614
  378MOL0     C49786   7.277   2.965   2.018 -0.0252  0.2586 -0.5452
  378MOL0     C49787   7.143   3.006   2.062 -0.0194 -0.1727 -0.4290
  378MOL0     O49788   7.082   2.888   2.111 -0.0810 -1.0408 -0.9837
  378MOL0     C49789   6.954   2.886   2.138  0.8291 -1.3156 -0.9816
  378MOL0     C49790   6.878   2.983   2.212  0.4420  0.2020  0.6544
  378MOL0     C49791   6.738   2.980   2.231 -0.4148 -1.2298  0.3325
  378MOL0     C49792   6.672   2.863   2.193  0.5830  0.5105  0.4608
  378MOL0     C49793   6.537   2.833   2.237  0.5752 -0.6159 -0.4836
  378MOL0     O49794   6.467   2.732   2.188  0.4775  0.7125 -0.2580
  378MOL0     C49795   6.356   2.678   2.256 -0.0164  0.1543 -0.7073
  378MOL0     C49796   6.268   2.609   2.174 -0.8514  0.5407 -0.7420
  378MOL0     C49797   6.149   2.567   2.225  0.7934 -0.3856 -0.4228
  378MOL0     C49798   6.109   2.585   2.360  0.4455 -1.7114  0.4079
  378MOL0     O49799   5.992   2.533   2.404  0.8530 -0.7084 -0.2432
  378MOL0     C49800   5.924   2.611   2.503  0.0067  0.1777 -0.4388
  378MOL0     C49801   5.782   2.563   2.498  0.7421 -0.8868 -0.0451
  378MOL0     C49802   5.721   2.540   2.360  0.0415  0.5497 -0.2228
  378MOL0     C49803   5.574   2.492   2.357 -1.0133 -0.0294  0.1926
  378MOL0     C49804   5.505   2.525   2.223 -0.5039  0.3898  0.1213
  378MOL0     C49805   5.370   2.442   2.181 -0.6530  0.4594  0.2690
  378MOL0     C49806   5.256   2.472   2.277 -0.1580  0.0291  0.2610
  378MOL0     C49807   5.114   2.441   2.234  0.2613  0.4187 -0.6586
  378MOL0    Cl49808   5.107   2.259   2.224 -0.0216 -0.2630  0.3792
  378MOL0     C49809   6.206   2.644   2.450  0.3210 -0.5637 -0.7092
  378MOL0     C49810   6.327   2.694   2.397 -0.4163 -0.3502 -0.6905
  378MOL0     O49811   6.497   2.906   2.331  0.3707  0.6911 -0.0389
  378MOL0     C49812   6.751   2.764   2.117 -0.0269  0.5401 -1.5340
  378MOL0     C49813   6.884   2.774   2.093  0.4911 -0.6121 -0.0622
  378MOL0     N49814   7.063   2.761   1.706 -0.1560  0.3639  0.1158
  378MOL0     N49815   6.930   2.755   1.703 -1.0655  0.4685 -0.1655
  378MOL0     C49816   5.763   3.151   2.261 -0.2516  0.6459  0.3209
  378MOL0     C49817   5.653   3.108   2.327 -0.2227 -0.2912  0.1330
  378MOL0     C49818   5.270   2.905   2.465 -0.7601 -0.7607  0.7599
  378MOL0     C49819   5.165   2.962   2.532 -0.4593 -0.2841  0.9833
  378MOL0     C49820   5.065   2.886   2.605 -1.1229  0.5972 -0.7261
  378MOL0     C49821   5.082   2.742   2.606 -1.0834 -0.9463  0.1265
  378MOL0     O49822   5.000   2.664   2.681 -0.0424 -0.3114 -0.1925
  378MOL0     C49823   4.874   2.717   2.706 -0.0302 -1.4314 -1.6659
  378MOL0     C49824   4.779   2.597   2.732  0.1892  0.2545  0.4207
  378MOL0     C49825   4.772   2.517   2.610 -0.2943 -0.1988  0.7266
  378MOL0     C49826   4.648   2.448   2.592  0.1055  0.4289 -0.7097
  378MOL0     C49827   4.525   2.531   2.598  0.0019 -0.4155  0.1309
  378MOL0     C49828   4.423   2.602   2.603  0.6798  0.5623  0.5569
  378MOL0     C49829   5.182   2.679   2.538 -0.8964 -0.4389  0.5169
  378MOL0     C49830   5.269   2.766   2.458 -0.1940  1.0694 -0.5153
  378MOL0     H49831   5.627   2.785   2.230 -0.8156  0.7480 -1.7122
  378MOL0     H49832   5.845   2.848   2.111  3.5602  0.7896 -0.1760
  378MOL0     H49833   5.988   3.173   1.909  2.0992 -0.3044 -1.3736
  378MOL0     H49834   5.860   3.052   1.924  1.0216 -0.7366  0.8287
  378MOL0     H49835   6.053   2.936   1.823 -2.2801 -2.2565  1.3452
  378MOL0     H49836   6.037   2.882   1.985  0.3711 -0.8588  0.1518
  378MOL0     H49837   6.216   3.024   2.068  2.0336 -0.3499 -0.1043
  378MOL0     H49838   6.246   3.100   1.903  2.1902 -2.2395 -2.0645
  378MOL0     H49839   6.289   2.822   1.984 -0.9550  2.2384  1.4332
  378MOL0     H49840   6.287   2.884   1.812  0.3666  1.7400 -0.5388
  378MOL0     H49841   6.514   2.842   1.927 -0.0849  0.5311 -0.7391
  378MOL0     H49842   6.470   2.979   2.034 -0.5742  3.4863 -1.4549
  378MOL0     H49843   6.499   3.139   1.864  0.4013  0.7020 -0.1149
  378MOL0     H49844   6.475   3.033   1.735  1.7448 -0.4439 -0.0938
  378MOL0     H49845   6.742   3.099   1.795 -2.3824  1.5027 -1.9119
  378MOL0     H49846   6.703   2.979   1.928 -2.3965  1.4616  1.0293
  378MOL0     H49847   6.711   2.947   1.635 -0.1800  0.6085  0.6945
  378MOL0     H49848   6.660   2.812   1.745 -0.8110  0.1512  2.9129
  378MOL0     H49849   6.967   3.072   1.758 -3.1047  0.0750 -0.5585
  378MOL0     H49850   7.247   3.048   1.771  1.6932  0.3500  0.2978
  378MOL0     H49851   7.291   2.901   1.683  0.9357 -1.1406  1.3072
  378MOL0     H49852   7.408   2.875   1.874  0.7218  2.8938  1.0499
  378MOL0     H49853   7.252   2.784   1.912 -0.7705  0.8523  2.5289
  378MOL0     H49854   7.329   2.913   2.099 -0.9238 -2.3352 -1.5288
  378MOL0     H49855   7.343   3.051   2.001 -1.3866  1.2897 -0.8161
  378MOL0     H49856   7.091   3.057   1.980 -2.1366  1.3023  1.7009
  378MOL0     H49857   7.158   3.079   2.143  3.6354 -1.1374 -0.0318
  378MOL0     H49858   6.932   3.075   2.234  1.2224  0.8311 -3.2434
  378MOL0     H49859   6.686   3.068   2.269  1.0061 -0.7116  1.1243
  378MOL0     H49860   6.289   2.599   2.068  2.1211  1.4578 -0.3373
  378MOL0     H49861   6.082   2.505   2.168  0.1328  2.7324 -3.3603
  378MOL0     H49862   5.937   2.718   2.487  0.5198  0.3998  1.2920
  378MOL0     H49863   5.959   2.587   2.604  0.5267  3.7098  0.3465
  378MOL0     H49864   5.727   2.636   2.558  4.2932  1.9219  0.0683
  378MOL0     H49865   5.761   2.468   2.548  0.5067 -0.0037  1.5807
  378MOL0     H49866   5.779   2.475   2.294 -0.1039 -1.4046  1.4673
  378MOL0     H49867   5.723   2.638   2.312  0.6740  0.6436 -0.0191
  378MOL0     H49868   5.566   2.383   2.366  2.5501 -0.4736 -0.7460
  378MOL0     H49869   5.529   2.536   2.446  0.1258 -0.7959  1.1848
  378MOL0     H49870   5.577   2.509   2.143 -0.6120 -1.0157  0.2918
  378MOL0     H49871   5.473   2.630   2.221 -1.9659 -0.0418 -0.9638
  378MOL0     H49872   5.401   2.337   2.179  3.3637  1.3721 -4.2209
  378MOL0     H49873   5.335   2.470   2.082  0.7028 -2.0762 -1.0195
  378MOL0     H49874   5.267   2.429   2.377 -1.8526 -2.0998 -0.3838
  378MOL0     H49875   5.260   2.580   2.292  1.4145  0.1892 -0.9575
  378MOL0     H49876   5.089   2.494   2.141  2.1188  1.9764 -0.3209
  378MOL0     H49877   5.041   2.471   2.309 -0.7496 -1.0199 -1.0192
  378MOL0     H49878   6.177   2.651   2.555  1.7678 -0.5279 -0.2966
  378MOL0     H49879   6.386   2.754   2.465 -3.1574  0.1091  1.4782
  378MOL0     H49880   6.699   2.673   2.090  0.6190 -0.0100 -0.9737
  378MOL0     H49881   6.941   2.700   2.036  0.2019  0.1930 -1.4481
  378MOL0     H49882   5.801   3.251   2.281 -0.8834  0.7117  1.2106
  378MOL0     H49883   5.599   3.182   2.385  1.0119  1.8470 -1.2800
  378MOL0     H49884   5.154   3.070   2.536  0.7881 -0.1049  0.0647
  378MOL0     H49885   4.989   2.935   2.665 -0.0883  1.4917 -0.1201
  378MOL0     H49886   4.832   2.773   2.622 -0.1433 -0.8274 -1.2115
  378MOL0     H49887   4.873   2.774   2.799 -0.3620 -2.1177 -1.2411
  378MOL0     H49888   4.821   2.538   2.815  0.6972 -1.3656 -0.9314
  378MOL0     H49889   4.689   2.651   2.762 -0.0232  0.1700 -0.0604
  378MOL0     H49890   4.854   2.446   2.595  0.6163  1.2118 -1.5435
  378MOL0     H49891   4.795   2.577   2.521  1.5484 -0.0045  1.2797
  378MOL0     H49892   4.650   2.408   2.490 -2.5733  3.4625 -2.1400
  378MOL0     H49893   4.642   2.368   2.667 -0.7826  0.0373 -1.1812
  378MOL0     H49894   4.336   2.664   2.600 -0.7499 -1.3761 -0.2406
  378MOL0     H49895   5.201   2.573   2.554  1.3453 -0.5907 -2.3182
  378MOL0     H49896   5.351   2.711   2.413 -0.5397 -0.1494  0.2931
  379MOL0     O49897   0.101   8.290   3.598 -0.0265  0.1272  0.7491
  379MOL0     C49898  -0.016   8.310   3.581  0.1582  0.5992  0.5332
  379MOL0     O49899  -0.078   8.421   3.609 -0.1996 -0.1406  0.6193
  379MOL0     C49900  -0.012   8.544   3.623  0.4959  0.0148 -0.1729
  379MOL0     C49901   0.102   8.573   3.550  1.2215  0.6038 -0.1452
  379MOL0     C49902   0.178   8.693   3.574  0.0715  0.4968 -0.5291
  379MOL0     C49903   0.121   8.797   3.651  0.1831 -0.2311 -0.7757
  379MOL0     O49904   0.192   8.908   3.667 -1.0257 -0.4732  0.2211
  379MOL0     C49905   0.116   9.026   3.719 -1.2115  0.0522  0.1974
  379MOL0     C49906   0.227   9.138   3.726  0.2873  0.5481  0.3457
  379MOL0     C49907   0.286   9.168   3.593  0.0294  0.0609  0.4132
  379MOL0     C49908   0.398   9.278   3.608 -0.1246  0.1471 -0.1692
  379MOL0     C49909   0.534   9.222   3.664 -0.7504  0.2209 -0.0806
  379MOL0     C49910   0.658   9.296   3.607 -0.3212  0.5487 -0.0265
  379MOL0     C49911   0.793   9.234   3.640 -1.1127  0.4033 -0.6363
  379MOL0     C49912   0.834   9.253   3.785 -0.3787  0.4532 -0.9330
  379MOL0     N49913   0.963   9.190   3.827 -0.2092 -0.4897 -0.5539
  379MOL0     C49914   1.090   9.232   3.775 -0.7015  1.3652 -1.0439
  379MOL0     C49915   1.173   9.147   3.839 -0.5962 -0.8243 -0.2737
  379MOL0     C49916   1.327   9.153   3.824  0.7516  0.2863 -0.5500
  379MOL0     C49917   1.388   9.173   3.962  0.5742  0.4303 -0.3793
  379MOL0     C49918   1.534   9.218   3.947  0.5764  0.1445 -0.9234
  379MOL0     C49919   1.618   9.106   3.882 -0.7393  0.1437  0.4504
  379MOL0     O49920   1.748   9.152   3.839 -0.4000 -0.3722 -0.1901
  379MOL0     C49921   1.864   9.138   3.913  0.1883 -0.8080  0.7222
  379MOL0     C49922   1.988   9.183   3.858  0.5943 -0.6396  0.0337
  379MOL0     C49923   2.107   9.192   3.925 -0.5361  0.0893 -0.5062
  379MOL0     C49924   2.114   9.144   4.054 -0.3615 -0.5057  0.0104
  379MOL0     C49925   2.245   9.149   4.122 -0.6614  0.5087  1.0148
  379MOL0     O49926   2.333   9.244   4.089  0.8820 -1.1064  0.1005
  379MOL0     C49927   2.457   9.224   4.139  0.8962 -0.0462  0.3339
  379MOL0     C49928   2.562   9.211   4.051 -0.2065  0.5658 -0.7054
  379MOL0     C49929   2.694   9.187   4.094 -0.6792  0.5832  0.3086
  379MOL0     C49930   2.726   9.169   4.226 -0.2480  0.6192  0.7964
  379MOL0     O49931   2.856   9.150   4.252 -1.5458  0.5924  0.2178
  379MOL0     C49932   2.892   9.118   4.387  0.5054 -0.1189 -0.0782
  379MOL0     C49933   3.044   9.121   4.404  0.6005 -0.3096 -0.4812
  379MOL0     C49934   3.080   9.077   4.545 -0.4010  0.2853 -0.5076
  379MOL0     C49935   3.229   9.058   4.577  0.4324 -0.0003  0.0299
  379MOL0     C49936   3.236   8.947   4.671  0.0887  0.6778 -0.7121
  379MOL0     C49937   3.378   8.950   4.728  0.1902  0.2800  0.0742
  379MOL0     C49938   3.389   8.875   4.863  0.0555 -0.3786  0.4072
  379MOL0     C49939   3.512   8.905   4.945  0.0164 -0.5796 -0.1853
  379MOL0    Cl49940   3.659   8.822   4.867 -0.7044  0.0607 -0.0056
  379MOL0     C49941   2.613   9.183   4.311  0.7396  0.2771  0.3995
  379MOL0     C49942   2.485   9.217   4.273 -0.3795  0.1016  0.8491
  379MOL0     O49943   2.251   9.078   4.219  0.3533  0.2165 -0.2381
  379MOL0     C49944   1.992   9.094   4.118  0.3487 -0.6831 -0.0896
  379MOL0     C49945   1.871   9.085   4.043  1.3092 -0.5094 -1.3545
  379MOL0     N49946   1.094   9.057   3.916 -0.7383  0.1183 -0.7684
  379MOL0     N49947   0.967   9.081   3.910 -0.0498 -0.0895  0.6587
  379MOL0     C49948  -0.007   8.777   3.713 -0.6990 -0.2973 -0.4369
  379MOL0     C49949  -0.063   8.653   3.702  0.1187  0.2338  0.6795
  379MOL0     C49950  -0.099   8.218   3.490 -0.1455  0.9079 -0.0302
  379MOL0     C49951  -0.050   8.098   3.439  0.3564  0.0850  0.1554
  379MOL0     C49952  -0.134   8.015   3.364 -0.4666 -0.9917 -0.0473
  379MOL0     C49953  -0.263   8.054   3.339  0.2376 -0.1599  0.3231
  379MOL0     O49954  -0.355   7.977   3.278 -0.3220  0.1327  0.4623
  379MOL0     C49955  -0.343   7.840   3.255  0.0037  0.9221  0.0973
  379MOL0     C49956  -0.337   7.754   3.381 -0.0848 -0.5546 -0.3076
  379MOL0     C49957  -0.421   7.812   3.498 -0.6512  0.1585 -1.3718
  379MOL0     C49958  -0.460   7.686   3.594 -0.6712  1.1819 -0.2808
  379MOL0     C49959  -0.580   7.706   3.675 -0.5696  0.1948  0.2242
  379MOL0     C49960  -0.661   7.744   3.754  0.1400  0.9261 -0.9265
  379MOL0     C49961  -0.319   8.168   3.401 -0.3044 -0.7919  0.0171
  379MOL0     C49962  -0.235   8.254   3.472 -0.4254  0.0300 -0.0991
  379MOL0     H49963   0.125   8.512   3.464  2.5800  0.7382  0.0977
  379MOL0     H49964   0.278   8.710   3.536 -0.1443  0.1090 -1.3018
  379MOL0     H49965   0.081   9.017   3.823 -5.6928  2.7232 -0.8011
  379MOL0     H49966   0.037   9.059   3.652 -1.1405 -0.4207 -0.1200
  379MOL0     H49967   0.305   9.115   3.799 -1.4235  0.6952  2.3431
  379MOL0     H49968   0.168   9.220   3.769 -0.4875 -0.6040  1.5774
  379MOL0     H49969   0.204   9.203   3.529  0.3076 -3.8831 -2.5042
  379MOL0     H49970   0.341   9.084   3.551 -2.1697 -2.4907  2.2346
  379MOL0     H49971   0.418   9.322   3.510  0.6948  0.5183  0.1535
  379MOL0     H49972   0.351   9.349   3.676 -0.7315  0.6100 -1.0542
  379MOL0     H49973   0.531   9.125   3.613 -0.8967  1.8809 -3.5085
  379MOL0     H49974   0.542   9.230   3.773 -0.4232 -0.8167 -0.0120
  379MOL0     H49975   0.663   9.395   3.654  1.3845  1.6356 -2.2713
  379MOL0     H49976   0.652   9.299   3.497  0.8689 -1.6668 -0.2133
  379MOL0     H49977   0.792   9.127   3.617 -0.5308  0.6892 -2.0928
  379MOL0     H49978   0.866   9.293   3.584 -1.0277 -1.1862 -2.3060
  379MOL0     H49979   0.757   9.207   3.848 -0.3225 -0.0556 -1.2308
  379MOL0     H49980   0.843   9.357   3.817 -2.6355  0.5046 -0.2774
  379MOL0     H49981   1.127   9.309   3.708  0.0550  0.7350 -1.3677
  379MOL0     H49982   1.366   9.223   3.750 -0.6268  1.3100 -0.3464
  379MOL0     H49983   1.360   9.050   3.807  4.5309  0.7202  2.7864
  379MOL0     H49984   1.389   9.083   4.025 -0.6621  2.2513  2.4823
  379MOL0     H49985   1.334   9.243   4.028 -0.5606 -0.5230 -0.2479
  379MOL0     H49986   1.542   9.310   3.887 -0.4770  0.9590  0.1316
  379MOL0     H49987   1.570   9.238   4.048 -1.2359  0.1574 -0.2514
  379MOL0     H49988   1.563   9.094   3.788 -2.1626  3.4893  0.6956
  379MOL0     H49989   1.599   9.014   3.938 -0.0088 -0.6694 -0.5935
  379MOL0     H49990   1.985   9.228   3.759 -1.1668  0.1603  0.4109
  379MOL0     H49991   2.188   9.227   3.863 -0.1092 -2.5473 -1.5826
  379MOL0     H49992   2.535   9.218   3.946  0.2272  0.5375 -0.8198
  379MOL0     H49993   2.774   9.164   4.024 -0.7786  0.4054  0.2513
  379MOL0     H49994   2.850   9.019   4.410 -1.5372  0.7167  0.0277
  379MOL0     H49995   2.856   9.197   4.454  0.1028 -1.3098  1.1743
  379MOL0     H49996   3.088   9.220   4.388  0.3251 -0.6248 -3.8327
  379MOL0     H49997   3.085   9.049   4.333  0.0226 -0.2339 -0.9018
  379MOL0     H49998   3.028   8.985   4.573  1.2124 -0.1285  1.3287
  379MOL0     H49999   3.036   9.149   4.614  1.5216 -2.4094  3.9855
  379MOL0     H50000   3.267   9.024   4.480 -0.9646  1.9131 -1.2729
  379MOL0     H50001   3.274   9.152   4.612  2.2646 -0.0336 -2.0313
  379MOL0     H50002   3.221   8.850   4.624  0.5925  2.5899 -5.3080
  379MOL0     H50003   3.172   8.971   4.757  0.8098 -1.2051  0.4063
  379MOL0     H50004   3.400   9.055   4.748 -0.2254  0.6216 -1.1600
  379MOL0     H50005   3.457   8.904   4.667 -3.2299 -1.0554 -3.8507
  379MOL0     H50006   3.303   8.879   4.930  0.0330  0.9640  0.3192
  379MOL0     H50007   3.411   8.770   4.841 -1.7642 -0.9912  1.3556
  379MOL0     H50008   3.510   8.873   5.049 -2.0564 -2.1782 -0.6586
  379MOL0     H50009   3.525   9.014   4.954  1.1036 -0.7275  0.2652
  379MOL0     H50010   2.636   9.165   4.415 -0.2692 -0.4245  0.5061
  379MOL0     H50011   2.409   9.220   4.350 -0.2844 -0.7706  0.9852
  379MOL0     H50012   1.999   9.055   4.219 -4.6309 -0.5618  0.5501
  379MOL0     H50013   1.786   9.039   4.092  1.0431  2.3490  1.1474
  379MOL0     H50014  -0.053   8.854   3.773 -0.0127  0.6719 -1.1322
  379MOL0     H50015  -0.160   8.632   3.746 -1.0880 -0.4442 -2.0743
  379MOL0     H50016   0.055   8.073   3.445 -0.2418 -2.7522  0.5506
  379MOL0     H50017  -0.091   7.922   3.328  2.6254 -0.7741  2.6373
  379MOL0     H50018  -0.259   7.814   3.189  1.3229  1.5878  1.4378
  379MOL0     H50019  -0.424   7.800   3.194 -0.0763 -1.6375  1.7166
  379MOL0     H50020  -0.387   7.665   3.342  2.2942 -1.3969 -1.6319
  379MOL0     H50021  -0.235   7.726   3.407  0.0692 -0.9556 -1.2932
  379MOL0     H50022  -0.516   7.853   3.462 -0.3229  2.3002  0.0030
  379MOL0     H50023  -0.367   7.890   3.552  0.0617  0.0988 -1.9887
  379MOL0     H50024  -0.485   7.603   3.528 -4.1066 -0.4653  2.7080
  379MOL0     H50025  -0.378   7.649   3.656  0.7100  2.6177 -1.1872
  379MOL0     H50026  -0.743   7.769   3.819 -3.2490 -0.1703 -4.4072
  379MOL0     H50027  -0.423   8.198   3.389 -0.3165 -0.9193 -0.1865
  379MOL0     H50028  -0.282   8.343   3.511 -1.7112 -0.0831 -1.2898
  380MOL0     O50029   1.443   6.800   8.473  1.0027  0.3260 -0.0652
  380MOL0     C50030   1.546   6.872   8.454 -0.0330  0.8402  0.8303
  380MOL0     O50031   1.562   6.999   8.482 -0.0918 -0.0794  0.7419
  380MOL0     C50032   1.466   7.075   8.548 -0.0159 -0.9006 -1.0640
  380MOL0     C50033   1.399   7.032   8.668  0.0520 -0.8764 -0.0553
  380MOL0     C50034   1.294   7.104   8.719  0.2305 -0.0085 -0.6658
  380MOL0     C50035   1.261   7.231   8.665 -0.7720 -0.1085  0.1373
  380MOL0     O50036   1.155   7.302   8.720 -1.0399 -0.1440  0.3955
  380MOL0     C50037   1.043   7.326   8.631 -0.1806 -0.0497 -0.3953
  380MOL0     C50038   0.926   7.368   8.719 -0.2455 -0.9782  0.0383
  380MOL0     C50039   0.925   7.312   8.859  0.0420 -0.6049  0.3920
  380MOL0     C50040   0.937   7.162   8.861  0.3293  0.4557 -0.8932
  380MOL0     C50041   0.852   7.081   8.766 -0.7140 -0.0246  0.5722
  380MOL0     C50042   0.891   6.931   8.777  0.0623 -0.1405  0.9044
  380MOL0     C50043   0.812   6.828   8.688  0.5654 -0.3265  0.1881
  380MOL0     C50044   0.663   6.812   8.726 -0.3401  0.4826 -0.0210
  380MOL0     N50045   0.649   6.716   8.843  0.0097 -0.3769 -0.2864
  380MOL0     C50046   0.652   6.757   8.974  0.1174 -1.0928 -0.1625
  380MOL0     C50047   0.597   6.664   9.045 -1.0312  0.3205 -0.1962
  380MOL0     C50048   0.576   6.669   9.199  1.0506 -0.6167 -0.4684
  380MOL0     C50049   0.439   6.612   9.234  0.3393 -0.4659 -0.1782
  380MOL0     C50050   0.424   6.599   9.382 -0.0724  0.4477 -1.1168
  380MOL0     C50051   0.276   6.556   9.421 -0.2828  0.7391 -0.5074
  380MOL0     O50052   0.260   6.426   9.487  0.2920  0.4004  0.7034
  380MOL0     C50053   0.135   6.370   9.494  0.5197 -0.0882 -0.2333
  380MOL0     C50054   0.108   6.244   9.462 -0.2107  0.3945 -0.2876
  380MOL0     C50055  -0.014   6.177   9.482  0.7388 -0.0565  0.1086
  380MOL0     C50056  -0.126   6.259   9.511  0.4034 -0.5772  0.5126
  380MOL0     C50057  -0.266   6.198   9.513 -0.1578  0.6730  0.7635
  380MOL0     O50058  -0.279   6.060   9.484  0.6291 -0.4884  0.2624
  380MOL0     C50059  -0.398   6.002   9.516 -0.2485 -0.9961 -0.9975
  380MOL0     C50060  -0.412   5.907   9.617 -0.2976 -0.0035  0.0556
  380MOL0     C50061  -0.536   5.873   9.666 -1.0349 -0.1643 -0.4068
  380MOL0     C50062  -0.652   5.915   9.597 -0.1353 -0.3925 -0.6711
  380MOL0     O50063  -0.774   5.862   9.635  0.7461  0.1613  0.0397
  380MOL0     C50064  -0.896   5.928   9.586 -0.7005  0.0259 -1.2598
  380MOL0     C50065  -1.000   5.844   9.653 -0.4328  0.2301 -0.8222
  380MOL0     C50066  -1.146   5.900   9.631 -0.3894  0.4851  0.0480
  380MOL0     C50067  -1.250   5.829   9.711  0.8873  0.9024  0.2230
  380MOL0     C50068  -1.386   5.898   9.673 -0.1319 -0.6811 -0.1538
  380MOL0     C50069  -1.510   5.849   9.746 -0.0786 -0.3454 -0.3531
  380MOL0     C50070  -1.503   5.882   9.900  0.4131 -0.7344  0.5215
  380MOL0     C50071  -1.639   5.853   9.957  0.2855 -0.4512 -0.4852
  380MOL0    Cl50072  -1.671   5.944  10.105 -0.3369 -0.0728 -0.0266
  380MOL0     C50073  -0.628   5.998   9.481 -0.5202  1.6113  0.6608
  380MOL0     C50074  -0.514   6.041   9.448 -1.0841 -0.2987 -0.6044
  380MOL0     O50075  -0.363   6.274   9.517 -0.3657  0.4310 -0.0518
  380MOL0     C50076  -0.103   6.397   9.536 -0.0435  0.3470  0.1245
  380MOL0     C50077   0.025   6.452   9.541  0.1647 -0.4377 -0.0826
  380MOL0     N50078   0.564   6.558   8.962 -0.4651  0.1594 -0.5255
  380MOL0     N50079   0.591   6.593   8.840 -0.2108  0.0034 -0.5197
  380MOL0     C50080   1.335   7.281   8.556  0.1134 -0.0427  0.4652
  380MOL0     C50081   1.432   7.201   8.500  0.1810  0.0203  0.7947
  380MOL0     C50082   1.660   6.809   8.377 -1.1771 -0.3073  0.5041
  380MOL0     C50083   1.623   6.739   8.259 -0.3069 -0.7542  0.2944
  380MOL0     C50084   1.721   6.673   8.179  0.5477 -0.7068 -0.1345
  380MOL0     C50085   1.857   6.675   8.218  0.1402  1.2328  0.0850
  380MOL0     O50086   1.951   6.608   8.130  0.4135 -0.2552 -0.0142
  380MOL0     C50087   2.094   6.586   8.154 -0.3412 -0.6460  0.1322
  380MOL0     C50088   2.171   6.543   8.025 -0.9182 -0.4158 -0.4465
  380MOL0     C50089   2.320   6.494   8.060  0.0031  0.3226 -0.3512
  380MOL0     C50090   2.397   6.586   8.150  0.1854 -0.6830  0.3421
  380MOL0     C50091   2.541   6.557   8.153  0.3543 -0.1305 -0.3386
  380MOL0     C50092   2.653   6.521   8.158 -1.2875 -0.9415  0.0941
  380MOL0     C50093   1.891   6.738   8.332  0.5731 -0.3422 -0.5317
  380MOL0     C50094   1.793   6.808   8.407 -0.2626  0.4695 -0.7362
  380MOL0     H50095   1.412   6.932   8.708 -2.7564 -1.0725  0.5594
  380MOL0     H50096   1.249   7.060   8.807  1.4972 -0.7434 -0.3579
  380MOL0     H50097   1.020   7.235   8.574 -0.5157 -0.0335 -0.2906
  380MOL0     H50098   1.065   7.413   8.569 -2.8961  0.3316 -0.9879
  380MOL0     H50099   0.832   7.343   8.670 -1.1531  0.2390  1.0666
  380MOL0     H50100   0.932   7.478   8.715  2.3225 -1.0899 -2.4280
  380MOL0     H50101   0.827   7.343   8.895 -0.2549 -0.0182 -0.8689
  380MOL0     H50102   1.003   7.353   8.924  1.4763 -2.0304 -0.3508
  380MOL0     H50103   1.041   7.133   8.846 -0.1221 -1.9964  0.2802
  380MOL0     H50104   0.910   7.137   8.964 -1.1510  0.3209 -1.2979
  380MOL0     H50105   0.869   7.108   8.662 -0.7179 -1.1053  0.2809
  380MOL0     H50106   0.748   7.098   8.795 -0.7270 -0.4075  0.7631
  380MOL0     H50107   0.890   6.907   8.883  0.7708 -1.2834  0.6719
  380MOL0     H50108   0.989   6.922   8.728 -1.1228  1.1871 -1.9641
  380MOL0     H50109   0.823   6.856   8.583 -0.3438 -1.0268 -0.1030
  380MOL0     H50110   0.874   6.737   8.695  1.8098  0.2608 -2.2066
  380MOL0     H50111   0.600   6.770   8.646  0.2680 -0.7285  0.1141
  380MOL0     H50112   0.617   6.909   8.747  1.8729  1.5641  0.1289
  380MOL0     H50113   0.688   6.852   9.013 -0.7726 -0.1637 -1.5520
  380MOL0     H50114   0.566   6.775   9.225  2.0085 -0.7042  0.2930
  380MOL0     H50115   0.666   6.629   9.245  1.5920 -1.4645 -2.1785
  380MOL0     H50116   0.422   6.516   9.185 -2.2009 -1.2141  1.9562
  380MOL0     H50117   0.362   6.680   9.197 -1.0612 -2.2984 -0.7745
  380MOL0     H50118   0.477   6.511   9.418  0.8242  1.5606  0.4272
  380MOL0     H50119   0.466   6.683   9.440  1.5776 -0.7707 -0.4809
  380MOL0     H50120   0.209   6.555   9.335 -2.0673 -1.3064  0.7852
  380MOL0     H50121   0.236   6.632   9.490 -0.4039  0.1359  0.1026
  380MOL0     H50122   0.192   6.178   9.442  0.1079  0.2576  1.3498
  380MOL0     H50123  -0.030   6.075   9.449  0.7571  0.5174 -1.8123
  380MOL0     H50124  -0.323   5.857   9.655 -0.5957 -1.1661 -0.7406
  380MOL0     H50125  -0.545   5.803   9.749 -1.3956 -0.5118 -0.7338
  380MOL0     H50126  -0.909   5.935   9.477 -2.5759  0.8843 -1.0198
  380MOL0     H50127  -0.906   6.034   9.609  3.0067  0.4862 -1.1503
  380MOL0     H50128  -0.975   5.838   9.759  0.5502 -2.5392 -1.1261
  380MOL0     H50129  -0.987   5.739   9.624  3.0989  0.0894  0.7401
  380MOL0     H50130  -1.170   5.886   9.526  1.5997  3.1446 -0.8794
  380MOL0     H50131  -1.150   6.010   9.630  2.2062  0.6496  0.2150
  380MOL0     H50132  -1.265   5.725   9.680  0.2550  0.8510  0.6969
  380MOL0     H50133  -1.228   5.827   9.818 -0.7126 -0.0045  0.5721
  380MOL0     H50134  -1.394   5.896   9.564  1.4142  1.2403 -0.3512
  380MOL0     H50135  -1.380   6.004   9.698 -0.5565 -1.5081  4.0929
  380MOL0     H50136  -1.527   5.742   9.732 -0.5746 -0.5905  1.7989
  380MOL0     H50137  -1.605   5.884   9.704  0.0613  0.1791 -0.2468
  380MOL0     H50138  -1.423   5.826   9.951  2.5064  1.7642  0.2166
  380MOL0     H50139  -1.480   5.989   9.903 -1.9402 -0.0594 -2.0128
  380MOL0     H50140  -1.643   5.747   9.982  4.4117 -1.3724 -2.7333
  380MOL0     H50141  -1.722   5.889   9.895 -0.6306  1.5283  1.7234
  380MOL0     H50142  -0.704   6.054   9.427 -0.5163  0.9932 -0.0003
  380MOL0     H50143  -0.508   6.106   9.360  0.9504  1.1953  0.5540
  380MOL0     H50144  -0.188   6.457   9.567 -0.8526 -1.0698  0.7763
  380MOL0     H50145   0.039   6.555   9.573  1.1440 -0.5718 -0.0207
  380MOL0     H50146   1.311   7.375   8.507  2.1567  0.2673 -0.0161
  380MOL0     H50147   1.486   7.242   8.415 -1.2319  3.4577  1.3817
  380MOL0     H50148   1.520   6.740   8.225 -0.5325  2.3631  0.7269
  380MOL0     H50149   1.695   6.622   8.087  1.4342 -1.7685  0.1877
  380MOL0     H50150   2.083   6.503   8.225 -0.8233 -0.6912  0.0107
  380MOL0     H50151   2.136   6.672   8.206 -1.2674 -0.7868  1.1450
  380MOL0     H50152   2.109   6.476   7.965 -1.3680 -0.2469 -0.1732
  380MOL0     H50153   2.170   6.626   7.953  1.2242  0.6116  0.6129
  380MOL0     H50154   2.372   6.461   7.969 -0.1714 -4.0270  0.8795
  380MOL0     H50155   2.298   6.401   8.114  2.0213  2.4569  4.7977
  380MOL0     H50156   2.390   6.685   8.105 -0.5623  0.3408  2.5778
  380MOL0     H50157   2.356   6.597   8.251  2.6709  1.9866  1.2032
  380MOL0     H50158   2.754   6.487   8.167 -0.8410 -0.0321 -1.1931
  380MOL0     H50159   1.993   6.735   8.370  1.5414  2.2063 -2.5885
  380MOL0     H50160   1.827   6.857   8.498  1.3008 -2.1626  0.2085
  381MOL0     O50161   2.563  10.051   9.501  0.8159 -0.0955 -1.0256
  381MOL0     C50162   2.581   9.953   9.424  0.4559 -0.1449 -0.0427
  381MOL0     O50163   2.520   9.937   9.301  0.1871  0.4989  0.6406
  381MOL0     C50164   2.447  10.028   9.242 -0.3088 -0.8126 -0.5274
  381MOL0     C50165   2.468  10.032   9.102 -0.7979 -0.4973  1.1865
  381MOL0     C50166   2.394  10.130   9.021 -0.8423  0.0266  0.6799
  381MOL0     C50167   2.291  10.203   9.084 -0.3843  0.3951 -0.5119
  381MOL0     O50168   2.222  10.298   9.023  0.5683 -0.5940  0.2712
  381MOL0     C50169   2.134  10.249   8.918 -0.5602  0.4293 -0.1110
  381MOL0     C50170   2.024  10.353   8.900 -0.2853  1.2490  0.7232
  381MOL0     C50171   1.942  10.376   9.026  0.0154 -0.2391 -0.1252
  381MOL0     C50172   1.881  10.517   9.042  0.9337 -0.1527 -0.2901
  381MOL0     C50173   1.758  10.535   8.935 -0.2131  1.1074  0.2868
  381MOL0     C50174   1.646  10.636   8.982  0.1186 -0.1872 -0.8567
  381MOL0     C50175   1.525  10.634   8.881  0.0314  0.0566 -0.9901
  381MOL0     C50176   1.396  10.689   8.937  0.0276  0.5534 -0.8948
  381MOL0     N50177   1.288  10.699   8.837 -0.2259 -0.0126  0.4891
  381MOL0     C50178   1.162  10.747   8.857 -0.0033 -0.4926  1.0538
  381MOL0     C50179   1.093  10.743   8.741  0.4376  0.3720 -0.5073
  381MOL0     C50180   0.947  10.766   8.722 -1.3312  0.0488  0.9051
  381MOL0     C50181   0.874  10.668   8.803  0.4163  0.1828  0.1589
  381MOL0     C50182   0.721  10.688   8.771  0.9257 -0.2237  0.0336
  381MOL0     C50183   0.621  10.595   8.829  0.3586  0.1535 -0.1994
  381MOL0     O50184   0.645  10.456   8.791 -0.4560 -0.7368 -0.7237
  381MOL0     C50185   0.621  10.418   8.661 -0.9631  0.2635  0.9814
  381MOL0     C50186   0.510  10.454   8.590  0.6697 -0.5862 -0.2278
  381MOL0     C50187   0.494  10.404   8.464  0.9467  0.4211  0.3069
  381MOL0     C50188   0.575  10.305   8.400 -0.3342 -0.6396 -0.7676
  381MOL0     C50189   0.544  10.267   8.267  0.4558  0.2671  0.0314
  381MOL0     O50190   0.419  10.290   8.218  0.1959  0.4514  0.0203
  381MOL0     C50191   0.389  10.247   8.092 -0.0523 -0.3698 -0.1171
  381MOL0     C50192   0.468  10.274   7.978 -0.0289 -0.4848  0.6302
  381MOL0     C50193   0.447  10.215   7.854 -0.3951 -0.0568 -0.2916
  381MOL0     C50194   0.331  10.133   7.833 -0.5504  0.5940  0.0990
  381MOL0     O50195   0.306  10.078   7.709 -0.1704  0.0078  0.0813
  381MOL0     C50196   0.258  10.165   7.608  0.3066  0.0304  1.0232
  381MOL0     C50197   0.108  10.137   7.589 -0.3403 -0.0608 -0.3537
  381MOL0     C50198   0.017  10.263   7.560 -0.5876  0.8100 -0.4193
  381MOL0     C50199   0.073  10.345   7.449  0.2586 -0.0325  0.4194
  381MOL0     C50200   0.075  10.268   7.313  0.3487 -0.1348  0.9962
  381MOL0     C50201   0.116  10.378   7.213  0.1357 -0.5838 -0.4328
  381MOL0     C50202   0.270  10.399   7.230  0.2211  0.2270  0.6650
  381MOL0     C50203   0.326  10.427   7.088  0.3451  0.2232 -0.0517
  381MOL0    Cl50204   0.289  10.584   7.033  0.3519 -0.5295  0.1325
  381MOL0     C50205   0.246  10.103   7.942 -0.3886  0.5147 -0.1479
  381MOL0     C50206   0.278  10.161   8.069 -0.3617  0.3577  0.0382
  381MOL0     O50207   0.625  10.188   8.211 -0.2702 -0.6732 -0.0970
  381MOL0     C50208   0.691  10.279   8.469  0.6856  0.5438 -0.1470
  381MOL0     C50209   0.721  10.342   8.591  0.0746  1.0723  0.8156
  381MOL0     N50210   1.187  10.707   8.648  0.3278 -0.3545 -0.4003
  381MOL0     N50211   1.301  10.684   8.706 -0.2714 -0.3347 -0.0316
  381MOL0     C50212   2.262  10.180   9.222 -0.1007 -0.9326  0.3551
  381MOL0     C50213   2.341  10.103   9.303 -0.8375  0.8011  0.6740
  381MOL0     C50214   2.676   9.841   9.457  0.4474 -0.4538 -0.4879
  381MOL0     C50215   2.746   9.835   9.581  1.1828  0.0310  0.7496
  381MOL0     C50216   2.841   9.739   9.604  0.0438 -0.1389 -0.8850
  381MOL0     C50217   2.871   9.641   9.510  0.7908  0.0881 -0.9110
  381MOL0     O50218   2.969   9.551   9.547  0.8602  0.0676  0.3617
  381MOL0     C50219   3.008   9.447   9.450 -0.6190 -0.2803 -0.2032
  381MOL0     C50220   3.134   9.381   9.508  0.0661  0.6256  0.1666
  381MOL0     C50221   3.176   9.250   9.431 -0.0383  0.3775 -0.3635
  381MOL0     C50222   3.281   9.167   9.505  0.6566 -0.6645 -0.0755
  381MOL0     C50223   3.313   9.048   9.427 -0.8809 -0.0441 -0.7693
  381MOL0     C50224   3.347   8.950   9.370  0.1339  0.4807  0.1191
  381MOL0     C50225   2.788   9.634   9.399  1.0262 -0.5278  0.5739
  381MOL0     C50226   2.693   9.734   9.368 -1.3738  0.3143 -0.4898
  381MOL0     H50227   2.539   9.978   9.040 -0.4101  1.8538 -0.5422
  381MOL0     H50228   2.419  10.130   8.916 -2.8341 -3.8747  0.0216
  381MOL0     H50229   2.086  10.158   8.955 -4.5435  2.3994  0.0335
  381MOL0     H50230   2.192  10.233   8.827 -1.1310  1.6440 -0.7107
  381MOL0     H50231   1.957  10.315   8.822  0.1988 -0.7445  1.2373
  381MOL0     H50232   2.071  10.446   8.867 -0.5948  0.4522 -2.3183
  381MOL0     H50233   1.998  10.358   9.119 -3.9511 -0.5507  2.4515
  381MOL0     H50234   1.874  10.290   9.031  2.5936 -2.3655  1.6531
  381MOL0     H50235   1.834  10.529   9.140 -0.0209 -0.3197 -0.7212
  381MOL0     H50236   1.959  10.593   9.028  0.6854 -0.2217 -2.3052
  381MOL0     H50237   1.712  10.438   8.917  0.8307  0.6511  0.0267
  381MOL0     H50238   1.794  10.549   8.833 -4.0181 -2.4946 -1.8352
  381MOL0     H50239   1.679  10.737   9.008 -1.6573  0.1717  0.1658
  381MOL0     H50240   1.622  10.602   9.083  2.7863  2.9856  1.0615
  381MOL0     H50241   1.540  10.695   8.792 -0.3509  0.8063 -0.5539
  381MOL0     H50242   1.504  10.532   8.848 -0.2541  0.0490 -0.7955
  381MOL0     H50243   1.407  10.794   8.965 -1.1468  0.5953 -0.5346
  381MOL0     H50244   1.366  10.619   9.016 -1.3852  0.4883 -1.4550
  381MOL0     H50245   1.133  10.782   8.956  1.5204  3.0395  0.3967
  381MOL0     H50246   0.922  10.762   8.616 -1.4939 -2.0353  0.9859
  381MOL0     H50247   0.926  10.864   8.767  2.0734  2.0082 -1.2914
  381MOL0     H50248   0.896  10.697   8.906 -1.7402  1.5833  0.2837
  381MOL0     H50249   0.899  10.565   8.774 -1.2546 -0.1757 -0.0862
  381MOL0     H50250   0.684  10.783   8.811 -0.2091 -1.8092  3.1427
  381MOL0     H50251   0.700  10.696   8.664  0.2730 -1.4336  0.0463
  381MOL0     H50252   0.519  10.625   8.802 -0.1044  3.3946  4.1453
  381MOL0     H50253   0.624  10.606   8.937 -1.3226  1.9392 -0.2618
  381MOL0     H50254   0.427  10.509   8.634  1.1439 -1.9213  2.5816
  381MOL0     H50255   0.399  10.439   8.426  0.0192 -1.4821  0.7610
  381MOL0     H50256   0.557  10.332   8.003 -0.9942  0.6799  1.5144
  381MOL0     H50257   0.510  10.236   7.769 -1.1880  2.2557 -0.3764
  381MOL0     H50258   0.301  10.150   7.508 -1.1938 -0.8504  0.4693
  381MOL0     H50259   0.274  10.266   7.645 -2.2222 -0.1995  2.9919
  381MOL0     H50260   0.068  10.097   7.683 -1.7357  0.5471 -0.6597
  381MOL0     H50261   0.098  10.062   7.510 -0.0826 -0.0806 -0.3691
  381MOL0     H50262   0.011  10.316   7.656  1.3144 -2.3977  1.6693
  381MOL0     H50263  -0.083  10.225   7.537 -0.9342 -0.3631  2.4535
  381MOL0     H50264   0.001  10.426   7.432 -1.2160 -1.5440 -0.8860
  381MOL0     H50265   0.168  10.390   7.477  0.3365  0.9565 -1.2779
  381MOL0     H50266  -0.028  10.240   7.288  0.2205 -0.4101  1.8123
  381MOL0     H50267   0.142  10.181   7.308 -0.9943 -1.1791  0.5457
  381MOL0     H50268   0.068  10.474   7.234 -0.4115 -1.1103  0.8339
  381MOL0     H50269   0.087  10.358   7.109  0.7358  2.1921 -1.2041
  381MOL0     H50270   0.283  10.493   7.286  1.1338  3.4837 -4.3342
  381MOL0     H50271   0.329  10.317   7.270 -1.0082 -0.6582  0.7050
  381MOL0     H50272   0.275  10.363   7.015 -1.0486 -0.1620  1.2007
  381MOL0     H50273   0.434  10.411   7.095  0.0535 -3.4795 -1.7295
  381MOL0     H50274   0.150  10.055   7.931  0.2134 -0.9660  0.7235
  381MOL0     H50275   0.210  10.126   8.145 -0.1502  1.1301  0.5931
  381MOL0     H50276   0.764  10.210   8.428  0.7052 -0.4753  1.5020
  381MOL0     H50277   0.820  10.342   8.635  1.1450 -1.8124 -1.2469
  381MOL0     H50278   2.179  10.235   9.265 -1.3854 -1.2562 -1.5576
  381MOL0     H50279   2.311  10.093   9.406 -1.2666 -0.3360  0.4589
  381MOL0     H50280   2.716   9.901   9.661 -0.3779 -0.6236  0.7433
  381MOL0     H50281   2.877   9.755   9.706 -0.4839  2.9737 -1.1099
  381MOL0     H50282   3.027   9.494   9.353 -0.9715  0.8725  0.2689
  381MOL0     H50283   2.929   9.373   9.436  0.4068 -0.9949 -2.7844
  381MOL0     H50284   3.219   9.449   9.498  0.8287 -0.5086 -1.3029
  381MOL0     H50285   3.117   9.364   9.615 -2.0181  1.0441 -0.0472
  381MOL0     H50286   3.209   9.284   9.332  0.8256  0.2466 -0.1294
  381MOL0     H50287   3.083   9.194   9.414  0.4286 -0.3470 -0.6229
  381MOL0     H50288   3.362   9.231   9.539 -0.9294  1.4097  0.0390
  381MOL0     H50289   3.238   9.130   9.599 -0.1187  1.7484  0.6057
  381MOL0     H50290   3.368   8.865   9.309 -2.7274 -2.2032  2.5528
  381MOL0     H50291   2.795   9.556   9.324  1.3423 -3.3359  3.2959
  381MOL0     H50292   2.636   9.740   9.275  2.5278 -0.0607 -3.1380
  382MOL0     O50293   4.573   7.636   8.060 -0.1340 -0.5767 -1.1560
  382MOL0     C50294   4.475   7.703   8.073 -0.6645 -1.1731 -0.8122
  382MOL0     O50295   4.411   7.771   7.968 -0.3704  0.8946  0.0106
  382MOL0     C50296   4.431   7.728   7.838 -0.1458  0.1843  0.2301
  382MOL0     C50297   4.319   7.715   7.755 -0.5821 -0.8980 -0.0205
  382MOL0     C50298   4.334   7.685   7.614 -0.3574  0.0859 -0.1185
  382MOL0     C50299   4.459   7.662   7.564 -0.4650 -0.5911  0.6734
  382MOL0     O50300   4.484   7.655   7.435  0.0904  0.3029  0.6605
  382MOL0     C50301   4.373   7.654   7.341 -0.3548  0.0791  0.4118
  382MOL0     C50302   4.419   7.647   7.194 -0.1381  0.1221 -0.1018
  382MOL0     C50303   4.464   7.779   7.126 -0.0888 -0.0557 -0.8032
  382MOL0     C50304   4.491   7.764   6.980 -0.7870  0.1264 -0.8766
  382MOL0     C50305   4.493   7.896   6.898 -0.3590 -0.5860 -0.1079
  382MOL0     C50306   4.597   7.995   6.937 -0.7212 -0.1814 -0.2713
  382MOL0     C50307   4.736   7.944   6.925 -0.0231 -0.0782  0.1865
  382MOL0     C50308   4.776   7.894   6.786 -0.8523  0.8081 -0.3867
  382MOL0     N50309   4.779   8.019   6.699  0.2709 -0.4368 -0.0366
  382MOL0     C50310   4.672   8.070   6.627 -0.6598 -0.8541  0.3067
  382MOL0     C50311   4.730   8.166   6.546  0.0476  0.5829 -0.5385
  382MOL0     C50312   4.655   8.253   6.453 -1.0123  1.4056  0.0010
  382MOL0     C50313   4.558   8.355   6.513 -0.1174 -0.9965  0.0725
  382MOL0     C50314   4.435   8.308   6.580 -0.7562  0.4237  0.1013
  382MOL0     C50315   4.318   8.401   6.564  0.2740 -0.3731 -0.4050
  382MOL0     O50316   4.282   8.399   6.424 -0.5683 -0.1090  0.0564
  382MOL0     C50317   4.164   8.436   6.370 -0.5743  0.1504  0.1306
  382MOL0     C50318   4.136   8.392   6.243  0.3735 -0.6952  0.1224
  382MOL0     C50319   4.007   8.410   6.195 -0.3623  0.2442 -0.3031
  382MOL0     C50320   3.905   8.475   6.270 -0.4608 -0.0023 -0.2741
  382MOL0     C50321   3.773   8.475   6.216 -0.0089  0.4580 -0.9799
  382MOL0     O50322   3.770   8.440   6.085  0.6572  0.0144  0.3581
  382MOL0     C50323   3.648   8.462   6.021 -0.7761  0.7654  0.1647
  382MOL0     C50324   3.554   8.367   6.021  0.5096  0.7873 -0.6977
  382MOL0     C50325   3.433   8.383   5.946 -0.0373  0.2676 -0.1195
  382MOL0     C50326   3.417   8.491   5.859  0.2137  0.1851  0.8604
  382MOL0     O50327   3.299   8.494   5.778 -0.2906 -0.5813 -0.4857
  382MOL0     C50328   3.274   8.623   5.721 -0.7517 -0.7949 -0.1703
  382MOL0     C50329   3.173   8.617   5.609  0.3358  0.1394  0.4255
  382MOL0     C50330   3.229   8.547   5.484 -1.2196  0.4148  0.1855
  382MOL0     C50331   3.195   8.605   5.341  0.1270 -0.6044 -0.0941
  382MOL0     C50332   3.290   8.544   5.228 -0.2080  0.7308 -0.1362
  382MOL0     C50333   3.411   8.630   5.186 -0.0124 -1.0141  0.2806
  382MOL0     C50334   3.511   8.667   5.299 -1.1078  0.5976  0.4870
  382MOL0     C50335   3.657   8.698   5.250  0.4984 -0.2524 -0.5668
  382MOL0    Cl50336   3.753   8.756   5.388 -0.3112 -0.4606  0.1436
  382MOL0     C50337   3.520   8.588   5.850 -0.3787  0.2922 -0.2789
  382MOL0     C50338   3.646   8.566   5.919 -0.0442 -0.8383 -0.1898
  382MOL0     O50339   3.682   8.517   6.289  0.5126 -0.3639 -0.1467
  382MOL0     C50340   3.947   8.528   6.400 -2.1512  0.9528  0.2204
  382MOL0     C50341   4.073   8.515   6.445 -0.1455 -0.1795  0.3149
  382MOL0     N50342   4.864   8.180   6.579  0.3861 -0.0743 -0.3084
  382MOL0     N50343   4.893   8.087   6.668  0.1869 -0.7600 -0.1605
  382MOL0     C50344   4.567   7.672   7.647  0.0289  0.9667 -0.0854
  382MOL0     C50345   4.556   7.702   7.776 -0.5182 -0.3185  0.4277
  382MOL0     C50346   4.427   7.725   8.213  0.2455 -0.1089 -0.2407
  382MOL0     C50347   4.481   7.659   8.320  0.4188  0.1940  0.1024
  382MOL0     C50348   4.427   7.666   8.451  0.0043  0.6861  0.4126
  382MOL0     C50349   4.323   7.758   8.478  0.3976 -0.0825 -0.6012
  382MOL0     O50350   4.279   7.764   8.612 -0.2573 -0.3836 -0.7366
  382MOL0     C50351   4.216   7.888   8.651 -0.2470  0.3071 -0.6609
  382MOL0     C50352   4.183   7.902   8.803  0.9964  0.3776  0.4248
  382MOL0     C50353   4.037   7.858   8.840 -0.0072 -0.1730  0.3966
  382MOL0     C50354   4.036   7.709   8.830 -0.5425 -0.3525  0.4665
  382MOL0     C50355   3.918   7.664   8.904  0.9567 -0.1390 -0.5777
  382MOL0     C50356   3.814   7.632   8.962  0.3452  0.1847 -0.3543
  382MOL0     C50357   4.262   7.823   8.373  0.3611 -0.7812  0.4607
  382MOL0     C50358   4.314   7.805   8.243 -0.6454  0.0149 -1.0942
  382MOL0     H50359   4.216   7.726   7.787 -0.9756  0.6356 -1.6633
  382MOL0     H50360   4.249   7.691   7.548  0.5275 -0.5435 -1.3506
  382MOL0     H50361   4.325   7.752   7.350 -0.0414  0.2552  0.2034
  382MOL0     H50362   4.309   7.568   7.358  0.5257 -0.6815 -0.0468
  382MOL0     H50363   4.334   7.615   7.133 -0.1275  1.7689 -1.0350
  382MOL0     H50364   4.492   7.570   7.166 -1.2089  0.2672 -3.8374
  382MOL0     H50365   4.545   7.834   7.174 -1.4633  0.0288  1.5353
  382MOL0     H50366   4.382   7.851   7.130 -0.1355  0.1023 -2.9616
  382MOL0     H50367   4.581   7.702   6.974 -1.3595 -0.9048  0.7183
  382MOL0     H50368   4.407   7.713   6.931 -3.1198  0.0179  2.8373
  382MOL0     H50369   4.402   7.956   6.909  1.2890  2.6341 -2.3690
  382MOL0     H50370   4.507   7.865   6.794  0.1748 -0.6666 -0.0151
  382MOL0     H50371   4.576   8.012   7.043 -2.2680 -2.4353 -0.1573
  382MOL0     H50372   4.589   8.097   6.897  0.8302  1.2077  2.6867
  382MOL0     H50373   4.807   8.020   6.959 -1.2663  0.3578  2.0372
  382MOL0     H50374   4.744   7.865   7.000 -0.7996  0.4591  0.8644
  382MOL0     H50375   4.709   7.814   6.751 -0.6637  0.0759  0.8627
  382MOL0     H50376   4.877   7.853   6.785 -1.0331 -0.0691  3.2891
  382MOL0     H50377   4.570   8.031   6.629  0.3606 -3.9921 -1.5118
  382MOL0     H50378   4.594   8.179   6.400 -1.6301 -0.4821  3.0951
  382MOL0     H50379   4.725   8.295   6.380  0.4504  0.8032  1.0113
  382MOL0     H50380   4.538   8.409   6.420  1.5121  0.7642  0.6868
  382MOL0     H50381   4.610   8.435   6.567  2.4840 -0.3148 -3.1253
  382MOL0     H50382   4.417   8.211   6.533  3.4739 -0.6602  0.3136
  382MOL0     H50383   4.457   8.288   6.685 -2.8214 -1.3464  0.2633
  382MOL0     H50384   4.336   8.497   6.612 -1.3455 -1.0487  1.7192
  382MOL0     H50385   4.230   8.364   6.617  0.0072 -2.2573 -2.0289
  382MOL0     H50386   4.219   8.339   6.196  0.5497 -0.0587 -0.2945
  382MOL0     H50387   3.986   8.372   6.095 -1.4898  1.7704 -0.6906
  382MOL0     H50388   3.562   8.267   6.061 -1.1869  1.2508  0.9348
  382MOL0     H50389   3.370   8.296   5.927  2.1074 -1.2927 -0.5022
  382MOL0     H50390   3.361   8.664   5.670 -3.7259  1.9126 -3.6360
  382MOL0     H50391   3.242   8.689   5.802 -0.9387 -1.5358  0.3721
  382MOL0     H50392   3.142   8.718   5.581 -2.2910 -0.4356  0.9831
  382MOL0     H50393   3.083   8.556   5.623 -0.4212  0.8945 -0.9817
  382MOL0     H50394   3.193   8.444   5.485 -0.0923  0.0028  0.6675
  382MOL0     H50395   3.337   8.548   5.505 -1.4676 -0.8889  1.7680
  382MOL0     H50396   3.098   8.562   5.315  0.4487  0.3724 -3.4353
  382MOL0     H50397   3.192   8.713   5.322 -0.3154 -0.4175  0.9655
  382MOL0     H50398   3.239   8.525   5.134  1.2435 -1.6725 -0.5400
  382MOL0     H50399   3.333   8.450   5.265 -0.4969  1.7217  3.0681
  382MOL0     H50400   3.364   8.722   5.151 -1.2718 -0.6195  2.8340
  382MOL0     H50401   3.472   8.586   5.105 -0.0925 -0.4377 -0.0973
  382MOL0     H50402   3.473   8.756   5.349 -4.3891 -0.5086  0.1950
  382MOL0     H50403   3.517   8.584   5.370  1.7966  2.1365  2.2462
  382MOL0     H50404   3.653   8.779   5.176 -0.9900  0.3786  0.1569
  382MOL0     H50405   3.701   8.608   5.207  0.1686 -1.1683  0.9439
  382MOL0     H50406   3.534   8.674   5.785  0.6217  0.3059 -0.0569
  382MOL0     H50407   3.718   8.643   5.895 -2.1124  0.9701 -0.9608
  382MOL0     H50408   3.878   8.588   6.459 -3.1402 -1.6182  1.8205
  382MOL0     H50409   4.091   8.537   6.550 -1.3823  1.4777  0.2317
  382MOL0     H50410   4.669   7.661   7.611 -0.4012  1.7240 -1.6474
  382MOL0     H50411   4.646   7.720   7.834 -0.8799 -0.0845  0.9202
  382MOL0     H50412   4.573   7.606   8.298 -1.4366 -1.3795 -5.6209
  382MOL0     H50413   4.481   7.612   8.529  0.3442 -0.4734 -0.5890
  382MOL0     H50414   4.122   7.898   8.595 -1.2867 -0.7558  0.8364
  382MOL0     H50415   4.274   7.975   8.620  2.1352 -1.4040 -1.2089
  382MOL0     H50416   4.251   7.852   8.872  1.2602 -0.2502 -0.2735
  382MOL0     H50417   4.179   8.008   8.831 -1.8296  1.0321 -1.9533
  382MOL0     H50418   3.966   7.901   8.769 -0.1646 -0.8687  0.1267
  382MOL0     H50419   4.008   7.892   8.939 -0.4021  1.8325 -0.3675
  382MOL0     H50420   4.026   7.678   8.726 -1.2868 -4.4221  1.5702
  382MOL0     H50421   4.126   7.661   8.871  0.5048  0.4921 -0.7932
  382MOL0     H50422   3.726   7.588   9.005 -1.0887  0.9215 -2.3740
  382MOL0     H50423   4.169   7.877   8.390 -0.2357 -0.8911 -2.0292
  382MOL0     H50424   4.269   7.877   8.176  0.6102  1.6528 -0.2757
  383MOL0     O50425  10.031   0.664   9.165 -0.7452 -1.0184 -0.2185
  383MOL0     C50426   9.987   0.740   9.085  0.3274 -0.4089  0.5536
  383MOL0     O50427  10.034   0.858   9.054 -0.2587  0.0266  0.1393
  383MOL0     C50428  10.155   0.908   9.110  0.4765 -0.6928  0.3432
  383MOL0     C50429  10.130   1.004   9.203 -0.5294 -0.2072 -0.9625
  383MOL0     C50430  10.237   1.093   9.241 -0.2767 -0.4700  0.2504
  383MOL0     C50431  10.372   1.074   9.199 -0.1435  0.0542  0.4498
  383MOL0     O50432  10.477   1.155   9.234 -0.0420 -0.6492 -0.3959
  383MOL0     C50433  10.468   1.264   9.332  0.5052 -0.6589 -0.0473
  383MOL0     C50434  10.546   1.230   9.453 -0.2181 -0.2082  0.3090
  383MOL0     C50435  10.603   1.349   9.520 -0.3915  0.2452  0.0929
  383MOL0     C50436  10.706   1.312   9.630  0.1465  0.5511 -1.0312
  383MOL0     C50437  10.760   1.438   9.712 -0.2108  0.6520  0.1672
  383MOL0     C50438  10.784   1.556   9.624 -0.0066  0.1445  0.4219
  383MOL0     C50439  10.832   1.678   9.715 -0.4909  0.5122  0.1757
  383MOL0     C50440  10.927   1.651   9.832  0.5237 -0.0859  0.1741
  383MOL0     N50441  11.068   1.622   9.785 -0.7494  0.7541 -0.6153
  383MOL0     C50442  11.111   1.511   9.709  0.5717 -0.2123 -0.4356
  383MOL0     C50443  11.236   1.538   9.681  0.7980  0.4832 -0.0391
  383MOL0     C50444  11.323   1.447   9.595  0.1135 -0.2467 -1.5181
  383MOL0     C50445  11.420   1.363   9.675  0.0906  0.3452  0.1884
  383MOL0     C50446  11.415   1.212   9.660  0.2299 -0.1889 -0.7720
  383MOL0     C50447  11.322   1.144   9.757  0.4463  0.3139 -0.0966
  383MOL0     O50448  11.192   1.201   9.750  0.1038  0.0059  0.6442
  383MOL0     C50449  11.108   1.121   9.683 -0.3446 -0.4097  0.5774
  383MOL0     C50450  11.095   1.122   9.548  0.1989 -0.3816  0.0816
  383MOL0     C50451  11.000   1.044   9.484 -0.1495  0.3878 -0.6310
  383MOL0     C50452  10.915   0.958   9.559  0.3378 -0.2581 -0.0799
  383MOL0     C50453  10.809   0.881   9.497  0.5567 -0.2209 -0.9681
  383MOL0     O50454  10.761   0.926   9.380 -0.3913 -0.1879 -0.1816
  383MOL0     C50455  10.677   0.851   9.320 -0.4606  0.7868  0.2178
  383MOL0     C50456  10.571   0.777   9.375 -0.7655  0.5003 -0.4065
  383MOL0     C50457  10.499   0.677   9.301  0.1953  0.5545  0.3085
  383MOL0     C50458  10.537   0.654   9.169 -0.1742 -0.0511  0.2466
  383MOL0     O50459  10.482   0.552   9.098 -0.1622 -0.6170  0.0810
  383MOL0     C50460  10.348   0.518   9.132 -0.0199 -0.4320 -0.2257
  383MOL0     C50461  10.282   0.441   9.026  0.5531  0.1109  0.2068
  383MOL0     C50462  10.266   0.532   8.907 -0.5862  0.2072 -0.6512
  383MOL0     C50463  10.199   0.457   8.788  0.0817 -0.8487 -0.5570
  383MOL0     C50464  10.169   0.541   8.665 -1.3110 -0.1816  0.3281
  383MOL0     C50465  10.066   0.467   8.580 -0.6570  0.8133  0.2803
  383MOL0     C50466  10.024   0.555   8.457 -0.3915  0.5147 -1.0831
  383MOL0     C50467   9.905   0.486   8.399  0.5588  0.8189  0.8777
  383MOL0    Cl50468   9.853   0.588   8.263  0.0462 -0.3934 -0.1494
  383MOL0     C50469  10.635   0.731   9.110 -0.0352  0.0593 -1.2746
  383MOL0     C50470  10.705   0.826   9.187 -0.1984  0.2278 -0.2910
  383MOL0     O50471  10.767   0.780   9.562 -0.0366  0.6547  0.0227
  383MOL0     C50472  10.916   0.972   9.701  0.4932  0.5149  0.0992
  383MOL0     C50473  11.021   1.034   9.763  0.6632 -0.3638  0.1829
  383MOL0     N50474  11.266   1.656   9.736 -0.5940 -0.1575  0.2646
  383MOL0     N50475  11.163   1.711   9.796 -1.4077 -0.9568 -0.5351
  383MOL0     C50476  10.389   0.964   9.113 -0.6337 -0.5976  1.5710
  383MOL0     C50477  10.285   0.885   9.067 -0.5573  0.6231 -0.0796
  383MOL0     C50478   9.883   0.690   8.998  0.2420 -0.0973 -0.2549
  383MOL0     C50479   9.824   0.768   8.897 -0.2461  0.0693 -0.7251
  383MOL0     C50480   9.711   0.717   8.832  0.1037  0.4705 -0.0501
  383MOL0     C50481   9.672   0.584   8.840  0.1160  0.7677 -0.9885
  383MOL0     O50482   9.565   0.511   8.785  0.2479 -0.2887  0.2804
  383MOL0     C50483   9.589   0.484   8.643  0.2294  0.2609  0.1701
  383MOL0     C50484   9.451   0.471   8.572 -0.2096  0.3303  0.0955
  383MOL0     C50485   9.472   0.476   8.419 -0.0205 -0.5639 -0.3732
  383MOL0     C50486   9.337   0.463   8.331  0.0247 -0.8371  0.8217
  383MOL0     C50487   9.368   0.490   8.193 -0.3233 -0.1863  0.6268
  383MOL0     C50488   9.395   0.524   8.075  0.8237  0.4010  0.0610
  383MOL0     C50489   9.746   0.501   8.927  0.9817 -0.0232 -0.4533
  383MOL0     C50490   9.851   0.555   9.006  0.3541  0.0385 -0.1350
  383MOL0     H50491  10.030   1.037   9.227 -0.4337 -0.2755 -0.4744
  383MOL0     H50492  10.215   1.179   9.304  1.7705  0.8356 -0.6826
  383MOL0     H50493  10.368   1.296   9.364 -0.1972 -0.2072 -2.4934
  383MOL0     H50494  10.520   1.351   9.290 -0.9565  1.0966  1.5879
  383MOL0     H50495  10.619   1.155   9.420  0.0464  1.5993 -3.7425
  383MOL0     H50496  10.474   1.189   9.524 -0.2048  0.9004  0.9838
  383MOL0     H50497  10.520   1.404   9.565 -1.2736  2.2410 -3.5621
  383MOL0     H50498  10.653   1.400   9.437  2.3432  0.6285  1.8266
  383MOL0     H50499  10.652   1.247   9.699  0.7100  0.8580 -0.2856
  383MOL0     H50500  10.790   1.250   9.597  1.9724 -0.4590  4.4551
  383MOL0     H50501  10.852   1.404   9.760  0.3533  2.8825  0.7880
  383MOL0     H50502  10.684   1.464   9.786 -2.1555 -0.8389 -1.2017
  383MOL0     H50503  10.705   1.589   9.557  0.5487  0.0329 -0.2929
  383MOL0     H50504  10.868   1.532   9.559  0.6018 -3.3919  2.2801
  383MOL0     H50505  10.885   1.752   9.654 -1.5769 -0.7540 -2.4836
  383MOL0     H50506  10.733   1.714   9.742 -1.8739 -1.4609 -1.8656
  383MOL0     H50507  10.888   1.561   9.881 -1.0083 -1.5255 -3.3580
  383MOL0     H50508  10.910   1.731   9.904 -3.0200  0.2201 -0.8014
  383MOL0     H50509  11.053   1.423   9.686 -4.4299  1.3972  4.0380
  383MOL0     H50510  11.387   1.506   9.528  0.6086  1.2865  0.2067
  383MOL0     H50511  11.260   1.389   9.528 -1.0029 -0.1175 -0.6037
  383MOL0     H50512  11.409   1.384   9.782 -2.1985  2.5409 -0.3848
  383MOL0     H50513  11.520   1.406   9.672 -0.3143  1.2622 -1.5598
  383MOL0     H50514  11.401   1.183   9.555 -0.0139 -0.9698 -0.5256
  383MOL0     H50515  11.519   1.189   9.686 -0.6282 -1.1243  2.1631
  383MOL0     H50516  11.358   1.163   9.859 -2.4318  0.8867  0.8992
  383MOL0     H50517  11.317   1.036   9.744  2.2054  0.1105  0.5388
  383MOL0     H50518  11.138   1.203   9.491  0.7710 -0.9352 -0.2763
  383MOL0     H50519  10.982   1.060   9.378  2.9854  0.4684 -1.2465
  383MOL0     H50520  10.541   0.797   9.478  2.7324  0.5796  0.7030
  383MOL0     H50521  10.414   0.633   9.352  0.5885  0.8465  1.2528
  383MOL0     H50522  10.278   0.599   9.157 -0.9608 -1.9750  2.4793
  383MOL0     H50523  10.359   0.466   9.227 -3.5787  3.0617  2.4702
  383MOL0     H50524  10.184   0.415   9.066 -0.7762  0.8629 -2.3412
  383MOL0     H50525  10.333   0.347   9.001 -1.5599 -1.0232 -0.0726
  383MOL0     H50526  10.363   0.562   8.868  0.0544 -0.0301  0.7320
  383MOL0     H50527  10.218   0.625   8.939 -1.4483 -1.0559  1.9954
  383MOL0     H50528  10.271   0.382   8.757 -0.4786 -1.0333 -1.4642
  383MOL0     H50529  10.104   0.419   8.828 -1.0818  0.3087 -2.0817
  383MOL0     H50530  10.261   0.552   8.607 -0.7843 -0.7731  1.0261
  383MOL0     H50531  10.130   0.639   8.695  3.4829  2.2281 -0.4728
  383MOL0     H50532   9.985   0.442   8.649 -0.7780 -0.4012 -0.2775
  383MOL0     H50533  10.100   0.373   8.536  0.8828  0.8852  1.2323
  383MOL0     H50534   9.998   0.652   8.502  1.4196  0.1967  0.8211
  383MOL0     H50535  10.103   0.563   8.382 -2.2983 -0.5665 -3.3242
  383MOL0     H50536   9.828   0.481   8.477  1.1499 -0.2562  1.4274
  383MOL0     H50537   9.930   0.383   8.369 -0.7839  0.9358 -0.7153
  383MOL0     H50538  10.669   0.713   9.008  2.0839  3.3042 -1.2835
  383MOL0     H50539  10.794   0.881   9.157  0.0917  0.1846  0.4597
  383MOL0     H50540  10.850   0.916   9.767  1.8054 -1.8687 -0.5088
  383MOL0     H50541  11.034   1.025   9.871  0.3322 -2.5423  0.0896
  383MOL0     H50542  10.489   0.942   9.077 -0.1694 -1.2619  3.1875
  383MOL0     H50543  10.316   0.805   9.001  2.5054  1.7523 -0.1803
  383MOL0     H50544   9.868   0.867   8.894  3.0636 -1.2811 -0.5951
  383MOL0     H50545   9.658   0.781   8.761 -0.6269 -1.0347 -0.8967
  383MOL0     H50546   9.649   0.398   8.613  0.8910  0.8887 -0.3026
  383MOL0     H50547   9.640   0.573   8.608  3.1390 -1.0147  0.9017
  383MOL0     H50548   9.417   0.374   8.608  1.0792 -0.7060 -1.3326
  383MOL0     H50549   9.381   0.547   8.609 -0.8533 -1.2367  2.2456
  383MOL0     H50550   9.541   0.397   8.388 -0.3951 -0.1997 -2.2957
  383MOL0     H50551   9.513   0.576   8.403 -0.8923  0.2150  1.8230
  383MOL0     H50552   9.280   0.371   8.346  1.6936 -1.7840  1.6919
  383MOL0     H50553   9.273   0.546   8.359 -3.7300 -2.6513 -1.5669
  383MOL0     H50554   9.409   0.550   7.973 -1.2886 -0.4692 -0.5060
  383MOL0     H50555   9.708   0.402   8.948 -0.2927 -0.0833 -2.6736
  383MOL0     H50556   9.889   0.487   9.081  0.4212 -3.0568 -2.7578
  384MOL0     O50557   5.774   9.545   1.538 -0.4202 -0.3066 -0.4822
  384MOL0     C50558   5.805   9.613   1.635  0.7978 -0.8744 -0.3879
  384MOL0     O50559   5.719   9.649   1.746  0.4019  0.0655  0.0834
  384MOL0     C50560   5.596   9.596   1.740 -0.1256  0.5935 -0.1031
  384MOL0     C50561   5.512   9.605   1.632 -0.3703  0.2599  0.0560
  384MOL0     C50562   5.391   9.543   1.626  0.0941  0.7418 -0.0412
  384MOL0     C50563   5.341   9.473   1.737  0.5490  0.3707 -1.2244
  384MOL0     O50564   5.217   9.411   1.745 -0.7281  0.6173 -0.3786
  384MOL0     C50565   5.110   9.424   1.656  0.7657  0.2623  0.4196
  384MOL0     C50566   5.025   9.304   1.658 -0.4839  0.9432  1.2152
  384MOL0     C50567   4.967   9.285   1.796 -0.0034  0.5357 -0.1495
  384MOL0     C50568   4.892   9.144   1.806 -0.1176 -0.4221 -0.4894
  384MOL0     C50569   4.806   9.118   1.931  0.3971 -0.5151 -0.1478
  384MOL0     C50570   4.879   9.072   2.054  0.5423 -0.2153  0.0674
  384MOL0     C50571   4.779   9.021   2.162  0.8112 -0.0824 -0.2625
  384MOL0     C50572   4.774   8.863   2.141 -0.0658 -0.3360  0.2068
  384MOL0     N50573   4.686   8.788   2.236  0.0336 -0.2396  0.0348
  384MOL0     C50574   4.578   8.714   2.205 -0.6113 -0.6800  0.5374
  384MOL0     C50575   4.539   8.660   2.323  0.0966  0.1298  0.0186
  384MOL0     C50576   4.435   8.556   2.341  0.7151  1.0551 -0.1717
  384MOL0     C50577   4.298   8.609   2.305  0.4942 -0.1600  0.6209
  384MOL0     C50578   4.188   8.517   2.359  0.0659  0.7908 -1.0030
  384MOL0     C50579   4.065   8.517   2.274  0.8655  0.0965 -0.5438
  384MOL0     O50580   3.952   8.459   2.341  0.3421 -0.0776 -0.2248
  384MOL0     C50581   3.830   8.428   2.272  0.3913 -0.5157 -0.1545
  384MOL0     C50582   3.800   8.489   2.150 -0.1053  0.6292  0.7436
  384MOL0     C50583   3.676   8.464   2.090  0.6986  0.9235 -0.5005
  384MOL0     C50584   3.581   8.383   2.142 -0.6483  1.1829  0.4112
  384MOL0     C50585   3.453   8.343   2.068  1.6433 -0.3336  1.2503
  384MOL0     O50586   3.364   8.279   2.140  0.1960  0.0094  0.9719
  384MOL0     C50587   3.260   8.233   2.071 -0.3153 -0.0742 -0.7424
  384MOL0     C50588   3.263   8.174   1.944 -0.8165  0.4416 -0.5010
  384MOL0     C50589   3.153   8.140   1.877 -0.3558 -0.0009  0.4515
  384MOL0     C50590   3.026   8.166   1.929  0.0045 -0.1219 -1.1268
  384MOL0     O50591   2.903   8.125   1.875 -0.3178  0.0078 -0.5361
  384MOL0     C50592   2.906   8.061   1.743 -0.6538  0.1045 -0.3528
  384MOL0     C50593   2.763   8.002   1.714 -0.1422 -0.1066 -0.7603
  384MOL0     C50594   2.749   7.951   1.577  0.0663  0.3437  0.4584
  384MOL0     C50595   2.613   7.891   1.553  0.1375  0.6284  0.9986
  384MOL0     C50596   2.601   7.822   1.417 -0.2351 -0.5683 -0.6979
  384MOL0     C50597   2.616   7.917   1.301 -0.1179 -0.1446 -0.5923
  384MOL0     C50598   2.578   7.825   1.193  0.6830 -0.4406  0.6018
  384MOL0     C50599   2.566   7.889   1.062  0.1724  0.0825 -0.8909
  384MOL0    Cl50600   2.418   7.987   1.064  0.2805  0.3621  0.2434
  384MOL0     C50601   3.020   8.217   2.063  0.2012 -0.4289  0.1534
  384MOL0     C50602   3.135   8.238   2.134 -0.2092 -0.8212  1.0251
  384MOL0     O50603   3.443   8.390   1.951 -0.1107 -0.2388  0.3508
  384MOL0     C50604   3.617   8.322   2.265 -0.3448 -0.1602 -0.1926
  384MOL0     C50605   3.733   8.352   2.334 -0.0162  0.3323  1.2488
  384MOL0     N50606   4.606   8.723   2.427  0.1942 -0.5805  0.5212
  384MOL0     N50607   4.705   8.792   2.366  0.2634 -0.5017  0.0257
  384MOL0     C50608   5.428   9.454   1.847  0.1584  0.9200  0.2859
  384MOL0     C50609   5.550   9.515   1.841 -0.5490 -0.7909  0.0473
  384MOL0     C50610   5.941   9.666   1.635  0.2192 -0.2596 -0.6424
  384MOL0     C50611   6.028   9.640   1.524  0.7424  0.7737  0.4853
  384MOL0     C50612   6.158   9.696   1.526 -0.5537  0.0021  0.1563
  384MOL0     C50613   6.208   9.771   1.630 -0.2998  0.3186  0.4386
  384MOL0     O50614   6.332   9.822   1.651 -0.1739  0.3650  0.0576
  384MOL0     C50615   6.434   9.785   1.558  0.0708 -0.6545 -0.4363
  384MOL0     C50616   6.579   9.835   1.607  0.4951 -0.2622 -0.3455
  384MOL0     C50617   6.571   9.992   1.607 -0.1514  1.3649  0.9261
  384MOL0     C50618   6.705  10.057   1.648  0.3371 -0.0641  0.6561
  384MOL0     C50619   6.703  10.100   1.789  0.2373  0.7997 -0.8715
  384MOL0     C50620   6.692  10.141   1.899  0.0158 -0.3436  0.0941
  384MOL0     C50621   6.124   9.798   1.737  0.8768 -0.1781  0.0154
  384MOL0     C50622   5.989   9.750   1.740 -0.0534  0.3543 -0.4293
  384MOL0     H50623   5.555   9.659   1.548  0.9943 -0.8482  0.0102
  384MOL0     H50624   5.342   9.557   1.530 -0.0793  0.9406  0.0730
  384MOL0     H50625   5.149   9.443   1.556  1.2710  2.3830  0.9841
  384MOL0     H50626   5.055   9.512   1.689  0.3948 -0.8430  3.0550
  384MOL0     H50627   5.091   9.220   1.633  0.3395  1.4798  1.5721
  384MOL0     H50628   4.940   9.321   1.592  0.8865 -4.7165 -2.7995
  384MOL0     H50629   4.884   9.355   1.811 -0.8742 -1.0074  3.2669
  384MOL0     H50630   5.041   9.299   1.876 -1.6981 -0.0451  1.6048
  384MOL0     H50631   4.831   9.129   1.717  1.5185 -0.6579 -1.6184
  384MOL0     H50632   4.978   9.077   1.810  1.5329  1.6211  0.7791
  384MOL0     H50633   4.747   9.030   1.903  0.4240 -1.9588  3.6763
  384MOL0     H50634   4.740   9.202   1.953  2.2920  1.1022 -0.4088
  384MOL0     H50635   4.948   9.149   2.090  3.4623 -2.2274 -0.7852
  384MOL0     H50636   4.954   9.005   2.010  2.3678  0.7689  1.5202
  384MOL0     H50637   4.828   9.030   2.260 -0.9663 -2.2924  0.9313
  384MOL0     H50638   4.679   9.064   2.169  0.0116 -1.6616 -1.3239
  384MOL0     H50639   4.866   8.804   2.146  0.4977  0.5697  1.0770
  384MOL0     H50640   4.718   8.846   2.049 -0.5821 -2.4754  0.8666
  384MOL0     H50641   4.529   8.698   2.109 -0.3934  2.5813 -0.2638
  384MOL0     H50642   4.433   8.532   2.448  3.8204 -0.0518 -0.2450
  384MOL0     H50643   4.453   8.454   2.305  2.4465  0.3679  2.2958
  384MOL0     H50644   4.311   8.618   2.196 -1.8077  3.9727  0.4750
  384MOL0     H50645   4.288   8.711   2.343  2.9316  1.2565 -2.1381
  384MOL0     H50646   4.231   8.420   2.388 -1.0375  0.1961 -1.3058
  384MOL0     H50647   4.155   8.569   2.450  0.7181  0.5591 -0.6214
  384MOL0     H50648   4.088   8.459   2.184  0.3941  0.2817 -0.7909
  384MOL0     H50649   4.044   8.622   2.251 -0.1836  0.0885  0.2923
  384MOL0     H50650   3.871   8.552   2.097 -1.4621  1.3499 -0.2722
  384MOL0     H50651   3.640   8.526   2.008 -2.7703 -0.2077 -0.0072
  384MOL0     H50652   3.363   8.144   1.914 -0.7990 -0.9210  0.7979
  384MOL0     H50653   3.159   8.097   1.778 -2.5890  2.1121 -0.7156
  384MOL0     H50654   2.979   7.979   1.744 -0.6135  0.1065 -1.6322
  384MOL0     H50655   2.943   8.128   1.665  2.5986 -0.1346  0.8235
  384MOL0     H50656   2.681   8.071   1.734  1.6023  1.3839  1.8736
  384MOL0     H50657   2.749   7.920   1.785 -1.2819  1.3088  0.7149
  384MOL0     H50658   2.822   7.878   1.543 -1.0629 -1.2386  1.3360
  384MOL0     H50659   2.763   8.040   1.514 -2.1265 -0.8165 -1.8887
  384MOL0     H50660   2.593   7.809   1.622  0.7983  1.1528  1.8294
  384MOL0     H50661   2.538   7.971   1.561 -1.1308 -0.6281  2.1557
  384MOL0     H50662   2.500   7.779   1.416 -1.3817  1.9445  0.3401
  384MOL0     H50663   2.677   7.743   1.410  0.7295  0.2745  0.1417
  384MOL0     H50664   2.720   7.948   1.283  0.2727 -0.6248  0.7519
  384MOL0     H50665   2.544   7.998   1.315  0.6058  0.7019 -1.5924
  384MOL0     H50666   2.642   7.736   1.182 -0.3158 -1.1453  0.3161
  384MOL0     H50667   2.481   7.776   1.210  2.2510 -4.5965 -0.9581
  384MOL0     H50668   2.564   7.808   0.989  2.3830 -1.3486  0.5079
  384MOL0     H50669   2.648   7.957   1.034 -0.3783  2.0187  1.7892
  384MOL0     H50670   2.935   8.240   2.126  0.0683 -3.1110  1.0389
  384MOL0     H50671   3.130   8.273   2.237 -1.0857  0.8694  0.4504
  384MOL0     H50672   3.568   8.229   2.290 -0.1721 -0.1922  0.0365
  384MOL0     H50673   3.750   8.301   2.429  0.8008 -0.4264  0.7142
  384MOL0     H50674   5.402   9.395   1.934  1.1768 -0.6503 -0.4359
  384MOL0     H50675   5.622   9.491   1.919  0.1137  0.5859 -0.1085
  384MOL0     H50676   6.003   9.577   1.440 -0.1872  1.5965  0.1214
  384MOL0     H50677   6.223   9.672   1.441 -0.9069 -0.1949 -0.0599
  384MOL0     H50678   6.418   9.839   1.465  0.3951  0.5781  0.1980
  384MOL0     H50679   6.434   9.679   1.530  0.6426 -1.3463  1.9421
  384MOL0     H50680   6.607   9.798   1.706  3.4592  1.7676 -0.2925
  384MOL0     H50681   6.643   9.791   1.531 -1.5597  0.1552 -2.4446
  384MOL0     H50682   6.493  10.025   1.677 -1.0549 -0.2107  0.7159
  384MOL0     H50683   6.543  10.027   1.508 -0.1320  1.0215  0.8001
  384MOL0     H50684   6.784   9.984   1.629  0.2289 -0.3387  1.2163
  384MOL0     H50685   6.724  10.145   1.586  0.7623 -1.7959 -1.7958
  384MOL0     H50686   6.666  10.180   1.996  5.7130  3.1827  0.6841
  384MOL0     H50687   6.158   9.874   1.806  1.0283 -0.9535  0.8130
  384MOL0     H50688   5.929   9.768   1.829  1.6406  0.0112  0.8197
  385MOL0     O50689  10.418   6.861   7.752  0.1853 -0.2902 -0.1871
  385MOL0     C50690  10.354   6.923   7.841 -0.0196  0.2943 -0.6282
  385MOL0     O50691  10.395   6.930   7.965 -0.1774 -0.0231  0.0964
  385MOL0     C50692  10.529   6.905   8.008  1.0060 -0.5866  0.0471
  385MOL0     C50693  10.577   6.975   8.117 -0.6178 -0.7097 -0.3440
  385MOL0     C50694  10.707   6.957   8.160 -0.1134  0.3383  0.7256
  385MOL0     C50695  10.794   6.862   8.093  0.1571 -0.5285  0.4176
  385MOL0     O50696  10.927   6.835   8.126 -0.0210 -0.2221 -0.8202
  385MOL0     C50697  10.973   6.852   8.253  0.0667  0.2920 -0.5526
  385MOL0     C50698  11.038   6.985   8.279 -0.0473 -0.2269  0.9430
  385MOL0     C50699  11.192   6.976   8.274 -0.6901 -0.5845  0.2551
  385MOL0     C50700  11.264   7.107   8.297  0.3079 -0.0701  0.7537
  385MOL0     C50701  11.403   7.069   8.337  0.2086 -0.1876 -0.8392
  385MOL0     C50702  11.472   7.188   8.426  0.5016  0.9859 -0.3576
  385MOL0     C50703  11.607   7.128   8.470 -0.0236 -0.7596  0.4676
  385MOL0     C50704  11.724   7.224   8.460 -0.4663 -0.9753  0.0443
  385MOL0     N50705  11.717   7.297   8.585  0.0744  0.1157 -0.5938
  385MOL0     C50706  11.763   7.244   8.712  0.2106  0.2938  0.2147
  385MOL0     C50707  11.722   7.334   8.808 -0.2138  0.7843  0.5870
  385MOL0     C50708  11.725   7.322   8.962  0.2140 -0.4870 -0.6384
  385MOL0     C50709  11.870   7.337   9.020 -0.1062  0.8253 -0.0089
  385MOL0     C50710  11.901   7.245   9.141 -0.2242 -0.4300  0.4396
  385MOL0     C50711  11.950   7.112   9.087 -1.4612 -0.1550 -0.5730
  385MOL0     O50712  11.853   7.058   9.006 -0.1998  0.4625 -0.9801
  385MOL0     C50713  11.749   6.987   9.056 -0.1922  0.1856 -0.7371
  385MOL0     C50714  11.665   6.936   8.966 -0.2704  0.4688  0.6714
  385MOL0     C50715  11.549   6.874   9.003  0.1471 -0.4034  0.4789
  385MOL0     C50716  11.521   6.858   9.136  0.3028  0.2700  0.1209
  385MOL0     C50717  11.397   6.785   9.175  0.6886 -0.2031  0.0358
  385MOL0     O50718  11.312   6.743   9.067 -0.9357  0.1192  0.4670
  385MOL0     C50719  11.203   6.670   9.068  0.6246  0.1721  0.4322
  385MOL0     C50720  11.160   6.581   9.170  0.8080 -1.0144 -0.2013
  385MOL0     C50721  11.036   6.506   9.160 -0.2821  0.4929  0.2087
  385MOL0     C50722  10.967   6.524   9.038  0.2412  0.2512  0.0656
  385MOL0     O50723  10.858   6.445   9.016 -0.3338 -0.8900 -0.1231
  385MOL0     C50724  10.865   6.311   9.038 -0.6810  0.3270 -0.1372
  385MOL0     C50725  10.744   6.242   8.971 -0.3279  0.4121 -0.1422
  385MOL0     C50726  10.618   6.276   9.044 -0.7564  0.6268  1.0038
  385MOL0     C50727  10.497   6.202   8.982 -0.4959  0.3165 -0.0468
  385MOL0     C50728  10.369   6.221   9.071  0.5262 -0.4606  0.7859
  385MOL0     C50729  10.239   6.220   8.989 -0.6028 -0.1579  1.1314
  385MOL0     C50730  10.129   6.174   9.088  0.3173 -0.3296  0.5561
  385MOL0     C50731   9.998   6.175   9.017  0.4607 -0.6299 -0.3090
  385MOL0    Cl50732   9.970   6.028   8.917  0.6624  0.2250  0.1444
  385MOL0     C50733  11.003   6.610   8.941  0.1072 -0.0081 -0.2972
  385MOL0     C50734  11.123   6.679   8.948  0.1806  0.2721  0.4921
  385MOL0     O50735  11.374   6.773   9.299  0.0522 -0.3428 -0.2479
  385MOL0     C50736  11.607   6.914   9.230 -0.2517 -0.8242 -1.0069
  385MOL0     C50737  11.713   6.986   9.195  1.2349 -0.3312  0.1881
  385MOL0     N50738  11.661   7.440   8.744  0.1093  0.4578  0.4159
  385MOL0     N50739  11.654   7.418   8.612  0.3848  0.5066  0.2945
  385MOL0     C50740  10.735   6.778   7.997 -0.3159 -0.0842 -0.3297
  385MOL0     C50741  10.603   6.800   7.959  0.4953  0.1443 -0.1260
  385MOL0     C50742  10.229   6.995   7.811  0.4411 -0.4859 -1.2541
  385MOL0     C50743  10.137   7.048   7.903  0.8624  0.5497 -0.7067
  385MOL0     C50744  10.024   7.118   7.856  0.7555  1.2115 -0.0048
  385MOL0     C50745   9.999   7.138   7.718  0.5276  1.1821 -0.4554
  385MOL0     O50746   9.891   7.203   7.673 -0.1175 -0.3933  0.2253
  385MOL0     C50747   9.826   7.309   7.747  0.6243 -0.0762  0.0367
  385MOL0     C50748   9.744   7.395   7.648 -0.0993 -0.0457 -0.2588
  385MOL0     C50749   9.833   7.483   7.561  0.9894 -0.1145 -0.2221
  385MOL0     C50750   9.906   7.602   7.637  0.1230  0.4260 -0.2130
  385MOL0     C50751   9.800   7.689   7.679  0.0557 -0.3351  0.4564
  385MOL0     C50752   9.712   7.767   7.718 -0.8834  0.3856  0.1374
  385MOL0     C50753  10.088   7.084   7.625 -0.2524  0.5549  0.2141
  385MOL0     C50754  10.200   7.014   7.670 -0.3059  0.4881 -0.5600
  385MOL0     H50755  10.505   7.049   8.148  0.3651  0.3077 -0.4423
  385MOL0     H50756  10.744   7.023   8.238  2.4012  1.6085 -1.3683
  385MOL0     H50757  11.039   6.771   8.284 -2.2460 -1.5956 -0.2780
  385MOL0     H50758  10.892   6.854   8.326  1.0528  1.1160  0.5559
  385MOL0     H50759  11.012   7.021   8.379 -1.3684 -2.9380  1.6869
  385MOL0     H50760  11.005   7.057   8.203  1.9999  0.1529  0.3656
  385MOL0     H50761  11.228   6.935   8.179  1.6035  1.6668  0.0344
  385MOL0     H50762  11.219   6.904   8.352 -1.3756 -1.1977 -0.0606
  385MOL0     H50763  11.266   7.179   8.215 -1.9391  1.8667  2.2672
  385MOL0     H50764  11.210   7.163   8.374 -1.3554  3.3571 -2.5722
  385MOL0     H50765  11.468   7.056   8.250  2.9056 -0.6609  1.1152
  385MOL0     H50766  11.409   6.984   8.406  3.1500  1.2904  0.9444
  385MOL0     H50767  11.408   7.226   8.507  1.3169 -0.7244  1.1588
  385MOL0     H50768  11.488   7.282   8.371  0.5957  1.3146  0.2217
  385MOL0     H50769  11.603   7.078   8.567 -1.7721 -1.6385 -0.0269
  385MOL0     H50770  11.641   7.048   8.404 -0.3767 -0.0408 -0.6079
  385MOL0     H50771  11.718   7.302   8.383  2.8284 -0.8891 -0.2824
  385MOL0     H50772  11.821   7.173   8.458 -1.1282 -2.5623  3.1006
  385MOL0     H50773  11.818   7.153   8.734 -1.2062 -0.9962 -1.2735
  385MOL0     H50774  11.674   7.235   9.005  0.8068 -0.8790 -0.7035
  385MOL0     H50775  11.674   7.409   9.004  0.9954  0.6896 -2.0265
  385MOL0     H50776  11.884   7.438   9.058  2.2290  0.5624 -0.0070
  385MOL0     H50777  11.940   7.325   8.937 -2.1884  2.0048 -2.0372
  385MOL0     H50778  11.968   7.285   9.218 -0.2987  0.5348  0.0179
  385MOL0     H50779  11.803   7.232   9.187 -1.1367 -4.6419 -2.1430
  385MOL0     H50780  11.995   7.055   9.169  1.4475  3.0264  0.2617
  385MOL0     H50781  12.034   7.133   9.020  0.8067  0.7946  2.3605
  385MOL0     H50782  11.685   6.954   8.860  0.6913  0.4518  0.8394
  385MOL0     H50783  11.482   6.863   8.918 -0.3137  1.7361  0.5152
  385MOL0     H50784  11.235   6.556   9.244 -0.3962 -2.1915  0.6665
  385MOL0     H50785  11.016   6.435   9.240 -0.1123  0.0569 -0.1302
  385MOL0     H50786  10.872   6.299   9.146  1.3935  3.7503  0.2817
  385MOL0     H50787  10.948   6.268   8.980 -1.9563 -1.5807 -0.6323
  385MOL0     H50788  10.758   6.134   8.965  1.1791  0.6638 -2.8199
  385MOL0     H50789  10.734   6.276   8.867  0.3483  3.3320  0.6555
  385MOL0     H50790  10.610   6.385   9.047  0.8617  0.7607  4.0014
  385MOL0     H50791  10.628   6.247   9.149  2.7248  1.3451  0.9931
  385MOL0     H50792  10.487   6.229   8.876  2.1478  2.6770  0.1830
  385MOL0     H50793  10.514   6.094   8.980  0.0791  0.4098 -0.3016
  385MOL0     H50794  10.369   6.314   9.130 -4.5285  0.7610 -0.6264
  385MOL0     H50795  10.366   6.136   9.139 -2.0895 -2.5675 -1.7091
  385MOL0     H50796  10.243   6.141   8.913  3.7140  1.0166 -0.1320
  385MOL0     H50797  10.227   6.312   8.931  1.2949  0.2155  1.2694
  385MOL0     H50798  10.144   6.073   9.127  0.1004 -1.1032 -1.2704
  385MOL0     H50799  10.125   6.244   9.172  0.3562  1.2800 -0.7250
  385MOL0     H50800   9.980   6.270   8.965 -0.7470 -0.4877  0.3468
  385MOL0     H50801   9.920   6.156   9.091  2.3200 -3.8802  1.0073
  385MOL0     H50802  10.937   6.612   8.854 -2.2316  0.8195  1.3860
  385MOL0     H50803  11.157   6.735   8.862 -1.8397 -0.5800 -0.9590
  385MOL0     H50804  11.586   6.900   9.336 -0.1453  2.2378 -0.5004
  385MOL0     H50805  11.774   7.027   9.275 -0.0240 -1.0919  1.5925
  385MOL0     H50806  10.802   6.703   7.956 -0.5816 -1.7528  2.1052
  385MOL0     H50807  10.563   6.731   7.885  2.3053  0.9032 -1.9206
  385MOL0     H50808  10.139   7.040   8.011 -1.4774 -0.7374 -0.6971
  385MOL0     H50809   9.950   7.150   7.929  2.4198  0.4014  2.1411
  385MOL0     H50810   9.897   7.374   7.799  1.7268  1.1385 -2.7381
  385MOL0     H50811   9.760   7.266   7.822 -0.3790  2.3500  0.6214
  385MOL0     H50812   9.685   7.327   7.586 -3.2451  3.0186 -0.8786
  385MOL0     H50813   9.676   7.456   7.708 -0.0532 -0.7246  0.4966
  385MOL0     H50814   9.773   7.527   7.480  2.2989 -0.4711 -1.4269
  385MOL0     H50815   9.912   7.437   7.501  1.1631 -0.4215  0.2376
  385MOL0     H50816   9.959   7.553   7.719 -0.8411 -5.9218 -2.7881
  385MOL0     H50817   9.981   7.645   7.571 -1.1381 -0.0878 -2.0765
  385MOL0     H50818   9.640   7.842   7.744 -1.6695  0.4410 -2.0060
  385MOL0     H50819  10.061   7.090   7.520 -2.5338 -2.0385  0.5315
  385MOL0     H50820  10.273   6.990   7.594  0.5026  0.8051  0.1104
  386MOL0     O50821   8.621   3.615   4.453  0.4920  0.3251  0.1209
  386MOL0     C50822   8.725   3.570   4.415  0.0149  0.2318  0.2694
  386MOL0     O50823   8.757   3.557   4.283  0.4295  0.2998 -0.0895
  386MOL0     C50824   8.659   3.538   4.182  0.5034  0.0354 -0.3608
  386MOL0     C50825   8.682   3.587   4.059 -0.6013 -0.5875  0.5413
  386MOL0     C50826   8.586   3.569   3.961 -0.3405 -0.1642 -0.1506
  386MOL0     C50827   8.453   3.512   3.987 -0.2418 -0.9189  0.9779
  386MOL0     O50828   8.358   3.485   3.891 -0.3066  0.1026  0.0005
  386MOL0     C50829   8.330   3.591   3.798  0.9166  0.2462 -0.1383
  386MOL0     C50830   8.209   3.526   3.716 -0.4250  0.4052 -0.0856
  386MOL0     C50831   8.180   3.560   3.571  0.6461 -0.1736 -0.3954
  386MOL0     C50832   8.098   3.687   3.545  0.7003  0.0903  0.0867
  386MOL0     C50833   8.030   3.697   3.405  0.0981 -0.2653 -0.3429
  386MOL0     C50834   7.952   3.827   3.397  0.0786  0.3301 -0.0217
  386MOL0     C50835   7.890   3.851   3.255 -0.4686 -0.3243 -0.5462
  386MOL0     C50836   7.745   3.918   3.265 -0.7872 -0.2604  0.3077
  386MOL0     N50837   7.760   4.069   3.275 -0.3459 -0.3678  0.0643
  386MOL0     C50838   7.820   4.138   3.171 -0.2605  0.2624 -0.0602
  386MOL0     C50839   7.799   4.261   3.206  0.1535  0.2988 -0.5170
  386MOL0     C50840   7.813   4.378   3.120 -1.4155  0.0250  0.1773
  386MOL0     C50841   7.948   4.382   3.032 -0.8404 -1.0752 -0.1189
  386MOL0     C50842   8.077   4.410   3.111 -0.9291  0.2605  0.0063
  386MOL0     C50843   8.108   4.316   3.224 -0.1890 -0.7021  0.1101
  386MOL0     O50844   8.150   4.185   3.183  0.4873 -0.5300 -0.6845
  386MOL0     C50845   8.227   4.131   3.286  0.2863  0.1230 -0.1407
  386MOL0     C50846   8.180   4.128   3.421 -0.2604 -0.5468  0.3289
  386MOL0     C50847   8.271   4.072   3.514 -0.4635  0.1865  0.9384
  386MOL0     C50848   8.391   4.011   3.476 -0.1663  0.0241  0.0023
  386MOL0     C50849   8.484   3.954   3.563  0.6465  0.7576 -0.1519
  386MOL0     O50850   8.521   3.816   3.538 -0.3563 -0.0416 -0.0536
  386MOL0     C50851   8.635   3.761   3.591  0.9357 -0.2061 -0.6484
  386MOL0     C50852   8.727   3.805   3.681 -0.2605 -0.8755  0.3508
  386MOL0     C50853   8.836   3.734   3.727  0.7478 -0.3493  0.1742
  386MOL0     C50854   8.860   3.608   3.667 -0.1122  0.1966 -0.1648
  386MOL0     O50855   8.983   3.546   3.683  0.6140 -0.6653 -0.4712
  386MOL0     C50856   9.043   3.565   3.815  0.4521 -0.3436  0.4080
  386MOL0     C50857   9.118   3.432   3.838 -0.8272  0.3025 -0.2057
  386MOL0     C50858   9.219   3.427   3.958  0.7829 -0.2952  0.0162
  386MOL0     C50859   9.339   3.523   3.921 -0.5835 -0.6904 -0.0740
  386MOL0     C50860   9.444   3.534   4.030 -1.3273  0.3230  0.1943
  386MOL0     C50861   9.539   3.398   4.052 -0.2642 -0.4414  0.3684
  386MOL0     C50862   9.665   3.429   4.134 -0.5045 -0.9503  0.7340
  386MOL0     C50863   9.746   3.308   4.156  0.1160 -0.5975 -0.0758
  386MOL0    Cl50864   9.663   3.200   4.272 -0.5576  0.5000  0.2818
  386MOL0     C50865   8.774   3.561   3.568  0.0241  0.3558 -0.8364
  386MOL0     C50866   8.659   3.634   3.536 -0.5251 -0.0545 -0.4606
  386MOL0     O50867   8.530   4.033   3.642 -0.3163  0.2170 -0.5257
  386MOL0     C50868   8.431   4.014   3.342 -0.9370  0.5840 -0.1784
  386MOL0     C50869   8.349   4.082   3.246  0.1302  0.2843 -1.0963
  386MOL0     N50870   7.726   4.267   3.321 -0.0133 -0.2258  0.1595
  386MOL0     N50871   7.702   4.145   3.366 -0.4006 -0.0333 -0.1869
  386MOL0     C50872   8.435   3.478   4.117 -0.0865  0.1427 -0.2285
  386MOL0     C50873   8.539   3.485   4.210  0.4502 -0.9404  0.9191
  386MOL0     C50874   8.820   3.525   4.520 -0.2263  1.0945  0.5766
  386MOL0     C50875   8.935   3.446   4.490 -0.3819  0.8149  0.2493
  386MOL0     C50876   9.016   3.386   4.584 -0.2256 -0.3322  0.2179
  386MOL0     C50877   8.984   3.401   4.718 -0.2459 -0.0656  0.3885
  386MOL0     O50878   9.041   3.326   4.817  0.2134  0.8694 -0.9120
  386MOL0     C50879   9.143   3.239   4.786 -0.0685 -0.6211 -0.6585
  386MOL0     C50880   9.212   3.192   4.914  0.5653 -0.0001 -0.5536
  386MOL0     C50881   9.242   3.301   5.024  0.2399  0.4829 -0.2975
  386MOL0     C50882   9.279   3.228   5.159 -0.0279 -0.5050  1.5715
  386MOL0     C50883   9.272   3.335   5.266  0.7042  0.0877 -0.3290
  386MOL0     C50884   9.298   3.427   5.345 -0.6903 -0.6773 -0.4715
  386MOL0     C50885   8.868   3.478   4.758 -0.3442  0.1699 -0.5061
  386MOL0     C50886   8.792   3.541   4.655 -0.5655  1.0016  0.1076
  386MOL0     H50887   8.786   3.608   4.035  0.4229 -4.0431  1.3453
  386MOL0     H50888   8.620   3.590   3.860  0.6438  2.4312  0.6369
  386MOL0     H50889   8.417   3.604   3.733 -0.0075 -0.3123 -1.5485
  386MOL0     H50890   8.297   3.682   3.848 -0.5735 -0.8616  0.9686
  386MOL0     H50891   8.119   3.555   3.772 -0.3033  0.7058 -0.0392
  386MOL0     H50892   8.223   3.419   3.731  3.5742  1.0644  2.6083
  386MOL0     H50893   8.132   3.479   3.515 -1.5712 -0.2268  1.4369
  386MOL0     H50894   8.273   3.568   3.515  1.0026 -0.3308  0.1644
  386MOL0     H50895   8.010   3.687   3.610 -1.3523 -0.8102 -2.4815
  386MOL0     H50896   8.156   3.774   3.577 -1.0834  0.9377  1.1436
  386MOL0     H50897   7.949   3.624   3.390  1.6572 -2.0428 -0.4319
  386MOL0     H50898   8.107   3.683   3.329  2.0596  0.5877  1.3934
  386MOL0     H50899   8.008   3.919   3.416  0.2610 -0.0937  1.6136
  386MOL0     H50900   7.877   3.828   3.476 -1.6429 -0.8083 -1.5596
  386MOL0     H50901   7.964   3.907   3.197 -0.6567  1.3031  0.6936
  386MOL0     H50902   7.871   3.752   3.212 -1.0576 -0.2877 -0.3909
  386MOL0     H50903   7.689   3.874   3.348  0.7863  1.0698  2.1774
  386MOL0     H50904   7.687   3.900   3.174  0.3482  1.2400 -0.7707
  386MOL0     H50905   7.866   4.091   3.085  2.2068  0.3645  1.1097
  386MOL0     H50906   7.806   4.474   3.173 -0.5936  0.3484 -0.2772
  386MOL0     H50907   7.731   4.387   3.049 -1.2486 -0.1941 -0.0464
  386MOL0     H50908   7.946   4.473   2.971  1.8356 -0.0349  1.1703
  386MOL0     H50909   7.949   4.293   2.969 -1.3505 -0.9234 -0.3506
  386MOL0     H50910   8.157   4.412   3.036 -0.4127 -3.7667  0.2551
  386MOL0     H50911   8.068   4.514   3.143 -0.7081 -0.2889  1.9559
  386MOL0     H50912   8.018   4.300   3.285  0.0803 -2.8768  0.0238
  386MOL0     H50913   8.185   4.361   3.287  3.2202 -3.3902 -1.8399
  386MOL0     H50914   8.097   4.184   3.461 -0.2373  1.5114 -2.2576
  386MOL0     H50915   8.242   4.070   3.618  0.0416  0.3048  1.0837
  386MOL0     H50916   8.721   3.910   3.709 -2.3859  0.2353 -3.5294
  386MOL0     H50917   8.917   3.776   3.785  0.8537  0.9231 -0.8542
  386MOL0     H50918   8.967   3.583   3.892  0.8504  1.0249  0.5010
  386MOL0     H50919   9.118   3.644   3.805  2.6133 -2.2516  0.6438
  386MOL0     H50920   9.179   3.402   3.752 -0.3583  2.4417 -0.6879
  386MOL0     H50921   9.046   3.350   3.849 -1.0033  0.5149  0.2563
  386MOL0     H50922   9.262   3.327   3.969  0.3495 -0.6616 -1.4854
  386MOL0     H50923   9.176   3.470   4.049 -1.2840 -0.7414 -0.7026
  386MOL0     H50924   9.388   3.491   3.829 -1.6226  3.6742 -2.4473
  386MOL0     H50925   9.289   3.620   3.914 -0.9767 -0.7023  1.9051
  386MOL0     H50926   9.393   3.558   4.124  1.3591  1.1319  1.5455
  386MOL0     H50927   9.516   3.615   4.015 -0.0786 -0.5312  1.3879
  386MOL0     H50928   9.577   3.368   3.954 -2.4213 -0.8869 -0.3735
  386MOL0     H50929   9.483   3.313   4.092 -2.2415  1.1889  1.2321
  386MOL0     H50930   9.727   3.500   4.078  0.8283 -1.4360  1.5471
  386MOL0     H50931   9.629   3.464   4.232 -3.1107 -0.5682 -0.2667
  386MOL0     H50932   9.843   3.337   4.198 -0.1759  0.8035 -0.3420
  386MOL0     H50933   9.761   3.243   4.069 -1.3362 -0.3764 -0.5149
  386MOL0     H50934   8.811   3.472   3.517  2.8834  1.6500 -1.1864
  386MOL0     H50935   8.580   3.605   3.468 -2.0911  1.9486  0.4018
  386MOL0     H50936   8.529   3.975   3.319 -0.1848  1.7636  0.8901
  386MOL0     H50937   8.395   4.104   3.150 -0.2202 -2.3997 -1.9542
  386MOL0     H50938   8.343   3.424   4.139  0.1735 -0.7713 -1.2995
  386MOL0     H50939   8.517   3.449   4.310 -2.8032 -0.3668  0.5118
  386MOL0     H50940   8.967   3.438   4.387 -0.0552  4.2669 -0.0526
  386MOL0     H50941   9.104   3.324   4.573  0.1084 -0.4706  2.9505
  386MOL0     H50942   9.220   3.267   4.713 -2.3281 -0.5381 -3.1762
  386MOL0     H50943   9.088   3.160   4.733 -2.9770  0.9972 -0.2291
  386MOL0     H50944   9.159   3.110   4.963 -0.8963  2.1031  1.5879
  386MOL0     H50945   9.307   3.155   4.875  1.2701  1.0275  0.1218
  386MOL0     H50946   9.158   3.370   5.028 -2.3406 -2.2824 -2.2099
  386MOL0     H50947   9.333   3.354   4.995  1.3783 -1.9591 -1.5125
  386MOL0     H50948   9.212   3.151   5.196  1.6557 -2.0616  1.5155
  386MOL0     H50949   9.378   3.183   5.154 -0.1025 -0.6343  1.1976
  386MOL0     H50950   9.322   3.517   5.399 -0.3975 -0.1566 -1.4323
  386MOL0     H50951   8.846   3.492   4.863 -0.4111  0.2152 -0.5263
  386MOL0     H50952   8.705   3.600   4.682  0.4561  3.9586 -2.5128
  387MOL0     O50953   9.686   1.834  10.165  0.0489  0.2060 -0.0013
  387MOL0     C50954   9.729   1.901  10.075 -0.2609 -0.3700  0.2087
  387MOL0     O50955   9.657   1.949   9.968  0.2734 -0.2405 -0.4836
  387MOL0     C50956   9.536   1.890   9.934  0.3394 -0.3422 -0.9265
  387MOL0     C50957   9.459   1.963   9.838  0.4041  0.1320 -0.3531
  387MOL0     C50958   9.327   1.933   9.803  0.2910 -0.4419  0.6555
  387MOL0     C50959   9.266   1.822   9.856  0.1170  0.5190 -0.2670
  387MOL0     O50960   9.137   1.787   9.822  0.2275  0.3400  0.0913
  387MOL0     C50961   9.042   1.887   9.784  0.5093 -0.5671 -0.0359
  387MOL0     C50962   8.908   1.818   9.803  0.3126 -0.3927 -0.0088
  387MOL0     C50963   8.883   1.759   9.945  0.8971  0.4215 -0.0483
  387MOL0     C50964   8.744   1.699   9.959 -0.5845  0.0431  0.4551
  387MOL0     C50965   8.733   1.605  10.075  0.2295  0.2812 -0.3973
  387MOL0     C50966   8.841   1.499  10.103  0.0550  0.2656  0.2549
  387MOL0     C50967   8.813   1.417  10.229 -0.6123 -0.7349 -0.1181
  387MOL0     C50968   8.840   1.499  10.357  0.4444  0.6102 -0.5014
  387MOL0     N50969   8.706   1.501  10.426  0.0150 -0.2550  0.5298
  387MOL0     C50970   8.646   1.624  10.451 -0.5376  0.1347  0.3800
  387MOL0     C50971   8.544   1.598  10.531 -0.1003  0.0062  0.2493
  387MOL0     C50972   8.463   1.700  10.602 -0.0170  0.2100 -0.6088
  387MOL0     C50973   8.329   1.752  10.534 -0.2998 -0.1380 -0.5181
  387MOL0     C50974   8.233   1.639  10.501 -0.1295 -0.2702  0.2860
  387MOL0     C50975   8.095   1.692  10.533 -0.8114 -0.0500 -0.1550
  387MOL0     O50976   8.049   1.800  10.458  0.3583  0.1835 -0.0570
  387MOL0     C50977   7.919   1.849  10.465 -0.1340 -0.2963  0.1185
  387MOL0     C50978   7.878   1.945  10.376 -0.3723  0.5239 -0.0669
  387MOL0     C50979   7.750   1.991  10.366  0.3178 -0.7350 -0.1057
  387MOL0     C50980   7.650   1.921  10.442 -0.3291  0.9265  0.0290
  387MOL0     C50981   7.511   1.952  10.428 -0.4116 -1.2876 -0.2380
  387MOL0     O50982   7.485   2.080  10.381 -0.0692  0.8186 -0.4400
  387MOL0     C50983   7.358   2.131  10.387 -0.1783  0.4244  0.2893
  387MOL0     C50984   7.305   2.172  10.508 -1.3474  0.2519  0.1125
  387MOL0     C50985   7.176   2.233  10.514 -0.3115 -0.6008 -0.0937
  387MOL0     C50986   7.107   2.250  10.398  0.4721  0.2612 -0.0157
  387MOL0     O50987   6.980   2.304  10.392 -0.0111  0.3556 -0.0892
  387MOL0     C50988   6.918   2.344  10.517 -0.2687  0.3530  0.2085
  387MOL0     C50989   6.780   2.404  10.478 -0.3164 -0.5739  0.3349
  387MOL0     C50990   6.783   2.536  10.398  0.3435 -0.5857  1.1952
  387MOL0     C50991   6.818   2.667  10.470 -0.3653 -0.3880 -1.1012
  387MOL0     C50992   6.852   2.775  10.358 -0.0124  1.8008  0.0591
  387MOL0     C50993   6.895   2.908  10.414  0.3501 -0.1922 -0.6088
  387MOL0     C50994   6.928   3.013  10.312  0.1419 -0.3926 -0.2569
  387MOL0     C50995   7.010   3.128  10.360 -0.6213  0.5895  0.3959
  387MOL0    Cl50996   6.915   3.231  10.460  0.0590  0.2083 -0.0668
  387MOL0     C50997   7.155   2.211  10.276 -0.3770  0.3742 -0.6362
  387MOL0     C50998   7.284   2.159  10.269 -0.4388  0.4717  0.0035
  387MOL0     O50999   7.427   1.879  10.468  0.0513  0.3334 -0.5712
  387MOL0     C51000   7.686   1.826  10.530  0.2084 -0.1787 -0.0401
  387MOL0     C51001   7.824   1.788  10.542 -0.0162 -0.3284  0.9049
  387MOL0     N51002   8.547   1.461  10.558 -0.0752 -0.6850  0.3870
  387MOL0     N51003   8.638   1.405  10.493 -0.5014 -0.3132 -0.5486
  387MOL0     C51004   9.348   1.734   9.938 -0.2557 -0.1715  0.8292
  387MOL0     C51005   9.478   1.764   9.975  0.3000 -0.1176 -0.4130
  387MOL0     C51006   9.868   1.955  10.093  1.1508 -0.1853  0.5186
  387MOL0     C51007   9.973   1.879  10.150  0.9179  0.5449 -0.3164
  387MOL0     C51008  10.099   1.939  10.172  0.5236 -0.3950 -0.1395
  387MOL0     C51009  10.130   2.065  10.118  0.0109 -0.0791  0.5098
  387MOL0     O51010  10.256   2.119  10.121  0.9222  0.2720  0.4966
  387MOL0     C51011  10.349   2.084  10.229  0.2517 -0.7405 -0.2556
  387MOL0     C51012  10.432   2.211  10.272  0.0152  0.1562 -0.4358
  387MOL0     C51013  10.360   2.327  10.342 -0.3728  0.3101 -0.6818
  387MOL0     C51014  10.250   2.383  10.254  0.4197 -0.2026  0.0091
  387MOL0     C51015  10.232   2.521  10.270 -0.4011 -0.0162 -0.6454
  387MOL0     C51016  10.242   2.634  10.316 -1.0783 -0.1672  0.6876
  387MOL0     C51017  10.022   2.137  10.063  0.3641 -0.1863 -0.2484
  387MOL0     C51018   9.893   2.095  10.048  0.2733  1.3577 -0.7094
  387MOL0     H51019   9.515   2.040   9.786  1.3032 -1.8661 -2.5119
  387MOL0     H51020   9.278   1.986   9.722  0.4829 -0.0749  0.7758
  387MOL0     H51021   9.066   1.936   9.689  0.2577  0.4740  0.4269
  387MOL0     H51022   9.043   1.965   9.861  1.5413 -2.4527  1.9805
  387MOL0     H51023   8.905   1.731   9.737  2.3969 -3.0421  3.1271
  387MOL0     H51024   8.833   1.894   9.775  0.0977 -0.3584  0.6551
  387MOL0     H51025   8.899   1.842  10.015 -0.3180  1.4019 -0.8911
  387MOL0     H51026   8.951   1.677   9.972  0.2388  0.4166  1.7213
  387MOL0     H51027   8.672   1.780   9.972 -1.5001 -0.4402 -1.2839
  387MOL0     H51028   8.716   1.647   9.867  0.5390  0.4387 -0.1344
  387MOL0     H51029   8.635   1.563  10.050 -0.4488  2.4585 -1.6346
  387MOL0     H51030   8.721   1.654  10.172  1.2719 -3.0247  1.5897
  387MOL0     H51031   8.931   1.556  10.126  0.7784 -1.4806  1.9348
  387MOL0     H51032   8.866   1.441  10.014  1.2000 -1.0161  1.3705
  387MOL0     H51033   8.710   1.379  10.223  0.0637 -2.6953  0.0199
  387MOL0     H51034   8.887   1.338  10.219 -1.2309 -1.3192 -0.1331
  387MOL0     H51035   8.874   1.603  10.351  1.9894  0.1645 -0.0679
  387MOL0     H51036   8.915   1.456  10.425 -0.9479  0.4854  1.0009
  387MOL0     H51037   8.662   1.728  10.428 -2.6376  0.1735 -1.1846
  387MOL0     H51038   8.532   1.783  10.617 -1.9844  1.7697  0.2702
  387MOL0     H51039   8.437   1.659  10.700  0.4965 -0.5872 -0.7953
  387MOL0     H51040   8.367   1.793  10.440  2.2139 -0.3773  0.3059
  387MOL0     H51041   8.283   1.826  10.599 -1.2086 -1.3760  0.2965
  387MOL0     H51042   8.254   1.616  10.396  0.3215 -1.0795  0.5430
  387MOL0     H51043   8.257   1.552  10.564  2.1589  0.0438 -0.0705
  387MOL0     H51044   8.105   1.723  10.638  2.8908 -0.0241 -0.3892
  387MOL0     H51045   8.020   1.613  10.541 -1.1506  0.4476  2.4467
  387MOL0     H51046   7.951   1.994  10.312 -1.7176 -1.0399 -2.9479
  387MOL0     H51047   7.729   2.067  10.291  2.1481 -1.9075 -1.9241
  387MOL0     H51048   7.352   2.157  10.605 -1.8593  0.1743  0.3534
  387MOL0     H51049   7.146   2.264  10.614  3.7514  1.8894  0.5954
  387MOL0     H51050   6.973   2.418  10.575  1.3403  1.3029 -2.3567
  387MOL0     H51051   6.894   2.255  10.576 -0.5025 -0.6461 -1.3292
  387MOL0     H51052   6.722   2.415  10.571 -0.3375 -0.3124  0.2887
  387MOL0     H51053   6.727   2.327  10.421  0.7385  0.5751 -2.3130
  387MOL0     H51054   6.695   2.544  10.334 -0.1021  0.1791  1.8971
  387MOL0     H51055   6.860   2.521  10.321  0.3795 -1.2347  1.3475
  387MOL0     H51056   6.735   2.693  10.537  0.8172 -0.1790  0.3217
  387MOL0     H51057   6.910   2.652  10.527  0.2462 -0.3513 -2.0590
  387MOL0     H51058   6.772   2.789  10.285  2.0963 -0.1192 -2.8471
  387MOL0     H51059   6.927   2.718  10.302 -1.8189 -2.5918  1.6402
  387MOL0     H51060   6.985   2.889  10.472  0.0661 -0.7009 -0.3292
  387MOL0     H51061   6.821   2.947  10.485 -2.6137 -0.9381 -3.0740
  387MOL0     H51062   7.004   2.967  10.248 -0.8449  0.8106 -2.3968
  387MOL0     H51063   6.849   3.036  10.240  0.6328 -0.3279 -0.7791
  387MOL0     H51064   7.057   3.173  10.272  2.0769  0.6041  1.7233
  387MOL0     H51065   7.097   3.084  10.411 -0.5453 -0.5989 -0.7126
  387MOL0     H51066   7.098   2.238  10.188 -0.2982  0.3524 -0.6936
  387MOL0     H51067   7.328   2.137  10.172  0.7558 -2.0117  1.0118
  387MOL0     H51068   7.616   1.794  10.606  0.0742  0.8658  0.2922
  387MOL0     H51069   7.861   1.722  10.620 -1.2557 -0.0641  1.7576
  387MOL0     H51070   9.301   1.643   9.977  0.1842  0.8800  4.0941
  387MOL0     H51071   9.530   1.686  10.031 -0.1387  0.2323  0.5013
  387MOL0     H51072   9.955   1.783  10.197  3.2178  0.7540  1.1381
  387MOL0     H51073  10.179   1.888  10.225 -0.2979 -0.7196  0.8143
  387MOL0     H51074  10.413   2.003  10.194  0.3749 -0.6670 -0.2025
  387MOL0     H51075  10.283   2.055  10.311 -4.4364 -3.4545 -4.4371
  387MOL0     H51076  10.512   2.186  10.343  1.0347  0.4008 -1.4753
  387MOL0     H51077  10.481   2.249  10.182  0.4182 -2.5289 -1.4625
  387MOL0     H51078  10.429   2.399  10.386 -0.5028  1.3003 -2.0542
  387MOL0     H51079  10.325   2.288  10.438  3.5954  0.0347  0.8360
  387MOL0     H51080  10.280   2.380  10.149 -1.5706  1.1090 -0.6688
  387MOL0     H51081  10.154   2.330  10.261 -0.3329  1.3168  1.9968
  387MOL0     H51082  10.242   2.738  10.343 -3.0564  0.4342 -1.2584
  387MOL0     H51083  10.038   2.238  10.027  3.1433 -0.2865  0.4539
  387MOL0     H51084   9.814   2.150   9.998 -0.1822 -0.3355 -1.9447
  388MOL0     O51085   1.429   7.418   0.590  0.6772  0.2125 -0.2804
  388MOL0     C51086   1.485   7.310   0.609  0.0469 -0.1564 -0.1075
  388MOL0     O51087   1.445   7.215   0.691 -0.7389  0.7651  0.5691
  388MOL0     C51088   1.357   7.234   0.792  0.3512 -1.4281 -0.1377
  388MOL0     C51089   1.326   7.360   0.854  0.8401 -1.1071 -0.0563
  388MOL0     C51090   1.224   7.365   0.951 -0.2433  0.1536 -0.1253
  388MOL0     C51091   1.143   7.252   0.979 -0.0522  0.5505 -0.3176
  388MOL0     O51092   1.029   7.270   1.055  0.2401 -0.0750 -0.6689
  388MOL0     C51093   0.978   7.402   1.072  0.3727 -0.1023 -0.6591
  388MOL0     C51094   0.833   7.393   1.141 -0.2381 -0.1704 -0.0492
  388MOL0     C51095   0.760   7.529   1.145 -0.5574  0.2150 -0.1761
  388MOL0     C51096   0.618   7.521   1.199  0.4913 -0.1560  0.0158
  388MOL0     C51097   0.617   7.459   1.346 -0.8549  0.7174 -0.5401
  388MOL0     C51098   0.664   7.552   1.455 -1.1963  0.5209  0.1002
  388MOL0     C51099   0.593   7.688   1.453  0.7641 -0.0773  0.3782
  388MOL0     C51100   0.452   7.664   1.487 -0.1625 -0.9043  1.1301
  388MOL0     N51101   0.384   7.781   1.536  0.3754  0.2739 -0.2341
  388MOL0     C51102   0.321   7.874   1.452  0.9566  0.7451  0.1322
  388MOL0     C51103   0.272   7.958   1.541  0.2940 -0.0260 -1.9953
  388MOL0     C51104   0.171   8.062   1.507 -0.0960 -0.1225  0.2682
  388MOL0     C51105   0.254   8.193   1.493 -0.1088 -0.0476  0.1897
  388MOL0     C51106   0.183   8.317   1.453  1.1405 -0.0579 -0.8081
  388MOL0     C51107   0.282   8.421   1.401  0.0494  0.5111  0.5100
  388MOL0     O51108   0.232   8.555   1.391 -0.2555  0.7574 -0.2375
  388MOL0     C51109   0.309   8.662   1.365 -0.4566 -1.1395 -0.0074
  388MOL0     C51110   0.448   8.662   1.338  0.0295  0.4848  0.2360
  388MOL0     C51111   0.521   8.782   1.320  1.1108  0.5929  0.9594
  388MOL0     C51112   0.451   8.905   1.336 -1.3321 -0.2954  0.1172
  388MOL0     C51113   0.537   9.026   1.320  0.8318 -0.1640 -0.4988
  388MOL0     O51114   0.484   9.133   1.256  0.4890  0.0240 -0.2945
  388MOL0     C51115   0.509   9.252   1.325 -0.7934 -0.5757  0.6826
  388MOL0     C51116   0.621   9.326   1.282 -0.2263 -0.6126 -0.3302
  388MOL0     C51117   0.632   9.455   1.332 -0.5121 -0.6698 -0.1226
  388MOL0     C51118   0.537   9.510   1.430 -1.3894  1.1353  0.3056
  388MOL0     O51119   0.561   9.643   1.468 -0.6705  0.3005  0.3716
  388MOL0     C51120   0.479   9.698   1.579 -1.3280  0.7781  0.2354
  388MOL0     C51121   0.537   9.639   1.711  0.3480  0.5388 -0.0207
  388MOL0     C51122   0.693   9.668   1.710  0.2009  0.4267  0.2580
  388MOL0     C51123   0.739   9.603   1.847  0.1441 -0.0877 -0.2708
  388MOL0     C51124   0.882   9.625   1.878  0.0747  0.0952  1.2067
  388MOL0     C51125   0.950   9.523   1.960 -0.0720  0.3372  0.3150
  388MOL0     C51126   0.891   9.507   2.105  0.3974  0.4971 -0.2103
  388MOL0     C51127   0.978   9.403   2.194 -0.5857 -0.5417  0.2590
  388MOL0    Cl51128   0.899   9.392   2.355  0.5110 -0.1954  0.2017
  388MOL0     C51129   0.438   9.416   1.473  0.0978  0.0934  0.5335
  388MOL0     C51130   0.423   9.292   1.423  0.3843 -0.7223  0.1614
  388MOL0     O51131   0.653   9.010   1.347  0.1246 -0.5530  0.0469
  388MOL0     C51132   0.315   8.907   1.347  0.3650 -0.5018  0.0865
  388MOL0     C51133   0.244   8.787   1.362 -0.0902  0.2348 -0.0173
  388MOL0     N51134   0.314   7.931   1.675  0.3459 -0.5543  0.8048
  388MOL0     N51135   0.380   7.824   1.664  0.1391  0.3643 -0.1847
  388MOL0     C51136   1.177   7.129   0.923 -0.0964  0.1856 -1.2615
  388MOL0     C51137   1.287   7.118   0.840  0.2574  0.8033  0.6689
  388MOL0     C51138   1.616   7.300   0.535  0.7471 -0.0744 -0.0434
  388MOL0     C51139   1.693   7.186   0.546  0.1440 -0.0304  0.0038
  388MOL0     C51140   1.808   7.174   0.478 -0.0382 -0.2222 -1.1687
  388MOL0     C51141   1.847   7.269   0.386 -0.5828 -0.3199 -0.5383
  388MOL0     O51142   1.956   7.259   0.310  0.0317 -0.1943 -0.2777
  388MOL0     C51143   2.054   7.153   0.335 -0.4494 -1.1402  0.2646
  388MOL0     C51144   2.176   7.194   0.252 -0.4937 -0.0433  0.4677
  388MOL0     C51145   2.226   7.335   0.284  0.0940  0.1559  0.3410
  388MOL0     C51146   2.270   7.339   0.434 -0.1451  0.9725 -0.1337
  388MOL0     C51147   2.386   7.254   0.461 -0.0185  0.1899  0.7203
  388MOL0     C51148   2.478   7.185   0.495 -0.2118 -0.1687  0.7249
  388MOL0     C51149   1.773   7.388   0.376 -0.5035 -0.4309  0.1355
  388MOL0     C51150   1.652   7.400   0.446 -0.3560 -0.5208 -0.5302
  388MOL0     H51151   1.386   7.448   0.834  0.2146 -1.3303 -3.3510
  388MOL0     H51152   1.216   7.456   1.011  2.2414  0.0942  0.4205
  388MOL0     H51153   0.963   7.457   0.978  0.1930 -0.1514 -0.6582
  388MOL0     H51154   1.035   7.471   1.135 -2.0756  4.8357 -3.2885
  388MOL0     H51155   0.853   7.358   1.243 -1.8733  2.6690  1.3646
  388MOL0     H51156   0.761   7.325   1.095  0.5245 -1.8117  1.0480
  388MOL0     H51157   0.766   7.566   1.042 -0.0181 -2.1014 -1.0162
  388MOL0     H51158   0.813   7.601   1.209  0.3624  0.5422 -1.2717
  388MOL0     H51159   0.577   7.622   1.193  1.8356  0.4789  1.0169
  388MOL0     H51160   0.563   7.461   1.126  1.6510 -3.1644  1.4476
  388MOL0     H51161   0.679   7.370   1.338 -1.5587  0.0540  0.9665
  388MOL0     H51162   0.521   7.421   1.382  0.5715 -1.3825  1.2790
  388MOL0     H51163   0.772   7.561   1.439 -1.1838  0.5462  0.2013
  388MOL0     H51164   0.648   7.503   1.551 -0.7687 -0.9597 -0.5503
  388MOL0     H51165   0.642   7.753   1.526 -0.8476  1.1484  0.4224
  388MOL0     H51166   0.601   7.738   1.356 -0.1372 -3.8143 -1.8350
  388MOL0     H51167   0.467   7.595   1.570  1.0521  0.8219  2.4231
  388MOL0     H51168   0.403   7.624   1.398  1.2666  1.5336 -0.8913
  388MOL0     H51169   0.293   7.873   1.347 -1.9088 -0.8877  0.7927
  388MOL0     H51170   0.093   8.077   1.583 -0.7016 -0.1366 -0.3416
  388MOL0     H51171   0.124   8.041   1.411  1.8723  0.6187 -0.9169
  388MOL0     H51172   0.317   8.161   1.409 -3.0794 -2.4399 -1.3173
  388MOL0     H51173   0.314   8.213   1.583 -2.9246 -0.9805  2.4264
  388MOL0     H51174   0.104   8.302   1.379  0.7413  0.1011 -0.4173
  388MOL0     H51175   0.136   8.373   1.535  3.6970  0.7028  0.2237
  388MOL0     H51176   0.329   8.379   1.311  0.7073  0.6365  0.7852
  388MOL0     H51177   0.369   8.433   1.466  1.2689 -0.3172 -0.8952
  388MOL0     H51178   0.505   8.573   1.316 -0.1627  0.7029 -1.2134
  388MOL0     H51179   0.629   8.779   1.308  1.3871  0.8169  3.0886
  388MOL0     H51180   0.690   9.286   1.208  0.2204  1.2421 -0.9848
  388MOL0     H51181   0.716   9.516   1.302 -1.1135  0.4171  0.3544
  388MOL0     H51182   0.372   9.679   1.573 -1.1260 -0.3012 -0.1307
  388MOL0     H51183   0.485   9.807   1.577 -4.5290  1.0321 -2.1589
  388MOL0     H51184   0.508   9.534   1.717  0.0754  0.6598  0.8208
  388MOL0     H51185   0.481   9.685   1.792 -4.1535  0.1397 -2.5651
  388MOL0     H51186   0.714   9.776   1.702  0.1793  0.2890 -2.5759
  388MOL0     H51187   0.740   9.613   1.628 -0.2754 -1.1246  1.0020
  388MOL0     H51188   0.681   9.648   1.929  0.4172 -2.7000  1.4910
  388MOL0     H51189   0.714   9.497   1.843  0.1129 -0.2229  2.0638
  388MOL0     H51190   0.888   9.720   1.932  1.3099  0.0674  1.1556
  388MOL0     H51191   0.939   9.621   1.784 -0.4313  0.5958  0.8743
  388MOL0     H51192   1.055   9.552   1.964 -0.4855  2.2334 -1.2947
  388MOL0     H51193   0.940   9.427   1.907  0.3675  2.2720 -3.6065
  388MOL0     H51194   0.901   9.602   2.158  1.0259 -0.0507  0.6853
  388MOL0     H51195   0.787   9.473   2.107 -0.2098  2.1706 -1.1576
  388MOL0     H51196   1.079   9.442   2.213 -0.9227 -0.3237  1.8075
  388MOL0     H51197   0.989   9.304   2.149 -0.5097 -0.8538  0.9545
  388MOL0     H51198   0.366   9.454   1.545  2.0427  0.3033  2.4765
  388MOL0     H51199   0.334   9.243   1.459 -0.7687  1.3108  0.2529
  388MOL0     H51200   0.250   8.995   1.351  1.0368 -0.0006  0.1291
  388MOL0     H51201   0.137   8.790   1.376  0.0124  1.4724  0.6620
  388MOL0     H51202   1.122   7.040   0.951 -0.6841  0.8462 -0.2546
  388MOL0     H51203   1.301   7.028   0.781 -2.0250  0.4802  0.5337
  388MOL0     H51204   1.665   7.110   0.618  0.2177  1.0950  1.2720
  388MOL0     H51205   1.846   7.073   0.486 -0.8134 -0.5671 -1.7666
  388MOL0     H51206   2.027   7.059   0.287 -2.7596 -0.7897  0.7642
  388MOL0     H51207   2.071   7.133   0.441  1.2590 -3.2647 -0.3283
  388MOL0     H51208   2.252   7.116   0.243 -1.1494 -1.2076  3.6614
  388MOL0     H51209   2.134   7.212   0.153  1.8757 -1.2462 -0.8667
  388MOL0     H51210   2.152   7.416   0.278  1.4191  1.4668  1.0258
  388MOL0     H51211   2.306   7.361   0.215  1.6548  0.7396  2.2847
  388MOL0     H51212   2.308   7.442   0.436  0.7555  0.6268  1.3629
  388MOL0     H51213   2.196   7.325   0.513  0.0338 -0.7440 -0.2496
  388MOL0     H51214   2.555   7.128   0.544 -0.9873 -0.4033  1.6985
  388MOL0     H51215   1.820   7.467   0.319 -1.2809  2.3268  3.0232
  388MOL0     H51216   1.595   7.492   0.443  0.4185  0.0030 -4.3482
  389MOL0     O51217   0.825  10.987   3.028  0.0235 -0.4191  0.5043
  389MOL0     C51218   0.939  10.981   3.066 -0.2965  0.8251  0.7850
  389MOL0     O51219   0.985  10.960   3.193  0.0528 -0.2742 -0.1169
  389MOL0     C51220   0.900  10.886   3.268  0.0842 -0.1250  0.6461
  389MOL0     C51221   0.797  10.953   3.339 -0.4705  0.3354  0.4010
  389MOL0     C51222   0.691  10.883   3.373  0.3441  0.0213 -1.1630
  389MOL0     C51223   0.690  10.741   3.379 -0.7435  1.3793  0.7638
  389MOL0     O51224   0.590  10.649   3.411  0.3256 -0.1171 -0.1419
  389MOL0     C51225   0.486  10.686   3.497  0.1679 -0.0480 -0.2824
  389MOL0     C51226   0.434  10.560   3.566  0.0227  0.4167  0.1431
  389MOL0     C51227   0.327  10.492   3.475 -0.1322  0.8798 -0.5623
  389MOL0     C51228   0.355  10.339   3.509 -0.0863  0.0606 -0.3903
  389MOL0     C51229   0.262  10.248   3.423 -0.0289 -0.0199  0.6916
  389MOL0     C51230   0.294  10.102   3.448 -0.5092 -0.1965 -0.4428
  389MOL0     C51231   0.193  10.002   3.394 -0.2609  0.4261  0.9654
  389MOL0     C51232   0.201   9.978   3.242  0.0938 -0.2115 -0.1529
  389MOL0     N51233   0.093   9.894   3.191 -0.2735 -0.2195 -0.8373
  389MOL0     C51234  -0.049   9.914   3.208 -0.2757  0.0061  0.1685
  389MOL0     C51235  -0.101   9.802   3.146  0.1291  0.3534  0.0799
  389MOL0     C51236  -0.241   9.751   3.139  0.2825 -0.0790 -0.4923
  389MOL0     C51237  -0.341   9.858   3.092  1.0074  0.4598 -0.3847
  389MOL0     C51238  -0.459   9.870   3.197  0.0649  0.3715 -0.9104
  389MOL0     C51239  -0.430   9.965   3.310  0.6197 -0.3484  0.1957
  389MOL0     O51240  -0.325   9.927   3.397 -0.2673 -0.3191  0.0762
  389MOL0     C51241  -0.351   9.841   3.506  0.3474 -0.2926 -0.9761
  389MOL0     C51242  -0.248   9.825   3.597  0.5803  0.1355  0.3985
  389MOL0     C51243  -0.263   9.763   3.717 -0.0993 -1.1694  0.1850
  389MOL0     C51244  -0.383   9.690   3.740  0.5087  0.2820  0.2630
  389MOL0     C51245  -0.420   9.639   3.878 -0.0440  0.0058 -0.1172
  389MOL0     O51246  -0.338   9.665   3.990  0.5973  0.0025  0.1256
  389MOL0     C51247  -0.385   9.613   4.105 -0.8295 -0.4615 -0.4208
  389MOL0     C51248  -0.305   9.511   4.168  0.2759 -0.5160 -0.2696
  389MOL0     C51249  -0.339   9.480   4.298  0.5061  0.3542  1.0701
  389MOL0     C51250  -0.457   9.520   4.363 -0.8186 -0.5597  0.4902
  389MOL0     O51251  -0.479   9.476   4.489  0.1858  0.2842 -0.3479
  389MOL0     C51252  -0.525   9.564   4.593 -0.5701 -0.2311 -1.0757
  389MOL0     C51253  -0.506   9.512   4.735 -0.2720  0.8121  0.3584
  389MOL0     C51254  -0.586   9.381   4.763 -0.2463 -0.0271 -0.0778
  389MOL0     C51255  -0.732   9.389   4.740  0.1025  0.1998 -0.1469
  389MOL0     C51256  -0.808   9.492   4.821 -0.2349  0.9526  0.2027
  389MOL0     C51257  -0.819   9.472   4.972  0.7578 -0.3570 -0.4376
  389MOL0     C51258  -0.953   9.538   5.012  0.3801  0.6580 -0.0976
  389MOL0     C51259  -0.960   9.552   5.163  0.6581 -0.1069 -0.4422
  389MOL0    Cl51260  -1.123   9.618   5.194 -0.0567  0.5407  0.3981
  389MOL0     C51261  -0.535   9.618   4.299 -0.0424 -0.6203 -1.1577
  389MOL0     C51262  -0.493   9.675   4.178 -0.1012  0.2520 -0.3745
  389MOL0     O51263  -0.528   9.579   3.878  0.0123  0.7767 -0.3166
  389MOL0     C51264  -0.486   9.692   3.647  0.0495  0.5208  0.5065
  389MOL0     C51265  -0.472   9.771   3.528 -0.2229  0.2982 -0.2863
  389MOL0     N51266  -0.004   9.721   3.095 -0.6433  0.4580  0.3761
  389MOL0     N51267   0.113   9.775   3.134  0.0791  0.4874 -0.1336
  389MOL0     C51268   0.797  10.672   3.321 -0.2275 -0.7696  0.4560
  389MOL0     C51269   0.905  10.749   3.264  0.5138  0.1556 -0.1182
  389MOL0     C51270   1.037  11.019   2.960 -0.4725  0.3649  0.3349
  389MOL0     C51271   1.178  11.027   2.994  0.2134 -0.0517  0.5471
  389MOL0     C51272   1.285  11.042   2.897  0.1483  0.4442  1.0568
  389MOL0     C51273   1.243  11.090   2.764 -0.5775 -0.4165 -0.1148
  389MOL0     O51274   1.336  11.106   2.668 -0.3136 -0.0847  0.4394
  389MOL0     C51275   1.440  11.009   2.641  0.3535  1.0433 -0.5558
  389MOL0     C51276   1.499  11.043   2.503  0.1054  0.4341  0.1218
  389MOL0     C51277   1.407  11.005   2.381  0.6121  0.5226 -0.9604
  389MOL0     C51278   1.290  11.100   2.363 -0.6704 -0.3419  0.3787
  389MOL0     C51279   1.239  11.078   2.223  0.1158 -0.8692 -0.3672
  389MOL0     C51280   1.204  11.091   2.106  0.8911  0.9369  0.0662
  389MOL0     C51281   1.106  11.096   2.735  0.6036  1.0500 -0.0312
  389MOL0     C51282   1.005  11.062   2.828 -0.4037 -0.2351 -0.2664
  389MOL0     H51283   0.791  11.061   3.347 -0.8827  0.2982  0.6331
  389MOL0     H51284   0.602  10.932   3.412  1.9730  1.7247  0.5908
  389MOL0     H51285   0.416  10.738   3.431  0.4234  1.5817  0.6786
  389MOL0     H51286   0.524  10.745   3.581 -0.9696 -2.6044  2.1869
  389MOL0     H51287   0.393  10.590   3.662 -0.2227  4.4340 -1.0489
  389MOL0     H51288   0.526  10.505   3.589  0.8718  1.5641 -0.4214
  389MOL0     H51289   0.347  10.505   3.368  0.1783  1.2570 -0.4628
  389MOL0     H51290   0.228  10.526   3.505 -0.6071 -0.6795 -0.2461
  389MOL0     H51291   0.460  10.320   3.488  0.7701  0.2880  3.0419
  389MOL0     H51292   0.345  10.315   3.615  3.5008 -2.8092 -0.5420
  389MOL0     H51293   0.286  10.282   3.322  1.3611  3.3228  2.0130
  389MOL0     H51294   0.156  10.264   3.444 -0.7051 -2.2981 -0.5576
  389MOL0     H51295   0.286  10.088   3.556  2.0723  0.1814 -0.1517
  389MOL0     H51296   0.400  10.078   3.436  0.3943  1.8505  2.3467
  389MOL0     H51297   0.214   9.914   3.456 -0.1956  0.0674  0.4378
  389MOL0     H51298   0.100  10.043   3.434 -0.2708 -1.0640  2.6143
  389MOL0     H51299   0.302   9.942   3.220  1.0092  1.2115  1.4832
  389MOL0     H51300   0.171  10.069   3.190  3.9641  0.9485 -0.6851
  389MOL0     H51301  -0.097   9.989   3.271  1.7222  0.1035  1.6958
  389MOL0     H51302  -0.262   9.721   3.242  4.3111 -3.7517 -0.4454
  389MOL0     H51303  -0.240   9.662   3.075 -0.4551  1.1644 -2.3367
  389MOL0     H51304  -0.386   9.825   2.998 -0.6619  1.7895 -0.1166
  389MOL0     H51305  -0.301   9.960   3.089  1.4013  0.2823 -1.8654
  389MOL0     H51306  -0.555   9.891   3.149 -0.0573  0.3740 -0.6683
  389MOL0     H51307  -0.483   9.775   3.244  0.3196  0.6154 -0.2804
  389MOL0     H51308  -0.523   9.986   3.365  0.2093  0.8742 -0.9111
  389MOL0     H51309  -0.406  10.055   3.252  1.9790 -0.8598 -0.0727
  389MOL0     H51310  -0.159   9.883   3.573 -0.6028  2.3867  1.2476
  389MOL0     H51311  -0.189   9.771   3.796 -1.2847 -2.4839  1.4939
  389MOL0     H51312  -0.222   9.460   4.120  0.4247 -0.7769  0.2604
  389MOL0     H51313  -0.276   9.410   4.352  2.1851  0.1055 -1.0828
  389MOL0     H51314  -0.630   9.587   4.574 -0.7475  0.6894  0.8041
  389MOL0     H51315  -0.478   9.663   4.592 -3.7128  2.0076  6.3206
  389MOL0     H51316  -0.549   9.584   4.806  0.3511  2.1451 -0.5879
  389MOL0     H51317  -0.402   9.508   4.769 -0.6159  2.2493  1.6945
  389MOL0     H51318  -0.573   9.344   4.865 -2.4341  1.4905  0.8094
  389MOL0     H51319  -0.552   9.302   4.695 -0.6305 -0.2152 -0.0580
  389MOL0     H51320  -0.740   9.419   4.634  0.1957  1.3811  0.1641
  389MOL0     H51321  -0.780   9.293   4.761  1.0886 -0.1953  0.3583
  389MOL0     H51322  -0.909   9.474   4.784  0.2227 -1.4408 -0.0609
  389MOL0     H51323  -0.778   9.594   4.796  1.6543  0.0938 -1.4239
  389MOL0     H51324  -0.744   9.536   5.019 -0.5985  1.2066 -0.3187
  389MOL0     H51325  -0.818   9.369   5.008 -3.3149 -0.2376  0.4374
  389MOL0     H51326  -0.948   9.636   4.964  2.5756  0.0554 -1.2736
  389MOL0     H51327  -1.034   9.474   4.975  1.7862 -0.8234 -0.7561
  389MOL0     H51328  -0.874   9.618   5.182  2.3213 -2.0180 -0.9978
  389MOL0     H51329  -0.935   9.458   5.213  0.0252  1.1383  2.4422
  389MOL0     H51330  -0.623   9.659   4.347 -1.9529 -0.0320 -4.8243
  389MOL0     H51331  -0.545   9.753   4.123 -1.1067 -1.4816 -2.0430
  389MOL0     H51332  -0.583   9.646   3.665  1.0227 -2.0924 -0.4757
  389MOL0     H51333  -0.556   9.793   3.461 -0.2777  1.2136  0.0639
  389MOL0     H51334   0.794  10.565   3.308 -1.1024 -0.4960 -2.4307
  389MOL0     H51335   0.990  10.690   3.232  2.3229  2.6788 -0.2768
  389MOL0     H51336   1.186  11.020   3.102 -1.0357  2.5941  0.8775
  389MOL0     H51337   1.388  11.029   2.926  1.8778  2.1318 -3.4623
  389MOL0     H51338   1.401  10.907   2.644 -0.4037  1.3356 -0.0594
  389MOL0     H51339   1.524  11.021   2.709  1.2398 -3.1295 -0.6692
  389MOL0     H51340   1.517  11.150   2.504 -3.3732  1.2054  2.8841
  389MOL0     H51341   1.595  10.993   2.487  0.4759  1.3200 -0.4390
  389MOL0     H51342   1.369  10.904   2.397  2.4333  0.2524  2.3731
  389MOL0     H51343   1.470  10.998   2.292  2.2104 -1.0591  0.2248
  389MOL0     H51344   1.215  11.081   2.440  0.0337 -0.1237  1.1352
  389MOL0     H51345   1.333  11.201   2.369 -2.8059  0.6649 -0.3847
  389MOL0     H51346   1.161  11.083   2.009 -0.8546 -1.0374  0.9195
  389MOL0     H51347   1.081  11.118   2.632 -1.7407 -0.1242  0.2206
  389MOL0     H51348   0.903  11.067   2.790 -0.4648  1.7095  0.0538
  390MOL0     O51349   7.002   9.770   6.023 -0.5460  0.8025 -0.1760
  390MOL0     C51350   6.908   9.841   6.024  0.5240  0.4751 -0.3487
  390MOL0     O51351   6.901   9.976   5.975 -0.3988  0.9004 -0.2629
  390MOL0     C51352   7.023  10.014   5.910  0.5633 -0.1569  0.0641
  390MOL0     C51353   7.151  10.011   5.968  0.6550 -0.1815  0.4091
  390MOL0     C51354   7.266  10.033   5.894 -1.0251  0.4893 -0.6733
  390MOL0     C51355   7.264  10.036   5.756  0.7355  0.1057 -0.0859
  390MOL0     O51356   7.364  10.046   5.663 -0.2536 -0.7105 -0.4581
  390MOL0     C51357   7.493   9.997   5.710 -0.0628 -0.9200  0.1992
  390MOL0     C51358   7.606  10.045   5.616  0.3453  0.6245  0.4832
  390MOL0     C51359   7.744  10.007   5.674 -0.4414  0.0770 -0.3151
  390MOL0     C51360   7.845  10.064   5.584 -1.0212 -0.7715 -0.2312
  390MOL0     C51361   7.985  10.071   5.655 -0.3523 -0.0839  1.0397
  390MOL0     C51362   8.101  10.127   5.565 -0.4630 -0.1444 -0.3355
  390MOL0     C51363   8.126  10.026   5.450 -0.0377  0.5876 -0.9029
  390MOL0     C51364   8.204  10.073   5.330 -0.0992 -0.3033 -0.1043
  390MOL0     N51365   8.129  10.161   5.242  0.7269 -0.7438  0.1897
  390MOL0     C51366   7.993  10.189   5.232 -0.1110 -0.3543 -0.1147
  390MOL0     C51367   7.980  10.285   5.138  0.5221 -0.0247 -0.6934
  390MOL0     C51368   7.855  10.360   5.094 -1.0581 -0.7364 -0.2417
  390MOL0     C51369   7.725  10.309   5.153  0.3013 -0.4285  0.2329
  390MOL0     C51370   7.692  10.358   5.290 -0.1782 -0.0426 -1.3309
  390MOL0     C51371   7.545  10.339   5.313  0.6875  0.5646  0.0742
  390MOL0     O51372   7.516  10.376   5.453 -0.2648 -1.2951  0.5978
  390MOL0     C51373   7.391  10.368   5.495 -0.1335 -0.0113  0.0028
  390MOL0     C51374   7.284  10.346   5.416 -0.1955 -0.0681  0.5374
  390MOL0     C51375   7.154  10.344   5.464 -0.3919 -0.4570  0.3284
  390MOL0     C51376   7.130  10.386   5.599 -0.1150  0.6838 -0.2153
  390MOL0     C51377   6.997  10.390   5.651 -0.3333  0.1833  0.7835
  390MOL0     O51378   6.992  10.437   5.777 -0.0752  0.0932  0.0839
  390MOL0     C51379   6.883  10.458   5.846  1.1182 -0.2383  0.8213
  390MOL0     C51380   6.756  10.391   5.837 -0.6572  0.3735  0.5698
  390MOL0     C51381   6.633  10.415   5.914 -0.5261  0.3117 -0.8952
  390MOL0     C51382   6.638  10.528   6.004  0.8882  0.3616  0.2798
  390MOL0     O51383   6.526  10.563   6.077  0.7223 -0.5860  0.1659
  390MOL0     C51384   6.546  10.549   6.220  0.9143  0.1290 -0.2539
  390MOL0     C51385   6.572  10.666   6.315  0.0723  0.0053  0.0685
  390MOL0     C51386   6.540  10.666   6.467  0.0858  0.2118  0.3488
  390MOL0     C51387   6.592  10.539   6.536 -0.5955 -0.3423 -0.0629
  390MOL0     C51388   6.730  10.549   6.608  0.2935  0.0218  0.2490
  390MOL0     C51389   6.747  10.647   6.722 -0.4680 -1.6196 -0.1074
  390MOL0     C51390   6.638  10.631   6.832 -0.6534 -0.1464  0.1658
  390MOL0     C51391   6.680  10.726   6.953  0.9166  0.7778  1.1556
  390MOL0    Cl51392   6.637  10.899   6.920 -0.2847 -0.4556  0.3315
  390MOL0     C51393   6.760  10.605   6.016  0.4119  1.4709 -1.1330
  390MOL0     C51394   6.879  10.564   5.944  0.0663  0.1254  0.3759
  390MOL0     O51395   6.896  10.359   5.580 -0.4960 -0.0724 -0.2405
  390MOL0     C51396   7.239  10.393   5.681  0.6113  0.2038 -0.1322
  390MOL0     C51397   7.369  10.384   5.632  0.1074  0.4121  0.5753
  390MOL0     N51398   8.107  10.319   5.096 -0.0194  0.1230  0.8378
  390MOL0     N51399   8.196  10.238   5.149 -0.0800 -0.4609 -1.0415
  390MOL0     C51400   7.131  10.038   5.698 -1.1684 -0.0945  0.9164
  390MOL0     C51401   7.014  10.038   5.772 -0.1104 -0.5302  0.4735
  390MOL0     C51402   6.790   9.802   6.102  0.4044 -0.3167  0.4984
  390MOL0     C51403   6.780   9.675   6.157 -0.1003 -0.6782  0.8625
  390MOL0     C51404   6.670   9.625   6.219 -0.6173 -0.0759 -0.5551
  390MOL0     C51405   6.564   9.710   6.239  0.1995  0.1618 -0.1408
  390MOL0     O51406   6.462   9.685   6.320  0.5296 -0.6097 -0.0007
  390MOL0     C51407   6.409   9.550   6.317 -0.1492 -0.2609 -0.4290
  390MOL0     C51408   6.251   9.569   6.306 -0.3092  0.1598  0.2332
  390MOL0     C51409   6.182   9.640   6.425  1.3764 -0.4195 -0.5882
  390MOL0     C51410   6.028   9.632   6.399 -0.5726 -0.4254  0.1639
  390MOL0     C51411   5.950   9.661   6.516  0.1896 -0.3819  0.3552
  390MOL0     C51412   5.884   9.686   6.617 -0.0163  0.4315  0.2106
  390MOL0     C51413   6.560   9.847   6.189 -1.2928  0.7800  1.0761
  390MOL0     C51414   6.677   9.897   6.117 -0.7075  1.1212  0.8888
  390MOL0     H51415   7.166   9.992   6.074  0.0438 -4.1847 -0.0726
  390MOL0     H51416   7.361  10.042   5.945 -0.9814  2.1575 -1.0025
  390MOL0     H51417   7.492   9.889   5.725 -1.5325 -0.5543  3.6669
  390MOL0     H51418   7.502  10.053   5.804 -2.9316  2.3354 -1.2312
  390MOL0     H51419   7.595  10.153   5.604  0.0968  0.9999  3.4302
  390MOL0     H51420   7.583   9.994   5.521 -2.1761  1.4637  0.5641
  390MOL0     H51421   7.756   9.899   5.685 -2.5868 -0.0163  1.8480
  390MOL0     H51422   7.759  10.058   5.770  1.5153  3.2677 -2.1123
  390MOL0     H51423   7.849   9.994   5.501  1.7675 -2.1224  0.9343
  390MOL0     H51424   7.814  10.163   5.549 -1.4301 -1.2026 -1.1288
  390MOL0     H51425   8.011   9.972   5.696 -2.4421 -1.6187 -1.0467
  390MOL0     H51426   7.973  10.132   5.745  0.1300  0.5351  0.6866
  390MOL0     H51427   8.193  10.146   5.621 -1.3602  2.7032  0.3441
  390MOL0     H51428   8.061  10.217   5.517  0.2789 -0.1863 -1.0449
  390MOL0     H51429   8.189   9.942   5.482  0.1686  0.0437 -2.6064
  390MOL0     H51430   8.042   9.980   5.397  1.5543 -1.9148 -1.4409
  390MOL0     H51431   8.229   9.985   5.269  1.6309  0.3535 -0.3921
  390MOL0     H51432   8.292  10.129   5.362 -0.6311  1.9206 -2.2829
  390MOL0     H51433   7.913  10.136   5.284  1.5106 -2.7729  0.1017
  390MOL0     H51434   7.854  10.363   4.985 -2.7923  1.8597 -0.2325
  390MOL0     H51435   7.862  10.465   5.126  2.1758 -0.5084 -1.3496
  390MOL0     H51436   7.727  10.200   5.161 -2.2680 -0.4062  2.6610
  390MOL0     H51437   7.638  10.323   5.088  1.0201 -1.1419 -0.9157
  390MOL0     H51438   7.750  10.303   5.364 -1.8852  0.6801  0.6252
  390MOL0     H51439   7.715  10.462   5.316 -1.4301  0.3010 -1.5017
  390MOL0     H51440   7.512  10.238   5.288  3.2057  0.3265 -2.8936
  390MOL0     H51441   7.490  10.409   5.251  0.8584  2.5341  2.0208
  390MOL0     H51442   7.289  10.321   5.311 -2.1112 -0.3159  0.4835
  390MOL0     H51443   7.068  10.326   5.401 -1.6233  2.3735  1.0563
  390MOL0     H51444   6.754  10.308   5.768  3.4927 -0.3703  1.1419
  390MOL0     H51445   6.545  10.352   5.913  0.8839 -1.8667  1.6757
  390MOL0     H51446   6.619  10.471   6.245  0.2152 -0.2839  0.5364
  390MOL0     H51447   6.447  10.507   6.242  1.4157 -3.5439 -3.6302
  390MOL0     H51448   6.513  10.751   6.281  2.0217  0.7030 -1.7355
  390MOL0     H51449   6.675  10.699   6.303 -0.1092  0.0297 -1.6962
  390MOL0     H51450   6.432  10.668   6.478  0.1221 -0.8180  1.0894
  390MOL0     H51451   6.577  10.761   6.506  2.5339 -0.5947  0.1641
  390MOL0     H51452   6.520  10.515   6.614 -0.4986 -1.1785 -0.2218
  390MOL0     H51453   6.586  10.459   6.462  1.3444 -2.3182  1.7315
  390MOL0     H51454   6.807  10.576   6.535 -0.0731  0.8047  0.1415
  390MOL0     H51455   6.740  10.446   6.645 -1.9618 -0.4522 -0.3168
  390MOL0     H51456   6.742  10.744   6.672  0.7654 -1.4698  0.0502
  390MOL0     H51457   6.851  10.628   6.751  0.3330  2.7867  0.5681
  390MOL0     H51458   6.542  10.648   6.784 -0.2617 -4.8265 -2.9658
  390MOL0     H51459   6.635  10.531   6.876 -0.3075  0.7849  2.4646
  390MOL0     H51460   6.787  10.722   6.975  0.6359 -0.2808  2.4369
  390MOL0     H51461   6.622  10.704   7.043 -3.8515 -1.7062 -2.0975
  390MOL0     H51462   6.773  10.685   6.088 -1.8797 -0.5766  1.8417
  390MOL0     H51463   6.966  10.629   5.946  1.0287 -1.0153 -1.5602
  390MOL0     H51464   7.225  10.419   5.786  1.6029  0.5793 -0.0778
  390MOL0     H51465   7.460  10.396   5.689 -0.0478  0.6313  0.7770
  390MOL0     H51466   7.115  10.049   5.591 -1.2262 -0.5382  0.8779
  390MOL0     H51467   6.915  10.025   5.730  0.3155 -3.4165  0.1501
  390MOL0     H51468   6.865   9.608   6.162 -1.4602 -2.5891 -0.5748
  390MOL0     H51469   6.688   9.527   6.262 -0.6856 -0.0241 -0.4075
  390MOL0     H51470   6.445   9.508   6.411  1.7181 -1.3721 -1.5766
  390MOL0     H51471   6.462   9.494   6.239 -1.0487 -0.9920 -0.5207
  390MOL0     H51472   6.233   9.620   6.211  4.0970  0.8484 -0.4555
  390MOL0     H51473   6.222   9.463   6.306 -1.6761  0.5100 -1.0965
  390MOL0     H51474   6.204   9.746   6.435 -1.2154  0.0277  1.1170
  390MOL0     H51475   6.208   9.582   6.514 -1.9243  1.4864  1.8157
  390MOL0     H51476   6.007   9.705   6.320  1.4151  1.6241  1.3973
  390MOL0     H51477   6.002   9.530   6.369  0.9913 -1.0873  0.9035
  390MOL0     H51478   5.815   9.727   6.688 -3.0938 -1.3244 -1.5446
  390MOL0     H51479   6.479   9.916   6.209 -0.4086  2.0824  0.3691
  390MOL0     H51480   6.691  10.001   6.088  0.2730  0.6833 -0.3137
  391MOL0     O51481   5.803   4.763   4.038  0.0027  0.5975  0.2833
  391MOL0     C51482   5.833   4.650   4.095  0.5867 -0.5102  0.0206
  391MOL0     O51483   5.779   4.599   4.210  0.5180 -0.0952  0.5716
  391MOL0     C51484   5.676   4.657   4.272 -1.1766  0.8021 -0.5931
  391MOL0     C51485   5.602   4.780   4.248  0.5853  1.0555  0.7956
  391MOL0     C51486   5.481   4.795   4.320  0.0330  0.2205  0.6048
  391MOL0     C51487   5.451   4.712   4.418  0.4256  0.6642 -0.4380
  391MOL0     O51488   5.342   4.723   4.503 -0.0624  0.2105 -0.0351
  391MOL0     C51489   5.230   4.813   4.462 -0.2230  0.7483 -0.7763
  391MOL0     C51490   5.126   4.809   4.566  0.6343  0.5859  0.6527
  391MOL0     C51491   4.991   4.859   4.504  0.7789  1.1728  0.1652
  391MOL0     C51492   4.883   4.829   4.609  0.7959 -0.7611  0.3046
  391MOL0     C51493   4.747   4.874   4.560  0.9073 -0.4895  0.5277
  391MOL0     C51494   4.637   4.863   4.670 -0.4663 -0.5033 -0.5289
  391MOL0     C51495   4.498   4.903   4.618 -0.7029  0.8805 -0.1950
  391MOL0     C51496   4.481   5.057   4.613 -0.5153  0.5904  0.4269
  391MOL0     N51497   4.346   5.086   4.673  0.1098 -0.7615 -0.1268
  391MOL0     C51498   4.222   5.103   4.597 -0.2662 -0.0609 -0.0261
  391MOL0     C51499   4.130   5.138   4.689  0.1093 -0.2446  0.2222
  391MOL0     C51500   3.989   5.183   4.654 -1.0131 -0.0319 -0.5133
  391MOL0     C51501   3.979   5.333   4.665 -0.5635 -0.4491  0.5000
  391MOL0     C51502   3.918   5.365   4.804 -0.1108  0.1455  0.7977
  391MOL0     C51503   3.936   5.513   4.840 -0.2693 -0.1286 -0.8169
  391MOL0     O51504   3.852   5.609   4.775  0.9409  0.6978  0.6425
  391MOL0     C51505   3.720   5.596   4.811  0.2328 -0.3867  0.7268
  391MOL0     C51506   3.663   5.553   4.937 -1.4549 -0.8194 -0.1401
  391MOL0     C51507   3.537   5.558   4.965  0.1735 -0.2923 -0.3450
  391MOL0     C51508   3.442   5.618   4.873 -0.5551  0.0295 -0.0385
  391MOL0     C51509   3.298   5.619   4.918  0.0275 -0.1064  0.0743
  391MOL0     O51510   3.264   5.542   5.038 -0.1216 -0.8033 -1.0599
  391MOL0     C51511   3.152   5.582   5.110  0.4982 -0.8747  0.1343
  391MOL0     C51512   3.102   5.484   5.201 -0.2860 -0.5301  0.4040
  391MOL0     C51513   2.994   5.507   5.280  0.0335 -0.7677 -1.2020
  391MOL0     C51514   2.926   5.634   5.283 -0.0181 -0.1626 -0.6713
  391MOL0     O51515   2.824   5.651   5.371  0.7985  0.9627  0.5859
  391MOL0     C51516   2.705   5.673   5.295  0.3393 -0.6923  0.5342
  391MOL0     C51517   2.586   5.667   5.392  1.0181  0.3711 -0.0668
  391MOL0     C51518   2.451   5.714   5.339  0.5120 -0.1958 -1.1101
  391MOL0     C51519   2.338   5.726   5.456  0.1178  0.7953 -0.6106
  391MOL0     C51520   2.226   5.824   5.428 -0.6534 -1.6793 -0.1843
  391MOL0     C51521   2.122   5.805   5.542  0.3085  0.5634 -0.3529
  391MOL0     C51522   1.996   5.877   5.510 -0.3654 -0.1614  0.6351
  391MOL0     C51523   1.895   5.842   5.623  0.5917  0.2618 -0.4090
  391MOL0    Cl51524   1.726   5.884   5.577  0.2079  0.8581  0.0203
  391MOL0     C51525   2.976   5.739   5.199  0.8136  0.7976  0.1001
  391MOL0     C51526   3.087   5.705   5.110 -1.0157 -0.0106  0.6499
  391MOL0     O51527   3.221   5.679   4.852 -0.7616  0.3992 -0.8930
  391MOL0     C51528   3.489   5.663   4.754 -0.1963 -0.6013 -0.2924
  391MOL0     C51529   3.623   5.640   4.717  0.6865  0.6141  0.9320
  391MOL0     N51530   4.197   5.146   4.814  0.1623  0.8143  0.0430
  391MOL0     N51531   4.313   5.102   4.804 -0.1597 -0.4396  0.3975
  391MOL0     C51532   5.528   4.601   4.454 -0.9022 -0.5222 -0.3207
  391MOL0     C51533   5.642   4.567   4.378 -0.2875  0.5755 -0.0043
  391MOL0     C51534   5.955   4.588   4.030 -0.3420  0.5353  0.8926
  391MOL0     C51535   6.014   4.651   3.920  0.1303  0.0962 -0.0117
  391MOL0     C51536   6.117   4.589   3.856 -0.5846 -0.0374 -0.5863
  391MOL0     C51537   6.182   4.476   3.913 -0.7982 -0.1281  0.2086
  391MOL0     O51538   6.285   4.411   3.855  0.9371  0.6754 -0.0153
  391MOL0     C51539   6.399   4.483   3.814 -0.1885 -1.0288  0.0054
  391MOL0     C51540   6.481   4.405   3.697  0.4912 -0.1915 -0.5461
  391MOL0     C51541   6.505   4.254   3.742 -0.1931 -0.3894  0.2926
  391MOL0     C51542   6.600   4.238   3.859 -0.4825  0.4407 -0.6695
  391MOL0     C51543   6.570   4.100   3.917 -0.8055 -1.4992  0.2812
  391MOL0     C51544   6.571   3.991   3.969 -0.3115  0.0946 -0.2623
  391MOL0     C51545   6.124   4.418   4.023 -0.1243  0.1041 -0.1027
  391MOL0     C51546   6.013   4.468   4.088  0.5087 -0.6542 -0.9178
  391MOL0     H51547   5.620   4.844   4.162  2.9492 -0.0587  0.3713
  391MOL0     H51548   5.408   4.873   4.300 -0.2581 -0.4375 -1.0197
  391MOL0     H51549   5.186   4.786   4.366 -1.4527  2.3613 -0.7157
  391MOL0     H51550   5.270   4.913   4.443  1.5748  0.0672 -0.7580
  391MOL0     H51551   5.146   4.874   4.652 -0.5675  2.0351 -0.1025
  391MOL0     H51552   5.109   4.707   4.601 -0.3419  1.1223  1.8247
  391MOL0     H51553   4.971   4.797   4.416  2.0992 -1.4884  1.6358
  391MOL0     H51554   5.005   4.965   4.479 -0.3572  1.0612 -1.0717
  391MOL0     H51555   4.881   4.722   4.628  0.6595 -0.6743  0.7867
  391MOL0     H51556   4.900   4.877   4.706 -0.8030 -0.8908  0.6805
  391MOL0     H51557   4.719   4.814   4.473  1.2881 -2.3009  1.6225
  391MOL0     H51558   4.751   4.975   4.518  0.8106 -0.1817  1.2434
  391MOL0     H51559   4.654   4.917   4.764 -0.3386  0.2164 -0.9589
  391MOL0     H51560   4.627   4.756   4.692 -1.2128 -0.5032 -0.8314
  391MOL0     H51561   4.486   4.860   4.518 -1.8439  0.1594  0.2364
  391MOL0     H51562   4.431   4.848   4.684 -1.1994  2.3645  0.5822
  391MOL0     H51563   4.494   5.101   4.514  0.4068  1.2667  0.8251
  391MOL0     H51564   4.541   5.114   4.685 -1.8078  2.1367  0.3516
  391MOL0     H51565   4.217   5.107   4.489  0.4140 -3.1838 -0.2814
  391MOL0     H51566   3.913   5.151   4.725  1.0397  1.6582  2.6456
  391MOL0     H51567   3.965   5.132   4.560 -1.7160 -0.1595 -0.2715
  391MOL0     H51568   3.913   5.363   4.583  0.1247 -0.1606  0.0358
  391MOL0     H51569   4.075   5.381   4.644 -1.3499 -0.1041 -2.8197
  391MOL0     H51570   3.811   5.340   4.800 -0.0975  0.2611 -1.3992
  391MOL0     H51571   3.968   5.302   4.878 -1.2239 -0.7448  0.8225
  391MOL0     H51572   4.039   5.546   4.824  0.2086 -0.2740  1.6226
  391MOL0     H51573   3.927   5.515   4.949  1.6471  1.4258 -0.6158
  391MOL0     H51574   3.728   5.538   5.022 -3.4213  0.5537  1.7038
  391MOL0     H51575   3.511   5.511   5.059 -2.7104 -1.1401 -1.4644
  391MOL0     H51576   3.178   5.409   5.216 -1.0238 -1.5153 -0.5981
  391MOL0     H51577   2.984   5.427   5.353  1.3006 -0.3033 -0.5018
  391MOL0     H51578   2.702   5.595   5.219  0.2730  2.2822 -2.8091
  391MOL0     H51579   2.716   5.767   5.239  0.9157 -1.8459 -1.3698
  391MOL0     H51580   2.623   5.728   5.475  2.9941  1.0605 -1.3897
  391MOL0     H51581   2.574   5.563   5.423 -2.6674  0.4136 -0.9391
  391MOL0     H51582   2.417   5.636   5.269 -1.5973  0.0019 -0.3834
  391MOL0     H51583   2.466   5.811   5.290  0.0398 -0.2053 -1.2831
  391MOL0     H51584   2.303   5.627   5.483  0.0436  0.7977 -0.6975
  391MOL0     H51585   2.398   5.762   5.541  0.2154 -0.0337 -0.3227
  391MOL0     H51586   2.191   5.808   5.326  1.7092  1.0281 -1.5456
  391MOL0     H51587   2.267   5.925   5.421 -2.4319 -1.0364 -2.5915
  391MOL0     H51588   2.162   5.834   5.640  1.8154 -2.5315  0.0694
  391MOL0     H51589   2.106   5.698   5.559  1.3631  0.6603  1.6574
  391MOL0     H51590   2.009   5.985   5.499  0.2532 -0.2601  0.3795
  391MOL0     H51591   1.964   5.835   5.414  1.4583 -0.9283  0.3263
  391MOL0     H51592   1.918   5.875   5.725 -0.2560  1.6288 -0.6430
  391MOL0     H51593   1.894   5.734   5.644  1.1187  0.5013  0.9328
  391MOL0     H51594   2.942   5.842   5.194  0.0077  0.5096 -0.8048
  391MOL0     H51595   3.131   5.781   5.046 -0.3257 -1.1951 -0.3334
  391MOL0     H51596   3.430   5.719   4.682 -1.6105  2.5287  2.9770
  391MOL0     H51597   3.656   5.684   4.623 -2.2444  2.6609  0.7480
  391MOL0     H51598   5.512   4.535   4.539 -3.9698  3.1202  2.2466
  391MOL0     H51599   5.679   4.469   4.403 -2.2145 -0.4052 -0.7709
  391MOL0     H51600   5.967   4.738   3.877 -0.7300 -0.8385 -1.0310
  391MOL0     H51601   6.154   4.635   3.766 -1.1809  1.7693  0.0579
  391MOL0     H51602   6.465   4.483   3.902  0.5205 -1.0842 -0.5194
  391MOL0     H51603   6.381   4.586   3.783  2.1562  0.3682  2.7688
  391MOL0     H51604   6.436   4.425   3.599  0.8408  0.7437 -0.5286
  391MOL0     H51605   6.567   4.473   3.689  0.0236  0.5188  0.3469
  391MOL0     H51606   6.552   4.202   3.658  2.2607  2.9830 -0.6324
  391MOL0     H51607   6.406   4.214   3.764  0.6313 -1.4278  2.3615
  391MOL0     H51608   6.706   4.246   3.834  0.6607 -2.1915  2.6347
  391MOL0     H51609   6.586   4.312   3.939 -2.3409 -0.3110 -0.2449
  391MOL0     H51610   6.597   3.899   4.016  0.6993  0.1558 -0.6791
  391MOL0     H51611   6.180   4.328   4.046  0.8611  0.9760  0.9738
  391MOL0     H51612   5.967   4.414   4.170 -0.4608  0.4598 -0.7050
  392MOL0     O51613   7.050   2.778   3.152  0.2040 -0.3890 -0.0834
  392MOL0     C51614   7.009   2.829   3.255 -0.1688 -0.3920  0.1455
  392MOL0     O51615   6.931   2.775   3.345  0.5476 -0.2619  0.4240
  392MOL0     C51616   6.922   2.640   3.340 -0.4451  0.2343  0.0963
  392MOL0     C51617   6.805   2.571   3.310  0.4919 -0.4717  0.0695
  392MOL0     C51618   6.793   2.433   3.330 -0.9881 -0.1400  0.0394
  392MOL0     C51619   6.906   2.353   3.360  0.6815  1.2552 -0.2201
  392MOL0     O51620   6.899   2.217   3.368  0.5480 -0.0544  0.6521
  392MOL0     C51621   6.826   2.143   3.268  0.5882  0.1171 -0.0950
  392MOL0     C51622   6.727   2.054   3.338 -0.4999 -0.2747  0.2603
  392MOL0     C51623   6.639   2.126   3.436  0.5897  0.0675  0.0078
  392MOL0     C51624   6.531   2.015   3.465 -0.2950  0.6495  0.3649
  392MOL0     C51625   6.457   2.064   3.589 -0.0806 -0.6867 -0.1087
  392MOL0     C51626   6.335   1.984   3.607 -0.0922  0.0112 -0.2776
  392MOL0     C51627   6.366   1.851   3.696  0.1341 -0.8159  1.2866
  392MOL0     C51628   6.241   1.794   3.765 -0.3136 -0.8901  0.4903
  392MOL0     N51629   6.257   1.720   3.898  1.0223  0.0259 -0.0860
  392MOL0     C51630   6.342   1.758   3.997 -0.6039  0.1080 -0.6551
  392MOL0     C51631   6.341   1.665   4.089  0.2078  0.2770 -0.3929
  392MOL0     C51632   6.412   1.655   4.227  0.2874 -0.3765  0.6297
  392MOL0     C51633   6.506   1.533   4.228  0.4501  0.0711  0.9530
  392MOL0     C51634   6.640   1.550   4.144 -0.4361 -0.8294  0.1104
  392MOL0     C51635   6.717   1.420   4.137 -0.0830 -0.0806  0.4201
  392MOL0     O51636   6.858   1.414   4.127  0.6492  0.0903 -0.6526
  392MOL0     C51637   6.933   1.446   4.018  0.2613  0.0165 -0.8758
  392MOL0     C51638   6.900   1.525   3.907  0.3843 -0.2720  0.8474
  392MOL0     C51639   6.992   1.567   3.812  0.1897  0.0272  0.8422
  392MOL0     C51640   7.120   1.532   3.820 -0.5375 -0.2970  0.2579
  392MOL0     C51641   7.227   1.580   3.731  0.0406 -0.5857 -0.0761
  392MOL0     O51642   7.196   1.697   3.668 -0.3249 -0.4967 -0.1837
  392MOL0     C51643   7.284   1.781   3.596  0.4099  1.6054  0.9956
  392MOL0     C51644   7.389   1.721   3.528 -0.4155 -0.5630 -0.3135
  392MOL0     C51645   7.485   1.805   3.471  0.0923  0.4954 -1.1410
  392MOL0     C51646   7.478   1.938   3.480  0.3550  0.5861  0.0716
  392MOL0     O51647   7.575   2.008   3.420  0.2310  0.1883  0.6987
  392MOL0     C51648   7.614   2.132   3.491 -0.3906 -0.5089  0.8323
  392MOL0     C51649   7.749   2.193   3.428 -0.1133  0.6039  0.0908
  392MOL0     C51650   7.779   2.327   3.501  0.6328  0.0869  0.5291
  392MOL0     C51651   7.890   2.396   3.418 -0.4795 -0.2644  0.7338
  392MOL0     C51652   7.928   2.543   3.473  0.6880  0.2330  0.2698
  392MOL0     C51653   8.038   2.529   3.585  0.5296  0.3551 -0.6517
  392MOL0     C51654   8.057   2.661   3.649 -0.1558 -1.0062 -0.4800
  392MOL0     C51655   8.125   2.667   3.786 -0.1361 -0.0219  0.2784
  392MOL0    Cl51656   8.276   2.584   3.750  0.0983  0.1921  0.6706
  392MOL0     C51657   7.371   1.998   3.544  0.2258 -0.3184 -0.5219
  392MOL0     C51658   7.269   1.915   3.603 -0.3715 -0.9929 -0.5576
  392MOL0     O51659   7.339   1.526   3.736  0.2159  0.2443  0.8336
  392MOL0     C51660   7.162   1.444   3.930  0.0673  0.4089 -0.3993
  392MOL0     C51661   7.064   1.406   4.024 -0.7507  0.0095 -0.1415
  392MOL0     N51662   6.254   1.570   4.041  0.4968  0.3430  0.3556
  392MOL0     N51663   6.194   1.610   3.938  0.1483  0.6500 -0.1931
  392MOL0     C51664   7.023   2.421   3.389 -0.1231 -0.5802  0.2845
  392MOL0     C51665   7.033   2.561   3.388  0.6535 -0.0192 -0.2223
  392MOL0     C51666   7.024   2.969   3.289 -0.8666 -0.3273 -0.3727
  392MOL0     C51667   7.036   3.019   3.423 -0.0643  0.1995  0.0058
  392MOL0     C51668   7.031   3.151   3.456  0.0501 -0.4817  0.5301
  392MOL0     C51669   7.007   3.245   3.341  0.1460 -1.0347 -1.2135
  392MOL0     O51670   6.999   3.375   3.383  0.2908  0.8266 -0.6356
  392MOL0     C51671   7.045   3.482   3.301 -0.0419 -0.2272 -0.1259
  392MOL0     C51672   7.077   3.602   3.387  0.4267 -1.4034  1.2377
  392MOL0     C51673   6.966   3.714   3.386 -0.1535  0.2902 -0.0224
  392MOL0     C51674   6.854   3.696   3.492  0.0440 -0.3763 -0.3568
  392MOL0     C51675   6.787   3.818   3.544 -0.1312 -0.3982  0.7220
  392MOL0     C51676   6.727   3.899   3.601 -0.0777 -0.0217 -0.8654
  392MOL0     C51677   7.001   3.198   3.210  0.3828 -0.6351  0.7344
  392MOL0     C51678   7.006   3.062   3.186  0.9701  0.1598 -0.0486
  392MOL0     H51679   6.725   2.640   3.284  2.8635  2.4960  0.1704
  392MOL0     H51680   6.699   2.386   3.303 -0.0613 -0.9734 -1.9061
  392MOL0     H51681   6.896   2.090   3.202  0.0250  1.9129 -2.2646
  392MOL0     H51682   6.770   2.204   3.196  0.2318  1.5839  1.3714
  392MOL0     H51683   6.784   1.973   3.384  1.5820  1.9904  2.0110
  392MOL0     H51684   6.668   1.997   3.266 -1.2672 -2.4876  2.5208
  392MOL0     H51685   6.599   2.215   3.387  0.8827  0.9670  1.3472
  392MOL0     H51686   6.702   2.150   3.522  1.1080 -1.1822  0.0026
  392MOL0     H51687   6.459   2.006   3.384 -0.5891  1.8196  0.4847
  392MOL0     H51688   6.585   1.922   3.486  1.9435  1.4123 -1.5065
  392MOL0     H51689   6.414   2.162   3.568 -2.3598 -1.1802  1.8029
  392MOL0     H51690   6.529   2.073   3.671  0.8039  2.2296 -1.0786
  392MOL0     H51691   6.273   1.966   3.519 -1.1662  1.2621  0.1871
  392MOL0     H51692   6.270   2.038   3.676 -2.0171  0.1175 -2.0823
  392MOL0     H51693   6.406   1.779   3.623  1.9024  1.7831 -0.4842
  392MOL0     H51694   6.441   1.869   3.774  1.8835  1.1679 -0.7334
  392MOL0     H51695   6.176   1.738   3.697 -2.1148 -1.0087  2.2415
  392MOL0     H51696   6.171   1.876   3.782 -1.6307 -1.3072 -2.3530
  392MOL0     H51697   6.413   1.839   4.010  0.9481  0.3404 -7.1249
  392MOL0     H51698   6.348   1.641   4.315  0.5802  2.5632  1.4247
  392MOL0     H51699   6.472   1.745   4.247  1.4142 -0.6640 -1.2388
  392MOL0     H51700   6.453   1.445   4.191  2.6408 -0.6957 -0.5378
  392MOL0     H51701   6.537   1.511   4.331 -0.4742 -2.5072  0.7554
  392MOL0     H51702   6.603   1.587   4.047 -3.9881 -0.0840  1.5592
  392MOL0     H51703   6.697   1.631   4.191 -1.5439 -2.5380  4.9782
  392MOL0     H51704   6.684   1.361   4.050  0.0258 -0.1658  0.4367
  392MOL0     H51705   6.680   1.355   4.217 -0.1349 -0.6203 -0.0272
  392MOL0     H51706   6.798   1.560   3.897  1.0802  1.4198 -1.1258
  392MOL0     H51707   6.969   1.635   3.731  0.3667 -0.9695 -0.0681
  392MOL0     H51708   7.395   1.613   3.524 -0.9774 -0.7734  2.4379
  392MOL0     H51709   7.569   1.763   3.417  0.9845 -1.5592  1.5855
  392MOL0     H51710   7.612   2.101   3.596  0.4239 -0.4275  0.8789
  392MOL0     H51711   7.534   2.205   3.477 -2.9768 -2.7802  2.6838
  392MOL0     H51712   7.740   2.194   3.319  2.4111  0.2711 -0.1928
  392MOL0     H51713   7.832   2.122   3.438 -1.9793 -1.7478 -0.3251
  392MOL0     H51714   7.828   2.304   3.596  0.5608  0.1196  0.5742
  392MOL0     H51715   7.695   2.397   3.504 -0.6368 -1.4204  1.7625
  392MOL0     H51716   7.981   2.336   3.423 -0.3186 -0.1641 -0.7367
  392MOL0     H51717   7.863   2.398   3.312  0.4854 -1.8578  0.4240
  392MOL0     H51718   7.838   2.590   3.515  0.3405  1.2526 -1.4816
  392MOL0     H51719   7.955   2.602   3.385 -1.0522 -0.4463 -0.7543
  392MOL0     H51720   8.130   2.482   3.550  0.8179 -0.6761  1.3375
  392MOL0     H51721   7.998   2.471   3.669  0.9161 -0.7904 -1.2458
  392MOL0     H51722   8.104   2.721   3.571  1.9662 -2.6856 -0.5783
  392MOL0     H51723   7.958   2.686   3.689  0.0593 -3.1218  1.6431
  392MOL0     H51724   8.066   2.614   3.862 -0.6382 -0.6016 -0.4959
  392MOL0     H51725   8.141   2.769   3.823 -2.2516  0.0399  1.1814
  392MOL0     H51726   7.354   2.105   3.551 -0.4640 -0.5007  1.4069
  392MOL0     H51727   7.179   1.957   3.645  0.9672  0.9721  0.4901
  392MOL0     H51728   7.259   1.395   3.940  0.0239  0.6624  2.0024
  392MOL0     H51729   7.094   1.329   4.094  2.1846 -1.1140 -2.4499
  392MOL0     H51730   7.110   2.361   3.413  0.7705  0.7739  0.5551
  392MOL0     H51731   7.127   2.614   3.404 -0.1416  0.8307  1.9748
  392MOL0     H51732   7.047   2.940   3.497 -2.2583  2.2061  2.7215
  392MOL0     H51733   7.049   3.180   3.558  1.5088  5.2188 -1.0069
  392MOL0     H51734   6.971   3.510   3.225 -2.7882  2.9734  3.3881
  392MOL0     H51735   7.142   3.454   3.257 -1.1974  0.4951 -3.4546
  392MOL0     H51736   7.105   3.578   3.490  0.2375  2.3964  2.2991
  392MOL0     H51737   7.167   3.639   3.338 -0.4228  0.6796  1.1556
  392MOL0     H51738   6.915   3.746   3.295  0.4302  1.2432 -0.0232
  392MOL0     H51739   7.016   3.807   3.414  1.8020 -0.3737 -1.1247
  392MOL0     H51740   6.783   3.623   3.451 -0.4395  0.8692 -1.8469
  392MOL0     H51741   6.901   3.654   3.581 -1.1599  1.0506  1.0064
  392MOL0     H51742   6.694   3.987   3.653  2.2082  0.4871 -0.1511
  392MOL0     H51743   6.972   3.246   3.118 -0.9322  2.6260  2.6927
  392MOL0     H51744   6.991   3.011   3.091 -0.7462 -3.8197  2.0828
  393MOL0     O51745   1.495  10.085   1.861 -0.2875  0.0523  0.5426
  393MOL0     C51746   1.478  10.201   1.818  0.2383  0.2024  0.4518
  393MOL0     O51747   1.356  10.248   1.782  0.4005 -1.0879  0.8752
  393MOL0     C51748   1.255  10.170   1.822 -0.4265  0.0805 -0.5828
  393MOL0     C51749   1.202  10.061   1.751 -0.9632 -0.5280  0.1172
  393MOL0     C51750   1.092   9.987   1.797  0.9017 -0.8039 -0.3331
  393MOL0     C51751   1.039  10.022   1.930  0.3613 -0.2512  0.0974
  393MOL0     O51752   0.930   9.952   1.973  0.1283  0.1268 -0.8996
  393MOL0     C51753   0.814  10.041   1.982 -0.6948  0.2110  0.0671
  393MOL0     C51754   0.684   9.964   2.019  0.2413  1.1973  0.2577
  393MOL0     C51755   0.699   9.859   2.131  1.1176  0.2152 -0.4048
  393MOL0     C51756   0.563   9.799   2.190 -0.9309 -0.7835  0.1908
  393MOL0     C51757   0.592   9.699   2.304 -0.4956 -1.1734  0.0771
  393MOL0     C51758   0.460   9.631   2.367 -0.3539 -0.0084 -0.2288
  393MOL0     C51759   0.504   9.549   2.492  0.7246 -0.5254  0.2301
  393MOL0     C51760   0.498   9.397   2.451 -1.0341 -0.6034  0.3406
  393MOL0     N51761   0.360   9.346   2.463  0.6214  0.4913 -0.6622
  393MOL0     C51762   0.285   9.354   2.584 -0.7853 -0.2958 -0.8743
  393MOL0     C51763   0.161   9.303   2.550 -1.2009 -1.0678 -0.2567
  393MOL0     C51764   0.049   9.279   2.642  0.6998  0.6347  0.0254
  393MOL0     C51765   0.027   9.128   2.659  0.7443  0.9905 -0.1728
  393MOL0     C51766  -0.118   9.087   2.704 -0.9304  0.3386 -0.3631
  393MOL0     C51767  -0.228   9.133   2.612 -0.4236  0.2676  0.0457
  393MOL0     O51768  -0.344   9.058   2.592 -0.0114  0.6506  0.8389
  393MOL0     C51769  -0.424   9.035   2.702 -0.2360  0.3961  0.0149
  393MOL0     C51770  -0.492   8.912   2.709  0.1332  1.0583 -0.6346
  393MOL0     C51771  -0.568   8.876   2.821  1.8189  0.4258  0.0548
  393MOL0     C51772  -0.580   8.962   2.936 -0.7847  0.0947  0.4490
  393MOL0     C51773  -0.659   8.921   3.060  0.5876  0.0073  0.7416
  393MOL0     O51774  -0.676   9.011   3.155 -0.6232 -0.7550  1.2534
  393MOL0     C51775  -0.735   8.970   3.261 -0.4301  0.6713  0.2111
  393MOL0     C51776  -0.880   8.936   3.274 -1.0498  0.3014  0.4255
  393MOL0     C51777  -0.927   8.891   3.390 -0.0378 -0.7284 -0.1016
  393MOL0     C51778  -0.854   8.904   3.511 -0.9872 -0.5439  0.0654
  393MOL0     O51779  -0.902   8.871   3.630  0.6829  0.4877  0.2400
  393MOL0     C51780  -1.007   8.953   3.665  0.4951 -0.2244 -0.2792
  393MOL0     C51781  -1.036   8.948   3.824  0.8003 -0.9189  1.2999
  393MOL0     C51782  -1.153   9.038   3.848 -0.9728  0.0013 -0.2224
  393MOL0     C51783  -1.182   9.054   3.993 -0.0377 -1.0457  0.1453
  393MOL0     C51784  -1.274   9.177   4.021  0.0119  0.5387 -1.1034
  393MOL0     C51785  -1.305   9.200   4.171  0.5268  0.4387 -0.3329
  393MOL0     C51786  -1.402   9.090   4.223 -0.2942  0.0974  1.0803
  393MOL0     C51787  -1.441   9.118   4.366 -0.0298  0.4351  0.6714
  393MOL0    Cl51788  -1.307   9.123   4.475  0.3760  0.5274  0.3240
  393MOL0     C51789  -0.723   8.952   3.506 -1.0282 -0.7523  0.0337
  393MOL0     C51790  -0.664   8.977   3.381  0.0564 -0.3342  0.2954
  393MOL0     O51791  -0.714   8.809   3.057 -0.9563  0.3041  0.7812
  393MOL0     C51792  -0.511   9.086   2.930 -0.7566  0.4955 -0.2480
  393MOL0     C51793  -0.434   9.114   2.820 -0.0527 -0.0350  0.3670
  393MOL0     N51794   0.165   9.263   2.420  0.6546  0.3968  0.3389
  393MOL0     N51795   0.282   9.288   2.371 -0.1811 -0.6816  0.9519
  393MOL0     C51796   1.090  10.133   2.005 -0.1280 -0.1051  0.0146
  393MOL0     C51797   1.202  10.196   1.957 -0.2212 -0.4467  0.3670
  393MOL0     C51798   1.598  10.293   1.810  0.6326 -0.8549 -0.0460
  393MOL0     C51799   1.582  10.428   1.785 -0.1842 -0.4368 -1.1434
  393MOL0     C51800   1.701  10.516   1.788  0.2904  0.5294 -0.2702
  393MOL0     C51801   1.834  10.461   1.802 -0.3706 -0.0324 -0.2952
  393MOL0     O51802   1.953  10.533   1.794 -0.0083  0.4222  1.5820
  393MOL0     C51803   1.956  10.672   1.843  0.2013 -0.7272  0.5294
  393MOL0     C51804   1.977  10.774   1.729  0.9689  0.1151  0.8921
  393MOL0     C51805   2.111  10.778   1.659 -0.7167  0.5306  0.7417
  393MOL0     C51806   2.114  10.912   1.583  0.7836 -0.6755 -0.8384
  393MOL0     C51807   2.227  10.925   1.484  0.0511 -0.4563  0.7191
  393MOL0     C51808   2.328  10.934   1.411  0.1826  0.1707 -0.4378
  393MOL0     C51809   1.847  10.323   1.821 -0.2928  0.1711 -0.2581
  393MOL0     C51810   1.731  10.248   1.832  0.2597  0.1148 -0.3609
  393MOL0     H51811   1.241  10.039   1.652  0.1301 -0.9181  0.6199
  393MOL0     H51812   1.049   9.908   1.736 -0.9907 -0.3145  0.2883
  393MOL0     H51813   0.802  10.094   1.887  0.0730 -2.3937 -1.5973
  393MOL0     H51814   0.825  10.097   2.075 -0.6113 -0.3675  0.4114
  393MOL0     H51815   0.634   9.903   1.943  0.1177  1.1474  0.3782
  393MOL0     H51816   0.619  10.046   2.052 -0.2744  0.6637  0.5958
  393MOL0     H51817   0.751   9.908   2.214  0.8188 -0.7133  0.3452
  393MOL0     H51818   0.757   9.774   2.095 -0.0882 -1.2360  0.9273
  393MOL0     H51819   0.507   9.884   2.231  1.0621 -0.0238  1.4659
  393MOL0     H51820   0.498   9.749   2.118 -1.8447 -0.8717  1.0451
  393MOL0     H51821   0.645   9.751   2.384 -2.1271  0.3281  0.2484
  393MOL0     H51822   0.652   9.623   2.254 -1.7590 -0.7563 -2.2315
  393MOL0     H51823   0.420   9.559   2.294 -0.0696  2.3578 -2.9331
  393MOL0     H51824   0.373   9.696   2.380 -3.0672 -2.4793 -3.8586
  393MOL0     H51825   0.600   9.576   2.537  0.4363  0.2807  0.3764
  393MOL0     H51826   0.434   9.573   2.572  0.6010 -0.1357  0.0103
  393MOL0     H51827   0.565   9.343   2.519  1.9869  0.9408 -1.1666
  393MOL0     H51828   0.553   9.378   2.359  1.2449 -2.9180  2.0264
  393MOL0     H51829   0.320   9.399   2.677 -2.7491  1.3521 -0.8414
  393MOL0     H51830  -0.042   9.322   2.599  2.1099  3.1501 -0.5949
  393MOL0     H51831   0.069   9.319   2.742 -1.6517 -1.7759  1.5990
  393MOL0     H51832   0.110   9.089   2.719 -0.5284  1.6185  2.1228
  393MOL0     H51833   0.041   9.084   2.560 -2.0143  2.0881 -1.1463
  393MOL0     H51834  -0.133   8.979   2.712 -1.6472  0.5439  1.7272
  393MOL0     H51835  -0.141   9.125   2.804 -1.3620 -2.7703  0.8288
  393MOL0     H51836  -0.205   9.149   2.506 -2.9640  1.3249 -0.4186
  393MOL0     H51837  -0.251   9.237   2.637  3.8951  1.5494 -0.3841
  393MOL0     H51838  -0.486   8.834   2.633  1.0910 -0.7097  1.1532
  393MOL0     H51839  -0.613   8.777   2.828  0.2940  1.1613  1.2635
  393MOL0     H51840  -0.945   8.940   3.187 -0.1684  1.2163 -0.2124
  393MOL0     H51841  -1.027   8.851   3.376 -0.7075  1.2986 -1.6519
  393MOL0     H51842  -1.099   8.922   3.613 -1.2532  3.6417  0.1762
  393MOL0     H51843  -0.979   9.053   3.631  0.2674  1.0663  2.9536
  393MOL0     H51844  -0.947   8.974   3.883 -1.3387 -0.1025  4.3876
  393MOL0     H51845  -1.058   8.847   3.861 -1.4731  0.8272  5.2459
  393MOL0     H51846  -1.240   8.995   3.797 -2.0075 -0.6528  1.9604
  393MOL0     H51847  -1.128   9.139   3.815 -0.5085 -1.1192 -3.7226
  393MOL0     H51848  -1.216   8.953   4.019  0.2988 -2.1447 -3.2217
  393MOL0     H51849  -1.089   9.079   4.044 -0.4260  0.6780  0.0501
  393MOL0     H51850  -1.369   9.164   3.970 -1.1002  3.3977  0.0381
  393MOL0     H51851  -1.220   9.267   3.988 -0.4061  0.9885 -0.5912
  393MOL0     H51852  -1.365   9.287   4.197 -1.9694 -1.1153 -0.4567
  393MOL0     H51853  -1.218   9.206   4.236  0.2816 -0.0938  0.0498
  393MOL0     H51854  -1.493   9.100   4.162 -0.5394  0.1936  1.4592
  393MOL0     H51855  -1.354   8.993   4.207 -1.1301 -0.2319  0.4956
  393MOL0     H51856  -1.521   9.047   4.390 -2.2548  2.8481  0.8313
  393MOL0     H51857  -1.511   9.201   4.379 -0.8449 -0.2057  0.4717
  393MOL0     H51858  -0.655   8.980   3.586 -1.0476  2.6460 -0.9955
  393MOL0     H51859  -0.561   9.010   3.374  0.4487 -1.6326 -0.3303
  393MOL0     H51860  -0.507   9.146   3.020  0.6445  0.2868 -0.1547
  393MOL0     H51861  -0.370   9.200   2.831  2.2595 -1.7440  1.2006
  393MOL0     H51862   1.047  10.172   2.096  1.8457  4.6550 -0.7734
  393MOL0     H51863   1.238  10.282   2.013  2.1017 -0.3700 -1.1026
  393MOL0     H51864   1.486  10.479   1.784  0.1011  0.4250  2.3026
  393MOL0     H51865   1.694  10.624   1.778  0.1988  0.4857 -0.7089
  393MOL0     H51866   2.033  10.684   1.920  0.3341  1.5476  0.1265
  393MOL0     H51867   1.864  10.695   1.898 -0.5697 -4.0902  0.8253
  393MOL0     H51868   1.894  10.759   1.659  0.5624 -3.4923  1.9586
  393MOL0     H51869   1.962  10.869   1.781 -0.3249 -0.2290  1.1870
  393MOL0     H51870   2.104  10.699   1.583 -1.0521  0.2287  1.0838
  393MOL0     H51871   2.192  10.757   1.730 -0.1228 -0.8158 -0.3014
  393MOL0     H51872   2.017  10.912   1.532 -0.5350 -1.5749  1.5020
  393MOL0     H51873   2.116  10.998   1.651  1.3648  1.4208 -3.3460
  393MOL0     H51874   2.415  10.959   1.354  1.9718  2.4845  2.9575
  393MOL0     H51875   1.943  10.278   1.846  0.1975  2.7016  3.0580
  393MOL0     H51876   1.748  10.148   1.869 -1.9499 -1.4117 -3.0285
  394MOL0     O51877   9.967   6.314   0.964 -0.7632  0.3023  0.4249
  394MOL0     C51878   9.960   6.313   0.838  0.9659  0.7664 -0.2828
  394MOL0     O51879   9.896   6.409   0.763  0.8290 -0.6689 -0.0853
  394MOL0     C51880   9.855   6.523   0.829 -0.7408 -0.0829 -0.4107
  394MOL0     C51881   9.960   6.612   0.860  0.5785 -0.5283 -0.9132
  394MOL0     C51882   9.936   6.721   0.941 -0.0755 -0.2466  0.9134
  394MOL0     C51883   9.807   6.736   0.998 -0.3250  0.8447 -1.5840
  394MOL0     O51884   9.777   6.840   1.081  0.0993  0.1229 -0.3911
  394MOL0     C51885   9.869   6.930   1.133 -0.4794  0.2233 -0.3360
  394MOL0     C51886   9.795   7.032   1.212  0.2585 -0.8707 -0.1932
  394MOL0     C51887   9.734   7.136   1.131 -0.3611  0.1714  0.3356
  394MOL0     C51888   9.637   7.214   1.217  1.1457  0.2483 -1.3660
  394MOL0     C51889   9.493   7.161   1.238 -0.0145  0.6188  0.1485
  394MOL0     C51890   9.420   7.229   1.350 -0.1368 -0.5203 -0.4150
  394MOL0     C51891   9.452   7.177   1.494 -0.0648 -0.0449 -0.1104
  394MOL0     C51892   9.401   7.277   1.598 -0.8364 -0.1483 -0.8652
  394MOL0     N51893   9.262   7.248   1.647  0.5898 -0.4484  0.2740
  394MOL0     C51894   9.224   7.163   1.750 -0.4354 -1.4346 -0.2599
  394MOL0     C51895   9.085   7.153   1.752 -0.7976 -0.2296 -1.3119
  394MOL0     C51896   9.009   7.070   1.863  0.0169  0.0219 -0.2936
  394MOL0     C51897   9.028   6.926   1.832  0.2076  1.0716 -0.0928
  394MOL0     C51898   8.956   6.826   1.923  0.6319  0.3775  0.7832
  394MOL0     C51899   8.799   6.846   1.936  0.0084 -1.0556 -1.3340
  394MOL0     O51900   8.756   6.718   1.987 -0.2224  0.3918 -0.1249
  394MOL0     C51901   8.631   6.678   1.951 -0.5567 -0.2416  0.1142
  394MOL0     C51902   8.520   6.764   1.969 -0.0121 -0.4363  0.1556
  394MOL0     C51903   8.396   6.719   1.930 -0.5025 -0.2000 -0.3458
  394MOL0     C51904   8.382   6.576   1.904  0.5191 -1.1867  0.0793
  394MOL0     C51905   8.246   6.516   1.869  0.1513 -0.2166  0.4118
  394MOL0     O51906   8.139   6.584   1.907 -0.2325 -0.2143 -0.6511
  394MOL0     C51907   8.020   6.568   1.846 -0.4193 -0.7444 -0.3316
  394MOL0     C51908   7.911   6.509   1.914  0.0964  0.3015 -0.5820
  394MOL0     C51909   7.800   6.478   1.847 -0.9208 -0.3342  0.6475
  394MOL0     C51910   7.780   6.494   1.706 -0.0786  0.1791  0.7550
  394MOL0     O51911   7.660   6.464   1.645  0.8346 -0.0269  0.1044
  394MOL0     C51912   7.569   6.373   1.694 -0.6340 -0.0475 -0.4506
  394MOL0     C51913   7.628   6.238   1.688 -0.1739 -0.6746 -0.5143
  394MOL0     C51914   7.612   6.196   1.536  0.7482 -0.8952  0.1577
  394MOL0     C51915   7.701   6.071   1.498 -0.2883  0.0410  1.4398
  394MOL0     C51916   7.862   6.091   1.519 -0.2702  0.1962 -0.0189
  394MOL0     C51917   7.924   6.201   1.430 -0.0430 -0.3487 -0.2292
  394MOL0     C51918   8.058   6.243   1.487 -0.2503 -0.2393 -0.1140
  394MOL0     C51919   8.159   6.334   1.395  0.2022 -0.4498  0.2017
  394MOL0    Cl51920   8.083   6.495   1.347  0.3716  0.3114 -0.0697
  394MOL0     C51921   7.885   6.558   1.646  0.4694  0.5344  0.4398
  394MOL0     C51922   8.001   6.602   1.711  0.2134  0.5572 -0.4762
  394MOL0     O51923   8.241   6.410   1.804  0.8886 -0.0181  0.7127
  394MOL0     C51924   8.492   6.491   1.895  0.3117  0.9663  0.6479
  394MOL0     C51925   8.621   6.546   1.917 -0.0049 -0.3611 -0.4507
  394MOL0     N51926   9.044   7.242   1.661 -0.6768 -0.3503  0.0909
  394MOL0     N51927   9.148   7.295   1.595  0.5927  0.1673  0.5784
  394MOL0     C51928   9.705   6.637   0.979 -1.1350 -0.0433  0.5089
  394MOL0     C51929   9.732   6.535   0.892 -0.6864  0.7007  0.5610
  394MOL0     C51930  10.021   6.200   0.775 -0.1038 -0.9195  0.7004
  394MOL0     C51931  10.032   6.198   0.632  0.5216  0.8423  0.0092
  394MOL0     C51932  10.080   6.089   0.576 -0.5330  0.6374  0.0669
  394MOL0     C51933  10.134   5.982   0.641  0.1679 -0.2274 -0.0458
  394MOL0     O51934  10.177   5.866   0.588  0.2206 -0.0674 -0.1727
  394MOL0     C51935  10.179   5.860   0.433  0.4016 -0.4644  0.2646
  394MOL0     C51936  10.250   5.738   0.385  0.2977 -0.6121 -0.3047
  394MOL0     C51937  10.392   5.721   0.433  0.7951  0.2652 -0.3253
  394MOL0     C51938  10.453   5.588   0.371 -0.0061 -0.6839 -0.6601
  394MOL0     C51939  10.587   5.617   0.314 -0.0263  0.3554 -0.5640
  394MOL0     C51940  10.691   5.635   0.257 -0.2953 -0.4422 -0.8693
  394MOL0     C51941  10.135   5.988   0.774 -0.6031  0.6770 -0.0956
  394MOL0     C51942  10.080   6.094   0.842  0.8894 -0.0017  0.2672
  394MOL0     H51943  10.047   6.587   0.801  1.4161  3.3216 -1.5865
  394MOL0     H51944  10.022   6.785   0.961  0.5781 -1.5764  2.6493
  394MOL0     H51945   9.917   6.979   1.048  0.2736  0.9950  0.5125
  394MOL0     H51946   9.948   6.889   1.197 -1.4371  0.5074  1.0789
  394MOL0     H51947   9.869   7.080   1.277  0.1247  0.4825 -1.0098
  394MOL0     H51948   9.727   6.993   1.289  2.1424  1.1630  2.7583
  394MOL0     H51949   9.685   7.088   1.045  2.1679  0.1978 -1.2116
  394MOL0     H51950   9.813   7.204   1.097 -1.1696  0.5039 -0.9841
  394MOL0     H51951   9.676   7.220   1.319  1.9033  0.2417 -1.6516
  394MOL0     H51952   9.638   7.322   1.197 -1.4297  0.4269 -0.9653
  394MOL0     H51953   9.485   7.052   1.229 -1.0166  0.7643 -0.9899
  394MOL0     H51954   9.439   7.190   1.147 -3.2654 -2.2857  0.9468
  394MOL0     H51955   9.312   7.229   1.334 -0.0132  0.1049 -1.3356
  394MOL0     H51956   9.440   7.337   1.349 -0.5036 -0.4410  0.5651
  394MOL0     H51957   9.405   7.078   1.505 -1.1317  0.5183  0.6087
  394MOL0     H51958   9.559   7.162   1.505 -0.0584  0.7301  0.9747
  394MOL0     H51959   9.410   7.383   1.573 -3.7338  0.9040  1.9359
  394MOL0     H51960   9.473   7.264   1.679  1.9801  0.9728 -3.0034
  394MOL0     H51961   9.287   7.124   1.830  0.2971  3.9038  2.2033
  394MOL0     H51962   8.902   7.094   1.867 -0.5566 -2.0777 -1.6910
  394MOL0     H51963   9.042   7.092   1.965 -1.4568 -2.3496  0.7932
  394MOL0     H51964   9.131   6.890   1.837 -1.4145 -4.2860  0.4714
  394MOL0     H51965   8.985   6.908   1.733 -2.8085  1.6914  0.9745
  394MOL0     H51966   8.980   6.734   1.869  1.5647  1.6953 -1.1462
  394MOL0     H51967   8.993   6.826   2.026 -2.0551 -3.4050  2.0026
  394MOL0     H51968   8.739   6.870   1.848 -0.4876  2.1634 -0.2470
  394MOL0     H51969   8.783   6.932   2.001  1.9594 -1.5885 -0.0666
  394MOL0     H51970   8.525   6.860   2.020 -3.4603  1.4764 -2.6383
  394MOL0     H51971   8.304   6.777   1.938  0.2281  1.0546 -0.7693
  394MOL0     H51972   7.914   6.496   2.021 -1.6145  2.5002 -0.1816
  394MOL0     H51973   7.720   6.445   1.913 -3.5654  0.7075 -1.8553
  394MOL0     H51974   7.475   6.371   1.638 -0.5666 -0.5885 -0.5510
  394MOL0     H51975   7.538   6.389   1.798 -1.6009 -0.3371 -0.6914
  394MOL0     H51976   7.570   6.181   1.761  1.1107 -0.2468  0.8874
  394MOL0     H51977   7.729   6.222   1.725 -1.4934 -3.0202  2.4732
  394MOL0     H51978   7.639   6.276   1.466  0.4582 -2.0586 -1.3240
  394MOL0     H51979   7.508   6.180   1.509  0.4142 -2.6997  2.3068
  394MOL0     H51980   7.675   5.985   1.560  2.0084 -1.1142  0.9279
  394MOL0     H51981   7.678   6.049   1.394 -0.5457  0.1970  1.4641
  394MOL0     H51982   7.908   5.997   1.488 -3.2022 -1.7066  0.9494
  394MOL0     H51983   7.877   6.096   1.627  0.7964  0.0320 -0.1502
  394MOL0     H51984   7.851   6.282   1.431  0.9877  0.6038 -0.2735
  394MOL0     H51985   7.933   6.174   1.324 -3.6801  0.9373 -1.0109
  394MOL0     H51986   8.034   6.305   1.573  0.3077  0.3861 -0.4042
  394MOL0     H51987   8.109   6.154   1.527  0.7897 -0.4758 -1.8400
  394MOL0     H51988   8.195   6.285   1.304  0.8221  3.9918 -2.2501
  394MOL0     H51989   8.245   6.376   1.448 -0.5750  3.8937 -1.5423
  394MOL0     H51990   7.891   6.576   1.539  1.1934  0.4639  0.4605
  394MOL0     H51991   8.089   6.641   1.662  1.4433  2.2087  2.7383
  394MOL0     H51992   8.486   6.385   1.872 -3.0744  0.6587  2.3524
  394MOL0     H51993   8.698   6.470   1.915  0.0778 -0.3723  1.5878
  394MOL0     H51994   9.626   6.656   1.051  1.2074  0.2834  3.1650
  394MOL0     H51995   9.671   6.448   0.869 -0.5097  0.8289 -0.4371
  394MOL0     H51996  10.003   6.284   0.572 -1.1258  1.0319  1.0183
  394MOL0     H51997  10.069   6.094   0.468  0.3431  3.0734  0.0217
  394MOL0     H51998  10.226   5.950   0.391 -1.1870  0.6163  0.6921
  394MOL0     H51999  10.076   5.854   0.397  1.8139 -0.5483 -4.4544
  394MOL0     H52000  10.189   5.653   0.418 -3.0448  1.3697 -0.7952
  394MOL0     H52001  10.247   5.734   0.276 -3.3600 -3.1995 -0.3212
  394MOL0     H52002  10.402   5.734   0.542 -1.6460 -1.8309  0.2244
  394MOL0     H52003  10.451   5.806   0.396 -2.1045  1.0754 -3.6314
  394MOL0     H52004  10.470   5.512   0.448  2.0316 -2.5366 -2.7839
  394MOL0     H52005  10.388   5.542   0.296  1.5532  1.0844 -3.2530
  394MOL0     H52006  10.781   5.656   0.202  1.0852 -0.6564  1.1960
  394MOL0     H52007  10.173   5.902   0.828 -0.1360  0.1609 -1.2197
  394MOL0     H52008  10.065   6.096   0.950 -3.3837 -1.9313 -0.0720
  395MOL0     O52009   4.469   6.521   3.683 -0.1557 -0.1177 -0.6867
  395MOL0     C52010   4.576   6.570   3.657  0.3723 -0.7917  0.1835
  395MOL0     O52011   4.599   6.703   3.626 -0.2823 -0.3493 -0.0178
  395MOL0     C52012   4.504   6.800   3.584  0.2435 -0.0837  0.2106
  395MOL0     C52013   4.550   6.916   3.520 -0.0278  0.8279 -0.2144
  395MOL0     C52014   4.466   7.022   3.496 -0.1175 -1.4093 -0.5352
  395MOL0     C52015   4.332   7.028   3.520  0.3577 -0.0807 -1.6289
  395MOL0     O52016   4.263   7.147   3.513 -0.0249 -0.1257 -0.5128
  395MOL0     C52017   4.122   7.150   3.532  0.8298 -0.5827 -0.2507
  395MOL0     C52018   4.070   7.279   3.479  0.0116 -0.1293 -0.5902
  395MOL0     C52019   3.932   7.277   3.435  0.6537  0.1283 -0.3528
  395MOL0     C52020   3.828   7.249   3.542  0.0976 -0.5557 -1.0231
  395MOL0     C52021   3.787   7.103   3.577  0.2687  0.0155 -0.1325
  395MOL0     C52022   3.682   7.091   3.687  1.0289 -0.9193 -0.1384
  395MOL0     C52023   3.637   6.946   3.716  0.0945  1.0985  0.1606
  395MOL0     C52024   3.722   6.883   3.832  0.4312  0.0674 -0.7965
  395MOL0     N52025   3.831   6.793   3.793  0.0328 -0.0589 -0.2133
  395MOL0     C52026   3.813   6.699   3.698 -1.1475  0.2573 -0.0166
  395MOL0     C52027   3.925   6.619   3.721 -0.3271 -0.2686 -0.5569
  395MOL0     C52028   3.934   6.491   3.645  0.0188 -0.4725 -0.9603
  395MOL0     C52029   4.089   6.463   3.614 -0.2906 -0.4245 -0.3156
  395MOL0     C52030   4.105   6.363   3.493 -0.1230  0.4163 -0.1511
  395MOL0     C52031   4.248   6.303   3.465  0.7373  0.5881  0.5322
  395MOL0     O52032   4.301   6.361   3.348 -0.5156 -0.6126  0.3567
  395MOL0     C52033   4.430   6.344   3.298 -0.5397 -0.1529  0.3980
  395MOL0     C52034   4.471   6.392   3.173  0.5259  0.2144 -0.2635
  395MOL0     C52035   4.596   6.376   3.117  0.6389 -0.2315  0.5374
  395MOL0     C52036   4.697   6.322   3.189 -0.2971 -0.1006  0.3016
  395MOL0     C52037   4.844   6.342   3.153 -0.3242 -0.0700 -0.2215
  395MOL0     O52038   4.872   6.388   3.026 -0.0825 -0.1941  0.4762
  395MOL0     C52039   4.992   6.439   2.990 -0.5455 -0.2200 -0.1609
  395MOL0     C52040   5.003   6.565   2.929 -0.0612 -0.9259  1.4859
  395MOL0     C52041   5.127   6.608   2.881 -0.3215 -0.5774 -0.1743
  395MOL0     C52042   5.247   6.535   2.898  0.6720 -0.2013  0.6004
  395MOL0     O52043   5.362   6.578   2.853  0.3555  0.7606  0.8695
  395MOL0     C52044   5.491   6.523   2.895  0.0766 -0.3140 -0.0750
  395MOL0     C52045   5.593   6.579   2.792 -0.8620 -0.0033 -0.0302
  395MOL0     C52046   5.728   6.538   2.844 -0.5195 -0.0981  0.2727
  395MOL0     C52047   5.832   6.597   2.737 -0.6290  0.4345 -0.1430
  395MOL0     C52048   5.967   6.541   2.733 -0.6785 -0.4663 -0.4580
  395MOL0     C52049   6.044   6.573   2.861  0.5138  0.0818  0.0645
  395MOL0     C52050   6.179   6.507   2.854 -0.2551  0.3717 -0.3989
  395MOL0     C52051   6.262   6.554   2.733  0.1243  0.3420  0.1152
  395MOL0    Cl52052   6.289   6.730   2.724 -0.2649 -0.7992 -0.3218
  395MOL0     C52053   5.237   6.411   2.969 -0.2033  0.1725  0.4031
  395MOL0     C52054   5.106   6.363   3.003 -0.2839 -0.2719 -0.6056
  395MOL0     O52055   4.925   6.310   3.243 -0.2557  0.6380 -0.1247
  395MOL0     C52056   4.661   6.277   3.321 -0.1158 -0.4921  0.4995
  395MOL0     C52057   4.537   6.286   3.367 -0.2297 -0.3927  0.0518
  395MOL0     N52058   4.006   6.668   3.822 -0.1261  0.7004  0.5591
  395MOL0     N52059   3.935   6.771   3.869 -0.5041  0.1182 -0.8140
  395MOL0     C52060   4.285   6.901   3.566  0.4026  0.2595  0.6204
  395MOL0     C52061   4.362   6.790   3.595 -0.3863  0.9771  0.0350
  395MOL0     C52062   4.684   6.466   3.665 -0.2503  0.2626 -1.5869
  395MOL0     C52063   4.819   6.502   3.624 -0.8199 -0.0479 -0.1267
  395MOL0     C52064   4.931   6.414   3.626  1.1108  0.3149 -0.1477
  395MOL0     C52065   4.910   6.280   3.664  0.4476 -0.2484 -0.1710
  395MOL0     O52066   5.005   6.181   3.670  0.4615 -0.2184 -0.7046
  395MOL0     C52067   5.134   6.201   3.622  0.6087  0.6609 -0.4406
  395MOL0     C52068   5.153   6.160   3.474  0.1836  0.8558 -0.4417
  395MOL0     C52069   5.301   6.174   3.431 -0.4113 -0.2243  0.7679
  395MOL0     C52070   5.299   6.244   3.293  0.3584  0.1351 -0.0163
  395MOL0     C52071   5.422   6.222   3.217 -1.0416  1.4518 -0.5917
  395MOL0     C52072   5.501   6.194   3.129  0.1869 -0.6199 -0.9955
  395MOL0     C52073   4.787   6.241   3.720 -0.6525  0.4896  0.7647
  395MOL0     C52074   4.679   6.335   3.720  0.8785 -0.5868  0.0854
  395MOL0     H52075   4.658   6.925   3.510  0.0852 -0.7407 -0.5546
  395MOL0     H52076   4.503   7.117   3.459 -2.7270  1.2818  3.0985
  395MOL0     H52077   4.097   7.138   3.637  1.0266  0.3387 -0.0893
  395MOL0     H52078   4.068   7.067   3.486 -2.3649  3.0571 -3.9545
  395MOL0     H52079   4.126   7.309   3.391  0.7019 -1.3410 -0.5815
  395MOL0     H52080   4.084   7.354   3.558  0.0741  0.0523 -0.7737
  395MOL0     H52081   3.915   7.211   3.350  0.7409  0.2707 -0.4813
  395MOL0     H52082   3.911   7.376   3.394 -2.1891  0.1362  0.8672
  395MOL0     H52083   3.853   7.314   3.626 -1.0918  1.5236 -2.1835
  395MOL0     H52084   3.731   7.289   3.511  0.4009  2.8080  1.8143
  395MOL0     H52085   3.879   7.060   3.617 -0.5963 -3.1792 -1.2909
  395MOL0     H52086   3.776   7.038   3.489  0.5826  1.3369 -1.1813
  395MOL0     H52087   3.590   7.143   3.659  0.0927 -1.5634  1.6012
  395MOL0     H52088   3.730   7.141   3.772  2.4668  0.3764 -1.6437
  395MOL0     H52089   3.534   6.955   3.751  0.3808  1.2922  0.9966
  395MOL0     H52090   3.633   6.884   3.626  0.7584 -0.1496  0.9619
  395MOL0     H52091   3.657   6.826   3.900  0.4652 -0.3814 -1.1350
  395MOL0     H52092   3.768   6.964   3.890 -0.2158  0.0384 -0.2278
  395MOL0     H52093   3.722   6.673   3.645 -0.4915 -0.0372 -1.0151
  395MOL0     H52094   3.877   6.483   3.552 -3.1506 -0.8402  0.8661
  395MOL0     H52095   3.900   6.415   3.715 -0.8421  1.2457  0.5664
  395MOL0     H52096   4.139   6.427   3.704  0.7135 -0.2451 -0.7794
  395MOL0     H52097   4.136   6.556   3.582  0.4579 -1.3206 -1.9754
  395MOL0     H52098   4.046   6.272   3.508  1.9831 -1.3332 -1.7587
  395MOL0     H52099   4.074   6.411   3.400  2.2579 -1.0199 -1.8152
  395MOL0     H52100   4.240   6.194   3.455  2.5570  0.5466 -0.7782
  395MOL0     H52101   4.322   6.331   3.541  1.8164 -0.3977 -0.1330
  395MOL0     H52102   4.395   6.460   3.135 -1.8784 -0.8070  2.3879
  395MOL0     H52103   4.626   6.424   3.024  0.5560  2.1688  1.6698
  395MOL0     H52104   4.918   6.628   2.909 -0.4922 -2.4881 -2.5895
  395MOL0     H52105   5.144   6.703   2.831 -0.4232 -0.2838  0.3422
  395MOL0     H52106   5.502   6.415   2.907  1.2049  0.0272  2.8194
  395MOL0     H52107   5.525   6.566   2.990 -0.6469 -1.8325  0.8978
  395MOL0     H52108   5.584   6.688   2.790  1.2394  0.2042 -1.4328
  395MOL0     H52109   5.564   6.528   2.699 -0.2011 -0.2351 -0.1139
  395MOL0     H52110   5.732   6.429   2.845 -1.3873 -0.1460  1.9103
  395MOL0     H52111   5.762   6.566   2.944 -3.6826 -2.8427  2.2828
  395MOL0     H52112   5.793   6.588   2.635  0.8484 -1.3592 -0.6095
  395MOL0     H52113   5.845   6.704   2.758  0.6610  0.2817 -0.0812
  395MOL0     H52114   6.025   6.592   2.655  0.8377  4.2099  3.2618
  395MOL0     H52115   5.970   6.438   2.697  0.0933 -0.1586 -1.3279
  395MOL0     H52116   5.988   6.526   2.943  0.9651  0.9213  0.8654
  395MOL0     H52117   6.032   6.676   2.894  0.8406  0.2112 -0.2108
  395MOL0     H52118   6.241   6.544   2.936 -1.4037  3.3482 -0.7533
  395MOL0     H52119   6.177   6.399   2.868  2.4831  0.6426  4.0869
  395MOL0     H52120   6.229   6.522   2.634  1.4064 -4.3452  0.9461
  395MOL0     H52121   6.363   6.520   2.759 -0.2207  1.8277  4.0748
  395MOL0     H52122   5.320   6.343   2.983 -0.0460 -0.1063 -1.5568
  395MOL0     H52123   5.104   6.259   3.034  4.3147 -0.6866 -1.0735
  395MOL0     H52124   4.742   6.246   3.387 -0.0543 -0.5597  0.3907
  395MOL0     H52125   4.524   6.257   3.471 -2.2441 -1.0262 -0.3267
  395MOL0     H52126   4.180   6.880   3.581  0.6617 -5.1672 -2.5734
  395MOL0     H52127   4.308   6.709   3.643 -3.0274  2.6254  0.0224
  395MOL0     H52128   4.830   6.609   3.610 -1.0611  0.4847  3.0336
  395MOL0     H52129   5.017   6.448   3.571  0.2677  2.7575 -0.0644
  395MOL0     H52130   5.189   6.127   3.681  0.0052  1.5788  1.3330
  395MOL0     H52131   5.159   6.305   3.643 -1.6662  0.8803  1.6336
  395MOL0     H52132   5.131   6.053   3.462 -1.1970  0.8511  1.6416
  395MOL0     H52133   5.079   6.219   3.419 -1.0890 -0.1349  0.1473
  395MOL0     H52134   5.340   6.072   3.431  2.9560  0.8877  3.7586
  395MOL0     H52135   5.356   6.230   3.507  0.9191 -1.2065  0.5573
  395MOL0     H52136   5.209   6.211   3.240 -0.5383  2.3450  0.0271
  395MOL0     H52137   5.282   6.349   3.318  2.3322 -0.0089  2.2806
  395MOL0     H52138   5.579   6.172   3.059  3.4683  2.0660  1.5222
  395MOL0     H52139   4.767   6.141   3.758 -0.0154 -0.8259 -2.0368
  395MOL0     H52140   4.584   6.300   3.759  0.1263  0.8687 -0.3351
  396MOL0     O52141   2.911   2.642   9.833  0.0146 -0.2743 -0.1027
  396MOL0     C52142   3.002   2.590   9.757  0.7144  0.0052  0.5816
  396MOL0     O52143   2.983   2.505   9.656  0.3309  0.2573  0.5336
  396MOL0     C52144   2.847   2.466   9.639 -0.5642  0.4137  0.9193
  396MOL0     C52145   2.797   2.353   9.712 -0.1455 -0.4167  0.1301
  396MOL0     C52146   2.667   2.309   9.696 -0.3319 -0.0521 -0.4673
  396MOL0     C52147   2.581   2.375   9.606 -0.0907  1.4596  0.7016
  396MOL0     O52148   2.449   2.343   9.604  0.0614  0.7580  0.0111
  396MOL0     C52149   2.369   2.445   9.664  0.5811 -0.0514 -1.8732
  396MOL0     C52150   2.376   2.456   9.824  0.6299 -0.3946  1.8572
  396MOL0     C52151   2.282   2.357   9.891 -0.0966  0.6668 -0.1891
  396MOL0     C52152   2.280   2.363  10.046  0.7351 -0.0358  0.1410
  396MOL0     C52153   2.200   2.239  10.099  1.4394 -0.1526  0.6809
  396MOL0     C52154   2.290   2.113  10.113 -0.0476  0.2791 -0.1917
  396MOL0     C52155   2.376   2.114  10.237  0.1432 -0.0473  0.0047
  396MOL0     C52156   2.494   2.018  10.221  0.1973 -0.1722 -0.2330
  396MOL0     N52157   2.556   1.978  10.347 -0.2556  0.4866  0.0994
  396MOL0     C52158   2.507   1.864  10.402 -0.9475  0.4744 -0.4714
  396MOL0     C52159   2.602   1.835  10.503  0.7522  0.5831  0.4225
  396MOL0     C52160   2.625   1.711  10.580 -0.0688 -0.2358 -0.2619
  396MOL0     C52161   2.732   1.616  10.512 -0.7934  0.0513 -0.9683
  396MOL0     C52162   2.669   1.505  10.439 -0.2819  0.8362 -0.0711
  396MOL0     C52163   2.617   1.378  10.515  0.4035 -0.1817 -0.3756
  396MOL0     O52164   2.523   1.410  10.624  0.4059 -0.0588  0.1131
  396MOL0     C52165   2.397   1.347  10.621 -0.7316  0.4926 -0.4798
  396MOL0     C52166   2.291   1.411  10.564  0.4487  0.0617  0.6143
  396MOL0     C52167   2.161   1.361  10.555  0.0085 -0.1746 -0.1704
  396MOL0     C52168   2.138   1.240  10.616  1.3135 -0.1049  0.7488
  396MOL0     C52169   2.001   1.185  10.610 -0.1620  0.3967  0.3946
  396MOL0     O52170   1.965   1.097  10.706  0.0555  0.4434 -0.7422
  396MOL0     C52171   1.844   1.038  10.725  0.3739  0.2990  0.3356
  396MOL0     C52172   1.728   1.110  10.723  0.0411  0.1204 -0.5711
  396MOL0     C52173   1.605   1.044  10.760  0.3264 -0.2838  1.0419
  396MOL0     C52174   1.611   0.899  10.785  0.0994 -0.2767 -0.3869
  396MOL0     O52175   1.508   0.817  10.829  0.3471  0.1511  0.1919
  396MOL0     C52176   1.367   0.843  10.801 -0.5716  0.1402  0.2812
  396MOL0     C52177   1.284   0.719  10.846  0.3430 -0.3652  0.0692
  396MOL0     C52178   1.292   0.604  10.756  0.5004  0.3275  0.1492
  396MOL0     C52179   1.424   0.532  10.753 -0.2417  0.3437 -0.2317
  396MOL0     C52180   1.420   0.419  10.651  0.0188 -0.0961 -0.1659
  396MOL0     C52181   1.565   0.370  10.630 -0.2714  0.1404  0.2560
  396MOL0     C52182   1.583   0.250  10.538 -0.4146 -0.3013 -0.1796
  396MOL0     C52183   1.722   0.188  10.547  0.1703 -0.0301  0.0331
  396MOL0    Cl52184   1.847   0.272  10.451  0.8434 -0.5903  0.1586
  396MOL0     C52185   1.731   0.835  10.769 -0.6946 -0.5273  0.0633
  396MOL0     C52186   1.849   0.893  10.742  0.1971 -0.7401 -0.1280
  396MOL0     O52187   1.931   1.223  10.511  0.2812 -0.0525  0.0621
  396MOL0     C52188   2.240   1.177  10.675 -0.0119  0.0034 -0.4484
  396MOL0     C52189   2.371   1.229  10.680  0.2979  0.8299  0.1302
  396MOL0     N52190   2.694   1.936  10.510  0.1772  0.1205 -0.4731
  396MOL0     N52191   2.676   2.016  10.407  0.3625 -0.6108  0.7542
  396MOL0     C52192   2.632   2.481   9.529  0.0828  0.2089 -0.3244
  396MOL0     C52193   2.762   2.531   9.545  0.6869  0.2433  0.1714
  396MOL0     C52194   3.138   2.632   9.783 -1.3790  1.2884  0.2663
  396MOL0     C52195   3.184   2.662   9.913 -0.1795  0.6579 -0.1089
  396MOL0     C52196   3.322   2.682   9.937  0.4803  0.0046  0.3916
  396MOL0     C52197   3.418   2.683   9.840 -0.4154 -0.2021  0.5943
  396MOL0     O52198   3.557   2.710   9.858 -0.6409 -0.0812 -1.1440
  396MOL0     C52199   3.598   2.759   9.984  0.0326  0.1946 -0.8408
  396MOL0     C52200   3.755   2.782   9.993  0.1277 -0.7654 -0.2928
  396MOL0     C52201   3.795   2.896   9.887  0.1495  0.6015  0.1153
  396MOL0     C52202   3.800   3.042   9.913 -0.5231 -0.2768 -0.2236
  396MOL0     C52203   3.869   3.065  10.034 -0.3833  0.3482 -0.4413
  396MOL0     C52204   3.935   3.082  10.140 -0.4939  0.5315  0.1339
  396MOL0     C52205   3.375   2.651   9.710  0.7397  0.3104  0.5243
  396MOL0     C52206   3.240   2.628   9.685 -0.8170 -0.8859 -0.7911
  396MOL0     H52207   2.855   2.301   9.788 -2.7265 -1.7421  1.2932
  396MOL0     H52208   2.629   2.224   9.752 -0.2611  1.1054  1.4299
  396MOL0     H52209   2.263   2.422   9.646 -0.6530  3.4744 -0.1962
  396MOL0     H52210   2.396   2.546   9.629 -0.6070  0.9657 -0.0082
  396MOL0     H52211   2.379   2.562   9.851  2.3472  0.7201 -1.9906
  396MOL0     H52212   2.474   2.429   9.864  1.6408  2.8106  1.7967
  396MOL0     H52213   2.299   2.256   9.855  1.3157  0.4951  0.8872
  396MOL0     H52214   2.179   2.379   9.862 -0.5147 -2.1840 -1.1776
  396MOL0     H52215   2.380   2.355  10.087 -0.3160  0.8001  3.1134
  396MOL0     H52216   2.230   2.453  10.084 -2.8153  0.0258 -3.8354
  396MOL0     H52217   2.113   2.224  10.036  0.4723  0.6396  1.7848
  396MOL0     H52218   2.169   2.269  10.200  3.8604  2.1195  0.8743
  396MOL0     H52219   2.334   2.104  10.014 -1.6212  3.4156 -1.3089
  396MOL0     H52220   2.229   2.024  10.129  1.0363 -0.5000 -0.3000
  396MOL0     H52221   2.420   2.213  10.249 -2.9306  1.3537  0.8274
  396MOL0     H52222   2.328   2.072  10.326  0.4038 -0.2541  0.0487
  396MOL0     H52223   2.571   2.063  10.157 -1.0586  0.7470 -1.1531
  396MOL0     H52224   2.462   1.926  10.170 -0.8465  0.3721 -0.5962
  396MOL0     H52225   2.427   1.793  10.387  1.8462 -2.8784 -0.5599
  396MOL0     H52226   2.533   1.657  10.604 -0.3815  0.8173  1.0379
  396MOL0     H52227   2.663   1.758  10.671  0.7306 -1.6768  0.1684
  396MOL0     H52228   2.810   1.593  10.586 -1.3984  1.3951  0.1197
  396MOL0     H52229   2.777   1.685  10.440 -1.5628  0.4017 -1.1200
  396MOL0     H52230   2.582   1.547  10.388  1.5364  1.2157 -3.0275
  396MOL0     H52231   2.738   1.469  10.363 -2.5389  2.1726 -2.9400
  396MOL0     H52232   2.708   1.328  10.547  2.3904  0.5870 -4.1916
  396MOL0     H52233   2.567   1.329  10.430  0.7344  3.3190 -2.7904
  396MOL0     H52234   2.318   1.500  10.509  3.3143 -1.1660 -0.1551
  396MOL0     H52235   2.090   1.415  10.493  2.1583  3.1475 -0.0174
  396MOL0     H52236   1.724   1.217  10.707  0.6338 -0.0096 -1.6880
  396MOL0     H52237   1.512   1.092  10.786 -0.1918 -0.4539 -0.3992
  396MOL0     H52238   1.356   0.856  10.693  0.6880 -3.0264 -0.3531
  396MOL0     H52239   1.342   0.934  10.857  2.6604  1.3443  0.0115
  396MOL0     H52240   1.179   0.750  10.842  0.3594 -0.4144 -1.1840
  396MOL0     H52241   1.307   0.677  10.944  0.6894 -1.7477 -0.5768
  396MOL0     H52242   1.278   0.639  10.653  1.6530  2.0841  0.5430
  396MOL0     H52243   1.211   0.532  10.769  0.8399 -0.4695 -1.8682
  396MOL0     H52244   1.512   0.587  10.716  4.0346 -4.1406  2.1756
  396MOL0     H52245   1.455   0.505  10.854 -1.9089  0.8667  0.4448
  396MOL0     H52246   1.372   0.445  10.556 -2.0300  0.0217  0.8417
  396MOL0     H52247   1.362   0.334  10.687 -0.3908  0.9297  1.7218
  396MOL0     H52248   1.600   0.327  10.725 -2.0903  0.0539  0.9265
  396MOL0     H52249   1.631   0.449  10.593  0.3962  1.5978  4.0971
  396MOL0     H52250   1.525   0.168  10.580  4.3462 -3.8129  0.4840
  396MOL0     H52251   1.548   0.277  10.438  0.9087 -0.1843 -0.6366
  396MOL0     H52252   1.717   0.087  10.505 -2.5820  0.1274 -0.2017
  396MOL0     H52253   1.745   0.177  10.654 -4.7710 -1.3453  1.2215
  396MOL0     H52254   1.732   0.728  10.788  0.1421 -0.8342 -1.5235
  396MOL0     H52255   1.941   0.834  10.740  0.0383 -1.0136  0.4334
  396MOL0     H52256   2.225   1.081  10.724  0.5470 -0.0399 -0.3620
  396MOL0     H52257   2.453   1.175  10.728 -1.2509 -0.6536  1.2615
  396MOL0     H52258   2.558   2.524   9.463 -0.2422 -1.5148 -1.1407
  396MOL0     H52259   2.782   2.614   9.479  2.0155  1.1510  1.6587
  396MOL0     H52260   3.113   2.652   9.995  1.6148 -1.6916  1.3042
  396MOL0     H52261   3.350   2.698  10.041  1.3111 -1.6551  0.4445
  396MOL0     H52262   3.572   2.693  10.068  0.7218  0.6943 -0.2138
  396MOL0     H52263   3.554   2.859   9.994 -0.0005  0.0520  0.8259
  396MOL0     H52264   3.796   2.805  10.092  2.1496  1.1477 -1.4762
  396MOL0     H52265   3.809   2.695   9.954  0.6374  1.0050 -3.9771
  396MOL0     H52266   3.717   2.886   9.811 -0.0798 -1.6774  0.5833
  396MOL0     H52267   3.892   2.880   9.839 -0.8447  0.0859 -1.8409
  396MOL0     H52268   3.853   3.087   9.828  0.2928 -0.7475  0.0303
  396MOL0     H52269   3.698   3.082   9.907 -0.0714  0.9585  0.0522
  396MOL0     H52270   4.002   3.070  10.222 -1.3868 -0.8408  0.6930
  396MOL0     H52271   3.449   2.651   9.631  0.4696 -0.4762  0.2635
  396MOL0     H52272   3.217   2.596   9.584  0.9342  1.0029 -1.8588
  397MOL0     O52273   9.316   7.147   0.034  0.2408 -0.1271  0.5683
  397MOL0     C52274   9.261   7.252   0.064  0.1699 -0.1557 -0.1016
  397MOL0     O52275   9.128   7.281   0.050  0.2919 -0.5505  0.0456
  397MOL0     C52276   9.028   7.190   0.026 -0.0690  0.3085  0.2235
  397MOL0     C52277   9.030   7.050   0.052  0.6102  0.1055 -0.9054
  397MOL0     C52278   8.908   6.971   0.047  0.2758  0.4360 -0.0669
  397MOL0     C52279   8.789   7.031   0.014  0.4596 -0.0099  0.3947
  397MOL0     O52280   8.682   6.949   0.030  0.0994 -0.7658  0.8336
  397MOL0     C52281   8.565   6.980  -0.057  0.9385  1.1308  0.7298
  397MOL0     C52282   8.488   6.849  -0.082 -0.6402 -0.4923 -1.1663
  397MOL0     C52283   8.567   6.749  -0.161  0.7291 -0.0140 -0.3454
  397MOL0     C52284   8.500   6.613  -0.172  0.2796  0.3556  0.2056
  397MOL0     C52285   8.577   6.511  -0.089 -0.1650 -0.2405  0.4613
  397MOL0     C52286   8.503   6.368  -0.084 -0.3395  0.2155  0.4096
  397MOL0     C52287   8.352   6.360  -0.072 -0.3553  0.1084  0.9206
  397MOL0     C52288   8.297   6.210  -0.075  0.1797  0.2850 -0.1737
  397MOL0     N52289   8.163   6.197  -0.009  0.7252  0.5365  0.4795
  397MOL0     C52290   8.136   6.140   0.112 -0.3844 -0.3666 -0.3768
  397MOL0     C52291   8.002   6.148   0.128 -0.3736  0.1998  0.1383
  397MOL0     C52292   7.922   6.094   0.240 -0.5302 -0.3643 -0.6028
  397MOL0     C52293   7.859   6.215   0.307 -0.0035 -0.2168  0.4312
  397MOL0     C52294   7.761   6.173   0.420 -0.1308 -0.4868 -0.5357
  397MOL0     C52295   7.796   6.065   0.518  0.6458 -0.1795  0.1702
  397MOL0     O52296   7.713   6.049   0.636  0.7008 -0.7543 -0.4675
  397MOL0     C52297   7.581   6.016   0.617  0.1372  0.2081  1.1139
  397MOL0     C52298   7.484   6.080   0.688  0.5099  0.5427  0.6650
  397MOL0     C52299   7.352   6.045   0.657 -0.0493 -0.9242  0.0033
  397MOL0     C52300   7.316   5.954   0.556 -0.4275 -0.2763 -0.3411
  397MOL0     C52301   7.172   5.915   0.536  0.2760 -0.2007 -0.2848
  397MOL0     O52302   7.082   5.955   0.627  0.0176  0.9630  0.0310
  397MOL0     C52303   6.951   5.926   0.599 -0.0044  0.4970  0.3949
  397MOL0     C52304   6.877   5.832   0.675  0.2978 -0.1746  0.1111
  397MOL0     C52305   6.738   5.821   0.635  0.1638  0.2084  0.5805
  397MOL0     C52306   6.695   5.886   0.526  0.0750 -1.1524 -0.5361
  397MOL0     O52307   6.559   5.853   0.502  0.0993 -0.1640  0.0650
  397MOL0     C52308   6.501   5.893   0.377 -1.3653 -0.6949  0.0710
  397MOL0     C52309   6.369   5.812   0.342 -0.6587  0.8281  0.6336
  397MOL0     C52310   6.381   5.665   0.347 -0.0368  0.3270 -0.6876
  397MOL0     C52311   6.240   5.604   0.323 -1.2552  0.3991  0.0767
  397MOL0     C52312   6.215   5.477   0.402  0.0580  0.7092  0.0025
  397MOL0     C52313   6.078   5.413   0.357 -0.1247 -1.7176 -1.0199
  397MOL0     C52314   6.090   5.313   0.245 -0.2518 -0.7098 -0.0664
  397MOL0     C52315   5.955   5.246   0.220 -0.6185  0.1161  0.3065
  397MOL0    Cl52316   5.836   5.364   0.151 -0.2347 -0.0042 -0.5504
  397MOL0     C52317   6.764   5.977   0.465 -0.4640 -0.7108  0.8384
  397MOL0     C52318   6.890   5.995   0.492 -0.6991  0.2261 -0.6783
  397MOL0     O52319   7.158   5.850   0.431  0.0322 -0.1879 -0.5436
  397MOL0     C52320   7.421   5.884   0.488  1.1016 -0.3810 -0.2218
  397MOL0     C52321   7.556   5.907   0.523  0.2328 -0.9114 -0.2404
  397MOL0     N52322   7.948   6.203   0.014 -0.0567  0.8640  0.2255
  397MOL0     N52323   8.045   6.232  -0.068 -0.0652  0.0146  0.1559
  397MOL0     C52324   8.792   7.162  -0.011  0.5527 -0.0888  0.3856
  397MOL0     C52325   8.901   7.244  -0.010 -0.7859 -0.0459  0.4382
  397MOL0     C52326   9.349   7.373   0.081 -0.5533  0.1459 -0.9229
  397MOL0     C52327   9.493   7.367   0.075 -0.0166 -0.1003 -0.1958
  397MOL0     C52328   9.567   7.476   0.105  0.2026 -0.9741  0.2499
  397MOL0     C52329   9.509   7.601   0.130 -0.2259  0.0681 -0.2925
  397MOL0     O52330   9.576   7.723   0.145 -0.0955  0.5350 -0.0218
  397MOL0     C52331   9.710   7.730   0.088 -0.0780  0.0742 -0.1542
  397MOL0     C52332   9.814   7.696   0.192  0.3843 -0.4796 -0.3688
  397MOL0     C52333   9.959   7.742   0.167  0.1574 -0.6214  0.1923
  397MOL0     C52334  10.069   7.717   0.275 -0.8743  0.1813  0.3122
  397MOL0     C52335  10.080   7.574   0.301  0.6106  1.1910 -0.6981
  397MOL0     C52336  10.104   7.457   0.322 -0.2382 -0.7007  0.6176
  397MOL0     C52337   9.373   7.609   0.137  0.3432 -0.5706 -0.1853
  397MOL0     C52338   9.295   7.495   0.113  1.2148 -0.4522  0.4262
  397MOL0     H52339   9.113   6.987   0.081  1.1303  1.4568  0.6781
  397MOL0     H52340   8.895   6.865   0.068  0.7097  0.3528 -0.2154
  397MOL0     H52341   8.585   7.015  -0.159 -1.9463 -0.8105 -0.6463
  397MOL0     H52342   8.502   7.055  -0.009 -0.2490  0.0904  0.8262
  397MOL0     H52343   8.402   6.881  -0.142 -0.1175  0.8609 -1.2270
  397MOL0     H52344   8.458   6.816   0.018  1.8110  1.0716  0.2043
  397MOL0     H52345   8.661   6.727  -0.109  0.5052 -2.2895 -0.7982
  397MOL0     H52346   8.598   6.797  -0.254  2.0608  3.4238  1.6535
  397MOL0     H52347   8.402   6.620  -0.124 -0.5518 -3.9790 -0.4008
  397MOL0     H52348   8.502   6.592  -0.279  0.0144  0.2689  0.2155
  397MOL0     H52349   8.568   6.555   0.011 -0.0220 -2.6924  1.6409
  397MOL0     H52350   8.681   6.496  -0.120  0.0585  1.0361  0.5482
  397MOL0     H52351   8.556   6.304  -0.014 -0.6789 -0.3048  0.2017
  397MOL0     H52352   8.528   6.323  -0.181 -0.0100 -2.4076  1.6294
  397MOL0     H52353   8.319   6.406   0.022 -1.7546 -0.0305  0.5192
  397MOL0     H52354   8.304   6.415  -0.153 -1.4755  0.9269  2.0921
  397MOL0     H52355   8.373   6.161  -0.013 -0.1953  0.1394  0.1719
  397MOL0     H52356   8.302   6.174  -0.178  2.3352 -0.1837  0.0455
  397MOL0     H52357   8.219   6.115   0.176  0.9216  0.1442 -1.8220
  397MOL0     H52358   7.988   6.041   0.310  0.0656  2.6441  1.3291
  397MOL0     H52359   7.845   6.026   0.204 -1.5629 -2.0018  4.0151
  397MOL0     H52360   7.801   6.281   0.241  1.4277 -0.1866 -0.8570
  397MOL0     H52361   7.939   6.279   0.346 -0.7749 -0.1523  1.9644
  397MOL0     H52362   7.746   6.268   0.471 -1.6842 -1.2497  0.5114
  397MOL0     H52363   7.663   6.140   0.382 -1.8757  0.6605  2.6215
  397MOL0     H52364   7.896   6.084   0.558  0.7709 -0.6655  0.0946
  397MOL0     H52365   7.809   5.969   0.467  0.6535  0.3833 -0.9199
  397MOL0     H52366   7.510   6.143   0.772 -1.3821  0.9155  1.0046
  397MOL0     H52367   7.265   6.081   0.711 -1.6217 -1.6908 -1.8906
  397MOL0     H52368   6.917   5.767   0.752 -0.6658  1.4737  2.1074
  397MOL0     H52369   6.671   5.749   0.680  1.3417 -1.9922 -1.0130
  397MOL0     H52370   6.580   5.883   0.303  0.6554 -0.2989  2.0543
  397MOL0     H52371   6.479   6.001   0.382 -1.4089 -0.7539  1.5363
  397MOL0     H52372   6.347   5.843   0.240  0.9656  2.1355  0.6491
  397MOL0     H52373   6.292   5.842   0.414  0.8785 -0.5072  2.9912
  397MOL0     H52374   6.414   5.630   0.445  4.0371  3.1583 -0.8020
  397MOL0     H52375   6.454   5.618   0.281  1.1467  0.2669  0.6200
  397MOL0     H52376   6.166   5.680   0.352 -2.0669  0.9571 -3.0267
  397MOL0     H52377   6.226   5.578   0.217 -0.7977  1.7002 -0.3174
  397MOL0     H52378   6.206   5.502   0.508 -1.1505 -0.8209  0.3006
  397MOL0     H52379   6.296   5.404   0.392 -0.4523  0.0627  0.4851
  397MOL0     H52380   6.009   5.493   0.330  1.6823 -0.1555 -1.2922
  397MOL0     H52381   6.028   5.366   0.442  0.7275 -0.6437  0.1290
  397MOL0     H52382   6.142   5.367   0.165  1.4150 -0.0842  1.3691
  397MOL0     H52383   6.168   5.239   0.263  2.2001  1.7930  0.2822
  397MOL0     H52384   5.916   5.207   0.315  1.9161  0.1952  1.4564
  397MOL0     H52385   5.969   5.158   0.156  3.3776 -0.1989  1.4139
  397MOL0     H52386   6.728   6.039   0.384  0.8131  1.6184  1.9509
  397MOL0     H52387   6.944   6.068   0.432 -1.4194  0.3794 -1.1502
  397MOL0     H52388   7.398   5.813   0.410 -0.3417 -1.0075  0.7352
  397MOL0     H52389   7.635   5.851   0.475 -0.6732 -1.5600 -1.0317
  397MOL0     H52390   8.695   7.202  -0.042  1.3345  3.2635  1.8926
  397MOL0     H52391   8.890   7.348  -0.038  4.0518  1.3562  2.6590
  397MOL0     H52392   9.539   7.273   0.048 -1.8945 -0.4716 -2.4170
  397MOL0     H52393   9.675   7.472   0.095  0.3198  2.3414 -1.4602
  397MOL0     H52394   9.728   7.834   0.059 -1.3311  0.2817 -0.2445
  397MOL0     H52395   9.719   7.662   0.003  3.4061  0.8671 -0.5818
  397MOL0     H52396   9.779   7.734   0.289  3.8755  1.0376  0.4782
  397MOL0     H52397   9.803   7.588   0.205 -1.3127 -0.1038  2.0572
  397MOL0     H52398   9.956   7.850   0.149 -2.9178 -1.0068 -2.5615
  397MOL0     H52399   9.995   7.699   0.074 -1.5013 -1.7440  0.0184
  397MOL0     H52400  10.169   7.749   0.245 -0.9810  2.4549  2.0953
  397MOL0     H52401  10.048   7.763   0.372 -2.1262 -0.6654  0.4691
  397MOL0     H52402  10.113   7.354   0.348 -0.3555 -1.3530 -1.6839
  397MOL0     H52403   9.333   7.702   0.177  0.8143  0.0515 -1.0990
  397MOL0     H52404   9.188   7.512   0.113  0.8929 -2.1153 -1.7540
  398MOL0     O52405   8.648   2.177   6.775 -0.4933 -0.1831 -0.3303
  398MOL0     C52406   8.676   2.082   6.850  0.6967  0.4437  0.0217
  398MOL0     O52407   8.797   2.061   6.918  0.8943  0.0049  0.3201
  398MOL0     C52408   8.904   2.124   6.865 -0.4087 -0.8622  0.0400
  398MOL0     C52409   8.930   2.260   6.893 -0.4502 -0.3886  1.0100
  398MOL0     C52410   9.056   2.321   6.850  1.0882  0.0053  0.0350
  398MOL0     C52411   9.158   2.244   6.801 -0.0953  0.7836  0.0004
  398MOL0     O52412   9.288   2.286   6.771 -0.1473 -0.0196 -0.1968
  398MOL0     C52413   9.332   2.420   6.811 -0.3926  0.8910  0.8753
  398MOL0     C52414   9.348   2.436   6.962 -0.0645  0.5426  0.4769
  398MOL0     C52415   9.389   2.577   6.997  0.2365 -0.1866 -0.1719
  398MOL0     C52416   9.504   2.587   7.097  0.2788 -0.0107 -0.0327
  398MOL0     C52417   9.583   2.722   7.084  0.2658  0.5437  0.2488
  398MOL0     C52418   9.693   2.717   6.981  0.1355 -0.6006 -0.2777
  398MOL0     C52419   9.783   2.835   7.012 -0.2308  0.9903  1.3391
  398MOL0     C52420   9.916   2.815   6.938  0.9099 -0.4444 -0.2434
  398MOL0     N52421   9.999   2.940   6.933 -0.4479  1.4589  0.6451
  398MOL0     C52422  10.138   2.942   6.920  0.8070  0.2804  0.0729
  398MOL0     C52423  10.171   3.069   6.903 -0.3244  0.2447 -0.3578
  398MOL0     C52424  10.307   3.126   6.910 -0.7951 -0.7213  0.4601
  398MOL0     C52425  10.390   3.078   6.786 -0.0078 -0.5726  0.1025
  398MOL0     C52426  10.526   3.145   6.774 -0.5296 -0.2354 -0.0846
  398MOL0     C52427  10.629   3.117   6.890  0.6486  0.6204  0.5689
  398MOL0     O52428  10.696   2.989   6.854  0.6814  0.1827  0.0873
  398MOL0     C52429  10.795   2.998   6.765 -0.2088 -0.2860 -0.3159
  398MOL0     C52430  10.907   3.078   6.779 -0.0761 -0.0000 -0.3482
  398MOL0     C52431  11.019   3.062   6.703 -0.1430 -0.1762 -0.1352
  398MOL0     C52432  11.017   2.971   6.589  0.1876 -0.6661  0.4313
  398MOL0     C52433  11.140   2.957   6.507  0.4528 -0.9476 -0.3638
  398MOL0     O52434  11.251   3.020   6.554 -0.9976  0.5997 -0.2666
  398MOL0     C52435  11.372   3.010   6.488  0.6631 -0.0845 -0.1951
  398MOL0     C52436  11.394   2.995   6.349  0.0326 -0.9446 -0.0921
  398MOL0     C52437  11.515   3.008   6.290 -0.2829  0.4518  0.0900
  398MOL0     C52438  11.633   3.032   6.360 -0.0119 -1.1527 -0.2845
  398MOL0     O52439  11.747   3.054   6.288 -0.0592  0.3023  0.7380
  398MOL0     C52440  11.861   3.108   6.347 -1.1264 -0.4760  0.3640
  398MOL0     C52441  11.994   3.083   6.270  0.0777 -0.3043 -0.6833
  398MOL0     C52442  11.999   3.150   6.128 -0.0322 -0.4544 -0.1819
  398MOL0     C52443  12.140   3.201   6.093  0.1300 -0.5280  0.2734
  398MOL0     C52444  12.260   3.095   6.106  0.7000  1.1907  0.0934
  398MOL0     C52445  12.398   3.121   6.051  0.5806 -0.2220 -0.2378
  398MOL0     C52446  12.487   3.007   6.065 -0.0495 -0.0877 -0.5221
  398MOL0     C52447  12.637   3.063   6.046 -0.1967 -0.6577 -0.4033
  398MOL0    Cl52448  12.742   2.948   6.140 -0.8989  0.1374 -0.1202
  398MOL0     C52449  11.613   3.055   6.499 -0.6060  0.7405 -0.4439
  398MOL0     C52450  11.485   3.036   6.564  0.6233 -0.4506 -0.4500
  398MOL0     O52451  11.136   2.886   6.408  0.2364 -0.1479  0.6787
  398MOL0     C52452  10.896   2.903   6.557 -0.3400 -0.4136 -0.4207
  398MOL0     C52453  10.792   2.918   6.651  0.9356 -0.4230 -0.1199
  398MOL0     N52454  10.057   3.148   6.903  0.8209 -0.5621  0.1249
  398MOL0     N52455   9.952   3.070   6.911 -0.1420 -0.2782  1.6361
  398MOL0     C52456   9.134   2.104   6.764 -0.3003 -0.6408 -0.0336
  398MOL0     C52457   9.009   2.049   6.805  0.2445 -0.3838 -0.1470
  398MOL0     C52458   8.558   1.999   6.892 -0.6392 -0.5634  0.5268
  398MOL0     C52459   8.435   2.013   6.826 -0.4647 -0.4364  0.2242
  398MOL0     C52460   8.323   1.943   6.880 -0.8548 -0.2518 -0.2339
  398MOL0     C52461   8.332   1.856   6.992  1.0241 -0.5362 -0.0342
  398MOL0     O52462   8.233   1.768   7.031 -0.0462 -1.0351  0.3251
  398MOL0     C52463   8.115   1.746   6.956 -0.0395  1.4405  0.0874
  398MOL0     C52464   8.115   1.629   6.847  0.4432 -0.5160  0.3224
  398MOL0     C52465   8.057   1.669   6.712 -0.1981  1.6632  0.1156
  398MOL0     C52466   8.086   1.553   6.613 -0.5135 -0.3987  0.4633
  398MOL0     C52467   7.957   1.491   6.575  0.7247  0.0488 -0.6704
  398MOL0     C52468   7.843   1.458   6.549 -0.1497 -0.2099 -0.7831
  398MOL0     C52469   8.464   1.840   7.043  0.8537  0.0669 -0.3947
  398MOL0     C52470   8.579   1.905   6.998  0.5876  0.1107  0.3871
  398MOL0     H52471   8.853   2.317   6.945 -1.6311 -1.0901  0.0696
  398MOL0     H52472   9.065   2.424   6.881 -1.2570  0.0326  0.8663
  398MOL0     H52473   9.276   2.506   6.773  0.5814  0.7802 -0.9102
  398MOL0     H52474   9.429   2.428   6.761 -1.0190  0.9807 -0.3753
  398MOL0     H52475   9.418   2.366   7.008 -1.5900 -0.7180  0.9886
  398MOL0     H52476   9.249   2.423   7.008 -0.7091  1.2676 -0.6624
  398MOL0     H52477   9.306   2.624   7.051 -0.0797  0.4606 -1.1962
  398MOL0     H52478   9.406   2.644   6.912 -5.3440  0.7088 -0.9922
  398MOL0     H52479   9.465   2.573   7.198 -3.0649  1.3642 -0.9520
  398MOL0     H52480   9.568   2.501   7.074 -0.5512 -0.7351  0.3109
  398MOL0     H52481   9.635   2.733   7.179 -0.1502  1.3013  0.4011
  398MOL0     H52482   9.524   2.813   7.066 -0.8461 -0.1109  0.5217
  398MOL0     H52483   9.658   2.719   6.878  0.4756 -1.3978 -0.4171
  398MOL0     H52484   9.747   2.622   6.992  1.7609  0.5050  2.2299
  398MOL0     H52485   9.736   2.928   6.979 -1.3865 -0.2065 -0.5904
  398MOL0     H52486   9.787   2.842   7.121 -1.0151  0.2519  1.4238
  398MOL0     H52487   9.900   2.792   6.832 -2.4719 -0.2574  0.1102
  398MOL0     H52488   9.966   2.733   6.991  1.5103 -0.8750 -1.4200
  398MOL0     H52489  10.205   2.857   6.927  0.3309 -0.0520  0.6988
  398MOL0     H52490  10.359   3.093   7.001  0.8178  3.0146  1.0755
  398MOL0     H52491  10.310   3.235   6.907  1.7680 -0.7608 -0.7480
  398MOL0     H52492  10.343   3.112   6.693  0.8028  0.8820  0.1961
  398MOL0     H52493  10.399   2.969   6.780  4.9842 -0.3765  0.1559
  398MOL0     H52494  10.571   3.123   6.677  0.7486 -1.9602  0.8452
  398MOL0     H52495  10.514   3.254   6.772 -0.3119 -0.2206 -0.8784
  398MOL0     H52496  10.578   3.112   6.986 -2.2571 -2.3880 -0.9231
  398MOL0     H52497  10.702   3.197   6.908  0.7130  0.2504  2.0310
  398MOL0     H52498  10.913   3.139   6.868 -0.3744  2.5021 -1.9303
  398MOL0     H52499  11.110   3.120   6.718 -0.7128  0.5382  0.6049
  398MOL0     H52500  11.313   2.985   6.278  0.9243  1.5637 -1.6344
  398MOL0     H52501  11.515   3.004   6.182  1.9893 -2.6847  0.0642
  398MOL0     H52502  11.875   3.074   6.450 -0.5343 -1.4234 -0.0134
  398MOL0     H52503  11.850   3.217   6.348  0.8759 -0.2231 -0.4113
  398MOL0     H52504  12.019   2.977   6.260  2.9097  0.3646 -1.5800
  398MOL0     H52505  12.071   3.125   6.335 -1.1503  0.0799  0.5813
  398MOL0     H52506  11.924   3.228   6.111  1.1365  0.7427 -0.0408
  398MOL0     H52507  11.949   3.078   6.062 -0.7901  0.7381 -0.9437
  398MOL0     H52508  12.150   3.242   5.992 -0.4925  2.6944  1.4321
  398MOL0     H52509  12.164   3.287   6.155  0.5782  1.9938 -3.1369
  398MOL0     H52510  12.223   3.004   6.058 -0.0830  0.7315  1.5136
  398MOL0     H52511  12.276   3.078   6.213  0.0938  2.4033  0.3917
  398MOL0     H52512  12.452   3.203   6.098  1.2963 -1.1659  0.6131
  398MOL0     H52513  12.386   3.161   5.950  3.1704  2.5860  0.4199
  398MOL0     H52514  12.480   2.971   6.168  1.5630  0.9300 -0.0207
  398MOL0     H52515  12.471   2.924   5.995  1.7133  0.6233 -1.8559
  398MOL0     H52516  12.651   3.165   6.082  1.3990 -2.0445  3.3858
  398MOL0     H52517  12.664   3.066   5.940  0.7170  2.8969 -0.1680
  398MOL0     H52518  11.698   3.085   6.558 -0.6458  0.0434 -0.0228
  398MOL0     H52519  11.481   3.056   6.671 -1.1585  1.9175 -0.8701
  398MOL0     H52520  10.894   2.839   6.469  3.1254 -0.2841 -0.7210
  398MOL0     H52521  10.701   2.860   6.645  0.8542 -0.7694  2.8871
  398MOL0     H52522   9.211   2.055   6.706 -1.3278 -0.0965 -1.9594
  398MOL0     H52523   9.006   1.940   6.807 -1.2172 -0.3772  2.4601
  398MOL0     H52524   8.425   2.089   6.750  0.1039  0.7893  1.3385
  398MOL0     H52525   8.227   1.958   6.831 -0.8608 -0.8344 -0.4110
  398MOL0     H52526   8.072   1.837   6.912 -2.2692 -0.1065 -1.1439
  398MOL0     H52527   8.034   1.712   7.022  1.3749 -1.2011  0.6003
  398MOL0     H52528   8.216   1.589   6.836 -0.1018 -2.2412  1.1544
  398MOL0     H52529   8.043   1.549   6.869 -3.7127  2.7879  0.0202
  398MOL0     H52530   8.122   1.750   6.678  2.3125  0.0681  0.7964
  398MOL0     H52531   7.950   1.685   6.722 -0.3769  1.7146 -1.5635
  398MOL0     H52532   8.126   1.598   6.522 -0.0492  0.2550  0.9801
  398MOL0     H52533   8.152   1.476   6.656 -0.0743  0.2543  0.9829
  398MOL0     H52534   7.742   1.447   6.514 -2.4248  0.9631  4.4802
  398MOL0     H52535   8.484   1.776   7.128  0.1607  1.1621  0.6273
  398MOL0     H52536   8.675   1.881   7.041  2.0269  3.1021 -0.8735
  399MOL0     O52537   2.845   2.404   9.021 -0.2084  0.0936 -0.2595
  399MOL0     C52538   2.815   2.357   9.136  1.1236  0.2442  0.7414
  399MOL0     O52539   2.893   2.340   9.245 -0.4406 -0.6489  0.8148
  399MOL0     C52540   3.022   2.398   9.256 -1.4166  0.7995 -0.6081
  399MOL0     C52541   3.103   2.344   9.365  0.2637  0.0850 -0.0401
  399MOL0     C52542   3.227   2.384   9.394 -0.4797  0.1916  0.2961
  399MOL0     C52543   3.279   2.493   9.327 -1.1263 -1.0766  0.3277
  399MOL0     O52544   3.395   2.561   9.368  0.8153  0.7113  0.2125
  399MOL0     C52545   3.510   2.508   9.307  0.2124  0.3623  0.0231
  399MOL0     C52546   3.626   2.561   9.383 -0.0636  0.2563 -0.2831
  399MOL0     C52547   3.758   2.490   9.356  0.0303  0.0519 -0.5848
  399MOL0     C52548   3.817   2.519   9.216 -1.4960  0.3777  0.0345
  399MOL0     C52549   3.963   2.462   9.214 -0.2438 -0.5875 -0.0208
  399MOL0     C52550   4.030   2.453   9.078 -0.3600 -0.7001 -0.1499
  399MOL0     C52551   4.052   2.597   9.012  0.1085 -0.0877 -0.1683
  399MOL0     C52552   4.158   2.601   8.904  0.6342  0.0821 -0.6047
  399MOL0     N52553   4.286   2.568   8.969  0.6143 -0.2187  0.8162
  399MOL0     C52554   4.331   2.624   9.080 -0.5598 -1.1757 -0.1512
  399MOL0     C52555   4.453   2.573   9.108  1.2388 -0.1227  0.5451
  399MOL0     C52556   4.531   2.587   9.228  0.7441 -1.0921  0.6585
  399MOL0     C52557   4.457   2.592   9.358  0.6250  0.3968 -0.1362
  399MOL0     C52558   4.558   2.606   9.475  0.0998 -0.0269  0.4688
  399MOL0     C52559   4.503   2.568   9.616  0.1906  0.7495 -0.6535
  399MOL0     O52560   4.380   2.637   9.657 -0.0044  0.4365 -0.7738
  399MOL0     C52561   4.290   2.587   9.749  0.3890  0.2508  0.1513
  399MOL0     C52562   4.305   2.461   9.805  0.2896  0.4910  0.1750
  399MOL0     C52563   4.226   2.424   9.919 -0.2224  1.0446  0.1134
  399MOL0     C52564   4.125   2.505   9.969 -0.2769 -1.0003  0.5486
  399MOL0     C52565   4.059   2.466  10.089  0.1955  0.2426 -0.1777
  399MOL0     O52566   4.094   2.346  10.151  0.0433 -0.1079  0.8441
  399MOL0     C52567   4.026   2.319  10.263 -0.3329 -0.6102 -0.8310
  399MOL0     C52568   4.061   2.365  10.392  0.0569 -0.6920 -0.1662
  399MOL0     C52569   3.982   2.338  10.498 -0.1185 -0.4495 -0.1086
  399MOL0     C52570   3.864   2.265  10.482  0.0231 -0.4135  0.0588
  399MOL0     O52571   3.784   2.233  10.591 -0.2835 -0.6307 -0.3269
  399MOL0     C52572   3.781   2.317  10.711  0.5029  0.0679  0.8700
  399MOL0     C52573   3.638   2.297  10.777 -0.9830  0.0409 -0.2594
  399MOL0     C52574   3.606   2.148  10.794 -0.0027 -0.1402 -1.1690
  399MOL0     C52575   3.533   2.087  10.678 -0.2495 -0.2737  0.6150
  399MOL0     C52576   3.519   1.944  10.698 -0.9492  0.6964  0.4206
  399MOL0     C52577   3.504   1.860  10.565  0.1664 -0.4201  0.5613
  399MOL0     C52578   3.453   1.719  10.590 -0.6468  0.6575 -0.3734
  399MOL0     C52579   3.481   1.621  10.474  0.3868  0.0793 -0.5490
  399MOL0    Cl52580   3.379   1.672  10.326  0.0592 -0.3980 -0.5485
  399MOL0     C52581   3.835   2.223  10.353  0.3006  0.2147 -0.1064
  399MOL0     C52582   3.911   2.241  10.240 -0.7921  0.3762 -0.9227
  399MOL0     O52583   3.992   2.553  10.143 -0.1242 -0.7988  0.0288
  399MOL0     C52584   4.100   2.633   9.907  0.8905  0.2304  0.0311
  399MOL0     C52585   4.189   2.672   9.802  0.3733 -0.2303  0.3912
  399MOL0     N52586   4.474   2.474   9.010 -0.0066 -0.2042  0.3773
  399MOL0     N52587   4.378   2.471   8.932 -0.8242 -0.3893 -0.0300
  399MOL0     C52588   3.204   2.555   9.223  0.3120 -0.2624  0.1993
  399MOL0     C52589   3.072   2.513   9.193 -0.2688 -0.1847  0.6759
  399MOL0     C52590   2.678   2.306   9.158 -0.5400 -0.4503 -0.1556
  399MOL0     C52591   2.641   2.237   9.269 -0.8204  0.0659 -0.3196
  399MOL0     C52592   2.513   2.186   9.289 -1.0635  0.8445  0.7400
  399MOL0     C52593   2.408   2.215   9.195  0.2250  0.9208 -0.5273
  399MOL0     O52594   2.273   2.181   9.217 -0.3685  0.2864  0.4516
  399MOL0     C52595   2.235   2.085   9.116  0.6067  0.4407 -0.5996
  399MOL0     C52596   2.100   2.024   9.158  0.5584 -0.7328  0.4119
  399MOL0     C52597   2.106   1.946   9.292  0.0374 -0.1329  0.3516
  399MOL0     C52598   1.966   1.871   9.318  0.4575  1.3399  0.1134
  399MOL0     C52599   1.863   1.975   9.335  0.2677 -0.0035 -0.7642
  399MOL0     C52600   1.800   2.078   9.345 -0.0816 -0.3179 -0.4878
  399MOL0     C52601   2.445   2.290   9.082 -0.8190 -0.6779  0.8747
  399MOL0     C52602   2.578   2.321   9.060  0.4253 -0.0566 -0.5560
  399MOL0     H52603   3.056   2.278   9.436 -1.5629  1.8630  0.5043
  399MOL0     H52604   3.273   2.346   9.485  0.3201 -1.9418 -0.9348
  399MOL0     H52605   3.519   2.511   9.198 -0.4641 -1.0679 -0.0988
  399MOL0     H52606   3.510   2.399   9.314  0.3983  0.1434 -2.4102
  399MOL0     H52607   3.592   2.552   9.487 -0.4444 -0.4668 -0.4641
  399MOL0     H52608   3.638   2.668   9.367 -1.3101  0.6118  0.9468
  399MOL0     H52609   3.748   2.382   9.356 -1.9833  0.2096 -0.4311
  399MOL0     H52610   3.832   2.545   9.415  0.5480  0.3490 -1.4938
  399MOL0     H52611   3.764   2.465   9.138  0.6483 -2.9028  0.6385
  399MOL0     H52612   3.814   2.624   9.189  4.9761  0.2635 -2.8718
  399MOL0     H52613   3.964   2.360   9.254 -1.0454 -1.2365 -1.5832
  399MOL0     H52614   4.012   2.523   9.291 -1.6876  0.0856  0.4040
  399MOL0     H52615   3.979   2.386   9.009 -0.0275 -1.8711  0.7203
  399MOL0     H52616   4.132   2.417   9.095  0.2286  0.3513 -1.2512
  399MOL0     H52617   3.957   2.628   8.968 -0.3799 -1.8220 -0.4002
  399MOL0     H52618   4.092   2.674   9.078  3.7086  0.0739 -2.2679
  399MOL0     H52619   4.159   2.699   8.856 -1.4234  0.5581  0.2219
  399MOL0     H52620   4.133   2.523   8.830 -1.2291 -2.3798  2.3630
  399MOL0     H52621   4.272   2.691   9.143  0.7965 -1.1043  1.0879
  399MOL0     H52622   4.580   2.682   9.204  0.8824 -1.0372  1.1625
  399MOL0     H52623   4.613   2.515   9.217  1.5220 -0.0457 -0.9521
  399MOL0     H52624   4.399   2.501   9.373  1.6654  0.0190  2.1823
  399MOL0     H52625   4.383   2.672   9.363 -3.1418 -2.7707 -0.9554
  399MOL0     H52626   4.642   2.543   9.445 -0.1186  0.7832 -2.1610
  399MOL0     H52627   4.598   2.707   9.478 -0.2852  0.1127  1.2087
  399MOL0     H52628   4.576   2.580   9.696 -0.9108 -0.0867  0.4954
  399MOL0     H52629   4.489   2.460   9.618 -0.8650  0.8907 -0.0661
  399MOL0     H52630   4.372   2.386   9.763 -1.8494 -0.8442 -1.0265
  399MOL0     H52631   4.243   2.329   9.969  4.0905  2.4830  1.8076
  399MOL0     H52632   4.154   2.418  10.413 -0.3745 -0.5032  1.4076
  399MOL0     H52633   4.009   2.360  10.601 -1.0995 -3.9886  1.0530
  399MOL0     H52634   3.793   2.425  10.696 -0.2068 -0.0820 -0.9498
  399MOL0     H52635   3.850   2.286  10.790  0.9811 -0.8810  0.0979
  399MOL0     H52636   3.556   2.342  10.722 -0.4354  0.0639 -1.0792
  399MOL0     H52637   3.641   2.328  10.882 -3.4032 -0.3145 -0.0287
  399MOL0     H52638   3.544   2.136  10.884  1.5851 -1.8014 -0.2348
  399MOL0     H52639   3.696   2.093  10.823 -0.9753 -0.2979  2.0411
  399MOL0     H52640   3.435   2.136  10.671 -0.4552 -0.9129 -3.2431
  399MOL0     H52641   3.583   2.109  10.583 -1.1785  0.8992  0.3705
  399MOL0     H52642   3.430   1.923  10.759 -0.5128 -1.3945  0.4121
  399MOL0     H52643   3.605   1.901  10.750 -2.0598 -3.2376 -0.6779
  399MOL0     H52644   3.592   1.867  10.500  1.7314  0.6776  2.6661
  399MOL0     H52645   3.425   1.907  10.506  1.1279 -1.2295 -1.4767
  399MOL0     H52646   3.499   1.672  10.678 -1.8376 -1.3618 -0.7718
  399MOL0     H52647   3.346   1.736  10.606 -0.9029  1.0278 -2.2482
  399MOL0     H52648   3.460   1.516  10.496 -1.3722  0.1519 -1.6399
  399MOL0     H52649   3.585   1.625  10.440  0.4073  1.4073 -0.3879
  399MOL0     H52650   3.740   2.173  10.338  0.1507  0.0778  1.2242
  399MOL0     H52651   3.883   2.219  10.138 -0.0521  2.6535 -1.6790
  399MOL0     H52652   4.026   2.708   9.932  1.4286  0.6326  0.4459
  399MOL0     H52653   4.183   2.772   9.760 -0.2010 -0.5343 -0.2920
  399MOL0     H52654   3.246   2.648   9.185 -2.9076  0.9512 -0.7340
  399MOL0     H52655   3.014   2.572   9.122 -0.1121 -0.5319  0.2534
  399MOL0     H52656   2.708   2.217   9.353 -1.4578 -1.7772 -0.2085
  399MOL0     H52657   2.492   2.123   9.375  2.6354  0.5988  1.6334
  399MOL0     H52658   2.314   2.011   9.098  1.8384  1.3991  0.6066
  399MOL0     H52659   2.215   2.137   9.021 -1.6388 -3.1922 -2.2974
  399MOL0     H52660   2.029   2.107   9.165  0.2209 -1.0362  0.6122
  399MOL0     H52661   2.065   1.966   9.072  1.4882  2.4076 -2.3222
  399MOL0     H52662   2.114   2.017   9.375  2.1385  0.8179 -0.5774
  399MOL0     H52663   2.198   1.886   9.298  1.4991  1.6220 -2.3771
  399MOL0     H52664   1.950   1.793   9.243  0.0027  0.7448  0.8194
  399MOL0     H52665   1.971   1.817   9.412 -0.8825  0.6627 -0.1803
  399MOL0     H52666   1.753   2.174   9.348  1.9084  0.6908  0.7881
  399MOL0     H52667   2.368   2.328   9.015  0.1645  1.6920  0.9767
  399MOL0     H52668   2.601   2.362   8.962  0.2308  2.9214  0.5341
  400MOL0     O52669  10.179   7.506   5.539  0.0207  0.2127 -0.1585
  400MOL0     C52670  10.121   7.585   5.612 -0.6722 -0.5399 -0.6393
  400MOL0     O52671  10.170   7.704   5.668 -0.1235  0.2067 -0.0584
  400MOL0     C52672  10.297   7.753   5.623  0.5888  1.1345  0.6066
  400MOL0     C52673  10.308   7.835   5.513  0.6083 -0.2253  0.3976
  400MOL0     C52674  10.433   7.897   5.489  0.2638 -0.3816  0.4655
  400MOL0     C52675  10.548   7.881   5.569 -0.0625 -0.4464 -0.0694
  400MOL0     O52676  10.673   7.936   5.559  0.1165  0.3108  0.7932
  400MOL0     C52677  10.697   8.031   5.461  0.3003  0.1029  0.0446
  400MOL0     C52678  10.827   8.110   5.471  0.0118  0.5702 -0.6809
  400MOL0     C52679  10.945   8.015   5.509  0.8772  0.7573 -0.0057
  400MOL0     C52680  11.078   8.093   5.525  0.4600 -0.0236  0.1299
  400MOL0     C52681  11.180   7.997   5.572  1.0181 -0.4274 -0.2116
  400MOL0     C52682  11.306   8.010   5.494  0.1932  0.1453 -0.2598
  400MOL0     C52683  11.387   8.117   5.547 -0.1696 -0.8934  0.5518
  400MOL0     C52684  11.528   8.089   5.511  0.3611  0.1989  0.1206
  400MOL0     N52685  11.607   8.217   5.514  0.0274 -0.8494  0.1456
  400MOL0     C52686  11.654   8.292   5.407 -0.5024  0.3655 -0.4960
  400MOL0     C52687  11.719   8.389   5.462 -0.8487 -0.5500  1.1097
  400MOL0     C52688  11.759   8.513   5.388 -0.6307 -0.5556 -0.7071
  400MOL0     C52689  11.871   8.479   5.285 -0.1912 -0.0496  0.9222
  400MOL0     C52690  11.913   8.607   5.216 -0.0838  0.2731  0.6049
  400MOL0     C52691  12.049   8.585   5.147  0.4529 -0.7087 -0.9778
  400MOL0     O52692  12.077   8.455   5.086  0.7042  0.0420  0.2680
  400MOL0     C52693  12.209   8.412   5.079 -0.4680 -0.4981 -0.4889
  400MOL0     C52694  12.222   8.271   5.067  0.0982  0.6712  0.7913
  400MOL0     C52695  12.340   8.214   5.055 -0.3811 -0.1797 -0.0648
  400MOL0     C52696  12.456   8.295   5.049 -0.7056 -0.4896 -0.2322
  400MOL0     C52697  12.584   8.233   5.045  0.6579 -0.6877  1.2632
  400MOL0     O52698  12.696   8.311   5.082 -0.2539 -0.5166  0.1079
  400MOL0     C52699  12.814   8.252   5.123  0.1441 -0.2727  0.0829
  400MOL0     C52700  12.821   8.125   5.180 -1.3186  0.5052 -0.3340
  400MOL0     C52701  12.946   8.075   5.223 -0.1369  0.5108 -0.0860
  400MOL0     C52702  13.063   8.149   5.217 -0.0668 -0.8492 -0.1936
  400MOL0     O52703  13.179   8.086   5.254 -0.7816  0.0337 -0.4154
  400MOL0     C52704  13.263   8.048   5.135  0.4146 -0.0765 -0.7601
  400MOL0     C52705  13.346   7.923   5.136 -0.3174  0.4686  0.8051
  400MOL0     C52706  13.254   7.796   5.153 -0.2557  0.5279 -0.2436
  400MOL0     C52707  13.148   7.769   5.047 -0.2127 -0.0627  0.4104
  400MOL0     C52708  13.205   7.771   4.904 -0.1368  0.4991 -0.7013
  400MOL0     C52709  13.110   7.705   4.804 -0.2435 -0.2071  0.8803
  400MOL0     C52710  13.174   7.728   4.674 -0.8454 -0.0743  0.6637
  400MOL0     C52711  13.101   7.672   4.558 -0.2112  0.1674  0.2124
  400MOL0    Cl52712  13.171   7.739   4.402 -0.2188 -0.0117  0.3504
  400MOL0     C52713  13.057   8.285   5.178 -0.2801 -0.0297  0.3889
  400MOL0     C52714  12.931   8.331   5.123 -1.4075  0.2643  0.3377
  400MOL0     O52715  12.590   8.116   5.004  0.1879  0.4019  0.3216
  400MOL0     C52716  12.446   8.436   5.062 -0.1454 -0.3494 -0.7249
  400MOL0     C52717  12.320   8.494   5.082 -0.3535 -0.2119 -0.6202
  400MOL0     N52718  11.729   8.365   5.601 -0.3017  0.3866 -0.2350
  400MOL0     N52719  11.665   8.254   5.630 -0.6892 -0.5569 -0.0244
  400MOL0     C52720  10.532   7.797   5.676 -0.4188  1.0829 -0.6884
  400MOL0     C52721  10.405   7.740   5.709 -0.1076 -0.0218 -0.5555
  400MOL0     C52722   9.975   7.569   5.651 -0.3684  0.5955 -0.2720
  400MOL0     C52723   9.903   7.642   5.737 -0.3956  0.9439 -0.3474
  400MOL0     C52724   9.766   7.614   5.765 -0.0134 -0.0418 -0.4616
  400MOL0     C52725   9.692   7.527   5.689 -0.7971 -0.4985  0.9546
  400MOL0     O52726   9.557   7.523   5.704 -0.1401 -0.4728 -0.0058
  400MOL0     C52727   9.488   7.465   5.602  0.1973 -0.6474  0.0908
  400MOL0     C52728   9.368   7.569   5.562 -1.2244  0.7757 -0.0583
  400MOL0     C52729   9.268   7.497   5.471 -0.0300  0.5717  0.0985
  400MOL0     C52730   9.302   7.488   5.322 -0.7032  0.5421  0.8211
  400MOL0     C52731   9.186   7.460   5.242  0.1985 -0.1237 -1.1075
  400MOL0     C52732   9.089   7.421   5.183  0.0999  0.0114  0.4918
  400MOL0     C52733   9.770   7.442   5.608  0.0608  0.0817  0.3915
  400MOL0     C52734   9.904   7.472   5.581 -0.7664  0.4036  0.0058
  400MOL0     H52735  10.231   7.846   5.439  1.9341 -0.7020 -1.1095
  400MOL0     H52736  10.434   7.962   5.402 -0.2529 -2.7885 -1.4435
  400MOL0     H52737  10.616   8.105   5.461 -0.1917 -0.3249 -2.5701
  400MOL0     H52738  10.692   7.978   5.366 -0.3919 -0.8878  0.6213
  400MOL0     H52739  10.819   8.184   5.551 -0.5472  2.4751 -2.4296
  400MOL0     H52740  10.846   8.156   5.374  2.1122  1.7586  0.2110
  400MOL0     H52741  10.957   7.942   5.427  0.6416  1.2228 -0.4589
  400MOL0     H52742  10.926   7.959   5.601  1.8026  0.1726 -0.1511
  400MOL0     H52743  11.110   8.135   5.429  0.3586  0.2778  0.2274
  400MOL0     H52744  11.056   8.174   5.595  0.1450 -0.1148  0.1384
  400MOL0     H52745  11.138   7.897   5.557  0.0065 -0.0594  0.0975
  400MOL0     H52746  11.189   8.008   5.681 -1.5608  4.2693 -0.2013
  400MOL0     H52747  11.295   8.015   5.385  0.7274  0.4506 -0.3048
  400MOL0     H52748  11.361   7.917   5.509 -1.2580 -0.9337 -1.3077
  400MOL0     H52749  11.352   8.213   5.507 -0.1103 -1.6928 -1.5101
  400MOL0     H52750  11.372   8.124   5.655 -0.8253 -2.1629  0.5617
  400MOL0     H52751  11.534   8.033   5.417 -0.8404  2.3304 -1.3038
  400MOL0     H52752  11.571   8.032   5.594 -2.0608  1.1669  2.1870
  400MOL0     H52753  11.620   8.294   5.304 -0.7306  1.7344 -0.4199
  400MOL0     H52754  11.792   8.588   5.461 -0.3190 -1.0270 -0.3586
  400MOL0     H52755  11.668   8.553   5.343 -1.1702 -0.8923  0.0724
  400MOL0     H52756  11.840   8.410   5.206  0.3375  2.1236 -1.2783
  400MOL0     H52757  11.959   8.440   5.337 -0.8831 -0.6277  1.7102
  400MOL0     H52758  11.851   8.637   5.131  1.6388  1.1641 -0.4198
  400MOL0     H52759  11.914   8.685   5.292 -0.7525 -1.3987  2.4166
  400MOL0     H52760  12.120   8.586   5.230  1.9652 -0.4124 -2.2243
  400MOL0     H52761  12.082   8.669   5.085 -3.1004  1.3205 -0.4224
  400MOL0     H52762  12.135   8.207   5.059  2.5282 -2.6623 -2.4139
  400MOL0     H52763  12.341   8.105   5.049 -1.7715 -0.1752 -0.7996
  400MOL0     H52764  12.732   8.064   5.189 -1.3676  0.7119  0.8197
  400MOL0     H52765  12.952   7.985   5.283 -3.3089  0.1650 -0.1055
  400MOL0     H52766  13.323   8.139   5.120 -0.1626  0.2908 -0.8905
  400MOL0     H52767  13.203   8.045   5.043 -2.4667 -1.6667  1.0122
  400MOL0     H52768  13.417   7.921   5.219  3.7809  1.8853 -2.3234
  400MOL0     H52769  13.394   7.918   5.038 -3.5218 -2.3732 -0.8226
  400MOL0     H52770  13.195   7.814   5.243 -1.7141  0.6238 -1.1791
  400MOL0     H52771  13.322   7.710   5.151  0.1639  0.8566 -0.2013
  400MOL0     H52772  13.094   7.674   5.054  1.6595 -1.0718  2.7049
  400MOL0     H52773  13.069   7.844   5.051 -0.4271 -0.3336  1.7789
  400MOL0     H52774  13.306   7.729   4.906 -0.4831 -0.3929 -1.1620
  400MOL0     H52775  13.211   7.878   4.883 -3.4518  1.9031  3.8486
  400MOL0     H52776  13.013   7.755   4.817 -0.7402 -1.8943  4.9461
  400MOL0     H52777  13.110   7.597   4.821  1.1884 -0.0819  1.7879
  400MOL0     H52778  13.192   7.835   4.653 -2.1820 -0.4038 -2.8865
  400MOL0     H52779  13.273   7.684   4.657  0.0116  2.9528 -4.1801
  400MOL0     H52780  12.999   7.710   4.569 -0.2148  1.6574 -3.4369
  400MOL0     H52781  13.109   7.563   4.560  1.0052  0.2497  1.1099
  400MOL0     H52782  13.145   8.349   5.184 -1.4891  2.0791 -2.2113
  400MOL0     H52783  12.923   8.435   5.092  0.4103  0.7906  1.4433
  400MOL0     H52784  12.535   8.499   5.066 -1.3998  1.5981 -1.8258
  400MOL0     H52785  12.300   8.601   5.079  1.8360  0.2206 -2.6999
  400MOL0     H52786  10.613   7.769   5.743 -1.0449 -0.4920 -0.5377
  400MOL0     H52787  10.396   7.682   5.800  1.2286 -4.7670 -3.0776
  400MOL0     H52788   9.946   7.718   5.801 -1.1229  1.1341 -0.0720
  400MOL0     H52789   9.724   7.687   5.834  0.0912 -0.1087 -0.3273
  400MOL0     H52790   9.448   7.367   5.630 -0.8396 -0.5514 -0.9636
  400MOL0     H52791   9.540   7.460   5.506 -2.2890  1.9646 -1.5583
  400MOL0     H52792   9.324   7.599   5.657  1.4363 -0.5654  1.7279
  400MOL0     H52793   9.401   7.660   5.511  2.2836 -1.2277 -1.7811
  400MOL0     H52794   9.174   7.551   5.477  0.0807  0.5816  2.8865
  400MOL0     H52795   9.250   7.393   5.497 -1.5065  0.2640 -1.9003
  400MOL0     H52796   9.353   7.577   5.282  0.1398 -0.5135 -0.5538
  400MOL0     H52797   9.376   7.408   5.313  0.5681  1.7943 -0.5290
  400MOL0     H52798   9.016   7.364   5.130 -0.4883  2.2482 -1.2419
  400MOL0     H52799   9.720   7.370   5.544 -0.6517  0.0851  0.9275
  400MOL0     H52800   9.957   7.429   5.496  0.7682 -0.2158  1.2323
  401MOL0     O52801   4.357   0.437   6.016  0.4890 -0.6805  0.6411
  401MOL0     C52802   4.273   0.522   5.983  0.0550 -0.4059 -0.1249
  401MOL0     O52803   4.277   0.657   6.018  0.4603 -0.1330  0.3034
  401MOL0     C52804   4.385   0.678   6.103  0.5612  0.6939  0.5771
  401MOL0     C52805   4.368   0.767   6.206 -0.2383  1.5584 -0.4080
  401MOL0     C52806   4.480   0.822   6.276 -0.4102 -0.1429 -0.1472
  401MOL0     C52807   4.615   0.782   6.244  0.1575 -0.3596 -0.0039
  401MOL0     O52808   4.714   0.845   6.309 -1.0168  0.0245  0.5290
  401MOL0     C52809   4.851   0.804   6.286  0.2257 -0.0191 -0.3503
  401MOL0     C52810   4.888   0.682   6.370 -0.2317  0.2454  0.8417
  401MOL0     C52811   4.937   0.725   6.512  0.3090 -0.0920  0.2784
  401MOL0     C52812   4.990   0.614   6.603  0.7809 -0.2758  0.3061
  401MOL0     C52813   5.048   0.669   6.724 -0.7631 -0.2270 -0.2995
  401MOL0     C52814   5.103   0.568   6.822  0.4567  0.3767  0.2621
  401MOL0     C52815   5.160   0.648   6.946 -0.0518 -0.0557 -0.3855
  401MOL0     C52816   5.077   0.766   6.998  0.3365  0.2323  0.0543
  401MOL0     N52817   5.109   0.797   7.141 -0.3755 -0.5511 -0.1135
  401MOL0     C52818   5.204   0.892   7.187  0.2585  0.2687  0.5662
  401MOL0     C52819   5.172   0.909   7.319 -0.8551 -0.2968  0.6666
  401MOL0     C52820   5.239   1.011   7.400  0.1767 -0.1237  0.8891
  401MOL0     C52821   5.262   0.985   7.550 -0.6930  0.9475  0.1057
  401MOL0     C52822   5.344   0.853   7.583  0.4062 -0.1357 -0.2762
  401MOL0     C52823   5.488   0.895   7.561 -0.0024 -0.4468 -0.3078
  401MOL0     O52824   5.540   0.956   7.682 -0.1252  0.0137 -0.0429
  401MOL0     C52825   5.622   0.875   7.752  0.1427  0.0333 -0.2685
  401MOL0     C52826   5.591   0.855   7.883 -0.0581  0.3886 -1.0459
  401MOL0     C52827   5.684   0.784   7.971 -0.3031 -0.2718  0.1236
  401MOL0     C52828   5.798   0.723   7.922 -1.0757  0.3451 -0.9309
  401MOL0     C52829   5.883   0.626   8.001 -0.0589 -0.2944  0.9678
  401MOL0     O52830   5.990   0.568   7.940  0.3934 -0.7059  0.8570
  401MOL0     C52831   6.046   0.467   8.012  0.5507  0.5743  0.6076
  401MOL0     C52832   5.996   0.341   7.987  0.0994 -0.0528  0.1741
  401MOL0     C52833   6.026   0.245   8.080 -0.3251  0.4161  0.0219
  401MOL0     C52834   6.112   0.272   8.189  0.8678  0.4730  0.1114
  401MOL0     O52835   6.161   0.168   8.250 -0.8595  0.5047 -0.5581
  401MOL0     C52836   6.064   0.097   8.339 -0.7041 -0.0385 -0.5495
  401MOL0     C52837   6.135  -0.037   8.384 -0.3887  0.0491  1.1664
  401MOL0     C52838   6.067  -0.142   8.463  0.4428 -0.7230 -1.2958
  401MOL0     C52839   6.020  -0.092   8.604 -0.1957  0.5889 -0.3296
  401MOL0     C52840   6.129  -0.036   8.701  0.4449  0.2586  0.1255
  401MOL0     C52841   6.077  -0.029   8.841 -0.0784 -0.2923  0.0623
  401MOL0     C52842   5.968   0.088   8.851  0.8144 -0.6270  1.2848
  401MOL0     C52843   5.902   0.111   8.984  0.6826 -0.2140 -0.4607
  401MOL0    Cl52844   5.864  -0.048   9.060 -0.3169 -0.2235  0.0343
  401MOL0     C52845   6.165   0.402   8.216  0.4668  0.2911 -0.6619
  401MOL0     C52846   6.132   0.499   8.119  0.1281  0.6095  0.1990
  401MOL0     O52847   5.847   0.605   8.116  0.7140 -0.0236  0.6339
  401MOL0     C52848   5.831   0.745   7.786  0.9597  0.6907 -0.2077
  401MOL0     C52849   5.745   0.820   7.700  0.1402  0.1090  0.8102
  401MOL0     N52850   5.076   0.822   7.353  0.4978  0.4654  0.1183
  401MOL0     N52851   5.035   0.755   7.251  0.6430 -0.3169  0.1540
  401MOL0     C52852   4.631   0.690   6.139  0.3755 -0.5267  0.0120
  401MOL0     C52853   4.512   0.654   6.063  0.1639 -0.0502 -0.2790
  401MOL0     C52854   4.166   0.484   5.899  0.4010 -0.0649  0.0508
  401MOL0     C52855   4.093   0.581   5.820 -0.1810  0.4713 -0.1181
  401MOL0     C52856   3.986   0.538   5.740 -0.5020  0.2484 -0.8784
  401MOL0     C52857   3.945   0.404   5.748 -0.6913  0.6122 -0.5246
  401MOL0     O52858   3.846   0.350   5.671 -0.2925  0.3574 -0.4236
  401MOL0     C52859   3.745   0.440   5.624  0.3501  0.2485 -0.3522
  401MOL0     C52860   3.608   0.368   5.610  0.5034 -0.2294  0.1452
  401MOL0     C52861   3.559   0.286   5.737 -0.6048 -0.1341  0.6682
  401MOL0     C52862   3.411   0.263   5.754 -0.3901  0.2477  0.6847
  401MOL0     C52863   3.367   0.151   5.659  0.3124 -0.2104 -0.5849
  401MOL0     C52864   3.309   0.068   5.596 -0.2010  0.6469  0.0145
  401MOL0     C52865   4.018   0.310   5.819 -0.0991 -0.3891  0.1968
  401MOL0     C52866   4.119   0.357   5.901 -0.1194 -0.0606 -0.3776
  401MOL0     H52867   4.274   0.811   6.237  0.6721  0.7774  4.1251
  401MOL0     H52868   4.461   0.901   6.348 -1.1754 -0.3466 -0.1211
  401MOL0     H52869   4.912   0.884   6.329  1.1704 -2.2666  2.7783
  401MOL0     H52870   4.878   0.793   6.181  1.2376  1.1014 -0.2336
  401MOL0     H52871   4.975   0.632   6.327 -1.0859 -0.0390 -0.6105
  401MOL0     H52872   4.806   0.610   6.378 -0.5807  0.5563  0.1312
  401MOL0     H52873   4.851   0.770   6.562 -0.1727 -0.0970 -0.5197
  401MOL0     H52874   5.023   0.793   6.509  1.5721 -1.6398 -0.3263
  401MOL0     H52875   4.899   0.557   6.627 -0.0816  0.8978 -0.0772
  401MOL0     H52876   5.067   0.549   6.561  0.4760 -0.9213  0.7318
  401MOL0     H52877   4.963   0.722   6.769 -1.4409  0.7141 -2.5668
  401MOL0     H52878   5.121   0.749   6.716 -2.0936  1.3071  1.6760
  401MOL0     H52879   5.179   0.505   6.777  0.5534 -0.8988  2.0867
  401MOL0     H52880   5.025   0.499   6.856 -0.7895  1.3865 -0.4323
  401MOL0     H52881   5.170   0.570   7.023  1.8728  0.7397  0.2436
  401MOL0     H52882   5.258   0.693   6.929  0.6114 -1.0299  0.6861
  401MOL0     H52883   4.973   0.736   6.985  0.7870 -0.3758 -2.9278
  401MOL0     H52884   5.080   0.852   6.929 -1.7707 -1.0933 -1.8374
  401MOL0     H52885   5.288   0.941   7.139  0.3494 -0.2378  0.1956
  401MOL0     H52886   5.171   1.097   7.406 -0.3375 -0.6059  2.4979
  401MOL0     H52887   5.335   1.039   7.355 -0.3533  0.7553  0.2668
  401MOL0     H52888   5.162   0.980   7.594 -0.8857 -2.3392 -0.4219
  401MOL0     H52889   5.319   1.062   7.603  1.3005  1.0341 -2.0030
  401MOL0     H52890   5.334   0.825   7.688  0.9628 -1.5318 -0.5729
  401MOL0     H52891   5.304   0.772   7.521 -0.6868  2.1011 -2.7024
  401MOL0     H52892   5.501   0.961   7.475  2.4857 -1.3147 -0.6964
  401MOL0     H52893   5.544   0.806   7.532 -0.9504 -1.6908  1.4611
  401MOL0     H52894   5.495   0.894   7.913  1.6558  2.5544  2.1911
  401MOL0     H52895   5.659   0.767   8.075  2.6273 -0.6563  0.8549
  401MOL0     H52896   5.937   0.326   7.897  1.4208 -1.0590 -0.5616
  401MOL0     H52897   5.992   0.142   8.072  1.4270 -0.1290 -1.4620
  401MOL0     H52898   5.977   0.076   8.275 -0.5961  0.0215 -0.7177
  401MOL0     H52899   6.040   0.154   8.429 -3.1667 -0.8273 -0.6097
  401MOL0     H52900   6.232  -0.035   8.435 -0.0430 -0.1325  0.5271
  401MOL0     H52901   6.138  -0.095   8.291 -1.0456 -1.2885  1.9459
  401MOL0     H52902   6.137  -0.226   8.474  0.8803 -0.2693 -0.4676
  401MOL0     H52903   5.976  -0.179   8.415 -1.2825  1.5770 -0.0137
  401MOL0     H52904   5.941  -0.017   8.588  2.2662  4.3376  3.1723
  401MOL0     H52905   5.980  -0.184   8.649  2.1651  0.1577  1.0321
  401MOL0     H52906   6.154   0.069   8.684 -0.4087  0.4254 -0.1052
  401MOL0     H52907   6.218  -0.098   8.686 -0.7819 -1.3270 -0.9380
  401MOL0     H52908   6.159  -0.009   8.910 -0.4630  2.0308 -0.0696
  401MOL0     H52909   6.039  -0.126   8.875  0.1151 -0.0522  1.0045
  401MOL0     H52910   6.018   0.181   8.820  0.0148  0.2334  2.5081
  401MOL0     H52911   5.888   0.069   8.780 -0.3760  6.9249 -0.2098
  401MOL0     H52912   5.810   0.166   8.961  0.9209 -0.2057 -1.4647
  401MOL0     H52913   5.973   0.167   9.044  1.4960 -0.3087 -1.3059
  401MOL0     H52914   6.239   0.433   8.290  0.2919  0.8712 -0.7266
  401MOL0     H52915   6.167   0.601   8.122  0.3151  0.5260  1.6752
  401MOL0     H52916   5.925   0.725   7.736  2.8005 -0.0505  3.2502
  401MOL0     H52917   5.774   0.832   7.596  0.5202  2.0527  1.0895
  401MOL0     H52918   4.730   0.650   6.119  1.5394  2.5847 -1.0218
  401MOL0     H52919   4.525   0.591   5.975  0.6173 -1.0954  0.5055
  401MOL0     H52920   4.122   0.685   5.815  2.1187 -0.1552 -4.2167
  401MOL0     H52921   3.927   0.617   5.695 -2.6721 -1.5983 -1.4502
  401MOL0     H52922   3.773   0.482   5.527  2.5989  0.5443  0.3505
  401MOL0     H52923   3.730   0.520   5.698  1.8600  0.2044  0.0421
  401MOL0     H52924   3.534   0.442   5.579 -1.5129 -0.7871  3.1426
  401MOL0     H52925   3.623   0.285   5.540 -2.4212 -1.0558  0.3394
  401MOL0     H52926   3.598   0.348   5.818  1.3371  2.4034 -2.0053
  401MOL0     H52927   3.611   0.190   5.747  0.0092  0.3632  2.6049
  401MOL0     H52928   3.379   0.233   5.854 -1.6220 -2.6574 -0.4637
  401MOL0     H52929   3.346   0.343   5.719 -0.7904 -0.6622 -0.7776
  401MOL0     H52930   3.252  -0.001   5.538 -1.2872 -0.3749  2.1558
  401MOL0     H52931   3.984   0.209   5.837 -2.3508  0.0098 -1.3564
  401MOL0     H52932   4.160   0.286   5.972 -1.0840  2.2674  2.7374
  402MOL0     O52933   0.789   7.296   2.866 -0.7941  0.0080  0.2360
  402MOL0     C52934   0.801   7.242   2.759 -0.8381 -0.3079  0.2715
  402MOL0     O52935   0.720   7.242   2.649  0.5692  0.0895 -0.4558
  402MOL0     C52936   0.591   7.300   2.659  0.0680  0.2413  0.6804
  402MOL0     C52937   0.478   7.218   2.695  0.8373  0.8496  0.4767
  402MOL0     C52938   0.349   7.268   2.716 -0.2782 -0.3378  0.2385
  402MOL0     C52939   0.329   7.402   2.704  1.4474  0.2620  1.0624
  402MOL0     O52940   0.213   7.469   2.736 -0.1510  0.4765  0.9671
  402MOL0     C52941   0.093   7.419   2.672  0.6282  0.2317  0.5369
  402MOL0     C52942   0.042   7.524   2.563  0.2090 -0.7954 -0.5333
  402MOL0     C52943  -0.098   7.470   2.517 -1.4317  0.4084  0.1241
  402MOL0     C52944  -0.159   7.573   2.426 -0.4729  0.5744  0.0680
  402MOL0     C52945  -0.290   7.517   2.375 -0.6589  0.1729 -0.1276
  402MOL0     C52946  -0.314   7.555   2.231 -0.0872 -0.5150  0.3774
  402MOL0     C52947  -0.309   7.705   2.188  0.4431 -0.4704  0.1869
  402MOL0     C52948  -0.402   7.801   2.266 -0.3826  0.0712  0.1164
  402MOL0     N52949  -0.339   7.875   2.382 -0.1554  0.3743 -0.1907
  402MOL0     C52950  -0.222   7.952   2.381 -0.3131 -0.1106 -0.2978
  402MOL0     C52951  -0.217   8.001   2.508  0.3296  0.5575 -0.4712
  402MOL0     C52952  -0.102   8.094   2.533  0.2020 -0.8124 -0.6877
  402MOL0     C52953   0.025   8.024   2.578 -0.6144  0.7746 -0.5411
  402MOL0     C52954   0.108   7.978   2.459 -1.0825 -0.1850  0.2608
  402MOL0     C52955   0.240   7.916   2.502 -0.9262  0.0477  0.1376
  402MOL0     O52956   0.326   7.876   2.395 -0.6880 -0.4209  0.0999
  402MOL0     C52957   0.456   7.832   2.424 -0.1254 -0.4557 -0.2498
  402MOL0     C52958   0.520   7.872   2.545  0.5455  0.0931  0.5480
  402MOL0     C52959   0.651   7.827   2.571  0.6726  0.6816  1.0525
  402MOL0     C52960   0.722   7.752   2.474 -0.0724  0.5144 -0.0862
  402MOL0     C52961   0.860   7.709   2.500 -0.3860 -0.4289  0.1015
  402MOL0     O52962   0.910   7.642   2.392 -0.0376  1.2775 -0.3851
  402MOL0     C52963   1.029   7.572   2.394 -1.4242 -0.0258 -0.5806
  402MOL0     C52964   1.097   7.574   2.276 -0.4043  0.1208  0.7495
  402MOL0     C52965   1.215   7.510   2.255 -0.0709  0.3307 -0.1342
  402MOL0     C52966   1.270   7.433   2.356  0.7201 -0.4836 -0.3518
  402MOL0     O52967   1.382   7.359   2.341 -0.4638 -0.1427 -0.8353
  402MOL0     C52968   1.498   7.429   2.279 -0.3900  0.4131  0.0578
  402MOL0     C52969   1.628   7.345   2.269 -0.4189 -0.2519 -0.4272
  402MOL0     C52970   1.742   7.403   2.207  0.3761 -0.1623  0.8538
  402MOL0     C52971   1.866   7.300   2.181 -0.1680 -0.0864 -0.0779
  402MOL0     C52972   1.948   7.351   2.060 -0.4326  0.0711  0.5295
  402MOL0     C52973   2.075   7.269   2.041  0.3007  0.0094  0.8804
  402MOL0     C52974   2.055   7.180   1.918 -0.1549 -1.0149 -0.2418
  402MOL0     C52975   2.179   7.106   1.880 -0.9817  0.0576  1.5123
  402MOL0    Cl52976   2.104   6.978   1.768 -0.5466 -0.1991  0.3454
  402MOL0     C52977   1.209   7.420   2.477 -0.0213  0.1918 -0.5166
  402MOL0     C52978   1.085   7.489   2.490 -0.0441 -0.0612 -0.4868
  402MOL0     O52979   0.917   7.744   2.602  0.4853  0.6067  0.3273
  402MOL0     C52980   0.660   7.733   2.351  0.0114  0.7643  0.3662
  402MOL0     C52981   0.534   7.773   2.321 -0.5199 -0.4254 -0.7074
  402MOL0     N52982  -0.325   7.946   2.586 -0.3531 -0.5118 -0.4941
  402MOL0     N52983  -0.391   7.869   2.498  0.7315 -0.2015 -0.7992
  402MOL0     C52984   0.436   7.483   2.666  0.0533  0.4715  0.1265
  402MOL0     C52985   0.567   7.435   2.643 -0.5723 -0.2554  0.4804
  402MOL0     C52986   0.933   7.179   2.733 -0.0166  0.2286  0.3176
  402MOL0     C52987   0.942   7.077   2.646 -0.4750  0.2450  0.2852
  402MOL0     C52988   1.064   7.008   2.619 -0.1852  0.1416  0.5517
  402MOL0     C52989   1.182   7.045   2.684 -0.6347 -0.0755  0.2704
  402MOL0     O52990   1.304   6.989   2.657 -1.0820 -0.4525  0.2000
  402MOL0     C52991   1.367   7.014   2.530 -1.1881  0.1210 -0.0306
  402MOL0     C52992   1.516   7.005   2.582  0.2035  0.3857 -0.4323
  402MOL0     C52993   1.627   7.045   2.489 -0.5629  0.3841 -0.0967
  402MOL0     C52994   1.774   7.024   2.528 -0.2901 -0.4086 -0.4279
  402MOL0     C52995   1.814   7.106   2.644 -0.3816 -0.2404 -0.1957
  402MOL0     C52996   1.856   7.174   2.734 -0.3433  0.1127  0.4096
  402MOL0     C52997   1.173   7.149   2.776  0.4464  0.3377  0.0197
  402MOL0     C52998   1.052   7.220   2.797  0.3237  0.8362 -0.5007
  402MOL0     H52999   0.497   7.111   2.706 -0.9474  0.5181  0.5989
  402MOL0     H53000   0.269   7.207   2.756  2.6876 -2.0553  4.2025
  402MOL0     H53001   0.018   7.408   2.751  2.6027  0.1507  2.5109
  402MOL0     H53002   0.104   7.321   2.625 -4.5531  0.3598 -1.6583
  402MOL0     H53003   0.105   7.538   2.474 -1.8790  0.9782 -1.8268
  402MOL0     H53004   0.032   7.624   2.606  2.5415 -1.2340  1.2225
  402MOL0     H53005  -0.169   7.443   2.596 -1.0465 -3.0278 -0.5344
  402MOL0     H53006  -0.077   7.381   2.457 -0.5577  0.3021  0.5805
  402MOL0     H53007  -0.188   7.669   2.470 -2.8258  1.6934 -3.4596
  402MOL0     H53008  -0.086   7.592   2.347 -2.8153  0.7577 -2.1792
  402MOL0     H53009  -0.385   7.555   2.414 -4.8239 -2.2989 -6.2101
  402MOL0     H53010  -0.294   7.408   2.389  0.0669  0.4525  2.8359
  402MOL0     H53011  -0.408   7.514   2.192 -0.8325  3.2486 -2.3296
  402MOL0     H53012  -0.233   7.506   2.177  0.7197 -0.9499  1.9317
  402MOL0     H53013  -0.212   7.753   2.174  0.1256  0.8016  1.9438
  402MOL0     H53014  -0.347   7.699   2.086  0.0772  2.2100  0.0923
  402MOL0     H53015  -0.493   7.756   2.307 -0.5924  1.3972  1.1297
  402MOL0     H53016  -0.443   7.873   2.194  0.5335 -1.1410 -1.7156
  402MOL0     H53017  -0.160   7.986   2.299  2.4700 -2.2997  0.7205
  402MOL0     H53018  -0.135   8.170   2.604 -1.1800 -1.2334 -0.8345
  402MOL0     H53019  -0.087   8.157   2.445  2.1624  1.2583  1.0208
  402MOL0     H53020  -0.006   7.944   2.646 -2.7132  0.1472 -2.1301
  402MOL0     H53021   0.081   8.096   2.640  0.0060 -0.2152  0.0666
  402MOL0     H53022   0.067   7.896   2.401  1.6709 -2.0469  0.7588
  402MOL0     H53023   0.126   8.068   2.399  1.3355  1.2929  2.9461
  402MOL0     H53024   0.213   7.829   2.562 -1.0067 -0.8471 -1.1572
  402MOL0     H53025   0.295   7.986   2.566 -0.3962 -0.6188  0.4117
  402MOL0     H53026   0.473   7.946   2.609 -0.2053 -0.6822  0.9217
  402MOL0     H53027   0.702   7.850   2.664  1.7903  0.6924  0.4591
  402MOL0     H53028   1.050   7.625   2.192 -1.3334 -2.7383 -0.6292
  402MOL0     H53029   1.262   7.500   2.158  0.0853 -1.7522  0.0986
  402MOL0     H53030   1.516   7.530   2.316 -0.4767  0.7313 -0.7552
  402MOL0     H53031   1.462   7.423   2.176 -1.0258 -2.1065  0.3542
  402MOL0     H53032   1.608   7.248   2.223  0.4576 -0.8906  0.4874
  402MOL0     H53033   1.668   7.329   2.370 -1.3059  0.2440  0.0149
  402MOL0     H53034   1.779   7.489   2.263  0.0612 -0.1857  1.0996
  402MOL0     H53035   1.716   7.426   2.103  2.1451 -0.5225  0.2809
  402MOL0     H53036   1.934   7.313   2.265  0.9586 -2.2504 -0.5958
  402MOL0     H53037   1.840   7.196   2.162 -1.6971  0.3408 -0.5605
  402MOL0     H53038   1.985   7.452   2.083  2.0728 -0.1916 -1.9029
  402MOL0     H53039   1.898   7.365   1.963 -1.4159  0.4097  1.0622
  402MOL0     H53040   2.101   7.208   2.129 -0.7265 -2.4370 -0.4149
  402MOL0     H53041   2.161   7.331   2.014 -0.8930  0.7364 -1.4221
  402MOL0     H53042   1.968   7.116   1.938  0.2066 -1.1447  1.0592
  402MOL0     H53043   2.036   7.241   1.830 -0.7269  0.5465  0.9098
  402MOL0     H53044   2.237   7.068   1.965  1.5309 -0.0167 -0.1212
  402MOL0     H53045   2.239   7.171   1.816 -2.5971  0.3976  0.2900
  402MOL0     H53046   1.259   7.357   2.549  1.1760 -1.4114 -2.6156
  402MOL0     H53047   1.031   7.487   2.584  1.3184 -0.3061  0.3270
  402MOL0     H53048   0.719   7.681   2.276 -0.8924  0.9940 -0.5299
  402MOL0     H53049   0.497   7.754   2.221  0.4993 -0.8407 -1.0126
  402MOL0     H53050   0.411   7.588   2.658  0.6831  0.5803 -0.5582
  402MOL0     H53051   0.645   7.503   2.612 -0.2339 -1.6432 -1.9794
  402MOL0     H53052   0.861   7.029   2.591 -0.8836  0.8465  0.3564
  402MOL0     H53053   1.081   6.935   2.540  3.0066 -2.4489  3.2765
  402MOL0     H53054   1.343   7.108   2.480  2.1504 -0.0040 -2.2312
  402MOL0     H53055   1.353   6.934   2.456  0.2464  0.0280 -0.2326
  402MOL0     H53056   1.516   7.061   2.676 -1.7220 -1.5751  0.8022
  402MOL0     H53057   1.541   6.903   2.611  0.7596  0.5077 -0.4640
  402MOL0     H53058   1.610   7.151   2.472 -0.5460  0.5421  0.8285
  402MOL0     H53059   1.618   6.982   2.400 -1.1850 -1.7834  1.4180
  402MOL0     H53060   1.787   6.919   2.554  0.2826 -0.0843  0.6736
  402MOL0     H53061   1.852   7.060   2.461  1.1005 -1.8740  0.3535
  402MOL0     H53062   1.893   7.237   2.812  0.0033  0.5556 -0.0987
  402MOL0     H53063   1.257   7.191   2.830  0.9234 -0.7444  0.1405
  402MOL0     H53064   1.051   7.299   2.872  0.4547 -0.6930  1.1895
  403MOL0     O53065  10.791   1.698   1.564 -1.0621 -0.0893  0.8514
  403MOL0     C53066  10.845   1.727   1.668  0.1381 -0.6687  1.1503
  403MOL0     O53067  10.787   1.794   1.772 -0.4907  0.1992  0.5280
  403MOL0     C53068  10.648   1.794   1.775 -0.7552 -0.5709  0.8180
  403MOL0     C53069  10.585   1.911   1.828  0.1266 -0.2168 -0.3326
  403MOL0     C53070  10.448   1.921   1.832  0.5515  0.6232 -0.1254
  403MOL0     C53071  10.362   1.818   1.780  0.2543 -0.0003  0.2650
  403MOL0     O53072  10.222   1.838   1.783 -0.1600 -0.7140  0.4666
  403MOL0     C53073  10.126   1.742   1.729 -0.5137  0.5128 -0.3917
  403MOL0     C53074   9.991   1.794   1.777  0.1717  0.0104 -0.1054
  403MOL0     C53075   9.979   1.788   1.929 -0.1092  0.8237  0.3015
  403MOL0     C53076   9.914   1.653   1.972  0.8908  0.1422  0.3631
  403MOL0     C53077   9.887   1.659   2.131 -0.8527  0.5875 -0.0887
  403MOL0     C53078   9.808   1.541   2.192 -0.0093 -0.1302  0.4180
  403MOL0     C53079   9.694   1.486   2.096 -0.7149  0.0730  0.3698
  403MOL0     C53080   9.591   1.394   2.154  0.0056  0.8385  0.0836
  403MOL0     N53081   9.513   1.454   2.257  0.1808  0.2269  0.5770
  403MOL0     C53082   9.557   1.484   2.383  0.1872 -1.0565 -0.8964
  403MOL0     C53083   9.446   1.536   2.441  0.4832 -0.0731 -0.5637
  403MOL0     C53084   9.437   1.589   2.582 -0.7939 -0.0698  0.8376
  403MOL0     C53085   9.448   1.492   2.696  0.2164  0.0871 -0.1736
  403MOL0     C53086   9.449   1.552   2.841  0.0133 -0.7234  0.5743
  403MOL0     C53087   9.306   1.586   2.884 -0.0164 -0.0691 -0.4103
  403MOL0     O53088   9.309   1.611   3.025  0.1201 -0.9808 -0.1080
  403MOL0     C53089   9.198   1.576   3.099 -0.2979 -0.3800 -0.1264
  403MOL0     C53090   9.224   1.536   3.226  0.8540 -0.0784  1.0429
  403MOL0     C53091   9.118   1.506   3.310  0.8988 -0.3663 -0.1298
  403MOL0     C53092   8.988   1.525   3.268  0.3802 -0.2302 -0.8580
  403MOL0     C53093   8.872   1.484   3.342 -0.4901 -0.2863 -1.3727
  403MOL0     O53094   8.884   1.361   3.391  0.0398 -0.4824 -0.3562
  403MOL0     C53095   8.773   1.310   3.463 -0.2516 -0.1636 -0.0584
  403MOL0     C53096   8.785   1.228   3.574 -0.4980  0.0621  0.5166
  403MOL0     C53097   8.675   1.153   3.627  0.1007 -0.8680 -0.2317
  403MOL0     C53098   8.546   1.170   3.567  0.2947 -0.0019  0.5159
  403MOL0     O53099   8.445   1.101   3.623  0.2812  0.4567 -0.2593
  403MOL0     C53100   8.310   1.115   3.583 -0.3118  0.0965 -0.6434
  403MOL0     C53101   8.228   1.031   3.674 -0.3664 -0.8910  0.4993
  403MOL0     C53102   8.099   0.980   3.589 -0.7072  0.0793  0.0091
  403MOL0     C53103   8.022   0.880   3.669  0.3180  0.1761 -0.3950
  403MOL0     C53104   7.908   0.940   3.757 -0.0870 -0.0521  0.3973
  403MOL0     C53105   7.837   0.831   3.842 -0.0192  0.1228  0.6594
  403MOL0     C53106   7.729   0.890   3.931 -0.5685  0.0755 -0.7693
  403MOL0     C53107   7.642   0.788   4.013  0.6816 -0.2380  0.5151
  403MOL0    Cl53108   7.573   0.666   3.904  0.3697 -0.3556  0.0483
  403MOL0     C53109   8.532   1.254   3.456 -0.4846  0.0977  0.7105
  403MOL0     C53110   8.641   1.320   3.404 -0.1271 -0.4780 -1.2618
  403MOL0     O53111   8.784   1.557   3.366 -0.0790 -0.1824  0.4636
  403MOL0     C53112   8.965   1.576   3.140 -0.7854 -0.9886 -0.1211
  403MOL0     C53113   9.066   1.597   3.054  0.5403  0.0792  0.0133
  403MOL0     N53114   9.350   1.556   2.347 -0.2518  0.1514  0.4284
  403MOL0     N53115   9.383   1.491   2.239 -0.4029  0.2407 -0.1470
  403MOL0     C53116  10.424   1.700   1.730 -0.1036 -0.4769  0.4328
  403MOL0     C53117  10.562   1.692   1.723 -1.3373 -0.3284  0.1124
  403MOL0     C53118  10.987   1.672   1.678 -0.8510 -0.4845 -0.6344
  403MOL0     C53119  11.080   1.741   1.751 -0.5260  0.4522 -0.7440
  403MOL0     C53120  11.213   1.685   1.754  0.7524 -1.0433  0.5927
  403MOL0     C53121  11.249   1.571   1.678 -0.4696 -0.2228 -1.4232
  403MOL0     O53122  11.376   1.522   1.703  0.5370 -0.0598 -0.1070
  403MOL0     C53123  11.434   1.421   1.609 -0.3418 -0.4635 -0.5614
  403MOL0     C53124  11.556   1.487   1.557  0.2608  0.2717 -0.3925
  403MOL0     C53125  11.638   1.578   1.647  0.1715  0.1880  0.6693
  403MOL0     C53126  11.776   1.613   1.588 -0.4611  0.1587  1.0036
  403MOL0     C53127  11.843   1.721   1.659 -0.2352  1.0389  0.4083
  403MOL0     C53128  11.880   1.819   1.720  0.0322 -0.6570  0.0333
  403MOL0     C53129  11.153   1.504   1.596  0.6397 -0.4682  0.2304
  403MOL0     C53130  11.025   1.562   1.596 -0.3007  0.8652 -1.0912
  403MOL0     H53131  10.651   1.985   1.872  2.5127 -3.6862  2.5348
  403MOL0     H53132  10.393   2.001   1.882  1.8292  1.3828  0.1040
  403MOL0     H53133  10.155   1.645   1.772  1.3290  1.3611  0.3964
  403MOL0     H53134  10.123   1.731   1.620 -1.0460 -2.3029 -0.1658
  403MOL0     H53135   9.910   1.732   1.737 -1.9030  0.5440  2.8265
  403MOL0     H53136   9.967   1.890   1.731 -3.2746 -1.2013 -1.1226
  403MOL0     H53137   9.923   1.878   1.953 -1.0944  0.5209 -0.7570
  403MOL0     H53138  10.071   1.804   1.986  0.8499 -0.9719 -0.6373
  403MOL0     H53139   9.816   1.658   1.925  0.1233  1.0179  1.9529
  403MOL0     H53140   9.972   1.563   1.948 -1.2046 -1.7130  1.7923
  403MOL0     H53141   9.817   1.741   2.153 -0.6516  0.7955 -0.2127
  403MOL0     H53142   9.978   1.669   2.190 -1.1977  1.3858  0.3197
  403MOL0     H53143   9.750   1.580   2.275 -0.7770  0.3517 -0.3247
  403MOL0     H53144   9.873   1.459   2.225  0.7142  1.2056  2.5115
  403MOL0     H53145   9.631   1.572   2.071 -1.9590 -1.2064 -1.2069
  403MOL0     H53146   9.746   1.447   2.008  1.9770  0.1772  1.8125
  403MOL0     H53147   9.646   1.307   2.190 -2.2147 -0.3560  0.7889
  403MOL0     H53148   9.522   1.360   2.076  1.0238 -1.2729  0.0204
  403MOL0     H53149   9.654   1.477   2.431  0.3623  3.0513 -0.2280
  403MOL0     H53150   9.341   1.641   2.585 -0.6356  0.2265  0.7997
  403MOL0     H53151   9.514   1.666   2.585  1.2733 -1.9743 -0.0298
  403MOL0     H53152   9.541   1.438   2.678 -0.8532 -1.6535 -0.6877
  403MOL0     H53153   9.368   1.420   2.681  0.1176  0.4844 -1.7821
  403MOL0     H53154   9.482   1.474   2.911 -0.6375 -0.0521  1.6484
  403MOL0     H53155   9.507   1.645   2.841 -1.2970  0.1498  2.2836
  403MOL0     H53156   9.228   1.513   2.861  0.0021 -1.0709  2.3576
  403MOL0     H53157   9.275   1.676   2.831 -2.0879  0.9573  2.2658
  403MOL0     H53158   9.327   1.528   3.260  0.8234  2.8025  2.0355
  403MOL0     H53159   9.136   1.477   3.413 -0.8767 -1.5860 -0.1099
  403MOL0     H53160   8.888   1.220   3.605 -0.6608 -1.7127  0.6868
  403MOL0     H53161   8.686   1.085   3.710 -2.6025 -0.4764  0.5479
  403MOL0     H53162   8.307   1.071   3.483 -0.9949  0.8522 -0.9579
  403MOL0     H53163   8.282   1.220   3.579  0.6713  0.4639  1.1434
  403MOL0     H53164   8.191   1.091   3.758  0.1430 -2.3337  1.7954
  403MOL0     H53165   8.286   0.950   3.721  1.5515  0.0841 -0.0885
  403MOL0     H53166   8.132   0.931   3.497  2.0235  0.7095  0.5650
  403MOL0     H53167   8.035   1.064   3.559 -0.9268  0.0114  0.2822
  403MOL0     H53168   7.977   0.800   3.610  0.8860 -1.7725  1.6721
  403MOL0     H53169   8.089   0.831   3.741  2.6980  2.4912 -0.8497
  403MOL0     H53170   7.848   1.003   3.691  1.6401  0.3841 -0.8458
  403MOL0     H53171   7.953   1.009   3.829  2.2347  1.5106 -2.3178
  403MOL0     H53172   7.916   0.808   3.913  1.7851  1.3991 -0.8530
  403MOL0     H53173   7.802   0.746   3.782 -0.2987  1.6423 -1.4603
  403MOL0     H53174   7.763   0.964   4.003 -2.5030 -0.8942  1.2666
  403MOL0     H53175   7.660   0.931   3.856  0.9179 -2.0984 -3.5188
  403MOL0     H53176   7.554   0.831   4.063  0.5456  0.3586 -0.2306
  403MOL0     H53177   7.703   0.739   4.089  2.1414  0.7048 -0.0218
  403MOL0     H53178   8.440   1.268   3.401 -0.1790  5.6924  1.1378
  403MOL0     H53179   8.618   1.372   3.313 -1.2282  0.6567 -0.3684
  403MOL0     H53180   8.864   1.587   3.102 -0.4812  0.8092 -0.4954
  403MOL0     H53181   9.052   1.639   2.955  0.1292  2.3610  0.9899
  403MOL0     H53182  10.366   1.616   1.692  0.2917 -0.8864  0.7262
  403MOL0     H53183  10.605   1.603   1.678 -1.8531 -2.3154  3.2330
  403MOL0     H53184  11.058   1.826   1.815  1.1246  0.9942 -0.8668
  403MOL0     H53185  11.295   1.740   1.798  0.9569 -2.1441  1.6484
  403MOL0     H53186  11.373   1.399   1.521  0.6456 -1.1731 -1.0950
  403MOL0     H53187  11.458   1.330   1.665  1.7782  1.5100  1.9620
  403MOL0     H53188  11.620   1.411   1.510  0.7375 -0.6780  1.7021
  403MOL0     H53189  11.519   1.547   1.473  1.4458  0.0052 -1.1434
  403MOL0     H53190  11.668   1.526   1.738  2.3274  1.0232  0.4854
  403MOL0     H53191  11.581   1.666   1.679  1.9098  0.9834  1.7333
  403MOL0     H53192  11.840   1.524   1.583 -0.4046  0.1190  2.1560
  403MOL0     H53193  11.763   1.651   1.486 -2.8935  0.6679  1.4533
  403MOL0     H53194  11.900   1.900   1.788 -0.3470 -0.2737 -0.3079
  403MOL0     H53195  11.168   1.419   1.531  0.6842  0.3064 -0.8114
  403MOL0     H53196  10.957   1.508   1.530 -0.0438  0.7711 -1.2819
  404MOL0     O53197   5.708   1.040   5.435  0.5362  0.3445  0.3809
  404MOL0     C53198   5.782   0.954   5.486 -0.1760  0.1732 -0.5523
  404MOL0     O53199   5.903   0.975   5.543 -0.1567  0.2188  0.2304
  404MOL0     C53200   5.968   1.102   5.542  0.0278 -0.2842  0.4001
  404MOL0     C53201   5.934   1.218   5.467  0.6682 -0.7964 -0.1217
  404MOL0     C53202   5.998   1.340   5.478 -0.3586 -0.1251 -0.4254
  404MOL0     C53203   6.099   1.356   5.570  0.1681 -0.4340 -0.3584
  404MOL0     O53204   6.169   1.471   5.572  0.4655 -0.2407 -0.8676
  404MOL0     C53205   6.257   1.492   5.688  0.4818  0.9707 -0.3046
  404MOL0     C53206   6.336   1.618   5.650 -0.0376 -0.0772  0.5032
  404MOL0     C53207   6.414   1.675   5.767  0.1233 -0.8717  0.1546
  404MOL0     C53208   6.459   1.818   5.735  0.0086  0.5693 -0.8064
  404MOL0     C53209   6.348   1.919   5.741 -0.3360 -0.0675 -0.6741
  404MOL0     C53210   6.276   1.945   5.873  0.2159 -0.0734  0.2200
  404MOL0     C53211   6.176   2.059   5.868 -0.0381 -0.6280 -0.0348
  404MOL0     C53212   6.134   2.092   6.012  0.1769  0.4731  1.1429
  404MOL0     N53213   6.065   2.221   6.021  0.3008 -0.1776  0.3283
  404MOL0     C53214   5.932   2.223   5.997 -0.0219 -0.1310 -0.1727
  404MOL0     C53215   5.906   2.354   5.971 -1.6521 -0.5620  0.1710
  404MOL0     C53216   5.793   2.425   5.929  0.9248 -0.1610  0.3929
  404MOL0     C53217   5.660   2.339   5.918 -0.1728 -0.1493 -0.5076
  404MOL0     C53218   5.533   2.425   5.896  0.2987  0.4831 -0.2042
  404MOL0     C53219   5.427   2.348   5.822  1.2628 -0.1677 -0.5315
  404MOL0     O53220   5.308   2.433   5.805  0.2559  0.4655  0.2449
  404MOL0     C53221   5.197   2.373   5.752  0.0812  0.3654  0.3716
  404MOL0     C53222   5.080   2.455   5.740 -0.0145  0.5029  0.2704
  404MOL0     C53223   4.960   2.407   5.687 -0.9803  1.0462  1.4834
  404MOL0     C53224   4.959   2.278   5.631 -0.0829  0.4342  0.3900
  404MOL0     C53225   4.842   2.232   5.559 -0.0678  0.0483  0.5275
  404MOL0     O53226   4.739   2.322   5.542 -0.0602 -0.3955  0.3108
  404MOL0     C53227   4.637   2.286   5.458 -0.3972 -0.0842  0.4870
  404MOL0     C53228   4.517   2.282   5.516  0.1038  0.1539  0.9906
  404MOL0     C53229   4.399   2.265   5.438  0.4804  0.2533 -0.3232
  404MOL0     C53230   4.407   2.260   5.301  0.3359  0.4515  0.2133
  404MOL0     O53231   4.291   2.248   5.241 -0.2055 -0.0885  0.3821
  404MOL0     C53232   4.284   2.169   5.121  0.8251 -0.3052  0.1414
  404MOL0     C53233   4.148   2.189   5.047 -0.3073  0.7201 -0.0033
  404MOL0     C53234   4.151   2.105   4.919 -0.0402 -0.6562 -0.9925
  404MOL0     C53235   4.025   2.143   4.832 -0.2010  0.6172 -0.2980
  404MOL0     C53236   4.059   2.095   4.693  0.4708  0.4568 -0.1962
  404MOL0     C53237   3.972   2.156   4.577 -0.5070  0.5513  0.0365
  404MOL0     C53238   3.965   2.309   4.583  0.2539  0.0857  0.0454
  404MOL0     C53239   4.097   2.379   4.545 -0.5363  0.6796 -0.3076
  404MOL0    Cl53240   4.109   2.466   4.397 -0.5201  0.1603  0.4368
  404MOL0     C53241   4.536   2.258   5.240  0.9758  0.7835 -0.7366
  404MOL0     C53242   4.657   2.277   5.316  0.0038  0.5181  0.1621
  404MOL0     O53243   4.834   2.114   5.526  0.1032 -0.2479  0.3160
  404MOL0     C53244   5.061   2.187   5.655 -0.1424 -0.0984  0.9296
  404MOL0     C53245   5.181   2.240   5.716  0.8038  1.2029 -0.3061
  404MOL0     N53246   6.024   2.427   5.994  0.2945 -0.2243 -0.8996
  404MOL0     N53247   6.117   2.348   6.033 -0.4035  0.8547 -0.5916
  404MOL0     C53248   6.133   1.240   5.645  0.8780 -0.2013 -0.0407
  404MOL0     C53249   6.068   1.112   5.635 -0.0086  0.5152  0.1085
  404MOL0     C53250   5.744   0.816   5.483  0.7281  0.3310  0.9429
  404MOL0     C53251   5.662   0.762   5.389  1.2787 -0.5118 -0.2772
  404MOL0     C53252   5.641   0.623   5.366 -0.3453 -0.0170  0.4267
  404MOL0     C53253   5.696   0.528   5.454  0.4750 -0.4493  0.3784
  404MOL0     O53254   5.693   0.398   5.427 -0.0936  0.9680  1.2364
  404MOL0     C53255   5.577   0.326   5.375 -0.2077  0.7586  0.1708
  404MOL0     C53256   5.573   0.198   5.450 -0.4607  0.4841 -0.6546
  404MOL0     C53257   5.516   0.209   5.593 -0.2788  0.1027  0.7031
  404MOL0     C53258   5.553   0.073   5.670  1.2106  0.6938  0.6913
  404MOL0     C53259   5.689   0.043   5.690  0.1532  0.2234  0.6425
  404MOL0     C53260   5.795   0.003   5.718 -0.1745 -1.0526  0.4707
  404MOL0     C53261   5.783   0.579   5.551 -0.5436 -0.0164 -0.6788
  404MOL0     C53262   5.804   0.723   5.570 -0.5220  0.9438  0.6622
  404MOL0     H53263   5.855   1.226   5.394 -0.1369  2.8187  0.9160
  404MOL0     H53264   5.978   1.418   5.406 -0.1486 -0.1901 -0.5539
  404MOL0     H53265   6.332   1.415   5.708 -1.8989 -1.2044  0.7116
  404MOL0     H53266   6.197   1.514   5.776  0.0639  3.4625 -1.1201
  404MOL0     H53267   6.260   1.686   5.610  0.8748 -0.4679 -2.0940
  404MOL0     H53268   6.392   1.599   5.558 -1.7262  1.7435 -0.9938
  404MOL0     H53269   6.504   1.616   5.785  0.1233 -1.5257 -1.6811
  404MOL0     H53270   6.355   1.664   5.858 -0.2066 -1.7823 -0.1583
  404MOL0     H53271   6.533   1.845   5.811  1.1387 -2.3496 -0.7351
  404MOL0     H53272   6.509   1.815   5.638  3.0850 -2.2943  0.6941
  404MOL0     H53273   6.266   1.894   5.673 -0.3878 -2.1882  0.0999
  404MOL0     H53274   6.390   2.012   5.702  0.6995 -0.8194 -1.3972
  404MOL0     H53275   6.361   1.965   5.940  2.7058 -1.3045 -2.3634
  404MOL0     H53276   6.226   1.857   5.916  2.4230 -1.2929  0.4926
  404MOL0     H53277   6.232   2.145   5.830 -0.1677 -0.8832 -0.8255
  404MOL0     H53278   6.089   2.038   5.804 -0.2543  0.3200 -0.0569
  404MOL0     H53279   6.214   2.089   6.087  0.9456 -1.9776  0.3206
  404MOL0     H53280   6.063   2.011   6.033 -1.2527  1.3363 -0.0952
  404MOL0     H53281   5.857   2.145   5.996 -0.4525  0.1369  2.5001
  404MOL0     H53282   5.810   2.474   5.833  0.2854  0.5147  0.6109
  404MOL0     H53283   5.768   2.505   5.998 -1.7923 -1.5741  1.2097
  404MOL0     H53284   5.668   2.288   6.015  1.7525  0.4907 -0.2836
  404MOL0     H53285   5.663   2.259   5.844 -1.6588 -0.0549 -0.6869
  404MOL0     H53286   5.492   2.453   5.994 -1.6848  2.7612 -1.5903
  404MOL0     H53287   5.562   2.510   5.834  0.2685 -0.8375 -2.1077
  404MOL0     H53288   5.408   2.264   5.889  1.9254  0.4560  0.4694
  404MOL0     H53289   5.457   2.293   5.732  1.1293 -3.4400  1.2929
  404MOL0     H53290   5.095   2.558   5.769  0.6790  0.6741 -0.6402
  404MOL0     H53291   4.880   2.479   5.674 -1.1136  0.5576 -0.9253
  404MOL0     H53292   4.503   2.303   5.621 -0.3170  1.5910  0.6699
  404MOL0     H53293   4.299   2.275   5.478  0.4654  0.3396 -0.3802
  404MOL0     H53294   4.303   2.061   5.127 -0.9987 -0.6843 -0.3696
  404MOL0     H53295   4.358   2.207   5.050  1.3494 -2.7949 -0.7326
  404MOL0     H53296   4.135   2.294   5.019 -0.3249  0.5531 -0.6246
  404MOL0     H53297   4.065   2.159   5.111 -0.1250 -2.2666 -1.0078
  404MOL0     H53298   4.166   2.000   4.945  0.7279 -0.2700  0.2031
  404MOL0     H53299   4.243   2.136   4.868  2.0910 -1.7066  1.9027
  404MOL0     H53300   3.940   2.089   4.875  0.7074 -0.8536 -0.2860
  404MOL0     H53301   4.004   2.250   4.834 -1.9764  0.3504 -1.8637
  404MOL0     H53302   4.050   1.986   4.688 -0.2456  0.5360 -0.8576
  404MOL0     H53303   4.160   2.105   4.653 -0.5263  0.9474 -2.7974
  404MOL0     H53304   3.871   2.116   4.573  0.8409 -3.2169 -0.7638
  404MOL0     H53305   4.014   2.132   4.479  0.1225 -0.9527  0.6402
  404MOL0     H53306   3.894   2.347   4.509  1.8400  5.8291  0.9997
  404MOL0     H53307   3.918   2.334   4.678 -0.8747 -0.5284 -0.3257
  404MOL0     H53308   4.182   2.310   4.550 -2.1751 -1.4095  0.7260
  404MOL0     H53309   4.100   2.452   4.626  1.3255  0.1670  0.1349
  404MOL0     H53310   4.538   2.247   5.132 -0.0182  2.3375 -0.9505
  404MOL0     H53311   4.751   2.291   5.265 -0.2808 -1.9841 -1.1825
  404MOL0     H53312   5.052   2.089   5.609  2.3454 -0.2264  0.5890
  404MOL0     H53313   5.268   2.175   5.723  0.6072  0.5370 -2.9300
  404MOL0     H53314   6.201   1.248   5.729 -0.6902  1.9644  1.1364
  404MOL0     H53315   6.090   1.024   5.694 -2.2463 -1.1491 -1.4090
  404MOL0     H53316   5.630   0.841   5.323  4.3368  2.0998  1.0736
  404MOL0     H53317   5.570   0.586   5.293 -0.5269 -3.7281  2.2183
  404MOL0     H53318   5.600   0.294   5.273 -0.3285 -1.5572  0.8200
  404MOL0     H53319   5.480   0.377   5.374 -1.0429 -0.5287 -4.0576
  404MOL0     H53320   5.510   0.129   5.394 -0.6613  1.6332 -1.9100
  404MOL0     H53321   5.674   0.157   5.442 -0.5227 -0.1961  1.4658
  404MOL0     H53322   5.409   0.226   5.579 -1.0296 -4.0638  0.0514
  404MOL0     H53323   5.567   0.288   5.648  1.3908 -0.2403 -0.3022
  404MOL0     H53324   5.502   0.075   5.767 -0.3362  3.9499 -0.0591
  404MOL0     H53325   5.497  -0.005   5.618 -0.5338  3.9510 -2.7862
  404MOL0     H53326   5.894  -0.026   5.750  0.0731 -0.5124  0.2121
  404MOL0     H53327   5.838   0.519   5.624 -2.0115  0.6044  0.9970
  404MOL0     H53328   5.867   0.756   5.652 -3.3841  2.7206  2.2820
  405MOL0     O53329   3.630   0.470   8.233  0.1370  0.2910 -0.1227
  405MOL0     C53330   3.513   0.449   8.269  0.2519 -0.0893  0.5652
  405MOL0     O53331   3.466   0.463   8.393 -0.3759 -0.3909 -0.1910
  405MOL0     C53332   3.542   0.489   8.509 -0.0762 -0.3527 -0.6248
  405MOL0     C53333   3.677   0.457   8.515 -1.9913  0.2895 -0.0940
  405MOL0     C53334   3.764   0.494   8.624  0.1482 -0.1083 -0.2901
  405MOL0     C53335   3.705   0.556   8.741 -0.8694 -0.3949  0.7170
  405MOL0     O53336   3.775   0.585   8.854  0.0591 -0.0297 -0.2996
  405MOL0     C53337   3.921   0.554   8.855 -0.3327  0.8221 -1.0646
  405MOL0     C53338   3.981   0.600   8.990  0.8446 -1.1699  0.6054
  405MOL0     C53339   4.119   0.643   8.968 -0.4629 -0.2481 -0.5374
  405MOL0     C53340   4.199   0.692   9.081 -0.4411 -0.4153 -1.0301
  405MOL0     C53341   4.350   0.693   9.052 -0.1993 -0.0561  1.0423
  405MOL0     C53342   4.442   0.690   9.172 -0.1387  0.5485  0.1550
  405MOL0     C53343   4.561   0.600   9.136  0.7647  0.3682 -1.5325
  405MOL0     C53344   4.666   0.680   9.051  1.1632  0.5296 -0.5919
  405MOL0     N53345   4.748   0.764   9.144 -0.3595 -0.3286  0.4936
  405MOL0     C53346   4.751   0.907   9.151  0.4995  0.0899  0.3344
  405MOL0     C53347   4.815   0.935   9.262 -0.4589  0.4065 -0.7821
  405MOL0     C53348   4.817   1.074   9.319 -0.7921 -0.1930  0.8480
  405MOL0     C53349   4.870   1.180   9.232  0.0467  0.0349  0.9861
  405MOL0     C53350   4.872   1.326   9.287  0.8706 -0.5188 -0.5779
  405MOL0     C53351   4.929   1.333   9.434  0.6124 -0.4020  0.3748
  405MOL0     O53352   4.841   1.283   9.535  0.3789  0.3319 -0.7213
  405MOL0     C53353   4.705   1.298   9.525 -0.6791 -0.5360 -0.4602
  405MOL0     C53354   4.642   1.412   9.477  0.5463  0.3990  0.8942
  405MOL0     C53355   4.507   1.426   9.483 -0.0431 -1.1446 -0.3345
  405MOL0     C53356   4.431   1.321   9.522 -0.4428  0.7043 -1.2700
  405MOL0     C53357   4.281   1.336   9.528  0.7534 -0.5382 -0.0959
  405MOL0     O53358   4.233   1.432   9.442  0.3912 -0.4555  0.0296
  405MOL0     C53359   4.089   1.446   9.435 -0.9593 -0.7169  0.0418
  405MOL0     C53360   3.993   1.449   9.540 -0.0948 -0.0752  0.2753
  405MOL0     C53361   3.858   1.477   9.516 -0.3253  0.1754 -0.1395
  405MOL0     C53362   3.821   1.516   9.385  0.2466 -0.7042 -0.7819
  405MOL0     O53363   3.703   1.576   9.378  0.0458  0.5197 -0.5630
  405MOL0     C53364   3.651   1.605   9.251 -0.8655 -0.8245  0.3976
  405MOL0     C53365   3.507   1.645   9.263  0.9972  0.4146  0.0842
  405MOL0     C53366   3.439   1.676   9.137  0.5016  0.3957  0.7805
  405MOL0     C53367   3.296   1.703   9.148  0.2453 -0.2339 -0.5225
  405MOL0     C53368   3.219   1.701   9.010 -0.1903 -0.8886  0.7994
  405MOL0     C53369   3.065   1.690   9.023 -0.8418 -0.2574 -0.5094
  405MOL0     C53370   3.000   1.794   9.117  0.3275  0.2532 -0.1370
  405MOL0     C53371   2.856   1.829   9.080 -0.5414  0.3518 -1.2135
  405MOL0    Cl53372   2.756   1.680   9.066 -0.3543 -0.2550 -0.6039
  405MOL0     C53373   3.916   1.510   9.286 -0.4369 -0.6986  0.0208
  405MOL0     C53374   4.049   1.478   9.308 -0.3048 -0.2681 -1.1084
  405MOL0     O53375   4.215   1.255   9.596 -0.3638  0.0140  0.7237
  405MOL0     C53376   4.483   1.197   9.563 -1.3155 -0.3098  0.2043
  405MOL0     C53377   4.627   1.192   9.564  0.2680 -0.7210 -0.2011
  405MOL0     N53378   4.857   0.809   9.317 -0.4417 -1.4109  0.6601
  405MOL0     N53379   4.810   0.717   9.255 -0.1535  0.3139  0.5259
  405MOL0     C53380   3.573   0.574   8.740 -0.1480 -0.4683 -0.2887
  405MOL0     C53381   3.487   0.542   8.629 -0.0351  0.0340 -0.5472
  405MOL0     C53382   3.411   0.420   8.169  0.3246  0.4061 -0.2164
  405MOL0     C53383   3.450   0.368   8.040  0.4125 -0.3225 -0.1915
  405MOL0     C53384   3.367   0.339   7.936  0.0990  0.0438 -0.4427
  405MOL0     C53385   3.233   0.360   7.950  0.5392  0.1000  0.1643
  405MOL0     O53386   3.143   0.334   7.851 -0.0599 -0.5571  0.4095
  405MOL0     C53387   3.001   0.362   7.867  0.2839  0.1427  0.2676
  405MOL0     C53388   2.926   0.331   7.735 -0.6184 -0.6744  1.1571
  405MOL0     C53389   2.776   0.325   7.769 -0.3178 -0.7211 -0.1474
  405MOL0     C53390   2.689   0.291   7.649  1.1096  0.7651  0.3050
  405MOL0     C53391   2.720   0.349   7.523 -0.2238  0.6781 -0.7660
  405MOL0     C53392   2.739   0.389   7.416  0.2931 -1.5530  0.7406
  405MOL0     C53393   3.187   0.410   8.075 -0.5933 -0.4179 -0.0752
  405MOL0     C53394   3.274   0.439   8.180  0.1752  0.0004 -1.0495
  405MOL0     H53395   3.727   0.422   8.425  0.3360 -1.0695  1.6230
  405MOL0     H53396   3.868   0.468   8.605 -0.8944 -3.0266 -2.7743
  405MOL0     H53397   3.976   0.604   8.775 -1.6349  3.1945 -0.5775
  405MOL0     H53398   3.945   0.447   8.853  0.1469  0.9405 -2.9165
  405MOL0     H53399   3.981   0.522   9.066  1.4369  0.8604  2.8235
  405MOL0     H53400   3.911   0.673   9.032 -0.6417 -0.1035 -3.2590
  405MOL0     H53401   4.122   0.728   8.899 -1.8353  1.2308  1.1265
  405MOL0     H53402   4.171   0.555   8.929 -2.2381 -1.7990  0.4473
  405MOL0     H53403   4.171   0.792   9.114 -0.4275 -0.5077 -0.7363
  405MOL0     H53404   4.167   0.627   9.164 -0.9494  0.6795 -0.3459
  405MOL0     H53405   4.371   0.787   9.001 -0.2526 -1.0239 -0.8561
  405MOL0     H53406   4.383   0.626   8.972  0.5813  2.3521 -0.7833
  405MOL0     H53407   4.386   0.648   9.255  1.2916 -0.1417  0.7999
  405MOL0     H53408   4.475   0.794   9.186 -0.7530  1.1903 -2.5641
  405MOL0     H53409   4.601   0.587   9.236 -1.7078 -0.2599 -0.5480
  405MOL0     H53410   4.541   0.501   9.094  2.3615 -0.0931 -1.2428
  405MOL0     H53411   4.613   0.740   8.976 -1.1116 -1.0444 -0.3513
  405MOL0     H53412   4.742   0.617   9.004  0.0082 -1.2404 -0.1675
  405MOL0     H53413   4.701   0.972   9.080  1.9116  1.3183  0.4298
  405MOL0     H53414   4.877   1.074   9.411  0.2859 -0.6610  0.1752
  405MOL0     H53415   4.709   1.086   9.333 -1.5695  0.4562 -3.9691
  405MOL0     H53416   4.817   1.186   9.136  0.2250  1.1659  0.9372
  405MOL0     H53417   4.975   1.156   9.214  0.1543  1.9794 -1.5556
  405MOL0     H53418   4.923   1.380   9.206 -1.0992 -1.5561 -2.6291
  405MOL0     H53419   4.773   1.371   9.277  0.8232 -0.8496 -1.7537
  405MOL0     H53420   4.942   1.441   9.450 -2.6974  1.2683 -5.1821
  405MOL0     H53421   5.028   1.287   9.434  1.2341  0.7992 -1.2714
  405MOL0     H53422   4.697   1.502   9.453 -0.0557  0.4522 -0.3185
  405MOL0     H53423   4.463   1.524   9.466  1.6691  0.3917  3.0578
  405MOL0     H53424   4.034   1.421   9.637  4.0817  0.4710 -1.1169
  405MOL0     H53425   3.777   1.466   9.588 -1.5480  1.1695 -1.2947
  405MOL0     H53426   3.650   1.513   9.192  0.3146 -0.4067 -0.3277
  405MOL0     H53427   3.703   1.690   9.207 -0.0118 -1.8109 -0.5471
  405MOL0     H53428   3.504   1.741   9.314  2.3898  0.2297  0.5776
  405MOL0     H53429   3.456   1.571   9.325  2.9750  0.3435  1.7491
  405MOL0     H53430   3.443   1.588   9.072  0.8426  0.0577  1.2519
  405MOL0     H53431   3.491   1.753   9.079  0.2684  0.2716  0.3978
  405MOL0     H53432   3.249   1.622   9.205 -1.3962  1.2191  0.2692
  405MOL0     H53433   3.267   1.792   9.205 -2.0118 -0.5858 -1.0124
  405MOL0     H53434   3.248   1.610   8.957 -0.8853  0.0218 -1.2376
  405MOL0     H53435   3.247   1.787   8.949 -0.8183 -2.3062 -1.6125
  405MOL0     H53436   3.037   1.593   9.067  1.7349 -0.6105  0.5096
  405MOL0     H53437   3.021   1.695   8.923 -3.6929 -4.0463  0.3224
  405MOL0     H53438   3.004   1.756   9.219  1.7867  0.0836 -0.2419
  405MOL0     H53439   3.054   1.889   9.118 -1.9588  1.6780 -1.2886
  405MOL0     H53440   2.858   1.885   8.986  1.2278 -0.0213 -1.4497
  405MOL0     H53441   2.820   1.895   9.160  0.2738  0.7585 -1.1685
  405MOL0     H53442   3.891   1.543   9.186 -1.1398 -1.7406 -0.1590
  405MOL0     H53443   4.124   1.488   9.230  2.9408  3.5834  2.0788
  405MOL0     H53444   4.426   1.122   9.616  0.9787 -2.9559 -0.8094
  405MOL0     H53445   4.673   1.100   9.600 -0.4262  0.3272  3.8736
  405MOL0     H53446   3.520   0.611   8.827 -1.2069 -1.7853 -0.3361
  405MOL0     H53447   3.382   0.569   8.626  1.0259  5.0079 -1.2488
  405MOL0     H53448   3.553   0.353   8.011  1.3050  3.1667  0.7029
  405MOL0     H53449   3.405   0.293   7.845  4.8961 -0.6532  1.6160
  405MOL0     H53450   2.998   0.466   7.901  4.1515 -0.5413  3.4819
  405MOL0     H53451   2.966   0.297   7.947 -0.2345 -1.1661 -0.9728
  405MOL0     H53452   2.948   0.407   7.660 -3.2004 -0.1619  0.8406
  405MOL0     H53453   2.953   0.227   7.715  1.9838 -0.0778  1.1928
  405MOL0     H53454   2.746   0.422   7.809  1.1246 -0.0619 -0.5858
  405MOL0     H53455   2.759   0.256   7.853 -2.7055 -2.3109 -1.8177
  405MOL0     H53456   2.696   0.184   7.627  0.9066  0.8961 -0.4181
  405MOL0     H53457   2.587   0.308   7.683  0.9433 -1.4999  1.1571
  405MOL0     H53458   2.758   0.409   7.313  0.3863  2.0132  1.3254
  405MOL0     H53459   3.086   0.428   8.111 -0.3212  1.3558 -0.0842
  405MOL0     H53460   3.230   0.485   8.268 -1.4070  0.0464 -1.8348
  406MOL0     O53461   5.488   9.664   7.492 -0.4669 -0.4991 -0.1463
  406MOL0     C53462   5.375   9.652   7.441 -0.1426 -0.1017 -0.2078
  406MOL0     O53463   5.351   9.669   7.309 -0.0129  0.6730  0.3189
  406MOL0     C53464   5.438   9.739   7.227  1.0488 -1.0549  0.5492
  406MOL0     C53465   5.431   9.877   7.205 -0.0798 -0.1482  0.3873
  406MOL0     C53466   5.510   9.931   7.096  0.5726  0.2029  0.4427
  406MOL0     C53467   5.595   9.856   7.016  0.8890 -0.1925 -0.2556
  406MOL0     O53468   5.680   9.912   6.924  0.2395 -0.0466  0.0302
  406MOL0     C53469   5.687  10.058   6.921 -0.0772  0.2511  0.9086
  406MOL0     C53470   5.782  10.100   6.809  0.2346  0.6945  0.3542
  406MOL0     C53471   5.746  10.041   6.670  0.1044  0.0627  0.5041
  406MOL0     C53472   5.861  10.071   6.570  0.4270  0.2211  1.0354
  406MOL0     C53473   5.830  10.008   6.434  0.5245 -0.3176  0.5904
  406MOL0     C53474   5.932  10.065   6.331 -0.2051 -0.1445  0.3625
  406MOL0     C53475   6.085  10.025   6.356  0.6914  0.1180  0.1388
  406MOL0     C53476   6.183  10.104   6.255  0.3195 -0.3723 -1.4438
  406MOL0     N53477   6.139  10.079   6.114 -0.7947  0.4790 -0.6728
  406MOL0     C53478   6.069  10.160   6.026 -0.4448  0.2306 -0.3878
  406MOL0     C53479   6.069  10.088   5.912 -1.0300 -0.9943  0.4643
  406MOL0     C53480   6.001  10.147   5.792 -0.3167  0.0863  0.9246
  406MOL0     C53481   5.856  10.106   5.781 -0.5101 -0.2310  0.2905
  406MOL0     C53482   5.842   9.968   5.715 -0.1272 -0.2021  0.0301
  406MOL0     C53483   5.702   9.925   5.698 -0.3005  0.3428 -0.5580
  406MOL0     O53484   5.635   9.989   5.591  0.3746  0.0154  0.1953
  406MOL0     C53485   5.498   9.969   5.592  0.1038 -0.2985 -0.3271
  406MOL0     C53486   5.432   9.849   5.608  0.2609 -0.0394  0.0769
  406MOL0     C53487   5.295   9.847   5.621  0.6585 -0.6425  0.2545
  406MOL0     C53488   5.219   9.968   5.612  0.2999 -0.0830 -0.2164
  406MOL0     C53489   5.065   9.964   5.624  0.7330 -0.0704 -0.6648
  406MOL0     O53490   5.007   9.841   5.617 -1.0550  0.6443 -0.4735
  406MOL0     C53491   4.870   9.848   5.622  0.0025 -0.0328 -0.7942
  406MOL0     C53492   4.791   9.887   5.724  0.0079 -0.3871 -0.0954
  406MOL0     C53493   4.653   9.879   5.725  0.5005 -0.9157  0.1113
  406MOL0     C53494   4.590   9.842   5.604  0.8779  0.9104 -0.7979
  406MOL0     O53495   4.453   9.830   5.580  0.4119  0.4393  0.3986
  406MOL0     C53496   4.385   9.947   5.635 -0.2276 -0.2202  0.1355
  406MOL0     C53497   4.262   9.959   5.542  0.0018 -0.8089 -0.8246
  406MOL0     C53498   4.135   9.919   5.611 -0.2505  0.1714  0.1066
  406MOL0     C53499   4.092  10.008   5.727 -0.0479  0.1006 -0.6555
  406MOL0     C53500   3.943   9.965   5.768 -0.1882  0.3268  1.3245
  406MOL0     C53501   3.904  10.055   5.887 -0.7058  0.3156  0.1336
  406MOL0     C53502   3.761  10.038   5.922  0.3866 -0.4839  0.0390
  406MOL0     C53503   3.735  10.145   6.029 -0.0839 -1.0542  0.6095
  406MOL0    Cl53504   3.561  10.172   6.058 -0.1176 -0.1628  0.0920
  406MOL0     C53505   4.667   9.802   5.503 -0.1839  1.1659 -0.1902
  406MOL0     C53506   4.811   9.804   5.504  0.1251  0.1710  0.2914
  406MOL0     O53507   5.003  10.068   5.640  0.2994  0.2911  0.1448
  406MOL0     C53508   5.292  10.086   5.601 -0.1585  0.3110 -0.8703
  406MOL0     C53509   5.423  10.086   5.587  0.0063  0.6623  0.2883
  406MOL0     N53510   6.145   9.969   5.926 -0.1954 -0.6663  0.2427
  406MOL0     N53511   6.184   9.967   6.051 -0.3398  0.2435  0.5294
  406MOL0     C53512   5.605   9.720   7.042 -0.2298 -0.3813  0.2427
  406MOL0     C53513   5.529   9.667   7.150 -0.0442  0.1314  0.3732
  406MOL0     C53514   5.262   9.624   7.530 -0.2039 -0.5010  0.0540
  406MOL0     C53515   5.282   9.597   7.668  0.2330 -0.9975 -0.1295
  406MOL0     C53516   5.178   9.581   7.748  0.4037 -0.2216 -0.4163
  406MOL0     C53517   5.043   9.578   7.706  0.1106 -0.6282 -0.4292
  406MOL0     O53518   4.940   9.550   7.796  0.1833 -1.2157 -0.6185
  406MOL0     C53519   4.950   9.572   7.946 -0.7059  0.6307 -0.0156
  406MOL0     C53520   4.818   9.521   8.011 -0.2874  0.0873 -0.1474
  406MOL0     C53521   4.708   9.625   7.993 -0.2576  0.7774  0.8401
  406MOL0     C53522   4.575   9.582   8.043 -0.5930  0.0996 -0.1330
  406MOL0     C53523   4.536   9.450   7.991  0.1171  0.4086 -0.7365
  406MOL0     C53524   4.502   9.349   7.936 -0.0335  0.0984  0.2952
  406MOL0     C53525   5.025   9.587   7.569  0.2133 -0.2231  1.4989
  406MOL0     C53526   5.131   9.613   7.479 -0.1626 -0.7984  0.3859
  406MOL0     H53527   5.361   9.934   7.266  1.5341  2.0256  0.3246
  406MOL0     H53528   5.486  10.033   7.067  0.4046  0.2361  0.7013
  406MOL0     H53529   5.724  10.091   7.018 -1.7291  0.0312  1.6463
  406MOL0     H53530   5.593  10.108   6.895  1.4828  3.3989  0.8373
  406MOL0     H53531   5.884  10.068   6.832 -0.4984 -1.8610  0.2811
  406MOL0     H53532   5.779  10.209   6.803 -0.9219  0.7070  0.8701
  406MOL0     H53533   5.645  10.067   6.637 -0.0202 -2.5397 -1.5016
  406MOL0     H53534   5.755   9.933   6.683  2.8614  0.3149  1.1795
  406MOL0     H53535   5.864  10.181   6.566 -1.6763  0.2850 -2.5992
  406MOL0     H53536   5.949  10.020   6.608  1.3873  1.9562  1.2680
  406MOL0     H53537   5.724  10.030   6.413  0.1534 -1.2312  1.4358
  406MOL0     H53538   5.845   9.900   6.434  0.6857 -0.3091 -0.4433
  406MOL0     H53539   5.920  10.173   6.320  1.3493  0.2005  1.6906
  406MOL0     H53540   5.909  10.012   6.237  1.1648 -2.6301  1.3242
  406MOL0     H53541   6.121  10.056   6.455  1.9909  2.4453 -0.9879
  406MOL0     H53542   6.097   9.917   6.346 -1.8252 -0.3038  0.9859
  406MOL0     H53543   6.281  10.072   6.292  0.0396  1.6846  1.3554
  406MOL0     H53544   6.179  10.212   6.271 -4.2617 -0.1177 -2.9730
  406MOL0     H53545   6.021  10.255   6.045  1.0821  0.8345  0.5918
  406MOL0     H53546   6.062  10.107   5.711  2.8953  0.5610  2.9354
  406MOL0     H53547   6.013  10.256   5.797 -0.2117  0.0132  3.6027
  406MOL0     H53548   5.795  10.178   5.725  0.7824 -0.6984 -1.8639
  406MOL0     H53549   5.805  10.108   5.877 -4.6555  2.0323 -1.7051
  406MOL0     H53550   5.880   9.971   5.612  0.0752 -0.5675  0.0957
  406MOL0     H53551   5.895   9.895   5.777 -0.0550 -0.2507 -0.0866
  406MOL0     H53552   5.652   9.932   5.795  1.9827  1.1165  0.6505
  406MOL0     H53553   5.715   9.819   5.674  2.4536  0.9355 -2.0761
  406MOL0     H53554   5.491   9.759   5.616  0.9973  0.5464  1.4215
  406MOL0     H53555   5.258   9.746   5.638 -0.9455 -0.0463  0.4437
  406MOL0     H53556   4.844   9.924   5.812 -0.3624  0.2546 -0.1378
  406MOL0     H53557   4.593   9.918   5.806  0.8709  1.4594 -0.6831
  406MOL0     H53558   4.443  10.040   5.626  0.1929 -0.5871 -1.2235
  406MOL0     H53559   4.369   9.936   5.743  2.2983 -1.8340  0.4120
  406MOL0     H53560   4.275   9.894   5.454 -1.8934 -2.6742  0.1767
  406MOL0     H53561   4.257  10.060   5.500  0.6093  1.2180  3.4603
  406MOL0     H53562   4.165   9.823   5.654  1.6502  0.3691 -0.6896
  406MOL0     H53563   4.050   9.888   5.549 -0.7167 -0.5408  1.0766
  406MOL0     H53564   4.155  10.006   5.816  1.3510  0.6327 -1.6049
  406MOL0     H53565   4.095  10.112   5.694  2.1440  0.6717  1.1387
  406MOL0     H53566   3.939   9.859   5.793  0.5879 -1.0106 -3.3074
  406MOL0     H53567   3.887   9.992   5.678 -0.0600  3.6521  2.0829
  406MOL0     H53568   3.941  10.157   5.869  0.9893 -0.1528  0.7096
  406MOL0     H53569   3.969  10.012   5.964 -3.0442 -4.8698 -0.3956
  406MOL0     H53570   3.697  10.048   5.834  1.2614 -2.6921 -0.9277
  406MOL0     H53571   3.741   9.937   5.957  0.6538 -0.4107  0.4157
  406MOL0     H53572   3.775  10.237   5.986 -0.0857 -1.1142  0.4780
  406MOL0     H53573   3.782  10.112   6.122  0.0574 -1.2322  0.4761
  406MOL0     H53574   4.626   9.781   5.405  0.1083 -1.7118  0.2182
  406MOL0     H53575   4.880   9.788   5.421  0.3762  3.3467 -0.2356
  406MOL0     H53576   5.235  10.174   5.573 -1.0140 -1.1022 -4.0463
  406MOL0     H53577   5.470  10.182   5.571  2.5726 -0.4310  0.7630
  406MOL0     H53578   5.666   9.651   6.985 -1.9957 -3.6167  1.9680
  406MOL0     H53579   5.533   9.560   7.164 -0.9608  0.0270 -0.1382
  406MOL0     H53580   5.380   9.598   7.717  0.7644  1.3833 -1.1018
  406MOL0     H53581   5.207   9.566   7.852  0.7425 -0.5327 -0.5549
  406MOL0     H53582   4.983   9.676   7.960  1.6777  0.1957 -1.8006
  406MOL0     H53583   5.033   9.509   7.981  0.1738  2.5841  1.6070
  406MOL0     H53584   4.785   9.437   7.948 -0.7457  0.9599 -1.0963
  406MOL0     H53585   4.831   9.499   8.117  0.0292  0.0408 -0.1966
  406MOL0     H53586   4.699   9.647   7.887  2.8355 -0.8604  0.1277
  406MOL0     H53587   4.733   9.719   8.044  1.2237  1.5690 -1.2468
  406MOL0     H53588   4.572   9.568   8.151  1.3613 -2.0412 -0.2810
  406MOL0     H53589   4.492   9.650   8.019 -1.9759  0.1429  3.9718
  406MOL0     H53590   4.483   9.258   7.882 -0.8679  0.1034  0.5629
  406MOL0     H53591   4.929   9.579   7.520  1.8667 -2.2040 -1.8207
  406MOL0     H53592   5.117   9.629   7.373 -2.0571 -1.3561  0.5163
  407MOL0     O53593   3.322   9.764   0.771 -0.6685 -0.0420 -0.1509
  407MOL0     C53594   3.380   9.672   0.831  0.0583  1.0394  0.2971
  407MOL0     O53595   3.318   9.566   0.893 -0.9709 -0.0401 -0.0969
  407MOL0     C53596   3.185   9.563   0.895 -0.9038  0.4650  0.3692
  407MOL0     C53597   3.117   9.463   0.825  0.1683 -0.0684  0.3853
  407MOL0     C53598   2.983   9.459   0.836  0.5315  1.1268 -0.7420
  407MOL0     C53599   2.906   9.558   0.905  0.0948  1.0096  0.1484
  407MOL0     O53600   2.769   9.544   0.899 -0.0522  0.2567 -0.9561
  407MOL0     C53601   2.727   9.479   1.013 -0.1778  0.9083  0.2255
  407MOL0     C53602   2.579   9.456   1.005  0.6347  0.4479  0.2720
  407MOL0     C53603   2.509   9.443   1.143  0.4738 -0.0878  0.3458
  407MOL0     C53604   2.544   9.300   1.189  0.5461  0.2878 -0.2953
  407MOL0     C53605   2.487   9.266   1.332 -0.7036  0.4747 -0.3890
  407MOL0     C53606   2.481   9.110   1.351 -0.5463 -0.1279 -0.1611
  407MOL0     C53607   2.332   9.067   1.351 -0.8853 -0.5522 -0.0491
  407MOL0     C53608   2.320   8.916   1.379  0.7833  0.5195 -0.6071
  407MOL0     N53609   2.177   8.881   1.378 -0.4957  1.0065  1.0036
  407MOL0     C53610   2.088   8.911   1.478 -0.2634 -0.7065 -0.0241
  407MOL0     C53611   1.979   8.842   1.443 -0.6922  0.0509 -0.2652
  407MOL0     C53612   1.856   8.839   1.530  1.1145 -0.4923 -0.4218
  407MOL0     C53613   1.733   8.904   1.467  0.0514  0.3270  0.0939
  407MOL0     C53614   1.766   9.020   1.379  0.1283 -0.3981 -0.3163
  407MOL0     C53615   1.651   9.109   1.344 -0.7883  0.3846 -0.7564
  407MOL0     O53616   1.615   9.179   1.468  0.1986  0.7284  0.1774
  407MOL0     C53617   1.481   9.175   1.514 -0.4560 -0.0389  0.1074
  407MOL0     C53618   1.400   9.057   1.519  0.2562 -0.7557 -0.3327
  407MOL0     C53619   1.272   9.064   1.573  0.5440 -0.7897  0.4370
  407MOL0     C53620   1.233   9.187   1.624  0.3692  0.3875 -1.1227
  407MOL0     C53621   1.113   9.196   1.716 -0.1737  0.7193 -0.2407
  407MOL0     O53622   1.028   9.084   1.719  0.0356 -0.7797 -0.0599
  407MOL0     C53623   0.910   9.100   1.786 -1.4392  0.6625 -0.3296
  407MOL0     C53624   0.799   9.136   1.715  0.4287  0.6954 -0.4969
  407MOL0     C53625   0.687   9.147   1.781  0.2377  0.3573 -0.9587
  407MOL0     C53626   0.675   9.151   1.921 -0.6410  0.6762  0.6197
  407MOL0     O53627   0.547   9.160   1.973 -1.2684  0.2981 -0.0253
  407MOL0     C53628   0.538   9.259   2.075  0.5457  1.2745 -0.7089
  407MOL0     C53629   0.478   9.386   2.024 -0.4030 -0.0894 -0.1086
  407MOL0     C53630   0.334   9.376   1.981 -0.1580  0.0611  1.1181
  407MOL0     C53631   0.295   9.308   1.848  0.1362 -0.0447  0.4468
  407MOL0     C53632   0.153   9.325   1.803 -0.3181  0.6915 -0.3431
  407MOL0     C53633   0.101   9.466   1.753 -0.9158  0.2961  0.7907
  407MOL0     C53634  -0.024   9.449   1.656 -0.1737 -0.4118 -0.9089
  407MOL0     C53635   0.007   9.486   1.515  0.2699  0.7945  0.0361
  407MOL0    Cl53636   0.079   9.345   1.439 -0.0841 -0.0783  0.3983
  407MOL0     C53637   0.797   9.117   1.996  0.5247 -0.1314  0.0446
  407MOL0     C53638   0.917   9.091   1.929  0.1406 -0.1738 -0.1517
  407MOL0     O53639   1.104   9.296   1.782  0.0618  0.2564  0.9753
  407MOL0     C53640   1.302   9.307   1.597  0.0323  0.4810  0.0704
  407MOL0     C53641   1.431   9.301   1.554 -0.2704  0.7570  0.6644
  407MOL0     N53642   1.999   8.769   1.326 -0.0156 -0.0478 -0.2047
  407MOL0     N53643   2.118   8.785   1.288  0.2769 -0.8463  0.3504
  407MOL0     C53644   2.974   9.661   0.966  0.4262 -0.1257  0.0318
  407MOL0     C53645   3.115   9.659   0.962 -0.3624  0.8343 -0.0166
  407MOL0     C53646   3.522   9.653   0.803  0.8571  0.0094  0.4661
  407MOL0     C53647   3.612   9.765   0.802  0.8318  0.0825  0.6643
  407MOL0     C53648   3.746   9.743   0.768  0.0130  0.0855 -0.8118
  407MOL0     C53649   3.785   9.606   0.734 -0.4422  0.6261 -0.5544
  407MOL0     O53650   3.912   9.572   0.691  0.2109  1.3356 -0.2901
  407MOL0     C53651   4.022   9.649   0.738 -0.1914 -0.1102  1.1206
  407MOL0     C53652   4.162   9.574   0.725  0.9687 -0.7298  0.3767
  407MOL0     C53653   4.177   9.487   0.845 -0.8887  0.9219 -0.2592
  407MOL0     C53654   4.095   9.363   0.812  0.1657 -0.4517  1.0370
  407MOL0     C53655   4.174   9.253   0.873 -0.5613 -0.7972 -0.0221
  407MOL0     C53656   4.238   9.167   0.932  0.4129 -0.2761 -0.0908
  407MOL0     C53657   3.694   9.502   0.739 -0.0953 -0.7053  0.8422
  407MOL0     C53658   3.559   9.519   0.772  0.0659  0.2050 -0.2139
  407MOL0     H53659   3.178   9.391   0.771  0.3807  0.2726  0.1648
  407MOL0     H53660   2.922   9.394   0.775 -1.3846  4.1838 -2.3760
  407MOL0     H53661   2.745   9.539   1.103  2.1152  0.2183  0.2720
  407MOL0     H53662   2.788   9.389   1.018  0.6297  1.1781 -2.6301
  407MOL0     H53663   2.563   9.367   0.944 -0.9000  0.2785  0.8784
  407MOL0     H53664   2.537   9.536   0.944  2.0819  0.2964 -1.0087
  407MOL0     H53665   2.404   9.466   1.127 -0.0696 -1.7336  1.3547
  407MOL0     H53666   2.557   9.517   1.208  1.1622  0.9078 -1.2372
  407MOL0     H53667   2.485   9.240   1.120  1.3169 -0.3877 -0.3777
  407MOL0     H53668   2.652   9.288   1.179  0.5312  0.2319 -0.3901
  407MOL0     H53669   2.384   9.302   1.346 -1.0279 -0.0250 -1.3567
  407MOL0     H53670   2.557   9.315   1.399  1.2089 -1.8132 -0.5628
  407MOL0     H53671   2.528   9.084   1.447  1.2967  1.7116 -0.4942
  407MOL0     H53672   2.531   9.052   1.273 -0.1495  0.1310 -0.1059
  407MOL0     H53673   2.276   9.116   1.432 -1.8602 -0.7249 -0.5969
  407MOL0     H53674   2.297   9.078   1.248 -0.5671 -3.8851 -0.6230
  407MOL0     H53675   2.359   8.894   1.479  2.6700 -1.8124 -1.7359
  407MOL0     H53676   2.371   8.856   1.303  3.0982 -1.3650  2.2049
  407MOL0     H53677   2.095   8.971   1.569 -0.8977 -1.6845  0.6961
  407MOL0     H53678   1.876   8.882   1.629  2.6006 -3.4783  0.6930
  407MOL0     H53679   1.842   8.735   1.559 -1.9560 -0.1777 -0.4749
  407MOL0     H53680   1.666   8.934   1.548 -1.3193 -1.5122 -0.2731
  407MOL0     H53681   1.670   8.832   1.414 -0.3400  2.7466 -3.0074
  407MOL0     H53682   1.847   9.077   1.424 -0.7866 -0.3665  1.3691
  407MOL0     H53683   1.802   8.974   1.287 -1.7217  0.7281 -1.6834
  407MOL0     H53684   1.564   9.064   1.295 -1.3315 -0.9053  1.2573
  407MOL0     H53685   1.691   9.182   1.273  0.7728  0.1840 -0.1329
  407MOL0     H53686   1.437   8.961   1.485 -0.8876 -0.7409 -1.7458
  407MOL0     H53687   1.204   8.980   1.576 -0.6018  0.0464 -0.9011
  407MOL0     H53688   0.810   9.151   1.608  2.6173 -1.6733 -0.7071
  407MOL0     H53689   0.602   9.172   1.718  0.8819  0.8016 -1.6709
  407MOL0     H53690   0.637   9.287   2.111  1.2749  0.5767 -2.1007
  407MOL0     H53691   0.473   9.219   2.154  1.8249  2.6446  1.1388
  407MOL0     H53692   0.537   9.430   1.944  2.9904 -2.7105  0.7283
  407MOL0     H53693   0.475   9.456   2.108  0.8155 -0.2387  0.0747
  407MOL0     H53694   0.305   9.479   1.961  1.6180  0.9127  2.5533
  407MOL0     H53695   0.270   9.342   2.063 -3.1351  0.3005 -0.9289
  407MOL0     H53696   0.367   9.350   1.775 -1.1239  2.6899  0.6460
  407MOL0     H53697   0.314   9.201   1.863 -1.8671 -0.4446  0.3682
  407MOL0     H53698   0.072   9.300   1.872 -3.0093  3.0714 -2.3547
  407MOL0     H53699   0.147   9.247   1.727 -0.8029 -2.1984  2.4769
  407MOL0     H53700   0.179   9.524   1.702 -0.4824 -1.5453 -0.7257
  407MOL0     H53701   0.082   9.520   1.846  3.7367  3.1943  0.3902
  407MOL0     H53702  -0.070   9.350   1.661  0.7544 -0.8193  0.0295
  407MOL0     H53703  -0.094   9.522   1.698  2.1499  1.1159  0.5976
  407MOL0     H53704   0.086   9.560   1.527  1.5558 -1.0113  4.4911
  407MOL0     H53705  -0.077   9.532   1.462 -1.2592 -0.3139  1.4147
  407MOL0     H53706   0.801   9.117   2.105  2.8772  1.1083  0.0033
  407MOL0     H53707   1.005   9.070   1.989 -0.1050  2.4750  1.2884
  407MOL0     H53708   1.275   9.405   1.635  0.1142  0.4891  0.1078
  407MOL0     H53709   1.499   9.384   1.550 -1.5986  1.8430 -0.0989
  407MOL0     H53710   2.932   9.743   1.024  1.5887  0.9386 -0.5763
  407MOL0     H53711   3.174   9.727   1.024  1.4086 -2.1897  1.8569
  407MOL0     H53712   3.563   9.854   0.840 -1.3066 -0.0306 -1.5584
  407MOL0     H53713   3.817   9.825   0.771  0.3912 -0.2662  0.8919
  407MOL0     H53714   3.998   9.676   0.842  0.6808 -1.8065  1.7915
  407MOL0     H53715   4.024   9.739   0.676  2.1976 -0.7612  0.1491
  407MOL0     H53716   4.168   9.524   0.628  3.1338 -0.9544  0.5802
  407MOL0     H53717   4.241   9.650   0.719  0.8991 -0.5860  1.1880
  407MOL0     H53718   4.153   9.537   0.939 -3.9966 -2.3369  0.9442
  407MOL0     H53719   4.283   9.460   0.851 -0.6162  1.6321 -1.5487
  407MOL0     H53720   3.996   9.382   0.855 -0.8887  0.5656 -1.6545
  407MOL0     H53721   4.085   9.325   0.710  2.9733 -1.1367  0.9434
  407MOL0     H53722   4.284   9.079   0.972 -0.3632 -0.6095  0.1031
  407MOL0     H53723   3.729   9.401   0.720  0.4816 -0.0294 -2.3828
  407MOL0     H53724   3.488   9.437   0.778 -0.5380  0.6279 -1.3405
  408MOL0     O53725   5.671   0.213   6.946  0.0817  0.1192  0.1518
  408MOL0     C53726   5.743   0.120   6.995  0.3662 -0.6318  0.4145
  408MOL0     O53727   5.836   0.054   6.928 -0.4214 -0.6776  0.5488
  408MOL0     C53728   5.839   0.049   6.794 -0.5037  0.5645 -0.0907
  408MOL0     C53729   5.805  -0.079   6.742 -0.4178 -0.3686 -0.4096
  408MOL0     C53730   5.838  -0.096   6.606  0.1369  0.9472  0.1496
  408MOL0     C53731   5.898  -0.006   6.522  0.0497 -1.1188 -0.3309
  408MOL0     O53732   5.957  -0.022   6.396 -0.1383  0.6741  0.0655
  408MOL0     C53733   6.004  -0.149   6.347 -0.3867  0.4728 -0.3330
  408MOL0     C53734   6.154  -0.128   6.312 -0.2067  0.2927  0.6837
  408MOL0     C53735   6.171  -0.035   6.192  0.4915  0.6749 -0.5052
  408MOL0     C53736   6.320  -0.024   6.141 -0.0949 -0.7046 -0.0412
  408MOL0     C53737   6.323   0.063   6.016 -0.2586  0.5045 -0.6294
  408MOL0     C53738   6.242   0.193   6.032 -0.2623 -0.9500  1.7984
  408MOL0     C53739   6.272   0.293   5.916 -1.3760 -0.4862 -0.1813
  408MOL0     C53740   6.223   0.428   5.951  0.5023 -0.8767 -0.7735
  408MOL0     N53741   6.223   0.510   5.827  0.2395 -0.3255 -0.2640
  408MOL0     C53742   6.335   0.541   5.758  0.8890 -0.2345  0.4569
  408MOL0     C53743   6.285   0.614   5.649 -0.0947 -0.1397 -0.1595
  408MOL0     C53744   6.384   0.669   5.540 -0.4116  0.4917 -0.0870
  408MOL0     C53745   6.432   0.816   5.562 -0.1038 -0.2515  0.6742
  408MOL0     C53746   6.323   0.926   5.546  0.5855  0.5975  0.2854
  408MOL0     C53747   6.299   0.972   5.409 -0.6117 -0.1444  0.2722
  408MOL0     O53748   6.429   1.009   5.341 -0.1863 -0.3781 -0.0679
  408MOL0     C53749   6.491   1.127   5.377  0.5023 -0.0985  0.7308
  408MOL0     C53750   6.627   1.121   5.412 -0.0053 -0.7189 -1.0434
  408MOL0     C53751   6.686   1.241   5.444  0.4499 -0.0651 -1.0283
  408MOL0     C53752   6.627   1.368   5.440  0.6103 -0.9370 -1.3787
  408MOL0     C53753   6.701   1.491   5.476 -1.0109 -0.4959  0.0944
  408MOL0     O53754   6.819   1.475   5.541 -0.8762 -0.2250  0.6354
  408MOL0     C53755   6.878   1.590   5.575 -0.7958 -0.9545  1.1056
  408MOL0     C53756   6.976   1.645   5.485  0.7720 -0.1702 -0.2588
  408MOL0     C53757   7.030   1.774   5.518  0.6946 -0.0192  0.3439
  408MOL0     C53758   6.980   1.842   5.631  0.7766  0.1193  0.5505
  408MOL0     O53759   7.019   1.966   5.670 -0.3449  0.5089  0.3316
  408MOL0     C53760   7.144   2.017   5.637  0.4214 -0.6619  0.4185
  408MOL0     C53761   7.266   1.936   5.686 -0.2388 -0.3672 -0.5298
  408MOL0     C53762   7.275   1.942   5.839 -0.9116  0.0023 -0.1025
  408MOL0     C53763   7.362   1.825   5.890  0.0534  0.5629 -0.0460
  408MOL0     C53764   7.403   1.836   6.033  0.6694  0.4929 -0.5502
  408MOL0     C53765   7.520   1.748   6.080 -0.3195  0.0843  0.5337
  408MOL0     C53766   7.552   1.776   6.222 -0.1429  1.2161  0.0930
  408MOL0     C53767   7.683   1.718   6.288  0.2163  0.7116  0.5935
  408MOL0    Cl53768   7.692   1.768   6.466  0.2369 -0.0464  0.0039
  408MOL0     C53769   6.876   1.785   5.711 -0.3751 -0.1954 -0.0725
  408MOL0     C53770   6.835   1.661   5.685 -0.1777  0.3557 -0.2606
  408MOL0     O53771   6.647   1.596   5.436 -0.5552 -0.4608  0.5800
  408MOL0     C53772   6.495   1.374   5.406  0.0760  1.4713  0.2285
  408MOL0     C53773   6.422   1.252   5.376  0.6448 -0.3984  0.2855
  408MOL0     N53774   6.150   0.627   5.664 -0.3128  0.1472  0.2248
  408MOL0     N53775   6.112   0.557   5.766  0.6777  0.9129  0.5884
  408MOL0     C53776   5.924   0.118   6.583  0.7303  0.0023 -0.0178
  408MOL0     C53777   5.893   0.153   6.718 -0.4586  0.0518  1.1333
  408MOL0     C53778   5.727   0.081   7.130  0.4286 -0.2214  0.8399
  408MOL0     C53779   5.780  -0.037   7.189 -0.0658 -0.3851 -0.0929
  408MOL0     C53780   5.757  -0.075   7.319  0.7627  0.3489 -0.4434
  408MOL0     C53781   5.671   0.004   7.399  0.4502 -1.1076  0.1460
  408MOL0     O53782   5.644  -0.038   7.525 -0.2099  0.2416  0.2463
  408MOL0     C53783   5.560   0.042   7.602 -0.1746 -0.2629 -0.3503
  408MOL0     C53784   5.544  -0.026   7.739  0.1378  0.4756 -0.4399
  408MOL0     C53785   5.658   0.009   7.841  0.5191  1.0023 -0.1253
  408MOL0     C53786   5.702  -0.124   7.908 -0.1365 -1.1806  0.8001
  408MOL0     C53787   5.819  -0.113   7.989  0.3619  0.5569  0.2518
  408MOL0     C53788   5.925  -0.110   8.047  0.7284  0.0563  0.4808
  408MOL0     C53789   5.622   0.131   7.347 -0.4405 -0.4151 -0.1283
  408MOL0     C53790   5.644   0.166   7.209  0.0323 -0.2387  0.1844
  408MOL0     H53791   5.760  -0.154   6.807 -0.3443  0.7584  1.0018
  408MOL0     H53792   5.821  -0.195   6.565  1.6080  0.3221  0.9490
  408MOL0     H53793   5.946  -0.174   6.258 -0.6632  1.9351 -0.5822
  408MOL0     H53794   5.994  -0.227   6.423  2.5117  1.2597  1.0061
  408MOL0     H53795   6.204  -0.222   6.287  3.1045  2.4195 -1.4364
  408MOL0     H53796   6.212  -0.087   6.395 -0.1562  1.2166  0.2042
  408MOL0     H53797   6.134   0.064   6.222  3.3585  1.3181  1.2564
  408MOL0     H53798   6.109  -0.077   6.112  2.7845 -0.6168 -1.7122
  408MOL0     H53799   6.382   0.020   6.219  0.3885 -2.4006  0.5814
  408MOL0     H53800   6.358  -0.123   6.114 -1.8875 -1.7337  0.9867
  408MOL0     H53801   6.275   0.002   5.938 -3.8476  0.6437  1.2432
  408MOL0     H53802   6.426   0.086   5.989 -0.0148 -0.3201 -0.4409
  408MOL0     H53803   6.263   0.236   6.130 -0.2711 -2.9219  2.7148
  408MOL0     H53804   6.135   0.181   6.013  0.1570 -1.0907 -0.9910
  408MOL0     H53805   6.380   0.303   5.900 -1.0790  0.5042  2.0707
  408MOL0     H53806   6.236   0.256   5.820  1.8741  2.3745 -2.7794
  408MOL0     H53807   6.290   0.481   6.019  1.1268 -0.6298 -1.5656
  408MOL0     H53808   6.127   0.420   6.004  0.7811  1.5240  0.2068
  408MOL0     H53809   6.436   0.513   5.784  1.3848  0.3180 -0.8051
  408MOL0     H53810   6.327   0.663   5.447 -2.1554 -0.7109  1.0127
  408MOL0     H53811   6.475   0.609   5.534 -0.6964  0.0408  0.0995
  408MOL0     H53812   6.521   0.841   5.503 -1.0552  0.4581 -0.4992
  408MOL0     H53813   6.467   0.819   5.666 -0.2131 -2.2436  0.8018
  408MOL0     H53814   6.231   0.891   5.594 -1.3267  1.4958 -2.4603
  408MOL0     H53815   6.363   1.012   5.600  0.6235  0.3212  0.7010
  408MOL0     H53816   6.234   1.060   5.412 -2.1765 -1.2560  3.5284
  408MOL0     H53817   6.244   0.888   5.366 -0.8982 -0.1688  0.6790
  408MOL0     H53818   6.692   1.035   5.413  0.5553 -0.3061 -1.4933
  408MOL0     H53819   6.786   1.232   5.486 -0.3486 -1.9039  0.6565
  408MOL0     H53820   7.016   1.588   5.402 -0.5177  4.3159 -4.4826
  408MOL0     H53821   7.110   1.817   5.458 -0.4932  1.5107 -0.2439
  408MOL0     H53822   7.155   2.120   5.674 -0.9925 -0.3871  0.1454
  408MOL0     H53823   7.134   2.025   5.528 -1.4359  2.2130  0.6759
  408MOL0     H53824   7.346   1.973   5.623 -2.1153  1.6361 -1.8773
  408MOL0     H53825   7.239   1.830   5.672 -1.3826  0.1097 -2.2913
  408MOL0     H53826   7.178   1.923   5.886 -0.5917 -1.1826  0.1161
  408MOL0     H53827   7.321   2.037   5.867 -0.2039 -0.8048  1.6021
  408MOL0     H53828   7.302   1.735   5.874 -1.7111  1.9652 -2.0481
  408MOL0     H53829   7.445   1.803   5.822 -1.9710 -1.0788 -2.1640
  408MOL0     H53830   7.313   1.817   6.092  0.9106  0.7234 -0.1030
  408MOL0     H53831   7.429   1.942   6.040 -1.9048  1.1673 -0.3980
  408MOL0     H53832   7.613   1.776   6.030 -0.8016 -1.3892 -1.3315
  408MOL0     H53833   7.501   1.644   6.053 -3.6797  0.5659  0.6295
  408MOL0     H53834   7.558   1.883   6.246  3.5503  1.0956  0.2374
  408MOL0     H53835   7.467   1.739   6.280 -1.2985  2.4411 -0.7730
  408MOL0     H53836   7.766   1.764   6.235 -1.4141 -0.0860 -2.9111
  408MOL0     H53837   7.696   1.610   6.280 -1.6215  0.5992 -2.4807
  408MOL0     H53838   6.822   1.838   5.789 -2.7013 -0.2875 -1.5296
  408MOL0     H53839   6.755   1.618   5.743  0.6226  2.2447  2.4830
  408MOL0     H53840   6.437   1.465   5.399 -3.8632 -0.2017  5.1257
  408MOL0     H53841   6.317   1.262   5.350  1.1670  1.9920 -1.2397
  408MOL0     H53842   5.977   0.192   6.524  1.9490 -0.5037  0.4089
  408MOL0     H53843   5.940   0.230   6.778  3.9542 -2.4022  1.2428
  408MOL0     H53844   5.830  -0.103   7.119  0.8042 -0.9214  1.0143
  408MOL0     H53845   5.815  -0.154   7.366  0.8474  2.9727  4.4995
  408MOL0     H53846   5.465   0.039   7.548  0.7337  1.3874 -2.1466
  408MOL0     H53847   5.593   0.146   7.609 -1.7623  0.1737  1.4795
  408MOL0     H53848   5.448   0.003   7.783  0.5097 -0.2051  0.8721
  408MOL0     H53849   5.546  -0.134   7.723 -2.5569 -0.3241  3.2514
  408MOL0     H53850   5.610   0.065   7.921 -0.9067  0.5094 -0.6025
  408MOL0     H53851   5.739   0.068   7.797 -0.5719  2.8179  0.2138
  408MOL0     H53852   5.617  -0.157   7.968 -0.7997 -1.6493 -0.3500
  408MOL0     H53853   5.726  -0.204   7.837 -1.1421  0.1390 -1.1332
  408MOL0     H53854   6.018  -0.100   8.099 -0.3410  0.4535  2.3972
  408MOL0     H53855   5.566   0.194   7.417 -0.8779  0.1539 -0.9733
  408MOL0     H53856   5.610   0.265   7.179 -2.0505 -0.3875  1.8183
  409MOL0     O53857   4.383   7.413  10.089  0.9956  0.2696 -0.0912
  409MOL0     C53858   4.405   7.292  10.074  0.4442 -0.0414  0.0169
  409MOL0     O53859   4.511   7.244  10.004 -0.0140  0.1295 -0.2763
  409MOL0     C53860   4.606   7.333   9.955  0.5178  0.5153  1.1315
  409MOL0     C53861   4.695   7.397  10.041  0.2530 -0.6565  0.1067
  409MOL0     C53862   4.777   7.494   9.997 -0.0045 -1.3997  0.4553
  409MOL0     C53863   4.780   7.530   9.868  0.3078 -0.1097  0.5908
  409MOL0     O53864   4.861   7.630   9.818 -0.7011 -0.4365  0.3875
  409MOL0     C53865   4.994   7.596   9.765 -0.0661 -0.0860 -0.0218
  409MOL0     C53866   4.970   7.580   9.615 -0.4550  1.0224  0.3274
  409MOL0     C53867   5.088   7.622   9.533 -0.2769 -0.6048  0.5342
  409MOL0     C53868   5.062   7.616   9.375 -0.8526  0.0525  0.0238
  409MOL0     C53869   5.184   7.619   9.272  0.2901  0.0494 -0.5269
  409MOL0     C53870   5.159   7.666   9.127 -0.4986  0.3785  0.1994
  409MOL0     C53871   5.126   7.808   9.117 -0.2298  0.1125  0.5427
  409MOL0     C53872   5.140   7.851   8.966  0.2434  0.4560  0.2793
  409MOL0     N53873   5.121   7.998   8.956  0.0331  0.4992  0.0802
  409MOL0     C53874   5.166   8.096   9.046  0.5454 -0.2444  0.5921
  409MOL0     C53875   5.146   8.208   8.977 -0.8634  0.5432  0.8686
  409MOL0     C53876   5.191   8.336   9.034 -0.3592  0.3794  0.0766
  409MOL0     C53877   5.128   8.362   9.174  0.7051  0.0956  0.5869
  409MOL0     C53878   5.181   8.485   9.247  0.3141  0.0949  0.9033
  409MOL0     C53879   5.083   8.540   9.352  0.3173  0.3844 -0.4814
  409MOL0     O53880   5.094   8.444   9.456  0.3060  0.6968  0.3499
  409MOL0     C53881   5.004   8.452   9.560 -0.0741 -0.5561  0.7247
  409MOL0     C53882   4.886   8.526   9.572  1.0984 -0.0951  0.0492
  409MOL0     C53883   4.792   8.527   9.678 -0.5371 -0.0709 -0.3633
  409MOL0     C53884   4.815   8.425   9.779 -0.1624 -0.9090  0.5187
  409MOL0     C53885   4.715   8.405   9.886 -0.2186 -0.3385  0.0260
  409MOL0     O53886   4.744   8.322   9.999  0.0465  0.5398  0.0151
  409MOL0     C53887   4.644   8.277  10.094 -0.4881 -0.4477 -0.2155
  409MOL0     C53888   4.700   8.186  10.187  0.4793 -0.4629 -0.0961
  409MOL0     C53889   4.623   8.141  10.290 -0.8585 -0.4352  1.1048
  409MOL0     C53890   4.488   8.164  10.296  0.7346  0.3711 -0.2629
  409MOL0     O53891   4.410   8.107  10.397 -0.0883 -0.1082 -0.1460
  409MOL0     C53892   4.447   7.972  10.429 -0.1996  0.3110 -0.8138
  409MOL0     C53893   4.330   7.915  10.520 -0.1923  0.5501  1.1162
  409MOL0     C53894   4.349   7.970  10.662 -0.7472  0.7538 -0.1641
  409MOL0     C53895   4.305   7.876  10.774  0.0232  0.1746 -0.8633
  409MOL0     C53896   4.151   7.868  10.806 -0.5280 -1.1007 -0.0247
  409MOL0     C53897   4.104   7.766  10.907 -0.1850 -0.4807 -0.1675
  409MOL0     C53898   3.953   7.747  10.911 -0.6096 -0.3013  0.4073
  409MOL0     C53899   3.904   7.671  11.037 -0.3544  0.0609 -0.5881
  409MOL0    Cl53900   3.735   7.619  11.035  0.1547 -0.1797  0.2624
  409MOL0     C53901   4.432   8.247  10.201 -1.9049  0.2391 -0.7621
  409MOL0     C53902   4.516   8.317  10.117  0.6311 -0.8380 -0.2425
  409MOL0     O53903   4.604   8.454   9.860 -0.2680  0.0739 -0.0139
  409MOL0     C53904   4.927   8.338   9.764 -0.1048  0.7506  0.3823
  409MOL0     C53905   5.014   8.355   9.656 -1.6019  0.2167 -0.0886
  409MOL0     N53906   5.088   8.183   8.856 -0.1219 -0.6813  0.0092
  409MOL0     N53907   5.071   8.053   8.849 -0.4044  0.2601  0.2627
  409MOL0     C53908   4.692   7.468   9.778  0.5452  1.0147  0.7952
  409MOL0     C53909   4.605   7.372   9.820  0.0645  0.5776 -0.0416
  409MOL0     C53910   4.322   7.193  10.143  0.9064 -0.7567  0.3100
  409MOL0     C53911   4.376   7.069  10.190 -0.1715  0.4986  1.1750
  409MOL0     C53912   4.292   6.978  10.253  0.3017 -0.8603  0.6193
  409MOL0     C53913   4.155   7.005  10.285 -1.0765 -1.1786  0.6561
  409MOL0     O53914   4.053   6.931  10.338  1.0720  0.1901 -0.2659
  409MOL0     C53915   4.087   6.809  10.416  0.5373 -0.8603 -0.4455
  409MOL0     C53916   3.985   6.778  10.521  0.3462 -0.3846 -0.0039
  409MOL0     C53917   3.844   6.759  10.469  0.7738  1.0718  0.3620
  409MOL0     C53918   3.755   6.692  10.577  0.1258  0.7241 -0.1826
  409MOL0     C53919   3.616   6.673  10.533  0.4556 -0.9432 -0.7917
  409MOL0     C53920   3.494   6.691  10.503 -1.8003  0.2115 -0.5236
  409MOL0     C53921   4.108   7.132  10.248  0.0735  0.1842 -0.5643
  409MOL0     C53922   4.181   7.223  10.179 -0.0631 -0.0085  0.8840
  409MOL0     H53923   4.701   7.368  10.146 -1.0793 -0.7520  0.1837
  409MOL0     H53924   4.840   7.535  10.075 -1.3765 -0.0822  0.9362
  409MOL0     H53925   5.028   7.506   9.817 -0.5107 -1.3718 -1.8295
  409MOL0     H53926   5.060   7.677   9.796  1.1035 -1.2609  0.6384
  409MOL0     H53927   4.877   7.635   9.596 -2.2135 -2.0931 -0.9316
  409MOL0     H53928   4.949   7.475   9.591  1.3998  0.2277  1.9079
  409MOL0     H53929   5.169   7.552   9.555  0.3402  0.1238  0.5961
  409MOL0     H53930   5.130   7.717   9.568  1.5174 -0.4792 -1.7518
  409MOL0     H53931   5.003   7.529   9.347 -0.5063  0.1041 -0.9077
  409MOL0     H53932   4.999   7.704   9.360  0.1011  1.0102  1.3795
  409MOL0     H53933   5.226   7.518   9.270  0.2449 -0.0645  1.6491
  409MOL0     H53934   5.261   7.682   9.318 -2.6977  1.6188  2.7765
  409MOL0     H53935   5.072   7.609   9.090 -0.5489 -2.4186  3.9673
  409MOL0     H53936   5.249   7.642   9.071 -1.8104 -4.7632 -0.2597
  409MOL0     H53937   5.025   7.833   9.150  0.3784 -0.9517  3.5225
  409MOL0     H53938   5.195   7.866   9.180  0.8600 -3.5768  3.0730
  409MOL0     H53939   5.072   7.793   8.903 -0.3141 -0.8318  1.9684
  409MOL0     H53940   5.239   7.828   8.924 -0.3355 -0.2878 -0.7282
  409MOL0     H53941   5.205   8.081   9.146  0.1105  2.0390  1.1549
  409MOL0     H53942   5.166   8.418   8.966  4.5856  0.6646 -1.7652
  409MOL0     H53943   5.299   8.334   9.049 -0.7032 -1.5962  3.2328
  409MOL0     H53944   5.131   8.265   9.224  0.6001  0.6799  1.7641
  409MOL0     H53945   5.024   8.384   9.147  1.2759  1.1317 -0.8894
  409MOL0     H53946   5.271   8.447   9.297 -0.5658 -1.6304  1.2716
  409MOL0     H53947   5.199   8.565   9.176 -1.4250  2.2671  2.7475
  409MOL0     H53948   4.983   8.554   9.310 -1.7446 -0.3161  3.6602
  409MOL0     H53949   5.126   8.636   9.383  0.7395  0.0636 -0.0554
  409MOL0     H53950   4.875   8.596   9.490  0.5993  1.5824  1.4762
  409MOL0     H53951   4.707   8.593   9.674  1.6412  3.0831  1.0623
  409MOL0     H53952   4.800   8.161  10.153 -0.6879 -2.0675 -2.6326
  409MOL0     H53953   4.676   8.081  10.362 -0.7128  0.5128  1.8028
  409MOL0     H53954   4.538   7.952  10.486 -0.3536  0.1755 -0.6149
  409MOL0     H53955   4.444   7.910  10.339  0.4257 -1.2295  0.1994
  409MOL0     H53956   4.334   7.806  10.520 -5.0155  0.1874  0.3946
  409MOL0     H53957   4.232   7.937  10.477  0.1395  0.7703  0.4579
  409MOL0     H53958   4.284   8.059  10.666 -0.4329  0.9661  0.3480
  409MOL0     H53959   4.455   7.989  10.682 -0.8756 -0.5786  1.9709
  409MOL0     H53960   4.333   7.773  10.750 -0.2923  0.4032 -2.3293
  409MOL0     H53961   4.353   7.898  10.870 -2.8986 -0.9251  1.0032
  409MOL0     H53962   4.095   7.863  10.712 -1.4024  0.1734  0.4083
  409MOL0     H53963   4.132   7.963  10.856  0.7166 -1.6352  1.5245
  409MOL0     H53964   4.142   7.804  11.002  0.7833  1.0682 -1.1410
  409MOL0     H53965   4.145   7.669  10.875  1.4630  0.6361 -1.6121
  409MOL0     H53966   3.898   7.841  10.902 -1.2760 -0.6012  1.2109
  409MOL0     H53967   3.924   7.692  10.821  1.8241 -0.5900 -0.2771
  409MOL0     H53968   3.915   7.743  11.118 -1.4157  4.0240 -3.5899
  409MOL0     H53969   3.958   7.577  11.051  0.5364  0.7510  0.7305
  409MOL0     H53970   4.331   8.284  10.196 -1.8004  0.4452 -1.4729
  409MOL0     H53971   4.468   8.398  10.062  1.1065 -0.0016  0.5437
  409MOL0     H53972   4.941   8.256   9.833 -0.4946 -1.1543 -1.7098
  409MOL0     H53973   5.097   8.290   9.629 -1.4957 -0.0633  0.8919
  409MOL0     H53974   4.678   7.495   9.674 -2.0099  0.2008  0.8687
  409MOL0     H53975   4.525   7.322   9.768 -0.1374  0.6001  0.2430
  409MOL0     H53976   4.479   7.036  10.177 -1.3802 -2.2121 -4.4709
  409MOL0     H53977   4.339   6.889  10.294  0.6129 -0.7405  0.5238
  409MOL0     H53978   4.183   6.836  10.461 -1.1451  2.1874  1.6776
  409MOL0     H53979   4.094   6.720  10.352  0.5524 -0.9350 -0.3415
  409MOL0     H53980   4.013   6.681  10.564  1.9759  1.3336  3.2290
  409MOL0     H53981   3.992   6.854  10.599  2.1228  2.3164 -2.5683
  409MOL0     H53982   3.842   6.696  10.380  1.9247  0.3376  0.8328
  409MOL0     H53983   3.800   6.856  10.445  0.8364  0.7926 -0.9494
  409MOL0     H53984   3.799   6.593  10.591  1.2219  0.9396 -1.8352
  409MOL0     H53985   3.773   6.750  10.668  2.6099 -1.6090  0.9371
  409MOL0     H53986   3.396   6.702  10.462 -1.8664 -1.5720 -0.9116
  409MOL0     H53987   4.006   7.156  10.279  0.2450  1.8701 -1.2174
  409MOL0     H53988   4.151   7.325  10.160  2.8667  0.8058  0.1640
  410MOL0     O53989   5.368   8.040   2.370 -0.1435 -0.1486  0.4537
  410MOL0     C53990   5.313   7.992   2.469  0.3154 -0.3884  0.0923
  410MOL0     O53991   5.280   7.867   2.494  0.4104  0.4454  0.1203
  410MOL0     C53992   5.283   7.768   2.406  0.7832 -0.4670  0.6428
  410MOL0     C53993   5.278   7.637   2.461  0.6155 -0.4490 -0.3914
  410MOL0     C53994   5.277   7.524   2.378 -0.2143  0.3183  0.2705
  410MOL0     C53995   5.285   7.528   2.239 -0.3480 -0.0285 -0.2752
  410MOL0     O53996   5.253   7.428   2.150 -0.2115 -0.0642 -0.1065
  410MOL0     C53997   5.229   7.290   2.192  0.9569 -0.1778 -1.1594
  410MOL0     C53998   5.099   7.292   2.278  0.0649  0.3407 -1.1932
  410MOL0     C53999   5.104   7.198   2.402 -0.0054  0.7643 -0.4333
  410MOL0     C54000   4.971   7.205   2.469 -0.1918  0.3762 -1.1968
  410MOL0     C54001   4.972   7.316   2.582  0.0300  0.2426 -0.3117
  410MOL0     C54002   4.830   7.333   2.640  0.9295  0.7207 -0.2859
  410MOL0     C54003   4.809   7.467   2.715  1.1639 -0.3759 -0.6417
  410MOL0     C54004   4.663   7.462   2.778 -0.6460 -0.2752 -0.9804
  410MOL0     N54005   4.623   7.592   2.842  1.1072  0.9223  0.4117
  410MOL0     C54006   4.487   7.613   2.839  0.3479 -0.0915  0.1218
  410MOL0     C54007   4.467   7.714   2.922 -1.4403  0.5889 -0.3234
  410MOL0     C54008   4.339   7.785   2.961 -0.3195 -0.0143 -0.1677
  410MOL0     C54009   4.212   7.782   2.866 -0.9613 -0.2184 -1.0058
  410MOL0     C54010   4.239   7.864   2.739 -0.0874  0.0726  0.2131
  410MOL0     C54011   4.101   7.896   2.660  0.1351 -0.1295  0.0685
  410MOL0     O54012   4.020   7.776   2.628  0.6696  0.2500 -0.3976
  410MOL0     C54013   3.887   7.782   2.629  0.2203  0.7357 -0.1835
  410MOL0     C54014   3.806   7.900   2.612  0.5128  0.2140  0.2085
  410MOL0     C54015   3.667   7.881   2.601  0.0543 -0.3198  0.0615
  410MOL0     C54016   3.602   7.756   2.610 -0.0963  0.0919  0.3212
  410MOL0     C54017   3.454   7.724   2.585 -0.6626 -0.8063  0.0057
  410MOL0     O54018   3.417   7.603   2.526 -0.2528  0.5516  0.0362
  410MOL0     C54019   3.293   7.575   2.492  0.1207  0.2232 -0.5800
  410MOL0     C54020   3.213   7.506   2.580 -0.9327  0.8966  0.0531
  410MOL0     C54021   3.082   7.480   2.540 -0.0515 -0.0670 -0.1714
  410MOL0     C54022   3.023   7.525   2.421  1.2076 -0.4297  0.1240
  410MOL0     O54023   2.889   7.507   2.401  0.1455 -0.1364  0.7043
  410MOL0     C54024   2.858   7.376   2.378  0.9929 -0.5021  0.6309
  410MOL0     C54025   2.773   7.357   2.262 -0.1920  0.9364  0.1203
  410MOL0     C54026   2.626   7.357   2.296  0.1614  0.9009  0.7682
  410MOL0     C54027   2.559   7.306   2.168  0.3379  0.7104  0.8945
  410MOL0     C54028   2.402   7.346   2.166  0.3297 -0.1137  0.0908
  410MOL0     C54029   2.378   7.495   2.151  0.1265 -0.8038 -0.0878
  410MOL0     C54030   2.422   7.536   2.014 -0.6929 -0.8459  0.0527
  410MOL0     C54031   2.384   7.677   1.966  0.5051 -0.0983  0.2653
  410MOL0    Cl54032   2.211   7.714   1.990  0.1338 -0.0780  0.3413
  410MOL0     C54033   3.100   7.590   2.329 -0.6349  0.3008 -0.0779
  410MOL0     C54034   3.237   7.613   2.363  0.0888 -0.1034 -0.4467
  410MOL0     O54035   3.379   7.821   2.607 -0.2516 -0.0754 -0.0486
  410MOL0     C54036   3.688   7.645   2.618 -0.2788 -1.0768  0.7360
  410MOL0     C54037   3.828   7.659   2.627  0.3147 -0.0866 -0.3504
  410MOL0     N54038   4.588   7.748   2.978 -0.7024  0.4692 -0.5073
  410MOL0     N54039   4.677   7.672   2.935 -0.4544  0.0152  0.1069
  410MOL0     C54040   5.289   7.662   2.191  0.8156  0.9902  0.4530
  410MOL0     C54041   5.283   7.779   2.268  0.3149 -0.1596  0.6217
  410MOL0     C54042   5.285   8.082   2.580 -0.7504  0.9249  0.4369
  410MOL0     C54043   5.232   8.210   2.551 -0.6061  0.7130  0.4170
  410MOL0     C54044   5.198   8.291   2.662  0.3897  0.1324 -0.6794
  410MOL0     C54045   5.231   8.258   2.797 -0.1759 -0.0221  0.0589
  410MOL0     O54046   5.199   8.341   2.906 -0.6328 -0.7989 -0.7223
  410MOL0     C54047   5.250   8.317   3.040  0.3684  0.4010 -0.0724
  410MOL0     C54048   5.224   8.435   3.133  0.1174  0.5446 -0.7551
  410MOL0     C54049   5.258   8.404   3.277  0.4065  0.4793  0.8215
  410MOL0     C54050   5.227   8.533   3.356  0.4929 -1.3030  0.3223
  410MOL0     C54051   5.297   8.520   3.479 -0.0671 -0.0946 -0.4113
  410MOL0     C54052   5.353   8.520   3.591 -0.8077  0.3632  0.1444
  410MOL0     C54053   5.297   8.131   2.812 -0.5171 -0.8844  0.6236
  410MOL0     C54054   5.318   8.044   2.713  0.7155 -0.1835  0.5016
  410MOL0     H54055   5.281   7.629   2.569  2.9217 -1.1773 -0.4561
  410MOL0     H54056   5.256   7.431   2.431  1.0913 -1.2971 -1.8849
  410MOL0     H54057   5.308   7.258   2.260 -1.3193 -0.5251  1.5129
  410MOL0     H54058   5.213   7.224   2.106  0.3913 -0.7154 -0.6561
  410MOL0     H54059   5.018   7.266   2.209 -2.9201 -0.0541  2.1892
  410MOL0     H54060   5.072   7.395   2.302 -0.4380  0.5341 -2.4836
  410MOL0     H54061   5.186   7.224   2.470 -1.5201  5.0294  0.1151
  410MOL0     H54062   5.112   7.093   2.375 -0.6844  0.8655 -1.0552
  410MOL0     H54063   4.892   7.222   2.395 -1.1530 -1.8539 -0.7703
  410MOL0     H54064   4.949   7.104   2.506  0.0377  0.0645 -1.8992
  410MOL0     H54065   4.995   7.416   2.545 -0.2684 -0.2698 -1.9386
  410MOL0     H54066   5.043   7.276   2.655 -2.2253  1.0251  2.5173
  410MOL0     H54067   4.797   7.253   2.705  2.6605  0.2720  0.0989
  410MOL0     H54068   4.758   7.335   2.557  1.0171 -0.3998 -0.4049
  410MOL0     H54069   4.871   7.497   2.800  1.2566  1.0363 -1.1958
  410MOL0     H54070   4.806   7.544   2.638  0.6523  0.3231  0.0620
  410MOL0     H54071   4.667   7.377   2.847  1.6777  0.0187 -0.6662
  410MOL0     H54072   4.587   7.446   2.701  0.9940 -0.3707 -2.6428
  410MOL0     H54073   4.403   7.558   2.797 -0.5741  0.5750  1.0675
  410MOL0     H54074   4.362   7.892   2.971 -0.5607  0.0321 -0.0949
  410MOL0     H54075   4.306   7.743   3.056 -0.7737 -0.7214 -0.6285
  410MOL0     H54076   4.119   7.824   2.904 -0.4330  1.6168 -1.6145
  410MOL0     H54077   4.193   7.678   2.836 -3.8562 -0.4853  1.3638
  410MOL0     H54078   4.287   7.961   2.756 -1.0866  0.0877  3.5493
  410MOL0     H54079   4.310   7.807   2.678  2.0720 -0.7229  3.2472
  410MOL0     H54080   4.134   7.954   2.574  1.1866  1.7582  1.6640
  410MOL0     H54081   4.041   7.967   2.718  0.1836  1.7960 -2.1098
  410MOL0     H54082   3.856   7.996   2.599  0.8072 -0.1268 -1.4122
  410MOL0     H54083   3.609   7.967   2.569  0.3845  0.5261  1.6420
  410MOL0     H54084   3.250   7.472   2.676 -1.3316  0.8752  0.2026
  410MOL0     H54085   3.016   7.432   2.613  2.2787 -0.5921  1.7180
  410MOL0     H54086   2.803   7.344   2.468 -1.3469 -1.5868 -1.0906
  410MOL0     H54087   2.946   7.316   2.357  1.2303 -0.5863  1.7669
  410MOL0     H54088   2.787   7.259   2.215  0.7840  0.4395  1.4002
  410MOL0     H54089   2.800   7.427   2.182  1.8059 -0.8810 -0.8994
  410MOL0     H54090   2.595   7.459   2.322  1.8496  1.0787  2.2612
  410MOL0     H54091   2.600   7.290   2.378  1.2921  0.8692  1.1180
  410MOL0     H54092   2.607   7.346   2.078 -0.9697  2.4477  0.9236
  410MOL0     H54093   2.562   7.197   2.154  0.6305  0.5989  1.7824
  410MOL0     H54094   2.339   7.306   2.246 -0.8138  2.5996  0.6432
  410MOL0     H54095   2.366   7.296   2.076  1.8693  1.4360 -1.4483
  410MOL0     H54096   2.440   7.547   2.225  1.4299  0.3400 -1.9099
  410MOL0     H54097   2.272   7.510   2.176  0.1576  0.0281 -0.4190
  410MOL0     H54098   2.531   7.531   2.008 -0.5496  0.9884  0.3817
  410MOL0     H54099   2.376   7.475   1.936 -0.6682 -0.5481 -0.1993
  410MOL0     H54100   2.400   7.674   1.858  0.9951  0.6220  0.3071
  410MOL0     H54101   2.440   7.758   2.015  0.1311 -0.4105  1.2274
  410MOL0     H54102   3.051   7.635   2.243 -3.2197  0.5016  1.3870
  410MOL0     H54103   3.305   7.667   2.297 -0.9924 -0.2720 -1.7348
  410MOL0     H54104   3.650   7.543   2.617 -1.3445 -0.7307 -1.5578
  410MOL0     H54105   3.892   7.574   2.646 -0.1131 -0.0738  1.3551
  410MOL0     H54106   5.279   7.667   2.083  0.8291 -2.8551  0.1202
  410MOL0     H54107   5.284   7.875   2.218  1.0544 -1.4534 -2.0230
  410MOL0     H54108   5.189   8.237   2.455 -1.9637 -1.7346  0.2623
  410MOL0     H54109   5.144   8.385   2.651  1.5640  1.0363  0.8740
  410MOL0     H54110   5.356   8.292   3.032  0.0749 -0.2315 -2.5134
  410MOL0     H54111   5.193   8.231   3.076  2.1716  0.0623  2.2446
  410MOL0     H54112   5.279   8.519   3.090  0.3064 -0.2604 -2.1554
  410MOL0     H54113   5.123   8.474   3.122  0.1314  2.2455  3.3058
  410MOL0     H54114   5.363   8.372   3.278  0.7916  1.1702 -2.7083
  410MOL0     H54115   5.202   8.321   3.321 -0.1910  0.6826  0.4527
  410MOL0     H54116   5.240   8.629   3.305  0.8863 -2.2485 -1.4296
  410MOL0     H54117   5.118   8.524   3.356  0.4482 -1.5858 -2.4014
  410MOL0     H54118   5.410   8.534   3.680  1.1493 -1.2006 -0.7876
  410MOL0     H54119   5.345   8.114   2.908  2.1469  1.2059 -0.2265
  410MOL0     H54120   5.351   7.943   2.733  2.1798 -0.0341 -0.9225
  411MOL0     O54121   0.278   0.767   7.472 -0.3147  0.6453 -0.3836
  411MOL0     C54122   0.337   0.842   7.401  0.6775 -0.2772 -0.2024
  411MOL0     O54123   0.466   0.872   7.404  0.4489  0.1589  0.0975
  411MOL0     C54124   0.557   0.787   7.471  0.7299  0.0867  0.5198
  411MOL0     C54125   0.550   0.646   7.463  0.3716 -0.2371 -0.8110
  411MOL0     C54126   0.637   0.561   7.530  0.0817 -0.3498 -0.3495
  411MOL0     C54127   0.738   0.618   7.605 -0.1014 -0.4096  0.7736
  411MOL0     O54128   0.826   0.536   7.663 -0.2706  0.3490  0.2567
  411MOL0     C54129   0.934   0.498   7.579 -0.8806 -0.4982  0.3531
  411MOL0     C54130   1.015   0.370   7.631 -0.9507 -0.3218  1.2146
  411MOL0     C54131   0.950   0.241   7.645 -0.4924 -0.2358 -0.6811
  411MOL0     C54132   0.873   0.197   7.512 -0.4853 -0.1400 -0.2134
  411MOL0     C54133   0.951   0.132   7.406 -1.1737 -0.2273  0.3802
  411MOL0     C54134   0.859   0.095   7.291 -0.1521  0.7050 -1.3934
  411MOL0     C54135   0.919   0.012   7.174  0.2546  0.7483  0.2391
  411MOL0     C54136   0.992   0.087   7.070 -0.6085 -0.8938  0.2071
  411MOL0     N54137   1.141   0.078   7.081 -0.0325 -0.0792  0.0591
  411MOL0     C54138   1.221   0.039   6.974 -0.7497 -0.4592  0.1948
  411MOL0     C54139   1.351   0.051   7.019  0.0743  0.7081  0.0741
  411MOL0     C54140   1.484   0.020   6.952  0.8506 -0.0642 -0.5688
  411MOL0     C54141   1.509   0.115   6.831  0.0761  0.0752  0.0518
  411MOL0     C54142   1.640   0.096   6.760 -0.1244  1.4487 -0.1144
  411MOL0     C54143   1.653   0.180   6.638 -0.2134 -0.4424  0.9166
  411MOL0     O54144   1.773   0.141   6.565 -0.3093 -0.6988  0.3186
  411MOL0     C54145   1.764   0.025   6.485 -0.2122 -0.6968  0.6465
  411MOL0     C54146   1.650  -0.048   6.459 -0.2659 -0.9300 -0.0176
  411MOL0     C54147   1.645  -0.154   6.368  0.5324  1.7152 -0.2094
  411MOL0     C54148   1.752  -0.197   6.286 -0.0735 -0.3353  0.1024
  411MOL0     C54149   1.744  -0.304   6.191  0.1028 -0.1545 -0.3721
  411MOL0     O54150   1.855  -0.320   6.105 -0.1996  0.2845  0.7066
  411MOL0     C54151   1.875  -0.427   6.017 -0.7363 -0.0664 -0.3597
  411MOL0     C54152   2.011  -0.454   5.993 -0.2180  2.2721 -0.5424
  411MOL0     C54153   2.049  -0.557   5.915 -0.0277  0.5068  0.4795
  411MOL0     C54154   1.959  -0.653   5.855 -0.3254 -0.4161  0.6717
  411MOL0     O54155   2.013  -0.754   5.780 -0.5714 -0.3340 -0.2326
  411MOL0     C54156   1.930  -0.857   5.723 -0.0298 -0.1635  0.2683
  411MOL0     C54157   1.911  -0.970   5.828  0.8002  0.2657  0.0375
  411MOL0     C54158   1.794  -1.071   5.793  0.4364  1.2366  0.7730
  411MOL0     C54159   1.823  -1.142   5.656  0.0432  0.7256 -0.1640
  411MOL0     C54160   1.723  -1.244   5.613  0.3574  0.0418 -0.6038
  411MOL0     C54161   1.787  -1.321   5.497 -0.4109  0.8448  0.0730
  411MOL0     C54162   1.676  -1.425   5.445  0.8405 -0.3629 -0.2706
  411MOL0     C54163   1.728  -1.508   5.330  0.1060 -0.3626  0.6211
  411MOL0    Cl54164   1.615  -1.645   5.284 -0.0815  0.3621 -0.1486
  411MOL0     C54165   1.816  -0.622   5.878 -0.0294  0.4678 -0.2224
  411MOL0     C54166   1.787  -0.512   5.956  0.5369  0.6676  0.5517
  411MOL0     O54167   1.637  -0.380   6.192  0.1545 -0.1746 -0.2015
  411MOL0     C54168   1.865  -0.110   6.305 -0.1786 -0.5924  0.1281
  411MOL0     C54169   1.878  -0.009   6.401  0.7176 -0.7562 -0.2741
  411MOL0     N54170   1.338   0.098   7.150 -0.0894  0.2614  0.0430
  411MOL0     N54171   1.217   0.113   7.186  1.0878  0.2275 -0.2671
  411MOL0     C54172   0.753   0.760   7.613  1.0296 -0.3015  0.1256
  411MOL0     C54173   0.661   0.843   7.546 -0.0401  0.0130 -0.7491
  411MOL0     C54174   0.251   0.908   7.304 -0.0544  0.3173  0.0099
  411MOL0     C54175   0.309   1.001   7.220  0.0075 -0.5611 -0.4229
  411MOL0     C54176   0.235   1.064   7.119  0.9842 -0.6023 -0.3672
  411MOL0     C54177   0.098   1.031   7.099  0.1979  0.7335  0.1788
  411MOL0     O54178   0.037   1.071   6.984  0.9730 -0.0266 -0.5067
  411MOL0     C54179   0.089   1.050   6.854 -0.6000  0.0501 -0.5029
  411MOL0     C54180   0.046   1.171   6.770 -0.6220  0.7166 -0.0887
  411MOL0     C54181   0.050   1.298   6.847 -0.3022 -0.0504 -0.6380
  411MOL0     C54182  -0.008   1.409   6.756  0.0249 -0.3729 -0.5387
  411MOL0     C54183   0.049   1.415   6.623 -0.3009  0.7250  0.7472
  411MOL0     C54184   0.112   1.426   6.516  0.2648 -0.3831  0.2552
  411MOL0     C54185   0.034   0.944   7.189  0.3447  0.9131  0.0594
  411MOL0     C54186   0.110   0.882   7.291  0.6633 -0.1860 -0.1033
  411MOL0     H54187   0.470   0.591   7.413 -0.3663 -3.5449  3.4248
  411MOL0     H54188   0.617   0.454   7.532  0.1292 -0.3481  0.6761
  411MOL0     H54189   0.995   0.588   7.577 -5.3231  2.8880 -2.1374
  411MOL0     H54190   0.900   0.477   7.477 -0.9666  1.4455 -0.0480
  411MOL0     H54191   1.057   0.404   7.726  0.7173  2.6718 -0.4451
  411MOL0     H54192   1.100   0.359   7.563 -1.8524  5.6302 -1.4958
  411MOL0     H54193   0.877   0.258   7.725  1.9942 -0.0601  1.7322
  411MOL0     H54194   1.025   0.164   7.666 -0.4978  0.5363  2.7283
  411MOL0     H54195   0.801   0.123   7.549  2.1873 -2.0788  1.4732
  411MOL0     H54196   0.812   0.278   7.470 -0.7587 -0.1780  0.1023
  411MOL0     H54197   1.003   0.049   7.453 -0.6106 -1.6874 -2.5694
  411MOL0     H54198   1.036   0.193   7.376 -0.3180 -1.3764  0.4001
  411MOL0     H54199   0.815   0.188   7.254 -3.6082 -0.6672 -1.0717
  411MOL0     H54200   0.776   0.033   7.325 -0.4169  0.1087 -3.0051
  411MOL0     H54201   0.981  -0.068   7.216 -0.8473  1.1262  2.7110
  411MOL0     H54202   0.835  -0.043   7.131 -0.9417  2.2945  0.5434
  411MOL0     H54203   0.948   0.186   7.057 -4.1113 -1.6670  4.0459
  411MOL0     H54204   0.966   0.031   6.979 -0.7275 -0.1264 -0.2385
  411MOL0     H54205   1.201   0.005   6.873 -0.5968  1.6516 -0.5797
  411MOL0     H54206   1.487  -0.086   6.929 -0.4103 -0.2666  0.1227
  411MOL0     H54207   1.554   0.046   7.033 -0.9058 -0.5594  1.1945
  411MOL0     H54208   1.498   0.219   6.864 -2.4024  0.5445 -2.0012
  411MOL0     H54209   1.431   0.091   6.759  0.1919 -0.7193  0.1799
  411MOL0     H54210   1.726   0.123   6.822 -0.6052 -0.6801  1.6543
  411MOL0     H54211   1.644  -0.008   6.725 -0.9830  1.0418  0.9064
  411MOL0     H54212   1.658   0.283   6.674 -1.7501  0.7271 -1.8602
  411MOL0     H54213   1.560   0.174   6.580 -0.6096  2.1798  1.1405
  411MOL0     H54214   1.562  -0.019   6.516 -0.2454 -3.1419  1.2642
  411MOL0     H54215   1.551  -0.203   6.342  0.2925  1.1478  1.6336
  411MOL0     H54216   2.090  -0.388   6.028  2.4999 -0.3788 -1.2176
  411MOL0     H54217   2.152  -0.582   5.894 -1.3277 -2.1708 -4.2735
  411MOL0     H54218   1.963  -0.885   5.622 -0.8176  0.3257 -0.1342
  411MOL0     H54219   1.833  -0.813   5.700  0.2616  1.0282  1.2255
  411MOL0     H54220   1.900  -0.918   5.924 -3.5123 -1.0302  0.4518
  411MOL0     H54221   1.998  -1.035   5.837  1.1338  0.9709  3.5586
  411MOL0     H54222   1.692  -1.030   5.791  0.2092  0.6704  0.5938
  411MOL0     H54223   1.798  -1.154   5.865  1.8242 -1.1897 -1.9128
  411MOL0     H54224   1.828  -1.073   5.571  1.1320 -0.5195 -1.1690
  411MOL0     H54225   1.924  -1.179   5.673 -0.6031 -0.5498  1.2204
  411MOL0     H54226   1.628  -1.191   5.601  0.9507  2.1366  2.6229
  411MOL0     H54227   1.706  -1.321   5.688 -0.9766  0.1583 -0.7545
  411MOL0     H54228   1.880  -1.362   5.537 -1.1086  0.5163  1.4410
  411MOL0     H54229   1.806  -1.259   5.410  0.6662 -3.0144 -2.7100
  411MOL0     H54230   1.662  -1.504   5.519 -0.2557 -1.0864 -1.2286
  411MOL0     H54231   1.576  -1.383   5.437  1.5656  1.6723  0.6308
  411MOL0     H54232   1.826  -1.550   5.357 -0.1311  1.3587  4.7347
  411MOL0     H54233   1.744  -1.441   5.245 -0.7158  1.0400  1.5454
  411MOL0     H54234   1.737  -0.690   5.848 -1.4661  2.9917 -2.5831
  411MOL0     H54235   1.686  -0.477   5.978 -0.2687  0.0794 -1.9674
  411MOL0     H54236   1.950  -0.127   6.240 -0.4072 -1.0304 -0.0560
  411MOL0     H54237   1.971   0.047   6.412  0.8250 -0.4212 -2.5420
  411MOL0     H54238   0.821   0.801   7.687 -0.8624 -1.3843  2.6270
  411MOL0     H54239   0.681   0.949   7.561  1.3453 -0.1989 -0.9075
  411MOL0     H54240   0.415   1.024   7.234  0.1936 -0.6696 -1.5457
  411MOL0     H54241   0.270   1.140   7.049 -2.0756 -0.7644 -2.2723
  411MOL0     H54242   0.026   0.968   6.818 -2.8853  1.2735  0.4722
  411MOL0     H54243   0.195   1.022   6.851 -1.3724 -3.6628  1.4119
  411MOL0     H54244   0.101   1.174   6.675 -0.5697 -2.3486 -0.2422
  411MOL0     H54245  -0.060   1.149   6.750 -0.5268 -1.5678  1.5837
  411MOL0     H54246   0.151   1.330   6.875  0.5731 -2.4960 -0.7486
  411MOL0     H54247  -0.016   1.294   6.934 -0.0182  3.3096 -0.1596
  411MOL0     H54248  -0.114   1.383   6.762 -0.5948  2.1323  1.8041
  411MOL0     H54249   0.003   1.512   6.793  1.8182 -0.3934 -0.8982
  411MOL0     H54250   0.159   1.420   6.420 -1.9726 -1.8709 -0.8500
  411MOL0     H54251  -0.072   0.923   7.190  0.6387 -0.7528  1.4985
  411MOL0     H54252   0.066   0.801   7.348  1.4098 -1.7603 -1.6803
  412MOL0     O54253   2.067   1.528   4.647  0.6625 -0.0961 -0.4196
  412MOL0     C54254   2.063   1.447   4.742 -0.2945  0.5097  0.1128
  412MOL0     O54255   1.967   1.351   4.768 -0.0760  0.4689  0.4154
  412MOL0     C54256   1.859   1.343   4.682 -0.5699 -0.7564 -0.4616
  412MOL0     C54257   1.768   1.453   4.657 -0.6873 -0.1404  0.7656
  412MOL0     C54258   1.654   1.442   4.580  0.0987 -0.2520  0.8730
  412MOL0     C54259   1.627   1.322   4.517  0.0271  0.6365 -0.0398
  412MOL0     O54260   1.513   1.315   4.442  0.0523 -0.5379 -0.1326
  412MOL0     C54261   1.480   1.196   4.362 -0.3821 -0.2346  0.4152
  412MOL0     C54262   1.345   1.250   4.301 -0.7991 -1.0173 -0.3795
  412MOL0     C54263   1.231   1.242   4.405 -0.4182  0.1562 -0.4779
  412MOL0     C54264   1.108   1.242   4.311  0.2500  0.2845 -0.9268
  412MOL0     C54265   0.980   1.229   4.391 -0.4577  0.8996 -0.2426
  412MOL0     C54266   0.856   1.228   4.309  0.0681 -0.0347 -0.2271
  412MOL0     C54267   0.828   1.367   4.246 -0.2302  0.1842 -0.1659
  412MOL0     C54268   0.733   1.369   4.116  0.3462  1.0538 -0.0179
  412MOL0     N54269   0.603   1.318   4.154 -0.0891  0.0116 -0.9385
  412MOL0     C54270   0.488   1.395   4.176  0.9499  0.4222  0.3942
  412MOL0     C54271   0.395   1.305   4.187  0.4047  0.2877 -0.9907
  412MOL0     C54272   0.243   1.322   4.195  0.2624 -0.3142 -0.1844
  412MOL0     C54273   0.179   1.297   4.334 -0.5885  0.4968 -0.3079
  412MOL0     C54274   0.223   1.412   4.437 -0.3796  0.0508  0.7425
  412MOL0     C54275   0.234   1.360   4.583  0.9633  0.1534 -0.3147
  412MOL0     O54276   0.229   1.467   4.676 -0.0418 -0.3422  0.0733
  412MOL0     C54277   0.107   1.522   4.717 -0.7857  0.0056 -0.3970
  412MOL0     C54278   0.089   1.655   4.707  0.0866  0.0073  0.1729
  412MOL0     C54279  -0.042   1.703   4.705  0.1614  0.3748 -0.9787
  412MOL0     C54280  -0.154   1.630   4.748  0.5212  0.6283  0.0186
  412MOL0     C54281  -0.281   1.698   4.778  0.6331 -0.4538 -0.6441
  412MOL0     O54282  -0.309   1.816   4.708 -1.0078  0.6991 -0.9088
  412MOL0     C54283  -0.445   1.825   4.698 -0.4236 -0.9065  0.3463
  412MOL0     C54284  -0.519   1.734   4.631 -0.5474 -0.1682 -0.1312
  412MOL0     C54285  -0.651   1.740   4.632 -0.0589 -0.7563  0.2748
  412MOL0     C54286  -0.718   1.851   4.676  0.7695 -0.4234 -0.3325
  412MOL0     O54287  -0.856   1.870   4.659 -0.0673 -0.3552  0.3031
  412MOL0     C54288  -0.936   1.768   4.594 -0.2492 -0.0100  0.7893
  412MOL0     C54289  -1.078   1.805   4.581  0.4657  0.8556  0.1662
  412MOL0     C54290  -1.138   1.809   4.716  0.5324  0.1634 -0.4126
  412MOL0     C54291  -1.283   1.848   4.710  0.6986  0.9729  0.0321
  412MOL0     C54292  -1.346   1.828   4.853 -0.8059  0.1608 -0.3661
  412MOL0     C54293  -1.495   1.778   4.860  0.0817  0.9141  0.8883
  412MOL0     C54294  -1.523   1.633   4.788 -0.4301 -0.5936  0.0740
  412MOL0     C54295  -1.467   1.523   4.877 -0.1069  0.2738 -1.0061
  412MOL0    Cl54296  -1.612   1.443   4.958  0.1033  0.2422  0.1318
  412MOL0     C54297  -0.645   1.956   4.726  0.9758  0.5287  0.7156
  412MOL0     C54298  -0.508   1.947   4.736 -0.1960 -0.1911 -0.0823
  412MOL0     O54299  -0.353   1.655   4.871 -0.0152  0.5740  0.8940
  412MOL0     C54300  -0.130   1.497   4.770 -0.1355 -0.2801 -1.1653
  412MOL0     C54301   0.001   1.440   4.751 -0.0384 -0.1498 -0.6586
  412MOL0     N54302   0.445   1.175   4.186  0.2945  0.2749 -0.2088
  412MOL0     N54303   0.571   1.190   4.170  0.5007 -0.2185 -0.1745
  412MOL0     C54304   1.725   1.215   4.520 -0.1782  0.2447 -0.2969
  412MOL0     C54305   1.841   1.230   4.606  0.4979  0.1234  0.0449
  412MOL0     C54306   2.179   1.479   4.838  0.7414  0.5348  0.1372
  412MOL0     C54307   2.213   1.376   4.924  0.4905  0.2210  0.1271
  412MOL0     C54308   2.319   1.381   5.017 -0.6845  0.2853  0.3909
  412MOL0     C54309   2.403   1.495   5.019 -0.2238  0.2788  0.7213
  412MOL0     O54310   2.508   1.514   5.092  0.7850 -0.9626  0.4237
  412MOL0     C54311   2.555   1.646   5.141 -0.1250 -0.3892 -0.1749
  412MOL0     C54312   2.652   1.606   5.254 -0.4832  0.0112  0.3375
  412MOL0     C54313   2.775   1.535   5.193 -0.6396 -0.4331  0.4807
  412MOL0     C54314   2.890   1.518   5.297 -0.1210  0.7796  0.2915
  412MOL0     C54315   2.861   1.473   5.434 -0.1383  0.8660  0.8077
  412MOL0     C54316   2.852   1.426   5.545 -0.1708 -0.2792 -0.4579
  412MOL0     C54317   2.375   1.595   4.921 -0.4255  0.6365 -0.4509
  412MOL0     C54318   2.262   1.591   4.836  0.8404  0.2082 -0.3154
  412MOL0     H54319   1.781   1.549   4.706  0.3228 -0.8936  2.0430
  412MOL0     H54320   1.589   1.527   4.566 -2.7680 -1.6537  4.0991
  412MOL0     H54321   1.467   1.117   4.436  1.9712  0.6130  1.8556
  412MOL0     H54322   1.554   1.174   4.285  1.0699  1.2026  1.3326
  412MOL0     H54323   1.322   1.200   4.206  0.9690 -2.0563 -0.3054
  412MOL0     H54324   1.357   1.355   4.273 -2.5741  0.0073  2.3100
  412MOL0     H54325   1.231   1.330   4.470 -1.6893  0.8508 -1.3661
  412MOL0     H54326   1.234   1.151   4.466  0.7712 -0.4207 -1.3510
  412MOL0     H54327   1.112   1.335   4.253  1.0868  1.8634  1.5254
  412MOL0     H54328   1.112   1.155   4.244  0.9178 -1.3052  1.0794
  412MOL0     H54329   0.973   1.322   4.449 -3.0029  1.8219 -1.8423
  412MOL0     H54330   0.987   1.145   4.460 -1.1807  1.0084 -0.0292
  412MOL0     H54331   0.771   1.180   4.359 -2.2733  0.9438 -3.0322
  412MOL0     H54332   0.869   1.159   4.225 -2.5891 -0.4440 -0.3848
  412MOL0     H54333   0.784   1.435   4.320 -2.4336 -1.6819  0.3354
  412MOL0     H54334   0.926   1.406   4.217 -0.2785 -0.1839 -0.8696
  412MOL0     H54335   0.777   1.324   4.027 -2.1812  0.7885 -1.2213
  412MOL0     H54336   0.723   1.476   4.095 -0.5954  0.9391 -0.1761
  412MOL0     H54337   0.470   1.502   4.184  1.0154  0.5906 -1.4777
  412MOL0     H54338   0.194   1.262   4.118  1.2852 -1.1061 -0.2483
  412MOL0     H54339   0.228   1.425   4.162  1.6442  0.1898  0.6901
  412MOL0     H54340   0.205   1.197   4.369  0.1258 -0.1090 -2.4255
  412MOL0     H54341   0.070   1.298   4.323 -0.3873  0.2432 -3.3818
  412MOL0     H54342   0.323   1.456   4.429 -1.6119  3.1002  0.6330
  412MOL0     H54343   0.156   1.499   4.428 -0.1651  0.2453  1.0184
  412MOL0     H54344   0.332   1.313   4.595  0.5184 -0.4187  1.2832
  412MOL0     H54345   0.146   1.298   4.601  0.2324  1.0505 -0.6839
  412MOL0     H54346   0.173   1.714   4.673 -0.8994  2.5034  1.7705
  412MOL0     H54347  -0.052   1.807   4.675  1.3320  0.9569  0.5156
  412MOL0     H54348  -0.480   1.637   4.601  0.0109  0.2186 -0.6702
  412MOL0     H54349  -0.698   1.653   4.586  1.9697 -1.9484  0.3356
  412MOL0     H54350  -0.934   1.673   4.648  0.4845  0.7981  2.2517
  412MOL0     H54351  -0.897   1.748   4.493  1.3711 -0.3561  1.4453
  412MOL0     H54352  -1.121   1.728   4.517 -0.7717  1.3303  0.4032
  412MOL0     H54353  -1.086   1.899   4.525 -0.6457  0.0276 -1.1143
  412MOL0     H54354  -1.098   1.894   4.773  0.7968 -0.6016  0.5683
  412MOL0     H54355  -1.129   1.710   4.761  0.2900  0.4853  0.3551
  412MOL0     H54356  -1.287   1.954   4.683 -0.0564  1.3605  1.5517
  412MOL0     H54357  -1.340   1.804   4.629  1.4359  0.6069 -0.2969
  412MOL0     H54358  -1.320   1.920   4.906  1.0091  0.0581 -1.0007
  412MOL0     H54359  -1.288   1.744   4.893 -0.8284  0.6030  0.6032
  412MOL0     H54360  -1.561   1.850   4.812 -0.0411  0.4190  0.3184
  412MOL0     H54361  -1.525   1.781   4.965  1.3567  0.0636  1.3110
  412MOL0     H54362  -1.630   1.619   4.771 -0.2165 -0.1885 -1.8228
  412MOL0     H54363  -1.477   1.630   4.689  1.2342 -0.6094  0.8097
  412MOL0     H54364  -1.388   1.554   4.946  0.8714 -3.4137 -0.2569
  412MOL0     H54365  -1.410   1.447   4.824 -1.2289  0.2155 -2.1913
  412MOL0     H54366  -0.690   2.051   4.752 -0.5144  1.5128 -4.2455
  412MOL0     H54367  -0.444   2.019   4.787  0.3165  0.1165 -1.1458
  412MOL0     H54368  -0.198   1.423   4.811  2.1508 -1.5199  0.6369
  412MOL0     H54369   0.022   1.334   4.752 -2.4129 -0.8075 -3.8466
  412MOL0     H54370   1.719   1.126   4.458  0.9913 -1.3551  1.7552
  412MOL0     H54371   1.910   1.147   4.611  0.4030  0.0997  1.2417
  412MOL0     H54372   2.155   1.286   4.912  0.3366  0.6775 -5.0420
  412MOL0     H54373   2.345   1.299   5.084 -3.2682  0.3500  1.6060
  412MOL0     H54374   2.472   1.699   5.189  0.8503 -1.0080  2.3198
  412MOL0     H54375   2.604   1.710   5.067  1.0298 -0.7997  0.2194
  412MOL0     H54376   2.689   1.685   5.321 -1.7118  2.6062 -1.8481
  412MOL0     H54377   2.621   1.528   5.323 -0.8780 -1.8334 -1.8199
  412MOL0     H54378   2.809   1.592   5.106  1.2938 -0.1590  1.3400
  412MOL0     H54379   2.751   1.433   5.164 -0.0427 -1.1179  2.2114
  412MOL0     H54380   2.953   1.440   5.253  0.2719  0.5011  1.3214
  412MOL0     H54381   2.950   1.610   5.290  2.4853 -0.5129  3.3557
  412MOL0     H54382   2.857   1.393   5.646 -1.4272  3.7327  1.1361
  412MOL0     H54383   2.444   1.678   4.907 -0.0208  0.2179 -0.9677
  412MOL0     H54384   2.243   1.666   4.760  1.3587  1.9322  1.1699
  413MOL0     O54385   3.498   1.224   1.352 -0.3776 -0.4939  0.2632
  413MOL0     C54386   3.467   1.326   1.421  0.3062  0.6075 -0.7555
  413MOL0     O54387   3.566   1.410   1.475  0.6671  0.4470  0.5040
  413MOL0     C54388   3.700   1.405   1.433 -0.0886  0.6675 -0.7730
  413MOL0     C54389   3.784   1.471   1.523  0.6394  0.6807 -0.5220
  413MOL0     C54390   3.925   1.463   1.505  0.1652  0.3863  0.9157
  413MOL0     C54391   3.983   1.402   1.391 -0.0779 -1.5814  0.1034
  413MOL0     O54392   4.116   1.385   1.395  0.2880  0.4937 -0.3129
  413MOL0     C54393   4.189   1.302   1.302  0.1941  0.6206  0.2486
  413MOL0     C54394   4.193   1.158   1.353 -0.0091 -0.1558  0.0424
  413MOL0     C54395   4.270   1.135   1.485 -0.7618 -0.6565  0.1850
  413MOL0     C54396   4.248   1.015   1.563  0.2870 -0.2765  0.0917
  413MOL0     C54397   4.101   1.002   1.617  0.0703  0.6869 -0.6296
  413MOL0     C54398   4.085   1.072   1.764 -0.1008 -0.2432  0.3253
  413MOL0     C54399   3.932   1.086   1.784  0.9810  0.4769 -0.7533
  413MOL0     C54400   3.876   1.224   1.802  0.2427 -0.5575  0.2819
  413MOL0     N54401   3.740   1.219   1.860  0.1613 -0.8470 -0.8310
  413MOL0     C54402   3.631   1.276   1.806  0.4618  0.7478  0.5479
  413MOL0     C54403   3.545   1.267   1.904  0.2730 -0.4508 -0.7576
  413MOL0     C54404   3.401   1.327   1.894  0.0384  0.5203  0.4820
  413MOL0     C54405   3.336   1.369   2.026  0.2649  0.6859  0.3207
  413MOL0     C54406   3.207   1.450   2.008 -0.1649  0.3873  0.0439
  413MOL0     C54407   3.158   1.483   2.145  0.0408  0.0986 -0.3066
  413MOL0     O54408   3.072   1.594   2.138  0.4295 -0.3966 -0.6476
  413MOL0     C54409   2.940   1.567   2.108  0.6513 -0.4327 -0.8511
  413MOL0     C54410   2.865   1.683   2.067  0.5171  0.1860  0.2798
  413MOL0     C54411   2.725   1.677   2.036 -0.5471  0.6738  0.3696
  413MOL0     C54412   2.657   1.561   2.042  0.1151 -0.8374  0.4158
  413MOL0     C54413   2.515   1.549   2.009 -0.3727  1.1290  0.3442
  413MOL0     O54414   2.436   1.453   2.067  0.7324 -0.0927 -1.4025
  413MOL0     C54415   2.306   1.452   2.025  0.3116 -0.6036 -0.1372
  413MOL0     C54416   2.211   1.485   2.114 -0.5787 -0.8558 -0.3557
  413MOL0     C54417   2.079   1.494   2.093  0.2749  0.4737  0.7786
  413MOL0     C54418   2.032   1.449   1.971 -0.8142  0.5675 -0.0715
  413MOL0     O54419   1.896   1.445   1.963 -0.0978  0.8206 -0.4082
  413MOL0     C54420   1.838   1.428   1.832 -0.3703  0.5411 -0.7707
  413MOL0     C54421   1.696   1.479   1.843 -0.0373 -0.1148 -0.1700
  413MOL0     C54422   1.650   1.507   1.704 -0.0461  0.3236  0.5133
  413MOL0     C54423   1.527   1.598   1.709  0.6550  0.3681  0.3086
  413MOL0     C54424   1.466   1.585   1.572  0.4917  0.0734  0.4835
  413MOL0     C54425   1.544   1.662   1.459  0.2061  0.6197 -0.8936
  413MOL0     C54426   1.445   1.694   1.350  0.3921 -0.0615  0.1735
  413MOL0     C54427   1.499   1.762   1.230  0.4485 -0.3764  0.5724
  413MOL0    Cl54428   1.377   1.776   1.106  0.0014  0.0838  0.0791
  413MOL0     C54429   2.120   1.402   1.873 -0.7545 -0.0421 -0.3382
  413MOL0     C54430   2.262   1.402   1.907  0.3768  0.2466 -0.0451
  413MOL0     O54431   2.479   1.626   1.922  0.7432  0.2059 -0.1248
  413MOL0     C54432   2.732   1.444   2.064  0.4400 -0.6744 -0.5707
  413MOL0     C54433   2.862   1.454   2.102 -0.7621  0.4482  0.0847
  413MOL0     N54434   3.587   1.200   2.017 -0.0444  0.5662 -1.0598
  413MOL0     N54435   3.708   1.167   1.987  0.6279  0.3061  0.7495
  413MOL0     C54436   3.895   1.355   1.297 -0.0324  0.3491  1.7908
  413MOL0     C54437   3.758   1.344   1.326 -0.6278 -0.6066  0.8535
  413MOL0     C54438   3.323   1.363   1.457  0.1449 -0.0901  0.6615
  413MOL0     C54439   3.208   1.336   1.367 -0.5554 -0.0521 -0.8364
  413MOL0     C54440   3.086   1.384   1.404 -1.0496  0.2336  1.3822
  413MOL0     C54441   3.061   1.457   1.516 -0.2959 -0.2674  0.1858
  413MOL0     O54442   2.934   1.513   1.526 -0.6657 -0.1758 -0.3727
  413MOL0     C54443   2.909   1.590   1.651  0.1062  1.2229 -0.2507
  413MOL0     C54444   2.775   1.670   1.626 -0.1319  0.6079 -0.8274
  413MOL0     C54445   2.654   1.590   1.554 -0.3918 -0.3965  0.0641
  413MOL0     C54446   2.521   1.661   1.563  0.7295  0.4024 -0.1357
  413MOL0     C54447   2.404   1.580   1.527 -0.5644  0.6102 -0.5657
  413MOL0     C54448   2.295   1.519   1.506 -0.2602  0.1076 -0.6196
  413MOL0     C54449   3.170   1.481   1.604 -0.6406 -0.4398 -0.0661
  413MOL0     C54450   3.299   1.440   1.576 -0.7751 -0.7572  0.2315
  413MOL0     H54451   3.750   1.529   1.609 -2.7967 -1.4605 -0.2283
  413MOL0     H54452   3.989   1.509   1.580  2.7393 -2.4969  0.6720
  413MOL0     H54453   4.289   1.346   1.297 -0.0170  0.9907 -1.2023
  413MOL0     H54454   4.144   1.310   1.203  4.3808  2.1378 -1.7516
  413MOL0     H54455   4.251   1.102   1.280  1.9960 -0.4073  1.7296
  413MOL0     H54456   4.090   1.123   1.358  0.1237 -0.7222 -1.0455
  413MOL0     H54457   4.239   1.219   1.548  3.1429  0.6587  0.6588
  413MOL0     H54458   4.379   1.149   1.481 -0.7785 -0.8056 -1.1138
  413MOL0     H54459   4.268   0.930   1.496 -0.2697 -0.6886  0.4370
  413MOL0     H54460   4.326   1.020   1.639  1.5103 -0.1288 -1.1276
  413MOL0     H54461   4.064   0.901   1.638 -2.2726  1.8298  1.3143
  413MOL0     H54462   4.033   1.045   1.543  0.7379 -1.0720 -2.3341
  413MOL0     H54463   4.133   1.170   1.774 -3.0119  1.3002  0.4827
  413MOL0     H54464   4.129   1.015   1.846 -1.6305  0.3468  1.6194
  413MOL0     H54465   3.880   1.029   1.707  3.1379 -0.6919 -1.4238
  413MOL0     H54466   3.923   1.034   1.880  2.5299  4.0486  1.5527
  413MOL0     H54467   3.868   1.282   1.709 -0.4671 -1.6599 -0.3587
  413MOL0     H54468   3.938   1.291   1.862 -0.8199  1.0107 -0.2890
  413MOL0     H54469   3.611   1.318   1.708 -1.3567 -2.8892 -0.8263
  413MOL0     H54470   3.337   1.248   1.854  0.5070  1.2649 -1.8752
  413MOL0     H54471   3.401   1.421   1.838 -1.5335  1.5215  2.0475
  413MOL0     H54472   3.405   1.434   2.081 -0.9073  2.0062  0.3050
  413MOL0     H54473   3.315   1.283   2.090  2.8928 -1.5907 -1.6547
  413MOL0     H54474   3.228   1.545   1.958  0.6412  1.1135  1.6832
  413MOL0     H54475   3.132   1.386   1.961 -2.3526  0.9061  2.6458
  413MOL0     H54476   3.242   1.504   2.212 -0.5709 -1.8446  1.1837
  413MOL0     H54477   3.103   1.398   2.188  1.6792  0.5523  2.9515
  413MOL0     H54478   2.908   1.781   2.085  2.0917 -0.6727  1.3945
  413MOL0     H54479   2.669   1.765   2.006 -0.8904 -0.1362 -1.5512
  413MOL0     H54480   2.244   1.526   2.209  0.6494 -0.6146 -0.8709
  413MOL0     H54481   2.021   1.512   2.183 -1.5468 -0.2833 -0.1895
  413MOL0     H54482   1.833   1.319   1.823 -0.1840  0.2558  1.8433
  413MOL0     H54483   1.887   1.482   1.751 -3.0717  2.9979 -0.9532
  413MOL0     H54484   1.693   1.568   1.906 -1.3741 -1.2751  1.5070
  413MOL0     H54485   1.642   1.401   1.897  2.8461 -2.2437 -0.1074
  413MOL0     H54486   1.631   1.406   1.666  0.7404 -0.7916  2.8930
  413MOL0     H54487   1.726   1.557   1.643  2.4304 -1.1763  2.1816
  413MOL0     H54488   1.458   1.560   1.785  1.5866  0.4373  1.2129
  413MOL0     H54489   1.545   1.700   1.742  2.6668 -0.0399  0.6149
  413MOL0     H54490   1.373   1.643   1.580  1.6869  1.9151  2.0400
  413MOL0     H54491   1.453   1.482   1.538  1.7201  0.5079 -1.4940
  413MOL0     H54492   1.633   1.605   1.431 -1.7528 -5.1035  2.8112
  413MOL0     H54493   1.585   1.756   1.499  0.2018  0.9108 -1.5723
  413MOL0     H54494   1.401   1.600   1.316  1.3530 -0.2870 -0.4837
  413MOL0     H54495   1.369   1.763   1.388 -1.0675 -1.8009  0.5350
  413MOL0     H54496   1.584   1.715   1.179  1.4737 -0.4823  2.2864
  413MOL0     H54497   1.535   1.859   1.265  2.4803 -2.0133  3.4537
  413MOL0     H54498   2.092   1.355   1.780 -4.0978  2.1480 -0.6001
  413MOL0     H54499   2.335   1.377   1.831  1.1672  2.2440 -0.0140
  413MOL0     H54500   2.691   1.344   2.065  0.3816 -0.6939  2.0021
  413MOL0     H54501   2.909   1.357   2.111 -1.4221  0.2485  1.7086
  413MOL0     H54502   3.923   1.330   1.195 -3.1193  0.5795  0.7864
  413MOL0     H54503   3.691   1.306   1.249 -0.0791  3.3147 -1.8541
  413MOL0     H54504   3.214   1.270   1.282  2.1776 -0.1799 -0.6401
  413MOL0     H54505   3.007   1.356   1.335  0.5442 -0.5585 -0.2537
  413MOL0     H54506   2.986   1.659   1.684  1.0613 -1.4631  3.8814
  413MOL0     H54507   2.889   1.517   1.730 -0.2487 -1.9929 -3.0533
  413MOL0     H54508   2.738   1.697   1.725 -2.4567 -1.9843 -0.8567
  413MOL0     H54509   2.781   1.766   1.576 -1.5174 -0.4627 -3.2279
  413MOL0     H54510   2.648   1.493   1.605 -0.6844 -0.4044  0.0178
  413MOL0     H54511   2.687   1.592   1.449  2.0364  1.6161  0.7490
  413MOL0     H54512   2.500   1.695   1.665 -1.5317 -0.9921 -0.0780
  413MOL0     H54513   2.507   1.751   1.502  0.5698  0.4058 -0.0941
  413MOL0     H54514   2.207   1.460   1.489  1.2987 -2.5739 -0.0560
  413MOL0     H54515   3.163   1.535   1.698 -0.8622  0.3427 -0.5188
  413MOL0     H54516   3.378   1.485   1.636 -0.1554  3.5787 -3.2805
  414MOL0     O54517   9.805   8.578   2.758 -0.1945  0.1074  0.6866
  414MOL0     C54518   9.747   8.474   2.745 -0.9106 -0.0689  0.5532
  414MOL0     O54519   9.763   8.386   2.645 -0.2075 -0.0514  0.1156
  414MOL0     C54520   9.859   8.409   2.551  0.2014 -0.4551  0.5044
  414MOL0     C54521   9.824   8.405   2.422  0.2111  0.4917  0.2957
  414MOL0     C54522   9.914   8.422   2.321  0.5326  0.2269  0.2692
  414MOL0     C54523  10.047   8.440   2.346 -0.2301 -0.3821  0.5039
  414MOL0     O54524  10.148   8.440   2.243 -0.5338 -0.1666 -0.1348
  414MOL0     C54525  10.114   8.512   2.118 -0.7099  0.3902 -0.2422
  414MOL0     C54526  10.096   8.411   2.012  0.2284 -0.3687 -0.0198
  414MOL0     C54527  10.058   8.491   1.886  0.2921  0.4786 -0.2822
  414MOL0     C54528  10.035   8.400   1.762 -0.0961 -0.7038 -0.7399
  414MOL0     C54529   9.896   8.335   1.782  0.3464  0.6899 -0.4596
  414MOL0     C54530   9.776   8.432   1.814  0.3612  0.7329  0.2664
  414MOL0     C54531   9.652   8.353   1.807 -0.2168 -0.0516 -1.5820
  414MOL0     C54532   9.525   8.428   1.854 -0.4279  0.2528  0.4022
  414MOL0     N54533   9.517   8.456   1.998  0.0808  0.0173  0.0664
  414MOL0     C54534   9.450   8.564   2.043  0.1830 -0.4379 -0.0984
  414MOL0     C54535   9.488   8.572   2.172  0.3721  0.4434 -0.3237
  414MOL0     C54536   9.459   8.683   2.265 -0.2198 -0.3265 -0.7547
  414MOL0     C54537   9.321   8.657   2.331  0.5322  0.1145  0.9597
  414MOL0     C54538   9.319   8.550   2.433 -0.4808  0.3645  0.8125
  414MOL0     C54539   9.167   8.527   2.476 -0.1915  0.0696  1.1786
  414MOL0     O54540   9.138   8.415   2.555 -1.0714 -0.9939 -0.4366
  414MOL0     C54541   9.003   8.385   2.583  0.2399 -0.5575  0.7564
  414MOL0     C54542   8.892   8.454   2.524 -0.1413 -0.0179 -0.1358
  414MOL0     C54543   8.760   8.408   2.539 -0.1373 -0.1726 -0.6432
  414MOL0     C54544   8.728   8.304   2.626 -0.0108  0.1073  0.3368
  414MOL0     C54545   8.591   8.259   2.661  0.2574 -0.1304 -0.6073
  414MOL0     O54546   8.485   8.325   2.599 -0.6457  0.6292 -0.1784
  414MOL0     C54547   8.353   8.303   2.635  0.0787 -0.0646  0.4796
  414MOL0     C54548   8.268   8.380   2.561  0.9408  0.1115 -0.5338
  414MOL0     C54549   8.124   8.375   2.576 -0.3049 -0.2884 -0.2188
  414MOL0     C54550   8.062   8.280   2.662  0.5755 -0.7350 -0.1424
  414MOL0     O54551   7.922   8.265   2.689 -0.9771  0.3274 -0.0575
  414MOL0     C54552   7.841   8.378   2.651 -0.2328  0.7323 -0.6697
  414MOL0     C54553   7.700   8.357   2.709  0.1024  0.2317 -0.0534
  414MOL0     C54554   7.688   8.316   2.855 -0.7763  0.2877  0.0192
  414MOL0     C54555   7.754   8.422   2.952 -1.0011  0.7898 -0.1524
  414MOL0     C54556   7.772   8.373   3.095 -0.6197 -0.7817 -0.1477
  414MOL0     C54557   7.636   8.354   3.165  0.7255 -0.2542 -0.6010
  414MOL0     C54558   7.660   8.341   3.319 -0.2459 -0.3294 -0.0659
  414MOL0     C54559   7.734   8.210   3.359  0.0369 -0.5761 -0.4559
  414MOL0    Cl54560   7.911   8.254   3.368 -0.1663  0.0372  0.6867
  414MOL0     C54561   8.157   8.204   2.733  1.0927  0.0758 -0.0477
  414MOL0     C54562   8.296   8.206   2.718 -0.5614  0.3686  0.3778
  414MOL0     O54563   8.585   8.172   2.746  0.2231 -0.5033  0.3507
  414MOL0     C54564   8.838   8.241   2.687 -0.0230 -0.3467  0.4266
  414MOL0     C54565   8.971   8.280   2.664 -0.4026  0.1040 -0.2854
  414MOL0     N54566   9.563   8.464   2.197  0.0713  0.6196  0.1795
  414MOL0     N54567   9.587   8.395   2.095  0.5076  0.0057 -0.1743
  414MOL0     C54568  10.093   8.450   2.477  0.1939  0.6753 -0.6488
  414MOL0     C54569   9.992   8.434   2.583 -0.8432  0.2836  0.1914
  414MOL0     C54570   9.621   8.473   2.810  0.3787  0.0234  0.5962
  414MOL0     C54571   9.513   8.397   2.770  0.7172 -0.7450  0.1401
  414MOL0     C54572   9.389   8.420   2.813  0.4849  0.3909 -0.8562
  414MOL0     C54573   9.366   8.517   2.919 -0.8906 -0.1923  0.4546
  414MOL0     O54574   9.243   8.572   2.951 -0.5160 -0.1965 -0.5185
  414MOL0     C54575   9.132   8.527   2.880 -1.1795 -0.5686 -0.8565
  414MOL0     C54576   8.997   8.565   2.941 -0.3410 -0.3468  0.0076
  414MOL0     C54577   8.881   8.486   2.884  0.0767  0.0754  0.4481
  414MOL0     C54578   8.743   8.524   2.943 -0.1875 -0.0844 -0.0197
  414MOL0     C54579   8.720   8.670   2.950 -0.5161  0.1527  0.0552
  414MOL0     C54580   8.703   8.793   2.960  0.5967 -0.5070  0.6570
  414MOL0     C54581   9.477   8.568   2.984  0.3557  0.0444  0.0400
  414MOL0     C54582   9.603   8.551   2.924  0.1124 -0.1016 -0.6582
  414MOL0     H54583   9.731   8.374   2.374  1.0796 -1.2317 -0.3342
  414MOL0     H54584   9.873   8.421   2.220  0.5357 -0.0542  0.2685
  414MOL0     H54585  10.198   8.572   2.082 -0.8702  0.1577 -1.0185
  414MOL0     H54586  10.026   8.578   2.122 -1.3355 -0.0896 -3.6519
  414MOL0     H54587  10.018   8.339   2.039 -2.0240  0.6604 -3.1591
  414MOL0     H54588  10.187   8.354   1.998  0.3138 -1.0696  2.7331
  414MOL0     H54589  10.143   8.551   1.851  0.1477 -0.1607 -1.8303
  414MOL0     H54590   9.985   8.573   1.891  1.4494  1.5840 -0.7588
  414MOL0     H54591  10.036   8.456   1.668 -1.0005 -0.1890 -0.4570
  414MOL0     H54592  10.107   8.318   1.756  1.1176  0.0659  1.7631
  414MOL0     H54593   9.890   8.263   1.864 -1.7974  2.7687  1.3745
  414MOL0     H54594   9.874   8.275   1.693 -0.5246 -1.8958  1.4044
  414MOL0     H54595   9.778   8.511   1.739  1.1065  1.0738  0.6326
  414MOL0     H54596   9.787   8.473   1.915  0.0099  0.8754  0.2472
  414MOL0     H54597   9.633   8.307   1.709  0.1485 -1.0794 -1.1841
  414MOL0     H54598   9.673   8.280   1.886  0.9815  3.0748  1.2157
  414MOL0     H54599   9.433   8.378   1.824 -0.1300 -0.3538  0.4593
  414MOL0     H54600   9.521   8.528   1.811  0.0814  0.9675  1.9574
  414MOL0     H54601   9.391   8.638   1.989 -2.0094 -1.9641  0.1030
  414MOL0     H54602   9.462   8.776   2.208  4.4414 -0.4282 -1.0330
  414MOL0     H54603   9.531   8.709   2.344  0.7709  3.1870 -2.6033
  414MOL0     H54604   9.246   8.642   2.253  0.0462  1.4432  1.1582
  414MOL0     H54605   9.283   8.739   2.392  0.0641  1.0785 -0.5799
  414MOL0     H54606   9.353   8.458   2.386  1.3225  1.2434  0.3078
  414MOL0     H54607   9.391   8.575   2.511  0.4504 -0.5957  0.2825
  414MOL0     H54608   9.114   8.525   2.381  1.3786  1.9007  0.1954
  414MOL0     H54609   9.128   8.621   2.514 -1.0279  0.2689 -0.1131
  414MOL0     H54610   8.928   8.533   2.459  3.3824 -0.0584  1.5431
  414MOL0     H54611   8.675   8.446   2.483  1.4068  2.5345 -1.3598
  414MOL0     H54612   8.307   8.454   2.492  0.2249 -1.7881 -3.1140
  414MOL0     H54613   8.060   8.441   2.518 -0.0720 -0.9696 -1.3020
  414MOL0     H54614   7.829   8.385   2.543  0.4788 -2.7508 -1.0699
  414MOL0     H54615   7.892   8.466   2.692 -0.5438  0.1513  1.0613
  414MOL0     H54616   7.642   8.295   2.639 -3.3953  2.9108  0.1816
  414MOL0     H54617   7.645   8.451   2.697  0.5459  0.5118  0.0756
  414MOL0     H54618   7.730   8.218   2.879 -0.6634  1.1860  4.3741
  414MOL0     H54619   7.581   8.316   2.879 -0.6444  2.2336  0.8402
  414MOL0     H54620   7.855   8.441   2.914 -0.6872 -0.2407  0.1167
  414MOL0     H54621   7.697   8.515   2.946  2.9345  3.5229  0.6826
  414MOL0     H54622   7.834   8.448   3.145 -0.7430 -0.9443  0.2495
  414MOL0     H54623   7.833   8.283   3.092 -0.2424 -0.5342  0.0679
  414MOL0     H54624   7.575   8.270   3.132 -0.4102 -0.9387  2.8436
  414MOL0     H54625   7.583   8.449   3.154  0.5375 -0.3939 -0.9334
  414MOL0     H54626   7.711   8.430   3.358  0.8944  0.3807 -2.8857
  414MOL0     H54627   7.560   8.338   3.362 -0.0181  2.1179  0.8292
  414MOL0     H54628   7.722   8.134   3.282  1.6686 -1.8281  0.4503
  414MOL0     H54629   7.702   8.176   3.458 -0.4110  0.2158 -0.3144
  414MOL0     H54630   8.135   8.130   2.809  0.2859  0.0029 -0.3469
  414MOL0     H54631   8.357   8.124   2.756  0.0814  1.6282  2.1554
  414MOL0     H54632   8.833   8.163   2.762 -0.6122 -0.2590  0.4868
  414MOL0     H54633   9.055   8.235   2.717 -1.1834 -0.0275  0.8749
  414MOL0     H54634  10.197   8.470   2.500  0.2231 -2.2284  2.6674
  414MOL0     H54635  10.028   8.439   2.685  1.7119 -0.4576 -0.5868
  414MOL0     H54636   9.532   8.333   2.685  1.1005 -0.3469 -0.0707
  414MOL0     H54637   9.309   8.375   2.755  0.9905 -5.9508  2.4045
  414MOL0     H54638   9.145   8.419   2.870  1.4443 -0.3647 -0.1864
  414MOL0     H54639   9.133   8.567   2.779  1.4311 -0.6782 -0.9250
  414MOL0     H54640   8.986   8.553   3.050 -2.1303 -0.7277 -0.1817
  414MOL0     H54641   8.989   8.670   2.911  2.0191 -0.3768 -0.8852
  414MOL0     H54642   8.894   8.379   2.900 -3.9596 -1.1528 -2.7663
  414MOL0     H54643   8.874   8.501   2.776  2.1052  1.6376  0.4579
  414MOL0     H54644   8.668   8.477   2.880  1.7102 -0.6708 -1.9698
  414MOL0     H54645   8.736   8.495   3.049  1.9578  2.9467  1.1114
  414MOL0     H54646   8.671   8.896   2.955  1.9450 -0.1312 -2.4722
  414MOL0     H54647   9.461   8.615   3.080  0.0720 -0.9074  0.4659
  414MOL0     H54648   9.681   8.614   2.964  0.6308 -0.7363 -0.6516
  415MOL0     O54649   0.776   4.767   3.077  0.0861 -0.8390 -0.8328
  415MOL0     C54650   0.745   4.677   3.150  0.2487 -0.0841  0.9555
  415MOL0     O54651   0.803   4.635   3.269 -0.7115  0.2939 -0.1109
  415MOL0     C54652   0.923   4.693   3.316  0.9674  0.0905 -0.2372
  415MOL0     C54653   0.941   4.833   3.330  0.6034 -0.5005 -0.6112
  415MOL0     C54654   1.047   4.878   3.410  0.3787 -0.4755  0.1001
  415MOL0     C54655   1.145   4.796   3.461  0.5920  0.4314  0.0876
  415MOL0     O54656   1.241   4.850   3.544 -0.0084 -0.0726 -0.2810
  415MOL0     C54657   1.279   4.782   3.661  0.7264  0.2469  0.0877
  415MOL0     C54658   1.411   4.828   3.715 -0.5264 -0.7758  0.5491
  415MOL0     C54659   1.531   4.819   3.609  0.0158 -0.1072  0.0017
  415MOL0     C54660   1.577   4.682   3.569  0.3912 -0.7548 -0.6196
  415MOL0     C54661   1.685   4.688   3.467  0.1110 -0.8547  0.1539
  415MOL0     C54662   1.832   4.725   3.520 -0.2535 -0.8560  0.1813
  415MOL0     C54663   1.928   4.740   3.400  0.6319  0.2493  0.1032
  415MOL0     C54664   2.070   4.756   3.458 -0.5991  0.8144 -0.5495
  415MOL0     N54665   2.127   4.622   3.483  0.4769  0.9161  0.0675
  415MOL0     C54666   2.178   4.571   3.604  0.0126 -0.0350  0.1098
  415MOL0     C54667   2.226   4.450   3.570  0.5935 -0.2136  0.2018
  415MOL0     C54668   2.289   4.338   3.656  0.4130 -0.6770 -0.4736
  415MOL0     C54669   2.199   4.217   3.644 -0.6798 -0.4994  0.0083
  415MOL0     C54670   2.049   4.223   3.702  1.0449  0.2257 -0.2872
  415MOL0     C54671   1.964   4.088   3.683  0.4613  0.8208 -0.6431
  415MOL0     O54672   1.901   4.061   3.557  0.0427  0.1558  0.2264
  415MOL0     C54673   1.802   4.148   3.512 -0.5923 -0.5107  0.1564
  415MOL0     C54674   1.732   4.250   3.596 -0.1528 -0.2514  0.1457
  415MOL0     C54675   1.629   4.328   3.539 -0.8428 -0.0720 -0.1524
  415MOL0     C54676   1.585   4.303   3.412  0.3324  1.2912  0.3850
  415MOL0     C54677   1.476   4.371   3.351 -0.3616  0.0098  0.5136
  415MOL0     O54678   1.477   4.372   3.215 -0.1142 -1.1203 -0.6991
  415MOL0     C54679   1.391   4.442   3.144 -0.6042  0.9770 -0.4757
  415MOL0     C54680   1.341   4.375   3.032 -0.6978 -0.0115  1.3195
  415MOL0     C54681   1.254   4.445   2.942 -0.4091  0.7213 -0.7526
  415MOL0     C54682   1.224   4.580   2.963 -0.3928  1.1562 -0.6410
  415MOL0     O54683   1.150   4.645   2.868 -0.0248 -0.0525 -0.0224
  415MOL0     C54684   1.017   4.659   2.915  0.5399 -0.6513 -0.6040
  415MOL0     C54685   0.931   4.696   2.802 -0.2127 -0.3036 -0.6284
  415MOL0     C54686   0.950   4.844   2.769  0.1077 -0.2366 -0.3973
  415MOL0     C54687   0.864   4.893   2.662  0.1543 -0.4317  0.2064
  415MOL0     C54688   0.869   5.053   2.653  0.4564  0.3017  0.6433
  415MOL0     C54689   0.787   5.102   2.528 -0.2905 -0.7586 -0.2153
  415MOL0     C54690   0.633   5.103   2.544 -0.9495 -0.5430 -0.2674
  415MOL0     C54691   0.560   5.046   2.424 -0.2306 -0.3862  0.3411
  415MOL0    Cl54692   0.487   4.892   2.460 -0.0849  0.1281 -0.2211
  415MOL0     C54693   1.280   4.642   3.071 -0.8582 -0.4033 -0.5275
  415MOL0     C54694   1.362   4.574   3.166  0.6664  0.4711  0.3517
  415MOL0     O54695   1.399   4.428   3.424  0.5259  0.7006  0.2360
  415MOL0     C54696   1.649   4.204   3.331 -0.6003  0.8965 -0.0931
  415MOL0     C54697   1.761   4.134   3.376  0.1428  0.5536 -0.3820
  415MOL0     N54698   2.224   4.429   3.435  0.2382  0.3102 -0.0350
  415MOL0     N54699   2.143   4.523   3.385  0.3971 -0.8616  0.1518
  415MOL0     C54700   1.125   4.654   3.438  0.3282  0.5195  0.0660
  415MOL0     C54701   1.019   4.607   3.365  1.0165  1.4330 -0.6455
  415MOL0     C54702   0.616   4.610   3.120 -1.1399  0.0942  0.5417
  415MOL0     C54703   0.542   4.538   3.216 -0.6380 -0.5924 -0.0035
  415MOL0     C54704   0.409   4.493   3.180  0.3234  0.3631 -0.2473
  415MOL0     C54705   0.359   4.499   3.054 -0.2955 -0.2033  0.3872
  415MOL0     O54706   0.255   4.439   2.989 -0.1701  0.0119 -0.1415
  415MOL0     C54707   0.156   4.383   3.078 -0.1667 -0.6125 -0.3608
  415MOL0     C54708   0.017   4.384   2.995 -0.2877  0.1156 -0.3501
  415MOL0     C54709  -0.049   4.517   2.985 -0.6057 -0.4073  0.3239
  415MOL0     C54710  -0.090   4.593   3.118 -0.1051 -0.3226  0.4211
  415MOL0     C54711   0.014   4.655   3.203  0.3511  0.5994  0.0245
  415MOL0     C54712   0.095   4.726   3.262  0.8928  0.1454 -0.2316
  415MOL0     C54713   0.441   4.564   2.960  0.2062 -0.0924  0.3869
  415MOL0     C54714   0.559   4.620   2.993  0.3666 -0.9820 -0.2578
  415MOL0     H54715   0.856   4.892   3.298 -2.0535 -3.2433  0.8427
  415MOL0     H54716   1.053   4.979   3.451  0.2715 -1.0438  1.5620
  415MOL0     H54717   1.288   4.674   3.643 -2.4308  0.0176 -0.7356
  415MOL0     H54718   1.201   4.796   3.737  2.9158 -1.1362  2.7751
  415MOL0     H54719   1.429   4.763   3.801 -0.6984  1.4349  2.3664
  415MOL0     H54720   1.407   4.934   3.742 -1.7405 -1.1001  1.7473
  415MOL0     H54721   1.617   4.874   3.646  0.2927 -0.6664  0.1985
  415MOL0     H54722   1.500   4.873   3.518  2.2672 -0.3497 -0.9626
  415MOL0     H54723   1.601   4.624   3.658  1.9288 -1.3164 -1.3611
  415MOL0     H54724   1.495   4.623   3.527  0.1509 -1.6165  0.9980
  415MOL0     H54725   1.653   4.753   3.385 -1.9358  1.4545  2.5672
  415MOL0     H54726   1.685   4.594   3.411 -0.8067  0.0413 -1.4257
  415MOL0     H54727   1.865   4.641   3.582  0.0015 -1.7172 -1.0912
  415MOL0     H54728   1.824   4.820   3.575  0.5177 -1.1355  0.7810
  415MOL0     H54729   1.928   4.652   3.335 -0.9503 -0.6462  1.2275
  415MOL0     H54730   1.891   4.825   3.343 -0.0476  0.1473  0.3799
  415MOL0     H54731   2.076   4.826   3.542  1.8977 -0.9301  0.8705
  415MOL0     H54732   2.126   4.800   3.375  0.1558  0.5279 -0.1991
  415MOL0     H54733   2.184   4.615   3.704 -1.4715 -0.1933  0.2920
  415MOL0     H54734   2.287   4.377   3.758 -2.9956  1.1619 -1.0862
  415MOL0     H54735   2.395   4.324   3.632  1.7716 -0.1387  4.1599
  415MOL0     H54736   2.245   4.139   3.705 -4.1062 -0.2959  3.2176
  415MOL0     H54737   2.189   4.179   3.542 -1.9297 -1.1872  0.3606
  415MOL0     H54738   2.065   4.221   3.810 -2.4096 -3.6397  0.4096
  415MOL0     H54739   1.990   4.308   3.667 -4.4071 -2.9007  0.0536
  415MOL0     H54740   1.888   4.079   3.761  1.2290 -2.2525 -0.1519
  415MOL0     H54741   2.034   4.007   3.706 -1.7825 -0.3483  2.8000
  415MOL0     H54742   1.760   4.268   3.699  1.9313  0.0079 -0.4220
  415MOL0     H54743   1.585   4.402   3.606  1.4621  0.6149  0.6822
  415MOL0     H54744   1.374   4.273   3.014  2.0754  1.1087 -0.7158
  415MOL0     H54745   1.209   4.388   2.861  0.4975 -1.8838  0.4682
  415MOL0     H54746   1.012   4.722   3.004  1.6527 -2.7857  1.0644
  415MOL0     H54747   0.987   4.559   2.949  1.4375 -2.9632 -5.6141
  415MOL0     H54748   0.828   4.686   2.837  0.2602 -2.6970  0.2590
  415MOL0     H54749   0.949   4.632   2.715  1.8610  0.3093 -0.7015
  415MOL0     H54750   1.054   4.867   2.748 -0.4218  1.7977 -1.0542
  415MOL0     H54751   0.927   4.913   2.851  1.5957 -0.0410 -0.1236
  415MOL0     H54752   0.893   4.855   2.563  1.5259 -2.3347  1.2625
  415MOL0     H54753   0.766   4.852   2.686 -1.2686  1.6838 -1.5935
  415MOL0     H54754   0.974   5.076   2.634  0.5020  0.1771  0.7427
  415MOL0     H54755   0.836   5.100   2.747  1.3845 -3.0144  2.8091
  415MOL0     H54756   0.809   5.043   2.439 -2.5714 -1.4544 -0.3883
  415MOL0     H54757   0.813   5.206   2.506  0.3374 -0.8896 -0.0990
  415MOL0     H54758   0.605   5.045   2.632  0.6944 -0.2050  0.5183
  415MOL0     H54759   0.606   5.203   2.580 -0.0292 -1.5753  3.8134
  415MOL0     H54760   0.627   5.018   2.342 -1.0589 -5.1206  0.9665
  415MOL0     H54761   0.485   5.117   2.389  0.5360  0.3731  0.2103
  415MOL0     H54762   1.259   4.747   3.088 -0.4274 -0.6678  2.0595
  415MOL0     H54763   1.411   4.624   3.249  2.7777  0.7991 -1.0189
  415MOL0     H54764   1.631   4.167   3.231  0.8793 -1.2627  0.3857
  415MOL0     H54765   1.806   4.061   3.310  1.3972 -0.0091  1.0251
  415MOL0     H54766   1.202   4.598   3.491 -0.3200  0.3425  0.8326
  415MOL0     H54767   1.018   4.500   3.344  0.5195  1.3865 -0.3989
  415MOL0     H54768   0.571   4.542   3.320 -0.2253 -2.1638 -0.0340
  415MOL0     H54769   0.352   4.442   3.257  1.0645 -2.4163 -1.4143
  415MOL0     H54770   0.143   4.449   3.164 -2.1178 -0.6685 -0.5509
  415MOL0     H54771   0.190   4.286   3.114  3.3617  1.2057  1.7249
  415MOL0     H54772   0.041   4.358   2.891  1.6654  1.3902 -0.2686
  415MOL0     H54773  -0.054   4.315   3.043  0.5138 -0.3871  0.1404
  415MOL0     H54774  -0.149   4.510   2.940  0.2322 -2.4237 -1.3556
  415MOL0     H54775   0.014   4.567   2.911  1.6464 -0.8812  1.8195
  415MOL0     H54776  -0.162   4.671   3.093 -2.3385 -1.9424  1.4829
  415MOL0     H54777  -0.140   4.520   3.182  0.3106 -1.3761 -0.4135
  415MOL0     H54778   0.169   4.777   3.321  0.8619 -2.5109  2.3586
  415MOL0     H54779   0.408   4.558   2.857 -2.9807 -1.4150  1.3527
  415MOL0     H54780   0.614   4.673   2.916  1.8338 -4.3918 -1.7247
  416MOL0     O54781   2.802   1.704   5.969  0.1271  0.8283  0.7594
  416MOL0     C54782   2.701   1.766   5.943  0.2420 -0.5669  0.8016
  416MOL0     O54783   2.687   1.903   5.959 -0.1215 -0.0405  0.5749
  416MOL0     C54784   2.779   1.957   6.052  0.4987 -1.2546 -0.2245
  416MOL0     C54785   2.915   1.966   6.035  0.1778 -0.6027 -0.0140
  416MOL0     C54786   2.997   2.014   6.140 -0.4381 -0.8293  0.4453
  416MOL0     C54787   2.939   2.072   6.258 -0.3889  1.2539  0.2602
  416MOL0     O54788   3.023   2.118   6.358  0.3200 -0.0949 -0.2366
  416MOL0     C54789   2.967   2.163   6.481  0.9087 -1.0511 -0.2907
  416MOL0     C54790   3.091   2.146   6.577 -0.7292  0.0764  0.4243
  416MOL0     C54791   3.059   2.219   6.719  0.0775  0.7647 -0.1441
  416MOL0     C54792   3.132   2.128   6.817  0.6470  0.9313 -0.9073
  416MOL0     C54793   3.161   2.193   6.955 -0.6495 -0.1391  0.1450
  416MOL0     C54794   3.232   2.089   7.043  0.9622  0.8099 -0.1594
  416MOL0     C54795   3.245   2.148   7.188  0.0601 -0.0003 -1.3392
  416MOL0     C54796   3.295   2.042   7.294 -0.3320 -0.4823 -0.7916
  416MOL0     N54797   3.273   2.085   7.425 -0.0604  1.2392  0.8139
  416MOL0     C54798   3.367   2.153   7.500  0.7355  1.2618  0.4141
  416MOL0     C54799   3.311   2.140   7.623  0.4965  0.8271  0.1011
  416MOL0     C54800   3.371   2.174   7.750  0.5266 -0.0775  0.4325
  416MOL0     C54801   3.303   2.308   7.816 -0.2116 -0.3565  0.7130
  416MOL0     C54802   3.352   2.329   7.960 -0.7149 -0.6540  0.9573
  416MOL0     C54803   3.308   2.463   8.021 -0.3628  0.3942  0.0498
  416MOL0     O54804   3.169   2.508   8.032  0.0107 -0.0500 -0.6154
  416MOL0     C54805   3.090   2.463   8.131 -0.2995 -0.1769  0.5916
  416MOL0     C54806   3.119   2.354   8.214  0.1312  0.0628  0.0566
  416MOL0     C54807   3.028   2.316   8.315  0.3055 -0.0348  0.1863
  416MOL0     C54808   2.900   2.369   8.319 -0.1667  0.2761 -0.0720
  416MOL0     C54809   2.793   2.330   8.416  0.0313 -0.0598 -0.1587
  416MOL0     O54810   2.666   2.381   8.380  0.6326  0.2966  0.4175
  416MOL0     C54811   2.567   2.341   8.460  0.3709 -0.3524 -0.6817
  416MOL0     C54812   2.473   2.240   8.421 -0.2629 -0.4191  0.9686
  416MOL0     C54813   2.365   2.221   8.505  0.7811  0.2826  0.6080
  416MOL0     C54814   2.344   2.290   8.627  0.0165  0.4341 -0.3691
  416MOL0     O54815   2.231   2.256   8.704  0.0867  0.1720 -0.0995
  416MOL0     C54816   2.114   2.314   8.650  0.1231  0.2723 -0.3318
  416MOL0     C54817   2.017   2.377   8.755  0.8787  0.4184 -0.9294
  416MOL0     C54818   1.927   2.265   8.807 -0.0322 -0.5007 -0.6214
  416MOL0     C54819   1.860   2.323   8.934 -0.2255 -0.0753 -0.4388
  416MOL0     C54820   1.733   2.410   8.903  0.2181  0.2116  0.8315
  416MOL0     C54821   1.653   2.434   9.035  0.4232 -0.1231 -0.1150
  416MOL0     C54822   1.499   2.418   9.003 -0.9226  0.9127  0.9679
  416MOL0     C54823   1.405   2.462   9.105  0.1150 -0.1954 -0.5050
  416MOL0    Cl54824   1.443   2.362   9.255  0.1803 -0.2078 -0.3064
  416MOL0     C54825   2.432   2.389   8.661 -0.7022  0.6973 -0.0381
  416MOL0     C54826   2.545   2.413   8.582  0.8704  0.1553  0.1785
  416MOL0     O54827   2.822   2.266   8.512 -0.1375  0.6474  0.2863
  416MOL0     C54828   2.876   2.477   8.227  0.6710  1.0474  0.2218
  416MOL0     C54829   2.965   2.511   8.132 -0.0127  0.2598  0.2493
  416MOL0     N54830   3.183   2.079   7.618 -0.7892 -0.9003 -1.0075
  416MOL0     N54831   3.165   2.034   7.502  0.4714 -0.0311  0.6403
  416MOL0     C54832   2.799   2.072   6.271  0.8100  0.9580  0.3373
  416MOL0     C54833   2.713   2.018   6.170 -1.0113  0.2297  0.8393
  416MOL0     C54834   2.576   1.696   5.920  0.0368 -0.8329  0.1131
  416MOL0     C54835   2.554   1.556   5.921  0.2249 -1.0308  0.1821
  416MOL0     C54836   2.424   1.505   5.882  0.7371  0.0047 -1.6594
  416MOL0     C54837   2.314   1.585   5.856 -0.9027 -0.1984  0.0823
  416MOL0     O54838   2.187   1.535   5.826 -0.4780 -0.1367  0.6439
  416MOL0     C54839   2.160   1.401   5.870 -0.6061  0.3607 -0.2573
  416MOL0     C54840   2.015   1.401   5.922 -0.0964 -0.1387  0.7280
  416MOL0     C54841   2.001   1.498   6.037  0.5002 -0.7588  0.0555
  416MOL0     C54842   2.094   1.477   6.156 -0.0256 -0.5391  0.2689
  416MOL0     C54843   2.063   1.360   6.237 -0.3632  0.9520  0.1362
  416MOL0     C54844   2.037   1.260   6.302  0.3761  1.2281 -0.2266
  416MOL0     C54845   2.328   1.716   5.864  0.9120 -0.3557  0.5082
  416MOL0     C54846   2.454   1.771   5.904  0.9735 -0.6748  0.5700
  416MOL0     H54847   2.968   1.912   5.957  2.8908  0.7552  0.7671
  416MOL0     H54848   3.104   2.013   6.121 -0.8177 -1.5394 -1.9349
  416MOL0     H54849   2.883   2.113   6.530  2.7029  0.5347  5.0176
  416MOL0     H54850   2.943   2.270   6.476 -0.0108 -1.2415 -0.1295
  416MOL0     H54851   3.162   2.214   6.528 -3.8433  2.3625 -1.3384
  416MOL0     H54852   3.122   2.042   6.588 -0.7170 -0.0667 -0.8476
  416MOL0     H54853   2.951   2.217   6.737 -0.2623  1.1209 -1.9257
  416MOL0     H54854   3.101   2.319   6.724 -0.7502  1.0838  0.8511
  416MOL0     H54855   3.094   2.027   6.836  0.9416  1.2827  2.1420
  416MOL0     H54856   3.237   2.125   6.787  1.3288 -0.5015  1.3177
  416MOL0     H54857   3.076   2.237   7.008  0.2926  0.1997  1.4194
  416MOL0     H54858   3.225   2.281   6.943  0.7417 -0.6236  3.1476
  416MOL0     H54859   3.333   2.070   7.006  0.8403  1.0624 -0.6329
  416MOL0     H54860   3.173   1.998   7.045 -1.9875  2.6086  0.8060
  416MOL0     H54861   3.300   2.242   7.194  1.8538 -1.1102  0.9083
  416MOL0     H54862   3.139   2.165   7.211  0.6003 -0.1778  1.5775
  416MOL0     H54863   3.403   2.025   7.292  0.4623  3.2239  1.3288
  416MOL0     H54864   3.243   1.946   7.282 -2.4228 -0.2877  4.3511
  416MOL0     H54865   3.463   2.190   7.466  2.3369 -3.1552 -0.4673
  416MOL0     H54866   3.477   2.199   7.741  0.2220  2.9436  3.2871
  416MOL0     H54867   3.374   2.085   7.814 -0.2736  0.1422  0.7894
  416MOL0     H54868   3.194   2.309   7.805 -0.3877  2.2393  1.9458
  416MOL0     H54869   3.324   2.395   7.753  5.4762 -1.9446 -0.0921
  416MOL0     H54870   3.310   2.259   8.033 -0.3474  2.3023  4.2978
  416MOL0     H54871   3.459   2.308   7.957 -0.6589 -0.3778 -1.9541
  416MOL0     H54872   3.367   2.529   7.956 -1.2017 -1.8384 -3.2593
  416MOL0     H54873   3.340   2.458   8.125 -0.7417  1.1856  0.2080
  416MOL0     H54874   3.221   2.318   8.224 -0.4286 -1.1347  1.8981
  416MOL0     H54875   3.048   2.253   8.400 -0.1036 -0.2522  0.1266
  416MOL0     H54876   2.474   2.185   8.328 -1.6922 -1.9439  1.7853
  416MOL0     H54877   2.280   2.167   8.463  1.4846  0.8901 -1.7281
  416MOL0     H54878   2.063   2.240   8.588  1.7741 -2.4327  1.3232
  416MOL0     H54879   2.145   2.387   8.575  0.7153  0.1318 -0.2333
  416MOL0     H54880   1.952   2.446   8.702  0.5353 -2.6995 -5.0724
  416MOL0     H54881   2.065   2.440   8.831  0.1435 -0.9606  0.7475
  416MOL0     H54882   1.989   2.184   8.847  2.0744  2.2858  2.3209
  416MOL0     H54883   1.849   2.239   8.735 -0.1446 -1.4736 -0.1579
  416MOL0     H54884   1.840   2.231   8.990  1.2900  1.2559  2.4722
  416MOL0     H54885   1.931   2.379   8.995  2.3045 -1.6334 -1.7742
  416MOL0     H54886   1.668   2.351   8.837 -1.6079  0.1953  2.5470
  416MOL0     H54887   1.762   2.506   8.859 -0.2424 -0.4424 -0.9866
  416MOL0     H54888   1.682   2.535   9.066  0.9603  0.1580 -1.4778
  416MOL0     H54889   1.678   2.360   9.112 -0.9188  0.1581  0.6236
  416MOL0     H54890   1.474   2.461   8.906 -1.2770  0.5340  0.8891
  416MOL0     H54891   1.476   2.311   8.992  2.5548  0.3046 -5.4667
  416MOL0     H54892   1.299   2.440   9.089  0.2321 -4.3034  2.8065
  416MOL0     H54893   1.423   2.570   9.108  0.5998 -0.2835 -0.2175
  416MOL0     H54894   2.420   2.444   8.753  1.1866 -0.1127  0.7344
  416MOL0     H54895   2.619   2.486   8.613 -0.4779  1.4463  0.4988
  416MOL0     H54896   2.788   2.540   8.236  0.4186  0.7029  0.2044
  416MOL0     H54897   2.939   2.584   8.056 -0.6852 -0.2074  0.0312
  416MOL0     H54898   2.751   2.112   6.359  0.9409  0.1502  0.7831
  416MOL0     H54899   2.605   2.018   6.176 -0.9756 -0.4904  1.5936
  416MOL0     H54900   2.641   1.490   5.925  0.4010 -1.0947 -2.4402
  416MOL0     H54901   2.420   1.397   5.871  1.6083 -0.0896 -1.1545
  416MOL0     H54902   2.222   1.361   5.950  0.0294  0.0353 -0.9030
  416MOL0     H54903   2.173   1.330   5.788 -2.0226 -2.6942  1.9879
  416MOL0     H54904   1.952   1.432   5.838  1.8467  0.2390 -0.6701
  416MOL0     H54905   1.998   1.298   5.954 -0.2723 -0.7541 -1.1652
  416MOL0     H54906   1.896   1.496   6.066  0.8384  2.2142  1.9278
  416MOL0     H54907   2.033   1.592   5.992  1.5446 -1.6965 -1.2587
  416MOL0     H54908   2.200   1.486   6.128  0.1163 -0.9090  0.6727
  416MOL0     H54909   2.070   1.560   6.223 -3.0850 -1.2317  0.1638
  416MOL0     H54910   1.987   1.186   6.361  4.2088  1.6864  4.0831
  416MOL0     H54911   2.253   1.789   5.835  1.5998 -0.1039 -0.6705
  416MOL0     H54912   2.443   1.879   5.909  0.9679 -0.5998 -0.7610
  417MOL0     O54913   7.573  10.919   1.929  0.6546  0.4176 -0.1092
  417MOL0     C54914   7.510  10.870   1.837 -0.1480  0.1676  0.3342
  417MOL0     O54915   7.394  10.918   1.787 -0.0105 -0.1967 -0.2471
  417MOL0     C54916   7.345  11.034   1.852 -0.2782  0.3011 -0.7125
  417MOL0     C54917   7.372  11.163   1.798  0.4160  0.6004  0.6827
  417MOL0     C54918   7.340  11.270   1.874 -0.2649 -0.2045 -0.6053
  417MOL0     C54919   7.266  11.261   1.991  0.7958  1.3780  0.2119
  417MOL0     O54920   7.269  11.368   2.077 -0.6417  0.2067 -0.6692
  417MOL0     C54921   7.152  11.448   2.100 -0.1289  0.4434 -0.4017
  417MOL0     C54922   7.119  11.448   2.250  0.2876  0.3297  0.7296
  417MOL0     C54923   7.226  11.520   2.321 -0.8197 -0.8769 -1.4065
  417MOL0     C54924   7.176  11.583   2.455 -0.3557  0.3047  0.1357
  417MOL0     C54925   7.147  11.484   2.569 -0.3638  0.1933  0.5708
  417MOL0     C54926   7.101  11.558   2.699 -0.9063  0.8826 -0.6570
  417MOL0     C54927   7.038  11.460   2.788 -0.3409  0.1149 -1.0540
  417MOL0     C54928   6.972  11.519   2.909 -0.3457 -0.0392 -0.1342
  417MOL0     N54929   7.065  11.563   3.014 -0.5771 -0.4589  0.6926
  417MOL0     C54930   7.182  11.504   3.049 -0.0739  0.2557  0.7467
  417MOL0     C54931   7.253  11.597   3.127 -0.0525  0.8096 -0.6628
  417MOL0     C54932   7.394  11.577   3.187 -0.8477 -0.7822 -0.9265
  417MOL0     C54933   7.494  11.651   3.100  0.0314  0.3011 -0.5795
  417MOL0     C54934   7.638  11.606   3.122 -0.2994 -0.3701 -0.4028
  417MOL0     C54935   7.742  11.687   3.037  0.7674 -0.0693  0.0293
  417MOL0     O54936   7.867  11.640   3.078 -0.2838  0.0507  0.1349
  417MOL0     C54937   7.979  11.670   3.006 -0.2553  0.1246  0.5058
  417MOL0     C54938   7.988  11.760   2.897  1.0635  0.2219  1.2582
  417MOL0     C54939   8.103  11.781   2.824 -0.1207  0.4728  0.3345
  417MOL0     C54940   8.216  11.702   2.840 -0.3538  0.8019  0.1263
  417MOL0     C54941   8.334  11.735   2.769 -0.9961 -0.5084  0.1565
  417MOL0     O54942   8.323  11.809   2.650  0.4183  0.0211 -0.6563
  417MOL0     C54943   8.433  11.854   2.582  0.5678 -0.1647  0.2536
  417MOL0     C54944   8.553  11.779   2.565 -0.2631 -0.2569  0.5103
  417MOL0     C54945   8.657  11.834   2.496 -0.5945 -0.4680 -0.2837
  417MOL0     C54946   8.636  11.968   2.434  0.3860  0.1303 -0.5544
  417MOL0     O54947   8.731  12.028   2.357  0.5860 -0.3591  0.1138
  417MOL0     C54948   8.818  11.946   2.288 -0.2772 -0.3268  0.8275
  417MOL0     C54949   8.910  12.025   2.185 -0.1621  0.0784 -0.0826
  417MOL0     C54950   8.816  12.104   2.089 -0.1173 -0.3127 -0.7640
  417MOL0     C54951   8.910  12.169   1.976  0.1873  0.4422 -0.2873
  417MOL0     C54952   8.979  12.061   1.891 -0.7033  0.7798  0.3933
  417MOL0     C54953   9.043  12.118   1.761  0.4187  0.1217  0.0742
  417MOL0     C54954   9.139  12.018   1.688 -0.0131 -0.4285  0.5379
  417MOL0     C54955   9.219  12.085   1.581  0.3349  0.3340 -0.7542
  417MOL0    Cl54956   9.334  11.971   1.525  0.2178 -0.1948 -0.1213
  417MOL0     C54957   8.511  12.034   2.458 -0.2483 -0.5454 -0.8787
  417MOL0     C54958   8.411  11.979   2.527  1.1356  0.3565 -0.3114
  417MOL0     O54959   8.439  11.702   2.811 -0.2329  0.9370 -0.4343
  417MOL0     C54960   8.211  11.602   2.944 -0.2560  0.0047 -0.0025
  417MOL0     C54961   8.094  11.595   3.026 -0.3763 -0.2675 -0.4244
  417MOL0     N54962   7.170  11.706   3.145  0.3765 -0.2127  0.3786
  417MOL0     N54963   7.066  11.687   3.069 -0.1141 -0.0751 -0.4845
  417MOL0     C54964   7.223  11.130   2.038  0.1349  0.7495 -0.2330
  417MOL0     C54965   7.259  11.017   1.964  0.5075  1.0462  0.4155
  417MOL0     C54966   7.570  10.742   1.778 -0.3873  1.0373  0.7389
  417MOL0     C54967   7.699  10.707   1.807 -0.2016  0.0663 -0.2238
  417MOL0     C54968   7.760  10.594   1.759 -0.0219  0.4956 -0.3397
  417MOL0     C54969   7.691  10.509   1.667 -0.2946 -0.8855 -0.7729
  417MOL0     O54970   7.759  10.401   1.611  0.1530  0.1946  0.3802
  417MOL0     C54971   7.757  10.379   1.467  0.3374 -0.7428  0.2526
  417MOL0     C54972   7.782  10.232   1.449  0.7568  0.9957 -0.2977
  417MOL0     C54973   7.823  10.173   1.303 -0.2430 -1.1998 -0.5676
  417MOL0     C54974   7.707  10.148   1.199  0.6000  0.1818 -0.6712
  417MOL0     C54975   7.650  10.278   1.165 -0.0816  0.4173 -0.6617
  417MOL0     C54976   7.602  10.379   1.129  0.3337  0.1291 -0.5120
  417MOL0     C54977   7.557  10.531   1.659  0.1412  0.2411  0.6556
  417MOL0     C54978   7.489  10.646   1.707 -0.3149  0.4963 -0.4590
  417MOL0     H54979   7.411  11.187   1.700 -1.2866  2.9266  0.5103
  417MOL0     H54980   7.383  11.368   1.858 -2.6001  0.7174 -1.6186
  417MOL0     H54981   7.066  11.429   2.035 -1.3815  3.1795  0.3079
  417MOL0     H54982   7.183  11.550   2.073  1.6118  0.1610  0.3993
  417MOL0     H54983   7.107  11.345   2.283  0.4639 -0.2199 -0.8304
  417MOL0     H54984   7.019  11.491   2.263 -1.6400 -4.0728  2.1650
  417MOL0     H54985   7.263  11.608   2.268 -1.5347  1.3757  1.5887
  417MOL0     H54986   7.311  11.453   2.340 -1.1659 -0.8330  0.4669
  417MOL0     H54987   7.252  11.650   2.495 -1.1773  0.2257  1.9199
  417MOL0     H54988   7.106  11.662   2.428  2.4990  3.5672  1.5884
  417MOL0     H54989   7.239  11.427   2.580 -0.7722 -1.0000 -1.6273
  417MOL0     H54990   7.073  11.410   2.536  0.1816 -0.2246  0.2871
  417MOL0     H54991   7.033  11.638   2.667 -1.2362  1.0834  0.4972
  417MOL0     H54992   7.181  11.605   2.755 -0.3408 -2.1168  1.2876
  417MOL0     H54993   6.965  11.407   2.726  0.3006 -1.3321 -0.6311
  417MOL0     H54994   7.110  11.383   2.815 -0.3632  1.3716  3.2678
  417MOL0     H54995   6.891  11.453   2.942 -3.2573  0.8879 -4.5703
  417MOL0     H54996   6.927  11.613   2.876  2.1690  0.4173 -2.5451
  417MOL0     H54997   7.226  11.409   3.018  0.1823  1.2877 -2.3345
  417MOL0     H54998   7.433  11.476   3.198  1.5342 -0.0322 -1.8454
  417MOL0     H54999   7.383  11.615   3.289 -3.5161 -0.1785 -1.3386
  417MOL0     H55000   7.483  11.756   3.127 -0.4909  0.5865 -1.8302
  417MOL0     H55001   7.471  11.647   2.993  1.4908 -0.4880 -0.8897
  417MOL0     H55002   7.661  11.606   3.229  1.8744 -3.0059 -0.7620
  417MOL0     H55003   7.626  11.504   3.085 -2.9747  0.7213 -2.9107
  417MOL0     H55004   7.746  11.792   3.067  0.8178  0.0822 -0.4939
  417MOL0     H55005   7.713  11.663   2.934  0.6951 -2.9095  0.6450
  417MOL0     H55006   7.897  11.816   2.877 -0.2101 -1.2149  2.6848
  417MOL0     H55007   8.100  11.871   2.762 -1.2446 -0.5825 -1.2208
  417MOL0     H55008   8.560  11.675   2.596  1.4123 -0.6880 -1.1437
  417MOL0     H55009   8.753  11.788   2.475  1.0835  0.8470  3.6539
  417MOL0     H55010   8.765  11.869   2.231 -0.5973  0.5017 -0.0332
  417MOL0     H55011   8.888  11.883   2.343 -1.3249 -1.8080  0.5455
  417MOL0     H55012   8.964  11.941   2.140 -2.1167 -1.7288  0.7372
  417MOL0     H55013   8.985  12.090   2.230  0.0228  1.4798 -2.2794
  417MOL0     H55014   8.776  12.177   2.159  0.6250 -2.9722  2.7207
  417MOL0     H55015   8.737  12.038   2.053 -0.8900  0.7089 -0.9890
  417MOL0     H55016   8.837  12.218   1.911 -1.2992 -0.8233  0.3472
  417MOL0     H55017   8.974  12.244   2.023 -3.4384  1.6725  3.2495
  417MOL0     H55018   8.915  11.975   1.868  0.2378 -0.3401  1.7693
  417MOL0     H55019   9.056  12.021   1.957  1.8330  0.2734 -2.6277
  417MOL0     H55020   9.107  12.203   1.785 -1.4368  2.2245 -2.0070
  417MOL0     H55021   8.957  12.150   1.702 -0.4914 -2.7189 -0.2839
  417MOL0     H55022   9.208  11.967   1.756  0.1249 -2.6110 -1.1174
  417MOL0     H55023   9.080  11.935   1.648 -1.7531 -0.0283  2.1582
  417MOL0     H55024   9.283  12.168   1.610 -0.7413  0.2342  2.3346
  417MOL0     H55025   9.154  12.128   1.506  0.5728  0.7031 -0.7479
  417MOL0     H55026   8.507  12.137   2.427  0.6082 -0.5554 -1.0327
  417MOL0     H55027   8.320  12.033   2.549  1.7607  1.1733  0.3633
  417MOL0     H55028   8.298  11.542   2.969 -0.2809 -0.2956 -0.6200
  417MOL0     H55029   8.111  11.524   3.106  2.8965 -0.4869 -1.1557
  417MOL0     H55030   7.173  11.132   2.135 -0.8296 -2.2892 -0.5498
  417MOL0     H55031   7.237  10.917   1.998 -0.0031 -0.0894 -2.9094
  417MOL0     H55032   7.755  10.782   1.860 -0.8263 -0.1051  0.7076
  417MOL0     H55033   7.862  10.564   1.782 -0.0559  1.5298  1.3894
  417MOL0     H55034   7.832  10.449   1.428  1.0060  0.9561  4.1055
  417MOL0     H55035   7.658  10.406   1.429 -0.8505 -4.2511  0.4814
  417MOL0     H55036   7.864  10.212   1.519  1.1573 -0.2629 -1.0888
  417MOL0     H55037   7.692  10.181   1.486  1.2776  1.1021  1.1614
  417MOL0     H55038   7.861  10.071   1.305  3.5638 -0.0060 -2.7238
  417MOL0     H55039   7.899  10.241   1.264 -1.2739  1.9310  2.3727
  417MOL0     H55040   7.751  10.104   1.109 -1.7402 -0.6114 -1.4961
  417MOL0     H55041   7.632  10.077   1.232  3.6099 -2.1201  1.8197
  417MOL0     H55042   7.539  10.458   1.093 -1.2334 -1.9780 -2.7381
  417MOL0     H55043   7.498  10.461   1.599 -0.1611  0.8633  0.2164
  417MOL0     H55044   7.381  10.656   1.700 -0.4201 -1.6685 -3.2484
  418MOL0     O55045   9.831   0.533   0.800 -0.3276 -0.1025 -0.1338
  418MOL0     C55046   9.881   0.606   0.876 -0.5207 -0.5602 -0.1083
  418MOL0     O55047   9.820   0.659   0.993  0.1065  0.0627  0.3591
  418MOL0     C55048   9.685   0.645   1.030  0.1761 -0.2779 -0.4645
  418MOL0     C55049   9.576   0.580   0.959 -0.7914 -0.0370  1.1100
  418MOL0     C55050   9.446   0.589   1.002  0.3530  0.2147 -0.1207
  418MOL0     C55051   9.407   0.655   1.123 -0.0369 -0.3955 -0.1966
  418MOL0     O55052   9.282   0.682   1.166  0.0163  0.4102 -0.0743
  418MOL0     C55053   9.168   0.693   1.080 -0.2095 -0.1487  0.4935
  418MOL0     C55054   9.050   0.730   1.174 -0.1438 -0.0800  0.2901
  418MOL0     C55055   9.013   0.626   1.278 -0.3832  0.2777 -0.5144
  418MOL0     C55056   8.869   0.616   1.303 -0.3474 -1.0758 -0.6538
  418MOL0     C55057   8.839   0.598   1.461 -0.0589  0.3524  0.0233
  418MOL0     C55058   8.701   0.637   1.479  0.5360 -0.3772 -0.6663
  418MOL0     C55059   8.672   0.622   1.631  0.6290  0.4177  0.4247
  418MOL0     C55060   8.535   0.695   1.664  0.2506 -0.4024  0.9418
  418MOL0     N55061   8.502   0.701   1.805 -0.0696  0.8121  0.2909
  418MOL0     C55062   8.455   0.605   1.879 -0.9476  1.2084  0.3733
  418MOL0     C55063   8.445   0.655   2.007  0.2384 -0.5269  0.6928
  418MOL0     C55064   8.386   0.600   2.136 -0.2607  0.1375  0.2892
  418MOL0     C55065   8.261   0.647   2.208  0.2885  0.5401  0.1517
  418MOL0     C55066   8.167   0.525   2.240  0.4640  0.3992  0.0574
  418MOL0     C55067   8.037   0.596   2.290 -0.6083  0.8396  0.4401
  418MOL0     O55068   7.945   0.491   2.330  0.1165  0.6365  0.2922
  418MOL0     C55069   7.819   0.538   2.358 -0.1771 -1.1515 -0.0946
  418MOL0     C55070   7.780   0.676   2.400  0.1838 -0.4818  0.3350
  418MOL0     C55071   7.640   0.712   2.411 -0.1877 -0.2455 -0.4436
  418MOL0     C55072   7.543   0.619   2.382  0.3305 -0.7694 -1.3397
  418MOL0     C55073   7.403   0.661   2.386 -0.5801 -0.0614  0.7609
  418MOL0     O55074   7.327   0.590   2.303  0.5040  0.1901 -0.0491
  418MOL0     C55075   7.205   0.629   2.258  0.0827 -0.4775 -0.8316
  418MOL0     C55076   7.145   0.757   2.275 -0.4160  0.5805  0.3156
  418MOL0     C55077   7.019   0.792   2.222  0.5953  0.1087 -0.8132
  418MOL0     C55078   6.961   0.695   2.137 -0.0404 -0.3549  0.0258
  418MOL0     O55079   6.849   0.735   2.067 -0.5780 -0.2549 -0.7844
  418MOL0     C55080   6.823   0.679   1.942 -0.6533  0.5447  0.7990
  418MOL0     C55081   6.745   0.800   1.861 -0.4830 -0.5482  0.1936
  418MOL0     C55082   6.837   0.915   1.801 -0.2616  0.1871 -0.1787
  418MOL0     C55083   6.927   0.983   1.913 -0.3000  0.2338  0.3847
  418MOL0     C55084   6.990   1.111   1.876  0.0098  0.0878  0.3152
  418MOL0     C55085   7.003   1.208   1.991 -0.1935  0.4941  0.2571
  418MOL0     C55086   7.132   1.293   1.989  0.3536 -0.6320 -0.5107
  418MOL0     C55087   7.143   1.396   1.873 -0.1874  0.5699  0.1347
  418MOL0    Cl55088   7.032   1.527   1.904 -0.4877 -0.0922  0.6779
  418MOL0     C55089   7.015   0.568   2.120 -0.9506 -0.0455 -0.7830
  418MOL0     C55090   7.133   0.537   2.180  0.3475  0.5113  0.0653
  418MOL0     O55091   7.369   0.764   2.450 -0.1145 -0.1899 -0.9388
  418MOL0     C55092   7.586   0.488   2.353 -0.1645  0.6325 -0.2713
  418MOL0     C55093   7.716   0.450   2.348 -0.0245 -0.2263  1.0190
  418MOL0     N55094   8.502   0.778   2.003  0.6960  0.4346 -0.5918
  418MOL0     N55095   8.538   0.805   1.885  0.6286 -0.3360 -0.3463
  418MOL0     C55096   9.514   0.708   1.200 -0.8257 -0.3740  0.6867
  418MOL0     C55097   9.646   0.705   1.151 -0.5811 -0.3418 -0.0491
  418MOL0     C55098  10.018   0.650   0.850  1.2025 -0.9768 -0.4977
  418MOL0     C55099  10.076   0.766   0.901 -0.4941  0.8115  0.5421
  418MOL0     C55100  10.211   0.804   0.883  0.1621  0.5083  0.3392
  418MOL0     C55101  10.293   0.710   0.803  0.3113 -1.2059 -0.9098
  418MOL0     O55102  10.427   0.740   0.804 -0.3014 -0.0903  0.3997
  418MOL0     C55103  10.508   0.647   0.733 -0.6540  0.0277  0.2678
  418MOL0     C55104  10.653   0.681   0.743 -0.1146 -0.3459  0.1613
  418MOL0     C55105  10.671   0.824   0.704  0.2816  0.1012 -0.3155
  418MOL0     C55106  10.822   0.868   0.689 -0.5103 -0.8172 -0.0179
  418MOL0     C55107  10.882   0.800   0.584  0.3018  1.5365 -0.0698
  418MOL0     C55108  10.940   0.735   0.497 -0.5732 -0.8793  0.1716
  418MOL0     C55109  10.235   0.595   0.743 -0.0989  0.1706 -0.5778
  418MOL0     C55110  10.100   0.567   0.766  0.4054 -0.2476 -0.4007
  418MOL0     H55111   9.589   0.515   0.873 -3.8105 -0.5237  0.9053
  418MOL0     H55112   9.375   0.537   0.938 -1.9082  2.1382  0.6952
  418MOL0     H55113   9.154   0.608   1.012 -0.3467  0.7358 -0.6182
  418MOL0     H55114   9.177   0.792   1.033  0.2381  1.5736  3.9109
  418MOL0     H55115   8.964   0.748   1.108 -0.9444 -0.6872  1.1424
  418MOL0     H55116   9.072   0.818   1.235 -3.5123 -0.0983  1.7843
  418MOL0     H55117   9.057   0.651   1.374  0.2741  0.9463 -0.9748
  418MOL0     H55118   9.042   0.523   1.251  3.4495  1.2934 -0.9035
  418MOL0     H55119   8.816   0.703   1.264 -1.7646 -1.9110 -0.6806
  418MOL0     H55120   8.823   0.530   1.252 -1.8607  0.2992 -1.7079
  418MOL0     H55121   8.905   0.658   1.525  0.7041 -1.6050  1.1486
  418MOL0     H55122   8.854   0.495   1.493  2.8558  0.2372 -1.3629
  418MOL0     H55123   8.634   0.579   1.416  0.1507 -3.0436  1.9806
  418MOL0     H55124   8.683   0.744   1.462  0.5175 -0.2180  0.2647
  418MOL0     H55125   8.652   0.516   1.652 -0.3143  0.3580 -0.6584
  418MOL0     H55126   8.744   0.667   1.699  0.4033 -0.6082  1.3746
  418MOL0     H55127   8.453   0.648   1.609  1.2507 -2.0495  0.7901
  418MOL0     H55128   8.549   0.797   1.626  1.4012 -1.2620 -1.0822
  418MOL0     H55129   8.422   0.504   1.857  1.1066  0.2122  1.5675
  418MOL0     H55130   8.472   0.613   2.202 -0.0177  1.7417 -0.3033
  418MOL0     H55131   8.377   0.493   2.115  0.8414  0.0160  0.4034
  418MOL0     H55132   8.212   0.710   2.133  1.1541 -0.8210 -1.6739
  418MOL0     H55133   8.276   0.704   2.300  2.5760 -2.8928  2.1420
  418MOL0     H55134   8.138   0.457   2.160  0.7336 -0.7796  0.9221
  418MOL0     H55135   8.218   0.465   2.317  0.4536 -0.0748 -0.3030
  418MOL0     H55136   7.981   0.648   2.211  0.4483 -0.0115 -0.9273
  418MOL0     H55137   8.062   0.656   2.377  1.1687 -0.7401  1.0716
  418MOL0     H55138   7.852   0.757   2.399  1.6942 -1.7558  0.0053
  418MOL0     H55139   7.611   0.807   2.456 -0.0900 -0.9740  1.2181
  418MOL0     H55140   7.198   0.838   2.323  2.0565 -0.9392  0.3130
  418MOL0     H55141   6.965   0.884   2.242 -1.6586 -1.3039  0.0138
  418MOL0     H55142   6.760   0.589   1.948  2.6887 -2.1037 -0.7679
  418MOL0     H55143   6.922   0.665   1.897  1.6770  0.3044  5.4416
  418MOL0     H55144   6.670   0.843   1.929 -1.5604 -0.8229 -0.7986
  418MOL0     H55145   6.696   0.771   1.768  0.6178 -1.0104 -0.2564
  418MOL0     H55146   6.783   0.997   1.754  0.9621 -0.3287 -2.6358
  418MOL0     H55147   6.907   0.882   1.724 -1.1174 -0.0009 -0.8936
  418MOL0     H55148   6.872   0.989   2.007 -0.2119 -2.6921  0.7214
  418MOL0     H55149   7.013   0.918   1.931  0.7551  0.8243 -2.0749
  418MOL0     H55150   6.936   1.168   1.800  1.7532 -0.0592 -1.1021
  418MOL0     H55151   7.087   1.096   1.827  0.9471  1.9955  1.4510
  418MOL0     H55152   7.020   1.155   2.085  0.7210 -0.1345 -0.2445
  418MOL0     H55153   6.914   1.272   1.997  0.1473  0.9230  0.8772
  418MOL0     H55154   7.140   1.342   2.087  1.8140 -1.8845  0.0431
  418MOL0     H55155   7.218   1.225   1.991  1.5345  0.8162  0.4692
  418MOL0     H55156   7.125   1.340   1.780  0.4936  1.9144 -0.8422
  418MOL0     H55157   7.244   1.435   1.881  0.4075 -0.9071  0.1928
  418MOL0     H55158   6.958   0.491   2.070 -0.0858 -1.1900 -0.0480
  418MOL0     H55159   7.153   0.431   2.177  0.7479  0.6071 -1.0779
  418MOL0     H55160   7.508   0.412   2.352 -1.3569  1.7926  0.9222
  418MOL0     H55161   7.742   0.347   2.326  0.7762  0.3780 -1.0311
  418MOL0     H55162   9.497   0.752   1.298 -0.6751  2.4618 -0.4451
  418MOL0     H55163   9.723   0.754   1.209  0.4513 -0.1657 -1.5096
  418MOL0     H55164  10.015   0.812   0.978 -1.4712  1.4094 -0.5566
  418MOL0     H55165  10.256   0.893   0.928 -0.2816  1.1890 -0.5429
  418MOL0     H55166  10.479   0.652   0.628  0.3318 -1.3170 -0.0992
  418MOL0     H55167  10.487   0.542   0.758 -2.1515  0.3172  0.3311
  418MOL0     H55168  10.705   0.657   0.836 -1.1145 -0.1050  0.8091
  418MOL0     H55169  10.716   0.621   0.678 -0.0038 -1.0442  0.8999
  418MOL0     H55170  10.616   0.891   0.770  0.6664  1.4267 -1.2819
  418MOL0     H55171  10.613   0.842   0.613 -3.7060 -3.6923  1.1448
  418MOL0     H55172  10.823   0.974   0.662 -2.7824 -0.6395  0.4598
  418MOL0     H55173  10.871   0.853   0.785 -0.2864  3.3156  0.6936
  418MOL0     H55174  10.998   0.693   0.418 -1.1864  2.1436 -2.0821
  418MOL0     H55175  10.296   0.524   0.688  2.4911 -0.4103  2.6590
  418MOL0     H55176  10.053   0.481   0.720 -1.2376  0.8341 -0.8822
  419MOL0     O55177   1.182   3.369   2.610 -0.6854  0.3184  0.2954
  419MOL0     C55178   1.273   3.429   2.549 -0.3858 -0.2197 -1.4310
  419MOL0     O55179   1.270   3.508   2.438 -0.0038  0.2198 -0.1301
  419MOL0     C55180   1.152   3.535   2.379  0.3004  0.4730 -0.5058
  419MOL0     C55181   1.073   3.428   2.341  0.2267 -0.5434  0.2223
  419MOL0     C55182   0.962   3.446   2.258 -0.2893  0.5067 -0.3002
  419MOL0     C55183   0.906   3.565   2.234 -0.4353 -0.2431  0.3001
  419MOL0     O55184   0.793   3.574   2.154  0.6174  0.2910 -0.2884
  419MOL0     C55185   0.739   3.701   2.116 -0.8245  0.2068  0.6720
  419MOL0     C55186   0.596   3.665   2.061  0.3744  0.1026  0.7780
  419MOL0     C55187   0.619   3.582   1.932  0.4339 -0.7455  0.1118
  419MOL0     C55188   0.489   3.523   1.883 -0.4631 -0.3530 -0.0048
  419MOL0     C55189   0.378   3.629   1.857 -0.7500 -0.8384 -0.8661
  419MOL0     C55190   0.259   3.567   1.790 -0.2708  0.6756  0.1737
  419MOL0     C55191   0.188   3.454   1.872  0.1329 -0.0526 -0.2368
  419MOL0     C55192   0.040   3.418   1.827  0.7124 -0.2005  0.8619
  419MOL0     N55193  -0.052   3.523   1.844 -0.4643 -0.0368  0.1254
  419MOL0     C55194  -0.086   3.588   1.960 -0.1884 -0.5471 -0.1965
  419MOL0     C55195  -0.185   3.678   1.924  1.4207  0.5571 -0.4745
  419MOL0     C55196  -0.279   3.756   2.018 -0.1608 -0.6263  0.0961
  419MOL0     C55197  -0.256   3.905   2.013  0.2516  1.0655 -0.3712
  419MOL0     C55198  -0.110   3.955   2.008  0.1299 -0.0171  0.0379
  419MOL0     C55199  -0.036   3.904   2.136  0.2863 -0.5216 -0.0942
  419MOL0     O55200   0.087   3.986   2.153 -0.3054  0.4015 -0.3437
  419MOL0     C55201   0.202   3.940   2.211  0.2124  0.3774  0.2079
  419MOL0     C55202   0.219   3.806   2.241  0.9423  0.8376  0.1613
  419MOL0     C55203   0.329   3.762   2.323  0.3588  0.0968  0.6979
  419MOL0     C55204   0.429   3.851   2.356  0.4214 -0.2068  0.1437
  419MOL0     C55205   0.552   3.825   2.438 -0.9299 -0.0458 -0.3210
  419MOL0     O55206   0.538   3.734   2.537  0.7368 -0.2895 -0.0955
  419MOL0     C55207   0.641   3.718   2.625 -0.7428  0.2889  0.3765
  419MOL0     C55208   0.749   3.649   2.569 -0.8782  0.2917 -0.5123
  419MOL0     C55209   0.869   3.637   2.638  0.7180  0.0011 -0.7148
  419MOL0     C55210   0.883   3.684   2.777  0.7704  0.0642  0.8538
  419MOL0     O55211   0.988   3.675   2.855 -0.8040  0.0953 -0.4934
  419MOL0     C55212   1.074   3.563   2.840 -0.3620 -0.3587 -1.1095
  419MOL0     C55213   1.177   3.572   2.952  0.1499  0.4046 -0.7168
  419MOL0     C55214   1.240   3.437   2.957 -0.4579 -0.3675  0.2622
  419MOL0     C55215   1.347   3.414   3.061 -0.1224 -0.0973  0.1467
  419MOL0     C55216   1.390   3.269   3.069 -0.2989 -0.2712 -0.3133
  419MOL0     C55217   1.531   3.272   3.134  0.1830  0.8698  0.7104
  419MOL0     C55218   1.565   3.136   3.212 -0.1548 -0.5682  0.3351
  419MOL0     C55219   1.719   3.128   3.219 -0.1550 -0.1154 -0.0233
  419MOL0    Cl55220   1.785   2.993   3.128  0.3173 -0.1777  0.5416
  419MOL0     C55221   0.765   3.737   2.829 -0.3399 -0.4287 -0.2521
  419MOL0     C55222   0.647   3.757   2.754 -0.0266  0.2530 -0.3449
  419MOL0     O55223   0.653   3.895   2.408 -0.2253  0.1585 -0.1050
  419MOL0     C55224   0.407   3.992   2.323 -1.7993  0.3628 -0.5415
  419MOL0     C55225   0.295   4.030   2.254 -0.7892 -0.2693 -0.1055
  419MOL0     N55226  -0.206   3.664   1.787  0.1775 -0.6239 -1.1392
  419MOL0     N55227  -0.129   3.574   1.745 -0.3518  0.3609  0.6777
  419MOL0     C55228   0.973   3.678   2.290 -0.2087 -0.2936  0.0955
  419MOL0     C55229   1.098   3.657   2.354 -1.1279 -1.1122  0.4143
  419MOL0     C55230   1.410   3.408   2.600 -1.1661 -0.0176 -0.9160
  419MOL0     C55231   1.505   3.511   2.594  0.0100 -0.7807 -0.1889
  419MOL0     C55232   1.624   3.520   2.666 -0.1018 -0.0544  0.3469
  419MOL0     C55233   1.658   3.400   2.740  0.7445  0.2258 -0.7688
  419MOL0     O55234   1.763   3.392   2.833  0.7291  0.1863 -0.2153
  419MOL0     C55235   1.874   3.479   2.818  0.3231  0.4468  0.1200
  419MOL0     C55236   2.002   3.394   2.788  0.0876 -0.6992  0.1130
  419MOL0     C55237   2.061   3.312   2.902  0.3286  0.6514 -0.5784
  419MOL0     C55238   2.039   3.164   2.890 -0.6230  0.5971 -0.5177
  419MOL0     C55239   2.120   3.104   2.780  0.4199  0.3983 -0.3758
  419MOL0     C55240   2.168   3.070   2.675 -0.1620  0.2186 -0.5463
  419MOL0     C55241   1.571   3.293   2.747 -0.1783 -0.4727  0.6876
  419MOL0     C55242   1.445   3.300   2.681  0.5311 -0.7497  0.2745
  419MOL0     H55243   1.123   3.332   2.346 -1.4528 -1.4492  0.5473
  419MOL0     H55244   0.910   3.364   2.210 -1.4574  0.6003  0.7519
  419MOL0     H55245   0.801   3.747   2.040 -1.2125 -0.4805 -0.0706
  419MOL0     H55246   0.721   3.775   2.195  1.7283 -1.8585  3.4459
  419MOL0     H55247   0.550   3.761   2.037 -0.9859 -0.5133  0.7782
  419MOL0     H55248   0.523   3.622   2.131  0.1250  2.3091  1.9594
  419MOL0     H55249   0.674   3.488   1.938 -0.5494 -1.2903  0.9632
  419MOL0     H55250   0.668   3.640   1.854 -1.8420  0.8430 -0.2200
  419MOL0     H55251   0.506   3.474   1.786  1.4279  1.2239 -0.5347
  419MOL0     H55252   0.447   3.448   1.949 -2.5356  1.1051  0.4454
  419MOL0     H55253   0.416   3.713   1.799 -1.0915 -0.8501 -1.1102
  419MOL0     H55254   0.347   3.659   1.958 -2.7153 -3.6853 -0.5058
  419MOL0     H55255   0.298   3.532   1.694  0.3174 -1.0599  1.0016
  419MOL0     H55256   0.186   3.646   1.770  0.5937  1.6507  0.7246
  419MOL0     H55257   0.243   3.360   1.869 -3.8971 -2.6734 -1.8480
  419MOL0     H55258   0.190   3.496   1.973  0.4426  2.3809 -1.1847
  419MOL0     H55259   0.006   3.333   1.886  0.3887  0.6544  1.9437
  419MOL0     H55260   0.043   3.398   1.719  0.3859 -1.1672  1.0222
  419MOL0     H55261  -0.068   3.554   2.061 -0.9516  0.9767  0.4822
  419MOL0     H55262  -0.253   3.728   2.121 -2.4453  4.2352  2.3606
  419MOL0     H55263  -0.387   3.741   2.005 -0.1722 -0.4584 -0.0082
  419MOL0     H55264  -0.303   3.958   2.097  2.8867  2.0316  0.6050
  419MOL0     H55265  -0.307   3.936   1.922 -0.0238 -0.4302 -0.7644
  419MOL0     H55266  -0.051   3.929   1.919  2.9120  0.1045  1.7266
  419MOL0     H55267  -0.106   4.063   1.993  0.4406  0.1718  1.3664
  419MOL0     H55268  -0.005   3.802   2.111 -0.8490 -0.2703 -2.8320
  419MOL0     H55269  -0.094   3.878   2.225 -3.7430 -1.2826 -2.6613
  419MOL0     H55270   0.150   3.732   2.205 -1.3740  2.9927 -0.1001
  419MOL0     H55271   0.342   3.655   2.339 -1.6759 -0.1704  0.7921
  419MOL0     H55272   0.746   3.630   2.462  4.5709  2.7552 -1.4364
  419MOL0     H55273   0.951   3.583   2.591 -1.5752 -1.5805 -3.1332
  419MOL0     H55274   1.129   3.561   2.746  0.7330  0.6273 -0.5230
  419MOL0     H55275   1.016   3.471   2.849  1.1810 -1.1883  2.4798
  419MOL0     H55276   1.125   3.584   3.048 -1.1347  1.9664 -1.5610
  419MOL0     H55277   1.254   3.650   2.948  1.9496 -1.0298  2.3214
  419MOL0     H55278   1.286   3.428   2.858  0.2563 -0.5923  0.6022
  419MOL0     H55279   1.167   3.356   2.951 -0.8737  0.0075  0.2061
  419MOL0     H55280   1.436   3.474   3.037  0.2601 -1.1280 -1.1605
  419MOL0     H55281   1.313   3.439   3.161 -0.6993 -3.3219  0.8658
  419MOL0     H55282   1.389   3.214   2.975 -2.7947  0.4073 -0.7572
  419MOL0     H55283   1.318   3.221   3.137  1.5867 -1.7251  0.7559
  419MOL0     H55284   1.550   3.353   3.205  3.4321  0.4415  0.5078
  419MOL0     H55285   1.602   3.299   3.056  1.4534 -1.3084  1.0044
  419MOL0     H55286   1.526   3.152   3.313 -2.6140 -2.3394 -0.2695
  419MOL0     H55287   1.516   3.047   3.171 -1.1764  1.1306 -2.4275
  419MOL0     H55288   1.737   3.106   3.325 -1.0310 -1.9290 -0.2205
  419MOL0     H55289   1.766   3.220   3.182  0.2431 -1.1885 -2.3639
  419MOL0     H55290   0.760   3.771   2.932 -0.6822 -1.0693 -0.0542
  419MOL0     H55291   0.553   3.789   2.798 -2.6076 -3.1029 -2.8259
  419MOL0     H55292   0.474   4.066   2.366  0.1550 -1.0090 -1.0550
  419MOL0     H55293   0.281   4.137   2.250 -4.1406 -0.5921 -0.3816
  419MOL0     H55294   0.931   3.776   2.268 -1.8928 -1.6416 -3.4789
  419MOL0     H55295   1.157   3.743   2.383  0.7555 -2.5254  0.9702
  419MOL0     H55296   1.482   3.593   2.526  2.5778 -0.6879 -1.0507
  419MOL0     H55297   1.677   3.615   2.672  0.5470 -0.3149 -0.8632
  419MOL0     H55298   1.873   3.519   2.920  1.2083 -2.1855  1.2518
  419MOL0     H55299   1.861   3.549   2.736  1.9177 -1.4796 -1.8952
  419MOL0     H55300   1.978   3.330   2.702  2.6451 -1.2816 -0.2263
  419MOL0     H55301   2.078   3.459   2.744 -0.6282  0.7093  0.8992
  419MOL0     H55302   2.013   3.349   2.993 -1.1148  2.6360 -2.0559
  419MOL0     H55303   2.166   3.342   2.896  0.4440  0.4644  0.3705
  419MOL0     H55304   2.063   3.109   2.981 -2.2614 -1.3792 -1.2035
  419MOL0     H55305   1.934   3.149   2.861 -0.9002 -0.5791  1.0242
  419MOL0     H55306   2.197   3.034   2.579  0.3131 -1.6379  0.2492
  419MOL0     H55307   1.600   3.207   2.806  1.9159 -1.0667 -1.0723
  419MOL0     H55308   1.375   3.217   2.689  0.0759 -0.2857  1.2509
  420MOL0     O55309   6.631   2.351   0.057 -0.8092 -0.0299  0.6059
  420MOL0     C55310   6.556   2.419   0.114 -0.0230  0.7077 -0.3309
  420MOL0     O55311   6.563   2.549   0.128  0.0252  0.3255 -0.0180
  420MOL0     C55312   6.666   2.614   0.065  0.1185  0.6045  0.2271
  420MOL0     C55313   6.772   2.677   0.148  0.3015  0.6358 -0.0214
  420MOL0     C55314   6.876   2.752   0.079 -0.3647  0.5238  0.3358
  420MOL0     C55315   6.860   2.769  -0.056 -0.7212  0.0432  1.1150
  420MOL0     O55316   6.955   2.835  -0.123  0.6813  0.2837  0.3049
  420MOL0     C55317   6.949   2.981  -0.127 -0.2393  0.2064 -0.1986
  420MOL0     C55318   7.089   3.035  -0.145  0.2027 -0.3872 -0.7620
  420MOL0     C55319   7.171   3.000  -0.018 -1.0961  0.2499  0.0592
  420MOL0     C55320   7.325   3.007  -0.035 -0.7747 -0.5458 -0.1146
  420MOL0     C55321   7.384   3.139  -0.093 -0.3054  0.0948 -0.3384
  420MOL0     C55322   7.340   3.265  -0.020  1.2402 -0.4068  0.3226
  420MOL0     C55323   7.438   3.379  -0.039 -0.2018 -0.8955  0.3922
  420MOL0     C55324   7.408   3.491   0.071  0.7261  0.3883  1.0222
  420MOL0     N55325   7.474   3.614   0.041 -0.7178 -0.5451 -0.1447
  420MOL0     C55326   7.582   3.626  -0.033 -0.3486  0.2377 -0.1124
  420MOL0     C55327   7.620   3.754  -0.013  0.0111 -0.3962  0.0593
  420MOL0     C55328   7.714   3.835  -0.092 -0.2031  0.0037 -0.1122
  420MOL0     C55329   7.860   3.804  -0.043  0.4797 -0.0903  0.6148
  420MOL0     C55330   7.880   3.821   0.109  0.0417  0.9853 -0.4999
  420MOL0     C55331   8.007   3.881   0.161  0.5270 -1.1021 -0.5368
  420MOL0     O55332   8.028   4.017   0.099  0.6250 -0.4336  0.4231
  420MOL0     C55333   8.159   4.053   0.069  0.5460  0.0616  0.1421
  420MOL0     C55334   8.191   4.113  -0.045 -0.3754  0.4619  0.4707
  420MOL0     C55335   8.320   4.160  -0.086  0.8406 -0.5887  0.7312
  420MOL0     C55336   8.424   4.149   0.003 -0.4709  0.0230  0.4428
  420MOL0     C55337   8.552   4.213  -0.022 -0.2049  0.4644 -0.2044
  420MOL0     O55338   8.567   4.270  -0.147 -0.6517  0.1275  0.7309
  420MOL0     C55339   8.693   4.325  -0.177  0.7939 -0.4158  1.3280
  420MOL0     C55340   8.758   4.429  -0.104 -0.5185  0.4842  0.5144
  420MOL0     C55341   8.874   4.485  -0.148 -0.8828 -0.5876  0.1099
  420MOL0     C55342   8.935   4.446  -0.271 -0.0063 -0.0792 -0.4100
  420MOL0     O55343   9.036   4.522  -0.333  0.0951  0.3252 -0.7074
  420MOL0     C55344   8.993   4.559  -0.468 -0.5627 -0.7340  0.9028
  420MOL0     C55345   9.109   4.640  -0.542 -1.2360  0.2856  0.4446
  420MOL0     C55346   9.098   4.777  -0.484 -0.3663 -0.3594 -0.2228
  420MOL0     C55347   9.165   4.875  -0.585 -0.3430  1.0022  0.0499
  420MOL0     C55348   9.322   4.891  -0.583 -0.1610 -0.7777  0.7365
  420MOL0     C55349   9.372   5.004  -0.676  0.5045  0.7212  0.6167
  420MOL0     C55350   9.520   5.023  -0.687  0.0592  0.2346 -1.4688
  420MOL0     C55351   9.555   5.160  -0.726 -0.0920 -0.0912 -0.4666
  420MOL0    Cl55352   9.738   5.159  -0.716  0.1957 -0.2447  0.0257
  420MOL0     C55353   8.880   4.339  -0.339  0.1249 -0.6967  0.2088
  420MOL0     C55354   8.750   4.284  -0.307 -0.8007 -0.2143  0.3817
  420MOL0     O55355   8.638   4.198   0.060  0.0283  0.1561 -0.2202
  420MOL0     C55356   8.394   4.083   0.126 -0.2181  0.3904 -0.3287
  420MOL0     C55357   8.264   4.040   0.161 -0.5437  0.2418  1.0736
  420MOL0     N55358   7.543   3.805   0.093 -0.2211  1.0643  0.2048
  420MOL0     N55359   7.461   3.713   0.134  0.6270  0.2218  0.6965
  420MOL0     C55360   6.756   2.716  -0.128  0.2370  1.0980  1.5900
  420MOL0     C55361   6.656   2.640  -0.067  0.2001 -0.7110  0.8322
  420MOL0     C55362   6.443   2.343   0.185 -0.0510  0.0046 -0.6138
  420MOL0     C55363   6.313   2.395   0.195  0.4468  0.2379  0.8667
  420MOL0     C55364   6.217   2.316   0.254  1.1226 -0.2570 -0.5475
  420MOL0     C55365   6.250   2.201   0.316  0.6395  0.4026  0.2041
  420MOL0     O55366   6.154   2.119   0.383 -0.6671 -0.1974  0.2715
  420MOL0     C55367   6.013   2.154   0.388 -0.9668  0.5819  0.6441
  420MOL0     C55368   5.955   2.019   0.408 -0.0050  0.9208  0.2150
  420MOL0     C55369   5.822   2.017   0.478  0.5362  1.1286  0.5389
  420MOL0     C55370   5.775   1.879   0.527  0.4374 -0.1177  0.3157
  420MOL0     C55371   5.741   1.778   0.412 -0.6477 -0.6725 -0.0405
  420MOL0     C55372   5.724   1.695   0.331  0.4801 -1.3107 -1.0021
  420MOL0     C55373   6.375   2.147   0.296  0.3361  0.2486 -0.0007
  420MOL0     C55374   6.481   2.213   0.226  0.2593 -0.1883  0.2049
  420MOL0     H55375   6.759   2.653   0.253 -2.0259 -0.1310 -0.4308
  420MOL0     H55376   6.952   2.813   0.126 -2.3406  2.5908  0.9952
  420MOL0     H55377   6.907   3.012  -0.031 -0.3979  0.2143 -0.2712
  420MOL0     H55378   6.891   3.021  -0.211 -0.4564  1.4142  0.5042
  420MOL0     H55379   7.087   3.143  -0.159 -2.6787  0.3419  3.4656
  420MOL0     H55380   7.131   2.985  -0.233  0.4035 -0.6084 -0.5398
  420MOL0     H55381   7.143   2.901   0.018  0.1176 -0.8107 -1.7826
  420MOL0     H55382   7.138   3.072   0.058  0.3472  0.7618  0.2242
  420MOL0     H55383   7.370   2.992   0.063 -1.1077 -0.8035  0.0013
  420MOL0     H55384   7.366   2.921  -0.089  4.8173  0.6815  1.4656
  420MOL0     H55385   7.343   3.146  -0.194 -0.2363 -2.0335 -0.5595
  420MOL0     H55386   7.493   3.141  -0.096 -0.2901  0.4978  0.1907
  420MOL0     H55387   7.325   3.251   0.088 -1.4618 -1.9908 -0.1779
  420MOL0     H55388   7.241   3.293  -0.057  1.4387  0.5664  0.4832
  420MOL0     H55389   7.540   3.343  -0.026 -0.5103 -1.6149  0.8534
  420MOL0     H55390   7.408   3.413  -0.138 -1.7567  0.8220  1.3856
  420MOL0     H55391   7.432   3.450   0.170 -1.9752 -2.6428  0.5837
  420MOL0     H55392   7.302   3.519   0.073  0.8971  1.0447  2.3355
  420MOL0     H55393   7.618   3.554  -0.105  2.3994 -1.1357  2.4211
  420MOL0     H55394   7.691   3.942  -0.096  1.5000  0.4231  0.2259
  420MOL0     H55395   7.701   3.797  -0.194 -3.4014  0.0122  0.1874
  420MOL0     H55396   7.930   3.873  -0.089  0.6291  0.0726  1.0837
  420MOL0     H55397   7.882   3.703  -0.079  1.0781  0.8031 -1.6503
  420MOL0     H55398   7.799   3.886   0.145  1.6086  2.9938 -0.4310
  420MOL0     H55399   7.865   3.720   0.146  1.3479  1.1620  0.5566
  420MOL0     H55400   8.081   3.803   0.143 -0.8744 -3.1006  1.7969
  420MOL0     H55401   7.989   3.900   0.268 -2.6147  0.2378 -1.2060
  420MOL0     H55402   8.101   4.132  -0.104  0.6349 -0.5930 -1.5130
  420MOL0     H55403   8.322   4.217  -0.179  2.3409 -2.2227 -0.3132
  420MOL0     H55404   8.717   4.447  -0.005 -1.2826  0.9892  0.1125
  420MOL0     H55405   8.925   4.556  -0.083 -1.3225 -0.9405  0.8527
  420MOL0     H55406   8.900   4.617  -0.472 -0.3676 -0.3575  1.5818
  420MOL0     H55407   8.987   4.477  -0.540  0.3392  0.2831 -0.3824
  420MOL0     H55408   9.094   4.643  -0.651 -2.5096 -0.6874  0.5670
  420MOL0     H55409   9.205   4.595  -0.513 -2.9073 -1.9929  2.9095
  420MOL0     H55410   9.146   4.779  -0.386  0.7316 -0.1608 -0.7582
  420MOL0     H55411   8.993   4.807  -0.471 -0.4784 -0.4512 -0.8723
  420MOL0     H55412   9.138   4.842  -0.686 -0.3128  1.7529 -0.2086
  420MOL0     H55413   9.118   4.971  -0.565 -2.4787 -0.6886  4.4339
  420MOL0     H55414   9.368   4.803  -0.630 -2.6903 -2.2126  0.7688
  420MOL0     H55415   9.344   4.908  -0.477  1.9638  0.4934  0.1394
  420MOL0     H55416   9.324   5.095  -0.638 -0.2086  0.7290 -0.2678
  420MOL0     H55417   9.333   4.989  -0.777 -0.1336  1.9679  0.6535
  420MOL0     H55418   9.556   4.993  -0.589 -4.3881 -3.5387 -0.6458
  420MOL0     H55419   9.572   4.960  -0.760  2.4624 -1.2646  1.3295
  420MOL0     H55420   9.511   5.231  -0.656 -3.1090 -2.4854  0.2609
  420MOL0     H55421   9.522   5.173  -0.829 -1.1755 -1.9850 -0.4031
  420MOL0     H55422   8.917   4.302  -0.433 -4.7436 -2.8907 -1.1886
  420MOL0     H55423   8.705   4.214  -0.377 -2.9413  1.2857  0.1390
  420MOL0     H55424   8.471   4.096   0.202 -0.3233 -1.7631  0.2103
  420MOL0     H55425   8.259   4.010   0.265 -1.2440  0.3982  1.0891
  420MOL0     H55426   6.748   2.724  -0.236  1.1470 -0.6815  1.3440
  420MOL0     H55427   6.574   2.593  -0.121  0.8460 -0.1737 -0.6359
  420MOL0     H55428   6.294   2.497   0.163  0.1881 -0.6954 -2.2889
  420MOL0     H55429   6.115   2.354   0.260 -0.6900 -3.7478 -4.1802
  420MOL0     H55430   5.974   2.182   0.290  0.6928 -2.2380 -0.9397
  420MOL0     H55431   5.987   2.218   0.474 -1.4209 -0.7897  1.5587
  420MOL0     H55432   5.938   1.977   0.308 -1.7184  1.3170  0.3038
  420MOL0     H55433   6.024   1.949   0.457  0.7568  0.2593 -1.6956
  420MOL0     H55434   5.746   2.035   0.402  0.3589 -2.4412 -0.3369
  420MOL0     H55435   5.820   2.088   0.561 -5.3334 -0.5822  2.3532
  420MOL0     H55436   5.847   1.821   0.586 -1.0139 -2.2685  0.0897
  420MOL0     H55437   5.694   1.891   0.599  2.1664 -0.3241  2.3896
  420MOL0     H55438   5.710   1.622   0.254  0.1604 -0.6670 -1.5656
  420MOL0     H55439   6.388   2.040   0.310 -1.6552  0.1439  1.4858
  420MOL0     H55440   6.572   2.156   0.216 -1.8594 -4.7629  3.4579
  421MOL0     O55441   7.499   8.848   9.643 -0.8775  0.3353 -0.9075
  421MOL0     C55442   7.510   8.975   9.642 -0.6747  0.0201  0.8755
  421MOL0     O55443   7.412   9.056   9.678  0.5271 -0.6022 -0.5620
  421MOL0     C55444   7.303   9.008   9.747  1.0117 -0.6704 -0.7813
  421MOL0     C55445   7.303   9.017   9.886 -0.3136 -0.5484 -0.7827
  421MOL0     C55446   7.194   8.971   9.968 -0.8996  0.4541  0.1482
  421MOL0     C55447   7.087   8.925   9.902  0.0520 -0.1124 -0.3895
  421MOL0     O55448   6.982   8.864   9.971  0.4065 -0.3811 -0.3433
  421MOL0     C55449   6.953   8.891  10.110  0.6844  0.0253  0.8904
  421MOL0     C55450   6.839   8.809  10.158  0.8165  0.2491  1.0270
  421MOL0     C55451   6.859   8.654  10.158  0.3302 -0.3123 -0.7431
  421MOL0     C55452   6.883   8.579  10.024  0.8036  0.9432  0.2712
  421MOL0     C55453   6.809   8.443  10.011  0.2178  0.2816 -0.2574
  421MOL0     C55454   6.865   8.344  10.117  0.0990 -0.7327  1.0248
  421MOL0     C55455   6.820   8.202  10.099 -0.0412 -0.6258  0.1616
  421MOL0     C55456   6.897   8.123   9.992 -0.2056  0.7484 -0.4285
  421MOL0     N55457   6.857   7.983  10.010  0.7266  0.1497  1.3362
  421MOL0     C55458   6.901   7.906  10.115 -0.9526 -0.0496 -0.6577
  421MOL0     C55459   6.838   7.788  10.108 -0.4576 -0.5424 -0.4721
  421MOL0     C55460   6.854   7.664  10.188 -0.6509 -0.0182  0.2656
  421MOL0     C55461   6.759   7.655  10.304 -0.1743 -0.4278 -0.2587
  421MOL0     C55462   6.792   7.523  10.388  0.8310 -0.3190 -0.1913
  421MOL0     C55463   6.712   7.501  10.515 -0.2042 -0.6028  0.1067
  421MOL0     O55464   6.751   7.385  10.594 -0.2188 -0.0409  0.5289
  421MOL0     C55465   6.733   7.254  10.559  0.4943 -0.3568  0.4017
  421MOL0     C55466   6.801   7.165  10.632 -0.4893  0.6950  0.6232
  421MOL0     C55467   6.787   7.021  10.611 -0.5150 -0.4042  0.0047
  421MOL0     C55468   6.681   6.974  10.526 -0.8332  0.9442  0.2062
  421MOL0     C55469   6.663   6.827  10.502  0.4394  0.1236 -1.2277
  421MOL0     O55470   6.739   6.739  10.572 -0.3840 -0.0469  0.2435
  421MOL0     C55471   6.707   6.615  10.549 -0.8679  0.4680  0.2794
  421MOL0     C55472   6.730   6.539  10.433  0.3915 -0.1757 -0.0524
  421MOL0     C55473   6.687   6.411  10.415  0.6885 -0.6292  0.3822
  421MOL0     C55474   6.624   6.348  10.520 -0.0522  0.9091 -0.3697
  421MOL0     O55475   6.588   6.214  10.517  0.3739  0.1275  1.0249
  421MOL0     C55476   6.676   6.132  10.445 -0.3785 -0.3913  0.0467
  421MOL0     C55477   6.664   5.986  10.480 -0.1146 -0.6621 -0.8297
  421MOL0     C55478   6.761   5.898  10.404 -1.2899 -0.6801  0.0716
  421MOL0     C55479   6.725   5.746  10.405 -0.0657 -0.7636 -0.2631
  421MOL0     C55480   6.728   5.684  10.546 -0.1264 -0.4415  0.0750
  421MOL0     C55481   6.867   5.679  10.612  0.3608 -1.3147  0.6921
  421MOL0     C55482   6.868   5.558  10.710  0.3255 -1.1400  0.6989
  421MOL0     C55483   6.962   5.588  10.832 -0.2228 -0.3250  0.2310
  421MOL0    Cl55484   7.131   5.625  10.783 -0.6212  0.5345 -0.1507
  421MOL0     C55485   6.593   6.416  10.633  0.0017  0.7301  0.5250
  421MOL0     C55486   6.643   6.547  10.655  1.2105 -0.5952 -0.1884
  421MOL0     O55487   6.559   6.800  10.443 -0.0131 -0.5872  0.6412
  421MOL0     C55488   6.607   7.076  10.456 -0.4273  0.8212  0.2013
  421MOL0     C55489   6.638   7.219  10.466  0.9169  0.7748  0.5855
  421MOL0     N55490   6.763   7.796  10.003 -0.6296 -0.4552  0.0811
  421MOL0     N55491   6.764   7.912   9.947  0.0550 -0.6979 -0.2236
  421MOL0     C55492   7.078   8.918   9.760  0.0576 -0.0513  0.1432
  421MOL0     C55493   7.189   8.966   9.681 -0.8906 -0.4276 -0.0134
  421MOL0     C55494   7.638   9.026   9.616 -0.5600  0.5384  0.1052
  421MOL0     C55495   7.756   8.943   9.619 -1.2158 -0.5398 -0.4353
  421MOL0     C55496   7.883   8.992   9.586 -0.3042 -0.5150 -0.7296
  421MOL0     C55497   7.911   9.131   9.552 -0.3226  0.5123 -0.4135
  421MOL0     O55498   8.038   9.194   9.543  0.5736 -0.1845 -0.4982
  421MOL0     C55499   8.157   9.125   9.579 -0.6953  0.0746  0.1780
  421MOL0     C55500   8.259   9.177   9.481  0.2262  0.1451 -0.4263
  421MOL0     C55501   8.214   9.171   9.330 -0.8361  0.2976 -0.6750
  421MOL0     C55502   8.178   9.036   9.284 -0.6135 -0.1001  0.1052
  421MOL0     C55503   8.160   9.043   9.140  0.5198  0.4643  0.0589
  421MOL0     C55504   8.141   9.076   9.019 -0.8135 -0.0556 -0.4798
  421MOL0     C55505   7.800   9.213   9.542 -0.8007 -0.8284  0.4337
  421MOL0     C55506   7.670   9.164   9.569  0.2450  0.0609  0.7590
  421MOL0     H55507   7.391   9.062   9.930  1.5423 -1.5072 -3.2271
  421MOL0     H55508   7.197   8.982  10.076  1.5347  5.4093 -0.1469
  421MOL0     H55509   6.934   8.998  10.122  2.5333  0.8092 -2.0283
  421MOL0     H55510   7.039   8.863  10.171  0.6380 -1.7804  0.1857
  421MOL0     H55511   6.757   8.834  10.090  3.6890  1.0409 -2.4279
  421MOL0     H55512   6.803   8.851  10.253  3.6213  3.7429  0.7705
  421MOL0     H55513   6.761   8.618  10.190  0.1755  0.0280 -0.8346
  421MOL0     H55514   6.933   8.627  10.235  1.9357  3.7736 -0.5661
  421MOL0     H55515   6.849   8.636   9.936  2.8144 -1.6974 -2.4199
  421MOL0     H55516   6.991   8.564  10.015  1.4070  2.7735  3.2794
  421MOL0     H55517   6.831   8.398   9.914 -0.6545 -1.1135  0.1638
  421MOL0     H55518   6.701   8.458  10.021  0.0521 -1.8968  2.0964
  421MOL0     H55519   6.843   8.373  10.220  1.7213  0.6760  1.0136
  421MOL0     H55520   6.974   8.339  10.108  0.3155  2.5253  0.8181
  421MOL0     H55521   6.835   8.160  10.199 -2.1253 -0.9519  0.3975
  421MOL0     H55522   6.712   8.208  10.083  0.4134  4.3721 -3.2126
  421MOL0     H55523   7.005   8.140  10.002 -0.4154  1.7559  0.3251
  421MOL0     H55524   6.855   8.149   9.894 -5.1758 -3.0151  0.3181
  421MOL0     H55525   6.972   7.933  10.192  0.7699  0.1324 -2.2116
  421MOL0     H55526   6.956   7.666  10.226 -1.0221 -1.1011  1.3636
  421MOL0     H55527   6.859   7.579  10.119  2.3623  0.0321  0.2727
  421MOL0     H55528   6.652   7.649  10.283 -1.1673  1.3527  3.4916
  421MOL0     H55529   6.782   7.743  10.364  2.7884 -1.3241  0.1037
  421MOL0     H55530   6.787   7.434  10.324  3.1169  1.3824 -2.9907
  421MOL0     H55531   6.898   7.529  10.414  0.7739  1.3095 -0.2252
  421MOL0     H55532   6.608   7.504  10.482  0.2493 -0.8347 -1.4219
  421MOL0     H55533   6.722   7.591  10.577  1.0259 -0.5356 -0.1549
  421MOL0     H55534   6.876   7.185  10.708  1.3773 -0.2840 -0.8573
  421MOL0     H55535   6.844   6.947  10.667 -0.4370 -1.7350 -1.7408
  421MOL0     H55536   6.800   6.586  10.364  1.7261 -1.6796  0.2137
  421MOL0     H55537   6.707   6.357  10.323 -0.4329 -0.6237  0.1277
  421MOL0     H55538   6.778   6.163  10.470  0.1578 -0.8352 -1.4755
  421MOL0     H55539   6.666   6.137  10.336 -0.4927 -1.5723 -0.0138
  421MOL0     H55540   6.563   5.956  10.449 -0.9390 -0.0235  1.0664
  421MOL0     H55541   6.670   5.981  10.589  2.1234 -1.8623 -0.9499
  421MOL0     H55542   6.862   5.919  10.439 -0.9526 -1.5169 -0.3542
  421MOL0     H55543   6.771   5.930  10.300  0.1821  1.6379  0.8707
  421MOL0     H55544   6.638   5.719  10.344  1.7948 -4.2495 -1.7379
  421MOL0     H55545   6.803   5.693  10.348  0.5026  0.1931 -0.3885
  421MOL0     H55546   6.706   5.580  10.517  2.9960 -1.7447  1.8180
  421MOL0     H55547   6.651   5.721  10.614  2.3431 -0.1105  2.9430
  421MOL0     H55548   6.887   5.774  10.661 -2.0335  0.5995 -1.6980
  421MOL0     H55549   6.945   5.657  10.538  0.9319 -0.6839  1.0928
  421MOL0     H55550   6.767   5.532  10.743 -0.1019  0.9647  1.2419
  421MOL0     H55551   6.918   5.482  10.650  0.8742 -1.5009  1.5931
  421MOL0     H55552   6.975   5.501  10.897 -1.3153  0.1710  1.1504
  421MOL0     H55553   6.919   5.663  10.900 -0.7859 -1.3767  1.0633
  421MOL0     H55554   6.526   6.373  10.707 -0.2443  0.8766  0.3864
  421MOL0     H55555   6.616   6.606  10.743 -2.0162 -1.3271 -0.5845
  421MOL0     H55556   6.516   7.052  10.402 -2.1979 -1.3070  3.7061
  421MOL0     H55557   6.592   7.301  10.412  1.5781  0.8411  0.1126
  421MOL0     H55558   6.988   8.879   9.715  0.0993  0.7662 -0.6822
  421MOL0     H55559   7.177   8.961   9.573 -0.5263 -1.6431 -0.0065
  421MOL0     H55560   7.728   8.840   9.639 -3.7057  0.0093 -0.8160
  421MOL0     H55561   7.965   8.923   9.600  0.9094  1.0887  0.3659
  421MOL0     H55562   8.147   9.016   9.577  1.1608 -0.1259 -1.0295
  421MOL0     H55563   8.178   9.155   9.682 -0.3693  0.4916 -0.0028
  421MOL0     H55564   8.285   9.282   9.497  0.3337  0.0931 -0.2570
  421MOL0     H55565   8.351   9.124   9.510  0.1211  1.1985  2.1203
  421MOL0     H55566   8.297   9.206   9.269 -0.2240 -0.0442 -0.0544
  421MOL0     H55567   8.121   9.228   9.316 -1.0592  0.1469  0.1165
  421MOL0     H55568   8.254   8.961   9.306 -3.0570 -2.1423  2.3632
  421MOL0     H55569   8.082   9.011   9.330  0.1524 -1.8472  0.8230
  421MOL0     H55570   8.126   9.100   8.916  0.9476 -1.1061 -1.0269
  421MOL0     H55571   7.832   9.314   9.522 -2.1523 -0.4337  0.1760
  421MOL0     H55572   7.588   9.235   9.556  0.0522 -0.2452  0.2900
  422MOL0     O55573   7.305   0.572   9.817 -0.6034  0.6755  0.8673
  422MOL0     C55574   7.350   0.454   9.821  0.1967  0.6444 -0.1826
  422MOL0     O55575   7.284   0.344   9.876 -0.4461 -0.0907 -0.1229
  422MOL0     C55576   7.156   0.339   9.925  0.3701 -1.6456  0.1463
  422MOL0     C55577   7.058   0.439   9.886 -0.4303 -0.7639 -0.2289
  422MOL0     C55578   6.919   0.423   9.922 -0.1697 -0.1336 -0.6727
  422MOL0     C55579   6.886   0.318  10.003  0.3417  1.4524  0.2096
  422MOL0     O55580   6.759   0.293  10.051  0.2951  0.7123  0.9197
  422MOL0     C55581   6.658   0.394  10.028  1.3709  0.5492  1.3241
  422MOL0     C55582   6.532   0.348  10.090  0.4110 -1.0127  0.4470
  422MOL0     C55583   6.424   0.459  10.072 -0.2359  0.7228 -0.1059
  422MOL0     C55584   6.288   0.419  10.115  0.9827 -0.3455 -0.0434
  422MOL0     C55585   6.180   0.514  10.058 -0.0449  0.6059 -0.2008
  422MOL0     C55586   6.207   0.652  10.100  0.7295 -0.0210 -1.0106
  422MOL0     C55587   6.089   0.742  10.070  0.2955  0.2390 -0.5105
  422MOL0     C55588   6.110   0.880  10.134 -0.5088  0.0487  0.6618
  422MOL0     N55589   5.981   0.959  10.123 -0.4339  0.8315 -0.0579
  422MOL0     C55590   5.885   0.957  10.022 -0.0105 -0.2620 -0.8208
  422MOL0     C55591   5.769   0.974  10.084 -0.4229 -0.2382 -0.0787
  422MOL0     C55592   5.632   0.972  10.016 -0.7992  0.2243  0.8010
  422MOL0     C55593   5.524   0.943  10.125  0.1423 -0.1387 -0.1656
  422MOL0     C55594   5.472   1.071  10.194 -0.3493  0.1188  0.6918
  422MOL0     C55595   5.404   1.049  10.339  0.0591 -0.1598 -0.1945
  422MOL0     O55596   5.264   1.012  10.310  0.4004 -0.8612 -0.6490
  422MOL0     C55597   5.175   1.115  10.313  0.4364  0.1260 -0.8123
  422MOL0     C55598   5.144   1.181  10.197  0.6980  0.1468  0.3953
  422MOL0     C55599   5.056   1.298  10.206  0.0405 -0.4309 -0.5855
  422MOL0     C55600   4.999   1.334  10.330 -0.0349  0.1702 -0.0572
  422MOL0     C55601   4.913   1.450  10.340  0.6155 -0.1505  0.6056
  422MOL0     O55602   4.839   1.472  10.453  0.0754  0.0541  0.0221
  422MOL0     C55603   4.750   1.567  10.432 -0.7895  1.0863 -0.1862
  422MOL0     C55604   4.629   1.525  10.385 -0.4610 -0.9638 -1.3455
  422MOL0     C55605   4.525   1.615  10.368  0.2498 -0.0472 -0.1135
  422MOL0     C55606   4.539   1.748  10.403 -0.2456 -1.0763 -1.0212
  422MOL0     O55607   4.426   1.822  10.388 -0.7151  0.7913 -0.4130
  422MOL0     C55608   4.446   1.969  10.423 -0.0033 -0.1258  0.8587
  422MOL0     C55609   4.314   2.026  10.456 -0.3924  0.3632 -0.9020
  422MOL0     C55610   4.262   1.963  10.586 -0.5751 -0.4159  0.1616
  422MOL0     C55611   4.170   2.068  10.655  0.1316 -0.1888  0.2413
  422MOL0     C55612   4.070   1.992  10.751 -0.1940 -0.2770  0.1466
  422MOL0     C55613   4.005   2.084  10.853 -0.6422 -0.6740 -0.1290
  422MOL0     C55614   3.968   2.009  10.983  1.0711 -0.1392 -0.0122
  422MOL0     C55615   3.865   2.098  11.059 -0.5462  0.4020  0.1948
  422MOL0    Cl55616   3.875   2.057  11.242  0.0817 -0.0486 -0.0963
  422MOL0     C55617   4.669   1.781  10.442  0.1350 -0.4721  0.0217
  422MOL0     C55618   4.778   1.699  10.457 -0.4887 -0.1907  0.0918
  422MOL0     O55619   4.918   1.530  10.244 -0.1757 -0.0351  0.1082
  422MOL0     C55620   5.024   1.261  10.441 -0.7768  0.0592 -0.4537
  422MOL0     C55621   5.116   1.151  10.433  0.1728 -0.8092 -0.5171
  422MOL0     N55622   5.794   1.023  10.211  0.6541 -0.4506 -0.2410
  422MOL0     N55623   5.922   1.009  10.234 -0.3831 -0.1049 -0.1738
  422MOL0     C55624   6.985   0.224  10.049  0.0638  0.3563  1.0211
  422MOL0     C55625   7.114   0.231  10.005  0.3741  0.2461 -0.2887
  422MOL0     C55626   7.461   0.414   9.738 -0.4187 -0.7721  0.4517
  422MOL0     C55627   7.510   0.285   9.739 -0.4200  0.4450 -1.3020
  422MOL0     C55628   7.614   0.249   9.662 -0.0199 -0.8959  1.4594
  422MOL0     C55629   7.665   0.337   9.572 -0.6378 -0.8094  0.3173
  422MOL0     O55630   7.794   0.314   9.515  0.3047 -0.2279 -0.4579
  422MOL0     C55631   7.796   0.282   9.376  1.0101 -0.6353 -0.1389
  422MOL0     C55632   7.844   0.145   9.361  0.2502  0.5356  0.0992
  422MOL0     C55633   7.852   0.094   9.212 -0.2735  0.0726 -0.3041
  422MOL0     C55634   7.972   0.150   9.136  0.8468  0.1228 -0.4145
  422MOL0     C55635   8.084   0.062   9.178 -0.6722 -0.6788 -0.2480
  422MOL0     C55636   8.188  -0.003   9.195  0.7383  0.6481  0.3073
  422MOL0     C55637   7.619   0.464   9.557  1.0362 -0.5946  0.6822
  422MOL0     C55638   7.517   0.505   9.646  0.2370  0.0074  0.1136
  422MOL0     H55639   7.084   0.524   9.823 -1.2169  0.2889  0.8320
  422MOL0     H55640   6.850   0.487   9.869 -0.0749 -1.3425 -2.3546
  422MOL0     H55641   6.634   0.422   9.925  2.0406 -1.8601  0.4548
  422MOL0     H55642   6.686   0.488  10.076  1.7346  2.7107 -2.7132
  422MOL0     H55643   6.559   0.323  10.193 -2.3943 -2.3135  0.9614
  422MOL0     H55644   6.503   0.259  10.033  0.7185 -2.4522  2.4725
  422MOL0     H55645   6.427   0.478   9.964  2.9940  2.6221  0.1812
  422MOL0     H55646   6.450   0.546  10.133 -0.5802 -1.7842  3.9945
  422MOL0     H55647   6.255   0.318  10.091 -1.8353 -0.2404  2.7661
  422MOL0     H55648   6.279   0.422  10.224  1.0599 -1.5364  0.0150
  422MOL0     H55649   6.081   0.475  10.087 -0.1562  2.3322  1.9171
  422MOL0     H55650   6.179   0.521   9.949 -0.9549 -0.8439 -0.3265
  422MOL0     H55651   6.292   0.688  10.041  0.5412  2.5481  0.1524
  422MOL0     H55652   6.229   0.646  10.207  1.2980  1.4236 -1.0217
  422MOL0     H55653   6.088   0.762   9.962  1.7009  2.7520 -0.1353
  422MOL0     H55654   6.001   0.694  10.113 -0.8299  2.9276  0.4543
  422MOL0     H55655   6.187   0.935  10.079 -1.2652  0.5152  0.0470
  422MOL0     H55656   6.124   0.864  10.241 -1.9149  0.9162  1.0078
  422MOL0     H55657   5.883   0.924   9.919 -3.1452  1.1310 -1.3240
  422MOL0     H55658   5.629   0.886   9.948  0.9574 -1.2195  2.4292
  422MOL0     H55659   5.610   1.065   9.963 -0.8180 -0.8709 -1.2334
  422MOL0     H55660   5.562   0.867  10.194 -0.0421 -2.2095 -2.2007
  422MOL0     H55661   5.437   0.901  10.073  1.9262 -1.1609 -2.5637
  422MOL0     H55662   5.552   1.140  10.222  0.9512 -1.5888  1.3005
  422MOL0     H55663   5.399   1.132  10.139 -1.6637 -0.5155  1.6888
  422MOL0     H55664   5.412   1.143  10.393  1.6765  0.8613 -2.1194
  422MOL0     H55665   5.441   0.965  10.399 -3.1938  0.0452  2.4676
  422MOL0     H55666   5.177   1.162  10.095 -3.2095  1.3371 -1.2891
  422MOL0     H55667   5.029   1.363  10.124 -0.9136  0.7123  0.5920
  422MOL0     H55668   4.611   1.418  10.388 -1.4242 -0.7823 -0.1591
  422MOL0     H55669   4.423   1.581  10.347 -0.8579  1.9203  1.6944
  422MOL0     H55670   4.478   2.023  10.333 -2.5938  1.5145  0.8267
  422MOL0     H55671   4.519   1.980  10.504 -1.8082 -0.3644  2.5846
  422MOL0     H55672   4.241   2.002  10.378  1.8505 -1.8851 -2.4746
  422MOL0     H55673   4.324   2.134  10.466 -2.4952  0.4066  1.6924
  422MOL0     H55674   4.336   1.932  10.660  0.4199  0.7091 -0.3206
  422MOL0     H55675   4.206   1.879  10.544  2.1698 -2.9296  1.2766
  422MOL0     H55676   4.242   2.133  10.705  0.3910  0.0800 -0.4716
  422MOL0     H55677   4.103   2.120  10.586 -0.5079 -2.4444 -0.9330
  422MOL0     H55678   4.132   1.922  10.808  1.5819  0.3684 -0.9103
  422MOL0     H55679   4.000   1.931  10.693  1.1443 -2.8978  1.1403
  422MOL0     H55680   3.906   2.099  10.807 -0.3455  5.2302  0.3950
  422MOL0     H55681   4.070   2.171  10.865  2.1368 -2.4779 -1.2543
  422MOL0     H55682   3.922   1.913  10.960 -1.3670  1.4366 -2.2931
  422MOL0     H55683   4.060   1.990  11.039  1.1478  2.3453  0.8395
  422MOL0     H55684   3.764   2.082  11.021 -0.3291 -0.5343 -0.0090
  422MOL0     H55685   3.877   2.204  11.036 -0.8723  0.3458 -0.2406
  422MOL0     H55686   4.699   1.884  10.464  3.4692 -1.5106  1.0162
  422MOL0     H55687   4.872   1.723  10.504 -0.1728 -1.4155  0.1230
  422MOL0     H55688   4.975   1.284  10.535  0.5663  1.2598 -0.0167
  422MOL0     H55689   5.160   1.099  10.518  1.0940 -2.5566 -1.9978
  422MOL0     H55690   6.961   0.141  10.114 -2.5585 -0.8090 -1.1767
  422MOL0     H55691   7.186   0.157  10.038 -0.2577  0.0126  0.6163
  422MOL0     H55692   7.488   0.195   9.796  2.5953 -0.8373 -1.9753
  422MOL0     H55693   7.662   0.151   9.667 -1.9981 -2.1267 -1.3184
  422MOL0     H55694   7.863   0.348   9.320 -0.0624  1.2473  0.7043
  422MOL0     H55695   7.694   0.290   9.338  1.3989  0.6643 -0.9709
  422MOL0     H55696   7.939   0.138   9.415 -1.0529 -0.3665  2.4434
  422MOL0     H55697   7.768   0.089   9.417  0.0208  1.9344  1.2492
  422MOL0     H55698   7.761   0.129   9.162 -0.3323  0.2450 -0.0809
  422MOL0     H55699   7.853  -0.015   9.221  1.0623  0.1734  1.2862
  422MOL0     H55700   7.957   0.141   9.028 -3.3708 -0.3275  0.0576
  422MOL0     H55701   7.990   0.255   9.160  1.9064 -0.3224  0.9095
  422MOL0     H55702   8.276  -0.060   9.214  0.6176  0.6397  0.8849
  422MOL0     H55703   7.662   0.545   9.499 -2.2639  1.1000  0.3505
  422MOL0     H55704   7.482   0.608   9.639 -1.8701 -0.5450  1.6323
  423MOL0     O55705   4.765  10.389   9.549 -0.3168  0.5977  0.1173
  423MOL0     C55706   4.767  10.272   9.508 -0.1577 -0.0214  0.2750
  423MOL0     O55707   4.653  10.200   9.471 -0.2130 -1.0301  0.8351
  423MOL0     C55708   4.523  10.251   9.476 -0.6762 -0.3037  0.1131
  423MOL0     C55709   4.433  10.154   9.528 -0.0362 -0.3889  0.6726
  423MOL0     C55710   4.299  10.171   9.522  0.7812  0.2058  0.3593
  423MOL0     C55711   4.244  10.277   9.453 -0.7849 -0.0445  0.1003
  423MOL0     O55712   4.116  10.311   9.438  0.4735  0.1800 -0.2509
  423MOL0     C55713   4.037  10.280   9.548 -0.1763 -0.2332 -0.1077
  423MOL0     C55714   3.915  10.375   9.533  0.4694  0.5881  0.5244
  423MOL0     C55715   3.925  10.517   9.599 -0.2315 -0.2266  0.3160
  423MOL0     C55716   3.988  10.619   9.512  0.4836 -0.1370 -0.0412
  423MOL0     C55717   3.984  10.750   9.582  0.0745  0.7159 -0.0927
  423MOL0     C55718   3.956  10.870   9.491  0.0286 -0.1969  0.1684
  423MOL0     C55719   4.006  10.992   9.566  0.7624  0.2200 -0.4950
  423MOL0     C55720   3.892  11.032   9.662 -0.2575 -0.1669 -0.1500
  423MOL0     N55721   3.786  11.126   9.599 -0.2342  0.1843  0.2069
  423MOL0     C55722   3.724  11.229   9.667 -0.5893 -0.4288  0.0989
  423MOL0     C55723   3.625  11.270   9.579 -1.0716 -1.4788  0.7397
  423MOL0     C55724   3.519  11.376   9.597 -0.6423  0.7342 -0.5103
  423MOL0     C55725   3.400  11.330   9.666  0.8931  0.1066  0.0797
  423MOL0     C55726   3.276  11.415   9.688  0.6678 -0.3857 -0.1295
  423MOL0     C55727   3.195  11.337   9.790 -0.1471 -0.5532  0.4705
  423MOL0     O55728   3.059  11.387   9.809 -0.4632  1.0014  0.3354
  423MOL0     C55729   3.000  11.371   9.928 -0.1532 -0.1192  0.8776
  423MOL0     C55730   3.028  11.278  10.033  0.1088  0.2308  0.6647
  423MOL0     C55731   2.948  11.252  10.143  0.7470 -0.5535  0.5369
  423MOL0     C55732   2.836  11.338  10.155  0.5580  0.5903 -0.7701
  423MOL0     C55733   2.747  11.303  10.266  0.8591  0.4156  0.6432
  423MOL0     O55734   2.759  11.186  10.331 -0.2620 -0.3066  0.7091
  423MOL0     C55735   2.679  11.133  10.433  0.2192 -0.4194  0.0998
  423MOL0     C55736   2.733  11.044  10.528 -0.4556  0.2057 -0.1980
  423MOL0     C55737   2.664  10.984  10.626 -0.3024  0.7435  0.3678
  423MOL0     C55738   2.523  11.000  10.631 -0.3652 -1.0458  0.2662
  423MOL0     O55739   2.450  10.937  10.734  0.2878  0.2565 -0.2351
  423MOL0     C55740   2.313  10.899  10.711 -0.3761  0.0525 -0.5636
  423MOL0     C55741   2.298  10.775  10.798  0.7565 -0.0887 -0.2393
  423MOL0     C55742   2.266  10.797  10.942 -0.1681  0.6844 -0.4209
  423MOL0     C55743   2.226  10.662  11.013  0.0779  0.2359  0.1351
  423MOL0     C55744   2.244  10.674  11.159  0.0824 -0.8065  0.2004
  423MOL0     C55745   2.171  10.564  11.237 -0.5398 -0.5355 -0.9133
  423MOL0     C55746   2.217  10.588  11.379 -0.0695  0.2982 -1.1707
  423MOL0     C55747   2.232  10.464  11.468  0.1419  0.4928  1.1998
  423MOL0    Cl55748   2.065  10.404  11.508  0.4418  0.2614 -0.1963
  423MOL0     C55749   2.465  11.100  10.545  0.6928  0.5679 -0.2713
  423MOL0     C55750   2.542  11.155  10.448  0.0322 -0.2006 -0.9926
  423MOL0     O55751   2.659  11.382  10.282  0.5522 -0.3871 -0.3846
  423MOL0     C55752   2.817  11.442  10.062 -0.3728 -0.6438 -0.4655
  423MOL0     C55753   2.896  11.457   9.954 -0.3135  0.4127 -0.0418
  423MOL0     N55754   3.643  11.208   9.459  0.0231 -0.1810 -0.5515
  423MOL0     N55755   3.731  11.117   9.474 -0.6711  0.5282  0.4151
  423MOL0     C55756   4.334  10.372   9.390  0.3246 -0.1851 -0.3741
  423MOL0     C55757   4.472  10.357   9.396 -0.1553  0.2955 -0.0183
  423MOL0     C55758   4.897  10.202   9.517 -0.4682 -0.5995  0.2805
  423MOL0     C55759   5.023  10.261   9.538 -0.9018 -0.2141 -0.4541
  423MOL0     C55760   5.142  10.198   9.553  0.3625  0.7035  0.9175
  423MOL0     C55761   5.142  10.060   9.558 -0.4153  0.0597 -0.4211
  423MOL0     O55762   5.257   9.999   9.603 -0.6120  0.1372  0.5139
  423MOL0     C55763   5.290   9.878   9.539  0.0551 -0.7106  0.3554
  423MOL0     C55764   5.441   9.903   9.495 -0.6312  0.2000  0.5817
  423MOL0     C55765   5.464  10.016   9.397  0.2312 -0.9243  0.3119
  423MOL0     C55766   5.598  10.026   9.338  0.0328  0.4122 -0.8463
  423MOL0     C55767   5.613  10.154   9.266 -0.6583  0.0543  0.5945
  423MOL0     C55768   5.642  10.247   9.196 -0.7101  0.0692 -0.8759
  423MOL0     C55769   5.018   9.994   9.520  0.9248 -0.4837  0.5186
  423MOL0     C55770   4.898  10.069   9.498  0.5938  1.2551  0.3428
  423MOL0     H55771   4.458  10.072   9.596 -0.4196  1.7377  3.5763
  423MOL0     H55772   4.237  10.097   9.571  1.0952  0.3301  0.9641
  423MOL0     H55773   4.085  10.290   9.646 -0.8712  0.2126  0.1966
  423MOL0     H55774   3.996  10.179   9.533  0.2993 -0.2913 -1.0565
  423MOL0     H55775   3.826  10.325   9.573  0.4620 -3.3027 -3.5681
  423MOL0     H55776   3.888  10.378   9.427  1.5722 -1.0535  0.1653
  423MOL0     H55777   3.991  10.504   9.685 -0.6176  0.5321  0.7378
  423MOL0     H55778   3.821  10.547   9.616 -0.7370 -0.8939 -1.4173
  423MOL0     H55779   4.087  10.588   9.477 -0.4286 -0.2680 -2.6928
  423MOL0     H55780   3.928  10.626   9.421 -1.5220 -1.9857  1.0529
  423MOL0     H55781   4.086  10.756   9.621  0.1166 -0.1667 -0.0466
  423MOL0     H55782   3.922  10.749   9.672 -0.6283 -2.6414 -0.4828
  423MOL0     H55783   3.852  10.865   9.458 -0.1433  1.7150  0.2824
  423MOL0     H55784   4.023  10.874   9.404  2.0357 -2.6896  1.4632
  423MOL0     H55785   4.101  10.968   9.614 -0.7483 -0.0957  2.6149
  423MOL0     H55786   4.017  11.071   9.491 -0.7772 -0.6000 -1.6390
  423MOL0     H55787   3.942  11.092   9.739  1.2400  0.3220 -1.4372
  423MOL0     H55788   3.837  10.949   9.707 -2.0658  2.1199  2.1347
  423MOL0     H55789   3.731  11.276   9.764  0.4691 -1.5715  0.5983
  423MOL0     H55790   3.492  11.402   9.494  2.1966 -2.1640 -2.2034
  423MOL0     H55791   3.555  11.463   9.652 -0.8141  0.2717  0.3384
  423MOL0     H55792   3.436  11.286   9.759  3.2737  0.5294 -0.5810
  423MOL0     H55793   3.358  11.249   9.604 -1.2584  2.1743 -1.3170
  423MOL0     H55794   3.289  11.516   9.728 -3.6447 -0.0501  0.9745
  423MOL0     H55795   3.220  11.437   9.596  0.2614  1.2079  0.4663
  423MOL0     H55796   3.243  11.353   9.888  0.5545  2.2895 -0.2611
  423MOL0     H55797   3.185  11.231   9.764 -2.8677 -1.2717  3.6474
  423MOL0     H55798   3.114  11.212  10.028 -1.9630 -2.8813  2.6554
  423MOL0     H55799   2.974  11.170  10.210  0.2595 -1.0935  0.0786
  423MOL0     H55800   2.841  11.033  10.526 -0.2685  1.4592  1.1448
  423MOL0     H55801   2.703  10.915  10.701  1.0827  1.5687  0.4372
  423MOL0     H55802   2.295  10.860  10.611  3.3269  0.4897 -1.5649
  423MOL0     H55803   2.251  10.983  10.742 -0.3803 -0.3846  0.6836
  423MOL0     H55804   2.381  10.705  10.785 -1.5909 -2.8334 -1.5793
  423MOL0     H55805   2.207  10.728  10.758  1.0203  0.3863 -1.4332
  423MOL0     H55806   2.181  10.865  10.948  0.5902  1.7079 -1.0785
  423MOL0     H55807   2.354  10.840  10.989  2.1611 -1.7219 -2.2514
  423MOL0     H55808   2.119  10.647  10.996  0.1736 -0.6979  0.3104
  423MOL0     H55809   2.285  10.585  10.964 -1.3988  1.9357 -4.8497
  423MOL0     H55810   2.209  10.769  11.200 -0.3668 -2.3553  3.7308
  423MOL0     H55811   2.352  10.665  11.172  0.6534  1.2238 -2.3013
  423MOL0     H55812   2.218  10.472  11.202 -0.4025 -0.3479 -1.2250
  423MOL0     H55813   2.062  10.570  11.232 -0.6330 -0.7104  0.4961
  423MOL0     H55814   2.315  10.637  11.382  0.4835 -0.7728  1.9748
  423MOL0     H55815   2.131  10.645  11.416 -2.0923  1.4042 -6.6186
  423MOL0     H55816   2.276  10.492  11.564 -0.3003 -2.0839  2.2204
  423MOL0     H55817   2.293  10.390  11.415  1.3188  1.7725  0.6867
  423MOL0     H55818   2.361  11.128  10.562  1.3212  2.7205  0.3907
  423MOL0     H55819   2.485  11.220  10.382 -2.1416 -0.3028  0.6764
  423MOL0     H55820   2.741  11.518  10.074 -2.7254 -1.9386 -4.8428
  423MOL0     H55821   2.860  11.529   9.881  0.9645 -2.7002 -4.1592
  423MOL0     H55822   4.299  10.451   9.326  0.4279  0.6093  0.5247
  423MOL0     H55823   4.535  10.426   9.340  4.4602 -2.0871  1.7244
  423MOL0     H55824   5.042  10.368   9.534  0.6730 -0.3930  0.9559
  423MOL0     H55825   5.231  10.255   9.575 -0.1295  1.7432  0.3311
  423MOL0     H55826   5.218   9.850   9.461 -3.2162 -1.5392  3.3926
  423MOL0     H55827   5.277   9.794   9.609 -0.7780 -1.6396 -0.8709
  423MOL0     H55828   5.496   9.929   9.587  0.0204  0.3724  0.1519
  423MOL0     H55829   5.478   9.804   9.466 -4.3515 -1.7876  1.9745
  423MOL0     H55830   5.440  10.103   9.459 -1.0001 -0.9668 -0.0708
  423MOL0     H55831   5.383  10.025   9.324 -0.5313 -0.4214  1.1964
  423MOL0     H55832   5.673  10.028   9.417 -0.9023  2.0358  0.0662
  423MOL0     H55833   5.616   9.943   9.269 -2.3975 -0.5651 -0.4008
  423MOL0     H55834   5.665  10.331   9.134  1.5857 -1.4959 -2.3057
  423MOL0     H55835   5.011   9.887   9.507 -2.1257 -0.0476 -3.2125
  423MOL0     H55836   4.813  10.019   9.452 -0.1342  0.6108  2.3130
  424MOL0     O55837  11.185   6.510  10.374 -0.3022 -0.0621 -0.0783
  424MOL0     C55838  11.184   6.569  10.484 -0.7199  0.0327  0.1860
  424MOL0     O55839  11.287   6.666  10.516 -0.5215  0.3790 -0.1555
  424MOL0     C55840  11.260   6.802  10.489 -0.9495 -0.2072  1.0839
  424MOL0     C55841  11.347   6.901  10.526 -1.5165  0.3911  0.3432
  424MOL0     C55842  11.322   7.035  10.487  0.1611 -0.3719 -0.6443
  424MOL0     C55843  11.220   7.069  10.402  0.7832  0.5761  0.3183
  424MOL0     O55844  11.197   7.198  10.379  0.1359  0.2402  0.1012
  424MOL0     C55845  11.172   7.234  10.237  0.4634  0.6966 -1.0377
  424MOL0     C55846  11.232   7.370  10.211 -0.1635 -0.7364  0.4119
  424MOL0     C55847  11.133   7.484  10.228 -0.2442 -0.4946 -0.8171
  424MOL0     C55848  11.067   7.507  10.365  0.3743  0.4993  0.1074
  424MOL0     C55849  10.983   7.641  10.367  0.1756 -0.4327 -0.5666
  424MOL0     C55850  10.919   7.668  10.506 -0.0264  0.2352  0.1432
  424MOL0     C55851  10.877   7.819  10.511  0.0548  0.4422  0.1890
  424MOL0     C55852  10.770   7.846  10.610 -0.7613  0.8150  0.0011
  424MOL0     N55853  10.738   7.993  10.633  0.0388  0.1331  0.8608
  424MOL0     C55854  10.787   8.060  10.738  0.9772 -0.4522  0.9612
  424MOL0     C55855  10.747   8.191  10.714  0.3161  0.4736 -0.0967
  424MOL0     C55856  10.785   8.303  10.808 -0.6208 -0.0109  0.6281
  424MOL0     C55857  10.917   8.369  10.769  0.5524  0.3013  0.6400
  424MOL0     C55858  10.892   8.461  10.641  0.2955  0.0464 -0.2196
  424MOL0     C55859  10.998   8.570  10.649  0.4953 -0.0820 -0.5850
  424MOL0     O55860  10.970   8.674  10.741  0.5736  0.6514  0.4042
  424MOL0     C55861  11.047   8.787  10.725  0.0776  0.6374  0.7671
  424MOL0     C55862  11.178   8.798  10.683 -0.1374  0.7238 -1.2708
  424MOL0     C55863  11.237   8.923  10.659 -0.1563 -0.3503 -0.1233
  424MOL0     C55864  11.166   9.041  10.689 -0.9165  0.3918  0.1609
  424MOL0     C55865  11.224   9.174  10.650 -0.2546 -0.7024  0.5793
  424MOL0     O55866  11.333   9.170  10.566 -0.1262  0.6869  0.8441
  424MOL0     C55867  11.402   9.284  10.527  0.7682  1.0156 -0.7540
  424MOL0     C55868  11.534   9.286  10.562  0.0041 -0.5521 -0.9203
  424MOL0     C55869  11.612   9.400  10.533  0.6333 -0.4519  0.6890
  424MOL0     C55870  11.545   9.512  10.466  0.4735  0.4500  0.4908
  424MOL0     O55871  11.588   9.644  10.452  0.6426 -0.1046 -0.6409
  424MOL0     C55872  11.725   9.674  10.451  0.0304  0.6648 -0.6546
  424MOL0     C55873  11.774   9.732  10.579  1.4690 -0.3665  0.1367
  424MOL0     C55874  11.923   9.699  10.600 -0.2225 -0.2284 -0.9279
  424MOL0     C55875  12.017   9.774  10.510 -1.2650  0.0452 -0.2591
  424MOL0     C55876  12.058   9.709  10.376 -0.2182  0.5796  0.7123
  424MOL0     C55877  12.141   9.575  10.395  0.3308 -0.1928  0.8940
  424MOL0     C55878  12.174   9.524  10.244 -0.3582  0.3610 -0.1429
  424MOL0     C55879  12.278   9.617  10.175  0.9204 -0.8550  0.0817
  424MOL0    Cl55880  12.443   9.603  10.243  0.3744  0.2301  0.1896
  424MOL0     C55881  11.419   9.503  10.415  0.5794  1.1002 -1.2691
  424MOL0     C55882  11.343   9.386  10.450 -0.0590  0.1154  0.6519
  424MOL0     O55883  11.177   9.270  10.701 -0.3895 -0.7253 -0.1755
  424MOL0     C55884  11.039   9.029  10.753 -0.1517  0.1959  0.6216
  424MOL0     C55885  10.985   8.900  10.769  0.5832 -0.2243 -0.0667
  424MOL0     N55886  10.669   8.194  10.599  0.2847  0.2220  0.2774
  424MOL0     N55887  10.660   8.073  10.556 -0.3660  0.2432  0.4659
  424MOL0     C55888  11.126   6.971  10.371 -0.2599  0.2363  0.7092
  424MOL0     C55889  11.148   6.842  10.418 -0.8006 -0.4228  0.2922
  424MOL0     C55890  11.089   6.519  10.585  0.3570 -0.3754  0.5049
  424MOL0     C55891  11.025   6.398  10.558 -0.2410  0.1325 -0.2600
  424MOL0     C55892  10.932   6.343  10.643  0.0842 -0.3445  0.0934
  424MOL0     C55893  10.890   6.414  10.751  0.5500 -0.4342  0.2006
  424MOL0     O55894  10.782   6.360  10.818  0.5885  0.0783 -0.7897
  424MOL0     C55895  10.731   6.421  10.933  0.2848 -0.7694 -0.3444
  424MOL0     C55896  10.627   6.322  10.987  0.4974 -0.5309 -0.3137
  424MOL0     C55897  10.612   6.330  11.139  0.6075  1.0950  0.3855
  424MOL0     C55898  10.465   6.311  11.185 -0.1629 -0.4016 -0.7876
  424MOL0     C55899  10.375   6.426  11.164  0.1706  0.4722 -0.3787
  424MOL0     C55900  10.288   6.509  11.155  0.2623  0.1872  0.9792
  424MOL0     C55901  10.951   6.533  10.780  0.3926 -0.8547 -0.0012
  424MOL0     C55902  11.062   6.582  10.708  0.5786  0.0340  0.3233
  424MOL0     H55903  11.442   6.880  10.574 -1.3245 -0.1909 -0.2794
  424MOL0     H55904  11.370   7.128  10.515 -0.8403  0.0417 -0.2566
  424MOL0     H55905  11.067   7.229  10.209 -0.3453 -0.7874  1.9255
  424MOL0     H55906  11.233   7.167  10.175 -0.4251 -0.0513 -1.1174
  424MOL0     H55907  11.266   7.392  10.110  1.4144  0.2840  1.1119
  424MOL0     H55908  11.325   7.374  10.269 -0.0955 -0.3312  0.2784
  424MOL0     H55909  11.063   7.471  10.144 -1.2733 -2.2923  0.2599
  424MOL0     H55910  11.198   7.570  10.209  1.9698 -2.2652 -1.7570
  424MOL0     H55911  11.000   7.423  10.386  0.2174  1.0560  1.9566
  424MOL0     H55912  11.151   7.507  10.436  1.0192 -0.2396 -0.6351
  424MOL0     H55913  10.902   7.636  10.294 -0.9766  0.0673  0.6499
  424MOL0     H55914  11.060   7.717  10.350  2.4247 -2.0362  1.6108
  424MOL0     H55915  10.995   7.647  10.582  1.6718 -0.2801 -1.6121
  424MOL0     H55916  10.832   7.602  10.502 -1.5841  2.2455 -1.8672
  424MOL0     H55917  10.971   7.871  10.530 -0.6634  1.5552  0.8098
  424MOL0     H55918  10.832   7.848  10.415  1.6299 -2.0962 -1.4504
  424MOL0     H55919  10.802   7.802  10.705 -0.6072 -0.4410 -0.6207
  424MOL0     H55920  10.683   7.784  10.586  0.9707 -1.2891 -1.1713
  424MOL0     H55921  10.849   8.021  10.818  3.2528 -0.8836 -0.8771
  424MOL0     H55922  10.803   8.256  10.905  2.5756 -1.1622 -0.3855
  424MOL0     H55923  10.706   8.378  10.815 -1.9554 -1.5362  2.8486
  424MOL0     H55924  10.998   8.301  10.742  2.1028  2.9571 -2.0348
  424MOL0     H55925  10.938   8.434  10.854  0.0759  1.4308 -0.0763
  424MOL0     H55926  10.894   8.400  10.551 -0.8217  0.8832 -0.8344
  424MOL0     H55927  10.792   8.506  10.641  0.7527  1.1017  0.2011
  424MOL0     H55928  11.003   8.603  10.544  1.3808 -0.7914 -0.7799
  424MOL0     H55929  11.097   8.530  10.674  0.1525 -1.4365 -1.3290
  424MOL0     H55930  11.233   8.704  10.674 -0.4550  0.4852 -0.7675
  424MOL0     H55931  11.332   8.923  10.607 -0.0885 -1.5224 -0.0392
  424MOL0     H55932  11.578   9.212  10.628  2.2516  0.7268 -0.8630
  424MOL0     H55933  11.708   9.417  10.581  0.3040  3.0484  0.3879
  424MOL0     H55934  11.726   9.742  10.365 -1.1198  2.2087  0.4977
  424MOL0     H55935  11.774   9.578  10.435 -1.9954 -0.4412 -0.5721
  424MOL0     H55936  11.720   9.689  10.664 -0.3356  1.5129  0.0270
  424MOL0     H55937  11.760   9.840  10.579  2.1423 -0.2061 -2.5493
  424MOL0     H55938  11.939   9.591  10.591  2.3744 -0.0260  0.3363
  424MOL0     H55939  11.947   9.738  10.699  0.9766  0.6965 -1.5572
  424MOL0     H55940  11.970   9.872  10.501 -1.9759 -0.1414  1.1763
  424MOL0     H55941  12.107   9.789  10.571 -2.1512 -1.5570  1.5248
  424MOL0     H55942  12.118   9.787  10.330  1.3838 -1.2064 -0.3759
  424MOL0     H55943  11.973   9.690  10.310  0.6331 -3.0704  0.4737
  424MOL0     H55944  12.086   9.494  10.444  3.4954 -3.6533 -0.7633
  424MOL0     H55945  12.237   9.594  10.444  1.0004 -0.5645 -0.2404
  424MOL0     H55946  12.211   9.421  10.244 -0.8765  0.1404  1.1857
  424MOL0     H55947  12.088   9.500  10.180  0.1841 -2.7488  0.1244
  424MOL0     H55948  12.243   9.720  10.181  0.5675 -0.7822 -2.2312
  424MOL0     H55949  12.275   9.601  10.067 -3.1564 -1.0299  0.0823
  424MOL0     H55950  11.378   9.595  10.376 -1.0250  1.3381  0.8180
  424MOL0     H55951  11.242   9.370  10.412 -0.6259 -1.0659  2.5112
  424MOL0     H55952  10.976   9.111  10.784  0.9134  1.1046  0.4242
  424MOL0     H55953  10.888   8.891  10.816  0.0969 -2.0852 -1.3143
  424MOL0     H55954  11.036   6.984  10.311 -0.3456  0.6261  0.9167
  424MOL0     H55955  11.071   6.767  10.404 -0.3282 -0.7142 -0.8952
  424MOL0     H55956  11.039   6.359  10.457  1.4711 -1.6334  0.6008
  424MOL0     H55957  10.875   6.253  10.619 -4.3271  1.4629  2.5232
  424MOL0     H55958  10.697   6.524  10.921  0.1166 -0.0870  4.0705
  424MOL0     H55959  10.814   6.420  11.005 -0.7599 -1.1646  0.8887
  424MOL0     H55960  10.529   6.330  10.940 -0.9297 -1.5294  2.2441
  424MOL0     H55961  10.661   6.219  10.979  3.9973  0.1910  2.4815
  424MOL0     H55962  10.660   6.423  11.171  1.8617  1.1980 -1.6054
  424MOL0     H55963  10.675   6.249  11.178 -0.7416  0.8194  2.1088
  424MOL0     H55964  10.423   6.225  11.133 -0.2229 -0.2626 -0.9670
  424MOL0     H55965  10.461   6.296  11.294 -0.4627  2.5402 -0.2976
  424MOL0     H55966  10.217   6.590  11.157  2.5397  2.3474 -0.2314
  424MOL0     H55967  10.915   6.583  10.869  1.0845 -1.9996  0.9550
  424MOL0     H55968  11.097   6.681  10.737 -0.8390  0.5495  0.3915
  425MOL0     O55969  10.232   0.436   6.590  0.5958 -0.3541 -0.9398
  425MOL0     C55970  10.224   0.317   6.610 -0.2919 -0.4322 -0.5236
  425MOL0     O55971  10.114   0.240   6.605  0.5143  0.5631  0.1576
  425MOL0     C55972   9.989   0.294   6.571  1.0247 -0.0316  0.3986
  425MOL0     C55973   9.878   0.206   6.584  0.7990  0.0470 -0.0123
  425MOL0     C55974   9.743   0.242   6.570 -0.4353  0.9974 -0.0045
  425MOL0     C55975   9.708   0.367   6.518 -0.3022 -0.1168  0.9996
  425MOL0     O55976   9.579   0.417   6.500 -0.3631 -0.4746 -0.0223
  425MOL0     C55977   9.553   0.509   6.606 -0.6851 -0.5376  0.3943
  425MOL0     C55978   9.400   0.523   6.627 -0.0405  0.7627 -0.0435
  425MOL0     C55979   9.353   0.406   6.714 -0.3754  0.4573  0.1175
  425MOL0     C55980   9.199   0.405   6.732 -0.0934 -0.1791 -0.2834
  425MOL0     C55981   9.159   0.294   6.823 -0.7125  0.6844  0.6072
  425MOL0     C55982   9.040   0.342   6.912 -0.6020  0.7400 -0.1922
  425MOL0     C55983   8.914   0.385   6.831  0.7616  0.4078 -0.5073
  425MOL0     C55984   8.796   0.410   6.933 -0.1662 -0.5622 -0.6460
  425MOL0     N55985   8.742   0.281   6.975  0.7273  0.2837  0.0852
  425MOL0     C55986   8.699   0.191   6.889  0.1369  0.6351  0.1320
  425MOL0     C55987   8.679   0.082   6.974  0.0928  0.4149  0.0243
  425MOL0     C55988   8.619  -0.052   6.933 -0.3969 -0.4039 -0.4147
  425MOL0     C55989   8.469  -0.046   6.976 -0.8563 -0.2101 -0.0636
  425MOL0     C55990   8.448  -0.098   7.117  0.7810  0.2656 -0.2553
  425MOL0     C55991   8.303  -0.123   7.143  0.4668 -0.0345  0.7430
  425MOL0     O55992   8.258  -0.230   7.056  0.0685  0.6505  0.8220
  425MOL0     C55993   8.124  -0.267   7.056 -0.5744  0.2699 -0.2219
  425MOL0     C55994   8.021  -0.212   7.139 -0.0619 -0.0584  0.1334
  425MOL0     C55995   7.885  -0.244   7.118 -0.4573 -0.6076 -0.7075
  425MOL0     C55996   7.860  -0.346   7.022 -0.0695  1.0513 -1.0689
  425MOL0     C55997   7.724  -0.381   6.998  1.0053 -0.7234 -0.3991
  425MOL0     O55998   7.633  -0.298   7.066  0.1474  0.3191 -0.1743
  425MOL0     C55999   7.502  -0.300   7.044  1.0635  0.0364  0.1137
  425MOL0     C56000   7.417  -0.373   7.127  0.2532 -0.1830  0.1630
  425MOL0     C56001   7.278  -0.375   7.097  0.2480  0.2646  0.0423
  425MOL0     C56002   7.221  -0.321   6.983 -0.3621  0.2669  0.2324
  425MOL0     O56003   7.086  -0.323   6.965 -0.0762 -0.1349 -0.0557
  425MOL0     C56004   7.052  -0.423   6.871  0.8272  0.9003 -0.5709
  425MOL0     C56005   7.041  -0.356   6.732 -0.1671  0.0533  0.1067
  425MOL0     C56006   6.959  -0.239   6.723  0.0509  0.3308 -1.4940
  425MOL0     C56007   6.952  -0.193   6.583 -0.8494 -0.9183  0.4995
  425MOL0     C56008   6.820  -0.229   6.505 -0.5317  0.6418  0.5052
  425MOL0     C56009   6.698  -0.148   6.563 -0.0797 -0.2588 -0.1516
  425MOL0     C56010   6.563  -0.216   6.536  0.5186 -0.1829  0.4931
  425MOL0     C56011   6.553  -0.281   6.400 -0.5523 -0.2536 -0.5589
  425MOL0    Cl56012   6.400  -0.366   6.393  0.2901  0.0335  0.0643
  425MOL0     C56013   7.312  -0.250   6.897 -0.1964  0.0977 -0.3746
  425MOL0     C56014   7.448  -0.239   6.931  0.3849 -0.4261  0.2881
  425MOL0     O56015   7.692  -0.485   6.940  0.5278 -1.2070 -0.3966
  425MOL0     C56016   7.961  -0.412   6.959 -0.7780 -0.1375  0.0233
  425MOL0     C56017   8.094  -0.374   6.972  0.2001 -0.1042 -0.0227
  425MOL0     N56018   8.723   0.113   7.097  0.1541  0.3272 -0.9099
  425MOL0     N56019   8.763   0.233   7.099 -0.5451  0.2213 -0.4295
  425MOL0     C56020   9.818   0.463   6.510 -0.6482  0.0794 -0.4046
  425MOL0     C56021   9.953   0.425   6.532  0.2536  0.3074 -0.0706
  425MOL0     C56022  10.348   0.264   6.678 -0.6173  0.2815 -0.5326
  425MOL0     C56023  10.353   0.133   6.740  0.6156  0.2813 -0.0556
  425MOL0     C56024  10.464   0.097   6.818  0.0658 -0.1730  0.1195
  425MOL0     C56025  10.581   0.174   6.824 -0.2289 -0.7880  0.4837
  425MOL0     O56026  10.686   0.162   6.903 -0.9957 -1.1689  0.2480
  425MOL0     C56027  10.796   0.083   6.849  0.0609  0.0736 -0.4907
  425MOL0     C56028  10.881   0.013   6.956  0.1681  0.6879  0.2183
  425MOL0     C56029  10.978   0.112   7.021  0.3649 -0.8843 -0.2243
  425MOL0     C56030  11.003   0.062   7.162  0.1405  0.1474 -0.6119
  425MOL0     C56031  11.080   0.161   7.237 -0.6322 -0.1283 -0.0649
  425MOL0     C56032  11.165   0.232   7.292 -0.5457  0.1106  0.4918
  425MOL0     C56033  10.585   0.292   6.744 -0.3305 -0.5845 -0.2986
  425MOL0     C56034  10.469   0.336   6.677 -0.9819  0.0535  0.2571
  425MOL0     H56035   9.915   0.105   6.598  1.6228  0.2966 -0.2805
  425MOL0     H56036   9.662   0.170   6.579  1.2175 -1.0461 -0.7941
  425MOL0     H56037   9.588   0.609   6.581 -0.4720 -0.2096  1.9541
  425MOL0     H56038   9.594   0.487   6.704 -1.8603 -1.3202  0.7376
  425MOL0     H56039   9.354   0.518   6.527  1.3958 -2.2700 -0.6592
  425MOL0     H56040   9.366   0.617   6.671 -1.1668 -1.2090  3.7189
  425MOL0     H56041   9.390   0.420   6.816 -3.2239 -1.7168  1.6006
  425MOL0     H56042   9.391   0.315   6.666 -1.3123  0.2647 -0.2783
  425MOL0     H56043   9.170   0.501   6.778  2.5395  0.1787  0.7716
  425MOL0     H56044   9.149   0.398   6.635  0.1341  1.6821 -0.5773
  425MOL0     H56045   9.242   0.267   6.889 -0.0597 -0.8791 -0.7737
  425MOL0     H56046   9.120   0.215   6.758  2.9172  0.4999 -1.6738
  425MOL0     H56047   9.071   0.421   6.981  0.6308 -0.3273  0.5076
  425MOL0     H56048   9.012   0.260   6.978  1.3836  0.6947  0.6471
  425MOL0     H56049   8.942   0.472   6.772  0.5253  0.8708  0.0576
  425MOL0     H56050   8.884   0.310   6.757  1.8987  1.8414 -2.5069
  425MOL0     H56051   8.709   0.455   6.884 -1.4680 -2.1317  0.1321
  425MOL0     H56052   8.830   0.474   7.015  0.2151 -0.6965 -0.6977
  425MOL0     H56053   8.673   0.207   6.785 -0.7730 -0.0972  0.2306
  425MOL0     H56054   8.677  -0.127   6.988  0.0549 -0.2758 -0.7099
  425MOL0     H56055   8.631  -0.064   6.825 -2.3444  0.4556 -0.7567
  425MOL0     H56056   8.420  -0.112   6.904  2.3560 -4.4912  1.3067
  425MOL0     H56057   8.428   0.054   6.959  0.9608  0.5533 -0.1573
  425MOL0     H56058   8.503  -0.193   7.124 -0.8602 -0.6023  1.4738
  425MOL0     H56059   8.494  -0.018   7.176  0.3945  2.1639 -2.3955
  425MOL0     H56060   8.247  -0.029   7.141 -2.3519 -1.5825  1.6783
  425MOL0     H56061   8.302  -0.148   7.250  0.5474  3.2719  1.6390
  425MOL0     H56062   8.045  -0.139   7.216  0.3147  0.9735 -0.9265
  425MOL0     H56063   7.803  -0.217   7.183 -2.3591  4.3230 -4.5171
  425MOL0     H56064   7.454  -0.426   7.215  1.2462  0.0066 -0.1271
  425MOL0     H56065   7.219  -0.419   7.177  2.3613 -0.4913  1.2482
  425MOL0     H56066   6.957  -0.467   6.904  2.2736 -0.2121  2.4383
  425MOL0     H56067   7.123  -0.506   6.872  0.1759  0.3007 -1.4882
  425MOL0     H56068   7.010  -0.426   6.654  0.9455  1.7856 -1.9631
  425MOL0     H56069   7.143  -0.336   6.699 -1.1981  3.0270 -1.5982
  425MOL0     H56070   7.012  -0.161   6.777  0.9653 -0.9382 -0.4900
  425MOL0     H56071   6.864  -0.256   6.773 -0.6422  2.2136 -2.0773
  425MOL0     H56072   6.964  -0.085   6.591  0.3710 -0.8925 -1.1159
  425MOL0     H56073   7.029  -0.236   6.519  0.3090  2.6842 -0.7550
  425MOL0     H56074   6.805  -0.337   6.514  1.7008  0.0550 -1.7709
  425MOL0     H56075   6.820  -0.203   6.399 -2.4322  1.8679  0.7581
  425MOL0     H56076   6.695  -0.056   6.504  2.3129  0.4514  0.7053
  425MOL0     H56077   6.703  -0.128   6.670  1.0895  0.4016 -0.3108
  425MOL0     H56078   6.542  -0.284   6.619 -3.8472 -0.1739 -0.3267
  425MOL0     H56079   6.487  -0.137   6.540  0.4028 -0.3608  2.4655
  425MOL0     H56080   6.634  -0.349   6.373  0.1991  0.8397 -1.1251
  425MOL0     H56081   6.554  -0.205   6.321 -2.8319 -0.4580 -0.8770
  425MOL0     H56082   7.259  -0.209   6.811 -0.4383  1.1625  0.2602
  425MOL0     H56083   7.514  -0.181   6.866  0.1909 -2.2319 -1.6254
  425MOL0     H56084   7.938  -0.493   6.890 -4.5619  0.7317  0.0269
  425MOL0     H56085   8.175  -0.430   6.925 -0.2218  0.1474 -1.0929
  425MOL0     H56086   9.803   0.564   6.472  2.3733  1.1111  0.8080
  425MOL0     H56087  10.020   0.511   6.525 -3.1761  3.0644 -3.4440
  425MOL0     H56088  10.261   0.076   6.739 -0.1900  1.5142  1.0056
  425MOL0     H56089  10.465  -0.001   6.864  0.4749 -0.2181  0.0190
  425MOL0     H56090  10.857   0.144   6.781  2.2988 -2.3840 -0.8773
  425MOL0     H56091  10.754   0.002   6.789  2.1674 -1.8862  0.5384
  425MOL0     H56092  10.820  -0.049   7.023  1.0989 -3.4902 -2.4137
  425MOL0     H56093  10.939  -0.070   6.914 -2.5530  0.5872 -4.0854
  425MOL0     H56094  10.924   0.206   7.029 -1.0765 -1.4042 -2.7763
  425MOL0     H56095  11.070   0.127   6.964 -0.0071  3.3657 -0.0195
  425MOL0     H56096  10.906   0.044   7.211 -0.7279 -1.6049 -2.7667
  425MOL0     H56097  11.056  -0.034   7.157 -1.1628 -0.5902 -0.9985
  425MOL0     H56098  11.240   0.283   7.349  1.2040 -1.1603 -0.5708
  425MOL0     H56099  10.674   0.347   6.718 -1.4451  0.6098 -1.7686
  425MOL0     H56100  10.479   0.420   6.609  0.3537 -1.6179 -1.7317
  426MOL0     O56101   8.439   5.158   5.678 -1.0169 -0.2302  0.3404
  426MOL0     C56102   8.433   5.202   5.562 -0.7218  0.1276 -0.2203
  426MOL0     O56103   8.343   5.172   5.467  0.5389  0.1395  0.0953
  426MOL0     C56104   8.218   5.129   5.504  0.7556 -0.2528 -0.2194
  426MOL0     C56105   8.180   4.993   5.530  0.3588 -0.0629 -0.6603
  426MOL0     C56106   8.048   4.962   5.576 -0.5944 -0.0644  0.4697
  426MOL0     C56107   7.948   5.063   5.579 -0.6490 -0.4868 -0.2266
  426MOL0     O56108   7.816   5.050   5.611  0.9662  0.6648 -0.2826
  426MOL0     C56109   7.757   4.925   5.571  0.3734  0.0185  0.5176
  426MOL0     C56110   7.600   4.935   5.575  0.8041 -0.6748 -0.4812
  426MOL0     C56111   7.546   4.948   5.718  0.0092 -0.4050  0.4652
  426MOL0     C56112   7.406   4.881   5.738  0.8798 -0.1987 -0.2378
  426MOL0     C56113   7.357   4.848   5.882  0.8191 -0.4384 -0.9336
  426MOL0     C56114   7.356   4.977   5.964 -0.2670  0.4198 -1.5561
  426MOL0     C56115   7.303   4.942   6.106  0.3007 -0.5313 -0.7998
  426MOL0     C56116   7.282   5.071   6.190  0.3831 -0.4263 -1.0647
  426MOL0     N56117   7.403   5.142   6.237  0.1367 -0.7858  0.3408
  426MOL0     C56118   7.509   5.178   6.155 -0.3043 -0.4623  0.3276
  426MOL0     C56119   7.609   5.184   6.248 -1.5577  0.1613  0.1547
  426MOL0     C56120   7.755   5.205   6.212 -0.3868 -0.5042 -0.0973
  426MOL0     C56121   7.805   5.091   6.120 -0.7463 -0.5835 -0.2650
  426MOL0     C56122   7.791   4.951   6.185 -0.3203 -0.2980  0.5916
  426MOL0     C56123   7.843   4.911   6.320 -0.0649  1.1918 -0.4374
  426MOL0     O56124   7.839   4.766   6.331 -0.2288  0.2421 -0.1890
  426MOL0     C56125   7.732   4.711   6.386 -0.6001 -0.2503  0.6931
  426MOL0     C56126   7.742   4.578   6.412  0.2891 -0.1967  0.8482
  426MOL0     C56127   7.638   4.499   6.469  0.7242  0.1631  0.2058
  426MOL0     C56128   7.523   4.562   6.502  0.8080  0.7230 -0.1350
  426MOL0     C56129   7.411   4.479   6.561 -0.6507  0.1682  0.2155
  426MOL0     O56130   7.314   4.549   6.629  0.0252 -0.6873 -0.6706
  426MOL0     C56131   7.187   4.493   6.641  0.3245 -0.0885  0.1286
  426MOL0     C56132   7.070   4.582   6.640  0.3060  0.4979 -0.4188
  426MOL0     C56133   6.942   4.533   6.659 -0.5113 -1.5095 -0.3437
  426MOL0     C56134   6.919   4.399   6.681  0.3353 -0.2604  0.9940
  426MOL0     O56135   6.791   4.350   6.700 -0.1737  0.4213 -1.0879
  426MOL0     C56136   6.691   4.428   6.756  0.3250  0.8248 -0.5575
  426MOL0     C56137   6.592   4.343   6.835  0.6303 -0.2409 -0.6358
  426MOL0     C56138   6.660   4.249   6.932 -0.0060 -0.0885  0.0128
  426MOL0     C56139   6.560   4.147   6.996 -0.6679 -0.2502 -0.0076
  426MOL0     C56140   6.429   4.206   7.051 -0.9071  0.3067 -0.5335
  426MOL0     C56141   6.371   4.141   7.183 -0.7511  0.7078  0.0127
  426MOL0     C56142   6.471   4.137   7.299 -0.1703 -0.6163 -0.1012
  426MOL0     C56143   6.552   4.263   7.316 -0.3879  0.2073  0.0708
  426MOL0    Cl56144   6.447   4.394   7.367  0.1219 -0.0676 -0.0735
  426MOL0     C56145   7.035   4.311   6.691  0.0439 -0.8030 -0.2504
  426MOL0     C56146   7.168   4.351   6.669 -0.2966 -0.5053 -0.3110
  426MOL0     O56147   7.414   4.359   6.545  0.7432 -0.2840 -0.2625
  426MOL0     C56148   7.503   4.695   6.471  0.4817 -0.0484  0.1333
  426MOL0     C56149   7.607   4.764   6.411 -0.2084 -0.0619 -0.8243
  426MOL0     N56150   7.567   5.153   6.374 -0.3809 -0.3630  0.5304
  426MOL0     N56151   7.447   5.126   6.363  0.3329 -0.6827 -0.7521
  426MOL0     C56152   7.989   5.193   5.560 -0.1322 -0.2096  0.0303
  426MOL0     C56153   8.117   5.227   5.517  0.2152  0.8877 -0.3688
  426MOL0     C56154   8.535   5.295   5.511 -0.0549 -0.0216  1.0785
  426MOL0     C56155   8.519   5.367   5.387 -0.5832 -0.3882  0.2482
  426MOL0     C56156   8.610   5.474   5.341 -0.1316  0.0044  0.1538
  426MOL0     C56157   8.729   5.494   5.420 -0.3119  0.2495  0.4769
  426MOL0     O56158   8.819   5.597   5.403  0.6050  1.1653  0.0361
  426MOL0     C56159   8.786   5.693   5.304  0.0132 -0.7002  0.5113
  426MOL0     C56160   8.912   5.781   5.289  0.8578 -0.2710 -0.0884
  426MOL0     C56161   8.890   5.924   5.239 -0.2460  0.2303 -0.1409
  426MOL0     C56162   8.794   5.943   5.114 -0.6929  0.0799 -0.3742
  426MOL0     C56163   8.789   6.080   5.085  0.5076  0.2574  0.2884
  426MOL0     C56164   8.806   6.194   5.058  0.7117  0.7980  0.3595
  426MOL0     C56165   8.747   5.422   5.533 -1.0935 -0.4855  0.4054
  426MOL0     C56166   8.650   5.328   5.579 -0.5125  0.4042 -0.8054
  426MOL0     H56167   8.254   4.917   5.508  1.6465  1.5772 -2.3428
  426MOL0     H56168   8.025   4.859   5.603 -0.3014 -0.8219 -1.9219
  426MOL0     H56169   7.793   4.855   5.647  1.5069  3.4096  3.4180
  426MOL0     H56170   7.785   4.910   5.467 -0.2338 -0.5601  0.4304
  426MOL0     H56171   7.562   4.848   5.521  1.2868 -0.4969 -1.1203
  426MOL0     H56172   7.565   5.013   5.506 -2.7891 -1.8083 -0.1555
  426MOL0     H56173   7.548   5.054   5.747 -0.5061  0.0689 -1.1157
  426MOL0     H56174   7.612   4.891   5.784 -0.4922  0.9600  2.2607
  426MOL0     H56175   7.338   4.950   5.689  0.0010  0.0418  1.2620
  426MOL0     H56176   7.403   4.784   5.687  0.3844 -0.1453 -0.3151
  426MOL0     H56177   7.422   4.783   5.940 -1.8151 -0.6106  2.0837
  426MOL0     H56178   7.261   4.798   5.868  1.0916 -0.8255 -1.4757
  426MOL0     H56179   7.291   5.051   5.916 -0.7594  0.1241 -1.3570
  426MOL0     H56180   7.456   5.020   5.972 -0.3313  0.2592  1.0616
  426MOL0     H56181   7.203   4.897   6.104  0.1200 -0.5115  2.1385
  426MOL0     H56182   7.369   4.876   6.164 -0.6920 -2.1723 -1.4962
  426MOL0     H56183   7.228   5.038   6.278 -1.5098 -0.2105 -2.0904
  426MOL0     H56184   7.220   5.153   6.152 -3.6628 -0.9993  3.4901
  426MOL0     H56185   7.516   5.205   6.050  1.0468  1.1121  0.7779
  426MOL0     H56186   7.820   5.220   6.299  0.1205  1.3015 -0.7390
  426MOL0     H56187   7.767   5.302   6.163  2.5176 -1.1545 -0.8715
  426MOL0     H56188   7.911   5.111   6.105 -1.0504  2.4692  0.8669
  426MOL0     H56189   7.745   5.089   6.029 -0.4224  0.6165 -0.5180
  426MOL0     H56190   7.685   4.928   6.179 -0.5148  0.9087 -2.8284
  426MOL0     H56191   7.832   4.874   6.120  3.4512  0.7818  1.4149
  426MOL0     H56192   7.796   4.970   6.399  1.0463  2.9524 -1.0514
  426MOL0     H56193   7.946   4.946   6.325  0.1095  0.5679  1.4318
  426MOL0     H56194   7.841   4.534   6.409  1.8287  3.0444 -1.4515
  426MOL0     H56195   7.646   4.392   6.488 -1.4722 -0.5811 -2.4427
  426MOL0     H56196   7.100   4.683   6.616  0.9551  0.2724 -0.6026
  426MOL0     H56197   6.858   4.600   6.645 -1.9396 -3.4921 -1.8750
  426MOL0     H56198   6.636   4.479   6.677 -0.0964  1.3100  0.0387
  426MOL0     H56199   6.732   4.499   6.829  0.9167 -1.0266  1.0057
  426MOL0     H56200   6.544   4.284   6.757 -0.4322 -1.5968  0.9796
  426MOL0     H56201   6.523   4.410   6.887 -0.3162 -1.4223 -0.3327
  426MOL0     H56202   6.709   4.311   7.008  0.5114 -0.1452 -0.2679
  426MOL0     H56203   6.733   4.184   6.884 -0.0102 -1.8761  2.2639
  426MOL0     H56204   6.522   4.084   6.915  1.3601 -1.7494  0.1593
  426MOL0     H56205   6.606   4.084   7.072  0.1753 -1.0715 -1.1483
  426MOL0     H56206   6.357   4.207   6.969 -1.1256  3.5519 -0.3967
  426MOL0     H56207   6.457   4.307   7.080 -0.2352 -0.2244  0.7272
  426MOL0     H56208   6.337   4.038   7.169  0.8103 -0.1310  1.9690
  426MOL0     H56209   6.279   4.198   7.201 -2.0499 -1.5672  1.0362
  426MOL0     H56210   6.415   4.118   7.391  1.1879 -3.3864  0.2462
  426MOL0     H56211   6.545   4.059   7.279  2.0920  0.9564  1.6572
  426MOL0     H56212   6.606   4.294   7.226  0.7754 -0.9022  0.3535
  426MOL0     H56213   6.618   4.238   7.400  0.7813  0.1493 -0.8371
  426MOL0     H56214   7.013   4.207   6.711 -2.0201 -0.0957  1.4667
  426MOL0     H56215   7.254   4.286   6.678  0.7912  0.6287 -1.8805
  426MOL0     H56216   7.407   4.736   6.501  1.3171  1.9063  0.2345
  426MOL0     H56217   7.589   4.867   6.380 -1.3959  1.4483  4.0645
  426MOL0     H56218   7.920   5.275   5.573 -1.5708 -0.7772 -3.1168
  426MOL0     H56219   8.143   5.333   5.516 -2.1123  1.5590 -2.7202
  426MOL0     H56220   8.430   5.351   5.327  1.6142  2.5066 -4.3855
  426MOL0     H56221   8.585   5.529   5.251 -3.0747 -0.5001  0.5467
  426MOL0     H56222   8.706   5.755   5.344 -0.4034 -2.0173  1.8296
  426MOL0     H56223   8.753   5.658   5.206 -2.7432  0.1091  1.0685
  426MOL0     H56224   8.969   5.783   5.383  0.9672 -1.4127 -0.1224
  426MOL0     H56225   8.983   5.733   5.220  0.1634 -2.2367  0.5013
  426MOL0     H56226   8.986   5.973   5.218  1.1755 -1.3506  2.2413
  426MOL0     H56227   8.841   5.973   5.324 -3.4158 -1.1868 -1.0416
  426MOL0     H56228   8.834   5.895   5.024  2.0720  1.2348  0.1508
  426MOL0     H56229   8.691   5.907   5.126 -0.4355 -0.7734 -0.6445
  426MOL0     H56230   8.807   6.296   5.024 -0.6657  1.3284  1.7574
  426MOL0     H56231   8.834   5.441   5.596 -0.4030 -0.5663 -0.5013
  426MOL0     H56232   8.668   5.290   5.679  0.1962 -1.0071 -1.4385
  427MOL0     O56233   0.077   9.222   6.065 -0.1977  0.0063 -0.1158
  427MOL0     C56234   0.038   9.124   6.005 -0.0261  0.7433 -0.2494
  427MOL0     O56235   0.075   9.086   5.877 -0.0888 -0.7407  0.1452
  427MOL0     C56236   0.191   9.148   5.832 -0.6456 -0.0933 -0.2795
  427MOL0     C56237   0.191   9.215   5.717 -0.0836  0.1852  0.1127
  427MOL0     C56238   0.299   9.299   5.679 -0.5925  0.1892 -0.7005
  427MOL0     C56239   0.415   9.302   5.760  0.3301 -1.1444 -0.3241
  427MOL0     O56240   0.528   9.377   5.716  0.2044  0.5862  0.0816
  427MOL0     C56241   0.573   9.329   5.591 -0.4855  0.1171 -0.0340
  427MOL0     C56242   0.691   9.399   5.525  1.3614  0.0225  0.1469
  427MOL0     C56243   0.806   9.420   5.624  0.5169  0.0975  0.0085
  427MOL0     C56244   0.922   9.491   5.567  0.4356 -0.3876 -0.7447
  427MOL0     C56245   1.020   9.520   5.686  0.7566 -0.6492  0.0638
  427MOL0     C56246   0.993   9.657   5.748  0.4985 -0.0904  0.2112
  427MOL0     C56247   1.092   9.678   5.866  0.8238  0.3382  0.6066
  427MOL0     C56248   1.091   9.830   5.904  0.5091  1.0822 -0.0027
  427MOL0     N56249   0.967   9.847   5.981 -0.1520 -0.0250 -0.1541
  427MOL0     C56250   0.926   9.781   6.095  1.1399  0.7415  0.6554
  427MOL0     C56251   0.794   9.791   6.094  0.2273  1.1664  0.5268
  427MOL0     C56252   0.701   9.725   6.183 -0.2723 -0.8611 -0.2426
  427MOL0     C56253   0.604   9.622   6.127 -0.2749 -1.2202 -0.2699
  427MOL0     C56254   0.475   9.633   6.198 -0.4375  1.1173  0.5766
  427MOL0     C56255   0.480   9.573   6.342  0.4645 -0.1861 -0.1034
  427MOL0     O56256   0.568   9.471   6.373  0.6126  0.5616 -0.2691
  427MOL0     C56257   0.518   9.342   6.358 -0.1567 -0.2307  0.0822
  427MOL0     C56258   0.586   9.250   6.434 -0.6627 -0.3106 -0.1445
  427MOL0     C56259   0.540   9.116   6.448 -0.2686 -0.3410  0.6539
  427MOL0     C56260   0.437   9.072   6.361  1.2321  0.4674 -0.2285
  427MOL0     C56261   0.372   8.929   6.376  0.2162 -0.0428 -0.5830
  427MOL0     O56262   0.272   8.893   6.285  0.4185 -0.6016  0.4880
  427MOL0     C56263   0.230   8.761   6.288 -0.6124  1.2388 -0.3598
  427MOL0     C56264   0.322   8.654   6.259  0.1428  0.1056  0.3326
  427MOL0     C56265   0.281   8.525   6.228  0.8668 -0.2910  1.1512
  427MOL0     C56266   0.142   8.486   6.243 -0.6512 -1.3060  0.0200
  427MOL0     O56267   0.091   8.365   6.210 -0.1449  0.4502  0.0173
  427MOL0     C56268   0.168   8.258   6.135  0.5060  0.0717 -0.1742
  427MOL0     C56269   0.079   8.143   6.087  0.4215 -1.0590 -0.1950
  427MOL0     C56270  -0.049   8.203   6.030 -0.1987 -0.6318  0.5907
  427MOL0     C56271  -0.151   8.087   6.007  0.4407 -0.8099 -0.3705
  427MOL0     C56272  -0.280   8.135   5.941  0.5337 -0.1109 -0.6748
  427MOL0     C56273  -0.403   8.056   5.979  0.0465 -0.5699 -0.4917
  427MOL0     C56274  -0.522   8.122   5.903 -0.2148 -0.3047 -0.0283
  427MOL0     C56275  -0.648   8.050   5.951 -0.2174  0.4548  0.7576
  427MOL0    Cl56276  -0.697   8.090   6.121 -0.4373 -0.4427  0.2338
  427MOL0     C56277   0.060   8.585   6.288 -0.3646  0.3580  0.4806
  427MOL0     C56278   0.097   8.722   6.304 -0.3738 -0.6159  0.2856
  427MOL0     O56279   0.423   8.853   6.452 -0.5002  0.1886 -0.1969
  427MOL0     C56280   0.380   9.164   6.277  0.0969 -0.9961  0.3645
  427MOL0     C56281   0.412   9.300   6.282 -0.0804 -0.7270  0.2714
  427MOL0     N56282   0.750   9.859   5.989 -0.2544  0.1535  1.1806
  427MOL0     N56283   0.857   9.913   5.933 -0.5213 -0.4432  1.0598
  427MOL0     C56284   0.426   9.229   5.877  0.2752  0.2833 -0.7336
  427MOL0     C56285   0.313   9.150   5.905 -0.2963 -0.0734  0.4038
  427MOL0     C56286  -0.075   9.054   6.054  1.0555  0.2446  0.1961
  427MOL0     C56287  -0.169   8.993   5.976  0.6195  0.8118 -0.2764
  427MOL0     C56288  -0.283   8.935   6.017  0.3354  0.2681 -0.2060
  427MOL0     C56289  -0.301   8.916   6.151  0.6525  0.4604  0.2324
  427MOL0     O56290  -0.421   8.850   6.190 -1.0103 -0.1970  0.6101
  427MOL0     C56291  -0.415   8.785   6.316  0.0329  0.0958 -0.0802
  427MOL0     C56292  -0.530   8.680   6.326  0.4643 -0.2087 -0.0426
  427MOL0     C56293  -0.670   8.728   6.275  0.3237 -0.9074  0.3567
  427MOL0     C56294  -0.792   8.652   6.321  0.2906 -0.4810  0.6232
  427MOL0     C56295  -0.783   8.510   6.306  0.2393  0.2032 -0.4552
  427MOL0     C56296  -0.779   8.390   6.296 -0.2068 -0.2261 -0.7530
  427MOL0     C56297  -0.201   8.963   6.238  0.1574 -0.4702 -0.7185
  427MOL0     C56298  -0.094   9.033   6.191 -0.3603  0.0653  0.2382
  427MOL0     H56299   0.099   9.193   5.664 -1.0695 -3.0821  2.8478
  427MOL0     H56300   0.282   9.349   5.585 -0.5062 -1.4922 -1.6543
  427MOL0     H56301   0.493   9.324   5.517 -1.1683  4.0843  0.2038
  427MOL0     H56302   0.606   9.225   5.598 -1.5391 -0.4651 -2.5750
  427MOL0     H56303   0.657   9.498   5.492  1.8195  0.6661  1.5358
  427MOL0     H56304   0.725   9.338   5.441  1.1701 -1.2676  0.9927
  427MOL0     H56305   0.839   9.327   5.670  2.7522  1.8336  2.1295
  427MOL0     H56306   0.775   9.478   5.711 -0.1003  2.6167 -1.7930
  427MOL0     H56307   0.972   9.418   5.502  0.8681 -2.8586  2.1062
  427MOL0     H56308   0.891   9.585   5.520 -1.8090  0.3744  1.9780
  427MOL0     H56309   1.116   9.523   5.633  1.5685 -0.3808  1.5162
  427MOL0     H56310   1.017   9.441   5.761  0.6828 -0.8429 -0.1400
  427MOL0     H56311   0.891   9.662   5.789  0.2367 -0.0903 -0.4256
  427MOL0     H56312   1.006   9.740   5.678  0.7654  3.2561  3.8310
  427MOL0     H56313   1.079   9.609   5.950  0.7660  0.6488  0.8540
  427MOL0     H56314   1.189   9.648   5.823  0.8454 -1.8654  2.0476
  427MOL0     H56315   1.088   9.895   5.816 -2.6785  0.7230 -0.2832
  427MOL0     H56316   1.170   9.871   5.966 -0.9803  3.2564  0.5967
  427MOL0     H56317   0.991   9.726   6.162 -1.1207 -1.3872  1.2332
  427MOL0     H56318   0.642   9.807   6.225 -2.0438 -2.1526 -0.1157
  427MOL0     H56319   0.758   9.684   6.267  1.9792  2.3294 -0.0258
  427MOL0     H56320   0.629   9.515   6.127  0.6519 -1.0246  0.5336
  427MOL0     H56321   0.581   9.643   6.022  0.4728 -0.7793 -0.3517
  427MOL0     H56322   0.428   9.731   6.190 -2.7722 -0.0217 -0.7691
  427MOL0     H56323   0.408   9.566   6.144 -0.2147  0.3303  1.2574
  427MOL0     H56324   0.377   9.547   6.365  0.1113  2.3423  1.5227
  427MOL0     H56325   0.512   9.656   6.407  3.4856 -1.9972  0.9680
  427MOL0     H56326   0.675   9.292   6.480  0.2152 -0.2261 -1.8303
  427MOL0     H56327   0.589   9.050   6.518  0.2489 -0.4556  0.1925
  427MOL0     H56328   0.424   8.680   6.234 -0.2846  1.6799  0.1197
  427MOL0     H56329   0.353   8.457   6.183  0.3721 -0.2451  0.2802
  427MOL0     H56330   0.250   8.217   6.195  1.4663  1.6995 -0.3022
  427MOL0     H56331   0.211   8.302   6.045 -1.4467 -0.3188 -1.3620
  427MOL0     H56332   0.066   8.066   6.164  0.2450  0.8050  1.7290
  427MOL0     H56333   0.123   8.090   6.002 -0.3954 -0.9296 -0.7113
  427MOL0     H56334  -0.028   8.262   5.940 -2.3464  0.9772  1.0539
  427MOL0     H56335  -0.094   8.282   6.090 -1.4175 -0.4689 -0.4848
  427MOL0     H56336  -0.122   7.991   5.964 -0.9108 -1.8495  0.9320
  427MOL0     H56337  -0.176   8.062   6.111  2.3035 -0.5249  0.1815
  427MOL0     H56338  -0.269   8.128   5.833  0.8898 -1.3252 -0.5750
  427MOL0     H56339  -0.301   8.231   5.989  0.9098 -1.9244  3.6130
  427MOL0     H56340  -0.420   8.071   6.086  0.5276 -0.3267 -0.4473
  427MOL0     H56341  -0.391   7.949   5.958 -3.4710 -1.6164  1.8311
  427MOL0     H56342  -0.537   8.228   5.928  1.5443 -0.3726  1.4834
  427MOL0     H56343  -0.504   8.105   5.797  0.0204  0.2174 -0.0744
  427MOL0     H56344  -0.622   7.944   5.937 -3.6538 -0.3140 -0.8504
  427MOL0     H56345  -0.733   8.074   5.887 -1.3178  1.8157  2.6676
  427MOL0     H56346  -0.043   8.551   6.281  0.1681 -1.8383  2.1100
  427MOL0     H56347   0.016   8.794   6.314 -0.2874 -0.7118  2.0101
  427MOL0     H56348   0.295   9.141   6.213 -0.3041  1.5175 -0.0972
  427MOL0     H56349   0.361   9.373   6.219 -0.3263 -0.3478  0.9065
  427MOL0     H56350   0.517   9.226   5.936  0.1337  0.0971 -0.5200
  427MOL0     H56351   0.313   9.101   6.002 -0.4108  1.9738  1.5049
  427MOL0     H56352  -0.166   9.004   5.868 -1.1468  0.2003 -0.4233
  427MOL0     H56353  -0.346   8.878   5.948 -0.0558  2.3458 -1.6493
  427MOL0     H56354  -0.436   8.863   6.390 -1.1460 -1.2372  1.0519
  427MOL0     H56355  -0.325   8.725   6.329  0.2966  0.8044  1.4825
  427MOL0     H56356  -0.496   8.592   6.271 -2.9229 -1.0959 -0.9842
  427MOL0     H56357  -0.544   8.653   6.431  0.4222  1.5628  0.4285
  427MOL0     H56358  -0.658   8.746   6.168 -3.6166  1.9156  0.1605
  427MOL0     H56359  -0.682   8.833   6.306  1.6657 -0.7301  0.3344
  427MOL0     H56360  -0.831   8.666   6.422 -2.3040 -2.1337 -0.0590
  427MOL0     H56361  -0.873   8.691   6.258  2.0365 -1.2961 -2.3076
  427MOL0     H56362  -0.776   8.283   6.299 -0.7577 -0.2329  0.9053
  427MOL0     H56363  -0.207   8.933   6.342 -2.5193 -2.4106 -1.3141
  427MOL0     H56364  -0.028   9.064   6.272 -2.0327  1.6616  1.0799
  428MOL0     O56365   6.469   4.231   1.439 -0.0089  0.0063  0.1760
  428MOL0     C56366   6.423   4.130   1.500 -0.0162 -0.0878 -0.3500
  428MOL0     O56367   6.483   4.065   1.605  0.6691  0.3461 -0.2370
  428MOL0     C56368   6.590   4.124   1.659  0.4144 -0.6163  0.0486
  428MOL0     C56369   6.584   4.230   1.755 -0.0665  0.1290  0.0050
  428MOL0     C56370   6.702   4.295   1.806  0.2161 -0.1074  0.5364
  428MOL0     C56371   6.824   4.261   1.751  0.3987 -0.6660 -0.5903
  428MOL0     O56372   6.935   4.340   1.785 -0.5069  0.7824  0.5555
  428MOL0     C56373   7.010   4.310   1.903 -0.6454  0.4459 -0.5211
  428MOL0     C56374   7.112   4.200   1.883 -0.1473  0.1257 -0.1189
  428MOL0     C56375   7.201   4.199   2.006  0.0505  0.0272 -0.1242
  428MOL0     C56376   7.345   4.159   1.966 -0.2639  0.0029 -0.1523
  428MOL0     C56377   7.347   4.003   1.945 -0.1762 -0.7849  0.5407
  428MOL0     C56378   7.491   3.955   1.941 -0.8396  0.0960  0.9267
  428MOL0     C56379   7.493   3.794   1.946  1.2541 -0.0433  0.3045
  428MOL0     C56380   7.619   3.735   1.993  0.0018 -1.2116  0.5624
  428MOL0     N56381   7.742   3.794   1.942 -0.2916 -0.3952  0.1327
  428MOL0     C56382   7.789   3.786   1.816  0.0341 -0.1004  0.4021
  428MOL0     C56383   7.890   3.876   1.824  0.2481  0.2694 -0.1530
  428MOL0     C56384   7.996   3.916   1.711  0.2122  0.5727 -0.2756
  428MOL0     C56385   8.138   3.903   1.767  0.0209  0.7612  0.6097
  428MOL0     C56386   8.235   3.935   1.645 -0.0986  0.0436  0.6734
  428MOL0     C56387   8.376   3.887   1.670 -0.0293 -0.0723  0.0500
  428MOL0     O56388   8.463   3.960   1.574  0.1596  0.3914  0.1155
  428MOL0     C56389   8.594   3.972   1.593  0.6707  0.3551 -0.1704
  428MOL0     C56390   8.675   4.031   1.498  0.5281  0.2856  0.1414
  428MOL0     C56391   8.811   4.040   1.515 -0.1576 -0.7403 -0.0796
  428MOL0     C56392   8.871   3.988   1.629 -0.0784  0.2000  0.3270
  428MOL0     C56393   9.015   3.995   1.650  1.0276  0.9696  0.1341
  428MOL0     O56394   9.093   4.062   1.559 -0.3063 -0.3754 -0.1736
  428MOL0     C56395   9.225   4.037   1.551 -0.5510 -0.3205  0.1868
  428MOL0     C56396   9.284   3.968   1.443 -0.5597 -0.1646 -1.0465
  428MOL0     C56397   9.427   3.951   1.440  0.7524 -1.0748 -0.1232
  428MOL0     C56398   9.511   4.002   1.541  0.9744 -0.9757  0.5828
  428MOL0     O56399   9.643   4.011   1.525 -0.3957 -0.1700 -0.8757
  428MOL0     C56400   9.718   4.124   1.561 -0.9965 -0.6508  1.4666
  428MOL0     C56401   9.804   4.101   1.683  0.1924 -0.1322 -0.8060
  428MOL0     C56402   9.932   4.016   1.657  0.1767 -0.6440 -0.2117
  428MOL0     C56403   9.989   3.980   1.792  0.1490  0.6071 -0.6332
  428MOL0     C56404  10.115   3.886   1.787  0.5221 -0.0398 -0.4352
  428MOL0     C56405  10.092   3.738   1.796  0.2200  0.9960  0.0295
  428MOL0     C56406  10.002   3.691   1.909 -0.9318 -0.5863  0.1214
  428MOL0     C56407  10.066   3.721   2.045 -0.8992  1.0457 -0.3727
  428MOL0    Cl56408  10.236   3.677   2.061 -0.1229  0.7509  0.0235
  428MOL0     C56409   9.449   4.084   1.641  0.7589  0.3366 -0.6172
  428MOL0     C56410   9.309   4.103   1.650 -0.2548  0.6354  1.5626
  428MOL0     O56411   9.056   3.910   1.736  0.1599 -0.3868 -0.3376
  428MOL0     C56412   8.789   3.931   1.721 -0.2447 -0.4905 -0.1679
  428MOL0     C56413   8.653   3.932   1.708 -0.3396  0.5901  0.4677
  428MOL0     N56414   7.916   3.920   1.950 -0.2388  0.0832  0.8296
  428MOL0     N56415   7.828   3.868   2.019  0.5119  0.0263 -0.3907
  428MOL0     C56416   6.827   4.155   1.658 -0.2697 -0.6921  0.5015
  428MOL0     C56417   6.715   4.092   1.608 -0.0732 -0.4981  0.1547
  428MOL0     C56418   6.301   4.069   1.457  0.0063 -0.0093  0.4939
  428MOL0     C56419   6.291   3.929   1.455 -0.2603 -0.0367  0.2038
  428MOL0     C56420   6.180   3.862   1.407  0.3157 -0.2491 -0.2874
  428MOL0     C56421   6.058   3.936   1.384 -0.2155 -0.1572  0.0976
  428MOL0     O56422   5.939   3.874   1.355  0.4143  0.2132  0.6496
  428MOL0     C56423   5.822   3.936   1.294 -0.1111 -0.0037 -0.4251
  428MOL0     C56424   5.717   3.965   1.396  0.1206 -0.8539  0.3609
  428MOL0     C56425   5.672   3.841   1.474  0.2555  0.3760  0.0915
  428MOL0     C56426   5.576   3.875   1.581 -1.1226  0.8276  0.5849
  428MOL0     C56427   5.570   3.773   1.683  0.9317 -0.0327  0.3018
  428MOL0     C56428   5.562   3.698   1.785  0.2981 -0.3403  0.0123
  428MOL0     C56429   6.075   4.076   1.385 -0.2306  0.0986  0.5166
  428MOL0     C56430   6.195   4.143   1.407  0.0388  0.4241 -1.3553
  428MOL0     H56431   6.493   4.264   1.802  0.6095  0.2353  1.2757
  428MOL0     H56432   6.689   4.375   1.877  0.9114  0.4338  0.0652
  428MOL0     H56433   6.945   4.279   1.986  0.2618 -2.6902 -0.8966
  428MOL0     H56434   7.069   4.395   1.938  1.4705 -1.6760  1.3852
  428MOL0     H56435   7.170   4.217   1.792  1.9829 -1.6402  0.8221
  428MOL0     H56436   7.059   4.105   1.892  2.1260 -1.2266 -0.3321
  428MOL0     H56437   7.156   4.137   2.083 -0.5445 -1.2500 -1.4498
  428MOL0     H56438   7.205   4.303   2.039 -0.9369  0.2256 -0.5884
  428MOL0     H56439   7.391   4.217   1.885  1.0015  1.9180  1.8038
  428MOL0     H56440   7.406   4.176   2.056  0.6586 -0.2840 -0.7126
  428MOL0     H56441   7.288   3.974   1.858  0.2001  1.9223 -0.7181
  428MOL0     H56442   7.304   3.964   2.038 -2.0310  2.4321  1.1805
  428MOL0     H56443   7.548   3.991   2.027 -2.9800  2.3432  1.5163
  428MOL0     H56444   7.530   3.996   1.848 -0.3844  0.5316  1.3041
  428MOL0     H56445   7.416   3.763   2.017  0.2159 -0.1349 -0.8324
  428MOL0     H56446   7.474   3.762   1.843  0.8638 -5.1791  1.7196
  428MOL0     H56447   7.618   3.632   1.957 -0.1186 -1.0254  0.0149
  428MOL0     H56448   7.630   3.738   2.102 -0.4964  1.2718  0.6131
  428MOL0     H56449   7.755   3.731   1.729  3.7252 -0.7549 -0.8016
  428MOL0     H56450   7.988   4.022   1.685 -0.0724  1.0242  1.5499
  428MOL0     H56451   7.978   3.841   1.633 -0.4946 -0.0656  0.4963
  428MOL0     H56452   8.154   3.799   1.794 -3.0859 -0.0375 -0.2605
  428MOL0     H56453   8.162   3.973   1.848  1.8595  1.4228 -0.4262
  428MOL0     H56454   8.206   3.887   1.551  0.8744  1.5400 -0.4398
  428MOL0     H56455   8.241   4.044   1.631  2.5568 -0.3766 -2.6575
  428MOL0     H56456   8.383   3.778   1.674 -0.4463 -0.0922  3.7349
  428MOL0     H56457   8.388   3.922   1.773 -3.1380  0.2285  0.4195
  428MOL0     H56458   8.640   4.039   1.396  1.7363 -0.0946 -0.3214
  428MOL0     H56459   8.864   4.077   1.428  0.1762 -1.6826 -0.2821
  428MOL0     H56460   9.216   3.922   1.373 -2.4814  1.0979 -0.0919
  428MOL0     H56461   9.463   3.889   1.359 -0.2928 -3.7266  1.3308
  428MOL0     H56462   9.663   4.218   1.561  1.8983  1.2425  3.7038
  428MOL0     H56463   9.789   4.147   1.481 -0.1597 -1.7845  1.8480
  428MOL0     H56464   9.741   4.054   1.759 -0.0181  0.7261 -0.4418
  428MOL0     H56465   9.839   4.198   1.718 -0.5874  0.4220 -1.4939
  428MOL0     H56466  10.015   4.061   1.603  2.2576  1.3400  4.1088
  428MOL0     H56467   9.897   3.920   1.618  1.8690 -0.5446 -2.1353
  428MOL0     H56468  10.027   4.074   1.832 -2.0283  1.2059  0.1674
  428MOL0     H56469   9.915   3.940   1.863  0.9250  0.1068 -0.0847
  428MOL0     H56470  10.186   3.912   1.867  0.9369 -0.8134 -0.5511
  428MOL0     H56471  10.164   3.920   1.696  0.5793  2.2501  0.3738
  428MOL0     H56472  10.192   3.697   1.810  0.3037  0.3773 -2.0508
  428MOL0     H56473  10.060   3.700   1.698 -0.4637  3.9883 -1.0460
  428MOL0     H56474   9.908   3.743   1.886  0.9039  2.3182 -1.5088
  428MOL0     H56475   9.991   3.584   1.892 -0.0607 -0.1569 -4.2548
  428MOL0     H56476  10.008   3.663   2.118 -1.7771  1.2243 -0.9102
  428MOL0     H56477  10.050   3.827   2.068  0.4638  0.9733  1.1302
  428MOL0     H56478   9.511   4.124   1.721 -1.8239 -1.0689  2.3228
  428MOL0     H56479   9.272   4.161   1.733 -1.6437  1.6289  0.3001
  428MOL0     H56480   8.834   3.901   1.815 -1.0405 -0.7579  0.1344
  428MOL0     H56481   8.591   3.895   1.789  0.2709  1.2502  1.2513
  428MOL0     H56482   6.925   4.140   1.614 -0.2835 -2.6601  1.0322
  428MOL0     H56483   6.728   4.016   1.531 -0.8876  0.1875 -0.6969
  428MOL0     H56484   6.386   3.883   1.483 -1.6213 -3.3919 -0.2527
  428MOL0     H56485   6.178   3.754   1.416  2.4187 -0.4242 -1.2685
  428MOL0     H56486   5.765   3.869   1.229  0.1997  0.1102 -0.8204
  428MOL0     H56487   5.849   4.032   1.250  0.2182  1.2993  2.4590
  428MOL0     H56488   5.758   4.041   1.463  2.3361 -1.8541  0.2184
  428MOL0     H56489   5.624   4.010   1.359 -0.0119 -0.8145  0.7304
  428MOL0     H56490   5.766   3.800   1.512  0.3121  0.5932  0.1887
  428MOL0     H56491   5.636   3.780   1.391  0.8011  1.9093 -1.3322
  428MOL0     H56492   5.597   3.968   1.634  0.3570  0.4255  0.7507
  428MOL0     H56493   5.477   3.880   1.535 -0.1710 -1.0042 -1.8968
  428MOL0     H56494   5.574   3.628   1.864  0.8170  0.9439  1.1111
  428MOL0     H56495   5.983   4.132   1.373 -0.2353 -0.2093 -1.0240
  428MOL0     H56496   6.188   4.249   1.430  2.2342  0.6346 -1.4160
  429MOL0     O56497   9.262   2.966   4.656  0.4642 -0.0690 -0.6812
  429MOL0     C56498   9.297   2.976   4.536  0.6715  0.3752 -0.4068
  429MOL0     O56499   9.412   2.925   4.478  0.7184  0.0330  0.1021
  429MOL0     C56500   9.499   2.867   4.562 -0.2574  0.0998 -0.2527
  429MOL0     C56501   9.629   2.892   4.533 -0.7486  0.2204  0.9014
  429MOL0     C56502   9.732   2.849   4.622 -0.0419 -0.5617 -0.1451
  429MOL0     C56503   9.697   2.758   4.718 -0.1971  0.9402  0.1865
  429MOL0     O56504   9.808   2.696   4.778  0.3036 -0.4810 -0.6598
  429MOL0     C56505   9.798   2.559   4.818  0.0021 -0.4488  0.8327
  429MOL0     C56506   9.943   2.517   4.813  0.2798  0.3982  0.5920
  429MOL0     C56507   9.971   2.367   4.852  0.1384 -1.4463  1.2946
  429MOL0     C56508   9.957   2.268   4.735  0.8551 -0.4566  0.1810
  429MOL0     C56509  10.061   2.275   4.619  0.6757 -0.3887 -1.4874
  429MOL0     C56510  10.202   2.264   4.668 -0.4798 -0.3022  0.2969
  429MOL0     C56511  10.317   2.282   4.560 -0.1166 -1.1179 -0.9436
  429MOL0     C56512  10.469   2.257   4.585  0.3947  0.1271 -0.8107
  429MOL0     N56513  10.534   2.367   4.645 -0.4650  0.3276 -0.0326
  429MOL0     C56514  10.626   2.360   4.748 -0.1033  0.4718  0.7261
  429MOL0     C56515  10.673   2.486   4.759  0.1502 -0.0203  0.0801
  429MOL0     C56516  10.788   2.529   4.847 -0.3634 -0.8198  0.2713
  429MOL0     C56517  10.922   2.556   4.774 -0.1233  0.3013  0.4610
  429MOL0     C56518  10.999   2.418   4.762  0.5870  0.1259  0.4475
  429MOL0     C56519  11.119   2.430   4.680  0.5156 -0.1343 -0.3544
  429MOL0     O56520  11.209   2.530   4.746  0.2716 -0.3706 -0.9742
  429MOL0     C56521  11.344   2.522   4.711  0.0698  0.1082  0.4569
  429MOL0     C56522  11.428   2.578   4.806 -1.0394  0.4054 -0.3836
  429MOL0     C56523  11.572   2.575   4.785  0.1341  0.2747  0.2717
  429MOL0     C56524  11.629   2.526   4.672 -0.6812  0.1476 -1.1536
  429MOL0     C56525  11.778   2.523   4.649 -0.4903 -0.5368 -0.4088
  429MOL0     O56526  11.820   2.493   4.521 -0.1446  0.1501  0.4817
  429MOL0     C56527  11.949   2.491   4.506 -0.6162 -0.4905  0.9685
  429MOL0     C56528  12.017   2.375   4.534 -0.1232 -1.2886  0.3535
  429MOL0     C56529  12.151   2.365   4.500  0.3949 -0.4594 -0.9557
  429MOL0     C56530  12.226   2.480   4.453  0.1147  0.7708 -0.4594
  429MOL0     O56531  12.358   2.480   4.417 -0.1457  0.1089  0.5250
  429MOL0     C56532  12.428   2.356   4.377 -0.5387 -0.4206 -0.4250
  429MOL0     C56533  12.525   2.303   4.475 -1.1704 -0.0846 -0.4719
  429MOL0     C56534  12.579   2.160   4.427  0.8613  0.3905 -0.4271
  429MOL0     C56535  12.641   2.152   4.294  0.4066  0.0036 -0.5703
  429MOL0     C56536  12.669   2.009   4.230 -0.3620 -0.6110 -0.7724
  429MOL0     C56537  12.701   1.900   4.338 -0.4488 -0.2331  0.3968
  429MOL0     C56538  12.714   1.757   4.268  0.5142  0.0092  0.2230
  429MOL0     C56539  12.674   1.656   4.370 -0.5990 -0.3791  0.6610
  429MOL0    Cl56540  12.495   1.621   4.380  0.1443 -0.5441 -0.3647
  429MOL0     C56541  12.153   2.593   4.442  0.5340 -1.3564  0.3679
  429MOL0     C56542  12.018   2.605   4.454  0.2334  0.2082  1.0764
  429MOL0     O56543  11.851   2.562   4.746 -0.2083  0.0765  0.2373
  429MOL0     C56544  11.541   2.467   4.576 -1.0005  0.1453  0.1521
  429MOL0     C56545  11.403   2.466   4.598 -0.0639  0.1181 -1.1531
  429MOL0     N56546  10.621   2.564   4.654 -0.1127  0.3596 -0.4356
  429MOL0     N56547  10.539   2.490   4.593  0.2831 -0.1721  0.3667
  429MOL0     C56548   9.565   2.712   4.741 -1.2643 -0.1599  0.0809
  429MOL0     C56549   9.470   2.759   4.655 -0.0662  0.8985 -0.6267
  429MOL0     C56550   9.216   3.047   4.441  0.4831  0.2832  0.0882
  429MOL0     C56551   9.275   3.122   4.331  0.7284 -0.0298 -0.7473
  429MOL0     C56552   9.187   3.172   4.233 -0.4692 -0.1911 -1.5965
  429MOL0     C56553   9.049   3.155   4.236 -0.2915 -0.3980  0.4618
  429MOL0     O56554   8.980   3.212   4.131 -0.0931  0.1499 -1.1213
  429MOL0     C56555   8.837   3.195   4.125  0.2299  0.0250 -0.8432
  429MOL0     C56556   8.778   3.245   3.989 -0.1135 -0.1560  0.0536
  429MOL0     C56557   8.827   3.159   3.873  0.9358  0.4742  0.3464
  429MOL0     C56558   8.798   3.227   3.746  0.1699  0.0358  0.1153
  429MOL0     C56559   8.663   3.240   3.701  0.4452 -1.1009 -0.8696
  429MOL0     C56560   8.545   3.248   3.672  0.7420  0.1946 -0.4699
  429MOL0     C56561   8.999   3.100   4.345  0.0743  0.2979 -0.2622
  429MOL0     C56562   9.081   3.041   4.448  0.9146  0.0446  0.9073
  429MOL0     H56563   9.658   2.971   4.465  1.6436  0.3217  1.9258
  429MOL0     H56564   9.836   2.878   4.607  0.1742 -1.4446 -0.3918
  429MOL0     H56565   9.739   2.487   4.759 -0.8928  0.2312  0.8787
  429MOL0     H56566   9.761   2.556   4.920 -1.0123  1.1669  0.5481
  429MOL0     H56567   9.987   2.584   4.887 -1.8514  1.1222  1.2757
  429MOL0     H56568   9.991   2.543   4.718 -2.2602  1.0151 -0.6255
  429MOL0     H56569   9.895   2.337   4.925 -2.7444 -1.4597 -1.5059
  429MOL0     H56570  10.073   2.355   4.890  2.5532 -1.1917 -4.2150
  429MOL0     H56571   9.979   2.168   4.774 -1.2659 -2.4169 -3.1745
  429MOL0     H56572   9.861   2.285   4.685  2.1579  4.2887 -1.2013
  429MOL0     H56573  10.044   2.375   4.578 -0.7142 -0.3323 -0.8255
  429MOL0     H56574  10.040   2.206   4.538 -0.2292 -1.6029 -0.2669
  429MOL0     H56575  10.215   2.166   4.715  0.2706 -0.0774  0.5788
  429MOL0     H56576  10.228   2.336   4.746  2.0495 -1.1100  0.3182
  429MOL0     H56577  10.294   2.221   4.472 -1.9290 -1.2973 -0.3943
  429MOL0     H56578  10.302   2.387   4.533 -1.4922 -0.5638  1.6520
  429MOL0     H56579  10.515   2.218   4.494 -3.3610 -3.0599 -1.6258
  429MOL0     H56580  10.482   2.178   4.659 -0.8448 -0.0913 -0.8007
  429MOL0     H56581  10.660   2.272   4.802  3.6194  0.3120 -1.5191
  429MOL0     H56582  10.793   2.456   4.928 -4.1510 -0.7264  0.8101
  429MOL0     H56583  10.759   2.619   4.901 -3.4159 -3.1359  2.8825
  429MOL0     H56584  10.992   2.619   4.829 -0.3163 -1.4055  2.8296
  429MOL0     H56585  10.901   2.587   4.671  2.3898  3.2296  0.7026
  429MOL0     H56586  11.021   2.356   4.849  3.2009 -0.1925 -0.3266
  429MOL0     H56587  10.936   2.348   4.706  1.8928 -0.6864 -0.0671
  429MOL0     H56588  11.087   2.457   4.579 -0.2240  0.7573  0.1057
  429MOL0     H56589  11.174   2.335   4.674  0.9007  0.1475 -1.8493
  429MOL0     H56590  11.377   2.626   4.889  1.9155  0.4909  1.5315
  429MOL0     H56591  11.641   2.625   4.853  0.0980  3.4407 -1.7815
  429MOL0     H56592  11.962   2.290   4.574 -0.6243 -0.5191  1.3381
  429MOL0     H56593  12.198   2.268   4.517  1.7135 -0.0559 -2.0727
  429MOL0     H56594  12.487   2.391   4.291 -1.0849  0.5764 -0.4160
  429MOL0     H56595  12.357   2.276   4.352 -0.7700 -0.2208 -0.4148
  429MOL0     H56596  12.493   2.304   4.579  1.9578  0.7266  0.5943
  429MOL0     H56597  12.603   2.379   4.485 -1.5429 -0.0134  7.2867
  429MOL0     H56598  12.489   2.099   4.434 -0.9611  3.0912  2.5900
  429MOL0     H56599  12.653   2.137   4.505  2.5125  2.1855 -1.3734
  429MOL0     H56600  12.579   2.203   4.220 -2.0149 -1.0828  0.5814
  429MOL0     H56601  12.735   2.207   4.291  0.3493  0.0540 -2.4513
  429MOL0     H56602  12.751   1.995   4.159 -0.2303  0.3640 -0.8303
  429MOL0     H56603  12.581   1.969   4.180 -2.2339  1.5263  0.6048
  429MOL0     H56604  12.601   1.900   4.384 -1.4938  1.6126 -1.6668
  429MOL0     H56605  12.788   1.916   4.402  0.7405 -2.6588 -0.4717
  429MOL0     H56606  12.655   1.754   4.176  0.7325  0.6060  0.0567
  429MOL0     H56607  12.815   1.741   4.230  0.5498 -0.4855  0.5200
  429MOL0     H56608  12.710   1.680   4.471  1.4960  0.7694 -0.2823
  429MOL0     H56609  12.728   1.564   4.350 -0.7520 -0.4501  0.5729
  429MOL0     H56610  12.215   2.677   4.413 -0.2786 -0.9517 -0.2432
  429MOL0     H56611  11.963   2.696   4.434 -0.0791 -0.6096 -2.2055
  429MOL0     H56612  11.586   2.435   4.482  1.6669  1.3544  0.9108
  429MOL0     H56613  11.342   2.418   4.521 -0.3789  0.6280 -1.2219
  429MOL0     H56614   9.549   2.621   4.797  2.4237 -0.5556  0.7358
  429MOL0     H56615   9.369   2.720   4.662  0.0728  0.7867  1.2048
  429MOL0     H56616   9.383   3.134   4.329  0.7108  0.1532 -0.6410
  429MOL0     H56617   9.224   3.223   4.144 -4.0281  3.7212 -1.1471
  429MOL0     H56618   8.788   3.253   4.204 -0.2049  1.0519 -1.8399
  429MOL0     H56619   8.822   3.088   4.143 -2.5118  0.3360 -0.8833
  429MOL0     H56620   8.669   3.237   3.990 -0.2671  1.5359 -0.2776
  429MOL0     H56621   8.794   3.352   3.977  0.3917 -0.3113 -0.6728
  429MOL0     H56622   8.780   3.061   3.886 -0.4185  1.2366  1.4982
  429MOL0     H56623   8.935   3.143   3.875  0.8291 -0.2607  0.5083
  429MOL0     H56624   8.838   3.327   3.761  3.4472 -1.1445 -0.0338
  429MOL0     H56625   8.865   3.182   3.673 -0.1557 -2.9384  1.5046
  429MOL0     H56626   8.440   3.248   3.652  0.5572 -0.4977  0.4501
  429MOL0     H56627   8.893   3.094   4.366 -0.7782  3.7207 -2.7099
  429MOL0     H56628   9.036   2.990   4.533  1.5657 -3.0521 -0.4934
  430MOL0     O56629   5.336   1.052   6.829  0.4228  0.3640  0.3860
  430MOL0     C56630   5.454   1.078   6.818  0.3918 -0.0804 -0.1085
  430MOL0     O56631   5.512   1.199   6.790  0.5596  0.5853  0.4399
  430MOL0     C56632   5.423   1.275   6.707  0.1582  0.9062 -0.3549
  430MOL0     C56633   5.352   1.224   6.600 -0.6806  0.7200 -0.5606
  430MOL0     C56634   5.257   1.307   6.530 -0.0465 -0.0171 -0.0070
  430MOL0     C56635   5.233   1.444   6.558 -0.1803 -0.1683 -0.2639
  430MOL0     O56636   5.160   1.529   6.483  0.4963 -0.1477  0.0371
  430MOL0     C56637   5.040   1.481   6.414 -0.0727 -0.3059  0.0549
  430MOL0     C56638   4.918   1.576   6.415 -0.2667 -0.0208 -0.4236
  430MOL0     C56639   4.808   1.546   6.305 -0.0989 -0.7781 -0.1458
  430MOL0     C56640   4.706   1.662   6.283  0.7797  0.9262  0.0306
  430MOL0     C56641   4.642   1.689   6.148  1.1321  0.5384  0.3239
  430MOL0     C56642   4.564   1.556   6.119 -0.5120 -0.2565 -0.9134
  430MOL0     C56643   4.461   1.563   6.003  0.4506  0.5913 -0.6477
  430MOL0     C56644   4.425   1.413   5.983 -0.1290 -0.4723  0.7779
  430MOL0     N56645   4.318   1.391   5.889  0.4715 -0.1697 -0.1949
  430MOL0     C56646   4.305   1.450   5.763  0.5763  0.1109  0.2082
  430MOL0     C56647   4.180   1.428   5.729 -0.1143  0.1034  0.5117
  430MOL0     C56648   4.116   1.467   5.604 -0.2878 -0.0508 -1.0138
  430MOL0     C56649   4.092   1.344   5.526  0.0319 -0.5755 -0.2432
  430MOL0     C56650   4.052   1.377   5.380 -0.0244 -0.1657 -0.0182
  430MOL0     C56651   3.927   1.460   5.366 -0.3208  1.1168 -0.5559
  430MOL0     O56652   3.824   1.386   5.424 -0.1984  0.0269 -0.4940
  430MOL0     C56653   3.687   1.421   5.393 -0.3108  0.2112  0.7464
  430MOL0     C56654   3.636   1.551   5.397  0.0885  0.1794  1.1454
  430MOL0     C56655   3.509   1.581   5.356  1.1052 -1.0198 -0.4250
  430MOL0     C56656   3.432   1.483   5.284  0.4582 -0.4219  0.5464
  430MOL0     C56657   3.298   1.509   5.221 -0.2535 -0.1844  1.2060
  430MOL0     O56658   3.260   1.417   5.132 -0.7111  0.0513 -0.1386
  430MOL0     C56659   3.144   1.444   5.058 -1.0510 -0.2951  0.7076
  430MOL0     C56660   3.059   1.339   5.029 -0.4311  0.5483  0.0115
  430MOL0     C56661   2.938   1.355   4.954  0.9584  0.7700 -1.4914
  430MOL0     C56662   2.924   1.474   4.887  0.9367 -0.1097  0.0351
  430MOL0     O56663   2.799   1.493   4.827 -0.9862  0.5722  0.4057
  430MOL0     C56664   2.791   1.601   4.741  0.4774  0.0057  0.6487
  430MOL0     C56665   2.657   1.598   4.678  0.7384  0.8101 -0.3029
  430MOL0     C56666   2.597   1.452   4.664  0.6161  0.0328  0.6303
  430MOL0     C56667   2.480   1.452   4.566  0.0931 -0.8534  0.0482
  430MOL0     C56668   2.411   1.311   4.551 -0.1168 -0.5621  0.0482
  430MOL0     C56669   2.488   1.193   4.480  0.5761 -0.3182 -0.3352
  430MOL0     C56670   2.386   1.074   4.465  0.3306 -0.3565 -0.2796
  430MOL0     C56671   2.294   1.085   4.343  0.0371 -0.2023 -0.0045
  430MOL0    Cl56672   2.144   1.195   4.357 -0.2320  0.1555 -0.0495
  430MOL0     C56673   3.018   1.578   4.910 -0.6665  0.2488  0.7317
  430MOL0     C56674   3.127   1.569   5.000  0.3351  0.5365  0.8703
  430MOL0     O56675   3.228   1.602   5.267  0.9941 -0.0883  0.0351
  430MOL0     C56676   3.482   1.355   5.281  0.1457 -0.1192  0.1755
  430MOL0     C56677   3.605   1.324   5.329  0.2194  0.5495  0.1940
  430MOL0     N56678   4.113   1.355   5.818 -1.0420 -0.3977 -0.4804
  430MOL0     N56679   4.195   1.325   5.919 -0.1712 -0.9362  0.5547
  430MOL0     C56680   5.314   1.490   6.661  0.0249 -0.1462  0.2577
  430MOL0     C56681   5.399   1.411   6.735 -0.7017  1.0295 -0.9284
  430MOL0     C56682   5.551   0.965   6.833 -0.2308  0.2462  0.7014
  430MOL0     C56683   5.678   0.966   6.769 -0.7408  0.2644  0.4317
  430MOL0     C56684   5.767   0.857   6.772  0.0710  0.1211 -0.8197
  430MOL0     C56685   5.725   0.746   6.846  0.6390  0.4207  0.0102
  430MOL0     O56686   5.808   0.639   6.860  0.5965 -0.4684  0.2280
  430MOL0     C56687   5.797   0.542   6.746 -0.2202  0.5527 -1.0916
  430MOL0     C56688   5.896   0.557   6.622  0.2734  0.4680 -0.3973
  430MOL0     C56689   6.042   0.540   6.665 -0.2608  0.0136  0.0437
  430MOL0     C56690   6.101   0.655   6.748  0.8066 -0.0184 -0.1265
  430MOL0     C56691   6.233   0.620   6.793 -0.2584  0.7343  0.2570
  430MOL0     C56692   6.346   0.596   6.829 -0.7619  0.1574 -0.6799
  430MOL0     C56693   5.598   0.743   6.905 -0.1591  0.6594 -0.7769
  430MOL0     C56694   5.510   0.848   6.896  0.0672  0.1555  0.4631
  430MOL0     H56695   5.377   1.131   6.550  2.3815  1.2559 -0.2634
  430MOL0     H56696   5.193   1.266   6.453  0.0733  2.6465 -1.6556
  430MOL0     H56697   5.003   1.389   6.461  0.6440 -2.9108 -3.9535
  430MOL0     H56698   5.067   1.451   6.312 -2.0131 -0.5258 -0.4400
  430MOL0     H56699   4.961   1.675   6.397  1.6881 -0.9711 -1.3013
  430MOL0     H56700   4.872   1.572   6.514 -2.4392 -1.7328 -1.4213
  430MOL0     H56701   4.749   1.454   6.306 -1.2196 -0.1982 -3.3498
  430MOL0     H56702   4.864   1.530   6.213 -0.2329 -2.7307  0.0653
  430MOL0     H56703   4.626   1.653   6.358 -1.1576 -0.4235 -2.0883
  430MOL0     H56704   4.746   1.759   6.316  1.0733  0.1320  2.1732
  430MOL0     H56705   4.709   1.715   6.065 -0.3057 -0.4970 -1.2137
  430MOL0     H56706   4.561   1.760   6.168 -0.3167 -1.0658  0.3015
  430MOL0     H56707   4.514   1.515   6.208  0.1306  0.0792 -0.3840
  430MOL0     H56708   4.644   1.486   6.091  0.3578  0.7292 -0.9250
  430MOL0     H56709   4.372   1.616   6.037  0.4917  0.0929  0.2800
  430MOL0     H56710   4.493   1.607   5.908 -3.3254  2.3411 -1.2836
  430MOL0     H56711   4.394   1.365   6.077 -0.8419 -2.0694 -0.2319
  430MOL0     H56712   4.505   1.352   5.943  0.9470  1.3381  0.0469
  430MOL0     H56713   4.376   1.501   5.700 -1.5744  1.6470 -1.1198
  430MOL0     H56714   4.190   1.526   5.549  0.9413  1.4475  2.0284
  430MOL0     H56715   4.022   1.516   5.629  0.5984  1.3992 -0.3901
  430MOL0     H56716   4.008   1.298   5.578 -0.8266  1.0223 -0.1590
  430MOL0     H56717   4.187   1.289   5.521  2.3299  3.0344 -0.2932
  430MOL0     H56718   4.140   1.415   5.327  1.2590 -1.9084  0.7515
  430MOL0     H56719   4.031   1.281   5.332 -0.7444 -0.4121  0.7784
  430MOL0     H56720   3.913   1.478   5.259  0.3589  2.0031 -0.5124
  430MOL0     H56721   3.940   1.557   5.416  0.4880  0.0558  1.4084
  430MOL0     H56722   3.700   1.630   5.436  1.3679  1.2898 -2.7497
  430MOL0     H56723   3.478   1.685   5.360 -0.2245 -1.4356  2.1129
  430MOL0     H56724   3.077   1.241   5.072 -3.2150 -0.2594 -0.4755
  430MOL0     H56725   2.861   1.279   4.951  0.9002  0.7466 -0.2394
  430MOL0     H56726   2.863   1.601   4.659 -0.6887  1.4377 -0.4298
  430MOL0     H56727   2.800   1.699   4.789  2.8055  0.2231 -0.0842
  430MOL0     H56728   2.657   1.654   4.584 -2.8115  2.4595  0.4878
  430MOL0     H56729   2.582   1.637   4.748 -0.5376  0.3194 -1.3505
  430MOL0     H56730   2.562   1.407   4.758 -0.6719 -1.9389 -0.7118
  430MOL0     H56731   2.667   1.383   4.615  1.2668 -0.8298  2.6671
  430MOL0     H56732   2.406   1.527   4.594  1.3265  0.0663  0.9860
  430MOL0     H56733   2.514   1.477   4.465  1.0378  2.3036  1.0153
  430MOL0     H56734   2.317   1.331   4.499 -0.0160  0.3280  0.2001
  430MOL0     H56735   2.382   1.270   4.649 -0.8418 -4.0261 -1.4647
  430MOL0     H56736   2.575   1.176   4.544 -0.1400  1.4585  1.2134
  430MOL0     H56737   2.529   1.227   4.385  1.1768 -0.9421 -0.3043
  430MOL0     H56738   2.434   0.976   4.456  1.8080  0.4568 -1.6695
  430MOL0     H56739   2.336   1.066   4.562  4.0456  1.8160  2.0543
  430MOL0     H56740   2.258   0.982   4.329 -3.6083  0.1588  4.4477
  430MOL0     H56741   2.352   1.107   4.253  2.5691 -1.3668  1.2388
  430MOL0     H56742   3.002   1.682   4.882  0.6138  0.2447 -0.0913
  430MOL0     H56743   3.200   1.648   5.005 -0.4598  1.3328  0.2296
  430MOL0     H56744   3.430   1.268   5.242  1.5476 -2.2334  2.6311
  430MOL0     H56745   3.642   1.222   5.318 -1.7750 -0.4912  2.3804
  430MOL0     H56746   5.323   1.593   6.693 -0.4789  0.6172 -1.9161
  430MOL0     H56747   5.453   1.447   6.822  0.1311 -0.4679 -0.7946
  430MOL0     H56748   5.720   1.053   6.719 -0.8707  0.1830  0.1799
  430MOL0     H56749   5.859   0.862   6.716  0.4726  2.3223 -0.0315
  430MOL0     H56750   5.696   0.542   6.702 -0.5617  0.1456 -0.3298
  430MOL0     H56751   5.815   0.442   6.786 -0.9332  0.6175 -0.5860
  430MOL0     H56752   5.869   0.466   6.568 -0.0420  0.1962  0.2065
  430MOL0     H56753   5.856   0.636   6.557 -1.5907 -1.7492 -2.1532
  430MOL0     H56754   6.100   0.546   6.573 -1.0199 -2.1828 -0.6434
  430MOL0     H56755   6.071   0.446   6.713  1.1259 -1.1903 -2.9315
  430MOL0     H56756   6.104   0.750   6.693 -1.0139  0.4973  0.5760
  430MOL0     H56757   6.049   0.673   6.843 -0.3700 -2.3308 -0.2706
  430MOL0     H56758   6.446   0.576   6.862 -0.8413  1.7785  0.7213
  430MOL0     H56759   5.573   0.648   6.951  1.5182  0.9633  0.9195
  430MOL0     H56760   5.410   0.839   6.938  0.9862 -0.8010  2.5664
  431MOL0     O56761   5.697   7.256   6.259 -0.4028 -0.3947  0.1315
  431MOL0     C56762   5.689   7.372   6.225 -0.0738 -0.1694 -0.2612
  431MOL0     O56763   5.792   7.452   6.192 -0.3389 -0.7390  0.2575
  431MOL0     C56764   5.920   7.409   6.153  0.0020  0.1680 -0.3237
  431MOL0     C56765   5.942   7.288   6.093  1.1132 -0.4601 -0.5492
  431MOL0     C56766   6.067   7.257   6.042  0.0415  0.2789 -0.0946
  431MOL0     C56767   6.177   7.344   6.063 -0.3299  0.7217  0.3357
  431MOL0     O56768   6.301   7.306   6.020  0.3555 -0.2446  0.2848
  431MOL0     C56769   6.361   7.407   5.941  0.5628 -0.0904  0.7466
  431MOL0     C56770   6.400   7.356   5.802 -1.3164  0.5025 -0.3395
  431MOL0     C56771   6.498   7.235   5.806  0.2502  0.0762  0.1164
  431MOL0     C56772   6.490   7.168   5.669  0.5135  0.6539 -0.4455
  431MOL0     C56773   6.594   7.057   5.673 -0.4937  1.2402 -0.0739
  431MOL0     C56774   6.588   6.960   5.558  0.2497  0.4056  0.4616
  431MOL0     C56775   6.629   7.027   5.426  0.0211  0.1382 -0.1467
  431MOL0     C56776   6.615   6.920   5.307 -0.7261  0.2422  0.1047
  431MOL0     N56777   6.748   6.854   5.303 -0.5114  0.5313  0.6136
  431MOL0     C56778   6.826   6.793   5.399  0.9689  0.3659 -0.5705
  431MOL0     C56779   6.942   6.762   5.338  0.8056 -0.4948 -0.3517
  431MOL0     C56780   7.055   6.685   5.401 -0.1662 -0.3168 -0.0179
  431MOL0     C56781   7.017   6.578   5.502  0.0492 -0.6429 -0.1790
  431MOL0     C56782   7.138   6.532   5.590  0.4951  0.5432  0.6271
  431MOL0     C56783   7.183   6.627   5.703 -0.6152 -0.9359 -0.2821
  431MOL0     O56784   7.084   6.644   5.807  0.0127 -0.1404 -0.1495
  431MOL0     C56785   7.106   6.738   5.906  0.0835 -0.3118 -0.3304
  431MOL0     C56786   7.003   6.821   5.946  0.2586 -0.8740  0.5998
  431MOL0     C56787   7.045   6.927   6.033 -0.2240  0.8279 -0.0122
  431MOL0     C56788   7.170   6.932   6.101 -0.5701  0.1795 -0.1484
  431MOL0     C56789   7.194   7.027   6.214 -0.4372 -0.7263  0.1872
  431MOL0     O56790   7.314   7.010   6.281 -0.0736  0.0272 -0.4314
  431MOL0     C56791   7.333   7.068   6.408  0.2213 -0.1355  1.0010
  431MOL0     C56792   7.464   7.076   6.448 -0.3779  0.0126 -0.8360
  431MOL0     C56793   7.502   7.123   6.574  0.3146 -0.0405 -0.1600
  431MOL0     C56794   7.395   7.173   6.655 -0.0984  0.0465 -0.8970
  431MOL0     O56795   7.406   7.249   6.771 -0.8266 -0.7509 -0.0869
  431MOL0     C56796   7.512   7.343   6.775 -1.2302 -0.7462 -0.3096
  431MOL0     C56797   7.466   7.471   6.712  0.1126 -0.7603 -0.1928
  431MOL0     C56798   7.348   7.533   6.781  0.2547  0.4335  0.2753
  431MOL0     C56799   7.318   7.678   6.724  0.7780  0.4323 -0.2292
  431MOL0     C56800   7.175   7.726   6.763  0.2209  0.1413  0.2079
  431MOL0     C56801   7.137   7.854   6.697  0.6246  0.4687  0.0107
  431MOL0     C56802   7.227   7.970   6.745  0.9239  0.2442  0.0233
  431MOL0     C56803   7.230   7.986   6.905 -0.2669 -0.0484 -0.2377
  431MOL0    Cl56804   7.329   8.137   6.928  0.2503  0.1293 -0.4743
  431MOL0     C56805   7.264   7.157   6.616 -0.3774  0.2995 -0.8817
  431MOL0     C56806   7.226   7.097   6.500 -0.2342 -0.6362  0.5822
  431MOL0     O56807   7.112   7.117   6.233  0.5394 -0.5681 -0.4442
  431MOL0     C56808   7.272   6.843   6.055 -0.2301  0.3626 -0.0176
  431MOL0     C56809   7.228   6.746   5.966 -0.2463  0.8622  0.2215
  431MOL0     N56810   6.942   6.813   5.214  0.4718 -1.2807  1.0444
  431MOL0     N56811   6.825   6.859   5.189 -0.2547  0.0623 -0.8253
  431MOL0     C56812   6.158   7.456   6.142 -0.7030 -0.4813 -0.0133
  431MOL0     C56813   6.028   7.493   6.178  0.4695 -0.0692  0.6677
  431MOL0     C56814   5.553   7.429   6.204  0.4231  0.7042  0.4305
  431MOL0     C56815   5.535   7.546   6.141  0.9300 -0.7858 -0.3409
  431MOL0     C56816   5.409   7.591   6.101  0.0319  0.8541  1.3124
  431MOL0     C56817   5.288   7.515   6.114  0.6843  0.5642 -0.0340
  431MOL0     O56818   5.170   7.548   6.052  0.3388 -0.6164 -0.0295
  431MOL0     C56819   5.130   7.487   5.935 -0.2860  0.2415 -0.3450
  431MOL0     C56820   5.213   7.510   5.807 -0.1975 -0.5052  0.5087
  431MOL0     C56821   5.148   7.616   5.719 -0.2555  0.4326  0.7662
  431MOL0     C56822   5.130   7.763   5.775 -0.9212  0.5856 -0.6418
  431MOL0     C56823   5.259   7.828   5.796 -0.6921  0.9366  0.5771
  431MOL0     C56824   5.364   7.883   5.835 -0.0553  1.1663  0.2993
  431MOL0     C56825   5.304   7.393   6.177  0.4503  0.2105 -0.6795
  431MOL0     C56826   5.435   7.350   6.219 -0.1151 -0.2760 -0.2858
  431MOL0     H56827   5.863   7.215   6.075  2.5729 -1.8227 -1.7121
  431MOL0     H56828   6.082   7.167   5.984  4.5503  0.3055  0.6774
  431MOL0     H56829   6.455   7.440   5.987 -0.7510 -0.8711  4.3285
  431MOL0     H56830   6.306   7.501   5.935 -1.4073 -1.2645 -3.2314
  431MOL0     H56831   6.430   7.442   5.741 -0.0183  0.6718  0.5074
  431MOL0     H56832   6.311   7.318   5.751 -1.5951  1.7534 -0.8211
  431MOL0     H56833   6.472   7.166   5.887  0.0654  0.5645  0.4761
  431MOL0     H56834   6.602   7.261   5.828  1.6389 -3.5547 -1.3790
  431MOL0     H56835   6.388   7.127   5.661  0.7777 -1.4747  4.0409
  431MOL0     H56836   6.521   7.241   5.594 -0.8376 -0.4423 -2.1555
  431MOL0     H56837   6.569   7.000   5.763 -0.7113  4.6937  2.2538
  431MOL0     H56838   6.695   7.096   5.691 -0.5796  1.0417  0.9316
  431MOL0     H56839   6.486   6.923   5.549 -0.0365  0.8571  1.7513
  431MOL0     H56840   6.646   6.869   5.577 -1.1522 -1.1791 -2.1596
  431MOL0     H56841   6.561   7.111   5.413  1.3038  1.2224 -0.0697
  431MOL0     H56842   6.729   7.067   5.442 -0.2509  0.2763  1.3653
  431MOL0     H56843   6.593   6.966   5.210 -0.3431  0.7552  0.2532
  431MOL0     H56844   6.540   6.842   5.312 -0.4578 -0.3576 -3.0936
  431MOL0     H56845   6.795   6.767   5.499 -1.0791 -0.7881 -1.4376
  431MOL0     H56846   7.125   6.746   5.458  3.6191 -0.6620 -3.7979
  431MOL0     H56847   7.113   6.626   5.329  0.4367  0.4359 -0.1536
  431MOL0     H56848   6.962   6.500   5.449 -3.6136  1.5736  0.0154
  431MOL0     H56849   6.958   6.631   5.577  0.9282 -0.3656  0.3267
  431MOL0     H56850   7.108   6.436   5.634 -2.7806  0.0591 -2.2759
  431MOL0     H56851   7.217   6.500   5.521 -0.6730  0.2728 -0.6213
  431MOL0     H56852   7.212   6.724   5.661 -0.8636 -1.1006 -0.8404
  431MOL0     H56853   7.271   6.585   5.751 -0.2248 -0.1486 -0.2843
  431MOL0     H56854   6.906   6.812   5.899  0.6877 -3.5339  0.0466
  431MOL0     H56855   6.966   6.989   6.073  0.3252  1.3865  0.2207
  431MOL0     H56856   7.542   7.031   6.386 -2.0065  0.2818 -3.2202
  431MOL0     H56857   7.606   7.149   6.592 -0.6612  2.7409  2.2658
  431MOL0     H56858   7.606   7.311   6.728  0.0966  0.1748  1.5302
  431MOL0     H56859   7.544   7.373   6.876  0.5812  2.1090 -1.5907
  431MOL0     H56860   7.437   7.455   6.608  0.0482 -0.8113 -0.1666
  431MOL0     H56861   7.553   7.537   6.720 -0.2374 -0.4651  1.7075
  431MOL0     H56862   7.367   7.536   6.888 -1.2241 -2.9861  0.7653
  431MOL0     H56863   7.257   7.473   6.778  0.3161  0.2971  1.0029
  431MOL0     H56864   7.398   7.742   6.763  1.0004  0.4365 -0.6858
  431MOL0     H56865   7.318   7.687   6.615  1.4642 -0.6455 -0.3282
  431MOL0     H56866   7.171   7.735   6.872  0.4624 -0.1435  0.2431
  431MOL0     H56867   7.104   7.656   6.718  0.5035  0.9272 -1.5423
  431MOL0     H56868   7.034   7.879   6.723  1.1942  0.6714  2.3357
  431MOL0     H56869   7.138   7.839   6.589 -1.5468  0.2051 -0.0189
  431MOL0     H56870   7.331   7.958   6.713  0.7005 -0.3621 -0.4946
  431MOL0     H56871   7.199   8.062   6.694 -0.7032 -1.7448 -2.9411
  431MOL0     H56872   7.282   7.907   6.960 -2.7522 -1.8283 -0.2941
  431MOL0     H56873   7.129   7.984   6.946  0.7547 -0.4552  2.4533
  431MOL0     H56874   7.190   7.207   6.676 -1.5487  2.2223 -3.7318
  431MOL0     H56875   7.122   7.080   6.477  0.0857  0.3776 -2.0271
  431MOL0     H56876   7.372   6.844   6.096 -0.7797  1.8868  1.4057
  431MOL0     H56877   7.304   6.672   5.944 -0.8407  0.3783 -0.2344
  431MOL0     H56878   6.242   7.518   6.172  0.5430 -3.8183  4.3663
  431MOL0     H56879   6.006   7.587   6.226  1.9261  1.5761 -1.6410
  431MOL0     H56880   5.617   7.611   6.112  0.8905  1.3282  3.5440
  431MOL0     H56881   5.409   7.684   6.046  3.0681  0.8212  1.0835
  431MOL0     H56882   5.025   7.501   5.906 -0.3315 -0.4801 -0.5448
  431MOL0     H56883   5.128   7.380   5.958 -1.7332  0.1362 -0.8221
  431MOL0     H56884   5.320   7.527   5.815 -0.0142 -1.8299  1.1062
  431MOL0     H56885   5.220   7.424   5.740 -2.6419  0.4931 -1.1533
  431MOL0     H56886   5.048   7.585   5.690 -0.4499  2.0131 -0.3185
  431MOL0     H56887   5.206   7.632   5.628 -2.7799 -0.7800 -1.1716
  431MOL0     H56888   5.069   7.827   5.710 -0.8873  1.1151 -0.1592
  431MOL0     H56889   5.090   7.767   5.877  3.5766  2.4598  1.2981
  431MOL0     H56890   5.457   7.928   5.865 -0.1990  0.3715  2.0443
  431MOL0     H56891   5.224   7.324   6.201  0.0052  1.3521  1.2855
  431MOL0     H56892   5.456   7.251   6.258  0.3527 -0.4457 -0.9538
  432MOL0     O56893   2.923   6.182  10.353  0.6585 -0.9756  0.3426
  432MOL0     C56894   2.930   6.109  10.252 -0.3099  0.7307 -0.3251
  432MOL0     O56895   2.821   6.059  10.182 -0.0723 -0.1971  0.3002
  432MOL0     C56896   2.702   6.073  10.233  0.3951 -0.0380  0.0581
  432MOL0     C56897   2.657   6.209  10.252  0.4184  0.8057 -1.1904
  432MOL0     C56898   2.526   6.228  10.299 -1.0276  0.7441  0.1209
  432MOL0     C56899   2.433   6.121  10.311  0.7783  0.5238  0.0001
  432MOL0     O56900   2.299   6.117  10.340 -0.5456  0.0487 -0.7097
  432MOL0     C56901   2.242   6.248  10.355 -0.0918  0.0240  0.6325
  432MOL0     C56902   2.082   6.246  10.385  0.0730 -1.0889 -0.7023
  432MOL0     C56903   2.031   6.381  10.444 -0.3421 -0.8452 -0.9410
  432MOL0     C56904   1.881   6.403  10.409  0.2071  0.1211  0.0293
  432MOL0     C56905   1.822   6.512  10.472 -0.4901  0.4265 -0.6723
  432MOL0     C56906   1.668   6.494  10.481  0.5154 -0.2357  0.5872
  432MOL0     C56907   1.584   6.528  10.356  0.0262  0.5224  0.4207
  432MOL0     C56908   1.563   6.683  10.339 -0.2029 -0.6280 -0.3113
  432MOL0     N56909   1.465   6.748  10.424  0.3004  0.1506 -0.5607
  432MOL0     C56910   1.437   6.735  10.555  0.3256  0.2243 -0.4423
  432MOL0     C56911   1.306   6.770  10.575  0.6535 -0.9476 -0.6222
  432MOL0     C56912   1.235   6.766  10.707 -1.0384 -0.3722  0.3049
  432MOL0     C56913   1.284   6.875  10.793 -0.6612 -0.5219 -0.5163
  432MOL0     C56914   1.196   6.861  10.922  1.1339  0.4506  0.2422
  432MOL0     C56915   1.262   6.932  11.043  0.3901 -0.3019  0.8956
  432MOL0     O56916   1.247   7.072  11.047 -0.5589 -0.1552 -0.3441
  432MOL0     C56917   1.126   7.125  11.066  0.8032  0.0963 -0.5628
  432MOL0     C56918   1.007   7.059  11.113 -0.0382  0.6275 -0.4530
  432MOL0     C56919   0.885   7.132  11.126  0.3234 -0.0497 -0.1753
  432MOL0     C56920   0.870   7.259  11.085 -1.1037  0.3809  0.0987
  432MOL0     C56921   0.739   7.332  11.095 -0.1577  0.0731 -0.9423
  432MOL0     O56922   0.693   7.402  10.986  0.8986 -0.8289  0.3697
  432MOL0     C56923   0.573   7.468  11.009  0.2323  0.2711  0.0516
  432MOL0     C56924   0.557   7.556  11.116 -0.1490  0.0615  0.1954
  432MOL0     C56925   0.425   7.613  11.133  0.3175 -0.0838 -0.0345
  432MOL0     C56926   0.317   7.582  11.050  0.3179 -0.2917  0.2782
  432MOL0     O56927   0.189   7.607  11.083 -0.1679  0.3562  0.5988
  432MOL0     C56928   0.142   7.659  11.215 -0.6076 -0.2051 -1.0106
  432MOL0     C56929  -0.000   7.692  11.214 -0.2862 -0.7605  0.5018
  432MOL0     C56930  -0.038   7.785  11.323 -0.9992  0.4560 -0.3494
  432MOL0     C56931  -0.012   7.715  11.460 -0.6357 -0.0068  0.0898
  432MOL0     C56932  -0.097   7.773  11.586 -1.0063 -0.0748  0.2168
  432MOL0     C56933  -0.256   7.750  11.566 -0.0943  0.2348  0.7995
  432MOL0     C56934  -0.299   7.601  11.550  0.2148 -0.6597  0.4834
  432MOL0     C56935  -0.410   7.574  11.449  0.2793  0.1454  0.3190
  432MOL0    Cl56936  -0.351   7.566  11.283 -0.2525  0.9804  0.4103
  432MOL0     C56937   0.346   7.514  10.935  0.3003  0.5929 -0.6055
  432MOL0     C56938   0.469   7.451  10.918 -0.0042 -0.4133 -0.4023
  432MOL0     O56939   0.688   7.316  11.214 -0.1867 -0.0774  0.7344
  432MOL0     C56940   0.983   7.319  11.023 -0.7154  1.0156 -0.0011
  432MOL0     C56941   1.113   7.255  11.015  0.5965 -0.2710  0.6712
  432MOL0     N56942   1.249   6.809  10.457  0.0202 -0.0663  0.2049
  432MOL0     N56943   1.344   6.797  10.371  0.3353  0.6535  0.5314
  432MOL0     C56944   2.471   5.995  10.274  0.3351 -0.0896 -0.4823
  432MOL0     C56945   2.606   5.968  10.244  0.1021  0.1818 -0.1173
  432MOL0     C56946   3.056   6.085  10.193 -0.3691 -0.3704 -0.0743
  432MOL0     C56947   3.072   6.009  10.077  0.0803  0.0966  0.3887
  432MOL0     C56948   3.201   5.972  10.040 -0.0892 -0.1377 -0.4539
  432MOL0     C56949   3.319   6.014  10.106  1.1069  0.5137 -0.2866
  432MOL0     O56950   3.446   5.977  10.066 -0.5055 -0.0659 -0.4187
  432MOL0     C56951   3.512   6.073   9.981  0.0155 -0.0738  0.1147
  432MOL0     C56952   3.621   6.012   9.898 -0.0418 -0.0714  0.8389
  432MOL0     C56953   3.735   5.932   9.974 -0.5789  0.5398  0.2387
  432MOL0     C56954   3.866   5.892   9.896 -0.5298 -0.5750  0.4342
  432MOL0     C56955   3.943   6.009   9.857 -0.0664  0.3625 -0.4148
  432MOL0     C56956   3.994   6.112   9.822 -0.5943  0.0695  0.4641
  432MOL0     C56957   3.296   6.092  10.228 -0.1825 -0.4747 -0.9947
  432MOL0     C56958   3.169   6.130  10.269 -0.7137  0.0127 -0.1385
  432MOL0     H56959   2.722   6.293  10.230  2.3349 -0.7988 -1.8788
  432MOL0     H56960   2.478   6.323  10.322 -1.6653  1.2358 -2.8239
  432MOL0     H56961   2.269   6.301  10.264  2.1947 -1.2459  0.5096
  432MOL0     H56962   2.284   6.310  10.435 -1.1694 -1.2496  2.2594
  432MOL0     H56963   2.062   6.163  10.453 -3.7957 -1.7951 -2.4180
  432MOL0     H56964   2.032   6.231  10.289  0.4763 -2.8229 -0.6664
  432MOL0     H56965   2.082   6.468  10.401 -2.2902  0.7886 -0.1169
  432MOL0     H56966   2.054   6.390  10.551  2.4793 -1.9738 -1.3661
  432MOL0     H56967   1.874   6.426  10.302 -1.7211  2.7929  0.6500
  432MOL0     H56968   1.833   6.305  10.422 -1.0338  0.9096  1.7099
  432MOL0     H56969   1.855   6.612  10.443  0.4092  0.9814  1.9794
  432MOL0     H56970   1.853   6.497  10.576  2.0970 -5.9787 -1.8877
  432MOL0     H56971   1.630   6.542  10.572 -1.9950 -1.8819  0.5212
  432MOL0     H56972   1.655   6.388  10.506  1.3922 -0.4705  0.0996
  432MOL0     H56973   1.636   6.486  10.270  2.0002  0.7217  1.4469
  432MOL0     H56974   1.489   6.475  10.363  2.1114 -3.7343 -0.5041
  432MOL0     H56975   1.537   6.706  10.236  1.9193 -1.5459 -1.0974
  432MOL0     H56976   1.659   6.734  10.330  0.7056 -2.3718 -0.7278
  432MOL0     H56977   1.498   6.694  10.635 -0.8382  1.4057  1.1130
  432MOL0     H56978   1.260   6.671  10.755  1.9789  0.9390  1.5796
  432MOL0     H56979   1.128   6.772  10.685 -1.5350 -2.7281  1.7131
  432MOL0     H56980   1.262   6.968  10.741 -0.3678 -0.8612 -1.2569
  432MOL0     H56981   1.391   6.874  10.815 -0.7696  0.9813  0.2030
  432MOL0     H56982   1.097   6.900  10.899 -0.6604 -3.5846  0.2582
  432MOL0     H56983   1.192   6.755  10.949  4.3034  0.0765 -0.3371
  432MOL0     H56984   1.371   6.917  11.045  0.3125 -1.9304 -2.0382
  432MOL0     H56985   1.233   6.889  11.139  3.6065  0.9706  2.6144
  432MOL0     H56986   1.011   6.958  11.153  2.4919  1.7088  2.4005
  432MOL0     H56987   0.800   7.082  11.171 -0.3010 -0.1413 -1.4110
  432MOL0     H56988   0.633   7.593  11.185 -0.1062  0.7099 -0.1852
  432MOL0     H56989   0.404   7.648  11.233 -0.2959 -2.6178  0.8155
  432MOL0     H56990   0.199   7.744  11.254 -1.4010  0.2141 -0.7644
  432MOL0     H56991   0.158   7.585  11.293 -2.9760 -0.9475 -1.1531
  432MOL0     H56992  -0.048   7.594  11.208  0.1080 -0.9189 -0.1290
  432MOL0     H56993  -0.029   7.743  11.121  1.3159 -0.5270  0.1043
  432MOL0     H56994  -0.144   7.808  11.310 -1.9087 -1.7817  2.1513
  432MOL0     H56995   0.017   7.879  11.328  0.7770 -0.5600  0.1211
  432MOL0     H56996  -0.021   7.606  11.455 -0.9787  0.0831 -2.4803
  432MOL0     H56997   0.094   7.732  11.484  0.0808 -2.2222 -1.2449
  432MOL0     H56998  -0.067   7.878  11.582  0.3578 -0.4955 -1.6983
  432MOL0     H56999  -0.061   7.733  11.681 -1.5028 -0.2609  0.3284
  432MOL0     H57000  -0.283   7.804  11.474 -1.9075 -2.9834 -0.7577
  432MOL0     H57001  -0.310   7.794  11.650  1.1571  2.4478  0.5220
  432MOL0     H57002  -0.214   7.532  11.546 -0.5254 -1.6407  1.1186
  432MOL0     H57003  -0.334   7.582  11.652  1.0512  0.9317  1.0993
  432MOL0     H57004  -0.481   7.657  11.456 -2.3323 -1.6423 -2.3784
  432MOL0     H57005  -0.467   7.482  11.467  1.2593 -0.7491 -0.8823
  432MOL0     H57006   0.275   7.500  10.855 -3.1316  1.7220  1.9895
  432MOL0     H57007   0.493   7.398  10.826 -0.1290  2.3995 -2.1865
  432MOL0     H57008   0.968   7.416  10.977  0.1798  0.9626 -0.4310
  432MOL0     H57009   1.200   7.296  10.964  0.3605  1.7285  1.7643
  432MOL0     H57010   2.395   5.918  10.283 -0.5850  0.9275  0.7404
  432MOL0     H57011   2.631   5.864  10.228  0.6152 -0.1469  2.4230
  432MOL0     H57012   2.997   5.951  10.024  2.9510 -3.2258 -0.4097
  432MOL0     H57013   3.215   5.919   9.946  2.5798  3.8844 -2.5772
  432MOL0     H57014   3.551   6.151  10.047  3.3302 -3.1761  2.2540
  432MOL0     H57015   3.436   6.120   9.918  0.5917  1.4444  0.5044
  432MOL0     H57016   3.583   5.948   9.819  2.2554  1.7166 -1.9237
  432MOL0     H57017   3.663   6.094   9.839 -2.2674 -0.1096 -0.9114
  432MOL0     H57018   3.686   5.838   9.999  0.6528 -0.5837 -1.4129
  432MOL0     H57019   3.769   5.986  10.063  0.0182  2.1162 -0.8875
  432MOL0     H57020   3.925   5.832   9.965  0.7792 -1.0196 -1.0027
  432MOL0     H57021   3.833   5.838   9.807  1.0798  1.2469 -1.3828
  432MOL0     H57022   4.042   6.203   9.793 -2.5500  1.4607  1.3399
  432MOL0     H57023   3.376   6.131  10.291 -1.5434  0.1858  0.4039
  432MOL0     H57024   3.170   6.179  10.366  1.0017 -0.9199  0.3634
  433MOL0     O57025   2.082   8.130   4.351  0.1877 -0.0830 -0.2185
  433MOL0     C57026   1.984   8.103   4.419 -0.6364  1.5088 -0.3576
  433MOL0     O57027   1.987   8.013   4.527  0.4757  0.2585  0.6274
  433MOL0     C57028   2.102   7.938   4.556  0.0969 -0.2615 -0.1313
  433MOL0     C57029   2.122   7.919   4.686  0.9295 -0.1599 -0.8510
  433MOL0     C57030   2.221   7.829   4.730 -0.1905 -0.3710 -0.6768
  433MOL0     C57031   2.295   7.747   4.634  0.2251 -0.2585 -1.0547
  433MOL0     O57032   2.383   7.660   4.689 -0.3731  0.7087  0.3411
  433MOL0     C57033   2.400   7.536   4.627  0.5832 -0.4205 -0.2812
  433MOL0     C57034   2.271   7.448   4.600  0.2073  0.2206 -0.5362
  433MOL0     C57035   2.188   7.426   4.724  0.4554  0.2390 -0.0005
  433MOL0     C57036   2.191   7.278   4.756  0.3209  1.0166  0.2089
  433MOL0     C57037   2.123   7.237   4.886  0.0692  0.8924  0.0629
  433MOL0     C57038   1.987   7.293   4.904 -0.1204  0.1956  0.1438
  433MOL0     C57039   1.917   7.215   5.011  0.1067 -0.6494 -0.5965
  433MOL0     C57040   1.771   7.268   5.045  0.2209 -0.2017  0.0556
  433MOL0     N57041   1.682   7.159   5.110  0.2058 -0.2314  0.0192
  433MOL0     C57042   1.562   7.190   5.168 -0.1947 -1.3141  0.5043
  433MOL0     C57043   1.499   7.075   5.181 -0.1645  0.5657  0.7001
  433MOL0     C57044   1.355   7.044   5.237 -0.0579 -0.4100 -0.1378
  433MOL0     C57045   1.253   7.151   5.193 -0.0441 -0.6220  0.0103
  433MOL0     C57046   1.249   7.143   5.036 -0.7771 -0.6011  0.0235
  433MOL0     C57047   1.110   7.167   4.983  0.2843 -0.3205  0.4507
  433MOL0     O57048   1.044   7.292   5.027 -0.1512  0.2624 -0.7107
  433MOL0     C57049   0.925   7.333   4.970 -0.1594 -0.1239  0.3440
  433MOL0     C57050   0.846   7.234   4.903  0.0749  0.1286  0.0008
  433MOL0     C57051   0.723   7.275   4.851  0.6940  0.0085 -0.0185
  433MOL0     C57052   0.682   7.406   4.871  0.3740  0.3279  0.5901
  433MOL0     C57053   0.550   7.442   4.814  0.3071 -0.6376  0.7200
  433MOL0     O57054   0.499   7.371   4.706 -0.8393  0.1464  0.2476
  433MOL0     C57055   0.365   7.387   4.672 -1.0183 -0.5221  1.0136
  433MOL0     C57056   0.336   7.443   4.540  0.5070  0.0267 -0.9426
  433MOL0     C57057   0.204   7.460   4.506  0.3274 -0.0483  0.4706
  433MOL0     C57058   0.102   7.429   4.588  0.6892  0.0755 -0.0911
  433MOL0     O57059  -0.023   7.414   4.552  0.2945 -0.0547 -0.1212
  433MOL0     C57060  -0.084   7.530   4.499  0.6055  1.2940  0.4613
  433MOL0     C57061  -0.176   7.482   4.383  0.0263 -0.9141  0.2845
  433MOL0     C57062  -0.316   7.430   4.432  0.0803 -1.0698  0.2443
  433MOL0     C57063  -0.418   7.403   4.318 -0.9750  0.6664 -1.1922
  433MOL0     C57064  -0.552   7.344   4.374  0.4034  0.0179  0.7273
  433MOL0     C57065  -0.651   7.331   4.262  0.6418  0.6664 -0.1745
  433MOL0     C57066  -0.786   7.284   4.325 -0.2702 -0.0353  0.0658
  433MOL0     C57067  -0.897   7.296   4.221 -0.0909  0.3898 -0.1670
  433MOL0    Cl57068  -1.035   7.175   4.250  0.0884 -0.1873  0.0959
  433MOL0     C57069   0.129   7.390   4.714  0.0388 -0.3487  0.5095
  433MOL0     C57070   0.253   7.355   4.752  0.1158 -0.4416  0.2910
  433MOL0     O57071   0.488   7.534   4.864  0.2321 -0.3041 -0.3369
  433MOL0     C57072   0.756   7.496   4.956  0.3740  0.1593 -0.6941
  433MOL0     C57073   0.882   7.459   5.001  0.2357 -1.4287  0.0917
  433MOL0     N57074   1.577   6.979   5.129 -0.0584  0.2930 -0.3014
  433MOL0     N57075   1.686   7.026   5.080 -0.3907 -0.2471  0.3278
  433MOL0     C57076   2.269   7.776   4.499 -0.1555 -0.0555 -0.4953
  433MOL0     C57077   2.171   7.866   4.461 -0.0146  0.1895 -0.7365
  433MOL0     C57078   1.854   8.160   4.372  0.0803 -0.6449 -0.0896
  433MOL0     C57079   1.723   8.091   4.403 -1.2369  0.2033 -0.2359
  433MOL0     C57080   1.603   8.157   4.390 -0.2120  0.7530  0.7078
  433MOL0     C57081   1.587   8.277   4.338 -0.5738  0.4722  0.0514
  433MOL0     O57082   1.453   8.319   4.325 -0.3111  0.4915  0.2796
  433MOL0     C57083   1.444   8.466   4.336  0.2629  0.9528  0.2980
  433MOL0     C57084   1.304   8.511   4.402  0.2502  1.0369  0.5228
  433MOL0     C57085   1.312   8.459   4.550 -0.5637  0.4725 -0.0007
  433MOL0     C57086   1.195   8.497   4.646 -0.7770  0.1054 -0.1717
  433MOL0     C57087   1.213   8.630   4.691  0.2391  0.1805 -0.1607
  433MOL0     C57088   1.223   8.746   4.719 -0.0730  0.3353  0.2025
  433MOL0     C57089   1.707   8.344   4.306  0.3549  0.3191  0.4541
  433MOL0     C57090   1.837   8.292   4.329 -0.0872 -0.1079 -0.9497
  433MOL0     H57091   2.061   7.966   4.763  0.5966  1.1866 -1.9071
  433MOL0     H57092   2.245   7.811   4.834  2.1293  2.4523 -0.6006
  433MOL0     H57093   2.473   7.482   4.688 -0.0455 -0.9284  0.0338
  433MOL0     H57094   2.441   7.558   4.527 -0.9061  3.3782 -0.2373
  433MOL0     H57095   2.295   7.360   4.539 -0.2212 -0.1238 -0.2126
  433MOL0     H57096   2.210   7.514   4.537  1.0206  0.6455 -0.8976
  433MOL0     H57097   2.083   7.456   4.714  0.8591  2.0999  0.9733
  433MOL0     H57098   2.229   7.488   4.804 -0.7000 -1.4047  1.9698
  433MOL0     H57099   2.147   7.223   4.671  2.7343 -0.8944  0.0969
  433MOL0     H57100   2.290   7.234   4.751 -1.0826 -2.4533  0.1879
  433MOL0     H57101   2.190   7.277   4.963 -0.4762 -2.8374  2.7062
  433MOL0     H57102   2.119   7.129   4.896 -0.1001  1.0323  1.8900
  433MOL0     H57103   1.928   7.282   4.812  1.0882 -0.5999 -0.5471
  433MOL0     H57104   1.991   7.401   4.926  1.2493  0.1209  0.2928
  433MOL0     H57105   1.916   7.106   5.004  1.5494 -0.6419 -1.3128
  433MOL0     H57106   1.969   7.253   5.099 -1.7606  1.8410 -0.4474
  433MOL0     H57107   1.718   7.300   4.955 -0.4215  1.6498  1.0460
  433MOL0     H57108   1.769   7.352   5.114 -4.6270  0.5682 -0.6697
  433MOL0     H57109   1.522   7.288   5.194  1.9337  0.3993 -2.1606
  433MOL0     H57110   1.358   7.056   5.346 -1.3707  1.5848 -0.2687
  433MOL0     H57111   1.342   6.939   5.211  0.4584 -0.5518  0.1500
  433MOL0     H57112   1.285   7.253   5.215 -4.1180  0.5542  1.3269
  433MOL0     H57113   1.151   7.133   5.228  0.9516 -2.1871  2.3238
  433MOL0     H57114   1.320   7.213   4.992 -1.1493  0.9261  1.7502
  433MOL0     H57115   1.278   7.039   5.015  0.9846 -0.1639  0.1482
  433MOL0     H57116   1.044   7.082   4.996 -1.6960  1.0198 -0.3633
  433MOL0     H57117   1.115   7.175   4.874  2.2257 -1.5076  0.4159
  433MOL0     H57118   0.871   7.130   4.882 -1.9030 -1.1098  3.0265
  433MOL0     H57119   0.660   7.203   4.799  0.6029  0.9028 -1.1931
  433MOL0     H57120   0.409   7.467   4.464 -0.8567  1.4697 -1.8597
  433MOL0     H57121   0.184   7.483   4.402 -1.3324 -0.2913  0.7070
  433MOL0     H57122  -0.013   7.594   4.447 -1.5386 -0.7139 -5.7656
  433MOL0     H57123  -0.134   7.589   4.577  4.4886  4.9363  0.5301
  433MOL0     H57124  -0.123   7.401   4.332  1.5323 -0.7628  1.5189
  433MOL0     H57125  -0.198   7.572   4.326 -1.6517 -1.6055 -0.2161
  433MOL0     H57126  -0.354   7.513   4.492  0.1515  0.8065 -2.1568
  433MOL0     H57127  -0.302   7.337   4.487  1.9214 -2.1078 -1.8192
  433MOL0     H57128  -0.438   7.495   4.262  2.8940  2.2219 -0.3465
  433MOL0     H57129  -0.374   7.332   4.248 -1.7138 -1.0930  0.0353
  433MOL0     H57130  -0.590   7.402   4.459  0.8085 -1.3733  1.8916
  433MOL0     H57131  -0.537   7.243   4.412  2.6514  0.0287  0.0302
  433MOL0     H57132  -0.624   7.247   4.198 -1.6162  0.2978 -0.7080
  433MOL0     H57133  -0.675   7.423   4.208 -0.6101  1.1178  1.0917
  433MOL0     H57134  -0.780   7.187   4.373 -1.2577  1.1801  2.8528
  433MOL0     H57135  -0.818   7.356   4.401 -2.1985 -2.1555  1.3840
  433MOL0     H57136  -0.879   7.269   4.116 -3.7195 -0.1250 -0.7870
  433MOL0     H57137  -0.923   7.402   4.221  3.1552  1.2908 -0.4066
  433MOL0     H57138   0.045   7.373   4.781 -1.9623  1.5835 -1.3629
  433MOL0     H57139   0.268   7.303   4.846  3.3759  0.7057  0.5033
  433MOL0     H57140   0.720   7.596   4.976  0.6066  0.0224  0.4780
  433MOL0     H57141   0.935   7.533   5.061  0.3276 -2.8374  1.8386
  433MOL0     H57142   2.327   7.726   4.422  0.3112  1.8058 -1.4012
  433MOL0     H57143   2.151   7.885   4.356  3.1736 -1.0919 -1.7297
  433MOL0     H57144   1.741   7.994   4.448 -0.1656  0.5420  0.0949
  433MOL0     H57145   1.509   8.109   4.415  1.3460 -2.8202  0.2982
  433MOL0     H57146   1.433   8.508   4.236 -2.7824 -1.6239 -0.5988
  433MOL0     H57147   1.526   8.516   4.390 -3.1974  2.4723  4.8406
  433MOL0     H57148   1.295   8.620   4.407  1.1832  1.1014  1.2396
  433MOL0     H57149   1.225   8.461   4.345  0.2073  1.6693  0.0120
  433MOL0     H57150   1.409   8.486   4.591  0.9869  1.4555 -3.8631
  433MOL0     H57151   1.314   8.352   4.528  0.6641  0.8695 -2.0712
  433MOL0     H57152   1.101   8.474   4.595 -1.1550 -0.6868  0.8495
  433MOL0     H57153   1.203   8.431   4.733  1.8062 -0.3149 -0.6214
  433MOL0     H57154   1.237   8.849   4.743 -1.6970  0.7189 -0.4046
  433MOL0     H57155   1.691   8.442   4.263 -0.6449  0.4673  1.1299
  433MOL0     H57156   1.927   8.351   4.315  1.1863 -0.4994  3.9520
  434MOL0     O57157   1.153  10.012   3.298 -0.0008 -0.0065  0.3266
  434MOL0     C57158   1.212  10.017   3.193 -0.6041  0.5577  0.4290
  434MOL0     O57159   1.165  10.067   3.075  0.5993  0.7062 -0.1506
  434MOL0     C57160   1.033  10.102   3.087  0.3260  0.1348 -0.0728
  434MOL0     C57161   1.008  10.227   3.157  0.8877  0.1375  0.2792
  434MOL0     C57162   0.884  10.274   3.192  0.6908 -0.5092 -1.2959
  434MOL0     C57163   0.775  10.193   3.169  0.1013  0.3740  0.7170
  434MOL0     O57164   0.654  10.220   3.227  0.3320  0.1570  0.2779
  434MOL0     C57165   0.577  10.324   3.174 -0.5252 -0.1634 -0.3283
  434MOL0     C57166   0.471  10.260   3.083 -0.8839  0.1085  0.4884
  434MOL0     C57167   0.383  10.362   2.998 -0.2626  0.7673 -0.1217
  434MOL0     C57168   0.326  10.284   2.875 -0.2734 -0.6962 -1.1142
  434MOL0     C57169   0.221  10.357   2.792  0.7763  0.1146 -0.1680
  434MOL0     C57170   0.277  10.480   2.714  0.4694  1.2364 -0.4322
  434MOL0     C57171   0.274  10.605   2.788  0.8498 -0.5582 -0.3019
  434MOL0     C57172   0.344  10.712   2.707  0.2067 -1.0907  1.3910
  434MOL0     N57173   0.486  10.697   2.691  1.1163 -0.1912 -0.2453
  434MOL0     C57174   0.591  10.728   2.779 -0.1545 -0.2142  0.1272
  434MOL0     C57175   0.704  10.687   2.714 -0.3390 -0.6826  0.7225
  434MOL0     C57176   0.839  10.678   2.758  0.4907 -0.4513  1.0167
  434MOL0     C57177   0.850  10.571   2.866 -0.5849  0.0385  0.2352
  434MOL0     C57178   0.832  10.425   2.810 -0.1018 -0.5455 -0.4940
  434MOL0     C57179   0.966  10.383   2.745  0.7528 -0.4176  0.2115
  434MOL0     O57180   0.965  10.244   2.714 -0.6041  0.4020 -0.1974
  434MOL0     C57181   1.088  10.167   2.715  0.4202 -0.0750 -0.5693
  434MOL0     C57182   1.211  10.228   2.691  0.4159 -0.0851  0.4475
  434MOL0     C57183   1.330  10.147   2.684 -0.3433 -0.0687  0.1067
  434MOL0     C57184   1.326  10.012   2.709 -0.0652 -0.2410 -0.7102
  434MOL0     C57185   1.463   9.960   2.716 -0.3357  0.9456 -0.4501
  434MOL0     O57186   1.580  10.038   2.732  0.7029 -0.5492  0.2789
  434MOL0     C57187   1.709   9.996   2.714  0.7565  0.1116 -0.5737
  434MOL0     C57188   1.807  10.051   2.801  0.0943  0.1920 -1.0713
  434MOL0     C57189   1.945  10.036   2.775 -0.4427 -0.0113 -0.0077
  434MOL0     C57190   1.984   9.961   2.665 -0.3179  0.2889 -0.0988
  434MOL0     O57191   2.117   9.935   2.634  0.0337  0.5022  0.0953
  434MOL0     C57192   2.201  10.045   2.605  0.1922  0.7848  0.4823
  434MOL0     C57193   2.336   9.996   2.563 -0.1593  1.1831 -1.6173
  434MOL0     C57194   2.433  10.116   2.546  1.3824  0.6920  0.2300
  434MOL0     C57195   2.553  10.070   2.468 -0.5399  0.3966  1.3608
  434MOL0     C57196   2.636  10.185   2.419 -0.1755 -0.3021 -0.7719
  434MOL0     C57197   2.774  10.146   2.353 -0.0502  0.1272 -0.1641
  434MOL0     C57198   2.867  10.060   2.437  0.6231 -0.4418 -0.6143
  434MOL0     C57199   3.006  10.044   2.366 -0.4293  0.1967 -0.5615
  434MOL0    Cl57200   3.097  10.197   2.326  0.1225  0.0995 -0.1105
  434MOL0     C57201   1.888   9.903   2.585 -0.6420 -1.5933  0.3239
  434MOL0     C57202   1.754   9.910   2.617  0.2124  0.5888  1.4808
  434MOL0     O57203   1.462   9.830   2.714 -0.2190  0.0533 -0.7253
  434MOL0     C57204   1.207   9.948   2.729  0.1160  0.5334 -0.1611
  434MOL0     C57205   1.089  10.027   2.727 -0.2639  0.6326 -0.4835
  434MOL0     N57206   0.673  10.634   2.589 -0.1121 -0.1275  0.5879
  434MOL0     N57207   0.542  10.636   2.582 -0.5216 -0.2869  0.0645
  434MOL0     C57208   0.790  10.072   3.090 -0.2884  0.7010 -0.2794
  434MOL0     C57209   0.921  10.025   3.050  0.0653  0.5989 -0.8284
  434MOL0     C57210   1.349   9.958   3.191 -1.8454  0.0236  0.3067
  434MOL0     C57211   1.429   9.968   3.073 -0.4544  0.1258 -1.0976
  434MOL0     C57212   1.556   9.920   3.064 -0.3104  0.1636 -1.4955
  434MOL0     C57213   1.608   9.860   3.182  0.5934 -0.9691 -0.4646
  434MOL0     O57214   1.733   9.807   3.191 -0.4201 -0.8021 -0.3075
  434MOL0     C57215   1.812   9.811   3.080 -0.1148  0.6124  0.0625
  434MOL0     C57216   1.941   9.732   3.107 -0.4723  0.1831  0.0906
  434MOL0     C57217   2.010   9.683   2.984 -0.1163  0.1976 -0.4310
  434MOL0     C57218   2.128   9.592   3.036 -1.0949 -0.2618  0.8822
  434MOL0     C57219   2.227   9.562   2.932  0.5720  0.7890  0.0949
  434MOL0     C57220   2.325   9.540   2.860  0.7723 -0.0088 -0.0651
  434MOL0     C57221   1.533   9.845   3.297  0.5724 -0.1594 -0.2754
  434MOL0     C57222   1.401   9.891   3.308 -0.2893 -0.0782 -0.0997
  434MOL0     H57223   1.094  10.283   3.193 -1.7455  3.4911  2.0213
  434MOL0     H57224   0.886  10.367   3.248 -0.5587  0.3097 -2.5378
  434MOL0     H57225   0.634  10.396   3.114 -1.4155 -0.4364 -1.5425
  434MOL0     H57226   0.520  10.387   3.243  3.6782  3.3300  0.3244
  434MOL0     H57227   0.405  10.209   3.154  0.2770  0.6275  1.9940
  434MOL0     H57228   0.532  10.191   3.023 -1.6300 -1.3212  1.3169
  434MOL0     H57229   0.440  10.445   2.955 -0.2691 -0.8936 -3.7830
  434MOL0     H57230   0.295  10.402   3.048 -0.9466 -1.3541  0.4973
  434MOL0     H57231   0.406  10.254   2.806  2.1627  0.6492  0.9214
  434MOL0     H57232   0.289  10.188   2.911 -1.9612 -0.0668 -1.0786
  434MOL0     H57233   0.131  10.389   2.845  3.5271  1.8780  3.9566
  434MOL0     H57234   0.195  10.292   2.708 -1.1848  2.4840 -1.5420
  434MOL0     H57235   0.219  10.493   2.622  1.4522 -2.2094 -1.7120
  434MOL0     H57236   0.377  10.456   2.676 -0.0746 -0.6660 -0.7635
  434MOL0     H57237   0.173  10.636   2.817  2.1546  2.5830  1.4362
  434MOL0     H57238   0.316  10.601   2.888  0.9358  4.5226  0.1191
  434MOL0     H57239   0.332  10.808   2.759  0.9595  0.1047 -0.5491
  434MOL0     H57240   0.305  10.711   2.605 -0.0084 -2.8813  1.4598
  434MOL0     H57241   0.579  10.769   2.879 -1.7313  0.2580 -0.2278
  434MOL0     H57242   0.860  10.780   2.794  0.5833 -0.6553  1.5443
  434MOL0     H57243   0.911  10.669   2.676  2.1120 -2.0124  2.5252
  434MOL0     H57244   0.773  10.594   2.940  1.5427  2.0239  1.9684
  434MOL0     H57245   0.945  10.568   2.920 -0.9501 -2.1253  0.8786
  434MOL0     H57246   0.811  10.366   2.899 -2.8031 -0.9863 -1.3222
  434MOL0     H57247   0.747  10.406   2.743 -3.4758  1.7504  2.6992
  434MOL0     H57248   1.046  10.404   2.816  1.3289 -0.9901 -0.2529
  434MOL0     H57249   0.972  10.447   2.656  0.8790  1.1998  1.3386
  434MOL0     H57250   1.222  10.335   2.676 -2.0765  0.1340 -0.1774
  434MOL0     H57251   1.420  10.203   2.658 -1.4465  0.4011 -3.0980
  434MOL0     H57252   1.767  10.090   2.894  2.4058 -1.7353  0.8817
  434MOL0     H57253   2.016  10.072   2.848 -1.8443 -1.3624  2.1382
  434MOL0     H57254   2.207  10.115   2.689  1.5261  1.9612 -0.5496
  434MOL0     H57255   2.170  10.102   2.517  1.8943  3.1662  1.3357
  434MOL0     H57256   2.319   9.948   2.466 -1.0015 -0.6289 -0.6286
  434MOL0     H57257   2.365   9.921   2.637  0.7644  1.7051 -1.4343
  434MOL0     H57258   2.460  10.152   2.646  1.8319  1.2696 -0.0977
  434MOL0     H57259   2.385  10.198   2.492 -0.2628  1.1024  2.1963
  434MOL0     H57260   2.611  10.002   2.531  1.5563  1.5909  0.8276
  434MOL0     H57261   2.527  10.021   2.374  2.4223  1.5748 -0.2174
  434MOL0     H57262   2.651  10.239   2.512 -3.1131 -0.6921  0.0184
  434MOL0     H57263   2.584  10.253   2.351  0.4711  2.0033  0.9577
  434MOL0     H57264   2.833  10.235   2.327  0.9070 -0.3708  0.2140
  434MOL0     H57265   2.749  10.081   2.269  1.8507 -0.7713 -0.0908
  434MOL0     H57266   2.884  10.096   2.540  2.6156  0.7028 -1.2773
  434MOL0     H57267   2.831   9.959   2.458  2.8986 -1.2326 -0.1541
  434MOL0     H57268   3.001   9.988   2.272  0.5192 -1.2893  0.2244
  434MOL0     H57269   3.071   9.991   2.437 -2.7129 -0.2803  1.3030
  434MOL0     H57270   1.934   9.862   2.495 -0.2225  0.7963 -0.6183
  434MOL0     H57271   1.673   9.864   2.560  2.6015  0.0652 -1.7906
  434MOL0     H57272   1.205   9.844   2.758  2.2909  0.4959  0.0490
  434MOL0     H57273   0.995   9.979   2.754  0.1873  0.0657  0.1167
  434MOL0     H57274   0.706  10.011   3.060  0.9922 -1.4751  0.3095
  434MOL0     H57275   0.928   9.936   2.988 -1.5701 -1.1456  1.3156
  434MOL0     H57276   1.387  10.018   2.986 -0.7880  0.2341 -0.8774
  434MOL0     H57277   1.614   9.921   2.972 -0.5880 -1.1810 -1.7100
  434MOL0     H57278   1.841   9.908   3.039  0.0233 -0.5309 -2.7674
  434MOL0     H57279   1.768   9.759   2.995  0.3624  1.6972 -0.8743
  434MOL0     H57280   2.010   9.788   3.171 -0.7182  1.7326 -0.9217
  434MOL0     H57281   1.920   9.648   3.173  0.8502  0.8274  1.3968
  434MOL0     H57282   2.036   9.753   2.904 -0.9010 -0.3513 -1.1894
  434MOL0     H57283   1.931   9.621   2.939 -2.7734  3.3142 -0.4169
  434MOL0     H57284   2.169   9.645   3.123 -1.4738 -0.0474  0.9343
  434MOL0     H57285   2.096   9.497   3.079  1.2346 -1.5029  0.0432
  434MOL0     H57286   2.403   9.515   2.790  1.4846  1.4083  0.1865
  434MOL0     H57287   1.579   9.797   3.383  1.6950  2.3079  0.5806
  434MOL0     H57288   1.355   9.896   3.406 -2.2337  1.4244 -1.0344
  435MOL0     O57289   7.610   5.287   8.180  0.2365  0.1390 -0.5188
  435MOL0     C57290   7.630   5.347   8.281  0.5314 -0.0027 -0.5823
  435MOL0     O57291   7.561   5.465   8.329 -0.5035  0.9006  0.0458
  435MOL0     C57292   7.448   5.513   8.250  0.3548  1.0019 -0.2591
  435MOL0     C57293   7.410   5.647   8.277 -0.2002  0.0660 -0.1168
  435MOL0     C57294   7.303   5.712   8.211  0.3495  0.4212 -0.2248
  435MOL0     C57295   7.238   5.639   8.109  0.6213 -0.2654  0.1652
  435MOL0     O57296   7.145   5.695   8.032  0.7315  0.3637  0.1755
  435MOL0     C57297   7.008   5.663   8.072  1.4667 -0.2630 -0.4843
  435MOL0     C57298   6.922   5.735   7.974 -0.2212 -0.6383  0.6697
  435MOL0     C57299   6.774   5.703   8.016 -0.2487  0.1093 -0.7343
  435MOL0     C57300   6.735   5.557   8.054  0.7133 -1.1070 -0.1414
  435MOL0     C57301   6.580   5.534   8.064  0.0131 -0.1550 -0.2518
  435MOL0     C57302   6.524   5.485   7.936  0.8772  0.1763 -0.2712
  435MOL0     C57303   6.375   5.458   7.964 -0.0707  0.5845  0.2130
  435MOL0     C57304   6.284   5.517   7.854 -0.6033 -0.1833  0.7513
  435MOL0     N57305   6.160   5.437   7.846  0.1535 -0.7151  0.1039
  435MOL0     C57306   6.123   5.331   7.778 -0.5964  0.6868  0.0945
  435MOL0     C57307   5.986   5.327   7.786 -0.5026  0.8356 -0.8241
  435MOL0     C57308   5.903   5.225   7.708  0.1373  0.2115 -0.6194
  435MOL0     C57309   5.947   5.074   7.730  0.0753  0.1612  0.2164
  435MOL0     C57310   5.924   5.021   7.870 -0.6613 -0.6867  0.7858
  435MOL0     C57311   5.990   4.883   7.887  0.2011  0.4693  0.4807
  435MOL0     O57312   5.923   4.826   8.009  0.4908 -0.0961  0.7091
  435MOL0     C57313   6.001   4.742   8.081 -0.3047  0.0925  0.1220
  435MOL0     C57314   6.117   4.682   8.027  0.3837 -0.3930 -0.2491
  435MOL0     C57315   6.205   4.603   8.105 -0.9990 -0.3951  0.1375
  435MOL0     C57316   6.164   4.582   8.248  0.5731  0.2758 -0.1922
  435MOL0     C57317   6.246   4.500   8.333 -0.3710  0.0090  0.0040
  435MOL0     O57318   6.367   4.482   8.281 -0.6658 -0.1858  0.6664
  435MOL0     C57319   6.451   4.389   8.343  0.2580  0.4530 -0.2248
  435MOL0     C57320   6.512   4.305   8.251 -0.2585 -0.8508  0.6510
  435MOL0     C57321   6.587   4.200   8.294 -0.3830 -0.2839  0.2025
  435MOL0     C57322   6.617   4.188   8.430  0.7733 -0.5541  0.6192
  435MOL0     O57323   6.698   4.083   8.452 -0.0714 -0.2874  0.9183
  435MOL0     C57324   6.768   4.078   8.571  0.2154 -0.2417  0.5575
  435MOL0     C57325   6.846   3.949   8.584 -0.1286 -1.1705 -0.4363
  435MOL0     C57326   6.962   3.933   8.479  0.6681 -0.3156 -0.4110
  435MOL0     C57327   7.030   3.803   8.491  0.2477 -0.6439 -0.5555
  435MOL0     C57328   7.136   3.781   8.389 -0.1716 -0.3088  0.6085
  435MOL0     C57329   7.193   3.635   8.401 -0.2223 -0.2329 -0.4066
  435MOL0     C57330   7.294   3.591   8.292 -0.1992  1.3813 -0.2310
  435MOL0     C57331   7.319   3.443   8.295  0.1157  0.0662  0.3028
  435MOL0    Cl57332   7.480   3.389   8.250 -0.4273 -0.4241 -0.2934
  435MOL0     C57333   6.565   4.282   8.523  0.3311 -0.5289  0.7200
  435MOL0     C57334   6.486   4.381   8.477  1.2763 -0.9599 -0.5249
  435MOL0     O57335   6.197   4.438   8.430  0.5316 -0.3648  0.3176
  435MOL0     C57336   6.053   4.652   8.299  0.0473  0.3438 -0.4633
  435MOL0     C57337   5.965   4.723   8.216 -0.2457  0.8540 -1.0960
  435MOL0     N57338   5.938   5.432   7.855  0.6358  0.2016 -0.3557
  435MOL0     N57339   6.041   5.504   7.891  0.7199 -0.0902 -0.0146
  435MOL0     C57340   7.259   5.505   8.093 -0.9029 -0.0906 -0.3327
  435MOL0     C57341   7.358   5.435   8.171  0.1134  0.4691 -0.4189
  435MOL0     C57342   7.742   5.305   8.366 -0.6481 -0.7429  1.4277
  435MOL0     C57343   7.766   5.374   8.487 -0.1006  0.6049  0.5246
  435MOL0     C57344   7.870   5.338   8.565 -0.3830 -0.1746 -0.7683
  435MOL0     C57345   7.966   5.233   8.520  0.2014  0.1708  0.4762
  435MOL0     O57346   8.066   5.189   8.596 -0.5083 -0.2047  0.6285
  435MOL0     C57347   8.116   5.280   8.705  0.4307 -0.1056 -0.0803
  435MOL0     C57348   8.231   5.227   8.786  0.5699  0.0644  0.9739
  435MOL0     C57349   8.370   5.263   8.722  0.4288  0.5601 -0.4120
  435MOL0     C57350   8.484   5.203   8.804  0.6446  0.2550 -0.0494
  435MOL0     C57351   8.601   5.274   8.758 -0.0878  0.1244 -0.0628
  435MOL0     C57352   8.711   5.316   8.721  0.3846 -0.4782  0.3553
  435MOL0     C57353   7.948   5.165   8.408 -0.2635 -0.3959  1.5229
  435MOL0     C57354   7.839   5.208   8.328  0.7634  0.0503 -0.4672
  435MOL0     H57355   7.469   5.706   8.345 -1.0634 -1.5633  2.1863
  435MOL0     H57356   7.288   5.818   8.230 -0.4641  0.2691  0.0081
  435MOL0     H57357   6.982   5.699   8.172 -1.0310  2.2559 -1.8855
  435MOL0     H57358   6.995   5.555   8.060 -0.3801  0.1592 -3.0979
  435MOL0     H57359   6.941   5.713   7.869  4.2756  1.4901  0.7896
  435MOL0     H57360   6.926   5.844   7.982 -1.0926 -0.5702  0.2514
  435MOL0     H57361   6.715   5.750   7.937  1.3513  3.6272 -0.0571
  435MOL0     H57362   6.763   5.764   8.107  1.3485  1.4054 -1.3645
  435MOL0     H57363   6.770   5.495   7.971 -0.0939 -2.3190  0.4014
  435MOL0     H57364   6.780   5.532   8.150 -1.2118  1.9079  1.7168
  435MOL0     H57365   6.536   5.625   8.105  0.3325 -0.7349  1.4846
  435MOL0     H57366   6.574   5.453   8.138  2.6467 -0.5331 -0.3624
  435MOL0     H57367   6.584   5.397   7.911 -0.5206 -0.6758 -0.7180
  435MOL0     H57368   6.534   5.550   7.849  0.0695  0.4529 -0.1600
  435MOL0     H57369   6.358   5.350   7.961  1.7015  0.2693 -2.4891
  435MOL0     H57370   6.341   5.486   8.064  1.3093 -1.9603  1.5053
  435MOL0     H57371   6.331   5.510   7.756  2.5520  0.4078  2.1145
  435MOL0     H57372   6.280   5.620   7.890  1.7582  0.4070 -0.4726
  435MOL0     H57373   6.178   5.253   7.726 -0.3315  2.2974 -2.1645
  435MOL0     H57374   5.919   5.239   7.601 -0.8505  1.4830 -0.6218
  435MOL0     H57375   5.798   5.226   7.737  0.4298  2.4655  0.6134
  435MOL0     H57376   6.052   5.063   7.702  0.4965  3.8458 -0.1541
  435MOL0     H57377   5.881   5.014   7.666 -0.0304 -0.2662  0.7239
  435MOL0     H57378   5.960   5.092   7.944 -0.5469 -0.9906  1.0228
  435MOL0     H57379   5.817   5.014   7.892 -0.5174  1.9192  2.7899
  435MOL0     H57380   6.098   4.901   7.893  0.5639 -0.7723 -1.3220
  435MOL0     H57381   5.970   4.821   7.799  0.5073  3.1884 -1.6377
  435MOL0     H57382   6.144   4.694   7.923 -0.7799  0.1967 -0.5090
  435MOL0     H57383   6.286   4.550   8.058 -1.3363 -0.1857 -0.6911
  435MOL0     H57384   6.507   4.316   8.143  1.8449 -1.6106  0.4345
  435MOL0     H57385   6.628   4.136   8.216 -2.5676 -3.4549  1.4266
  435MOL0     H57386   6.691   4.070   8.649 -0.7228 -1.4475 -0.4371
  435MOL0     H57387   6.824   4.170   8.587 -2.6228  1.2975  2.6851
  435MOL0     H57388   6.772   3.868   8.580  0.7053 -2.1576  2.0836
  435MOL0     H57389   6.874   3.947   8.690 -2.5341  0.9385  0.3260
  435MOL0     H57390   7.028   4.015   8.510 -0.0575  0.1527 -0.0751
  435MOL0     H57391   6.933   3.952   8.376  2.5156  1.5247 -0.6666
  435MOL0     H57392   7.065   3.805   8.595 -2.0514  3.4602  0.3648
  435MOL0     H57393   6.956   3.724   8.479 -1.4948  0.7810  0.2417
  435MOL0     H57394   7.226   3.841   8.409  1.3765 -2.8763  1.7911
  435MOL0     H57395   7.091   3.807   8.292  1.0038  0.5183  0.2481
  435MOL0     H57396   7.103   3.573   8.393 -0.3253 -0.1586  0.1611
  435MOL0     H57397   7.249   3.624   8.494  1.9887  1.0183 -1.5177
  435MOL0     H57398   7.262   3.627   8.194 -1.0393  1.1692 -0.0421
  435MOL0     H57399   7.388   3.641   8.318 -0.2615  0.6352  1.5801
  435MOL0     H57400   7.243   3.395   8.233  0.3470  0.8408 -0.5973
  435MOL0     H57401   7.298   3.407   8.396 -0.0189 -1.6902 -0.3280
  435MOL0     H57402   6.559   4.280   8.632 -1.9709 -0.8828  0.6426
  435MOL0     H57403   6.444   4.459   8.541  3.4125 -0.1861  0.0297
  435MOL0     H57404   6.035   4.641   8.405  0.8153  0.0048 -0.3609
  435MOL0     H57405   5.872   4.771   8.244 -0.9742 -1.8190  1.5622
  435MOL0     H57406   7.194   5.443   8.032 -1.2454 -0.3213  0.2536
  435MOL0     H57407   7.378   5.329   8.168  5.3430  1.1076  1.9655
  435MOL0     H57408   7.698   5.455   8.511  2.4228  2.3978  2.0957
  435MOL0     H57409   7.892   5.390   8.658  2.2748  0.7981 -1.8593
  435MOL0     H57410   8.034   5.294   8.776 -0.2357 -0.5535 -0.7385
  435MOL0     H57411   8.141   5.374   8.655  3.3939 -1.7068 -1.8693
  435MOL0     H57412   8.226   5.279   8.883 -0.8683 -0.5581  1.2712
  435MOL0     H57413   8.220   5.119   8.799 -2.2146 -0.0462 -1.4497
  435MOL0     H57414   8.385   5.371   8.718  0.4698  0.5672 -0.1185
  435MOL0     H57415   8.375   5.220   8.621  0.3425  1.5054 -0.8263
  435MOL0     H57416   8.466   5.220   8.911 -2.9819 -0.2880 -0.4354
  435MOL0     H57417   8.495   5.098   8.774  0.7705  0.8691 -2.3415
  435MOL0     H57418   8.812   5.348   8.706  0.7734 -0.4169  2.7105
  435MOL0     H57419   8.015   5.083   8.381  0.4120 -0.2723  2.7654
  435MOL0     H57420   7.826   5.164   8.230  0.2730 -3.0159  0.8666
  436MOL0     O57421   3.079   2.089   2.168 -0.5542 -1.1249 -0.5153
  436MOL0     C57422   3.067   2.169   2.075 -0.5342 -0.4252 -0.5440
  436MOL0     O57423   2.959   2.244   2.046  0.4369  0.3082 -0.5219
  436MOL0     C57424   2.834   2.212   2.102 -0.4598 -0.0428  0.1926
  436MOL0     C57425   2.801   2.180   2.234  0.1415  0.5449  0.1598
  436MOL0     C57426   2.673   2.139   2.277  0.3403  0.0978  0.8568
  436MOL0     C57427   2.567   2.141   2.184 -0.6488 -0.6576  0.6101
  436MOL0     O57428   2.442   2.092   2.217 -0.1056  0.1493  0.1533
  436MOL0     C57429   2.394   1.982   2.141  0.9121  0.6391 -0.0468
  436MOL0     C57430   2.246   1.962   2.182 -0.1635  0.1783  0.2686
  436MOL0     C57431   2.161   1.879   2.085 -0.1567 -0.6028  0.1491
  436MOL0     C57432   2.115   1.953   1.955  0.5675 -0.3470 -1.0619
  436MOL0     C57433   2.063   1.846   1.861 -0.4449  0.0520 -0.0141
  436MOL0     C57434   2.022   1.915   1.730  0.1092  0.0884  0.4665
  436MOL0     C57435   1.951   1.819   1.632  0.4320  0.4854  0.6085
  436MOL0     C57436   1.918   1.879   1.494 -0.2319  0.1450 -0.0097
  436MOL0     N57437   1.821   1.991   1.511 -0.3808  0.2642 -0.0559
  436MOL0     C57438   1.863   2.124   1.523 -0.3918  0.1383 -0.2130
  436MOL0     C57439   1.746   2.188   1.502 -0.8858 -0.3331 -0.6855
  436MOL0     C57440   1.711   2.334   1.491  0.6323  0.3658  0.4377
  436MOL0     C57441   1.838   2.428   1.489  0.0627  0.0011  0.5846
  436MOL0     C57442   1.906   2.476   1.621  0.1298 -0.1680 -0.0324
  436MOL0     C57443   2.027   2.563   1.577 -0.1785  0.3220 -0.8958
  436MOL0     O57444   1.964   2.684   1.532  0.7208  0.4921  0.2799
  436MOL0     C57445   2.050   2.795   1.511 -0.0959 -0.0781 -0.7373
  436MOL0     C57446   2.055   2.849   1.388 -0.7929  0.3789 -0.0565
  436MOL0     C57447   2.127   2.967   1.352 -0.4973  0.2976  0.1975
  436MOL0     C57448   2.212   3.020   1.452  0.8535  0.5066 -0.4446
  436MOL0     C57449   2.291   3.139   1.423 -0.5676 -0.3307 -0.3452
  436MOL0     O57450   2.294   3.185   1.293 -0.5217 -0.1682  1.0199
  436MOL0     C57451   2.375   3.291   1.266 -0.6224 -0.2874 -0.0206
  436MOL0     C57452   2.511   3.290   1.223 -0.4878  0.2135 -0.0975
  436MOL0     C57453   2.582   3.413   1.208  0.4184  0.2066 -0.4835
  436MOL0     C57454   2.514   3.537   1.217 -0.5464 -0.4101 -0.0615
  436MOL0     O57455   2.589   3.655   1.204  0.4698  0.9876  0.0187
  436MOL0     C57456   2.521   3.776   1.165  0.4524 -0.0195  0.8732
  436MOL0     C57457   2.612   3.881   1.107 -0.0427 -0.5986 -0.2234
  436MOL0     C57458   2.655   3.882   0.953  0.1114 -0.0107 -0.4767
  436MOL0     C57459   2.754   3.754   0.933  0.4414  0.9070 -0.8699
  436MOL0     C57460   2.814   3.741   0.800  0.2090  0.4583 -0.8827
  436MOL0     C57461   2.897   3.850   0.753 -0.1208 -0.7851  0.4856
  436MOL0     C57462   2.956   3.815   0.613  0.0581 -0.2666  0.3823
  436MOL0     C57463   3.046   3.924   0.570  0.4325 -0.4495 -0.0480
  436MOL0    Cl57464   2.965   4.077   0.542  0.3377  0.1964  0.2486
  436MOL0     C57465   2.384   3.545   1.263  0.5513  0.0101 -0.1177
  436MOL0     C57466   2.322   3.421   1.287 -0.2178  0.0535  0.2399
  436MOL0     O57467   2.328   3.206   1.522  0.7819 -0.1865 -0.6128
  436MOL0     C57468   2.218   2.955   1.582 -0.1264 -0.7045 -0.6377
  436MOL0     C57469   2.132   2.849   1.611  0.1369  0.5732  0.4393
  436MOL0     N57470   1.639   2.097   1.512  0.7883 -0.7745  0.8302
  436MOL0     N57471   1.688   1.981   1.524  0.3084 -0.0877 -0.7298
  436MOL0     C57472   2.595   2.192   2.053  0.4609 -0.2895 -0.3081
  436MOL0     C57473   2.722   2.230   2.020 -0.7508 -0.2436 -1.1156
  436MOL0     C57474   3.193   2.192   1.995  0.2665 -0.1678 -0.2056
  436MOL0     C57475   3.310   2.121   2.020 -1.3911 -0.2919 -0.0291
  436MOL0     C57476   3.418   2.148   1.934  0.1479 -0.6358 -0.6337
  436MOL0     C57477   3.418   2.238   1.822 -0.4845  0.0435 -0.7624
  436MOL0     O57478   3.527   2.276   1.749  0.4817  0.0269  0.1308
  436MOL0     C57479   3.655   2.212   1.777 -0.4768 -0.0369 -0.6360
  436MOL0     C57480   3.754   2.251   1.678 -0.2739 -0.8247  0.0981
  436MOL0     C57481   3.803   2.398   1.689  0.3250  0.1690 -0.5619
  436MOL0     C57482   3.904   2.429   1.806 -0.1591 -0.2459 -0.6548
  436MOL0     C57483   3.999   2.537   1.776 -0.0078  0.7624  0.1387
  436MOL0     C57484   4.072   2.627   1.744 -0.9539 -0.6383  0.4737
  436MOL0     C57485   3.303   2.306   1.801  1.4527  0.9764 -0.9435
  436MOL0     C57486   3.188   2.282   1.882 -0.0762 -1.0555  0.5944
  436MOL0     H57487   2.885   2.165   2.300  1.8054  2.8139 -1.2859
  436MOL0     H57488   2.668   2.099   2.377 -0.0802  3.1175  2.1595
  436MOL0     H57489   2.448   1.895   2.178  0.0182  1.3336  3.2144
  436MOL0     H57490   2.404   1.990   2.032 -0.7125 -1.7332 -0.4480
  436MOL0     H57491   2.195   2.058   2.194 -2.6366 -1.1494  1.1632
  436MOL0     H57492   2.251   1.920   2.283  0.7282  2.3521  1.1689
  436MOL0     H57493   2.071   1.860   2.144  1.3106 -1.3652  2.2956
  436MOL0     H57494   2.216   1.788   2.059  1.1247  0.7751 -2.2696
  436MOL0     H57495   2.028   2.015   1.979 -0.8160 -3.0410  1.3770
  436MOL0     H57496   2.197   2.009   1.907  1.1791  0.9203  1.3104
  436MOL0     H57497   1.983   1.782   1.899  0.3407 -1.3713 -0.6875
  436MOL0     H57498   2.146   1.778   1.844  0.0834  0.8570 -0.7705
  436MOL0     H57499   2.116   1.959   1.694  0.8698  1.0132  3.3359
  436MOL0     H57500   1.972   2.009   1.757  3.0720  1.6848  0.8287
  436MOL0     H57501   2.020   1.740   1.601  0.1178  0.6584 -0.5978
  436MOL0     H57502   1.863   1.779   1.683  0.8959 -0.1772  0.9127
  436MOL0     H57503   1.881   1.800   1.427  0.8232 -0.0324 -0.3940
  436MOL0     H57504   1.996   1.922   1.432  1.2008  1.1986  2.3744
  436MOL0     H57505   1.964   2.162   1.536 -0.9344  2.0584 -1.2680
  436MOL0     H57506   1.649   2.353   1.579 -0.8536 -0.3915 -0.4158
  436MOL0     H57507   1.645   2.350   1.405 -2.3197 -0.2503  2.4433
  436MOL0     H57508   1.807   2.520   1.439  0.1273 -0.9861 -1.3486
  436MOL0     H57509   1.916   2.380   1.429  1.1499 -0.1984  2.0896
  436MOL0     H57510   1.834   2.527   1.686  2.2080  0.6396  1.7512
  436MOL0     H57511   1.928   2.380   1.669  0.3636 -0.4819 -0.7527
  436MOL0     H57512   2.080   2.511   1.498  2.0990  1.7349 -0.3911
  436MOL0     H57513   2.096   2.587   1.659  1.1863  4.1246 -2.9012
  436MOL0     H57514   1.985   2.817   1.310  0.4348  0.8937 -1.4147
  436MOL0     H57515   2.116   3.009   1.252  0.6328  3.4468  1.2617
  436MOL0     H57516   2.559   3.193   1.221 -0.9647 -0.0905  1.8183
  436MOL0     H57517   2.687   3.422   1.181  1.7150  1.5323  4.0651
  436MOL0     H57518   2.474   3.818   1.254  0.3737  0.3229  0.6724
  436MOL0     H57519   2.449   3.744   1.089 -1.1483  1.5566  1.6657
  436MOL0     H57520   2.698   3.874   1.175 -2.1070 -3.0872  2.4100
  436MOL0     H57521   2.575   3.983   1.117  1.7876  0.0773 -0.0132
  436MOL0     H57522   2.719   3.968   0.936 -2.3201  1.5804 -2.1516
  436MOL0     H57523   2.569   3.890   0.886  0.6150  1.3801 -0.9902
  436MOL0     H57524   2.824   3.745   1.017 -3.3211  0.0361  2.5090
  436MOL0     H57525   2.694   3.663   0.945 -2.4054  2.9330  1.6852
  436MOL0     H57526   2.732   3.729   0.728  0.4281  1.1614 -1.2650
  436MOL0     H57527   2.873   3.650   0.792 -2.4797 -1.4422 -0.4112
  436MOL0     H57528   2.968   3.862   0.834  0.0922 -2.2141  0.5406
  436MOL0     H57529   2.844   3.945   0.745  2.9398  0.9306 -1.2016
  436MOL0     H57530   3.003   3.717   0.626 -0.7535 -0.3399  3.6238
  436MOL0     H57531   2.876   3.801   0.541  2.1000 -1.0908 -1.8675
  436MOL0     H57532   3.106   3.904   0.480 -0.7021  0.1082 -0.9434
  436MOL0     H57533   3.111   3.943   0.656  1.3807 -1.1372 -0.5898
  436MOL0     H57534   2.346   3.645   1.276  0.1037  0.0264 -1.3975
  436MOL0     H57535   2.217   3.427   1.312 -0.3906  1.9599 -0.7539
  436MOL0     H57536   2.284   2.999   1.656  0.3885  1.2132 -2.1574
  436MOL0     H57537   2.130   2.805   1.710  0.1481  1.2860  0.7642
  436MOL0     H57538   2.511   2.209   1.986  1.7906  0.5521 -1.8445
  436MOL0     H57539   2.756   2.265   1.923  3.0117 -1.9555 -0.6010
  436MOL0     H57540   3.315   2.042   2.094 -0.1688 -1.9809 -1.8062
  436MOL0     H57541   3.506   2.086   1.944 -0.5189 -1.6289 -0.7997
  436MOL0     H57542   3.648   2.103   1.782  0.0997 -0.0768 -0.6381
  436MOL0     H57543   3.672   2.240   1.882 -2.0663  2.7984 -1.0128
  436MOL0     H57544   3.839   2.182   1.687  0.4699  0.1642  0.8376
  436MOL0     H57545   3.699   2.228   1.586 -0.2177  0.6739 -0.3394
  436MOL0     H57546   3.713   2.457   1.707 -1.1885 -1.7048 -1.4910
  436MOL0     H57547   3.847   2.422   1.592  2.5967 -1.3646  0.0182
  436MOL0     H57548   3.847   2.452   1.897  1.4308 -1.9508  0.8754
  436MOL0     H57549   3.958   2.338   1.835  2.4849  2.1054  2.6313
  436MOL0     H57550   4.144   2.704   1.723  1.1864 -2.0027  2.2666
  436MOL0     H57551   3.297   2.372   1.715 -0.8444  0.3325 -1.3500
  436MOL0     H57552   3.107   2.352   1.868 -0.6054 -1.6109  0.8572
  437MOL0     O57553   7.059   2.103   7.274  0.1976 -0.0276 -0.2028
  437MOL0     C57554   6.986   2.002   7.260  0.0074 -0.0849  0.2170
  437MOL0     O57555   6.848   2.000   7.280 -0.0913  0.3132 -0.1033
  437MOL0     C57556   6.779   2.093   7.345  0.3397 -0.4939  0.0611
  437MOL0     C57557   6.689   2.059   7.445 -0.5384  0.8809  0.1849
  437MOL0     C57558   6.599   2.155   7.497 -0.2111  0.1351  0.3259
  437MOL0     C57559   6.610   2.286   7.442  0.5990 -0.5956 -1.6569
  437MOL0     O57560   6.528   2.377   7.499  0.1193  0.1054  0.8947
  437MOL0     C57561   6.572   2.509   7.522 -0.4941 -0.4042 -0.1339
  437MOL0     C57562   6.501   2.566   7.645  0.3396  0.6242  0.7043
  437MOL0     C57563   6.570   2.506   7.764 -0.0692  1.3669 -0.0313
  437MOL0     C57564   6.509   2.533   7.903  1.5146  0.4692  0.4833
  437MOL0     C57565   6.573   2.437   7.999 -0.4518  0.2547 -0.5167
  437MOL0     C57566   6.488   2.442   8.130 -0.0821 -0.5895  0.0843
  437MOL0     C57567   6.543   2.343   8.228  0.0111 -0.7973 -0.4578
  437MOL0     C57568   6.485   2.200   8.215 -0.4654  0.8544  0.9938
  437MOL0     N57569   6.527   2.114   8.319 -0.5523 -0.6638  0.9659
  437MOL0     C57570   6.502   2.136   8.454  0.2108  0.6115 -0.5165
  437MOL0     C57571   6.574   2.044   8.519 -0.1238 -0.0902 -0.0588
  437MOL0     C57572   6.604   2.047   8.671  0.3145  0.7950  0.0165
  437MOL0     C57573   6.741   2.096   8.708 -0.0456  0.2081 -0.5192
  437MOL0     C57574   6.772   2.239   8.695 -0.6304 -0.8864 -0.7562
  437MOL0     C57575   6.913   2.276   8.716  0.1239  0.1072  0.0662
  437MOL0     O57576   6.931   2.417   8.715 -0.1365 -0.2910 -0.5536
  437MOL0     C57577   7.047   2.468   8.752  0.1878  0.1099  0.4216
  437MOL0     C57578   7.047   2.606   8.784 -1.0859  0.7432  0.0691
  437MOL0     C57579   7.164   2.660   8.831 -0.2899 -0.4171  0.5530
  437MOL0     C57580   7.291   2.587   8.846  0.2965 -0.0266 -0.1649
  437MOL0     C57581   7.418   2.643   8.887 -0.2959 -0.4805 -0.3392
  437MOL0     O57582   7.524   2.557   8.920 -0.0196  0.0497  0.3925
  437MOL0     C57583   7.641   2.607   8.966 -0.0197  0.2659  0.0844
  437MOL0     C57584   7.705   2.724   8.907  0.5605  0.0112  0.1750
  437MOL0     C57585   7.819   2.759   8.961 -0.3852 -0.8375 -0.6057
  437MOL0     C57586   7.884   2.696   9.071 -0.2532 -0.1750  0.8805
  437MOL0     O57587   8.013   2.739   9.098  0.0674  0.3680  0.6868
  437MOL0     C57588   8.062   2.735   9.236  0.2087 -0.2932 -0.3998
  437MOL0     C57589   8.186   2.638   9.256  0.8758 -0.3870 -0.0652
  437MOL0     C57590   8.289   2.680   9.148  0.6198  0.1838 -0.6444
  437MOL0     C57591   8.412   2.605   9.175 -0.7506 -0.0777 -0.3445
  437MOL0     C57592   8.529   2.654   9.092  1.6740  0.8698 -0.1212
  437MOL0     C57593   8.662   2.613   9.153 -0.6814 -0.4818  0.1604
  437MOL0     C57594   8.667   2.462   9.141  0.0812 -0.3538  0.2238
  437MOL0     C57595   8.812   2.408   9.149  0.4173  1.1541 -0.2355
  437MOL0    Cl57596   8.905   2.466   8.998  0.3901  0.1554  0.0328
  437MOL0     C57597   7.820   2.594   9.130  0.0295  0.3185  0.7869
  437MOL0     C57598   7.705   2.540   9.072  0.1121 -0.0774 -0.1034
  437MOL0     O57599   7.417   2.759   8.913  0.3615  0.2174 -0.1436
  437MOL0     C57600   7.291   2.459   8.800 -0.2457 -0.2780  0.0420
  437MOL0     C57601   7.170   2.400   8.769  0.1769 -0.4009  0.4122
  437MOL0     N57602   6.639   1.970   8.429  0.2928  0.1624  0.2477
  437MOL0     N57603   6.612   2.006   8.303  0.8389 -0.5656 -0.3694
  437MOL0     C57604   6.695   2.320   7.344  0.6739 -0.0573  1.1047
  437MOL0     C57605   6.787   2.227   7.292  0.3461 -0.9481 -0.3326
  437MOL0     C57606   7.056   1.882   7.216  0.1695  0.2582  0.2044
  437MOL0     C57607   7.183   1.893   7.171 -0.1024 -0.5384  1.0897
  437MOL0     C57608   7.250   1.782   7.120  0.3032  0.4042  0.0208
  437MOL0     C57609   7.190   1.662   7.136  0.1850  0.5397 -0.1959
  437MOL0     O57610   7.270   1.551   7.102  0.3582 -0.0938  0.2484
  437MOL0     C57611   7.213   1.439   7.054 -0.3357  0.5018  0.9787
  437MOL0     C57612   7.130   1.467   6.925  0.0809  0.0415  0.1996
  437MOL0     C57613   7.019   1.370   6.898  0.7365  0.6304 -0.3164
  437MOL0     C57614   6.956   1.384   6.756  0.1754  0.4326 -1.1703
  437MOL0     C57615   6.857   1.281   6.744 -0.5060  0.8850  0.5290
  437MOL0     C57616   6.764   1.197   6.737  0.0865 -0.3027  0.4633
  437MOL0     C57617   7.061   1.649   7.189  0.7852  0.6024  0.7442
  437MOL0     C57618   7.000   1.761   7.228 -0.2626  0.4151 -0.5649
  437MOL0     H57619   6.689   1.955   7.476 -1.4507  1.5790  2.8727
  437MOL0     H57620   6.530   2.150   7.581 -0.6076  1.5317  0.1174
  437MOL0     H57621   6.570   2.569   7.430  1.9714  1.8683  1.1844
  437MOL0     H57622   6.680   2.505   7.539 -0.5093 -0.3701 -0.0281
  437MOL0     H57623   6.401   2.525   7.632  0.8702 -0.0566 -1.6370
  437MOL0     H57624   6.495   2.675   7.648 -0.6340  0.7905 -3.0325
  437MOL0     H57625   6.673   2.543   7.763  0.7418 -0.7089 -1.9606
  437MOL0     H57626   6.585   2.398   7.759 -1.3206  1.0427  1.9263
  437MOL0     H57627   6.519   2.640   7.921  1.9462  0.3984  0.6881
  437MOL0     H57628   6.402   2.513   7.915  1.7030 -0.5139  0.6486
  437MOL0     H57629   6.679   2.465   8.011 -0.1062 -1.2237  0.0581
  437MOL0     H57630   6.575   2.332   7.968  0.1529 -0.0065  0.3704
  437MOL0     H57631   6.380   2.427   8.121 -0.8739  2.4336  2.8994
  437MOL0     H57632   6.503   2.546   8.160 -0.2819 -0.6284  0.3186
  437MOL0     H57633   6.652   2.336   8.226  0.0355 -1.7747  1.5947
  437MOL0     H57634   6.521   2.386   8.327  0.6793  1.8215 -1.3801
  437MOL0     H57635   6.513   2.149   8.122 -1.3067 -2.7442  2.5234
  437MOL0     H57636   6.376   2.209   8.215 -0.5905 -0.2096  2.9226
  437MOL0     H57637   6.440   2.214   8.498  1.3363  0.8781  0.6440
  437MOL0     H57638   6.599   1.946   8.713 -0.2324 -0.8370 -3.5521
  437MOL0     H57639   6.528   2.105   8.724 -1.3122 -1.0290 -0.2200
  437MOL0     H57640   6.812   2.049   8.639  0.3778  1.1408 -0.7292
  437MOL0     H57641   6.761   2.051   8.805  0.1456  0.4523 -0.4434
  437MOL0     H57642   6.765   2.279   8.594 -1.5782 -2.2611 -1.2535
  437MOL0     H57643   6.708   2.297   8.763  0.6453  0.5332 -0.7030
  437MOL0     H57644   6.969   2.236   8.631  1.1600 -3.0327  2.0615
  437MOL0     H57645   6.945   2.234   8.812 -2.1802 -0.0972  0.8020
  437MOL0     H57646   6.961   2.671   8.774 -3.4561 -2.0289  1.1777
  437MOL0     H57647   7.152   2.766   8.852  1.3124  0.0683 -0.7928
  437MOL0     H57648   7.670   2.771   8.816  0.3346  0.6518  0.5877
  437MOL0     H57649   7.871   2.845   8.920  1.4688 -0.7141  1.7465
  437MOL0     H57650   7.982   2.718   9.309  0.2624 -0.3447 -0.3527
  437MOL0     H57651   8.103   2.835   9.257 -2.3573  0.8461 -0.4051
  437MOL0     H57652   8.154   2.535   9.239  1.2645 -0.7436  1.2722
  437MOL0     H57653   8.238   2.652   9.351 -1.5090  1.9228  1.0523
  437MOL0     H57654   8.302   2.788   9.160  2.6254 -0.2095  1.2998
  437MOL0     H57655   8.239   2.658   9.053  1.3500  1.9742 -1.4942
  437MOL0     H57656   8.442   2.630   9.278 -0.5596 -0.6743 -0.2535
  437MOL0     H57657   8.401   2.497   9.169 -3.7508  0.0879  0.3730
  437MOL0     H57658   8.530   2.763   9.097  1.6709  0.9812 -1.9667
  437MOL0     H57659   8.518   2.625   8.987 -1.7599 -0.2968  0.4503
  437MOL0     H57660   8.674   2.645   9.257 -1.3275  1.1752 -0.2421
  437MOL0     H57661   8.736   2.659   9.086 -1.5723 -0.4650 -0.8307
  437MOL0     H57662   8.606   2.420   9.221 -1.2007  1.9445  0.5133
  437MOL0     H57663   8.625   2.421   9.049  2.8843 -2.3702 -0.2994
  437MOL0     H57664   8.815   2.299   9.157  3.0958  0.8824 -2.9667
  437MOL0     H57665   8.866   2.443   9.238 -1.2784  1.7524  0.5988
  437MOL0     H57666   7.867   2.552   9.218 -1.0680 -1.4530  0.5782
  437MOL0     H57667   7.664   2.452   9.119 -1.7408  1.3894  1.1984
  437MOL0     H57668   7.376   2.392   8.807 -0.6909 -0.8478  0.0916
  437MOL0     H57669   7.169   2.297   8.733 -0.5868  0.4057 -2.0770
  437MOL0     H57670   6.701   2.420   7.302 -2.0848 -0.9752 -1.9002
  437MOL0     H57671   6.862   2.260   7.222 -1.2170 -1.4700 -2.3407
  437MOL0     H57672   7.233   1.990   7.165  1.2740 -1.2804 -0.0080
  437MOL0     H57673   7.334   1.769   7.053 -0.5623 -4.3567 -0.4698
  437MOL0     H57674   7.146   1.399   7.132  0.5391  0.3483  1.6612
  437MOL0     H57675   7.284   1.361   7.026 -3.6485 -1.4612 -3.0414
  437MOL0     H57676   7.081   1.564   6.940  0.7119  0.9849 -3.0027
  437MOL0     H57677   7.201   1.474   6.841  1.1039  0.3565  1.0706
  437MOL0     H57678   6.945   1.378   6.978  0.2762  1.2732 -0.7933
  437MOL0     H57679   7.053   1.266   6.901  0.4549  0.5504  0.3130
  437MOL0     H57680   6.913   1.482   6.731 -0.6288 -0.3204 -2.8719
  437MOL0     H57681   7.036   1.353   6.689  0.8004 -0.6361  0.0112
  437MOL0     H57682   6.676   1.138   6.750  0.1727 -0.3136  1.0106
  437MOL0     H57683   7.015   1.552   7.207  3.7796 -0.5022  3.4874
  437MOL0     H57684   6.903   1.766   7.277  1.1240 -0.8428  2.5718
  438MOL0     O57685   6.674   9.734   4.067  0.0090  0.6261 -0.9708
  438MOL0     C57686   6.683   9.609   4.058  0.1748 -1.0267 -0.6590
  438MOL0     O57687   6.584   9.521   4.085 -0.1506 -0.5097 -0.2452
  438MOL0     C57688   6.478   9.561   4.169  0.7440 -0.6228 -0.3435
  438MOL0     C57689   6.344   9.565   4.121  0.3939 -1.1772  0.2135
  438MOL0     C57690   6.227   9.600   4.205  0.4056  0.5752  0.5259
  438MOL0     C57691   6.255   9.648   4.331  0.7484  0.8048  0.0269
  438MOL0     O57692   6.147   9.689   4.412  0.7382 -0.2285  0.3858
  438MOL0     C57693   6.172   9.708   4.551  0.1433 -0.5733  0.1515
  438MOL0     C57694   6.211   9.858   4.580  0.1486 -0.4758 -0.4830
  438MOL0     C57695   6.121   9.969   4.514 -0.0205  0.3199  0.4264
  438MOL0     C57696   6.107  10.096   4.594 -0.2633 -0.1848 -0.5770
  438MOL0     C57697   6.018  10.201   4.528 -1.1935 -0.1862  0.4137
  438MOL0     C57698   6.087  10.277   4.415  0.8224 -0.1231 -0.3612
  438MOL0     C57699   6.017  10.395   4.349 -0.4278  0.0728  0.5650
  438MOL0     C57700   6.057  10.533   4.410 -0.3414 -0.8611  0.8864
  438MOL0     N57701   5.961  10.640   4.377  0.3463  0.5709 -0.1617
  438MOL0     C57702   5.903  10.667   4.256 -0.8435 -0.2507  0.3720
  438MOL0     C57703   5.833  10.779   4.268  0.1653 -0.8891 -0.0705
  438MOL0     C57704   5.729  10.830   4.180 -1.2896 -0.9875  0.1042
  438MOL0     C57705   5.591  10.815   4.237 -1.0161  0.1876 -0.3581
  438MOL0     C57706   5.483  10.885   4.158 -0.3497 -1.3716 -0.9224
  438MOL0     C57707   5.332  10.852   4.189 -1.1121 -0.5099  0.3736
  438MOL0     O57708   5.308  10.725   4.123  0.2450 -0.1671 -0.7365
  438MOL0     C57709   5.170  10.684   4.138  0.5566  0.1779  0.1719
  438MOL0     C57710   5.072  10.756   4.203 -0.2994  0.0198 -0.2933
  438MOL0     C57711   4.947  10.694   4.228 -0.5000 -0.6956 -0.4790
  438MOL0     C57712   4.910  10.570   4.178 -0.5024 -0.6328  0.6688
  438MOL0     C57713   4.779  10.516   4.208  0.1517  0.4298  0.5623
  438MOL0     O57714   4.671  10.598   4.228 -0.6797 -0.1881 -0.2069
  438MOL0     C57715   4.541  10.555   4.227  0.3786  0.5001  0.9859
  438MOL0     C57716   4.452  10.613   4.318  0.0219 -0.0028  0.5848
  438MOL0     C57717   4.320  10.576   4.319 -0.0849 -0.6787 -0.9957
  438MOL0     C57718   4.272  10.482   4.240 -0.8159  0.4132  0.5015
  438MOL0     O57719   4.137  10.444   4.257 -0.0150  0.6435  0.4100
  438MOL0     C57720   4.134  10.346   4.358  0.5339 -0.1252 -0.3623
  438MOL0     C57721   3.979  10.309   4.377 -0.1037 -0.7781  1.1500
  438MOL0     C57722   3.923  10.233   4.253 -0.0195 -0.1512 -0.2448
  438MOL0     C57723   3.778  10.187   4.288 -0.0232 -0.3821  0.6163
  438MOL0     C57724   3.699  10.123   4.178 -0.3453 -0.1583  0.0941
  438MOL0     C57725   3.571  10.192   4.134 -0.3364  0.3143 -0.4574
  438MOL0     C57726   3.605  10.318   4.049  0.4755 -0.8296  0.6000
  438MOL0     C57727   3.473  10.369   3.990 -0.2969 -0.2582  0.6639
  438MOL0    Cl57728   3.360  10.397   4.126  0.5074  0.3373 -0.3058
  438MOL0     C57729   4.353  10.429   4.134 -0.6703  0.2380  0.0174
  438MOL0     C57730   4.488  10.465   4.126  0.3252  0.6639 -0.2827
  438MOL0     O57731   4.776  10.394   4.207  0.8768  0.0388 -0.2608
  438MOL0     C57732   5.008  10.506   4.104 -0.3008  0.9570  0.7653
  438MOL0     C57733   5.143  10.558   4.092  0.8349  0.3030 -0.8074
  438MOL0     N57734   5.855  10.821   4.399  0.5029 -0.3511  0.6369
  438MOL0     N57735   5.938  10.746   4.461  0.3459 -0.2010  0.7312
  438MOL0     C57736   6.387   9.645   4.374 -1.2496  0.1786  0.7228
  438MOL0     C57737   6.496   9.598   4.300  0.3713  0.2815  0.0738
  438MOL0     C57738   6.817   9.550   4.043 -0.3610  0.0047 -0.0759
  438MOL0     C57739   6.844   9.411   4.074 -0.6811 -0.1112  0.7412
  438MOL0     C57740   6.967   9.352   4.052 -0.3035  0.0374 -0.4748
  438MOL0     C57741   7.073   9.431   4.005 -0.8204  1.1828 -0.4840
  438MOL0     O57742   7.192   9.362   3.988 -0.0116  0.6598 -1.2016
  438MOL0     C57743   7.308   9.433   3.942  0.2771 -0.4995  1.3220
  438MOL0     C57744   7.418   9.329   3.943 -0.4173  0.2947 -0.1745
  438MOL0     C57745   7.517   9.372   3.830  0.2445 -0.6336 -1.0898
  438MOL0     C57746   7.628   9.267   3.832 -0.2489  0.1997  0.7634
  438MOL0     C57747   7.763   9.325   3.808 -0.6992  0.2656 -0.2379
  438MOL0     C57748   7.864   9.390   3.817 -0.2675  0.0844  0.6803
  438MOL0     C57749   7.048   9.565   3.976 -0.2584 -0.0164  0.1287
  438MOL0     C57750   6.930   9.626   4.001 -0.0288 -0.2352  0.1508
  438MOL0     H57751   6.324   9.522   4.023 -3.5167  3.3715 -1.3779
  438MOL0     H57752   6.122   9.588   4.180  0.5548  3.0536 -1.6862
  438MOL0     H57753   6.222   9.627   4.604 -1.0412 -2.6932 -1.7967
  438MOL0     H57754   6.073   9.694   4.595 -0.3831 -2.9368 -1.6085
  438MOL0     H57755   6.311   9.878   4.541 -0.5431  0.8641 -1.6544
  438MOL0     H57756   6.202   9.868   4.688 -1.3553  1.1994 -0.7167
  438MOL0     H57757   6.016   9.939   4.510 -1.6597  5.2505 -1.0208
  438MOL0     H57758   6.156  10.006   4.417 -0.2773 -0.3927  0.0574
  438MOL0     H57759   6.077  10.060   4.693  2.1638 -1.2235 -0.1320
  438MOL0     H57760   6.202  10.146   4.615  0.2592 -1.6481  0.7505
  438MOL0     H57761   5.991  10.277   4.603  0.5163  1.4331 -0.5214
  438MOL0     H57762   5.930  10.157   4.480  0.3497 -2.3295 -0.5983
  438MOL0     H57763   6.089  10.208   4.330  1.1259 -2.5687  1.5180
  438MOL0     H57764   6.189  10.296   4.451  1.3766 -2.2513 -0.6745
  438MOL0     H57765   6.037  10.395   4.242 -0.3561  0.6435  0.5750
  438MOL0     H57766   5.909  10.389   4.367 -0.7405  1.5217 -0.5453
  438MOL0     H57767   6.151  10.566   4.364  1.2630 -2.9175  2.5214
  438MOL0     H57768   6.070  10.525   4.518 -0.5747  2.1867  1.2325
  438MOL0     H57769   5.914  10.598   4.173 -0.3639  2.6434 -2.1579
  438MOL0     H57770   5.735  10.785   4.081  1.4408  1.0392 -0.7666
  438MOL0     H57771   5.750  10.936   4.166  0.5241 -1.5124 -1.5163
  438MOL0     H57772   5.588  10.855   4.338 -1.3046 -0.0684 -0.2630
  438MOL0     H57773   5.565  10.708   4.234  1.5774 -0.4959 -2.3000
  438MOL0     H57774   5.499  10.988   4.192  1.9460 -1.5794 -1.2498
  438MOL0     H57775   5.510  10.870   4.053 -1.1593 -0.7533 -1.2275
  438MOL0     H57776   5.276  10.940   4.156 -3.6163  0.0211  5.1263
  438MOL0     H57777   5.317  10.839   4.297 -0.9705 -1.0574  0.3336
  438MOL0     H57778   5.079  10.860   4.231  2.4389 -0.5924  1.6799
  438MOL0     H57779   4.878  10.739   4.298  0.4739 -0.2595  0.2293
  438MOL0     H57780   4.500  10.688   4.380 -0.7767 -0.8495  2.3084
  438MOL0     H57781   4.257  10.631   4.388  1.4430  3.6946 -2.7080
  438MOL0     H57782   4.178  10.390   4.448 -2.3713  1.7428  0.2922
  438MOL0     H57783   4.188  10.257   4.327  0.9501 -0.0120  0.0338
  438MOL0     H57784   3.913  10.396   4.383 -0.7908 -0.7004 -3.8715
  438MOL0     H57785   3.970  10.245   4.466 -1.7094 -2.4504 -0.1333
  438MOL0     H57786   3.988  10.155   4.213 -0.1014 -1.0568  1.3215
  438MOL0     H57787   3.926  10.308   4.173  1.4768 -2.1665 -2.2445
  438MOL0     H57788   3.785  10.101   4.355  1.2864 -0.0998  0.8675
  438MOL0     H57789   3.725  10.271   4.334  2.1314  0.8013  1.0787
  438MOL0     H57790   3.683  10.018   4.203  1.9190 -0.8503 -1.0559
  438MOL0     H57791   3.763  10.125   4.089  0.2705  2.5093  0.5116
  438MOL0     H57792   3.514  10.206   4.227  1.1510 -2.4136  0.9829
  438MOL0     H57793   3.523  10.128   4.060  1.2265  0.0073 -1.2315
  438MOL0     H57794   3.655  10.395   4.109 -2.4284  0.2418  1.8446
  438MOL0     H57795   3.670  10.282   3.968 -1.4472 -0.4947 -1.1697
  438MOL0     H57796   3.431  10.293   3.924  0.0841 -0.3044  0.4724
  438MOL0     H57797   3.477  10.461   3.930  1.0494 -0.3020  0.6675
  438MOL0     H57798   4.315  10.342   4.081  2.7912 -0.3431 -1.8121
  438MOL0     H57799   4.548  10.422   4.046 -1.2195  1.0484 -1.7008
  438MOL0     H57800   4.978  10.414   4.056  1.2366  0.9707 -0.2848
  438MOL0     H57801   5.215  10.503   4.033  2.1080  1.2486 -0.1710
  438MOL0     H57802   6.423   9.668   4.474 -1.3074 -2.7973  1.5212
  438MOL0     H57803   6.597   9.602   4.340  0.5957  0.2171 -0.4825
  438MOL0     H57804   6.767   9.348   4.115  0.3779 -2.2916 -0.4240
  438MOL0     H57805   6.976   9.247   4.080 -4.2965  0.0890  1.8599
  438MOL0     H57806   7.337   9.506   4.017  0.3609 -2.0305  2.8362
  438MOL0     H57807   7.298   9.484   3.846 -3.2251 -1.3895  1.0711
  438MOL0     H57808   7.462   9.347   4.042 -0.7879  2.2121 -0.3078
  438MOL0     H57809   7.386   9.228   3.919  0.6764  0.3982 -2.2324
  438MOL0     H57810   7.558   9.472   3.848  0.5705 -0.5495 -2.2395
  438MOL0     H57811   7.476   9.382   3.730 -2.3309 -0.6495 -0.1268
  438MOL0     H57812   7.629   9.231   3.935  2.2455  1.6788  1.3679
  438MOL0     H57813   7.612   9.185   3.761  2.5353 -1.0529  1.4465
  438MOL0     H57814   7.960   9.434   3.831  0.6835 -0.2469 -3.4294
  438MOL0     H57815   7.120   9.630   3.926  0.5093 -0.4481  0.6652
  438MOL0     H57816   6.920   9.733   3.984  3.8378  0.3415  0.5186
  439MOL0     O57817   0.298   6.629   2.087 -0.5947 -0.0636 -0.0230
  439MOL0     C57818   0.348   6.725   2.039 -0.3359 -0.4406 -0.8327
  439MOL0     O57819   0.376   6.844   2.102  0.6262  0.3294  0.6641
  439MOL0     C57820   0.290   6.875   2.209 -0.5390  0.8524  0.7183
  439MOL0     C57821   0.366   6.935   2.308  0.4527 -0.6892  0.5510
  439MOL0     C57822   0.295   6.992   2.415  0.2044  0.8094  0.3981
  439MOL0     C57823   0.156   6.977   2.427  0.3675  0.7398  0.2648
  439MOL0     O57824   0.092   7.049   2.524  0.0323  0.4418  0.5130
  439MOL0     C57825  -0.045   7.005   2.550 -0.9760  0.4809  0.1263
  439MOL0     C57826  -0.148   7.101   2.489 -0.0003  1.0637 -1.1342
  439MOL0     C57827  -0.286   7.042   2.447 -0.0374 -0.0888  0.3209
  439MOL0     C57828  -0.387   7.160   2.431 -0.0081  0.1268  0.1316
  439MOL0     C57829  -0.532   7.108   2.414  0.3009  0.1597  0.5761
  439MOL0     C57830  -0.559   7.041   2.275  0.5685 -0.2242  0.7187
  439MOL0     C57831  -0.688   6.965   2.262  0.6878  0.6053 -0.8959
  439MOL0     C57832  -0.818   7.043   2.294 -0.0636 -0.7842  0.7551
  439MOL0     N57833  -0.833   7.067   2.440 -0.3810  0.5472  0.0907
  439MOL0     C57834  -0.929   7.158   2.484 -0.2197 -1.0578 -0.1101
  439MOL0     C57835  -0.964   7.122   2.611  0.4028  0.1007 -0.1666
  439MOL0     C57836  -1.054   7.201   2.695  1.2623  0.2575  1.2099
  439MOL0     C57837  -0.982   7.326   2.746  0.7493 -0.4815 -0.2683
  439MOL0     C57838  -1.066   7.387   2.866  0.0507  0.0730  1.3561
  439MOL0     C57839  -1.102   7.536   2.843 -0.1602 -0.2976  0.3434
  439MOL0     O57840  -1.196   7.570   2.944 -0.5353  0.0518 -0.6549
  439MOL0     C57841  -1.319   7.592   2.897  0.1207 -0.0757 -0.0176
  439MOL0     C57842  -1.390   7.505   2.817  1.0353  0.3364 -0.6134
  439MOL0     C57843  -1.527   7.526   2.804  0.9694  0.1472  0.2578
  439MOL0     C57844  -1.585   7.641   2.863  0.8534  0.1062  0.4940
  439MOL0     C57845  -1.731   7.676   2.848 -0.6099  0.2308  0.7423
  439MOL0     O57846  -1.794   7.777   2.917  0.2843 -0.2367 -0.2771
  439MOL0     C57847  -1.928   7.813   2.892  0.0074 -0.3461 -0.6640
  439MOL0     C57848  -2.026   7.721   2.877 -0.4914  0.2493  0.4174
  439MOL0     C57849  -2.157   7.756   2.844 -0.0554  0.1729  0.6417
  439MOL0     C57850  -2.199   7.894   2.833  0.2955  0.6121  0.8604
  439MOL0     O57851  -2.326   7.936   2.809  0.0369  0.8033  0.2231
  439MOL0     C57852  -2.423   7.833   2.829  0.8113 -1.2775  0.7154
  439MOL0     C57853  -2.566   7.891   2.813 -0.4657 -0.8202 -0.0300
  439MOL0     C57854  -2.678   7.789   2.822  0.9769 -0.0444  0.0370
  439MOL0     C57855  -2.814   7.857   2.822  0.0923  0.3144 -0.2922
  439MOL0     C57856  -2.923   7.756   2.863 -0.1695  0.7175 -0.5775
  439MOL0     C57857  -3.053   7.838   2.852 -0.7009  0.7447 -0.7060
  439MOL0     C57858  -3.183   7.751   2.842  0.7258 -0.4124  0.1865
  439MOL0     C57859  -3.301   7.839   2.824  0.1557  0.1750 -0.6080
  439MOL0    Cl57860  -3.322   7.917   2.978 -0.1827  0.0443  0.3129
  439MOL0     C57861  -2.099   7.985   2.862 -0.5687  0.3356  0.5048
  439MOL0     C57862  -1.969   7.942   2.888 -0.5199  0.7829  0.5988
  439MOL0     O57863  -1.787   7.612   2.759 -0.0509  0.0126 -0.8997
  439MOL0     C57864  -1.500   7.729   2.934  0.6265 -0.5408 -0.0172
  439MOL0     C57865  -1.371   7.701   2.957 -0.1966 -0.2219 -0.0811
  439MOL0     N57866  -0.884   7.010   2.645  0.2465 -0.0426 -0.3111
  439MOL0     N57867  -0.822   6.971   2.540  0.4698 -0.2974 -0.9326
  439MOL0     C57868   0.096   6.901   2.329 -0.2019  1.1032  0.6410
  439MOL0     C57869   0.159   6.852   2.220  0.9352  0.0239 -0.4207
  439MOL0     C57870   0.395   6.722   1.902  0.2579  0.8022 -0.3206
  439MOL0     C57871   0.495   6.805   1.851  0.9539 -0.0514 -0.5177
  439MOL0     C57872   0.545   6.799   1.722  0.6364 -0.6393 -0.4168
  439MOL0     C57873   0.487   6.711   1.635 -0.0848 -0.4199  0.3547
  439MOL0     O57874   0.528   6.701   1.506 -0.0014  0.1558  0.7451
  439MOL0     C57875   0.481   6.805   1.421 -0.0586 -0.5634 -0.3062
  439MOL0     C57876   0.336   6.778   1.382  0.4260 -0.5936  0.1381
  439MOL0     C57877   0.286   6.854   1.255 -0.7147 -0.7960  0.3662
  439MOL0     C57878   0.135   6.874   1.246 -0.2714 -0.1822  0.0220
  439MOL0     C57879   0.104   6.937   1.118 -0.0184  0.3980 -0.7889
  439MOL0     C57880   0.085   6.986   1.013 -0.1420 -0.4551  0.0236
  439MOL0     C57881   0.396   6.614   1.684 -0.6354 -0.2841  0.8048
  439MOL0     C57882   0.354   6.615   1.813  0.0715 -0.0459 -1.0949
  439MOL0     H57883   0.471   6.953   2.287  0.4382 -2.2947 -1.1791
  439MOL0     H57884   0.347   7.054   2.488  0.2926  0.7570  0.3807
  439MOL0     H57885  -0.058   7.000   2.659 -4.0333 -4.0317 -0.1725
  439MOL0     H57886  -0.057   6.904   2.511 -1.7147 -0.1527  1.8888
  439MOL0     H57887  -0.110   7.148   2.398 -0.0386  1.0236 -1.1711
  439MOL0     H57888  -0.148   7.179   2.566  2.5992 -0.7617  0.9540
  439MOL0     H57889  -0.329   6.975   2.522 -1.8350 -1.3110 -1.6723
  439MOL0     H57890  -0.279   6.984   2.355 -1.4760  0.3316 -0.0785
  439MOL0     H57891  -0.365   7.217   2.521  3.9352 -1.5421  0.4648
  439MOL0     H57892  -0.359   7.220   2.344  2.0362 -0.5228  0.2908
  439MOL0     H57893  -0.601   7.193   2.422 -1.2296 -0.8970 -0.8414
  439MOL0     H57894  -0.565   7.046   2.498  1.5143  1.3264  1.9697
  439MOL0     H57895  -0.483   6.974   2.236  1.0926  0.6057  0.2818
  439MOL0     H57896  -0.556   7.116   2.195 -0.2076 -2.8609 -1.9674
  439MOL0     H57897  -0.696   6.934   2.158 -1.3056 -2.1893 -0.0133
  439MOL0     H57898  -0.692   6.874   2.322  2.4849 -0.3056 -2.0597
  439MOL0     H57899  -0.910   6.998   2.255  2.2495 -4.8441 -0.6614
  439MOL0     H57900  -0.810   7.143   2.249 -0.0261 -1.2927 -0.3995
  439MOL0     H57901  -0.974   7.235   2.422 -0.6322 -3.2345 -2.7401
  439MOL0     H57902  -1.084   7.128   2.771 -1.2259  0.1147  0.1883
  439MOL0     H57903  -1.146   7.216   2.638  1.5545  1.2273  0.9756
  439MOL0     H57904  -0.965   7.397   2.665  0.2621 -2.6300 -2.3726
  439MOL0     H57905  -0.892   7.286   2.794 -0.0977 -0.6824  1.2262
  439MOL0     H57906  -1.161   7.335   2.875 -1.0958  1.5631 -1.0387
  439MOL0     H57907  -1.011   7.382   2.960 -0.2681  2.0795  1.7022
  439MOL0     H57908  -1.117   7.562   2.738  2.9912 -0.3142 -0.2100
  439MOL0     H57909  -1.005   7.583   2.859  0.4292 -2.1677  2.9640
  439MOL0     H57910  -1.340   7.411   2.794 -0.6915 -2.2783  4.7835
  439MOL0     H57911  -1.595   7.458   2.753  1.2275  0.3975 -0.4320
  439MOL0     H57912  -1.995   7.617   2.879 -0.0088  0.3596 -0.5738
  439MOL0     H57913  -2.219   7.667   2.836  0.2262  0.1195 -1.8356
  439MOL0     H57914  -2.402   7.789   2.927 -1.6769 -2.3072  0.8857
  439MOL0     H57915  -2.419   7.754   2.753  1.1152 -0.6383  0.0601
  439MOL0     H57916  -2.570   7.948   2.720  1.5983  1.9377  1.4106
  439MOL0     H57917  -2.591   7.959   2.895 -2.7543 -1.6948  0.0760
  439MOL0     H57918  -2.666   7.736   2.917  1.4422 -0.8536 -0.4577
  439MOL0     H57919  -2.670   7.720   2.738  2.6447  0.0501  0.1002
  439MOL0     H57920  -2.813   7.937   2.897  2.6347 -2.4864  3.0378
  439MOL0     H57921  -2.830   7.896   2.721  1.8840  2.5739  0.2002
  439MOL0     H57922  -2.907   7.715   2.963  1.8169  0.0513 -1.1202
  439MOL0     H57923  -2.914   7.674   2.791  2.2726  0.5873 -0.2129
  439MOL0     H57924  -3.054   7.897   2.760  0.2015 -0.2797 -1.3980
  439MOL0     H57925  -3.053   7.898   2.944  0.3702  0.9029 -0.8036
  439MOL0     H57926  -3.166   7.685   2.756  1.7467 -1.0334  0.8328
  439MOL0     H57927  -3.207   7.688   2.927 -0.5478 -0.1472  0.0323
  439MOL0     H57928  -3.388   7.781   2.792  1.5591 -0.9163 -2.6878
  439MOL0     H57929  -3.272   7.911   2.746  0.5199  0.0061 -0.6315
  439MOL0     H57930  -2.124   8.090   2.863 -0.8880  0.2592  1.0354
  439MOL0     H57931  -1.893   8.017   2.908  0.1529  0.2625  0.0848
  439MOL0     H57932  -1.545   7.817   2.979 -0.9791 -2.1054  1.6043
  439MOL0     H57933  -1.301   7.756   3.020 -0.8786 -2.6534  3.0172
  439MOL0     H57934  -0.010   6.886   2.316  0.3160 -2.0892 -0.9393
  439MOL0     H57935   0.108   6.793   2.145 -0.4242  2.1866 -1.2770
  439MOL0     H57936   0.536   6.884   1.912  0.3348 -0.1742  0.0758
  439MOL0     H57937   0.627   6.860   1.686  2.0143 -1.9381  0.4294
  439MOL0     H57938   0.536   6.810   1.327 -0.5999 -0.7599 -0.6417
  439MOL0     H57939   0.490   6.900   1.475 -1.7697 -1.3351  1.4651
  439MOL0     H57940   0.333   6.673   1.353  0.3441 -0.2829 -1.0199
  439MOL0     H57941   0.263   6.801   1.460 -0.2247 -1.6483 -0.1412
  439MOL0     H57942   0.313   6.795   1.167  0.4708  0.4113 -0.1107
  439MOL0     H57943   0.328   6.955   1.247 -1.3632 -0.2750  2.7719
  439MOL0     H57944   0.088   6.775   1.246 -0.2807 -0.2034 -1.2575
  439MOL0     H57945   0.093   6.930   1.330  0.6871 -0.1505  0.4993
  439MOL0     H57946   0.052   7.024   0.919  0.2094  3.4012  1.2730
  439MOL0     H57947   0.370   6.528   1.624 -0.4835 -2.0298  3.1424
  439MOL0     H57948   0.300   6.527   1.848  0.0720 -0.3952 -1.9526
  440MOL0     O57949   6.732   9.890   3.166  0.2270  0.5804 -0.3003
  440MOL0     C57950   6.717   9.978   3.246  0.2090 -0.1478 -0.2355
  440MOL0     O57951   6.597  10.036   3.291  0.2887  0.2709  0.1977
  440MOL0     C57952   6.482   9.984   3.249  0.3708 -0.1255 -0.8036
  440MOL0     C57953   6.419   9.894   3.333 -0.5006  1.0717 -0.4428
  440MOL0     C57954   6.299   9.835   3.290  0.4772  0.6940 -0.0392
  440MOL0     C57955   6.237   9.850   3.167 -0.1768 -0.3360  0.2008
  440MOL0     O57956   6.105   9.789   3.154 -0.1542 -0.4321  0.2797
  440MOL0     C57957   6.013   9.849   3.059 -0.7058  0.1326 -0.2474
  440MOL0     C57958   5.864   9.834   3.109  0.0492 -0.9896 -0.5508
  440MOL0     C57959   5.771   9.920   3.020 -0.7595  0.2539  0.2485
  440MOL0     C57960   5.629   9.874   3.038  0.9065  0.1573  0.4474
  440MOL0     C57961   5.571   9.899   3.181 -0.4993  0.2308  0.4924
  440MOL0     C57962   5.421   9.865   3.175  0.4739 -0.0500 -0.6653
  440MOL0     C57963   5.335   9.984   3.119  1.2147 -0.2148 -0.0520
  440MOL0     C57964   5.185   9.970   3.086 -0.6607 -0.9294 -0.0166
  440MOL0     N57965   5.144   9.835   3.053 -0.8207 -0.6671 -0.4626
  440MOL0     C57966   5.082   9.742   3.138 -0.6432 -0.2314  0.8738
  440MOL0     C57967   5.029   9.648   3.054 -0.0434 -0.1158  0.5203
  440MOL0     C57968   4.943   9.529   3.084  0.4530  0.3450  0.0615
  440MOL0     C57969   4.862   9.479   2.965 -0.6025  0.2879 -0.7617
  440MOL0     C57970   4.755   9.574   2.920  0.1058 -0.3335 -0.1432
  440MOL0     C57971   4.682   9.511   2.803 -0.1024 -0.3961  0.8646
  440MOL0     O57972   4.552   9.575   2.786  0.7975 -0.1403  0.8353
  440MOL0     C57973   4.442   9.511   2.735 -0.0776  0.4251  0.8227
  440MOL0     C57974   4.443   9.385   2.672  0.5652  0.1892 -0.0390
  440MOL0     C57975   4.327   9.334   2.628  0.2023  0.3103  0.8769
  440MOL0     C57976   4.203   9.404   2.628 -0.0491  0.1961  0.5464
  440MOL0     C57977   4.096   9.350   2.548  0.0363  0.2297 -0.0570
  440MOL0     O57978   3.985   9.435   2.534  0.5797 -0.4568 -0.4803
  440MOL0     C57979   3.870   9.398   2.465  0.3492 -0.2731  1.1941
  440MOL0     C57980   3.744   9.377   2.538 -0.6878 -0.0573  0.2689
  440MOL0     C57981   3.631   9.331   2.474  0.0025 -0.1325 -0.0046
  440MOL0     C57982   3.626   9.323   2.334  0.2000 -0.6576  0.7160
  440MOL0     O57983   3.515   9.275   2.271 -0.0103  0.1725 -0.7349
  440MOL0     C57984   3.532   9.207   2.146  0.2914 -0.3685  0.8313
  440MOL0     C57985   3.424   9.105   2.128  0.7466  0.6409 -0.1071
  440MOL0     C57986   3.281   9.147   2.110 -0.2974 -0.0692  0.0473
  440MOL0     C57987   3.244   9.237   1.994 -0.4639  0.3591 -0.2227
  440MOL0     C57988   3.100   9.271   1.991  1.4420 -0.7668 -0.2785
  440MOL0     C57989   2.998   9.161   1.961  0.0298 -0.3615 -0.5868
  440MOL0     C57990   3.019   9.088   1.830 -0.1343  1.1171 -0.1421
  440MOL0     C57991   2.903   8.992   1.808 -0.7013  0.7993 -0.3154
  440MOL0    Cl57992   2.864   8.898   1.954 -0.0017  0.4909 -0.3170
  440MOL0     C57993   3.731   9.363   2.254  0.2763  1.0059  0.5284
  440MOL0     C57994   3.856   9.392   2.322  0.3174 -0.1077 -0.2408
  440MOL0     O57995   4.109   9.243   2.495  1.0812  0.5379 -0.1002
  440MOL0     C57996   4.207   9.534   2.680  0.2191  0.2601 -0.4255
  440MOL0     C57997   4.325   9.594   2.729  0.2182 -0.4982  0.6521
  440MOL0     N57998   5.084   9.674   2.930 -0.5505 -0.9807  0.2433
  440MOL0     N57999   5.156   9.782   2.928  0.6441 -0.3936 -0.3561
  440MOL0     C58000   6.314   9.929   3.081  0.3115  0.4864 -0.5625
  440MOL0     C58001   6.421  10.007   3.122  1.1562 -0.0398 -0.5314
  440MOL0     C58002   6.835  10.031   3.318 -0.3144 -0.7828  1.1039
  440MOL0     C58003   6.838  10.147   3.402  0.4897 -0.6347 -0.3347
  440MOL0     C58004   6.954  10.208   3.438 -0.2519 -0.1761 -0.0026
  440MOL0     C58005   7.074  10.161   3.387 -0.0066  0.9313 -0.9252
  440MOL0     O58006   7.191  10.227   3.400 -0.1109 -0.4095  0.4697
  440MOL0     C58007   7.322  10.180   3.378  0.1649 -0.1097 -0.4118
  440MOL0     C58008   7.426  10.281   3.421 -0.3730 -0.4995  0.3069
  440MOL0     C58009   7.552  10.286   3.341  0.0487 -0.1995  0.0696
  440MOL0     C58010   7.667  10.324   3.435  0.2571 -0.1715  0.1729
  440MOL0     C58011   7.792  10.317   3.353 -0.2098 -0.2583  0.4892
  440MOL0     C58012   7.889  10.326   3.283  0.1615  0.0292  0.4739
  440MOL0     C58013   7.077  10.043   3.312  0.1590 -0.7047  0.1501
  440MOL0     C58014   6.961   9.975   3.286  0.5859 -0.5731  0.4208
  440MOL0     H58015   6.456   9.870   3.432 -1.3877 -2.5790 -0.8515
  440MOL0     H58016   6.261   9.770   3.368  3.5871  0.6863  1.6535
  440MOL0     H58017   6.027   9.794   2.965 -1.8453 -2.1200  0.8301
  440MOL0     H58018   6.038   9.955   3.056 -0.1217  0.1281  2.4896
  440MOL0     H58019   5.840   9.870   3.209 -0.9228  0.1555 -1.1748
  440MOL0     H58020   5.841   9.728   3.099  0.9897 -1.1382 -1.3710
  440MOL0     H58021   5.804   9.910   2.916 -1.6131 -3.0302  0.1986
  440MOL0     H58022   5.781  10.021   3.061 -2.7474 -0.4663  2.7175
  440MOL0     H58023   5.582   9.943   2.966  2.9079  1.3645  0.2285
  440MOL0     H58024   5.609   9.772   3.004  0.3218  0.1462  0.8196
  440MOL0     H58025   5.589  10.001   3.214 -0.9107 -0.0943  1.7862
  440MOL0     H58026   5.621   9.829   3.248  0.9105  0.4742 -0.2678
  440MOL0     H58027   5.392   9.841   3.278  2.7376  1.4032  0.4076
  440MOL0     H58028   5.397   9.775   3.118 -0.2744 -1.2051  1.3653
  440MOL0     H58029   5.343  10.060   3.198  2.8697 -0.5210  0.1115
  440MOL0     H58030   5.385  10.011   3.025 -1.1575  0.0773 -1.3132
  440MOL0     H58031   5.166  10.031   2.997  1.7310 -2.5262 -1.7373
  440MOL0     H58032   5.124  10.003   3.171 -0.4283  1.0092 -0.5393
  440MOL0     H58033   5.067   9.760   3.244 -1.1622 -0.0340  0.7684
  440MOL0     H58034   4.877   9.544   3.170 -0.6637 -0.1112 -0.6954
  440MOL0     H58035   5.000   9.440   3.112 -1.5953 -1.7686 -1.9678
  440MOL0     H58036   4.806   9.388   2.987 -1.0151  0.6039 -0.4775
  440MOL0     H58037   4.937   9.456   2.888  0.6043 -1.4121  0.8495
  440MOL0     H58038   4.686   9.608   2.998 -1.7051  0.8369 -2.1344
  440MOL0     H58039   4.798   9.667   2.883 -0.7834  1.0048  2.0257
  440MOL0     H58040   4.669   9.403   2.819  0.5074 -0.2371  2.7484
  440MOL0     H58041   4.749   9.521   2.717 -1.4193 -2.4905 -0.4968
  440MOL0     H58042   4.530   9.321   2.673  0.4044 -0.0853  2.2498
  440MOL0     H58043   4.329   9.233   2.587 -1.1416  1.0905 -1.2264
  440MOL0     H58044   3.741   9.377   2.646 -2.9415 -0.9512  0.2708
  440MOL0     H58045   3.547   9.301   2.536  0.1406  1.3521  0.9583
  440MOL0     H58046   3.629   9.157   2.141  2.3876  3.3733 -2.3288
  440MOL0     H58047   3.530   9.273   2.058 -0.4609  0.0482  1.1488
  440MOL0     H58048   3.422   9.051   2.223 -0.5739  1.8667  0.6139
  440MOL0     H58049   3.452   9.036   2.048  1.3726  0.7759 -0.0103
  440MOL0     H58050   3.263   9.199   2.204 -0.1478  0.6809 -0.3257
  440MOL0     H58051   3.216   9.059   2.107  0.8392 -0.9796  1.3110
  440MOL0     H58052   3.304   9.328   2.005  1.0630 -0.6423  0.0627
  440MOL0     H58053   3.268   9.196   1.896 -2.7433  0.3717 -0.8437
  440MOL0     H58054   3.094   9.353   1.920 -4.2119 -0.5375  0.0155
  440MOL0     H58055   3.073   9.321   2.085 -1.8305  0.6088 -1.7922
  440MOL0     H58056   2.904   9.216   1.961  1.5166  2.3606 -0.6316
  440MOL0     H58057   3.001   9.098   2.050  2.1755  1.6812  0.8945
  440MOL0     H58058   3.034   9.146   1.739  0.2860  2.2968  0.6495
  440MOL0     H58059   3.105   9.022   1.837 -1.4134 -0.7738 -1.3958
  440MOL0     H58060   2.913   8.927   1.721  0.3551 -0.0656  0.4171
  440MOL0     H58061   2.812   9.049   1.789 -0.5410  2.4274  3.0519
  440MOL0     H58062   3.736   9.354   2.146 -3.5432 -0.5948  0.3034
  440MOL0     H58063   3.941   9.402   2.255  0.5343 -1.1668 -0.1482
  440MOL0     H58064   4.110   9.582   2.689  1.2876  2.5531 -0.5939
  440MOL0     H58065   4.320   9.692   2.774 -3.7874  0.3633 -1.2264
  440MOL0     H58066   6.281   9.950   2.980 -0.5572  0.0674 -0.3741
  440MOL0     H58067   6.471  10.062   3.043 -0.7370  2.8647  0.1227
  440MOL0     H58068   6.739  10.183   3.431 -0.0218 -1.4181 -1.0436
  440MOL0     H58069   6.944  10.293   3.505  1.3252  1.1403 -1.3394
  440MOL0     H58070   7.333  10.167   3.270 -0.6572 -0.0739 -0.5091
  440MOL0     H58071   7.324  10.077   3.415  0.3299 -1.1664 -3.1527
  440MOL0     H58072   7.388  10.383   3.413  1.9097  0.4222  0.3342
  440MOL0     H58073   7.446  10.264   3.528  1.9551 -0.4845 -0.0711
  440MOL0     H58074   7.547  10.366   3.266 -1.9605 -0.0253  0.3495
  440MOL0     H58075   7.574  10.196   3.284 -0.4803  0.6350 -1.5126
  440MOL0     H58076   7.649  10.425   3.474 -2.6290 -0.9515  1.0811
  440MOL0     H58077   7.663  10.243   3.508 -4.0754 -0.8092 -0.5084
  440MOL0     H58078   7.967  10.326   3.209 -0.8499 -1.5252 -0.6514
  440MOL0     H58079   7.174  10.018   3.269  0.6181 -0.9434  1.2796
  440MOL0     H58080   6.956   9.887   3.223 -1.7704  0.7550 -1.4726
  441MOL0     O58081   9.667   8.270   4.941 -0.5103 -0.5890  0.1145
  441MOL0     C58082   9.583   8.361   4.931  0.0739 -1.0834  0.3355
  441MOL0     O58083   9.610   8.494   4.930 -0.1114 -0.2756  0.3586
  441MOL0     C58084   9.731   8.554   4.896  0.6387 -0.8214 -0.4065
  441MOL0     C58085   9.746   8.690   4.919  0.1318 -0.4682 -0.8241
  441MOL0     C58086   9.863   8.756   4.872  0.1640 -0.0841  0.5434
  441MOL0     C58087   9.968   8.695   4.798  1.3899  0.6587 -0.2085
  441MOL0     O58088  10.079   8.759   4.744  0.1085 -1.0333 -0.0554
  441MOL0     C58089  10.076   8.906   4.742  0.4290  0.4441 -0.0598
  441MOL0     C58090  10.214   8.952   4.670  0.3582 -0.2473 -0.3089
  441MOL0     C58091  10.336   8.909   4.761 -0.0867 -0.0812 -0.0224
  441MOL0     C58092  10.464   8.907   4.671 -0.4554 -0.0218  0.0286
  441MOL0     C58093  10.492   9.036   4.596 -0.3427  0.0422  0.7087
  441MOL0     C58094  10.629   9.043   4.523  0.2520  1.0051  0.8217
  441MOL0     C58095  10.626   9.126   4.396 -0.0605  0.1906  0.1268
  441MOL0     C58096  10.762   9.125   4.319  0.0533 -0.2276  0.1810
  441MOL0     N58097  10.728   9.140   4.171  0.1319 -0.1550 -0.5011
  441MOL0     C58098  10.700   9.254   4.097  1.0505  0.1529  1.2062
  441MOL0     C58099  10.680   9.205   3.972  0.0655 -0.1992  0.7056
  441MOL0     C58100  10.633   9.284   3.858  0.2496  0.0823 -0.8186
  441MOL0     C58101  10.719   9.268   3.729 -0.1612  0.1807  0.9568
  441MOL0     C58102  10.662   9.340   3.610 -0.6667 -0.3905  0.7792
  441MOL0     C58103  10.759   9.359   3.494  0.4536  0.4619 -0.3804
  441MOL0     O58104  10.680   9.392   3.386 -0.3875 -0.4026 -0.2139
  441MOL0     C58105  10.739   9.398   3.262  0.4747  0.5333 -0.0742
  441MOL0     C58106  10.670   9.451   3.161  0.1318 -0.6622 -0.0040
  441MOL0     C58107  10.722   9.487   3.039 -0.6262 -0.4071  0.1995
  441MOL0     C58108  10.858   9.457   3.014  0.0505  0.8826  0.7574
  441MOL0     C58109  10.930   9.476   2.888  0.6351  1.2160 -0.0030
  441MOL0     O58110  11.070   9.469   2.896  0.1892 -0.2249  0.1071
  441MOL0     C58111  11.144   9.506   2.786 -0.8621 -0.3689  0.0300
  441MOL0     C58112  11.103   9.502   2.651  1.4549  0.1226  0.4201
  441MOL0     C58113  11.172   9.562   2.550 -0.6652 -0.1131  0.7800
  441MOL0     C58114  11.294   9.626   2.570  1.5411 -0.3323 -0.0663
  441MOL0     O58115  11.375   9.674   2.476 -0.3454 -0.2511  0.1851
  441MOL0     C58116  11.435   9.573   2.394  0.5915  0.2559  0.5756
  441MOL0     C58117  11.417   9.618   2.256  0.4334 -0.1468  0.2357
  441MOL0     C58118  11.514   9.726   2.215  0.2912 -0.0907  0.0194
  441MOL0     C58119  11.471   9.783   2.069  0.0675 -1.7071 -0.0065
  441MOL0     C58120  11.562   9.887   2.015  0.4227  0.0385  0.1296
  441MOL0     C58121  11.558   9.889   1.860 -0.3428 -0.0318  0.4285
  441MOL0     C58122  11.413   9.896   1.810  0.6319 -0.7374 -0.3869
  441MOL0     C58123  11.436   9.944   1.657  0.3407 -0.0293  0.4233
  441MOL0    Cl58124  11.270   9.939   1.576 -0.1859 -0.3674 -0.0845
  441MOL0     C58125  11.346   9.616   2.703  0.3107 -0.2944  0.1189
  441MOL0     C58126  11.276   9.555   2.807  0.2512 -0.3062  0.6691
  441MOL0     O58127  10.864   9.519   2.795  0.1002  0.0332  0.2500
  441MOL0     C58128  10.924   9.381   3.110 -0.5179 -0.3024  0.8441
  441MOL0     C58129  10.868   9.359   3.236 -0.1671 -0.2957  0.5727
  441MOL0     N58130  10.691   9.068   3.973  0.6748  0.5681  0.8508
  441MOL0     N58131  10.729   9.017   4.093 -0.1379 -1.0329 -0.0791
  441MOL0     C58132   9.948   8.556   4.784  0.3007 -0.5027  0.1113
  441MOL0     C58133   9.838   8.490   4.834 -0.8854  0.7445  0.2013
  441MOL0     C58134   9.440   8.324   4.955  0.4641  0.1535 -0.7096
  441MOL0     C58135   9.392   8.198   4.936  0.1451  0.2888  0.5960
  441MOL0     C58136   9.257   8.169   4.954  0.1488 -0.0433 -0.4261
  441MOL0     C58137   9.167   8.269   5.002 -0.1222  0.7260  0.5590
  441MOL0     O58138   9.035   8.263   5.018 -0.2432  0.1006  0.3847
  441MOL0     C58139   8.962   8.139   5.014 -0.0450  0.3406  0.1438
  441MOL0     C58140   8.808   8.169   5.047 -0.1599  0.1852  0.0158
  441MOL0     C58141   8.775   8.315   5.076 -0.5017 -0.1639  0.0244
  441MOL0     C58142   8.633   8.334   5.112 -0.1798  0.2494 -0.1933
  441MOL0     C58143   8.603   8.472   5.114  0.6808 -0.5552 -0.0326
  441MOL0     C58144   8.572   8.585   5.094  0.1387 -0.1872 -0.0249
  441MOL0     C58145   9.220   8.392   5.037  0.8006 -0.8349 -0.2051
  441MOL0     C58146   9.355   8.428   5.004  0.1035 -0.1485  0.7180
  441MOL0     H58147   9.679   8.750   4.979 -0.4625 -0.4124 -1.5308
  441MOL0     H58148   9.875   8.861   4.897 -1.0009  0.1779  0.1126
  441MOL0     H58149  10.063   8.945   4.844  0.3176  0.8377 -0.2224
  441MOL0     H58150   9.992   8.936   4.679 -1.7263 -1.9510  1.4731
  441MOL0     H58151  10.220   9.056   4.639 -2.0862  0.3071  0.8028
  441MOL0     H58152  10.229   8.894   4.579  3.2709  1.8232 -1.3007
  441MOL0     H58153  10.321   8.808   4.800  1.4356  1.1861  4.5336
  441MOL0     H58154  10.338   8.978   4.847 -4.5759 -0.9368  1.0191
  441MOL0     H58155  10.540   8.892   4.748 -0.0350 -2.8040 -0.8076
  441MOL0     H58156  10.472   8.819   4.607 -2.1713 -1.9908  2.3223
  441MOL0     H58157  10.480   9.123   4.661  1.2924  0.4089  0.5647
  441MOL0     H58158  10.418   9.041   4.515  1.3410 -0.7553 -0.9575
  441MOL0     H58159  10.629   8.940   4.486 -1.7792  1.1757  0.2874
  441MOL0     H58160  10.711   9.069   4.591 -0.7617  1.5449  1.8721
  441MOL0     H58161  10.546   9.083   4.335 -0.5730 -3.6303  3.1640
  441MOL0     H58162  10.599   9.231   4.412  1.5539  0.5474  0.7058
  441MOL0     H58163  10.805   9.028   4.345  1.0229  1.0134  3.7710
  441MOL0     H58164  10.821   9.206   4.360 -0.0851 -0.5676  1.0804
  441MOL0     H58165  10.700   9.358   4.127  0.5213  0.4294  0.3025
  441MOL0     H58166  10.634   9.388   3.890  0.3262 -0.0200 -0.4874
  441MOL0     H58167  10.531   9.244   3.851  0.6940 -2.8964  4.4143
  441MOL0     H58168  10.722   9.160   3.709 -0.7792  0.5653 -1.6189
  441MOL0     H58169  10.824   9.297   3.741 -0.5374  1.2419  1.8527
  441MOL0     H58170  10.570   9.295   3.571  0.6085 -1.8797 -0.6202
  441MOL0     H58171  10.657   9.448   3.627  1.0227 -0.0145 -0.8736
  441MOL0     H58172  10.813   9.267   3.472  0.5062 -0.8473  4.1405
  441MOL0     H58173  10.835   9.433   3.522  0.0759  0.6662  0.1257
  441MOL0     H58174  10.570   9.489   3.178 -0.2831 -1.3477 -0.8819
  441MOL0     H58175  10.663   9.537   2.963  0.4838  1.9456  0.7756
  441MOL0     H58176  11.006   9.461   2.624  1.0150 -0.9169  3.2560
  441MOL0     H58177  11.138   9.551   2.447 -2.7374 -0.3892  1.4543
  441MOL0     H58178  11.380   9.479   2.409 -0.6698  0.6275 -1.3027
  441MOL0     H58179  11.540   9.563   2.422  1.0179  1.2324 -0.5986
  441MOL0     H58180  11.312   9.645   2.239  0.6050 -1.3145 -3.3482
  441MOL0     H58181  11.422   9.533   2.188  0.2325  0.4635 -0.5621
  441MOL0     H58182  11.616   9.686   2.209  0.4520  0.4465 -1.1726
  441MOL0     H58183  11.509   9.801   2.294  2.3379  0.3581 -0.2146
  441MOL0     H58184  11.461   9.703   1.995  1.4146 -0.5247 -1.5355
  441MOL0     H58185  11.376   9.835   2.087  1.3156  0.6933  0.1072
  441MOL0     H58186  11.665   9.868   2.046  0.3442 -0.8557 -0.1458
  441MOL0     H58187  11.529   9.986   2.049 -1.8292  0.9662 -4.0667
  441MOL0     H58188  11.597   9.799   1.811  1.4143 -0.3924  2.3338
  441MOL0     H58189  11.609   9.982   1.835 -1.1021  0.7483  1.6979
  441MOL0     H58190  11.367   9.798   1.809  0.1334 -0.5031 -0.9001
  441MOL0     H58191  11.346   9.968   1.857  0.9707 -1.8247  1.8809
  441MOL0     H58192  11.500   9.874   1.603  0.7651  2.2939 -2.3828
  441MOL0     H58193  11.479  10.045   1.653 -2.0547  1.1188  1.3324
  441MOL0     H58194  11.443   9.662   2.718 -1.1795  2.5577  1.8445
  441MOL0     H58195  11.314   9.545   2.908  0.5566 -0.7651  0.5106
  441MOL0     H58196  11.019   9.334   3.089 -1.1908 -0.8466 -1.1483
  441MOL0     H58197  10.933   9.308   3.306  2.7432  0.3637 -1.4549
  441MOL0     H58198  10.027   8.510   4.724 -0.3742 -1.8349  0.2034
  441MOL0     H58199   9.825   8.386   4.805  0.3420  1.2747 -2.6030
  441MOL0     H58200   9.470   8.128   4.906 -0.4095 -0.9430  1.8827
  441MOL0     H58201   9.233   8.068   4.923 -1.2686 -0.0122  0.4705
  441MOL0     H58202   9.009   8.072   5.087  5.5554 -2.7670 -5.2931
  441MOL0     H58203   8.977   8.084   4.921 -3.8170 -2.5458  1.0028
  441MOL0     H58204   8.751   8.145   4.956 -1.5284 -1.1829  1.1872
  441MOL0     H58205   8.780   8.097   5.124  0.1779 -0.1354 -0.1522
  441MOL0     H58206   8.791   8.363   4.979 -0.7869  2.3988  1.1576
  441MOL0     H58207   8.824   8.367   5.158  0.8295 -1.8104  0.3136
  441MOL0     H58208   8.571   8.283   5.037 -1.5936  2.4643 -0.6688
  441MOL0     H58209   8.612   8.294   5.211  1.9571  3.8069  1.8932
  441MOL0     H58210   8.551   8.684   5.060 -1.7293 -0.9809 -1.3828
  441MOL0     H58211   9.149   8.468   5.068  0.0018 -0.5934 -2.3788
  441MOL0     H58212   9.394   8.525   5.033 -1.9391  1.8604 -2.4598
  442MOL0     O58213   1.394   2.952   9.750 -0.2911 -0.9869 -0.1345
  442MOL0     C58214   1.360   2.835   9.754  0.5588 -0.7048 -0.3665
  442MOL0     O58215   1.413   2.730   9.687  0.5781 -0.3441  0.5555
  442MOL0     C58216   1.518   2.739   9.609 -0.5888 -1.0162  0.4261
  442MOL0     C58217   1.644   2.747   9.674 -0.2240  0.9502 -0.4450
  442MOL0     C58218   1.757   2.731   9.597 -0.5109 -0.0930 -0.6421
  442MOL0     C58219   1.744   2.700   9.463 -0.2470  0.2238 -0.4553
  442MOL0     O58220   1.862   2.687   9.402 -0.2150  0.1189  0.0660
  442MOL0     C58221   1.878   2.626   9.273  0.6617 -0.2535 -0.8221
  442MOL0     C58222   2.027   2.652   9.229  0.1776  0.0966 -0.2969
  442MOL0     C58223   2.128   2.592   9.328  0.2942 -0.2097  0.3193
  442MOL0     C58224   2.254   2.546   9.258 -1.0230 -0.1532 -0.0165
  442MOL0     C58225   2.347   2.666   9.242 -0.1280  0.4242  0.4013
  442MOL0     C58226   2.491   2.613   9.202  0.1677  0.8278 -0.1618
  442MOL0     C58227   2.602   2.720   9.201  0.3857  1.0681  0.0852
  442MOL0     C58228   2.691   2.697   9.071  0.0243 -0.3438  0.1442
  442MOL0     N58229   2.620   2.727   8.949  0.2302 -0.5681 -0.7541
  442MOL0     C58230   2.566   2.846   8.912  0.4072  0.6028 -0.3670
  442MOL0     C58231   2.489   2.826   8.810 -0.8484 -0.4951  0.6713
  442MOL0     C58232   2.424   2.924   8.711 -0.2663  0.2835  0.1121
  442MOL0     C58233   2.307   3.013   8.761  0.4498  0.0788 -0.5684
  442MOL0     C58234   2.188   2.916   8.784  0.3132 -0.5792  0.0631
  442MOL0     C58235   2.079   2.981   8.859  0.4194 -0.0545 -0.2315
  442MOL0     O58236   1.953   2.914   8.830  0.4198  0.4511 -0.0726
  442MOL0     C58237   1.845   2.940   8.923 -0.2724 -0.4187  0.2125
  442MOL0     C58238   1.836   3.056   9.009  0.0126  0.1944  0.4336
  442MOL0     C58239   1.730   3.066   9.096  0.4372  0.2912  0.0332
  442MOL0     C58240   1.633   2.967   9.106 -0.3465  0.3456 -1.4597
  442MOL0     C58241   1.510   2.983   9.180  1.7649 -0.3478  1.1531
  442MOL0     O58242   1.477   3.113   9.223 -0.8096 -0.0907 -0.5072
  442MOL0     C58243   1.354   3.124   9.285 -0.6450 -0.0984 -0.2125
  442MOL0     C58244   1.284   3.237   9.265 -0.6834 -0.7737  0.1459
  442MOL0     C58245   1.168   3.267   9.335  0.0019 -0.3589 -0.1770
  442MOL0     C58246   1.122   3.184   9.435 -0.3240 -0.7476  0.4863
  442MOL0     O58247   1.024   3.226   9.516  0.6160 -0.9856  0.1400
  442MOL0     C58248   1.006   3.174   9.648  0.1280 -0.7378 -0.2538
  442MOL0     C58249   0.887   3.244   9.712  0.5870 -0.4636  0.0292
  442MOL0     C58250   0.751   3.200   9.662  0.8103  0.0345  1.4801
  442MOL0     C58251   0.625   3.260   9.731  0.6919  0.5793  0.5120
  442MOL0     C58252   0.636   3.301   9.876 -0.5012  0.3516 -0.0480
  442MOL0     C58253   0.503   3.332   9.936  0.1284 -0.5878 -0.1471
  442MOL0     C58254   0.524   3.410  10.066 -0.3238  0.3542  0.4879
  442MOL0     C58255   0.398   3.408  10.156  0.3643  0.3241 -0.5502
  442MOL0    Cl58256   0.447   3.477  10.316  0.2136  0.0933  0.3892
  442MOL0     C58257   1.199   3.069   9.453  0.7300  0.3236 -0.1011
  442MOL0     C58258   1.300   3.026   9.370 -0.4754  0.4535 -0.2752
  442MOL0     O58259   1.429   2.889   9.167 -0.1009  0.6487  0.0407
  442MOL0     C58260   1.648   2.852   9.024 -0.2309  0.2981 -0.1188
  442MOL0     C58261   1.752   2.841   8.942 -0.6846  0.3403 -0.6007
  442MOL0     N58262   2.506   2.691   8.780  1.2939  0.6800  0.3730
  442MOL0     N58263   2.579   2.628   8.868  0.3601 -0.2184  0.0835
  442MOL0     C58264   1.615   2.692   9.400  0.3839  0.1176  0.0400
  442MOL0     C58265   1.506   2.706   9.476  0.2962  0.6236 -0.1640
  442MOL0     C58266   1.246   2.812   9.845  0.1604  1.4749 -0.6549
  442MOL0     C58267   1.228   2.685   9.912  0.5292  0.1235  0.0780
  442MOL0     C58268   1.131   2.665  10.014 -0.2772 -0.6191 -0.0209
  442MOL0     C58269   1.052   2.772  10.054  0.0933  0.7268 -0.2775
  442MOL0     O58270   0.955   2.763  10.159 -0.5364  0.0744  0.5265
  442MOL0     C58271   0.925   2.635  10.215 -0.0117 -0.1351 -0.5958
  442MOL0     C58272   0.832   2.658  10.337  0.0234 -0.4860 -0.5637
  442MOL0     C58273   0.683   2.671  10.299  0.2501  0.2241 -0.0908
  442MOL0     C58274   0.621   2.529  10.276  0.6078 -0.5107 -0.5016
  442MOL0     C58275   0.493   2.533  10.199 -0.5940 -0.6425 -0.0463
  442MOL0     C58276   0.394   2.535  10.127  0.1875 -0.1822  0.2837
  442MOL0     C58277   1.064   2.894   9.991 -0.3444  0.8550  0.7958
  442MOL0     C58278   1.165   2.913   9.893 -0.2398 -0.2460 -0.7487
  442MOL0     H58279   1.649   2.754   9.783  0.0083 -0.8562 -0.3004
  442MOL0     H58280   1.851   2.752   9.647 -0.4990 -0.4107 -0.5309
  442MOL0     H58281   1.819   2.683   9.200  2.1219  2.3126 -0.1172
  442MOL0     H58282   1.848   2.521   9.272 -0.5682  0.0793 -1.5627
  442MOL0     H58283   2.048   2.758   9.214 -2.6108  0.8258  0.4673
  442MOL0     H58284   2.040   2.604   9.132 -0.6868 -1.8792  0.5127
  442MOL0     H58285   2.094   2.503   9.382 -2.2770  1.4212  1.5523
  442MOL0     H58286   2.144   2.671   9.401 -1.9913 -2.2861  3.3151
  442MOL0     H58287   2.301   2.480   9.331  0.3143  2.0476  1.2448
  442MOL0     H58288   2.228   2.491   9.167  0.7579 -1.1691  0.0389
  442MOL0     H58289   2.356   2.726   9.333  0.3941  0.9729 -0.0007
  442MOL0     H58290   2.314   2.729   9.158  0.0620  3.0251  2.1632
  442MOL0     H58291   2.489   2.570   9.101  3.4100 -0.5192  0.2545
  442MOL0     H58292   2.521   2.534   9.270  2.2553 -0.2260 -2.1556
  442MOL0     H58293   2.556   2.819   9.192 -1.2105  0.2504 -1.5450
  442MOL0     H58294   2.662   2.719   9.293 -1.9437 -2.6185  1.8186
  442MOL0     H58295   2.731   2.595   9.068  0.6930 -0.2248  2.8548
  442MOL0     H58296   2.784   2.754   9.075  0.3111 -0.8006  0.0881
  442MOL0     H58297   2.582   2.936   8.970 -0.2854 -0.4033  1.4962
  442MOL0     H58298   2.392   2.862   8.626  2.1295 -0.1478 -0.5625
  442MOL0     H58299   2.505   2.990   8.678  0.1114  0.5583  1.5354
  442MOL0     H58300   2.273   3.082   8.683  1.2226  4.0067  2.2696
  442MOL0     H58301   2.343   3.065   8.850 -0.7228 -1.3757  0.8342
  442MOL0     H58302   2.144   2.887   8.688  0.7322 -0.4638 -0.1660
  442MOL0     H58303   2.236   2.831   8.832 -0.3681 -1.4019 -0.6823
  442MOL0     H58304   2.077   3.087   8.831 -0.3477  0.1638  0.5943
  442MOL0     H58305   2.101   2.979   8.966  0.9815  1.0743 -0.3096
  442MOL0     H58306   1.907   3.138   9.000 -0.3684  0.3666 -1.2807
  442MOL0     H58307   1.719   3.155   9.158 -1.7412 -0.2572  0.5104
  442MOL0     H58308   1.331   3.303   9.193  0.7217 -0.2588  1.4933
  442MOL0     H58309   1.095   3.344   9.313 -0.0343 -0.5298 -0.6616
  442MOL0     H58310   1.094   3.190   9.711 -2.4226 -0.8952  3.6980
  442MOL0     H58311   0.989   3.066   9.645  0.3019 -0.7479 -0.9878
  442MOL0     H58312   0.903   3.351   9.695 -1.6908 -0.3535 -1.8355
  442MOL0     H58313   0.894   3.213   9.817  1.6479 -1.0687 -0.2071
  442MOL0     H58314   0.736   3.092   9.657 -2.1481  0.2696  3.0469
  442MOL0     H58315   0.749   3.248   9.564 -2.0179  3.9516  3.1738
  442MOL0     H58316   0.595   3.348   9.674 -2.8209 -1.3834 -0.9858
  442MOL0     H58317   0.551   3.180   9.725 -2.3758  3.1816  0.8737
  442MOL0     H58318   0.693   3.394   9.881  0.0520 -0.0236  0.9768
  442MOL0     H58319   0.695   3.229   9.933  0.4897 -0.6397 -2.1922
  442MOL0     H58320   0.450   3.241   9.967  0.2811 -0.4498  0.5211
  442MOL0     H58321   0.447   3.388   9.860  0.2407  1.9487  1.5357
  442MOL0     H58322   0.599   3.350  10.118 -1.3494  0.5639  2.2881
  442MOL0     H58323   0.564   3.510  10.048 -0.0056 -0.0525 -1.2420
  442MOL0     H58324   0.368   3.304  10.173  4.0036 -1.1585 -2.0393
  442MOL0     H58325   0.315   3.460  10.108 -1.0226 -1.5266 -0.2969
  442MOL0     H58326   1.166   3.011   9.539  0.3324 -0.1113 -0.5327
  442MOL0     H58327   1.344   2.929   9.389 -1.3812  0.4657  2.2028
  442MOL0     H58328   1.582   2.767   9.036  1.9767 -1.2184  2.4082
  442MOL0     H58329   1.773   2.763   8.869  0.4562 -0.0854  0.1506
  442MOL0     H58330   1.614   2.660   9.297  0.8647  2.6605 -0.8337
  442MOL0     H58331   1.408   2.680   9.437 -0.0296  0.7660  0.5514
  442MOL0     H58332   1.289   2.603   9.877 -1.7436 -0.2077 -3.5654
  442MOL0     H58333   1.116   2.571  10.066  3.4276 -0.3737  1.8200
  442MOL0     H58334   1.010   2.587  10.263  0.0477  0.5161 -0.0333
  442MOL0     H58335   0.872   2.578  10.137  1.1983 -0.6755 -1.0391
  442MOL0     H58336   0.850   2.574  10.406  0.5647 -0.4754 -0.6914
  442MOL0     H58337   0.864   2.733  10.409 -0.9302 -1.9409  1.5170
  442MOL0     H58338   0.678   2.737  10.212 -2.5016 -1.7459 -1.6256
  442MOL0     H58339   0.625   2.709  10.383 -1.8362  0.3521 -1.5028
  442MOL0     H58340   0.704   2.471  10.234  1.6590  0.3188  0.3483
  442MOL0     H58341   0.589   2.488  10.373 -1.8053  0.5726 -0.7615
  442MOL0     H58342   0.295   2.536  10.085  0.2377 -4.3796 -0.3575
  442MOL0     H58343   0.998   2.973  10.026  1.1870  1.8120  1.6259
  442MOL0     H58344   1.179   3.012   9.851  1.9770 -0.3284 -0.3514
  443MOL0     O58345   6.035   8.226   5.671  0.1839  0.6691  0.2589
  443MOL0     C58346   6.156   8.209   5.695  0.2208 -0.4094 -0.2494
  443MOL0     O58347   6.225   8.225   5.808  0.7523  0.3162  0.0544
  443MOL0     C58348   6.151   8.287   5.906 -0.3664  0.1395 -1.4331
  443MOL0     C58349   6.161   8.421   5.946 -0.3615  0.2036  0.7703
  443MOL0     C58350   6.078   8.482   6.042 -0.5403 -0.8755 -0.8834
  443MOL0     C58351   5.995   8.401   6.123 -0.0548 -0.3461 -0.4724
  443MOL0     O58352   5.916   8.457   6.220  0.4848 -0.2235 -0.1329
  443MOL0     C58353   5.864   8.368   6.322 -0.6073 -0.1809 -0.8171
  443MOL0     C58354   5.814   8.453   6.439  0.6449 -0.0368  0.0570
  443MOL0     C58355   5.785   8.356   6.550  0.2542  0.1317  0.0766
  443MOL0     C58356   5.724   8.428   6.657  0.2334 -0.2400 -0.5731
  443MOL0     C58357   5.704   8.338   6.781 -0.4277 -1.7715  0.0380
  443MOL0     C58358   5.654   8.420   6.902  0.2620 -0.6909  0.7143
  443MOL0     C58359   5.649   8.342   7.032 -0.1997  0.3425 -0.1666
  443MOL0     C58360   5.536   8.233   7.017  0.2401  1.0186  0.3898
  443MOL0     N58361   5.396   8.284   7.012  1.0154 -0.4659  0.0338
  443MOL0     C58362   5.320   8.319   6.900  0.5385 -0.3960 -0.5295
  443MOL0     C58363   5.202   8.363   6.951 -0.5930  1.0887  0.6475
  443MOL0     C58364   5.077   8.412   6.872  0.3524 -0.0391 -0.0600
  443MOL0     C58365   5.024   8.539   6.928  0.3998  0.2189 -1.1446
  443MOL0     C58366   4.882   8.562   6.879 -0.6082 -0.2752 -0.1220
  443MOL0     C58367   4.797   8.666   6.946  0.3497 -0.0282  0.8412
  443MOL0     O58368   4.660   8.654   6.891 -0.4698 -0.1303  0.6025
  443MOL0     C58369   4.561   8.738   6.928 -0.9498  0.5664  0.1012
  443MOL0     C58370   4.471   8.773   6.838 -0.1802 -0.3644  0.0510
  443MOL0     C58371   4.367   8.869   6.856  0.7128  0.2600  0.2264
  443MOL0     C58372   4.350   8.923   6.983  0.1342  0.4255 -0.6761
  443MOL0     C58373   4.246   9.019   6.992  0.3127 -0.1468 -1.0530
  443MOL0     O58374   4.178   9.061   6.878 -0.3830  0.6427 -0.2578
  443MOL0     C58375   4.053   9.124   6.884  0.4037 -0.1960 -0.0579
  443MOL0     C58376   3.957   9.097   6.978  0.5570  0.0067  0.2881
  443MOL0     C58377   3.823   9.151   6.974 -0.5268 -0.6551 -0.2143
  443MOL0     C58378   3.802   9.246   6.877  0.7426  0.4323 -0.1175
  443MOL0     O58379   3.691   9.328   6.868 -0.4736 -0.2856 -0.2404
  443MOL0     C58380   3.687   9.416   6.984  0.1130 -0.3480  0.4303
  443MOL0     C58381   3.538   9.429   7.018 -0.2526 -0.2525  0.2372
  443MOL0     C58382   3.463   9.289   7.043 -0.3829 -0.7368 -0.6411
  443MOL0     C58383   3.317   9.301   7.024  0.2707 -0.0269 -0.6776
  443MOL0     C58384   3.264   9.156   7.049 -0.3977 -0.7478 -0.5246
  443MOL0     C58385   3.115   9.121   7.013  0.6365  0.4772  0.1715
  443MOL0     C58386   3.068   9.123   6.866 -0.6920 -0.4349  1.3265
  443MOL0     C58387   3.085   8.997   6.789  0.1945  0.4378  0.6222
  443MOL0    Cl58388   2.927   8.901   6.782 -0.0631  0.1641  0.5036
  443MOL0     C58389   3.900   9.269   6.779  0.2839  0.2375  0.1937
  443MOL0     C58390   4.026   9.211   6.782  0.8182 -0.7901 -1.3535
  443MOL0     O58391   4.230   9.056   7.106  0.2209 -1.1287 -0.6838
  443MOL0     C58392   4.449   8.888   7.086  0.2569  0.1089 -0.1489
  443MOL0     C58393   4.551   8.796   7.057 -0.8615 -0.3569 -0.3539
  443MOL0     N58394   5.197   8.347   7.085 -0.4447 -0.4344 -0.4848
  443MOL0     N58395   5.314   8.304   7.121  0.2550  0.6631  0.3423
  443MOL0     C58396   5.996   8.268   6.092  0.1023  0.0662  0.5321
  443MOL0     C58397   6.066   8.210   5.990 -0.2284 -0.3986 -0.2797
  443MOL0     C58398   6.221   8.132   5.578 -0.4674  0.1317 -0.2409
  443MOL0     C58399   6.154   8.095   5.460  0.9905  0.0566  0.1454
  443MOL0     C58400   6.211   8.037   5.353 -0.1036  1.4498 -0.5976
  443MOL0     C58401   6.345   7.999   5.363 -0.5804  0.7450  0.5114
  443MOL0     O58402   6.401   7.911   5.265  0.7681 -0.2348 -0.3794
  443MOL0     C58403   6.545   7.920   5.248 -0.6274 -0.2066 -0.8597
  443MOL0     C58404   6.584   7.818   5.143 -0.0339  0.2588  0.3165
  443MOL0     C58405   6.741   7.815   5.131 -0.6682 -0.0556  0.1325
  443MOL0     C58406   6.822   7.751   5.249 -0.4501  0.0067  0.2419
  443MOL0     C58407   6.799   7.604   5.258  0.2495 -0.8078  0.7571
  443MOL0     C58408   6.788   7.486   5.295  0.2848 -0.4371 -0.2194
  443MOL0     C58409   6.412   8.027   5.488 -0.5770 -0.2645  0.1425
  443MOL0     C58410   6.358   8.096   5.585  0.4956  0.1267 -0.8867
  443MOL0     H58411   6.226   8.484   5.887 -0.7956 -0.5189 -0.5223
  443MOL0     H58412   6.090   8.589   6.059 -1.9452 -0.8760  0.3558
  443MOL0     H58413   5.946   8.309   6.366  1.1624  0.9330 -2.4555
  443MOL0     H58414   5.776   8.325   6.274 -1.6855  1.9186 -0.8078
  443MOL0     H58415   5.717   8.497   6.415 -0.9260 -2.8244  0.7375
  443MOL0     H58416   5.888   8.526   6.473  1.4297 -1.2417  1.0496
  443MOL0     H58417   5.872   8.296   6.577 -0.1566 -1.3401 -1.6628
  443MOL0     H58418   5.714   8.278   6.518  1.3102 -1.1019  0.6463
  443MOL0     H58419   5.792   8.505   6.694  1.5699 -0.3551 -2.6845
  443MOL0     H58420   5.631   8.483   6.635 -1.0070 -1.4588  1.2907
  443MOL0     H58421   5.797   8.287   6.808  0.8149 -0.0014 -0.8044
  443MOL0     H58422   5.631   8.257   6.767 -1.7714 -0.4846 -0.6780
  443MOL0     H58423   5.554   8.450   6.872 -0.1923 -3.4255 -0.8601
  443MOL0     H58424   5.709   8.514   6.911  0.5732 -0.4534 -2.4900
  443MOL0     H58425   5.748   8.303   7.054  1.8258  4.2674 -1.4170
  443MOL0     H58426   5.616   8.413   7.109 -1.7006 -0.6291  0.1372
  443MOL0     H58427   5.535   8.175   7.110 -1.7095  0.7361  0.2208
  443MOL0     H58428   5.557   8.156   6.942 -1.1069  0.9457  0.0685
  443MOL0     H58429   5.349   8.336   6.797  3.6710 -3.0916 -0.2569
  443MOL0     H58430   5.006   8.331   6.889  2.0317 -1.0884  2.6089
  443MOL0     H58431   5.096   8.412   6.764 -0.3474 -4.2084 -0.3232
  443MOL0     H58432   5.086   8.624   6.899 -1.0142  1.3955 -0.8577
  443MOL0     H58433   5.022   8.539   7.037  2.2938 -2.2949 -1.0129
  443MOL0     H58434   4.886   8.578   6.771 -0.6445 -1.0762 -0.2522
  443MOL0     H58435   4.834   8.464   6.892 -1.2516  0.2418  1.7478
  443MOL0     H58436   4.835   8.767   6.926 -2.8082  1.1299  0.0812
  443MOL0     H58437   4.803   8.653   7.054  1.0983 -0.5022  0.7480
  443MOL0     H58438   4.481   8.719   6.744 -1.2502  0.9189 -0.8527
  443MOL0     H58439   4.312   8.892   6.765  1.4858  0.2152 -0.2661
  443MOL0     H58440   3.971   9.011   7.043 -0.0722 -0.6295 -0.3961
  443MOL0     H58441   3.741   9.136   7.044 -1.0979 -0.3061 -0.8013
  443MOL0     H58442   3.738   9.510   6.961 -2.0226  0.9050  0.5334
  443MOL0     H58443   3.737   9.373   7.072 -2.5749 -1.1155  1.7052
  443MOL0     H58444   3.486   9.485   6.940 -1.6865 -1.1161  0.5464
  443MOL0     H58445   3.526   9.490   7.108  0.2817  0.7408 -0.3480
  443MOL0     H58446   3.468   9.267   7.150 -2.0637  1.2249 -0.0895
  443MOL0     H58447   3.507   9.208   6.984  3.5017  1.1930 -0.7279
  443MOL0     H58448   3.274   9.370   7.097  0.5435 -0.8951  0.3453
  443MOL0     H58449   3.304   9.345   6.925 -0.3747  3.0281  0.6597
  443MOL0     H58450   3.267   9.136   7.156 -1.6771  0.8795 -0.1556
  443MOL0     H58451   3.324   9.075   7.004 -0.8902 -1.1268 -0.5068
  443MOL0     H58452   3.044   9.185   7.065 -1.8050 -1.8927 -0.0247
  443MOL0     H58453   3.085   9.022   7.049 -1.2008  0.7042 -0.6528
  443MOL0     H58454   2.962   9.150   6.857 -0.2127  1.0061 -0.7698
  443MOL0     H58455   3.115   9.198   6.802  3.7179 -3.0340  1.0938
  443MOL0     H58456   3.151   8.937   6.853 -2.9615 -3.1342  0.9444
  443MOL0     H58457   3.132   9.021   6.694  0.2731 -0.0581  0.5339
  443MOL0     H58458   3.862   9.338   6.704 -0.6130 -1.3149 -0.8223
  443MOL0     H58459   4.100   9.231   6.705  1.2175 -1.2284 -1.0931
  443MOL0     H58460   4.444   8.944   7.178  0.1394 -0.3312  0.1180
  443MOL0     H58461   4.628   8.780   7.132 -3.6342 -1.7250  2.4712
  443MOL0     H58462   5.935   8.198   6.147  1.3566 -0.8471  0.7817
  443MOL0     H58463   6.051   8.109   5.953  2.8287 -2.5803  3.6478
  443MOL0     H58464   6.048   8.116   5.444  1.4956  1.4413 -1.7529
  443MOL0     H58465   6.142   8.021   5.271  0.6639 -0.0042 -0.9886
  443MOL0     H58466   6.583   7.885   5.345  0.6027 -0.7268 -1.5007
  443MOL0     H58467   6.568   8.023   5.219 -3.4371  0.3482 -1.3992
  443MOL0     H58468   6.545   7.721   5.174  0.8143 -0.7428 -1.5770
  443MOL0     H58469   6.535   7.838   5.047  0.1259 -0.3487  0.1027
  443MOL0     H58470   6.782   7.912   5.103  0.7027 -1.0597 -1.5642
  443MOL0     H58471   6.767   7.742   5.053 -0.6645 -1.3942  1.3400
  443MOL0     H58472   6.928   7.765   5.229  0.0243  0.3579  2.7008
  443MOL0     H58473   6.811   7.813   5.338  2.5443  3.5104 -1.5800
  443MOL0     H58474   6.789   7.383   5.326  0.2292 -0.3860 -0.0452
  443MOL0     H58475   6.516   7.994   5.496  0.5484  2.1604 -2.6322
  443MOL0     H58476   6.411   8.117   5.677  1.2307 -2.7913 -0.5715
  444MOL0     O58477  10.331   9.366   3.495 -0.2897 -0.1970 -0.3219
  444MOL0     C58478  10.269   9.416   3.406  0.4345  0.1519  0.5429
  444MOL0     O58479  10.172   9.515   3.424  0.6867 -0.0176  0.2121
  444MOL0     C58480  10.109   9.524   3.551  0.3259 -0.0657  0.0891
  444MOL0     C58481  10.061   9.652   3.585  0.4489  0.9507  0.0817
  444MOL0     C58482   9.979   9.665   3.694 -0.2915  0.4758  0.2328
  444MOL0     C58483   9.949   9.557   3.779 -0.6126  0.2792 -0.9737
  444MOL0     O58484   9.861   9.586   3.881 -0.2096  0.6370 -0.1479
  444MOL0     C58485   9.892   9.510   3.998 -0.6667 -0.0505  0.5287
  444MOL0     C58486   9.792   9.561   4.110 -0.0974  1.2937  0.2628
  444MOL0     C58487   9.646   9.539   4.059  0.5381  0.6732 -1.2767
  444MOL0     C58488   9.555   9.567   4.174  0.0626  0.5262 -0.6240
  444MOL0     C58489   9.408   9.524   4.151  0.3199  0.6533 -0.8049
  444MOL0     C58490   9.333   9.614   4.055 -1.0604 -0.5543  0.3195
  444MOL0     C58491   9.191   9.578   4.047  0.3798 -0.7313 -0.8955
  444MOL0     C58492   9.093   9.683   3.986 -0.3290 -0.3103  0.0216
  444MOL0     N58493   8.946   9.662   4.023 -0.5563  0.0542 -0.3869
  444MOL0     C58494   8.882   9.692   4.145 -0.8360 -0.0392  0.4993
  444MOL0     C58495   8.758   9.625   4.145 -0.6865 -0.3075  0.1185
  444MOL0     C58496   8.652   9.617   4.243  0.0229  0.1623  0.0045
  444MOL0     C58497   8.688   9.510   4.352 -0.5937  0.3225  0.1427
  444MOL0     C58498   8.579   9.499   4.457  0.1471 -0.0820 -0.1023
  444MOL0     C58499   8.465   9.411   4.410  0.5810 -0.5975 -0.2089
  444MOL0     O58500   8.399   9.364   4.531  0.0509  0.3997 -0.2137
  444MOL0     C58501   8.295   9.435   4.575 -0.2718 -0.7733 -0.5959
  444MOL0     C58502   8.303   9.549   4.659  0.4684  0.2832 -0.8566
  444MOL0     C58503   8.185   9.612   4.708  0.0464 -0.4810  0.1349
  444MOL0     C58504   8.064   9.554   4.682  0.2773  0.9143 -0.7078
  444MOL0     C58505   7.936   9.619   4.727  0.1956  0.2030 -0.6503
  444MOL0     O58506   7.822   9.546   4.723 -0.0370  0.1299 -0.0588
  444MOL0     C58507   7.702   9.596   4.758  0.0732 -0.3832 -0.2071
  444MOL0     C58508   7.638   9.721   4.732 -0.6017  0.5419 -0.0185
  444MOL0     C58509   7.506   9.751   4.771  0.1035 -0.2620  0.4234
  444MOL0     C58510   7.426   9.663   4.841  0.3221 -0.2685  0.1730
  444MOL0     O58511   7.298   9.688   4.885 -0.3145  0.0040  0.7336
  444MOL0     C58512   7.262   9.825   4.891  0.2737  0.8810  0.5218
  444MOL0     C58513   7.117   9.827   4.952  0.3618 -0.4480 -0.1963
  444MOL0     C58514   7.052   9.964   4.968  0.3189  0.5953 -0.2471
  444MOL0     C58515   7.061  10.025   5.107  0.3558 -0.5376  0.1034
  444MOL0     C58516   7.028  10.174   5.106  0.0765  0.9527  0.5149
  444MOL0     C58517   6.912  10.219   5.031  1.3889  1.2190 -0.0943
  444MOL0     C58518   6.785  10.168   5.103 -0.5836 -0.1499 -0.7379
  444MOL0     C58519   6.674  10.280   5.120  0.5900 -0.9409  0.0251
  444MOL0    Cl58520   6.641  10.366   4.954 -0.1916  0.2971 -0.1207
  444MOL0     C58521   7.479   9.539   4.862 -0.1017  0.0021  0.0979
  444MOL0     C58522   7.612   9.506   4.813  0.2912  0.7544 -0.3838
  444MOL0     O58523   7.954   9.736   4.768  1.3800 -0.0876 -0.1607
  444MOL0     C58524   8.066   9.433   4.602  0.1539  0.2396 -0.4552
  444MOL0     C58525   8.177   9.383   4.542 -0.3825 -1.2980  0.4295
  444MOL0     N58526   8.744   9.565   4.021  0.3615 -0.1468 -0.3309
  444MOL0     N58527   8.863   9.578   3.959  0.2718 -0.1985  0.1652
  444MOL0     C58528   9.994   9.430   3.744  0.1004  0.6691 -1.4513
  444MOL0     C58529  10.071   9.410   3.633  0.9520 -1.0216  0.1355
  444MOL0     C58530  10.272   9.351   3.273 -0.7433  0.8456  0.0847
  444MOL0     C58531  10.388   9.291   3.224 -0.2027  0.3138 -0.6233
  444MOL0     C58532  10.414   9.260   3.090  0.2590  0.7019 -0.8490
  444MOL0     C58533  10.315   9.280   2.991  0.5965  0.3020  0.9566
  444MOL0     O58534  10.335   9.261   2.854 -0.5578 -0.1327  0.1247
  444MOL0     C58535  10.236   9.318   2.764 -0.2488  0.1760  0.0771
  444MOL0     C58536  10.295   9.303   2.623  0.3342 -0.2896  0.0129
  444MOL0     C58537  10.267   9.155   2.575 -0.5167 -0.7590  0.9740
  444MOL0     C58538  10.352   9.121   2.449  1.2902  0.6584  0.4785
  444MOL0     C58539  10.269   9.134   2.326  0.5052 -0.3024 -0.4836
  444MOL0     C58540  10.207   9.141   2.225  0.5488 -0.0670 -0.2862
  444MOL0     C58541  10.199   9.344   3.042  0.0439  0.5577  0.4497
  444MOL0     C58542  10.172   9.381   3.173 -0.2036  0.0657  1.1146
  444MOL0     H58543  10.086   9.735   3.520  1.4760  0.0109 -0.7638
  444MOL0     H58544   9.943   9.765   3.712 -3.5946 -0.2843 -1.4468
  444MOL0     H58545   9.997   9.524   4.025 -1.0376 -1.3339  2.9097
  444MOL0     H58546   9.876   9.403   3.988  0.4645 -0.0484 -2.0754
  444MOL0     H58547   9.814   9.665   4.138  1.8202  0.6648  1.3381
  444MOL0     H58548   9.821   9.506   4.201  1.1884  2.5598  0.6696
  444MOL0     H58549   9.647   9.437   4.018  1.9103  1.2704 -2.8615
  444MOL0     H58550   9.629   9.596   3.967  3.3194  0.8566 -1.7589
  444MOL0     H58551   9.591   9.513   4.261  1.0035  1.1758 -0.5894
  444MOL0     H58552   9.570   9.671   4.205  2.0709 -0.5741  2.4371
  444MOL0     H58553   9.354   9.523   4.247  3.6151  0.0928  1.2179
  444MOL0     H58554   9.419   9.421   4.115  2.4993  0.8812 -0.9253
  444MOL0     H58555   9.374   9.597   3.955  0.2701  2.8152  0.1803
  444MOL0     H58556   9.336   9.722   4.072  1.7710 -0.8515  2.2342
  444MOL0     H58557   9.184   9.487   3.987 -1.7441  1.1173 -3.7606
  444MOL0     H58558   9.151   9.552   4.145 -1.6190  1.3356 -1.0774
  444MOL0     H58559   9.108   9.685   3.877 -1.1547 -1.5204 -0.1370
  444MOL0     H58560   9.132   9.779   4.022  1.0496 -0.6880 -0.4123
  444MOL0     H58561   8.941   9.744   4.219  0.5307  0.9235 -1.2042
  444MOL0     H58562   8.556   9.597   4.195  0.3617  2.3216 -1.7212
  444MOL0     H58563   8.641   9.718   4.283 -0.9485 -0.5924  1.7295
  444MOL0     H58564   8.782   9.550   4.393  0.1599  5.0134 -4.9484
  444MOL0     H58565   8.711   9.417   4.299  1.7316  1.4688 -0.9934
  444MOL0     H58566   8.615   9.462   4.553  0.2037  1.2586  0.4076
  444MOL0     H58567   8.539   9.599   4.475 -1.9162 -1.2682  2.6885
  444MOL0     H58568   8.501   9.330   4.346 -0.4563 -1.0382 -0.2595
  444MOL0     H58569   8.404   9.482   4.353  0.8127 -0.1840  0.0511
  444MOL0     H58570   8.401   9.586   4.690 -0.3521  0.1923  2.1266
  444MOL0     H58571   8.200   9.699   4.770 -1.2590  0.5776 -0.9794
  444MOL0     H58572   7.692   9.805   4.690  0.8472  2.1119  4.5070
  444MOL0     H58573   7.472   9.847   4.734 -1.5659 -1.0360 -0.1590
  444MOL0     H58574   7.247   9.858   4.788 -2.6774  0.7389  0.8284
  444MOL0     H58575   7.326   9.890   4.952  1.1913 -0.0521  0.5748
  444MOL0     H58576   7.120   9.783   5.052  1.1977 -0.2919 -0.1469
  444MOL0     H58577   7.054   9.762   4.890 -0.5508 -0.2040  0.4570
  444MOL0     H58578   6.947   9.946   4.941  1.1223 -1.3978 -2.4552
  444MOL0     H58579   7.083  10.037   4.892  0.4711 -0.1021 -0.8692
  444MOL0     H58580   6.979   9.979   5.163  0.5459 -2.3118 -0.9741
  444MOL0     H58581   7.155  10.007   5.159  0.0248  1.3926  1.4647
  444MOL0     H58582   7.114  10.219   5.056  0.6547  0.5923  1.1746
  444MOL0     H58583   7.028  10.207   5.210 -2.3338 -1.5904  1.4427
  444MOL0     H58584   6.917  10.171   4.934 -1.8704 -0.7926  0.5697
  444MOL0     H58585   6.915  10.327   5.014  1.9747  0.7704 -3.3053
  444MOL0     H58586   6.739  10.081   5.056 -2.8315 -0.2149  1.3641
  444MOL0     H58587   6.821  10.144   5.203  0.1230  0.0456 -0.9438
  444MOL0     H58588   6.705  10.353   5.195  2.7487  0.2040 -1.8280
  444MOL0     H58589   6.591  10.224   5.162  0.9960 -1.6695 -0.1284
  444MOL0     H58590   7.413   9.461   4.899 -2.2253 -0.0356 -3.3025
  444MOL0     H58591   7.661   9.411   4.829  1.9105  1.3922 -1.3903
  444MOL0     H58592   7.970   9.382   4.597 -0.3434  1.2799 -1.9552
  444MOL0     H58593   8.167   9.293   4.483 -0.1844 -2.6034  2.3064
  444MOL0     H58594   9.979   9.343   3.807  1.9879  0.7447 -0.8336
  444MOL0     H58595  10.103   9.308   3.616 -2.9211 -2.7287  2.0393
  444MOL0     H58596  10.473   9.276   3.289  0.4001  3.0305 -0.6990
  444MOL0     H58597  10.510   9.216   3.067  1.3240  2.3502  0.1784
  444MOL0     H58598  10.218   9.422   2.790  3.8925  1.6433 -1.9789
  444MOL0     H58599  10.138   9.270   2.765 -0.8293  1.2128 -1.7848
  444MOL0     H58600  10.241   9.364   2.550  0.1457  1.3512  1.4551
  444MOL0     H58601  10.401   9.330   2.625  0.2180  0.1193  1.3891
  444MOL0     H58602  10.164   9.151   2.539 -0.1526 -0.8031 -0.1170
  444MOL0     H58603  10.288   9.088   2.658  0.6935 -0.0123  1.2971
  444MOL0     H58604  10.449   9.171   2.436  1.0201  0.7847 -1.2889
  444MOL0     H58605  10.378   9.015   2.451 -1.3234 -0.1368 -1.6203
  444MOL0     H58606  10.154   9.155   2.132  0.3164  0.0559 -0.1360
  444MOL0     H58607  10.111   9.374   2.986  0.3116  4.1827  1.6857
  444MOL0     H58608  10.069   9.410   3.191 -1.5600 -2.3004 -1.8838
  445MOL0     O58609   3.439   9.265   7.469 -0.7612 -0.3341 -0.1141
  445MOL0     C58610   3.447   9.391   7.460  0.3704  0.1707 -0.2103
  445MOL0     O58611   3.341   9.478   7.480  0.3132 -1.1473  0.3757
  445MOL0     C58612   3.217   9.431   7.507 -0.4606  0.0127 -0.1027
  445MOL0     C58613   3.155   9.427   7.636 -0.1787  0.1457  0.3262
  445MOL0     C58614   3.032   9.375   7.655 -0.5443 -0.1366  0.0316
  445MOL0     C58615   2.951   9.349   7.546  0.1576 -0.3137  0.1344
  445MOL0     O58616   2.820   9.297   7.565  0.3825 -0.1107 -0.6859
  445MOL0     C58617   2.723   9.375   7.491 -0.0475  0.7938  0.0964
  445MOL0     C58618   2.583   9.328   7.543 -0.7174 -0.5080  0.4371
  445MOL0     C58619   2.475   9.423   7.474  0.0319  0.6747  0.4579
  445MOL0     C58620   2.325   9.378   7.501  0.4725  0.3444  0.0450
  445MOL0     C58621   2.237   9.478   7.421 -0.9206  0.6776 -0.1708
  445MOL0     C58622   2.082   9.444   7.426 -0.4131 -0.0771 -0.3598
  445MOL0     C58623   1.974   9.562   7.396 -0.2685 -0.8072 -0.4682
  445MOL0     C58624   1.837   9.518   7.451  1.1639 -0.0795 -0.3481
  445MOL0     N58625   1.720   9.609   7.412 -1.1455  0.2511  0.1611
  445MOL0     C58626   1.697   9.660   7.289  0.2589  0.0714  0.0318
  445MOL0     C58627   1.591   9.750   7.299 -0.6843  0.0428 -0.3701
  445MOL0     C58628   1.530   9.855   7.204  0.1313 -0.0279 -0.4337
  445MOL0     C58629   1.603   9.983   7.248  0.6353 -0.4413  0.5490
  445MOL0     C58630   1.512  10.049   7.359 -0.6182  0.2480  1.1154
  445MOL0     C58631   1.552  10.194   7.378 -0.2523 -0.5652 -0.7333
  445MOL0     O58632   1.694  10.206   7.408 -0.4664 -0.3754  0.3179
  445MOL0     C58633   1.737  10.327   7.445  0.1011  0.5904  0.4412
  445MOL0     C58634   1.666  10.448   7.447 -0.3836  1.0594  0.6670
  445MOL0     C58635   1.716  10.566   7.479 -0.9351 -1.4541 -1.1919
  445MOL0     C58636   1.852  10.578   7.525 -0.3742  0.4069 -0.1979
  445MOL0     C58637   1.912  10.715   7.555  0.7634  0.1759  0.4128
  445MOL0     O58638   2.047  10.721   7.555 -0.0044 -0.5439  0.0356
  445MOL0     C58639   2.111  10.844   7.565 -0.5528  0.8882 -0.1005
  445MOL0     C58640   2.225  10.853   7.494  0.1825  0.2340 -0.4894
  445MOL0     C58641   2.301  10.970   7.491 -0.4435  0.2044  0.3336
  445MOL0     C58642   2.268  11.090   7.542 -0.5522 -0.7927 -0.6338
  445MOL0     O58643   2.339  11.212   7.526  0.3165 -0.3385  0.0784
  445MOL0     C58644   2.463  11.218   7.455 -0.5152 -0.4292  0.6088
  445MOL0     C58645   2.533  11.357   7.456  0.1742  0.4313 -0.0370
  445MOL0     C58646   2.668  11.360   7.379 -0.8485 -0.1210 -1.3683
  445MOL0     C58647   2.772  11.277   7.457  0.4437  0.5436 -0.0538
  445MOL0     C58648   2.908  11.315   7.400 -1.0640 -1.0622  0.5399
  445MOL0     C58649   3.030  11.260   7.482  0.7053  0.4039  0.7286
  445MOL0     C58650   3.164  11.300   7.426 -0.2773 -0.3987  0.7160
  445MOL0     C58651   3.274  11.287   7.527  0.1992  0.8312  1.0638
  445MOL0    Cl58652   3.291  11.434   7.625 -0.0191 -0.0059  0.1329
  445MOL0     C58653   2.153  11.086   7.623  0.0120 -0.3797 -0.2531
  445MOL0     C58654   2.079  10.966   7.643 -0.1955  0.8732 -0.2708
  445MOL0     O58655   1.832  10.804   7.560  0.5108 -0.2330 -0.2285
  445MOL0     C58656   1.931  10.456   7.528 -0.0660 -0.0529  0.5828
  445MOL0     C58657   1.870  10.336   7.485 -0.6567 -0.1267  0.2620
  445MOL0     N58658   1.554   9.735   7.433  0.0338 -0.2288 -0.7901
  445MOL0     N58659   1.630   9.656   7.494  0.6274  0.0603  0.8864
  445MOL0     C58660   3.001   9.376   7.414  0.7956  0.9868  0.2569
  445MOL0     C58661   3.136   9.407   7.399  0.4539 -0.0286 -0.5337
  445MOL0     C58662   3.580   9.454   7.427  0.6672 -0.4875 -0.5059
  445MOL0     C58663   3.695   9.379   7.424 -0.1990 -0.8968 -0.3044
  445MOL0     C58664   3.816   9.445   7.386  0.0635 -0.2069 -0.5301
  445MOL0     C58665   3.834   9.587   7.379  0.5635 -0.9104 -0.6814
  445MOL0     O58666   3.953   9.657   7.354 -0.2361  0.0739  0.0233
  445MOL0     C58667   4.073   9.581   7.330  0.3808 -0.4147 -0.5541
  445MOL0     C58668   4.089   9.507   7.199  0.5693  0.2755  0.3031
  445MOL0     C58669   4.095   9.613   7.092  0.2736 -1.1257  0.5148
  445MOL0     C58670   4.077   9.571   6.945 -1.1831  0.1588 -0.7236
  445MOL0     C58671   4.068   9.683   6.847  1.2909  0.5048 -0.7111
  445MOL0     C58672   4.054   9.821   6.711 -0.3766  0.0401  0.2523
  445MOL0     C58673   3.710   9.659   7.395 -0.6919 -0.3544 -0.2838
  445MOL0     C58674   3.590   9.591   7.400  0.0756  0.3530  0.3861
  445MOL0     H58675   3.209   9.457   7.726  2.8248 -3.6492  0.0302
  445MOL0     H58676   3.011   9.370   7.762  1.3834  2.1200  0.6016
  445MOL0     H58677   2.726   9.361   7.383  2.0064 -0.8619  0.3080
  445MOL0     H58678   2.739   9.479   7.521 -0.2227  0.3654  1.7840
  445MOL0     H58679   2.582   9.346   7.650  1.2441 -0.1180  0.4299
  445MOL0     H58680   2.572   9.219   7.545 -2.5307 -0.3502  1.5644
  445MOL0     H58681   2.479   9.426   7.365 -3.3390  3.5904  0.2635
  445MOL0     H58682   2.499   9.520   7.520  1.5226  0.0734  1.0451
  445MOL0     H58683   2.301   9.273   7.482  2.3683 -0.2182  0.5313
  445MOL0     H58684   2.320   9.384   7.611  2.1909  0.1891  0.1683
  445MOL0     H58685   2.272   9.469   7.318  1.0899  1.2277  0.4238
  445MOL0     H58686   2.259   9.582   7.448 -2.2471  1.5270 -2.1459
  445MOL0     H58687   2.075   9.410   7.530  1.0941 -0.0660 -0.2282
  445MOL0     H58688   2.065   9.351   7.371  0.5017 -1.2841  1.3088
  445MOL0     H58689   2.006   9.651   7.451 -1.4086  0.8221 -2.3244
  445MOL0     H58690   1.965   9.593   7.291  0.5186  0.6099 -0.1426
  445MOL0     H58691   1.839   9.527   7.560  4.1054 -0.2081 -0.3168
  445MOL0     H58692   1.804   9.421   7.413 -0.1683  0.0061  0.5053
  445MOL0     H58693   1.758   9.656   7.199  0.1067  1.5720 -0.1717
  445MOL0     H58694   1.422   9.846   7.195  0.2477 -3.2910  0.2691
  445MOL0     H58695   1.562   9.836   7.101  0.3865  0.2023 -0.4002
  445MOL0     H58696   1.621  10.037   7.154  1.0919 -2.6343 -0.6957
  445MOL0     H58697   1.700   9.960   7.292  0.2332  0.2944  1.8776
  445MOL0     H58698   1.404  10.059   7.342 -0.5172 -0.3583  0.0236
  445MOL0     H58699   1.526  10.003   7.458  0.5302  1.0902  1.3589
  445MOL0     H58700   1.490  10.230   7.461  1.3143 -0.9016  0.6244
  445MOL0     H58701   1.506  10.262   7.306 -2.1103 -0.0079  0.8576
  445MOL0     H58702   1.561  10.446   7.417  0.0488 -2.5394 -1.2532
  445MOL0     H58703   1.664  10.661   7.478  1.2788 -0.1561 -0.4809
  445MOL0     H58704   2.248  10.769   7.429 -1.5118 -0.8595  0.2747
  445MOL0     H58705   2.395  10.964   7.439 -1.6317  0.0573 -1.9148
  445MOL0     H58706   2.433  11.186   7.354 -1.4679 -0.6573  0.9600
  445MOL0     H58707   2.533  11.141   7.487 -1.7070 -2.7711 -1.9733
  445MOL0     H58708   2.549  11.377   7.562  1.8421  0.0260 -0.1893
  445MOL0     H58709   2.469  11.432   7.409  1.1142  1.1468 -0.1980
  445MOL0     H58710   2.695  11.465   7.394 -0.9341 -0.5654  3.9886
  445MOL0     H58711   2.658  11.325   7.276 -1.5342 -1.0607 -1.0002
  445MOL0     H58712   2.777  11.308   7.562 -5.2405  0.8614  0.3996
  445MOL0     H58713   2.750  11.170   7.451  0.3654  0.5874 -0.5725
  445MOL0     H58714   2.921  11.423   7.412  1.7645 -0.7926 -3.0244
  445MOL0     H58715   2.916  11.281   7.296 -0.0714  0.5779  0.0370
  445MOL0     H58716   3.032  11.153   7.462  2.6958  0.6536 -0.7404
  445MOL0     H58717   3.032  11.282   7.589 -1.0407  0.5234  0.7577
  445MOL0     H58718   3.168  11.238   7.337  2.7681  1.5173 -0.6314
  445MOL0     H58719   3.158  11.405   7.395 -1.7709 -0.4216  0.8302
  445MOL0     H58720   3.359  11.284   7.458 -0.2445 -1.8710  0.5129
  445MOL0     H58721   3.261  11.195   7.585 -1.0680 -0.4646 -1.1795
  445MOL0     H58722   2.121  11.184   7.656 -0.0574  0.1033 -1.6895
  445MOL0     H58723   1.992  10.957   7.708  2.7765  1.6799  4.2519
  445MOL0     H58724   2.036  10.436   7.543 -0.7167 -3.8955  1.0496
  445MOL0     H58725   1.924  10.243   7.469 -0.0451  0.4680 -1.3293
  445MOL0     H58726   2.947   9.355   7.322  0.0897  1.7133  0.5010
  445MOL0     H58727   3.180   9.422   7.301  3.2770 -4.4798 -0.2448
  445MOL0     H58728   3.672   9.274   7.435 -1.5691 -0.6131 -0.2862
  445MOL0     H58729   3.902   9.380   7.370  1.9632  1.3359  2.4714
  445MOL0     H58730   4.072   9.510   7.414  0.7345 -1.6372 -1.5451
  445MOL0     H58731   4.152   9.654   7.348 -0.1824 -0.1089  0.8090
  445MOL0     H58732   4.181   9.450   7.181 -1.2173 -2.2706 -1.3276
  445MOL0     H58733   4.006   9.443   7.171  0.7546  1.3257 -3.1656
  445MOL0     H58734   4.184   9.675   7.101  1.2463 -2.1866 -1.2492
  445MOL0     H58735   4.021   9.691   7.112  2.2765  0.7202  1.1089
  445MOL0     H58736   4.166   9.513   6.921  0.2914  0.6701  2.8410
  445MOL0     H58737   3.993   9.502   6.945 -0.2516 -1.0072 -0.7521
  445MOL0     H58738   4.062   9.891   6.630 -0.5380 -0.1489  0.0738
  445MOL0     H58739   3.704   9.767   7.398  0.3495 -0.2734 -0.9631
  445MOL0     H58740   3.503   9.655   7.396  2.0451  3.3260  1.9115
  446MOL0     O58741   5.512   1.364   2.000 -0.3400  0.1293  0.5568
  446MOL0     C58742   5.498   1.458   2.080  0.0062  0.3358 -0.8394
  446MOL0     O58743   5.599   1.535   2.134 -0.9352  0.0080 -0.3186
  446MOL0     C58744   5.708   1.554   2.055 -0.6499  0.2518 -0.3336
  446MOL0     C58745   5.714   1.564   1.917 -0.4561 -0.2556  0.5307
  446MOL0     C58746   5.821   1.613   1.844 -0.8108  0.2116  0.0477
  446MOL0     C58747   5.934   1.658   1.909 -1.4061  0.4577  0.0795
  446MOL0     O58748   6.020   1.732   1.828 -0.1634  0.1517 -0.0824
  446MOL0     C58749   6.164   1.750   1.860  0.6185  0.3269  0.2769
  446MOL0     C58750   6.228   1.612   1.825 -0.4431  0.2427 -0.1711
  446MOL0     C58751   6.364   1.631   1.762  0.1857 -0.7929  0.0886
  446MOL0     C58752   6.475   1.654   1.865 -0.4467  0.5669 -0.1160
  446MOL0     C58753   6.612   1.670   1.802  0.3678  0.2162 -0.0590
  446MOL0     C58754   6.711   1.769   1.865  0.9210  0.0264  0.0114
  446MOL0     C58755   6.712   1.744   2.015 -0.5942 -0.8981  0.1683
  446MOL0     C58756   6.816   1.815   2.092 -1.2376 -0.7544  0.4692
  446MOL0     N58757   6.810   1.779   2.239  0.2159 -0.0757  0.0298
  446MOL0     C58758   6.853   1.658   2.289  0.1087 -0.3977 -0.0525
  446MOL0     C58759   6.802   1.664   2.409 -0.0497  0.1462  0.0664
  446MOL0     C58760   6.806   1.563   2.523  0.4659 -0.1113 -0.1837
  446MOL0     C58761   6.683   1.476   2.537  1.1726  0.0947  0.5817
  446MOL0     C58762   6.582   1.552   2.620  0.5998  0.1704  0.5709
  446MOL0     C58763   6.439   1.513   2.575 -0.1228 -0.3730 -0.1885
  446MOL0     O58764   6.327   1.560   2.660  0.2182 -0.4201  0.7763
  446MOL0     C58765   6.266   1.456   2.727 -0.2912  0.8111 -0.2279
  446MOL0     C58766   6.222   1.338   2.667 -0.2399 -0.1064  0.6097
  446MOL0     C58767   6.165   1.238   2.750  0.3131 -0.3364  0.0020
  446MOL0     C58768   6.163   1.254   2.885  0.2327 -0.1690 -0.7583
  446MOL0     C58769   6.113   1.149   2.982  0.4137  0.0257 -0.1667
  446MOL0     O58770   6.026   1.062   2.930 -0.3029  0.1684  0.4836
  446MOL0     C58771   5.961   0.968   3.004  0.2263  0.0680  0.0306
  446MOL0     C58772   5.841   0.933   2.955 -0.1779 -0.8484  0.3203
  446MOL0     C58773   5.762   0.838   3.009 -0.1491  0.5170  0.0671
  446MOL0     C58774   5.789   0.798   3.136 -0.1658 -0.3510 -0.1847
  446MOL0     O58775   5.706   0.724   3.209  0.3105  0.6023 -0.2016
  446MOL0     C58776   5.592   0.794   3.263 -0.3626  0.4870 -0.2444
  446MOL0     C58777   5.584   0.786   3.420  0.1387 -0.5330 -0.6587
  446MOL0     C58778   5.473   0.875   3.480 -0.5230  0.0392 -0.0846
  446MOL0     C58779   5.331   0.848   3.435  0.7221 -0.2554 -0.4426
  446MOL0     C58780   5.226   0.933   3.510 -0.8001 -1.6817 -0.1155
  446MOL0     C58781   5.082   0.911   3.468  1.8658 -0.5055  0.3114
  446MOL0     C58782   5.001   1.014   3.545 -0.1214 -0.5123 -0.3446
  446MOL0     C58783   4.865   1.026   3.480 -0.1047 -0.2891  0.3558
  446MOL0    Cl58784   4.740   1.079   3.583 -0.2310  0.2914 -0.0308
  446MOL0     C58785   5.905   0.830   3.197 -0.4552  0.5789  0.1143
  446MOL0     C58786   6.000   0.912   3.123  0.1482  0.2194 -1.5722
  446MOL0     O58787   6.132   1.160   3.101 -0.0282 -0.5614  0.4242
  446MOL0     C58788   6.210   1.373   2.948  0.2665  0.5117  0.6460
  446MOL0     C58789   6.252   1.467   2.860  0.0518  0.4259 -0.0926
  446MOL0     N58790   6.727   1.780   2.435 -0.1032  0.0431  0.7160
  446MOL0     N58791   6.726   1.843   2.330 -0.8652 -0.6614  0.4993
  446MOL0     C58792   5.950   1.646   2.047  0.2539 -0.0840  0.5292
  446MOL0     C58793   5.836   1.594   2.111 -0.0987 -0.6244  0.4853
  446MOL0     C58794   5.364   1.478   2.141 -0.0264 -0.0258 -0.0243
  446MOL0     C58795   5.259   1.390   2.116  0.1313 -0.7877  0.2682
  446MOL0     C58796   5.130   1.404   2.173  1.4817  0.0261 -0.6871
  446MOL0     C58797   5.102   1.500   2.270 -0.4431 -0.1031  0.1503
  446MOL0     O58798   4.983   1.505   2.326  0.3371 -0.3981 -0.0280
  446MOL0     C58799   4.979   1.488   2.479 -0.2250 -0.1443 -0.1035
  446MOL0     C58800   4.999   1.344   2.532  0.7760 -0.5272 -0.4375
  446MOL0     C58801   4.891   1.237   2.500  0.4051 -0.3444 -0.9438
  446MOL0     C58802   4.770   1.269   2.587  0.7666 -0.6244 -0.5080
  446MOL0     C58803   4.645   1.240   2.507 -0.0502  0.2435 -0.5842
  446MOL0     C58804   4.544   1.207   2.455 -0.9427  0.2858 -0.0531
  446MOL0     C58805   5.202   1.583   2.311 -0.8085 -0.1092 -1.1060
  446MOL0     C58806   5.335   1.568   2.254  0.0267 -0.4922 -0.3603
  446MOL0     H58807   5.625   1.541   1.858  0.2039  4.3202 -2.8106
  446MOL0     H58808   5.817   1.615   1.736  1.4089 -1.3161 -0.1328
  446MOL0     H58809   6.181   1.778   1.964 -0.5511 -3.3776  1.6352
  446MOL0     H58810   6.209   1.812   1.782 -2.4965 -0.2137 -2.1402
  446MOL0     H58811   6.154   1.563   1.761  1.0581 -0.6432 -1.2750
  446MOL0     H58812   6.246   1.548   1.912 -1.8336 -3.5948 -2.4379
  446MOL0     H58813   6.355   1.713   1.690 -3.0564 -1.7086 -0.7073
  446MOL0     H58814   6.398   1.545   1.703 -0.6406 -0.6753 -0.5855
  446MOL0     H58815   6.451   1.745   1.921  0.1880 -0.1981  1.4645
  446MOL0     H58816   6.485   1.566   1.930 -0.6329  0.5532 -0.1055
  446MOL0     H58817   6.597   1.704   1.699 -1.5683  0.1293  0.1640
  446MOL0     H58818   6.664   1.574   1.800  2.3823  1.1812  1.5305
  446MOL0     H58819   6.679   1.873   1.851 -3.0189 -0.6285  2.5826
  446MOL0     H58820   6.810   1.762   1.819  0.1773  0.9189 -1.8467
  446MOL0     H58821   6.618   1.774   2.061 -0.6870 -1.3383  0.2727
  446MOL0     H58822   6.715   1.638   2.041  0.5065 -0.7253  0.8359
  446MOL0     H58823   6.782   1.919   2.081  1.3920  0.1947  0.6878
  446MOL0     H58824   6.921   1.802   2.065 -0.9143 -0.9639  1.7773
  446MOL0     H58825   6.904   1.571   2.249  3.1754  0.6069  1.4232
  446MOL0     H58826   6.816   1.613   2.620 -1.5284  1.5379 -0.7679
  446MOL0     H58827   6.895   1.499   2.510  1.3343  0.6741  1.5172
  446MOL0     H58828   6.697   1.385   2.596 -0.8365 -1.1738 -0.7927
  446MOL0     H58829   6.632   1.447   2.445 -0.0636  2.8405  0.3033
  446MOL0     H58830   6.590   1.524   2.726 -0.9176 -0.8242  0.4640
  446MOL0     H58831   6.580   1.662   2.618 -0.1628  0.1760  1.0076
  446MOL0     H58832   6.435   1.405   2.565 -1.4654 -0.4350  0.7688
  446MOL0     H58833   6.422   1.552   2.473 -3.1000 -2.6868 -0.7138
  446MOL0     H58834   6.218   1.316   2.560  0.2379 -0.1552  0.5999
  446MOL0     H58835   6.123   1.153   2.697 -0.8944  1.9225 -2.9693
  446MOL0     H58836   5.827   0.977   2.857  0.9557 -3.7310 -1.2610
  446MOL0     H58837   5.681   0.783   2.963  1.0700 -1.7061  0.4475
  446MOL0     H58838   5.503   0.764   3.207  1.7470 -2.9128 -2.0632
  446MOL0     H58839   5.599   0.901   3.242 -3.1726  1.0069  0.9955
  446MOL0     H58840   5.686   0.809   3.452  1.2529  0.4389 -4.4358
  446MOL0     H58841   5.558   0.686   3.457 -1.6534  0.8054  2.0148
  446MOL0     H58842   5.506   0.973   3.445  0.3156  0.8100  2.6187
  446MOL0     H58843   5.475   0.881   3.589 -0.1876  0.4507 -0.1090
  446MOL0     H58844   5.328   0.863   3.326 -0.1164  1.1502 -0.2463
  446MOL0     H58845   5.297   0.750   3.470 -0.7669  0.4741  0.2284
  446MOL0     H58846   5.235   1.041   3.495 -0.6940 -1.8531 -1.3505
  446MOL0     H58847   5.244   0.916   3.617  0.0017 -1.9791 -0.2881
  446MOL0     H58848   5.043   0.809   3.482 -0.5676  0.4500  0.9424
  446MOL0     H58849   5.063   0.932   3.362  1.6684  0.5140  0.5448
  446MOL0     H58850   4.981   0.975   3.645 -3.7965  1.8588  0.0266
  446MOL0     H58851   5.048   1.112   3.556 -0.4009 -0.1405 -2.1909
  446MOL0     H58852   4.831   0.931   3.439 -1.8172  0.4864 -0.1396
  446MOL0     H58853   4.866   1.095   3.395  1.1353  1.4282  1.6750
  446MOL0     H58854   5.939   0.789   3.292 -0.2366  0.2194 -0.1174
  446MOL0     H58855   6.088   0.950   3.174 -2.2343  2.5104  1.1982
  446MOL0     H58856   6.223   1.373   3.056 -1.8666 -4.4451  1.1689
  446MOL0     H58857   6.300   1.552   2.906 -2.1684  0.5638  2.2102
  446MOL0     H58858   6.032   1.679   2.111 -0.1545 -0.9145  1.5153
  446MOL0     H58859   5.844   1.589   2.219  1.8105 -2.2369  0.3231
  446MOL0     H58860   5.271   1.320   2.033 -0.2344  0.9633 -1.3396
  446MOL0     H58861   5.043   1.349   2.137  0.2725  2.2026 -1.2411
  446MOL0     H58862   4.878   1.518   2.507 -0.0632  1.0027 -0.6843
  446MOL0     H58863   5.046   1.556   2.532  1.6782  0.2711 -2.7931
  446MOL0     H58864   5.092   1.302   2.493 -0.6133 -1.7482 -2.6808
  446MOL0     H58865   5.011   1.355   2.640  0.6403 -0.8438 -0.3883
  446MOL0     H58866   4.928   1.135   2.511 -0.8986 -0.5976  1.7624
  446MOL0     H58867   4.871   1.249   2.393  2.6833  3.9027 -1.1040
  446MOL0     H58868   4.784   1.225   2.686 -0.6219  0.2747  0.1356
  446MOL0     H58869   4.751   1.377   2.591 -0.1749 -0.7538 -1.1704
  446MOL0     H58870   4.456   1.183   2.398 -0.2344 -1.9210 -0.2707
  446MOL0     H58871   5.202   1.659   2.388  4.8244 -0.2817 -0.5067
  446MOL0     H58872   5.415   1.636   2.282  1.0707 -1.5354 -0.7376
  447MOL0     O58873   7.895   9.966   3.857  0.5640 -0.3864  1.0358
  447MOL0     C58874   7.943   9.853   3.843  0.0737  0.2296 -0.2876
  447MOL0     O58875   7.879   9.727   3.865 -0.1863  0.7950 -0.3371
  447MOL0     C58876   7.748   9.749   3.901  0.4990  0.1170  0.5782
  447MOL0     C58877   7.652   9.816   3.814 -0.9918  0.0608  1.0221
  447MOL0     C58878   7.522   9.839   3.861  0.0763 -0.0728 -0.3671
  447MOL0     C58879   7.480   9.775   3.985 -0.6694 -0.3708  0.0248
  447MOL0     O58880   7.343   9.773   4.004 -0.4308 -0.1657  0.2187
  447MOL0     C58881   7.289   9.850   4.112  0.3985 -0.1077 -0.2697
  447MOL0     C58882   7.274   9.762   4.234  0.2756  0.0266 -0.5218
  447MOL0     C58883   7.145   9.799   4.317 -0.0446  0.5320  0.0743
  447MOL0     C58884   7.123   9.707   4.440 -1.0868  0.0623  0.4252
  447MOL0     C58885   7.019   9.753   4.539  0.0513 -0.5237 -0.3102
  447MOL0     C58886   6.885   9.797   4.477 -0.3010  0.3309  0.3693
  447MOL0     C58887   6.793   9.860   4.579 -0.5937 -0.2036  0.1107
  447MOL0     C58888   6.762   9.764   4.687  0.3336  0.4794  0.4263
  447MOL0     N58889   6.635   9.793   4.752 -0.4228 -0.1218 -0.2094
  447MOL0     C58890   6.614   9.912   4.824  0.2095 -1.1598  0.0357
  447MOL0     C58891   6.484   9.908   4.852  0.4149 -0.0257 -0.2338
  447MOL0     C58892   6.407  10.010   4.940  0.5422  0.2979 -0.6465
  447MOL0     C58893   6.355   9.934   5.062  0.1770 -0.2911  1.0925
  447MOL0     C58894   6.272  10.027   5.156 -0.0819 -0.5219 -0.2149
  447MOL0     C58895   6.258   9.951   5.296 -0.1327  0.4113 -0.7409
  447MOL0     O58896   6.145   9.995   5.381  0.3760 -0.2964  0.6276
  447MOL0     C58897   6.021   9.987   5.331  0.4150  0.2026 -0.7996
  447MOL0     C58898   5.936  10.106   5.344 -0.0345  0.0628  0.6281
  447MOL0     C58899   5.800  10.101   5.316 -0.4430 -0.3269 -0.1520
  447MOL0     C58900   5.742   9.984   5.264  0.0549 -1.0237 -0.5686
  447MOL0     C58901   5.602   9.979   5.216  0.6153 -0.5429  1.4863
  447MOL0     O58902   5.511  10.076   5.254 -0.0617 -0.8937  0.7750
  447MOL0     C58903   5.378  10.060   5.233 -0.0448 -0.6249  0.7157
  447MOL0     C58904   5.309   9.952   5.282  0.0352  1.0909 -1.1625
  447MOL0     C58905   5.169   9.941   5.275  0.4461 -0.8517 -0.6978
  447MOL0     C58906   5.106  10.047   5.209  0.2289 -0.5653 -1.2912
  447MOL0     O58907   4.974  10.041   5.192  0.4954  1.6198  0.1024
  447MOL0     C58908   4.885  10.155   5.212  0.0898  0.1392 -0.4223
  447MOL0     C58909   4.827  10.150   5.346  1.3850  0.2476 -1.3605
  447MOL0     C58910   4.727  10.265   5.365 -0.3767  0.0598  0.4948
  447MOL0     C58911   4.638  10.279   5.495 -0.5472 -0.2381  0.2970
  447MOL0     C58912   4.582  10.409   5.512 -0.5860  0.2350  0.4359
  447MOL0     C58913   4.485  10.445   5.396  0.0994  0.5759 -1.3888
  447MOL0     C58914   4.441  10.599   5.401 -1.2001 -0.0157  0.8345
  447MOL0     C58915   4.357  10.631   5.531 -0.1275  0.1750 -0.2195
  447MOL0    Cl58916   4.211  10.540   5.549  0.0637 -0.1431  0.1043
  447MOL0     C58917   5.177  10.148   5.152  0.1015 -0.0173 -0.4438
  447MOL0     C58918   5.309  10.160   5.156 -0.2314  0.3146  0.5242
  447MOL0     O58919   5.570   9.868   5.181  0.5726 -0.4558 -0.7874
  447MOL0     C58920   5.826   9.871   5.262 -0.3353  0.0275  0.2797
  447MOL0     C58921   5.963   9.875   5.286 -0.6362 -0.3645 -0.3613
  447MOL0     N58922   6.427   9.784   4.809  0.9538 -0.7951 -0.3343
  447MOL0     N58923   6.518   9.730   4.741 -0.6273  0.3445 -0.0196
  447MOL0     C58924   7.571   9.707   4.067  0.5785 -1.0872 -0.8956
  447MOL0     C58925   7.703   9.708   4.030  0.7511 -0.2088  0.7381
  447MOL0     C58926   8.084   9.835   3.803 -0.1324  0.5792  0.3144
  447MOL0     C58927   8.158   9.942   3.749  0.0445 -0.3433  0.3764
  447MOL0     C58928   8.289   9.914   3.697  0.3317 -0.9473  0.0046
  447MOL0     C58929   8.357   9.798   3.720 -0.5562  0.9906  0.1353
  447MOL0     O58930   8.488   9.790   3.683 -0.2158  0.0698  0.4854
  447MOL0     C58931   8.573   9.695   3.746 -0.4669  0.6251 -0.3418
  447MOL0     C58932   8.702   9.725   3.673  0.1082 -0.5018 -0.4678
  447MOL0     C58933   8.737   9.874   3.700  0.1029  0.5497  0.2949
  447MOL0     C58934   8.891   9.896   3.686  0.0588  0.0558 -0.0142
  447MOL0     C58935   8.931  10.016   3.760  0.8662 -1.1352 -0.4224
  447MOL0     C58936   8.979  10.101   3.832 -0.4109 -0.3827  0.8007
  447MOL0     C58937   8.280   9.693   3.775  0.3216 -0.4107  0.6374
  447MOL0     C58938   8.144   9.705   3.809  0.3000  0.1803 -0.2202
  447MOL0     H58939   7.689   9.861   3.723 -0.3480 -1.1757  0.6651
  447MOL0     H58940   7.450   9.888   3.797  0.4928  0.5416 -0.3765
  447MOL0     H58941   7.185   9.879   4.093 -0.1675 -0.9270  1.4087
  447MOL0     H58942   7.352   9.938   4.128 -0.4080  0.2473  1.0760
  447MOL0     H58943   7.354   9.776   4.308 -0.5092  0.4990  0.2483
  447MOL0     H58944   7.288   9.658   4.202 -0.4454 -0.2947  0.1680
  447MOL0     H58945   7.055   9.810   4.255 -1.2703 -1.8398  1.2800
  447MOL0     H58946   7.158   9.903   4.348 -0.8997  0.7350 -0.2239
  447MOL0     H58947   7.094   9.611   4.394 -2.1671  0.4811  0.2056
  447MOL0     H58948   7.220   9.698   4.490 -0.5438  0.3434 -0.5287
  447MOL0     H58949   7.065   9.830   4.602  0.0320  0.1507 -1.1137
  447MOL0     H58950   7.008   9.668   4.607  1.1657 -2.3649 -2.3126
  447MOL0     H58951   6.834   9.710   4.436  4.8822 -1.3481 -3.5966
  447MOL0     H58952   6.900   9.865   4.393 -0.2946  0.3305  0.3699
  447MOL0     H58953   6.832   9.956   4.615 -2.9765  1.3813 -1.2746
  447MOL0     H58954   6.704   9.890   4.524 -0.5917 -0.6760 -0.1500
  447MOL0     H58955   6.845   9.759   4.758  0.2290  2.6544  0.7673
  447MOL0     H58956   6.760   9.667   4.638  0.9522 -0.1748  1.6430
  447MOL0     H58957   6.687   9.985   4.855 -1.5694 -0.0177  1.7536
  447MOL0     H58958   6.325  10.058   4.886 -0.4178 -0.4867  0.0647
  447MOL0     H58959   6.472  10.088   4.980  0.0287 -0.7398  2.5107
  447MOL0     H58960   6.448   9.905   5.112  0.9760 -1.3249 -0.8865
  447MOL0     H58961   6.299   9.844   5.037  0.5029 -1.3759  3.9110
  447MOL0     H58962   6.334  10.114   5.179 -1.2612 -0.4975  3.6764
  447MOL0     H58963   6.176  10.046   5.109  0.3289 -2.4922 -1.9782
  447MOL0     H58964   6.348   9.984   5.349 -0.7862  2.2378 -0.6927
  447MOL0     H58965   6.252   9.842   5.287 -1.3782  0.4883 -0.9610
  447MOL0     H58966   5.975  10.192   5.399  1.5724 -0.5664  0.5445
  447MOL0     H58967   5.731  10.181   5.337  1.0579  0.8412  0.4923
  447MOL0     H58968   5.361   9.877   5.341  0.5951  2.1745 -0.2102
  447MOL0     H58969   5.111   9.865   5.326 -0.5188 -0.4249 -1.1242
  447MOL0     H58970   4.800  10.144   5.143  0.1677 -3.7945 -0.1258
  447MOL0     H58971   4.941  10.249   5.210  1.1636 -0.3087  3.0626
  447MOL0     H58972   4.912  10.161   5.413  0.0931  2.2257  0.0438
  447MOL0     H58973   4.777  10.061   5.386  1.5174  0.4301 -0.7925
  447MOL0     H58974   4.658  10.256   5.281 -1.4034  0.0815  1.3090
  447MOL0     H58975   4.772  10.364   5.359  0.0577 -0.1725 -0.1772
  447MOL0     H58976   4.560  10.204   5.477 -1.4182  0.2346  1.9654
  447MOL0     H58977   4.696  10.258   5.585 -3.3683 -3.0534  1.6514
  447MOL0     H58978   4.673  10.469   5.521 -0.0937 -0.5209  0.6435
  447MOL0     H58979   4.528  10.421   5.607  0.7581  2.0947  1.0275
  447MOL0     H58980   4.395  10.382   5.394 -1.7556  3.0635 -2.8289
  447MOL0     H58981   4.531  10.416   5.301  0.2021 -3.0359 -0.3917
  447MOL0     H58982   4.533  10.658   5.406 -1.6791  0.9051 -0.6641
  447MOL0     H58983   4.387  10.625   5.310 -1.9986  2.1903  1.8777
  447MOL0     H58984   4.327  10.736   5.521 -3.5993 -0.7882 -1.7118
  447MOL0     H58985   4.422  10.617   5.618  0.3163 -1.1650 -0.7538
  447MOL0     H58986   5.122  10.229   5.105  1.4903  0.7858 -0.7362
  447MOL0     H58987   5.356  10.253   5.127 -1.2654  0.5940 -0.3152
  447MOL0     H58988   5.775   9.777   5.245  0.1110 -0.1077 -0.3730
  447MOL0     H58989   6.023   9.785   5.282  0.4542  0.3790 -1.1634
  447MOL0     H58990   7.531   9.658   4.155 -0.4883 -3.8537 -2.7799
  447MOL0     H58991   7.763   9.641   4.091  1.7500  0.4977  0.5644
  447MOL0     H58992   8.119  10.043   3.754  0.0035 -0.4208  1.8912
  447MOL0     H58993   8.348   9.988   3.645  2.6508 -4.1245 -2.2988
  447MOL0     H58994   8.534   9.595   3.728 -2.0486  1.3630 -1.1692
  447MOL0     H58995   8.575   9.711   3.854 -2.4979  1.8877 -0.4298
  447MOL0     H58996   8.775   9.654   3.714 -1.2011 -2.2761 -1.0545
  447MOL0     H58997   8.699   9.716   3.564  4.9383 -1.4004 -0.7228
  447MOL0     H58998   8.701   9.901   3.800 -1.5849  2.2119 -0.7004
  447MOL0     H58999   8.689   9.937   3.625  2.2520  2.8182  0.6926
  447MOL0     H59000   8.938   9.806   3.727 -0.6957 -0.7525 -0.8824
  447MOL0     H59001   8.927   9.913   3.584 -0.8832 -0.7773 -0.5017
  447MOL0     H59002   9.030  10.175   3.890  0.7643  0.8071 -1.6228
  447MOL0     H59003   8.328   9.595   3.772 -0.4492 -0.7995 -2.5405
  447MOL0     H59004   8.088   9.618   3.843  1.1786 -0.6793 -0.9065
  448MOL0     O59005   3.706  10.068   7.260 -0.0742  0.0025 -0.1320
  448MOL0     C59006   3.651  10.155   7.187  0.2501 -0.4349 -0.4263
  448MOL0     O59007   3.513  10.178   7.178  0.2798  0.0620  0.1978
  448MOL0     C59008   3.430  10.119   7.273  0.5381 -0.8281 -0.2577
  448MOL0     C59009   3.320  10.196   7.319 -0.4216 -0.1252 -0.3721
  448MOL0     C59010   3.229  10.140   7.411  1.2537  0.5108 -0.3069
  448MOL0     C59011   3.232  10.004   7.450  0.0894 -0.1723  0.5343
  448MOL0     O59012   3.131   9.937   7.513  0.5532 -0.1543 -0.4087
  448MOL0     C59013   3.167   9.940   7.658  0.6727  0.7030  0.4658
  448MOL0     C59014   3.064   9.888   7.751 -0.5829 -0.2611  0.2927
  448MOL0     C59015   2.925   9.950   7.738  0.3227  0.6234  0.6924
  448MOL0     C59016   2.839   9.907   7.853 -0.8947 -0.3311  0.8939
  448MOL0     C59017   2.701   9.971   7.855  0.7568 -0.1863 -0.0631
  448MOL0     C59018   2.615   9.950   7.724  0.0930 -0.3457  0.5165
  448MOL0     C59019   2.471   9.989   7.752 -0.1375  0.3632 -0.5163
  448MOL0     C59020   2.394   9.994   7.623  0.7359  0.0321 -0.5564
  448MOL0     N59021   2.435  10.116   7.551  0.2234 -0.2375 -0.5110
  448MOL0     C59022   2.402  10.241   7.597 -0.3769 -0.1861 -0.4626
  448MOL0     C59023   2.476  10.320   7.513  1.0251  0.8939  0.1060
  448MOL0     C59024   2.467  10.473   7.513 -0.4003 -0.6677  0.6298
  448MOL0     C59025   2.564  10.532   7.620 -0.1567 -0.1401 -0.1903
  448MOL0     C59026   2.531  10.679   7.655 -0.8154  0.2065  0.2875
  448MOL0     C59027   2.605  10.787   7.576 -0.4001  0.4308  0.4146
  448MOL0     O59028   2.614  10.766   7.435 -0.1155  0.6367  0.4543
  448MOL0     C59029   2.666  10.863   7.359 -0.8382  0.8017 -0.5858
  448MOL0     C59030   2.589  10.931   7.268 -0.2561  1.0018  0.1609
  448MOL0     C59031   2.654  11.012   7.182 -0.2190 -0.9250 -0.6391
  448MOL0     C59032   2.794  11.029   7.182 -0.6625 -0.6582 -0.8477
  448MOL0     C59033   2.865  11.136   7.095  0.2612 -0.0019  0.4048
  448MOL0     O59034   2.779  11.223   7.050 -0.4587 -0.5844 -0.3289
  448MOL0     C59035   2.817  11.342   6.982  0.7895 -0.6644 -0.4772
  448MOL0     C59036   2.849  11.460   7.046 -0.1874  0.3821  0.2424
  448MOL0     C59037   2.907  11.563   6.983  0.1334 -0.0402 -0.7770
  448MOL0     C59038   2.934  11.568   6.842 -0.7149  1.3144  0.3115
  448MOL0     O59039   2.980  11.676   6.786 -0.8694  0.8425 -0.6701
  448MOL0     C59040   2.996  11.681   6.643  0.4486  0.5026  0.4732
  448MOL0     C59041   3.093  11.801   6.618 -0.2252  0.8880 -0.3843
  448MOL0     C59042   3.023  11.931   6.628  0.0709 -0.7728  0.3076
  448MOL0     C59043   3.108  12.043   6.620  0.3005  0.2064  0.0590
  448MOL0     C59044   3.050  12.184   6.674 -0.5318 -0.5224  0.2429
  448MOL0     C59045   3.155  12.301   6.666  0.8231  0.1608  0.2594
  448MOL0     C59046   3.265  12.314   6.771 -0.7014  0.2299  1.0939
  448MOL0     C59047   3.353  12.426   6.736 -0.3828 -0.5485  0.2087
  448MOL0    Cl59048   3.268  12.579   6.792  0.1355  0.1734 -0.0267
  448MOL0     C59049   2.895  11.448   6.775  0.0107  0.7688 -0.2872
  448MOL0     C59050   2.829  11.340   6.838 -1.0846  0.7701 -0.1174
  448MOL0     O59051   2.987  11.151   7.102  0.2171  0.4410 -0.3676
  448MOL0     C59052   2.870  10.963   7.274  0.6548  0.1419 -0.3107
  448MOL0     C59053   2.804  10.875   7.367  0.4242 -0.0156  0.8135
  448MOL0     N59054   2.542  10.238   7.422 -0.4409 -0.7810  0.4267
  448MOL0     N59055   2.519  10.113   7.440 -0.0900 -0.1913 -0.5040
  448MOL0     C59056   3.344   9.935   7.414  1.0857 -0.4701  0.3344
  448MOL0     C59057   3.438   9.987   7.323  0.5753  0.0278 -0.0124
  448MOL0     C59058   3.730  10.225   7.088  0.1806 -0.6337  0.2855
  448MOL0     C59059   3.868  10.205   7.079  0.2487 -0.1125 -0.9733
  448MOL0     C59060   3.951  10.265   6.995  0.2511 -0.7367 -0.3615
  448MOL0     C59061   3.900  10.369   6.914 -0.3353  0.4237  0.2197
  448MOL0     O59062   3.977  10.457   6.838 -0.2319 -0.1582 -0.2330
  448MOL0     C59063   4.093  10.387   6.775 -0.0486  0.1752 -0.4731
  448MOL0     C59064   4.058  10.252   6.705 -0.4203  0.2062  0.4330
  448MOL0     C59065   4.139  10.240   6.569 -1.2387 -0.2512  0.5105
  448MOL0     C59066   4.295  10.252   6.577  0.5049  0.2498  0.6680
  448MOL0     C59067   4.352  10.309   6.446 -0.0662 -0.5260 -0.5352
  448MOL0     C59068   4.397  10.362   6.343 -0.4270 -0.2400  0.1550
  448MOL0     C59069   3.767  10.401   6.920  0.9064 -1.1934  0.0283
  448MOL0     C59070   3.678  10.326   6.999 -0.3001 -0.3515  0.1046
  448MOL0     H59071   3.320  10.298   7.284  2.1616 -0.2940 -1.0944
  448MOL0     H59072   3.156  10.208   7.454  0.5631  1.9002 -3.4111
  448MOL0     H59073   3.212  10.034   7.692  0.9821  1.3742 -1.7038
  448MOL0     H59074   3.253   9.872   7.661 -0.5705 -0.9382  0.2375
  448MOL0     H59075   3.105   9.896   7.852 -4.2015 -3.3043  2.2760
  448MOL0     H59076   3.043   9.783   7.732 -0.5736 -0.3721  0.8724
  448MOL0     H59077   2.888   9.905   7.645 -2.4696 -2.4337  3.0183
  448MOL0     H59078   2.935  10.059   7.739  4.3922  0.4377 -0.6712
  448MOL0     H59079   2.849   9.798   7.859  2.1539 -0.1050  1.1604
  448MOL0     H59080   2.900   9.939   7.938  0.6121  0.5162 -0.4572
  448MOL0     H59081   2.700  10.080   7.866  2.2241 -0.2369  0.7316
  448MOL0     H59082   2.647   9.928   7.940 -0.9846 -2.2724 -2.0527
  448MOL0     H59083   2.616   9.844   7.697  3.4440 -0.4165  0.4992
  448MOL0     H59084   2.652  10.017   7.646 -2.5067  1.0276  0.3581
  448MOL0     H59085   2.423   9.918   7.821 -2.1934  1.2102 -1.0055
  448MOL0     H59086   2.469  10.090   7.794 -0.2311  1.3259 -2.7496
  448MOL0     H59087   2.288   9.980   7.646  0.2671  1.8040 -1.4970
  448MOL0     H59088   2.422   9.906   7.564 -4.1904 -1.3570 -1.2551
  448MOL0     H59089   2.340  10.269   7.682  2.8082 -0.7089  2.2399
  448MOL0     H59090   2.364  10.509   7.528 -0.9429 -0.4693 -2.8777
  448MOL0     H59091   2.494  10.517   7.417 -1.6653  0.2748  0.6778
  448MOL0     H59092   2.660  10.523   7.569 -1.5616  0.0434 -3.1038
  448MOL0     H59093   2.557  10.469   7.709  1.4124 -0.2597 -0.1234
  448MOL0     H59094   2.423  10.692   7.645 -0.7752 -0.2799 -0.9982
  448MOL0     H59095   2.555  10.700   7.760 -1.1173  1.6049  0.1078
  448MOL0     H59096   2.708  10.783   7.612  0.3926 -0.8191 -1.8465
  448MOL0     H59097   2.554  10.882   7.599  0.5508  0.1995  4.0067
  448MOL0     H59098   2.484  10.917   7.246  0.0166 -1.8007  0.3493
  448MOL0     H59099   2.593  11.070   7.114  1.0268 -1.2699 -2.0907
  448MOL0     H59100   2.849  11.464   7.155 -1.6332 -3.6259  0.5380
  448MOL0     H59101   2.938  11.654   7.034  0.3284 -0.4587 -0.1384
  448MOL0     H59102   2.907  11.713   6.587  0.3765 -2.4538 -1.3216
  448MOL0     H59103   3.035  11.588   6.602 -2.7245 -0.9938  0.5200
  448MOL0     H59104   3.140  11.794   6.520  2.6020 -1.8480  0.9742
  448MOL0     H59105   3.164  11.795   6.701  2.3853 -1.9887 -2.5795
  448MOL0     H59106   2.987  11.929   6.731 -0.0128  1.6854  0.3798
  448MOL0     H59107   2.947  11.954   6.553 -0.5445 -1.6283  0.6469
  448MOL0     H59108   3.202  12.024   6.673  2.6874  0.1593 -3.8066
  448MOL0     H59109   3.136  12.057   6.516 -1.3461 -0.6958 -0.5390
  448MOL0     H59110   3.024  12.182   6.780 -1.1742  0.5411  0.1132
  448MOL0     H59111   2.966  12.207   6.609 -0.4148  0.8749  0.5551
  448MOL0     H59112   3.100  12.396   6.669 -2.2171 -1.1246 -4.0789
  448MOL0     H59113   3.197  12.295   6.565 -3.2324 -2.5508 -1.5298
  448MOL0     H59114   3.219  12.330   6.868  0.5416 -2.0764  2.1386
  448MOL0     H59115   3.317  12.217   6.774  2.0206  1.5408 -0.1648
  448MOL0     H59116   3.375  12.451   6.632 -1.4566  0.6772  0.2389
  448MOL0     H59117   3.449  12.413   6.786 -0.1188 -1.6415 -0.5392
  448MOL0     H59118   2.912  11.434   6.669 -1.6870  1.4690 -0.6910
  448MOL0     H59119   2.817  11.261   6.764  0.4311  2.8107 -2.7332
  448MOL0     H59120   2.975  10.989   7.283  1.0401  0.4098 -3.9080
  448MOL0     H59121   2.871  10.826   7.437  2.9104  1.5319 -0.3620
  448MOL0     H59122   3.353   9.831   7.443 -2.3889 -0.4759  1.8361
  448MOL0     H59123   3.516   9.923   7.282  0.2582 -0.0507 -0.4991
  448MOL0     H59124   3.924  10.158   7.159 -0.5875  0.4954  0.0087
  448MOL0     H59125   4.058  10.254   7.006  0.1932 -1.3433 -0.3529
  448MOL0     H59126   4.164  10.359   6.853 -0.7116  5.9178  2.7191
  448MOL0     H59127   4.138  10.455   6.702  0.5346 -0.1815 -0.4488
  448MOL0     H59128   4.075  10.164   6.768  0.3224 -0.3057 -0.4498
  448MOL0     H59129   3.952  10.240   6.679  0.1998 -1.4570 -1.5831
  448MOL0     H59130   4.096  10.319   6.506  0.5683 -1.4181 -2.3603
  448MOL0     H59131   4.122  10.148   6.513  0.4196  1.1192 -2.4651
  448MOL0     H59132   4.315  10.326   6.655 -0.4160  0.0826  1.0745
  448MOL0     H59133   4.327  10.153   6.611  0.2218  0.4896  1.6656
  448MOL0     H59134   4.437  10.407   6.255 -0.2856 -1.2555 -0.3137
  448MOL0     H59135   3.727  10.481   6.860 -1.3675 -3.1196 -1.1731
  448MOL0     H59136   3.575  10.360   6.991  0.4609  1.6383 -3.0142
  449MOL0     O59137  10.704   1.969   6.084 -0.0659  0.0979 -0.7068
  449MOL0     C59138  10.611   2.004   6.155  1.0385 -0.4889 -0.0894
  449MOL0     O59139  10.617   2.031   6.287 -0.2301  0.9340  0.2726
  449MOL0     C59140  10.744   2.066   6.338  0.5818 -0.0915 -1.1448
  449MOL0     C59141  10.769   2.041   6.472  0.0382 -0.0870  0.4608
  449MOL0     C59142  10.879   2.078   6.533 -0.6853  0.2437  0.3797
  449MOL0     C59143  10.986   2.135   6.457 -0.2684 -0.2579 -0.0058
  449MOL0     O59144  11.109   2.160   6.512  0.3641 -0.1535  0.0836
  449MOL0     C59145  11.134   2.107   6.640  0.0580  0.1877 -0.1511
  449MOL0     C59146  11.271   2.159   6.667  0.3884 -0.2480 -0.0769
  449MOL0     C59147  11.384   2.123   6.571 -0.5345 -0.8306 -0.2926
  449MOL0     C59148  11.418   1.976   6.599 -0.4907 -0.5912  0.5114
  449MOL0     C59149  11.570   1.957   6.586  0.3484  0.0952  0.8459
  449MOL0     C59150  11.609   1.978   6.440 -0.2053  0.9362 -0.3885
  449MOL0     C59151  11.762   1.971   6.402  0.8465 -0.1289 -0.5275
  449MOL0     C59152  11.825   1.831   6.396  0.2758 -0.6076  0.7809
  449MOL0     N59153  11.752   1.748   6.300 -0.2116 -0.5273  0.1747
  449MOL0     C59154  11.785   1.745   6.167  0.1703  0.2769  0.7399
  449MOL0     C59155  11.730   1.627   6.121 -0.1715 -0.2758  0.3957
  449MOL0     C59156  11.751   1.582   5.976 -0.0428  0.1493  0.3840
  449MOL0     C59157  11.847   1.469   5.959 -0.1871 -0.3900 -0.9571
  449MOL0     C59158  11.988   1.493   6.032 -0.4785  0.2396  0.0030
  449MOL0     C59159  12.086   1.385   5.978 -0.7714 -0.7707 -0.4149
  449MOL0     O59160  12.191   1.365   6.078  0.3329 -0.4330 -0.0488
  449MOL0     C59161  12.304   1.317   6.019  0.2837 -0.1684 -0.5588
  449MOL0     C59162  12.420   1.391   6.050  0.8337  1.1322 -0.2616
  449MOL0     C59163  12.547   1.351   5.996 -0.0589 -0.6266  0.5198
  449MOL0     C59164  12.548   1.240   5.907 -0.2210  0.4136 -0.5703
  449MOL0     C59165  12.674   1.197   5.846  0.9224  0.9068  0.0767
  449MOL0     O59166  12.791   1.214   5.908 -0.2327  0.6400 -0.3889
  449MOL0     C59167  12.898   1.166   5.845  0.5443 -0.1072  0.2760
  449MOL0     C59168  12.997   1.252   5.783  0.4544  0.1568  0.2356
  449MOL0     C59169  13.112   1.198   5.723  0.7702  1.1365 -0.9969
  449MOL0     C59170  13.130   1.053   5.714 -0.2034 -0.1740  0.7486
  449MOL0     O59171  13.247   0.984   5.672 -0.0007  0.3307  0.6887
  449MOL0     C59172  13.324   1.041   5.565 -0.3650 -0.1072 -0.7428
  449MOL0     C59173  13.370   0.929   5.472 -0.9890  0.3756 -0.2882
  449MOL0     C59174  13.519   0.889   5.493 -0.0758  0.4161 -0.0321
  449MOL0     C59175  13.574   0.834   5.369  0.8407 -0.2775  0.1591
  449MOL0     C59176  13.716   0.792   5.400  0.3814 -0.0397 -0.7684
  449MOL0     C59177  13.784   0.712   5.284 -0.4607  0.2776 -1.5910
  449MOL0     C59178  13.923   0.662   5.323 -1.0148  0.1415 -0.1212
  449MOL0     C59179  13.989   0.588   5.208  0.0365 -0.6261 -0.3499
  449MOL0    Cl59180  14.150   0.521   5.243  0.0490  0.0313  0.0330
  449MOL0     C59181  13.029   0.974   5.769 -0.9953 -0.4127  0.4848
  449MOL0     C59182  12.914   1.025   5.827  0.3339 -0.5049 -0.8900
  449MOL0     O59183  12.656   1.148   5.734 -0.3537  0.1078  0.3886
  449MOL0     C59184  12.433   1.165   5.880 -0.5431 -0.2802 -0.8743
  449MOL0     C59185  12.310   1.201   5.947 -0.8702  1.0582  0.5078
  449MOL0     N59186  11.659   1.570   6.228 -0.0294  0.2964  0.5219
  449MOL0     N59187  11.678   1.641   6.332 -0.1557  0.0805  0.3243
  449MOL0     C59188  10.962   2.173   6.318 -0.2255  0.4846 -0.5596
  449MOL0     C59189  10.841   2.139   6.264  0.3788  0.5065 -0.3020
  449MOL0     C59190  10.477   1.995   6.093  0.5584 -1.0395 -0.1161
  449MOL0     C59191  10.381   2.087   6.137  0.4965 -0.0278 -0.0907
  449MOL0     C59192  10.248   2.083   6.080  0.2302  0.0920  0.3803
  449MOL0     C59193  10.225   1.994   5.975 -0.0518  0.0275 -0.1270
  449MOL0     O59194  10.108   1.977   5.903  0.2218  0.0382 -0.0376
  449MOL0     C59195  10.038   2.096   5.859 -0.1205 -0.0771  0.3065
  449MOL0     C59196   9.890   2.082   5.907 -0.4840 -0.1507 -0.1803
  449MOL0     C59197   9.874   2.078   6.062  0.1977  0.6000  1.4819
  449MOL0     C59198   9.803   2.190   6.125 -0.0639  0.9113  0.1923
  449MOL0     C59199   9.679   2.240   6.063 -0.0157 -0.2881 -0.2181
  449MOL0     C59200   9.575   2.269   6.005  0.0671 -0.0602 -0.4492
  449MOL0     C59201  10.324   1.917   5.934  0.1679  0.5611 -0.8288
  449MOL0     C59202  10.450   1.912   5.984  1.5881  0.6328 -0.2850
  449MOL0     H59203  10.692   1.989   6.527  1.8710 -0.7814  2.5187
  449MOL0     H59204  10.888   2.057   6.639 -1.0606  3.0145  1.0522
  449MOL0     H59205  11.133   1.998   6.636  0.4259  0.2054 -2.3868
  449MOL0     H59206  11.071   2.152   6.717 -0.2979  0.7634 -0.7679
  449MOL0     H59207  11.287   2.137   6.773 -0.9427 -0.8172  0.0186
  449MOL0     H59208  11.260   2.268   6.662 -0.1060 -0.3449 -2.8242
  449MOL0     H59209  11.466   2.189   6.600 -0.4811 -1.3411  0.7804
  449MOL0     H59210  11.356   2.139   6.467  0.6889 -2.3535 -0.9045
  449MOL0     H59211  11.393   1.949   6.702 -3.6934  2.8101  0.8607
  449MOL0     H59212  11.359   1.922   6.525 -2.7599  0.7756  1.1994
  449MOL0     H59213  11.589   1.860   6.632  0.1624  1.5519  4.2701
  449MOL0     H59214  11.620   2.034   6.645 -0.2638  3.1136 -2.2733
  449MOL0     H59215  11.575   2.078   6.409 -2.4606  0.6738  1.0407
  449MOL0     H59216  11.560   1.901   6.380  3.3597 -2.7651  0.9421
  449MOL0     H59217  11.779   2.030   6.311  1.9554  1.2145  0.4994
  449MOL0     H59218  11.819   2.027   6.477 -2.0055  0.7753  1.0875
  449MOL0     H59219  11.816   1.793   6.498  0.1201 -0.4554  0.8244
  449MOL0     H59220  11.930   1.841   6.370  0.3683  0.7562  1.5736
  449MOL0     H59221  11.853   1.813   6.117  3.7237 -1.5176  2.7174
  449MOL0     H59222  11.771   1.662   5.904  0.3045 -0.3151 -0.0462
  449MOL0     H59223  11.656   1.552   5.930  1.4710 -1.7381 -1.7636
  449MOL0     H59224  11.885   1.479   5.857  4.9132  2.0210  0.8430
  449MOL0     H59225  11.797   1.374   5.978 -3.0824  1.6594  3.6576
  449MOL0     H59226  12.023   1.591   5.998  2.0845 -0.6043 -0.0078
  449MOL0     H59227  11.982   1.500   6.141 -2.5854  1.3171 -0.1414
  449MOL0     H59228  12.134   1.420   5.886 -0.3634 -4.8882 -1.9658
  449MOL0     H59229  12.029   1.295   5.954  1.1307 -1.7100 -1.6173
  449MOL0     H59230  12.410   1.483   6.106  1.3301  0.2349  1.3620
  449MOL0     H59231  12.627   1.421   6.014 -1.6488  1.8341 -1.3458
  449MOL0     H59232  12.985   1.357   5.808 -0.2548 -0.3387  2.1443
  449MOL0     H59233  13.184   1.272   5.691  0.8778  0.6520 -1.9143
  449MOL0     H59234  13.402   1.102   5.611 -1.1705  0.2076  0.2409
  449MOL0     H59235  13.257   1.111   5.514 -0.1709 -0.1338 -1.0386
  449MOL0     H59236  13.350   0.957   5.368  1.8770 -1.7242 -1.5407
  449MOL0     H59237  13.310   0.839   5.492 -0.4799  0.2469  0.7601
  449MOL0     H59238  13.515   0.801   5.558  2.0200 -1.3282 -2.0493
  449MOL0     H59239  13.583   0.967   5.535  2.2272 -2.7283  2.9008
  449MOL0     H59240  13.522   0.742   5.343 -0.4676  0.1804  0.9889
  449MOL0     H59241  13.568   0.900   5.282  0.1178 -0.5793 -0.0323
  449MOL0     H59242  13.717   0.729   5.489  1.0483  1.7182  0.5141
  449MOL0     H59243  13.779   0.876   5.429  1.7403 -0.9220 -1.1015
  449MOL0     H59244  13.788   0.764   5.188 -0.9475  3.1292 -0.1866
  449MOL0     H59245  13.721   0.625   5.264 -0.3093  0.2727 -2.0584
  449MOL0     H59246  13.993   0.742   5.349 -1.9801  0.9417  0.0670
  449MOL0     H59247  13.921   0.604   5.416  1.2869 -1.7498 -1.1311
  449MOL0     H59248  14.003   0.657   5.124  0.4850  2.0792  1.8131
  449MOL0     H59249  13.914   0.514   5.176 -2.3309  1.4660  0.0852
  449MOL0     H59250  13.032   0.866   5.780 -0.6584 -0.6135 -1.2491
  449MOL0     H59251  12.844   0.952   5.866  2.7404 -2.2285  0.4833
  449MOL0     H59252  12.439   1.070   5.829  2.2010 -1.4880  1.4387
  449MOL0     H59253  12.221   1.142   5.928 -0.0862  0.1724 -0.6285
  449MOL0     H59254  11.050   2.213   6.269  1.6494  0.0352  2.2349
  449MOL0     H59255  10.824   2.167   6.161  0.1875 -0.5388 -0.5643
  449MOL0     H59256  10.392   2.156   6.221  0.6401 -1.4497  1.0945
  449MOL0     H59257  10.178   2.157   6.115 -0.0770 -0.2253  0.4460
  449MOL0     H59258  10.042   2.106   5.750  0.7881  0.0329  0.3378
  449MOL0     H59259  10.077   2.188   5.904  1.9789 -1.5714  1.7737
  449MOL0     H59260   9.835   2.170   5.871  1.9822  0.0348 -4.2660
  449MOL0     H59261   9.850   1.989   5.868 -1.9882  0.6142 -0.5360
  449MOL0     H59262   9.978   2.075   6.095  1.2362  1.5243 -1.3743
  449MOL0     H59263   9.821   1.986   6.088 -1.0444  1.0654  0.6586
  449MOL0     H59264   9.788   2.170   6.232 -1.5531 -1.3661 -0.3623
  449MOL0     H59265   9.856   2.284   6.106  1.0496  0.4104  0.7803
  449MOL0     H59266   9.489   2.311   5.957  0.4696  0.4754 -0.7211
  449MOL0     H59267  10.294   1.855   5.849 -2.2263  1.7907 -0.9846
  449MOL0     H59268  10.532   1.848   5.952  3.8800  2.2409  1.9908
  450MOL0     O59269   7.102  10.415   8.999  0.6554 -0.3246 -0.4642
  450MOL0     C59270   7.012  10.397   9.081  0.1159 -0.3455  0.3327
  450MOL0     O59271   7.026  10.323   9.191 -0.3823 -0.6160 -0.4788
  450MOL0     C59272   7.145  10.250   9.208  0.0582  0.7928  0.4325
  450MOL0     C59273   7.162  10.117   9.178  0.5674  0.5594 -0.1320
  450MOL0     C59274   7.281  10.047   9.186  0.6381  0.5497  0.3360
  450MOL0     C59275   7.401  10.114   9.221 -0.3665 -0.2624  0.3794
  450MOL0     O59276   7.522  10.048   9.235  0.0947  0.2517  0.2575
  450MOL0     C59277   7.548   9.908   9.192 -0.2106 -0.5879  0.0908
  450MOL0     C59278   7.582   9.821   9.312  0.6838 -0.2129  0.3248
  450MOL0     C59279   7.617   9.679   9.265 -0.4409 -0.0290 -1.0143
  450MOL0     C59280   7.770   9.659   9.287  0.4166  0.4297 -1.0555
  450MOL0     C59281   7.820   9.526   9.237  0.0617 -0.3406 -0.7695
  450MOL0     C59282   7.839   9.509   9.086  0.5277 -0.7356 -0.7137
  450MOL0     C59283   7.965   9.580   9.040 -0.1381 -0.6362 -0.9822
  450MOL0     C59284   7.978   9.564   8.888 -0.9207 -0.3717  0.5451
  450MOL0     N59285   7.852   9.616   8.825 -0.2164 -0.3944 -0.7079
  450MOL0     C59286   7.821   9.753   8.822  0.1448  0.5309  0.3405
  450MOL0     C59287   7.718   9.758   8.734  0.7076 -0.0470 -0.0697
  450MOL0     C59288   7.663   9.880   8.681  0.4835 -0.5103 -0.5038
  450MOL0     C59289   7.602   9.965   8.787  0.4137 -0.2971 -0.2999
  450MOL0     C59290   7.453   9.934   8.811 -0.1756 -0.2579  0.2642
  450MOL0     C59291   7.409   9.794   8.839  0.8151  0.8217 -0.5559
  450MOL0     O59292   7.283   9.812   8.917  0.6697  0.1875  0.1043
  450MOL0     C59293   7.212   9.701   8.936  0.3073  0.3406  0.0718
  450MOL0     C59294   7.250   9.574   8.893  0.0575  0.1731  0.2563
  450MOL0     C59295   7.158   9.469   8.914  0.7088  0.4547 -0.5279
  450MOL0     C59296   7.028   9.491   8.967  0.5662  0.2963 -0.6911
  450MOL0     C59297   6.935   9.378   8.989 -0.5085  0.1908  0.4519
  450MOL0     O59298   6.796   9.410   8.999  0.5219 -0.7478  0.0671
  450MOL0     C59299   6.698   9.320   9.022 -0.5820 -0.8098 -0.3906
  450MOL0     C59300   6.604   9.342   9.119 -0.2092  0.3777 -0.9946
  450MOL0     C59301   6.492   9.255   9.134  0.0928 -0.4574 -0.0240
  450MOL0     C59302   6.468   9.160   9.033 -0.2228 -0.7667 -0.7988
  450MOL0     O59303   6.357   9.077   9.026 -0.5138  0.5262 -0.3563
  450MOL0     C59304   6.311   9.010   9.148  0.1702 -0.1970 -1.2097
  450MOL0     C59305   6.391   8.882   9.153 -0.6975 -0.4297 -0.1638
  450MOL0     C59306   6.509   8.884   9.249  1.1861  0.0170  0.5150
  450MOL0     C59307   6.457   8.918   9.388  0.7847  0.2372  0.1491
  450MOL0     C59308   6.571   8.929   9.486 -0.1004 -0.2352 -0.8131
  450MOL0     C59309   6.511   8.953   9.631 -0.8318  0.3495  0.7923
  450MOL0     C59310   6.622   8.946   9.736 -0.2328 -0.5077  0.1254
  450MOL0     C59311   6.662   8.808   9.790 -0.5408  0.7085 -0.5023
  450MOL0    Cl59312   6.549   8.703   9.877  0.2492 -0.4738  0.4261
  450MOL0     C59313   6.556   9.147   8.931  0.5387 -0.6743 -0.3512
  450MOL0     C59314   6.673   9.218   8.926 -0.2184 -0.2501 -0.2255
  450MOL0     O59315   6.984   9.262   9.003 -0.0422 -0.0898 -0.2496
  450MOL0     C59316   6.999   9.619   9.022  1.0084 -0.2352 -0.1965
  450MOL0     C59317   7.090   9.726   8.990 -0.5646  0.2966 -0.0589
  450MOL0     N59318   7.682   9.629   8.685  0.4046 -1.2066  0.2422
  450MOL0     N59319   7.764   9.546   8.748 -0.3218 -1.2699 -0.3360
  450MOL0     C59320   7.381  10.249   9.269  0.5216 -0.1692 -0.4865
  450MOL0     C59321   7.256  10.316   9.265 -0.8571 -0.1518 -0.1376
  450MOL0     C59322   6.888  10.462   9.069 -0.1355 -0.9258  0.3651
  450MOL0     C59323   6.881  10.582   8.991  0.4921  0.7035  1.1238
  450MOL0     C59324   6.760  10.667   8.998 -0.2153  0.2851  0.3515
  450MOL0     C59325   6.652  10.633   9.082 -1.1843 -0.0724 -0.3205
  450MOL0     O59326   6.547  10.711   9.103 -0.0938  0.3066  0.5029
  450MOL0     C59327   6.439  10.705   9.004 -0.0097  0.3448  0.4713
  450MOL0     C59328   6.418  10.849   8.948 -0.3198 -0.3216  1.0969
  450MOL0     C59329   6.314  10.856   8.834  0.2116 -0.8919  0.4136
  450MOL0     C59330   6.227  10.983   8.832 -0.1694  0.8171 -0.4394
  450MOL0     C59331   6.135  10.983   8.942 -0.3585 -0.4261 -0.5279
  450MOL0     C59332   6.060  10.981   9.036 -0.5316 -0.3067 -0.2529
  450MOL0     C59333   6.664  10.519   9.158  0.0415  0.1616  0.0377
  450MOL0     C59334   6.783  10.441   9.158  0.3015 -0.4494  0.1700
  450MOL0     H59335   7.069  10.062   9.166 -1.7852  3.7654  1.9282
  450MOL0     H59336   7.280   9.940   9.170  0.4691  0.4527  0.9906
  450MOL0     H59337   7.635   9.901   9.127  0.1886  0.2581  0.5212
  450MOL0     H59338   7.463   9.863   9.140 -0.0635 -1.5175  0.6179
  450MOL0     H59339   7.488   9.806   9.366 -0.3956  2.5155 -0.6354
  450MOL0     H59340   7.652   9.870   9.379 -0.1680  1.8874 -0.2562
  450MOL0     H59341   7.598   9.664   9.158  0.2074  2.7038 -1.6093
  450MOL0     H59342   7.575   9.599   9.326  1.1329  1.1372  1.7621
  450MOL0     H59343   7.836   9.735   9.244 -0.6355  1.3766 -1.0613
  450MOL0     H59344   7.791   9.652   9.394  1.3839 -1.0712 -1.3102
  450MOL0     H59345   7.759   9.439   9.261  1.7266 -1.4780 -0.4721
  450MOL0     H59346   7.919   9.513   9.282  0.4074  1.0751 -1.0915
  450MOL0     H59347   7.745   9.529   9.034  0.8921 -0.7794 -1.4040
  450MOL0     H59348   7.851   9.404   9.059 -1.9949 -1.0056 -1.0377
  450MOL0     H59349   7.974   9.686   9.067  0.7147 -0.2856 -2.5228
  450MOL0     H59350   8.045   9.533   9.098 -0.7503  0.2508  0.6457
  450MOL0     H59351   7.996   9.458   8.865  1.0145 -0.1979  1.1403
  450MOL0     H59352   8.065   9.622   8.857 -1.5850  1.6473  2.2552
  450MOL0     H59353   7.883   9.832   8.862  1.9039 -1.9006  2.7824
  450MOL0     H59354   7.595   9.865   8.597 -0.0395  0.2587 -0.2291
  450MOL0     H59355   7.756   9.928   8.648 -0.0139  1.3785  0.6725
  450MOL0     H59356   7.608  10.068   8.751  1.4058 -1.0027 -2.3461
  450MOL0     H59357   7.649   9.950   8.884  1.1946  0.4968 -0.5434
  450MOL0     H59358   7.425   9.992   8.899  0.9122 -1.8254  1.7188
  450MOL0     H59359   7.406   9.958   8.716  0.9021 -1.6684 -0.6715
  450MOL0     H59360   7.481   9.744   8.905 -0.3548 -1.3688 -0.8536
  450MOL0     H59361   7.406   9.734   8.748  1.0093 -2.2464  1.3137
  450MOL0     H59362   7.350   9.555   8.855  0.5405  1.3936  0.8611
  450MOL0     H59363   7.174   9.364   8.892  0.9177  0.8430 -2.4042
  450MOL0     H59364   6.616   9.422   9.192 -3.3794  1.0979 -1.1308
  450MOL0     H59365   6.434   9.278   9.223 -0.1991  2.5340 -0.8659
  450MOL0     H59366   6.207   8.979   9.136  0.2336 -0.2078 -1.7651
  450MOL0     H59367   6.326   9.070   9.237  3.0446 -1.8191 -0.4613
  450MOL0     H59368   6.419   8.859   9.050 -1.0072  0.3250 -0.4165
  450MOL0     H59369   6.319   8.804   9.181 -0.7176  0.2036  1.7119
  450MOL0     H59370   6.572   8.969   9.221  0.0616  1.4759  2.1824
  450MOL0     H59371   6.557   8.786   9.253 -1.1691 -1.2185  0.3359
  450MOL0     H59372   6.405   9.013   9.405 -1.5017 -0.6838 -1.1324
  450MOL0     H59373   6.389   8.836   9.413  0.5244  0.7423  1.1397
  450MOL0     H59374   6.638   9.011   9.460 -0.9635  0.4327 -0.9675
  450MOL0     H59375   6.618   8.831   9.485 -0.5384 -0.4632 -0.2103
  450MOL0     H59376   6.444   8.867   9.645  1.3704 -1.5689  0.3277
  450MOL0     H59377   6.465   9.051   9.644  0.4806  1.6436 -3.0544
  450MOL0     H59378   6.712   8.985   9.689  0.0183 -3.4287 -2.1386
  450MOL0     H59379   6.597   9.012   9.819  4.3668 -2.4352  3.3965
  450MOL0     H59380   6.750   8.817   9.853 -1.3308 -0.3323  0.8105
  450MOL0     H59381   6.704   8.744   9.712  0.0195 -4.6397  3.6219
  450MOL0     H59382   6.517   9.072   8.863 -0.1284  1.1522 -2.0954
  450MOL0     H59383   6.753   9.216   8.852  1.4514 -0.3543  1.4972
  450MOL0     H59384   6.914   9.642   9.085  0.8462 -0.6609 -0.2549
  450MOL0     H59385   7.067   9.825   9.027 -1.8786  0.0907 -0.2785
  450MOL0     H59386   7.462  10.306   9.313 -0.3904  2.1052 -1.5847
  450MOL0     H59387   7.255  10.423   9.281 -2.4587 -0.3943  1.6389
  450MOL0     H59388   6.966  10.610   8.930 -1.3367  3.4971 -0.3825
  450MOL0     H59389   6.748  10.749   8.929 -3.2846 -0.8400 -0.6004
  450MOL0     H59390   6.341  10.667   9.037  0.8688 -2.2649  0.3338
  450MOL0     H59391   6.469  10.648   8.915 -0.5690  0.8166 -0.0247
  450MOL0     H59392   6.388  10.919   9.027 -0.5431  1.3492 -0.4055
  450MOL0     H59393   6.512  10.886   8.905 -0.5914 -2.1199 -1.2438
  450MOL0     H59394   6.244  10.772   8.843 -4.3456  2.5340  0.4272
  450MOL0     H59395   6.366  10.847   8.738  0.1664 -1.0168  0.3994
  450MOL0     H59396   6.295  11.069   8.839  0.4835  0.4577 -1.9590
  450MOL0     H59397   6.179  10.985   8.734 -2.9697  1.5208  0.8476
  450MOL0     H59398   5.988  10.981   9.115  2.1552 -1.7095  2.3941
  450MOL0     H59399   6.581  10.501   9.226 -0.8870 -0.4170 -1.2068
  450MOL0     H59400   6.795  10.354   9.222  1.6994  0.8690  1.7854
  451MOL0     O59401  11.170   0.209   3.430 -0.8126  0.5957 -0.9690
  451MOL0     C59402  11.177   0.189   3.312 -0.4354  0.6141  0.1244
  451MOL0     O59403  11.067   0.166   3.228  0.1837  0.3714  0.3378
  451MOL0     C59404  10.936   0.148   3.266  0.6126  0.3597 -0.5198
  451MOL0     C59405  10.884   0.136   3.397  0.4477  0.8455  0.6209
  451MOL0     C59406  10.741   0.106   3.411 -0.4885  0.4067  0.1502
  451MOL0     C59407  10.667   0.073   3.296 -0.1069 -0.6431 -0.0965
  451MOL0     O59408  10.537   0.032   3.301  0.2847 -0.5745 -0.2607
  451MOL0     C59409  10.467   0.057   3.420  0.4954 -0.1204 -0.5110
  451MOL0     C59410  10.324   0.008   3.396  0.1244  0.8529  0.1132
  451MOL0     C59411  10.246   0.002   3.528  1.1260  0.3731  0.1499
  451MOL0     C59412  10.130  -0.095   3.504  0.9307  0.3227  0.5766
  451MOL0     C59413  10.031  -0.101   3.625 -0.2875 -0.1134 -0.6232
  451MOL0     C59414   9.932   0.023   3.619 -0.1647  0.0368  0.4277
  451MOL0     C59415   9.840   0.045   3.731  0.1494  0.3212 -0.2948
  451MOL0     C59416   9.773  -0.093   3.770  0.8505 -0.3496 -0.6581
  451MOL0     N59417   9.668  -0.078   3.871  0.2016  0.1275  0.1391
  451MOL0     C59418   9.532  -0.071   3.836 -0.5892  0.0422 -0.6343
  451MOL0     C59419   9.476  -0.028   3.957 -0.9759 -0.3683  0.6756
  451MOL0     C59420   9.328  -0.004   3.972 -0.6337 -0.2604  0.0779
  451MOL0     C59421   9.283   0.136   4.032 -0.2207 -0.3803  0.5462
  451MOL0     C59422   9.345   0.172   4.172 -1.0486 -0.8408  0.1615
  451MOL0     C59423   9.262   0.281   4.249  0.2120 -0.5693 -0.2516
  451MOL0     O59424   9.111   0.269   4.246  0.0263  0.0505 -0.8373
  451MOL0     C59425   9.049   0.160   4.302 -0.3740 -0.3698 -0.8078
  451MOL0     C59426   8.917   0.139   4.258 -0.2281 -0.7968  1.1480
  451MOL0     C59427   8.839   0.051   4.317  0.6799 -0.8421  0.7566
  451MOL0     C59428   8.865  -0.001   4.448 -0.5497 -0.1713  0.7442
  451MOL0     C59429   8.758  -0.059   4.536 -0.2414  0.7363  0.4774
  451MOL0     O59430   8.641  -0.091   4.472  0.6806 -0.7059  0.4926
  451MOL0     C59431   8.529  -0.148   4.535  0.3633  0.0946 -0.4492
  451MOL0     C59432   8.526  -0.228   4.653 -0.7968  0.3120 -0.9276
  451MOL0     C59433   8.410  -0.292   4.693 -0.2497 -0.3608 -0.1253
  451MOL0     C59434   8.294  -0.272   4.619 -0.6748  0.0999 -0.4232
  451MOL0     O59435   8.174  -0.330   4.655  0.8430  0.0899 -0.3342
  451MOL0     C59436   8.167  -0.432   4.763 -0.3590 -0.0549 -1.1715
  451MOL0     C59437   8.214  -0.569   4.710  0.0737  0.1225  0.0024
  451MOL0     C59438   8.111  -0.669   4.687  1.1818  0.5154 -0.4647
  451MOL0     C59439   7.995  -0.653   4.596 -0.3099 -0.3444 -0.0682
  451MOL0     C59440   7.898  -0.768   4.601 -0.3650  0.1511 -0.6635
  451MOL0     C59441   7.756  -0.739   4.558 -0.1817 -1.0688 -0.3473
  451MOL0     C59442   7.666  -0.654   4.651 -0.1829 -0.0452 -0.5488
  451MOL0     C59443   7.575  -0.746   4.742 -0.3720 -1.5211 -0.1385
  451MOL0    Cl59444   7.470  -0.649   4.842  0.0781 -0.1005  0.3876
  451MOL0     C59445   8.294  -0.193   4.501 -0.4653 -0.3196 -0.4949
  451MOL0     C59446   8.410  -0.132   4.466 -0.5656  0.0729 -0.0435
  451MOL0     O59447   8.787  -0.085   4.654 -0.5423  0.0181 -0.3056
  451MOL0     C59448   9.000   0.009   4.487 -0.5126 -0.0075  0.5038
  451MOL0     C59449   9.096   0.084   4.404 -0.2086  0.3011 -0.4853
  451MOL0     N59450   9.579  -0.034   4.058  0.4310 -0.5942 -0.3425
  451MOL0     N59451   9.691  -0.075   4.006  0.6661  0.2833  0.1338
  451MOL0     C59452  10.722   0.094   3.171 -0.3430  0.1440 -0.2996
  451MOL0     C59453  10.850   0.122   3.160 -0.0707  0.4448  1.3734
  451MOL0     C59454  11.314   0.181   3.245 -0.3305 -1.0710 -0.6947
  451MOL0     C59455  11.325   0.176   3.110  0.2686  0.3568  0.5091
  451MOL0     C59456  11.450   0.133   3.050  0.3608  0.7412  0.0506
  451MOL0     C59457  11.567   0.106   3.128  0.3017  0.0766 -1.0804
  451MOL0     O59458  11.686   0.041   3.083 -0.3270 -0.7950  0.0189
  451MOL0     C59459  11.723   0.033   2.945  0.2637 -0.0998  0.0984
  451MOL0     C59460  11.781   0.166   2.887  0.0839 -0.1262 -0.8572
  451MOL0     C59461  11.923   0.208   2.930  0.8444  0.5538 -0.1067
  451MOL0     C59462  11.904   0.267   3.069 -1.1057  0.3621 -0.0864
  451MOL0     C59463  12.031   0.318   3.125 -0.2726  0.0684  0.0605
  451MOL0     C59464  12.136   0.367   3.158 -0.2023  0.8379  0.8446
  451MOL0     C59465  11.559   0.127   3.266  0.5747  0.2724 -1.2068
  451MOL0     C59466  11.436   0.165   3.323  0.3635 -0.6970  0.7506
  451MOL0     H59467  10.937   0.165   3.487  1.7248  0.6194 -0.0269
  451MOL0     H59468  10.702   0.108   3.512 -3.8881  0.4694 -1.0309
  451MOL0     H59469  10.473   0.165   3.436 -2.2575  0.2696 -1.5807
  451MOL0     H59470  10.509   0.011   3.510  2.5745 -0.1418 -1.4323
  451MOL0     H59471  10.333  -0.089   3.345  0.4300  0.6756  0.4952
  451MOL0     H59472  10.277   0.063   3.313  1.2759 -3.3075 -3.7297
  451MOL0     H59473  10.212   0.105   3.540  2.8040  1.7034 -4.2448
  451MOL0     H59474  10.306  -0.030   3.614 -0.5033 -0.5738  0.9697
  451MOL0     H59475  10.073  -0.063   3.417  1.2934  1.6894  0.8077
  451MOL0     H59476  10.160  -0.199   3.492 -1.3744 -0.3837  0.4464
  451MOL0     H59477  10.085  -0.112   3.720 -1.5163  0.1500  0.1287
  451MOL0     H59478   9.968  -0.190   3.611 -3.4993  1.7163  0.8940
  451MOL0     H59479   9.873   0.015   3.528 -0.8483  2.7537  0.5467
  451MOL0     H59480   9.985   0.118   3.606  2.1610 -1.2302  0.0817
  451MOL0     H59481   9.884   0.092   3.819 -0.1320  0.2064 -0.0875
  451MOL0     H59482   9.757   0.109   3.698 -0.8798 -0.9925 -0.3675
  451MOL0     H59483   9.847  -0.155   3.822 -0.4904 -0.8190  0.7701
  451MOL0     H59484   9.743  -0.146   3.679  1.5215  2.2161 -2.4648
  451MOL0     H59485   9.490  -0.065   3.737 -1.5338  1.1119 -0.1859
  451MOL0     H59486   9.291  -0.086   4.034 -0.2537 -1.5678 -1.3936
  451MOL0     H59487   9.284  -0.026   3.875 -1.1168 -1.8685  0.6358
  451MOL0     H59488   9.175   0.147   4.040 -0.1811 -0.3425  1.0436
  451MOL0     H59489   9.318   0.214   3.964  1.0049 -0.1456  1.4081
  451MOL0     H59490   9.340   0.076   4.223  1.3440 -0.5037  1.1864
  451MOL0     H59491   9.450   0.198   4.151 -1.0971 -1.6906 -1.2225
  451MOL0     H59492   9.295   0.375   4.203  0.6236 -0.8832 -0.6071
  451MOL0     H59493   9.299   0.282   4.352 -1.2881 -1.5419  0.3329
  451MOL0     H59494   8.869   0.196   4.179  0.9756  0.8976  1.5943
  451MOL0     H59495   8.737   0.038   4.281  0.6623  0.8907  0.1079
  451MOL0     H59496   8.618  -0.244   4.710 -2.5729 -4.1381  1.2104
  451MOL0     H59497   8.407  -0.330   4.794  0.0363 -1.1881 -0.4221
  451MOL0     H59498   8.066  -0.443   4.803  1.0065 -2.2130  2.1227
  451MOL0     H59499   8.225  -0.398   4.849 -2.1260  0.2289 -0.0362
  451MOL0     H59500   8.268  -0.602   4.799 -1.5406 -0.2840  0.8627
  451MOL0     H59501   8.278  -0.558   4.621 -1.1620  2.5186 -0.6695
  451MOL0     H59502   8.062  -0.697   4.781 -0.4569  2.0596 -0.7979
  451MOL0     H59503   8.162  -0.763   4.666 -2.0062 -1.7348  0.9926
  451MOL0     H59504   7.947  -0.556   4.610  0.4191 -0.1686  1.4293
  451MOL0     H59505   8.036  -0.649   4.495  1.6682 -1.5379  0.6279
  451MOL0     H59506   7.898  -0.825   4.695 -1.2872 -0.9316 -1.2968
  451MOL0     H59507   7.945  -0.840   4.534  1.0175 -0.2804  0.7114
  451MOL0     H59508   7.701  -0.828   4.525 -1.5063 -0.2885 -0.3251
  451MOL0     H59509   7.767  -0.681   4.466 -2.3266  2.4589  1.4108
  451MOL0     H59510   7.719  -0.585   4.716  0.1113  0.7767 -1.6330
  451MOL0     H59511   7.598  -0.594   4.590 -1.8975 -1.6780 -0.3414
  451MOL0     H59512   7.646  -0.801   4.804  0.4245 -0.1155  0.2530
  451MOL0     H59513   7.508  -0.812   4.686 -1.1382 -2.0520  1.3580
  451MOL0     H59514   8.209  -0.180   4.436  1.7564 -1.2835 -3.8774
  451MOL0     H59515   8.414  -0.074   4.375  2.4915  2.2930  1.3378
  451MOL0     H59516   9.031  -0.032   4.582 -3.6119 -1.2980  1.0448
  451MOL0     H59517   9.192   0.105   4.452 -1.2055 -2.4152  3.1542
  451MOL0     H59518  10.651   0.076   3.091 -1.1639 -0.6760  0.5769
  451MOL0     H59519  10.880   0.140   3.057 -0.1819  0.4503  1.3416
  451MOL0     H59520  11.244   0.193   3.041  0.1734 -0.7815  0.3236
  451MOL0     H59521  11.458   0.109   2.945 -0.2027 -0.1623  0.1975
  451MOL0     H59522  11.626   0.021   2.895  0.0972  0.8762  0.1630
  451MOL0     H59523  11.786  -0.055   2.934 -0.3086 -1.1843  3.9344
  451MOL0     H59524  11.778   0.139   2.781 -0.8615 -0.5074 -0.7386
  451MOL0     H59525  11.713   0.251   2.897 -1.6696 -1.3656 -1.7656
  451MOL0     H59526  11.964   0.284   2.863 -0.5543  0.4410 -1.1426
  451MOL0     H59527  11.979   0.115   2.932 -1.9990 -1.2893  0.0159
  451MOL0     H59528  11.821   0.335   3.050 -1.9822 -0.7470 -0.3629
  451MOL0     H59529  11.866   0.187   3.133 -1.9977 -0.7919 -1.9732
  451MOL0     H59530  12.226   0.413   3.192 -1.1011  4.6968 -1.4107
  451MOL0     H59531  11.639   0.118   3.339  0.3715  0.5756 -0.9456
  451MOL0     H59532  11.424   0.168   3.431 -4.0796  1.8493  0.4635
  452MOL0     O59533   9.372   0.388   4.762 -0.3087  0.4549 -1.3008
  452MOL0     C59534   9.367   0.297   4.682 -0.2543 -0.3527 -1.5561
  452MOL0     O59535   9.283   0.187   4.692  0.0925 -0.0465 -0.5098
  452MOL0     C59536   9.207   0.155   4.805  0.7541 -0.7017 -0.0798
  452MOL0     C59537   9.163   0.020   4.804  0.4630 -0.1265 -0.5105
  452MOL0     C59538   9.067  -0.021   4.898  0.0440 -0.5169  0.3285
  452MOL0     C59539   9.025   0.060   5.008 -0.4490  0.1014 -0.4862
  452MOL0     O59540   8.933   0.031   5.107 -0.2565 -0.6279 -0.0809
  452MOL0     C59541   8.890  -0.106   5.115  0.2461  0.7385  0.3252
  452MOL0     C59542   8.776  -0.152   5.034  0.2257 -0.2613 -0.0890
  452MOL0     C59543   8.647  -0.069   5.071  0.0926 -0.3879 -0.0562
  452MOL0     C59544   8.524  -0.094   4.978  0.1651  0.6636 -0.6399
  452MOL0     C59545   8.407   0.002   5.000 -0.2379 -0.2160 -0.2105
  452MOL0     C59546   8.271  -0.056   4.951  0.0300 -0.6549 -0.1906
  452MOL0     C59547   8.145   0.034   4.991 -0.4195 -0.5154  0.2407
  452MOL0     C59548   8.020  -0.030   4.929 -0.1812  0.2050  0.1273
  452MOL0     N59549   7.927  -0.055   5.036 -0.0821  0.0606 -0.6378
  452MOL0     C59550   7.863   0.035   5.125 -0.0425  0.7377  0.7740
  452MOL0     C59551   7.795  -0.054   5.199 -0.5237 -0.4269 -0.6256
  452MOL0     C59552   7.696  -0.004   5.305 -1.3445  0.4664  0.8955
  452MOL0     C59553   7.687  -0.094   5.430  0.8140  0.1076  0.8777
  452MOL0     C59554   7.806  -0.090   5.510 -0.7148 -0.4799 -0.7457
  452MOL0     C59555   7.801  -0.185   5.628  0.5714 -0.8656  0.2521
  452MOL0     O59556   7.857  -0.108   5.741  1.1364 -0.3809 -0.3707
  452MOL0     C59557   7.764  -0.083   5.847 -0.9003 -0.0850  0.7466
  452MOL0     C59558   7.759   0.042   5.901  0.3799 -0.5411 -0.1963
  452MOL0     C59559   7.677   0.069   6.009  0.0989 -0.0389  0.2180
  452MOL0     C59560   7.591  -0.025   6.065 -1.0175 -0.0457 -0.4378
  452MOL0     C59561   7.509   0.006   6.180 -0.4789  0.5272 -0.1065
  452MOL0     O59562   7.524   0.125   6.242  0.4122  0.9499 -0.4309
  452MOL0     C59563   7.455   0.153   6.355  0.6240 -0.5044  0.1723
  452MOL0     C59564   7.411   0.287   6.381 -1.1861  0.0655  0.2889
  452MOL0     C59565   7.343   0.324   6.494 -0.2615  0.7591 -0.8066
  452MOL0     C59566   7.322   0.233   6.607 -0.4724  0.5016 -0.7800
  452MOL0     O59567   7.261   0.288   6.716 -0.3419  0.2642 -0.2170
  452MOL0     C59568   7.221   0.212   6.830  0.5850 -0.5282  0.5016
  452MOL0     C59569   7.080   0.250   6.872 -0.4872  0.3689  0.1965
  452MOL0     C59570   6.976   0.172   6.800 -0.5166 -0.8927  1.4210
  452MOL0     C59571   6.841   0.223   6.824 -0.3719 -0.0912  0.2599
  452MOL0     C59572   6.726   0.136   6.778 -0.5251  0.4389 -0.0965
  452MOL0     C59573   6.587   0.199   6.778 -0.2633  0.1279  0.3814
  452MOL0     C59574   6.505   0.150   6.660 -0.3609  0.7628 -0.0171
  452MOL0     C59575   6.382   0.237   6.626  0.7434 -1.0424 -0.2097
  452MOL0    Cl59576   6.325   0.215   6.464  0.0420 -0.1230  0.1689
  452MOL0     C59577   7.374   0.101   6.586  0.0484  0.0189 -0.1192
  452MOL0     C59578   7.428   0.059   6.456 -0.0197  0.0975 -0.4934
  452MOL0     O59579   7.423  -0.079   6.209  0.0904 -0.9048 -0.0807
  452MOL0     C59580   7.609  -0.161   6.015  0.0052  0.1111 -1.2425
  452MOL0     C59581   7.703  -0.189   5.918  0.5270  0.0781  0.1167
  452MOL0     N59582   7.816  -0.182   5.162  0.6931  0.5705 -0.0487
  452MOL0     N59583   7.895  -0.188   5.064 -0.1297 -0.3731  0.6186
  452MOL0     C59584   9.079   0.193   5.006 -1.0971  0.6632 -0.0679
  452MOL0     C59585   9.169   0.238   4.915 -0.6279  0.3276  0.4030
  452MOL0     C59586   9.466   0.302   4.574  0.4927 -0.7494  0.1327
  452MOL0     C59587   9.499   0.427   4.521 -0.9951 -1.0682 -1.3151
  452MOL0     C59588   9.589   0.433   4.416 -0.6374 -0.0715 -0.4752
  452MOL0     C59589   9.649   0.316   4.368  0.8634  0.6108  0.1196
  452MOL0     O59590   9.730   0.308   4.252 -0.5519  0.8867 -0.2080
  452MOL0     C59591   9.774   0.434   4.191 -0.3991 -0.6850 -0.1682
  452MOL0     C59592   9.896   0.397   4.102  0.8738  0.0877 -0.8407
  452MOL0     C59593   9.870   0.342   3.966  0.0415  0.0621 -0.1599
  452MOL0     C59594   9.991   0.345   3.879  0.5169  0.7076  0.1453
  452MOL0     C59595  10.089   0.243   3.906  1.1478 -0.0505 -1.1413
  452MOL0     C59596  10.164   0.156   3.927  0.5041  0.2901  0.2771
  452MOL0     C59597   9.626   0.193   4.432 -0.4184 -0.2728 -0.0044
  452MOL0     C59598   9.530   0.185   4.532 -0.1901  0.3234  1.0436
  452MOL0     H59599   9.184  -0.044   4.719 -1.3089 -0.7107 -0.5643
  452MOL0     H59600   9.049  -0.127   4.882  1.7674 -0.3164 -4.4348
  452MOL0     H59601   8.863  -0.115   5.221  0.7740  1.2160  0.5064
  452MOL0     H59602   8.973  -0.176   5.106 -0.0095  0.3466  0.9556
  452MOL0     H59603   8.777  -0.258   5.059  4.1783 -0.5750 -0.9916
  452MOL0     H59604   8.790  -0.162   4.926  1.3070 -1.1822  0.1277
  452MOL0     H59605   8.674   0.037   5.062  3.4190 -1.1767 -0.8251
  452MOL0     H59606   8.613  -0.090   5.173 -1.5601 -2.4826 -0.9651
  452MOL0     H59607   8.558  -0.094   4.874 -0.4521 -0.5001 -0.8539
  452MOL0     H59608   8.479  -0.191   4.996  0.0119  0.3461 -2.4882
  452MOL0     H59609   8.428   0.098   4.952  0.5360 -0.5410 -0.5389
  452MOL0     H59610   8.402   0.017   5.108  1.9661  1.3987 -0.2757
  452MOL0     H59611   8.247  -0.155   4.991 -4.2071 -1.1217 -3.1864
  452MOL0     H59612   8.268  -0.061   4.842  1.0805 -0.3204 -0.2419
  452MOL0     H59613   8.140   0.043   5.100  2.0974 -2.4748  0.6230
  452MOL0     H59614   8.157   0.133   4.946  0.4580 -1.3495 -1.4643
  452MOL0     H59615   8.039  -0.115   4.863 -0.1744  1.8563 -2.0930
  452MOL0     H59616   7.976   0.052   4.872  2.4666  0.3513 -1.8975
  452MOL0     H59617   7.861   0.144   5.133  1.2885  0.7069  2.1621
  452MOL0     H59618   7.597   0.007   5.261 -1.4550  0.3352  1.1064
  452MOL0     H59619   7.732   0.094   5.338  3.7857 -1.4466  1.9209
  452MOL0     H59620   7.662  -0.197   5.403 -0.6942  0.6836 -0.0751
  452MOL0     H59621   7.601  -0.059   5.487  0.1390 -0.1037  0.0240
  452MOL0     H59622   7.885  -0.120   5.440 -2.6170 -0.5845 -2.9882
  452MOL0     H59623   7.803   0.013   5.547 -0.4529 -1.4225  2.1303
  452MOL0     H59624   7.850  -0.283   5.620  0.8166 -0.8035  0.8778
  452MOL0     H59625   7.695  -0.209   5.642  0.4815 -1.9714 -1.9711
  452MOL0     H59626   7.825   0.113   5.853 -0.0525  1.6370  2.2334
  452MOL0     H59627   7.689   0.171   6.044 -2.1015  0.7715 -1.1596
  452MOL0     H59628   7.451   0.357   6.308 -4.3675  1.5883 -0.1633
  452MOL0     H59629   7.310   0.426   6.507 -0.2921  0.9514 -2.1954
  452MOL0     H59630   7.286   0.235   6.916 -0.2896  3.3730  0.3155
  452MOL0     H59631   7.226   0.106   6.804 -1.1274 -0.4391 -0.3015
  452MOL0     H59632   7.068   0.358   6.859 -0.0453  0.2260 -1.7751
  452MOL0     H59633   7.069   0.230   6.978 -0.5633 -0.8695 -0.0330
  452MOL0     H59634   6.978   0.067   6.831  0.0540 -1.3511 -0.0852
  452MOL0     H59635   6.989   0.166   6.692 -1.5906 -0.3519  1.2443
  452MOL0     H59636   6.824   0.256   6.926 -2.0900  2.7808 -0.8244
  452MOL0     H59637   6.828   0.318   6.770  4.6818  0.0225 -1.2579
  452MOL0     H59638   6.730   0.047   6.842  0.9271  1.2441  1.0181
  452MOL0     H59639   6.745   0.111   6.673 -2.9248  0.4153 -0.5760
  452MOL0     H59640   6.596   0.307   6.766  1.0291  0.3342  2.6436
  452MOL0     H59641   6.533   0.178   6.870  1.8469 -0.1514  1.6296
  452MOL0     H59642   6.567   0.135   6.571 -0.5762 -4.8188  0.4251
  452MOL0     H59643   6.465   0.050   6.678  2.0459 -0.4511 -0.9096
  452MOL0     H59644   6.407   0.343   6.635 -3.1619  0.0119  0.2935
  452MOL0     H59645   6.292   0.214   6.685 -0.1740  0.4610 -0.9564
  452MOL0     H59646   7.366   0.030   6.668  1.2281  2.5099  2.3224
  452MOL0     H59647   7.459  -0.044   6.443 -1.1498 -0.2781 -0.3014
  452MOL0     H59648   7.553  -0.239   6.065 -0.5413  1.0788 -0.3109
  452MOL0     H59649   7.722  -0.293   5.891 -0.9964 -0.7990  2.1472
  452MOL0     H59650   9.055   0.244   5.099  1.8714  0.5776  0.8518
  452MOL0     H59651   9.211   0.337   4.931  0.0362 -0.0830  1.3033
  452MOL0     H59652   9.451   0.511   4.569  1.9657 -0.8692  1.6744
  452MOL0     H59653   9.618   0.531   4.379  1.0617  0.9415  3.1144
  452MOL0     H59654   9.808   0.503   4.269  0.9401 -0.3486 -1.0076
  452MOL0     H59655   9.699   0.487   4.131  1.2110  0.8495 -0.9230
  452MOL0     H59656   9.966   0.481   4.100 -1.2472  2.1619  2.4097
  452MOL0     H59657   9.946   0.325   4.168 -2.7995 -0.4234  1.7179
  452MOL0     H59658   9.797   0.409   3.919 -1.9870 -0.7711  1.6355
  452MOL0     H59659   9.838   0.238   3.973 -0.7620  0.1860 -1.5323
  452MOL0     H59660   9.960   0.320   3.777 -0.6580  0.7355  0.4863
  452MOL0     H59661  10.037   0.444   3.871 -0.9826  1.5461  1.5007
  452MOL0     H59662  10.231   0.075   3.947 -0.4739 -0.1394  1.8972
  452MOL0     H59663   9.687   0.106   4.409 -0.1701 -0.3769  0.9977
  452MOL0     H59664   9.522   0.088   4.579 -2.5972 -1.1183 -2.0101
  453MOL0     O59665   0.348   7.826   9.401 -0.0730  0.0222  0.1711
  453MOL0     C59666   0.233   7.786   9.435  0.7630 -0.0282  0.2036
  453MOL0     O59667   0.169   7.798   9.555 -0.0635  0.4498  0.0206
  453MOL0     C59668   0.254   7.824   9.661  0.1686 -0.1466 -1.0034
  453MOL0     C59669   0.317   7.948   9.673 -0.2796  0.2269  0.0219
  453MOL0     C59670   0.384   7.985   9.791 -0.1436 -0.8639 -0.5063
  453MOL0     C59671   0.399   7.891   9.897 -0.1476  0.4941  0.6252
  453MOL0     O59672   0.476   7.936  10.002 -0.4063  0.3919  0.1672
  453MOL0     C59673   0.493   7.853  10.113  0.9121  0.2941  0.0587
  453MOL0     C59674   0.580   7.916  10.212  0.0839  0.7033  0.3926
  453MOL0     C59675   0.585   7.849  10.343  0.5271  0.0925  0.2334
  453MOL0     C59676   0.696   7.906  10.435  0.2032 -0.6493  0.3408
  453MOL0     C59677   0.845   7.869  10.394  1.6824 -0.4290  0.1955
  453MOL0     C59678   0.947   7.926  10.492 -0.1820 -0.1364  0.0708
  453MOL0     C59679   0.958   8.084  10.497 -0.5362  0.2489 -0.4326
  453MOL0     C59680   0.991   8.147  10.362  0.6888 -0.5660 -0.7658
  453MOL0     N59681   1.046   8.281  10.397  0.7015 -0.3728 -0.3034
  453MOL0     C59682   1.176   8.307  10.427  0.1695 -1.4927  0.3864
  453MOL0     C59683   1.178   8.439  10.459 -0.1644 -0.8018 -0.1320
  453MOL0     C59684   1.301   8.514  10.505  1.6210 -0.0453  0.3798
  453MOL0     C59685   1.305   8.492  10.661  1.3046  1.1858 -0.0753
  453MOL0     C59686   1.444   8.485  10.715  0.3844  0.9326  1.3169
  453MOL0     C59687   1.500   8.619  10.718 -0.1213 -0.2723 -0.9491
  453MOL0     O59688   1.555   8.638  10.855  0.1034  0.4330 -0.3393
  453MOL0     C59689   1.656   8.730  10.880 -0.7152 -0.6159 -0.2841
  453MOL0     C59690   1.738   8.698  10.985 -1.3314  0.0019 -0.2800
  453MOL0     C59691   1.858   8.770  11.008 -0.1904  0.3010 -0.4477
  453MOL0     C59692   1.884   8.890  10.931  0.2289 -0.1256 -0.8224
  453MOL0     C59693   2.002   8.976  10.943 -0.2398  0.4453 -0.9100
  453MOL0     O59694   1.995   9.095  10.874 -0.2113 -0.3722  0.5901
  453MOL0     C59695   2.106   9.178  10.860 -0.3889  0.5797 -1.5039
  453MOL0     C59696   2.226   9.141  10.798 -1.2908 -0.2763  0.3308
  453MOL0     C59697   2.337   9.229  10.774  0.4803  0.4524  0.0562
  453MOL0     C59698   2.321   9.354  10.818 -0.4973 -0.0774  0.1363
  453MOL0     O59699   2.425   9.449  10.814  0.4071 -0.5532 -0.1463
  453MOL0     C59700   2.401   9.585  10.784  0.6929  0.3898  0.4745
  453MOL0     C59701   2.505   9.664  10.718  0.1435 -1.3351  0.0255
  453MOL0     C59702   2.547   9.604  10.581 -0.7622 -0.9941  0.4511
  453MOL0     C59703   2.657   9.679  10.508  0.0086 -0.4091 -0.5730
  453MOL0     C59704   2.730   9.589  10.407  0.7341  0.1505 -0.1701
  453MOL0     C59705   2.835   9.664  10.323 -0.2512  0.3591  0.1586
  453MOL0     C59706   2.948   9.745  10.395  0.8341  0.4323  0.5803
  453MOL0     C59707   3.021   9.837  10.302  0.2487 -0.2149 -1.0041
  453MOL0    Cl59708   2.915   9.984  10.296 -0.4919  0.1769  0.1123
  453MOL0     C59709   2.193   9.398  10.871  0.2974 -0.6061 -0.0310
  453MOL0     C59710   2.090   9.310  10.895 -0.0319  0.2750 -1.1601
  453MOL0     O59711   2.109   8.939  11.002 -0.2941  0.2327 -0.1939
  453MOL0     C59712   1.787   8.921  10.830 -0.3051  0.6742  0.7962
  453MOL0     C59713   1.669   8.846  10.804  0.4025 -0.7464  0.0581
  453MOL0     N59714   1.051   8.489  10.449  0.3750 -0.1041 -0.2331
  453MOL0     N59715   0.979   8.393  10.407  0.4493 -0.1540 -0.9574
  453MOL0     C59716   0.344   7.763   9.884  0.0560 -0.2396  0.5552
  453MOL0     C59717   0.271   7.732   9.766 -0.4643 -0.6733 -0.1289
  453MOL0     C59718   0.156   7.714   9.334  0.5562 -0.8468  0.0031
  453MOL0     C59719   0.027   7.652   9.359  0.5942  0.2653 -1.0141
  453MOL0     C59720  -0.050   7.602   9.261 -1.0316 -0.0332 -0.0501
  453MOL0     C59721  -0.010   7.621   9.132  1.1809 -0.1809 -0.4057
  453MOL0     O59722  -0.096   7.563   9.040 -0.3813  0.0187  0.3638
  453MOL0     C59723  -0.041   7.466   8.948 -0.6132  0.1016 -0.0323
  453MOL0     C59724  -0.143   7.370   8.886  0.4430  0.1487  0.7264
  453MOL0     C59725  -0.075   7.275   8.784 -0.0939 -0.3754 -0.2675
  453MOL0     C59726   0.008   7.163   8.860  0.3659 -0.4615 -0.6315
  453MOL0     C59727   0.006   7.042   8.780 -0.6138 -0.6654 -0.5373
  453MOL0     C59728  -0.007   6.940   8.719 -0.9445  0.2139  0.6544
  453MOL0     C59729   0.111   7.675   9.109 -0.2584 -0.2829  0.6832
  453MOL0     C59730   0.197   7.727   9.207  0.2626  1.1188  1.0644
  453MOL0     H59731   0.317   8.012   9.585 -1.0852 -0.3501 -0.4134
  453MOL0     H59732   0.429   8.084   9.795 -1.1733 -0.3778 -0.8256
  453MOL0     H59733   0.535   7.758  10.080  0.0691 -0.3511  0.7712
  453MOL0     H59734   0.401   7.832  10.170  2.0501  0.1822  1.9336
  453MOL0     H59735   0.556   8.023  10.219  0.1758  0.7217  0.4355
  453MOL0     H59736   0.680   7.913  10.168  1.2077 -0.6639  2.8457
  453MOL0     H59737   0.620   7.745  10.344 -0.2260 -0.1824  2.2417
  453MOL0     H59738   0.485   7.837  10.385  1.1845 -1.2689  1.4889
  453MOL0     H59739   0.703   8.015  10.436  4.0454 -0.7745 -0.0141
  453MOL0     H59740   0.685   7.866  10.536 -0.4032 -1.1014  0.1011
  453MOL0     H59741   0.870   7.917  10.299 -0.5196  0.2994 -0.0705
  453MOL0     H59742   0.859   7.761  10.388  0.4261 -0.5560 -0.8464
  453MOL0     H59743   1.044   7.881  10.469  2.1747  2.9961  2.8390
  453MOL0     H59744   0.928   7.885  10.592  3.7269 -0.7127  0.7357
  453MOL0     H59745   0.870   8.129  10.543 -0.1308  0.5270  0.0727
  453MOL0     H59746   1.040   8.096  10.568 -1.5112 -4.5413  1.9070
  453MOL0     H59747   0.908   8.161  10.292 -0.4988  4.4220  1.2230
  453MOL0     H59748   1.071   8.085  10.319  1.1086 -1.3796  1.0702
  453MOL0     H59749   1.259   8.238  10.426  0.7751 -0.8217  1.8891
  453MOL0     H59750   1.305   8.619  10.474  2.3445  0.2440  1.3723
  453MOL0     H59751   1.385   8.456  10.465  1.2527 -1.4904  1.6201
  453MOL0     H59752   1.254   8.397  10.678  1.4012  0.9457 -1.0719
  453MOL0     H59753   1.250   8.574  10.707 -0.1329  1.5630 -2.3103
  453MOL0     H59754   1.451   8.431  10.810  4.3431  0.8178  1.1226
  453MOL0     H59755   1.495   8.409  10.653 -3.3923 -0.2051 -0.7235
  453MOL0     H59756   1.418   8.691  10.707  0.4362  0.2909 -1.4603
  453MOL0     H59757   1.565   8.634  10.631 -0.8779 -0.2844 -1.5286
  453MOL0     H59758   1.725   8.603  11.036  4.2504  0.1396  2.1775
  453MOL0     H59759   1.921   8.748  11.094 -0.4241  4.5473  1.0203
  453MOL0     H59760   2.244   9.039  10.764  2.4288 -0.1295  1.4194
  453MOL0     H59761   2.425   9.176  10.737  0.1835  0.0780 -0.1184
  453MOL0     H59762   2.384   9.644  10.874 -1.4057  2.2151 -1.0114
  453MOL0     H59763   2.308   9.599  10.728  0.9403 -0.7559 -0.2665
  453MOL0     H59764   2.596   9.668  10.779 -0.6541 -3.1571  1.4535
  453MOL0     H59765   2.466   9.764  10.698 -0.7007 -2.1114 -2.5831
  453MOL0     H59766   2.464   9.603  10.510  0.6908  2.5281 -1.5465
  453MOL0     H59767   2.578   9.500  10.596 -0.6351 -0.8433  1.3397
  453MOL0     H59768   2.612   9.753  10.442 -0.4517  0.8677  1.1094
  453MOL0     H59769   2.716   9.731  10.583  1.2999 -0.3325 -1.6125
  453MOL0     H59770   2.648   9.561  10.340 -0.0610  0.9319  0.4528
  453MOL0     H59771   2.772   9.502  10.459 -2.2999  0.8103  3.9215
  453MOL0     H59772   2.785   9.740  10.261 -0.3409 -1.5260 -2.2172
  453MOL0     H59773   2.877   9.593  10.251 -3.2397 -2.2941  0.7905
  453MOL0     H59774   2.917   9.801  10.484  1.4323 -1.1030  1.8248
  453MOL0     H59775   3.024   9.673  10.428 -0.1668 -0.3867  1.1711
  453MOL0     H59776   3.036   9.798  10.201 -1.7391 -0.5030 -1.2333
  453MOL0     H59777   3.111   9.851  10.363  1.6703 -4.1668 -1.8914
  453MOL0     H59778   2.175   9.502  10.898 -0.8813 -0.5880 -0.8221
  453MOL0     H59779   2.008   9.346  10.957 -0.5946  0.0950 -1.7874
  453MOL0     H59780   1.810   8.999  10.758  3.6030 -0.5091  0.5349
  453MOL0     H59781   1.607   8.852  10.715  2.4422 -0.4671 -1.4142
  453MOL0     H59782   0.352   7.673   9.945 -0.1443 -1.8807 -1.6968
  453MOL0     H59783   0.212   7.644   9.745 -0.2612 -0.7185 -0.5074
  453MOL0     H59784  -0.006   7.651   9.462  2.6285  0.8862 -0.2962
  453MOL0     H59785  -0.146   7.558   9.282 -0.4060 -0.5337  1.9654
  453MOL0     H59786   0.022   7.406   9.013 -2.2614  0.1078  1.6504
  453MOL0     H59787   0.012   7.523   8.871 -0.6572  1.9164  1.1956
  453MOL0     H59788  -0.187   7.320   8.973 -0.5591 -1.4902 -0.6789
  453MOL0     H59789  -0.226   7.425   8.842  1.6581  1.8686  0.4791
  453MOL0     H59790  -0.004   7.334   8.725  2.0646 -1.8208  0.7718
  453MOL0     H59791  -0.150   7.238   8.714 -0.4099  1.9719 -1.2710
  453MOL0     H59792   0.116   7.177   8.868  0.2240  0.3231  0.0807
  453MOL0     H59793  -0.025   7.134   8.960  0.3328 -0.0596 -0.5229
  453MOL0     H59794  -0.035   6.862   8.651  0.4945 -0.3906  0.7228
  453MOL0     H59795   0.152   7.690   9.010 -1.7729 -2.0435 -0.2636
  453MOL0     H59796   0.295   7.766   9.182 -0.0281  0.4335 -1.4155
  454MOL0     O59797   0.633   3.186   4.840 -0.0658  0.3811 -0.4942
  454MOL0     C59798   0.573   3.071   4.841 -0.1070  0.8005  0.4940
  454MOL0     O59799   0.621   2.949   4.777 -0.5331  0.3720  0.4223
  454MOL0     C59800   0.735   2.956   4.704  0.4345 -0.5575  0.7257
  454MOL0     C59801   0.734   2.946   4.567  0.6029 -0.1776  0.5402
  454MOL0     C59802   0.849   2.950   4.500  0.3409 -0.9014  0.0750
  454MOL0     C59803   0.974   2.955   4.559 -0.7329  0.4336 -0.2747
  454MOL0     O59804   1.103   2.937   4.500  0.5673 -0.1905  0.2084
  454MOL0     C59805   1.114   2.979   4.365  0.1217 -0.5901 -0.0924
  454MOL0     C59806   1.101   2.864   4.258  0.0190 -0.3583 -0.8279
  454MOL0     C59807   1.199   2.740   4.288 -0.5381 -0.0357 -0.2109
  454MOL0     C59808   1.344   2.780   4.296  0.6381 -0.5387 -0.3714
  454MOL0     C59809   1.442   2.664   4.323  0.8538 -0.6102 -0.1313
  454MOL0     C59810   1.405   2.598   4.456 -0.4312  0.3780  0.7921
  454MOL0     C59811   1.450   2.669   4.576  0.5307 -0.8816  0.8857
  454MOL0     C59812   1.346   2.746   4.648  0.0786  0.2277  0.3973
  454MOL0     N59813   1.255   2.672   4.737 -0.4569  1.0068 -0.4590
  454MOL0     C59814   1.124   2.642   4.710 -0.0492  0.2334 -1.0763
  454MOL0     C59815   1.079   2.562   4.812 -0.2712  0.4196  0.6380
  454MOL0     C59816   0.951   2.493   4.823  1.6064 -0.4104 -0.2544
  454MOL0     C59817   0.835   2.594   4.860  0.9378 -0.6696 -0.6466
  454MOL0     C59818   0.818   2.628   5.004  0.1542 -0.3775  0.3146
  454MOL0     C59819   0.686   2.701   5.052  0.0382  0.6108  0.5736
  454MOL0     O59820   0.677   2.726   5.194 -0.5762  0.3071  0.1429
  454MOL0     C59821   0.567   2.788   5.239 -0.2955 -0.0084  0.4980
  454MOL0     C59822   0.441   2.772   5.182  0.3014 -0.5184  0.0251
  454MOL0     C59823   0.340   2.847   5.232  0.7395 -0.4914 -0.0760
  454MOL0     C59824   0.362   2.944   5.341  0.0493  0.2068 -0.9022
  454MOL0     C59825   0.234   3.009   5.391 -0.6428 -0.1231 -0.6625
  454MOL0     O59826   0.117   2.948   5.344  0.3354  0.1821 -0.5164
  454MOL0     C59827  -0.006   3.006   5.388 -0.4274  0.8322  1.0583
  454MOL0     C59828  -0.079   2.939   5.486  0.7160  1.1102  0.1577
  454MOL0     C59829  -0.198   2.985   5.541 -0.9203  0.1062 -0.0415
  454MOL0     C59830  -0.242   3.111   5.496  0.8486 -0.5448  0.2262
  454MOL0     O59831  -0.359   3.154   5.552 -0.1748 -0.0347  0.4337
  454MOL0     C59832  -0.365   3.303   5.564 -0.2546  0.8113 -0.7776
  454MOL0     C59833  -0.484   3.347   5.655 -0.1955  0.1644 -0.2231
  454MOL0     C59834  -0.617   3.340   5.581 -0.4770  0.0144 -1.1225
  454MOL0     C59835  -0.727   3.370   5.689 -0.0194 -0.1439  0.0067
  454MOL0     C59836  -0.752   3.249   5.776 -0.1836  0.2847  0.5766
  454MOL0     C59837  -0.884   3.265   5.859 -0.3613  0.6610  0.2103
  454MOL0     C59838  -0.879   3.366   5.968  0.3765 -0.3813 -0.6559
  454MOL0     C59839  -1.009   3.378   6.059 -0.4126 -0.6097 -0.4563
  454MOL0    Cl59840  -0.988   3.274   6.189 -0.0603  0.1751  0.2023
  454MOL0     C59841  -0.173   3.183   5.395  0.4955 -0.5627 -0.5267
  454MOL0     C59842  -0.057   3.127   5.340 -1.1963 -0.2599 -0.2406
  454MOL0     O59843   0.244   3.088   5.486  0.5578 -0.3070  0.3931
  454MOL0     C59844   0.488   2.950   5.401  0.1891  0.1557  0.0757
  454MOL0     C59845   0.588   2.876   5.348  0.7489  0.7776  0.0967
  454MOL0     N59846   1.183   2.552   4.897  0.2375 -0.4232  0.3471
  454MOL0     N59847   1.292   2.611   4.851  0.1191 -0.6968 -0.1627
  454MOL0     C59848   0.982   2.951   4.701  0.5889 -1.0263  0.6826
  454MOL0     C59849   0.856   2.956   4.768  0.8394  0.0196  0.6709
  454MOL0     C59850   0.437   3.071   4.893 -0.6368  0.1285 -0.7145
  454MOL0     C59851   0.359   2.945   4.883  0.0780 -0.5639 -0.7307
  454MOL0     C59852   0.233   2.939   4.943  0.3935 -0.4738 -0.6427
  454MOL0     C59853   0.172   3.054   4.995 -0.0714 -0.5010  0.2131
  454MOL0     O59854   0.048   3.057   5.050  0.2450  0.9150  0.4252
  454MOL0     C59855  -0.049   2.979   4.967  0.1241 -0.3151  0.3587
  454MOL0     C59856  -0.182   2.990   5.034 -0.0595  0.0945  0.0456
  454MOL0     C59857  -0.245   3.124   5.006  0.1389  0.2289  0.2297
  454MOL0     C59858  -0.361   3.162   5.108 -0.8960  0.5684  1.3929
  454MOL0     C59859  -0.392   3.309   5.086 -0.3403 -0.7826 -0.4415
  454MOL0     C59860  -0.411   3.438   5.057  0.0650  0.8052  0.1611
  454MOL0     C59861   0.242   3.175   4.983  0.9879 -0.2269  0.6622
  454MOL0     C59862   0.363   3.189   4.925 -0.4169  0.1818  0.3784
  454MOL0     H59863   0.636   2.936   4.521  1.4923  1.7946 -1.9859
  454MOL0     H59864   0.840   2.931   4.393 -2.9519 -0.2196  0.1284
  454MOL0     H59865   1.210   3.028   4.345 -0.0208 -0.1013  0.3858
  454MOL0     H59866   1.037   3.054   4.343  1.2619  0.1675 -1.7105
  454MOL0     H59867   1.126   2.907   4.160 -1.1601  0.1938 -0.9041
  454MOL0     H59868   1.001   2.819   4.263  0.2737 -0.7982  3.3612
  454MOL0     H59869   1.192   2.663   4.210  3.4211 -1.0957  0.2559
  454MOL0     H59870   1.177   2.702   4.388  3.6757  2.3691  1.8873
  454MOL0     H59871   1.376   2.813   4.197 -0.8089 -2.8117 -1.6770
  454MOL0     H59872   1.348   2.862   4.369 -0.9532  0.3066 -1.1635
  454MOL0     H59873   1.543   2.703   4.337  0.1508  1.9307 -1.5664
  454MOL0     H59874   1.434   2.600   4.234 -1.2760  0.8148 -1.0220
  454MOL0     H59875   1.457   2.503   4.443 -0.0814  0.6937 -0.2460
  454MOL0     H59876   1.299   2.574   4.465  0.0698 -1.0643  3.8917
  454MOL0     H59877   1.497   2.598   4.645 -0.2006 -2.8251 -0.5229
  454MOL0     H59878   1.531   2.737   4.548 -0.8076 -0.3405 -2.0450
  454MOL0     H59879   1.285   2.804   4.579 -1.6965 -1.9689  0.0103
  454MOL0     H59880   1.393   2.825   4.707 -0.6923 -0.8874  2.6628
  454MOL0     H59881   1.066   2.676   4.625  2.2075  1.6477 -2.1596
  454MOL0     H59882   0.948   2.413   4.898 -1.3780 -0.7696 -0.6364
  454MOL0     H59883   0.920   2.447   4.729 -0.0688  0.8478 -0.3702
  454MOL0     H59884   0.739   2.565   4.817  2.1160 -1.8258 -2.6875
  454MOL0     H59885   0.858   2.684   4.801 -1.8455  2.8901  3.1178
  454MOL0     H59886   0.832   2.538   5.064 -0.4476  1.2886  3.1212
  454MOL0     H59887   0.896   2.698   5.034  0.2135 -1.2308  2.3374
  454MOL0     H59888   0.597   2.650   5.014  0.0666  1.8693 -1.3050
  454MOL0     H59889   0.679   2.799   5.003  1.6219  1.4246  1.8953
  454MOL0     H59890   0.421   2.695   5.107  0.7307  1.3039 -2.0753
  454MOL0     H59891   0.240   2.847   5.190 -0.2494  0.4735  2.1467
  454MOL0     H59892  -0.033   2.844   5.512 -1.3026  0.6746  2.4916
  454MOL0     H59893  -0.257   2.922   5.606 -1.3414 -0.2512 -0.7559
  454MOL0     H59894  -0.364   3.358   5.470  0.7247 -1.6653 -2.3034
  454MOL0     H59895  -0.275   3.332   5.619 -2.5912  5.0761  1.3502
  454MOL0     H59896  -0.450   3.443   5.695  1.9807 -0.2434 -0.9425
  454MOL0     H59897  -0.492   3.278   5.739 -0.6192 -1.3451 -1.4460
  454MOL0     H59898  -0.652   3.248   5.533 -1.4082 -0.4215  0.3567
  454MOL0     H59899  -0.613   3.411   5.497 -0.3205  0.1774 -0.9786
  454MOL0     H59900  -0.691   3.444   5.761 -0.6795 -2.0969  2.4989
  454MOL0     H59901  -0.816   3.405   5.635 -0.1844  0.0546  0.4073
  454MOL0     H59902  -0.668   3.225   5.842 -0.1709 -0.3916  0.3318
  454MOL0     H59903  -0.763   3.163   5.708  2.1273  0.5056 -0.1419
  454MOL0     H59904  -0.896   3.171   5.914 -0.4626  0.6906  0.2381
  454MOL0     H59905  -0.966   3.291   5.791  1.1816 -0.8415 -2.4062
  454MOL0     H59906  -0.790   3.351   6.030 -0.7648  0.6228  1.3379
  454MOL0     H59907  -0.863   3.460   5.915  0.5989 -1.0854 -1.8902
  454MOL0     H59908  -1.099   3.346   6.006  0.8482 -3.3987 -1.1044
  454MOL0     H59909  -1.011   3.479   6.101 -1.5749 -0.0195 -1.8531
  454MOL0     H59910  -0.207   3.278   5.356  1.9950  0.6920  1.0893
  454MOL0     H59911  -0.008   3.180   5.260  0.9898 -1.9529 -0.1306
  454MOL0     H59912   0.510   3.007   5.491 -0.7955  3.3786 -1.5455
  454MOL0     H59913   0.690   2.884   5.385  0.5021  2.9369  0.4238
  454MOL0     H59914   1.071   2.964   4.761  0.7532 -4.9858  1.6102
  454MOL0     H59915   0.855   2.957   4.876 -1.3754  0.7136  0.6919
  454MOL0     H59916   0.408   2.852   4.856 -0.4806 -0.8715 -0.7005
  454MOL0     H59917   0.182   2.844   4.961  0.6587 -0.2616  1.4657
  454MOL0     H59918  -0.033   2.871   4.971 -2.0154 -0.7415 -1.2145
  454MOL0     H59919  -0.045   2.999   4.860  0.0693 -1.5356  0.1166
  454MOL0     H59920  -0.254   2.918   4.994 -0.6551  1.8166 -2.2019
  454MOL0     H59921  -0.179   2.972   5.142 -2.9720 -1.5644 -0.0332
  454MOL0     H59922  -0.268   3.137   4.900  0.7474 -2.0135 -0.2221
  454MOL0     H59923  -0.163   3.197   5.010 -0.1913  0.5618  2.4348
  454MOL0     H59924  -0.449   3.102   5.080 -2.0842  2.2471  1.4014
  454MOL0     H59925  -0.346   3.137   5.213 -0.4094  1.9101  1.6527
  454MOL0     H59926  -0.429   3.543   5.044 -1.2150  0.5848  0.0078
  454MOL0     H59927   0.179   3.259   5.011 -1.9260 -1.4364 -1.6651
  454MOL0     H59928   0.409   3.285   4.907  2.3799 -1.0733  0.4450
  455MOL0     O59929  10.017   0.746   7.703 -0.1908  0.8888  0.4798
  455MOL0     C59930   9.942   0.732   7.612  0.2761 -0.0696  0.1238
  455MOL0     O59931   9.975   0.743   7.471  0.1473 -0.1405 -0.6508
  455MOL0     C59932  10.105   0.743   7.441  0.6300 -0.1196 -0.0034
  455MOL0     C59933  10.133   0.670   7.327  0.2051 -0.5610  0.7040
  455MOL0     C59934  10.267   0.672   7.277 -0.5449  0.3033  0.2783
  455MOL0     C59935  10.360   0.768   7.329 -0.7766  0.0408  0.5027
  455MOL0     O59936  10.493   0.761   7.289  0.2338 -0.8586  0.8933
  455MOL0     C59937  10.557   0.890   7.262  0.5366  0.4284  0.2191
  455MOL0     C59938  10.704   0.852   7.253 -0.2417  0.2169 -0.2706
  455MOL0     C59939  10.786   0.953   7.172  0.1841 -0.0870 -0.3958
  455MOL0     C59940  10.909   0.888   7.110 -0.3556  0.6131  0.3068
  455MOL0     C59941  10.970   0.956   6.987 -0.9902 -0.1222 -0.2277
  455MOL0     C59942  11.052   1.095   7.017 -0.3055  0.2539 -0.2612
  455MOL0     C59943  10.971   1.229   7.016 -0.3262  0.5293 -0.6031
  455MOL0     C59944  11.055   1.343   7.090  1.0230  0.1986  0.7702
  455MOL0     N59945  10.990   1.474   7.086  0.8070  0.0382 -0.3214
  455MOL0     C59946  10.859   1.501   7.109  0.3133  0.9306  0.6134
  455MOL0     C59947  10.858   1.636   7.116  0.2279  0.0256 -0.2790
  455MOL0     C59948  10.729   1.709   7.155  0.3200  0.1407  0.2357
  455MOL0     C59949  10.611   1.680   7.069 -0.2183  0.0639  0.1229
  455MOL0     C59950  10.496   1.793   7.098  0.2533 -0.3261 -0.0859
  455MOL0     C59951  10.415   1.764   7.224  0.2966 -0.2644 -0.0184
  455MOL0     O59952  10.310   1.670   7.210 -1.4299  0.7852 -0.3861
  455MOL0     C59953  10.202   1.688   7.291  0.3535  0.6941 -0.4001
  455MOL0     C59954  10.087   1.617   7.254 -0.0626 -0.4724  0.3103
  455MOL0     C59955   9.969   1.630   7.325  0.3746  0.5844 -0.3725
  455MOL0     C59956   9.956   1.708   7.434 -0.7601  0.1678 -0.1677
  455MOL0     C59957   9.825   1.711   7.512  0.3806 -0.1469 -0.0555
  455MOL0     O59958   9.842   1.734   7.643  0.8332  0.5630  0.0757
  455MOL0     C59959   9.735   1.710   7.720  0.6034  0.1681 -0.1176
  455MOL0     C59960   9.634   1.799   7.729 -0.1378 -0.0972 -0.0133
  455MOL0     C59961   9.515   1.755   7.794 -0.1600 -0.2992  0.0374
  455MOL0     C59962   9.497   1.623   7.853  0.1950 -0.8288 -0.4874
  455MOL0     O59963   9.396   1.573   7.932 -0.1050  0.1420 -0.7532
  455MOL0     C59964   9.273   1.652   7.925  0.5182  0.6402  0.1040
  455MOL0     C59965   9.151   1.555   7.946 -1.0235  0.0741 -0.0968
  455MOL0     C59966   9.160   1.491   8.087 -0.2230  0.0268 -0.2337
  455MOL0     C59967   9.037   1.398   8.119 -0.0134 -0.6503 -0.6509
  455MOL0     C59968   9.052   1.325   8.261 -1.6874 -0.5536 -0.0623
  455MOL0     C59969   9.066   1.409   8.390 -0.6756  0.3777  0.7906
  455MOL0     C59970   8.981   1.540   8.402 -0.0639  0.3404  0.4383
  455MOL0     C59971   9.017   1.616   8.529  0.0224  0.1706  1.1544
  455MOL0    Cl59972   8.965   1.511   8.661  0.2871 -0.0808 -0.2512
  455MOL0     C59973   9.603   1.537   7.840 -0.1906  0.1569  1.1818
  455MOL0     C59974   9.719   1.585   7.774  0.1036  0.8328  0.1391
  455MOL0     O59975   9.722   1.682   7.454  0.0339 -0.5128  0.3075
  455MOL0     C59976  10.067   1.790   7.470  0.5961  0.3866  0.4849
  455MOL0     C59977  10.190   1.782   7.399  0.2776 -0.1013  0.0074
  455MOL0     N59978  10.985   1.684   7.109 -0.7365  0.9717 -0.0641
  455MOL0     N59979  11.062   1.587   7.090  0.1448  0.4971  0.1810
  455MOL0     C59980  10.317   0.857   7.431  0.3154  0.3426  0.4868
  455MOL0     C59981  10.196   0.837   7.487 -0.3438 -0.3994 -0.5227
  455MOL0     C59982   9.806   0.707   7.651  0.1771  0.2914 -0.0933
  455MOL0     C59983   9.746   0.696   7.775  0.0821  0.4291  0.2887
  455MOL0     C59984   9.606   0.677   7.794 -0.0077  0.3086 -0.6531
  455MOL0     C59985   9.525   0.654   7.680  0.9373 -0.7798 -0.1683
  455MOL0     O59986   9.392   0.615   7.709  0.2559 -0.0683 -0.3795
  455MOL0     C59987   9.353   0.488   7.671 -0.6151 -0.5328 -0.2380
  455MOL0     C59988   9.240   0.437   7.755 -0.8799 -0.8056 -0.8563
  455MOL0     C59989   9.115   0.523   7.769 -0.2223 -0.1144  0.3551
  455MOL0     C59990   8.999   0.442   7.812  0.7971  0.0380  0.3940
  455MOL0     C59991   8.877   0.523   7.834  0.2114  0.2988  0.2664
  455MOL0     C59992   8.785   0.602   7.855  0.6800  1.8256  0.4035
  455MOL0     C59993   9.585   0.654   7.552  0.5454 -0.1486 -0.0796
  455MOL0     C59994   9.714   0.678   7.539 -0.1410  0.1070 -0.4993
  455MOL0     H59995  10.060   0.611   7.272 -1.3609 -0.5361  2.6494
  455MOL0     H59996  10.302   0.611   7.194  2.3279 -1.1828  2.4216
  455MOL0     H59997  10.547   0.964   7.342  1.1939 -0.1419  0.8500
  455MOL0     H59998  10.521   0.926   7.165 -0.7064  0.7297  0.7672
  455MOL0     H59999  10.714   0.756   7.202  3.0171 -0.8594  2.0849
  455MOL0     H60000  10.737   0.850   7.357  0.0734  2.2240 -0.2904
  455MOL0     H60001  10.807   1.046   7.225  0.8881  0.1445 -1.0677
  455MOL0     H60002  10.722   0.990   7.091 -2.5438  0.3428  1.8067
  455MOL0     H60003  10.990   0.883   7.183  0.2490  2.1052 -0.2126
  455MOL0     H60004  10.880   0.785   7.087  3.8602 -0.1578 -2.8911
  455MOL0     H60005  10.912   0.974   6.895  1.1918  1.5879 -1.3731
  455MOL0     H60006  11.045   0.881   6.962 -2.5692 -0.9030 -3.1871
  455MOL0     H60007  11.125   1.101   6.935  0.7747 -2.0145  0.4465
  455MOL0     H60008  11.115   1.089   7.106 -2.1580 -0.7751  1.0434
  455MOL0     H60009  10.962   1.245   6.908 -2.3208 -2.5529 -1.0300
  455MOL0     H60010  10.869   1.219   7.056  0.5486 -3.0308  1.1921
  455MOL0     H60011  11.156   1.335   7.050  1.0286 -0.2197  0.8590
  455MOL0     H60012  11.066   1.311   7.194  3.0817 -1.7954  0.0147
  455MOL0     H60013  10.772   1.436   7.109 -0.3757  1.7919 -0.9867
  455MOL0     H60014  10.746   1.817   7.145 -0.9966  0.3130 -0.4342
  455MOL0     H60015  10.704   1.701   7.261  1.7103 -1.8919  0.4639
  455MOL0     H60016  10.578   1.579   7.096  3.3296 -1.1211  0.4822
  455MOL0     H60017  10.637   1.693   6.963 -1.1333 -0.1994 -0.1445
  455MOL0     H60018  10.549   1.888   7.113  1.2278 -0.7785 -0.6141
  455MOL0     H60019  10.425   1.798   7.014 -1.6074  0.8526  1.4638
  455MOL0     H60020  10.382   1.863   7.257  1.1570  1.7490 -4.3996
  455MOL0     H60021  10.485   1.731   7.301  0.9471 -1.4007 -1.0600
  455MOL0     H60022  10.102   1.545   7.174  1.5699 -0.3653  0.4876
  455MOL0     H60023   9.885   1.571   7.290  2.1877 -1.1013 -2.1236
  455MOL0     H60024   9.653   1.894   7.680 -0.6268  1.1775  2.1467
  455MOL0     H60025   9.428   1.820   7.799  2.4263  3.4247  2.4257
  455MOL0     H60026   9.263   1.693   7.824  1.2202 -0.8355 -0.6016
  455MOL0     H60027   9.271   1.741   7.988 -1.9122  1.4969 -1.0791
  455MOL0     H60028   9.162   1.484   7.864 -1.1135 -0.9289  0.7427
  455MOL0     H60029   9.062   1.617   7.935 -1.7447 -0.9996 -0.4553
  455MOL0     H60030   9.168   1.574   8.158 -0.7053  0.6619 -0.9064
  455MOL0     H60031   9.252   1.432   8.098 -1.4404 -1.5688  2.1905
  455MOL0     H60032   8.949   1.462   8.107  0.2688  0.3407  2.0080
  455MOL0     H60033   9.055   1.322   8.043  1.9798  0.1979 -1.1034
  455MOL0     H60034   9.148   1.275   8.243 -0.7070  1.3330 -0.3240
  455MOL0     H60035   8.980   1.246   8.281 -0.4443 -1.9337 -0.8329
  455MOL0     H60036   9.173   1.433   8.395 -0.1724 -1.7403  1.0660
  455MOL0     H60037   9.043   1.344   8.474 -1.1760 -0.2636  0.1613
  455MOL0     H60038   8.981   1.605   8.314 -0.0441 -1.7850 -1.1972
  455MOL0     H60039   8.875   1.513   8.412 -0.0787  0.4415  0.5573
  455MOL0     H60040   8.973   1.716   8.524 -2.0702 -0.6958  0.9135
  455MOL0     H60041   9.125   1.624   8.537 -0.0434  1.8884  0.5682
  455MOL0     H60042   9.609   1.447   7.901  1.7843  0.8331  2.0641
  455MOL0     H60043   9.801   1.517   7.757 -0.8620 -0.0648 -1.1570
  455MOL0     H60044  10.055   1.852   7.558  1.8160  1.1659  0.1376
  455MOL0     H60045  10.280   1.838   7.419  1.3635 -1.7928  0.0827
  455MOL0     H60046  10.387   0.923   7.482 -0.1807 -0.6030  2.5216
  455MOL0     H60047  10.178   0.905   7.569 -0.4328 -0.7919 -0.2138
  455MOL0     H60048   9.810   0.705   7.862 -0.9190  0.9761  0.9931
  455MOL0     H60049   9.561   0.665   7.892 -2.3253 -1.7962 -1.8553
  455MOL0     H60050   9.437   0.419   7.680  1.6198  2.3406  4.4817
  455MOL0     H60051   9.317   0.488   7.567  2.2464  1.9227 -1.3702
  455MOL0     H60052   9.201   0.345   7.709 -0.7283 -0.4715 -1.6796
  455MOL0     H60053   9.287   0.410   7.850  0.7040  0.9649 -1.0733
  455MOL0     H60054   9.103   0.585   7.680 -2.3077 -0.4180  0.3806
  455MOL0     H60055   9.132   0.601   7.844 -0.9187 -3.0618  3.8571
  455MOL0     H60056   8.971   0.367   7.737  0.6460 -1.3844  1.8059
  455MOL0     H60057   9.019   0.398   7.910  1.6273  0.1242  0.2709
  455MOL0     H60058   8.695   0.657   7.878 -3.1232 -0.0471 -6.8152
  455MOL0     H60059   9.520   0.638   7.467 -0.0331  0.2236  0.2828
  455MOL0     H60060   9.753   0.687   7.438 -1.4168  2.4113 -0.8734
  456MOL0     O60061   1.417   6.577  11.034 -0.0549 -0.5639  0.7824
  456MOL0     C60062   1.488   6.576  11.127 -0.2903 -0.1661 -0.5182
  456MOL0     O60063   1.444   6.599  11.254  0.4347  0.0451  1.4805
  456MOL0     C60064   1.306   6.614  11.268 -0.8589  0.4118 -0.5733
  456MOL0     C60065   1.209   6.527  11.214  0.6315  0.2805  0.8000
  456MOL0     C60066   1.075   6.538  11.246 -0.0327  0.1588 -0.6774
  456MOL0     C60067   1.030   6.637  11.327 -0.1175  0.8187  0.2031
  456MOL0     O60068   0.899   6.658  11.346  0.1573 -2.0335  0.6093
  456MOL0     C60069   0.802   6.580  11.280  0.2413  0.6128 -0.8885
  456MOL0     C60070   0.668   6.641  11.325 -0.3605  0.1392  0.1996
  456MOL0     C60071   0.645   6.781  11.266  0.3669  0.5448  0.2619
  456MOL0     C60072   0.507   6.818  11.247 -0.6615 -0.4491 -0.3622
  456MOL0     C60073   0.487   6.962  11.210  0.2117 -0.2948 -0.0771
  456MOL0     C60074   0.350   6.994  11.172 -0.7156  0.1109  0.3394
  456MOL0     C60075   0.349   7.137  11.122  0.0767  0.2135 -0.8956
  456MOL0     C60076   0.219   7.214  11.111 -0.1908  0.0901  0.8024
  456MOL0     N60077   0.107   7.166  11.021 -0.5142  0.2047 -0.4301
  456MOL0     C60078   0.031   7.050  11.041 -0.1651 -0.1561  0.7613
  456MOL0     C60079  -0.033   7.024  10.923  0.7176 -0.7466  0.2734
  456MOL0     C60080  -0.103   6.891  10.879 -0.4577  0.1165 -0.5374
  456MOL0     C60081  -0.210   6.857  10.977 -0.2091 -0.7425 -0.4204
  456MOL0     C60082  -0.315   6.966  10.934 -0.0907 -0.2056  0.3562
  456MOL0     C60083  -0.455   6.928  10.982  0.0242  0.4122 -1.3162
  456MOL0     O60084  -0.549   7.030  10.957  0.5659 -0.1570 -0.1480
  456MOL0     C60085  -0.689   7.025  10.977 -0.6853 -0.5559 -0.7109
  456MOL0     C60086  -0.752   6.918  11.042  0.5630 -0.5323  0.0307
  456MOL0     C60087  -0.889   6.927  11.067  0.2005  0.5947 -1.0716
  456MOL0     C60088  -0.967   7.028  11.018  0.2173 -0.1275  0.2399
  456MOL0     C60089  -1.118   7.021  11.030 -0.4390  0.5002  0.1141
  456MOL0     O60090  -1.176   6.919  11.099 -1.3738  0.3071 -0.1279
  456MOL0     C60091  -1.308   6.887  11.077 -1.5052 -0.0833 -0.7065
  456MOL0     C60092  -1.399   6.966  11.131 -0.7030  1.4725  0.5397
  456MOL0     C60093  -1.528   6.923  11.134 -0.7781  0.1149 -0.6988
  456MOL0     C60094  -1.570   6.801  11.077 -0.2684 -0.2530  0.3317
  456MOL0     O60095  -1.699   6.755  11.073 -0.4268  0.5448 -0.1966
  456MOL0     C60096  -1.793   6.825  11.148 -0.4302 -0.4515 -1.2742
  456MOL0     C60097  -1.856   6.937  11.071  0.0245 -1.0439  0.5425
  456MOL0     C60098  -1.926   6.888  10.939  1.2440  0.1496 -0.1881
  456MOL0     C60099  -1.842   6.837  10.825 -0.5551 -0.9968  0.7313
  456MOL0     C60100  -1.931   6.812  10.695 -0.4770  0.0784  0.1545
  456MOL0     C60101  -2.041   6.703  10.709  0.6845 -0.2530  0.5829
  456MOL0     C60102  -1.988   6.567  10.743 -0.0659 -0.7262 -0.2500
  456MOL0     C60103  -2.076   6.459  10.704  0.0661  0.6309  0.5603
  456MOL0    Cl60104  -2.071   6.458  10.527 -0.0550 -0.0823  0.1088
  456MOL0     C60105  -1.475   6.729  11.008 -0.4618  1.0662 -0.0252
  456MOL0     C60106  -1.340   6.768  11.009 -0.3113  0.5228  0.4431
  456MOL0     O60107  -1.178   7.095  10.957 -0.5718 -0.7215 -0.1150
  456MOL0     C60108  -0.905   7.136  10.948 -0.2515 -0.4367 -0.0006
  456MOL0     C60109  -0.765   7.130  10.929 -0.0766 -0.0100 -1.0344
  456MOL0     N60110  -0.014   7.135  10.839  0.2275 -0.1437 -0.1684
  456MOL0     N60111   0.072   7.208  10.892 -0.7156 -0.1117 -0.6868
  456MOL0     C60112   1.125   6.730  11.376 -0.1238  0.9469  0.2776
  456MOL0     C60113   1.261   6.711  11.356  0.4388  0.7485 -0.5811
  456MOL0     C60114   1.628   6.563  11.098 -0.9344  0.1701  0.9333
  456MOL0     C60115   1.668   6.572  10.953  0.1063  0.6167  0.2683
  456MOL0     C60116   1.803   6.544  10.920  0.2146  0.3030 -0.5040
  456MOL0     C60117   1.901   6.522  11.021 -0.1754  0.2813  0.7244
  456MOL0     O60118   2.030   6.511  10.979 -0.2313 -0.4089  0.3113
  456MOL0     C60119   2.129   6.495  11.079  0.2810 -0.4046  0.9037
  456MOL0     C60120   2.270   6.510  11.022  0.7435  0.6113 -0.3901
  456MOL0     C60121   2.312   6.385  10.937 -0.3593  0.1576  0.9155
  456MOL0     C60122   2.465   6.383  10.932 -0.1441 -0.0467  0.2211
  456MOL0     C60123   2.509   6.319  10.802 -0.0296  0.5848 -0.3522
  456MOL0     C60124   2.558   6.265  10.700  1.0869  0.0769 -0.5802
  456MOL0     C60125   1.857   6.520  11.155 -0.7021 -0.1299  0.2196
  456MOL0     C60126   1.724   6.541  11.193  0.3481  0.2088 -0.4521
  456MOL0     H60127   1.224   6.450  11.140 -2.7670  0.5705 -0.3268
  456MOL0     H60128   1.018   6.456  11.203 -0.6909  1.6706 -2.8814
  456MOL0     H60129   0.804   6.475  11.308 -0.1572  0.5163 -1.2082
  456MOL0     H60130   0.794   6.581  11.171 -2.9051 -2.3618 -0.8544
  456MOL0     H60131   0.662   6.643  11.434  0.6228 -2.5598  0.3922
  456MOL0     H60132   0.594   6.571  11.284  1.6178 -2.0631  0.1331
  456MOL0     H60133   0.686   6.785  11.165 -3.8907  0.9677 -1.6337
  456MOL0     H60134   0.691   6.854  11.333 -1.5820  3.2069 -1.1284
  456MOL0     H60135   0.471   6.750  11.168 -0.9788 -1.8170  0.9107
  456MOL0     H60136   0.441   6.796  11.331 -1.4108  1.5313 -0.3708
  456MOL0     H60137   0.567   6.996  11.144  0.1689  0.0140  0.0270
  456MOL0     H60138   0.511   7.017  11.302 -0.8451 -3.3661  2.2079
  456MOL0     H60139   0.281   6.973  11.255 -0.7638 -0.4017  0.1744
  456MOL0     H60140   0.324   6.920  11.096 -0.8588 -0.3332  0.8132
  456MOL0     H60141   0.415   7.202  11.180 -1.2624  0.3956  0.4646
  456MOL0     H60142   0.391   7.134  11.021 -0.0551 -0.6146 -0.9324
  456MOL0     H60143   0.242   7.317  11.083 -7.7370  2.6485  1.5681
  456MOL0     H60144   0.175   7.222  11.211 -3.6005  0.3422 -0.5770
  456MOL0     H60145   0.025   6.994  11.134 -0.4312 -0.6043  0.4819
  456MOL0     H60146  -0.021   6.820  10.868  2.4754  3.1033  0.3355
  456MOL0     H60147  -0.141   6.916  10.779 -0.5199 -2.5343 -1.2355
  456MOL0     H60148  -0.187   6.871  11.083 -1.7472 -2.3542  0.1739
  456MOL0     H60149  -0.243   6.755  10.959  0.6754 -1.4224  1.5715
  456MOL0     H60150  -0.294   7.057  10.990 -1.8267 -0.4463  1.4959
  456MOL0     H60151  -0.316   6.999  10.829 -0.7057  1.5697  0.8767
  456MOL0     H60152  -0.451   6.916  11.091 -2.0637  1.9653 -0.9821
  456MOL0     H60153  -0.502   6.840  10.939  1.4099 -0.1054 -1.8125
  456MOL0     H60154  -0.695   6.833  11.077  0.4633  0.5395  3.1351
  456MOL0     H60155  -0.927   6.848  11.131 -0.1948  1.1246 -0.6391
  456MOL0     H60156  -1.351   7.054  11.173  0.3161  0.2728  1.9775
  456MOL0     H60157  -1.596   6.994  11.180  0.7307  0.6512  0.8127
  456MOL0     H60158  -1.761   6.862  11.246 -2.6000  0.7104 -0.9578
  456MOL0     H60159  -1.877   6.762  11.180 -0.4733  1.8612  4.3488
  456MOL0     H60160  -1.779   7.014  11.061 -2.8569  2.5733  3.3290
  456MOL0     H60161  -1.932   6.981  11.136  1.2743  2.8601 -0.3687
  456MOL0     H60162  -2.002   6.957  10.901  0.7164 -0.8728 -1.0301
  456MOL0     H60163  -1.984   6.799  10.963  2.4515 -0.4434  0.6081
  456MOL0     H60164  -1.783   6.926  10.799 -2.1773 -0.2619 -0.6163
  456MOL0     H60165  -1.780   6.750  10.848  2.3585  1.1013  1.4301
  456MOL0     H60166  -1.854   6.789  10.621  1.3276  2.5159  1.1045
  456MOL0     H60167  -1.968   6.912  10.671 -3.5923 -0.2207  2.9350
  456MOL0     H60168  -2.094   6.699  10.613 -0.8459 -0.5938  1.4139
  456MOL0     H60169  -2.124   6.739  10.771 -1.2001 -0.0251 -1.8977
  456MOL0     H60170  -1.884   6.562  10.710 -0.1243  0.8251 -0.7741
  456MOL0     H60171  -1.984   6.575  10.852 -1.1256  2.5297 -0.3417
  456MOL0     H60172  -2.181   6.471  10.733  0.1258  0.2912  0.9294
  456MOL0     H60173  -2.053   6.362  10.749 -3.5027  0.2734  1.9549
  456MOL0     H60174  -1.508   6.638  10.959  0.3072  0.7820 -0.0318
  456MOL0     H60175  -1.268   6.693  10.978  2.2494  2.0975  2.2114
  456MOL0     H60176  -0.955   7.228  10.922  0.5585  0.3841  1.2506
  456MOL0     H60177  -0.716   7.212  10.877  3.3827  1.1528  3.4378
  456MOL0     H60178   1.099   6.813  11.440 -1.3666 -0.2188  1.3529
  456MOL0     H60179   1.325   6.785  11.404  1.8006  0.1907 -1.4774
  456MOL0     H60180   1.592   6.593  10.879 -1.0758 -2.7707  0.3441
  456MOL0     H60181   1.826   6.532  10.815  1.8006 -2.5626  0.0531
  456MOL0     H60182   2.114   6.400  11.130  0.2771 -1.3815 -0.8307
  456MOL0     H60183   2.133   6.575  11.153  1.0776 -0.9485  1.4592
  456MOL0     H60184   2.263   6.604  10.966  3.3744  2.7556  2.5147
  456MOL0     H60185   2.335   6.518  11.110  1.8225  0.8199 -1.1974
  456MOL0     H60186   2.259   6.388  10.841  1.9437 -0.0046 -0.4316
  456MOL0     H60187   2.282   6.295  10.990  2.0595 -1.1070  0.2795
  456MOL0     H60188   2.520   6.478  10.937 -0.8641  0.3733  0.3141
  456MOL0     H60189   2.489   6.322  11.019 -4.5155 -0.3609  1.4317
  456MOL0     H60190   2.586   6.195  10.624  3.2501 -1.5566  1.5688
  456MOL0     H60191   1.922   6.487  11.236 -0.3151  2.3134  0.9773
  456MOL0     H60192   1.712   6.532  11.301  3.4496  2.4037  0.2214
  457MOL0     O60193   1.324   5.210   8.612 -0.3657 -0.1081 -0.8878
  457MOL0     C60194   1.297   5.336   8.618 -1.8845  1.0268  0.4628
  457MOL0     O60195   1.387   5.432   8.598  0.5799 -0.0335 -0.0844
  457MOL0     C60196   1.514   5.408   8.555 -0.2030  0.2313  0.7669
  457MOL0     C60197   1.557   5.485   8.445 -0.2268  0.6789  0.8815
  457MOL0     C60198   1.692   5.473   8.390 -0.4565  0.1612 -0.9572
  457MOL0     C60199   1.772   5.371   8.445 -0.9738  0.3569 -0.2591
  457MOL0     O60200   1.892   5.333   8.387  0.1407 -0.3174  0.0705
  457MOL0     C60201   1.968   5.219   8.436  0.0005 -0.2241 -0.7731
  457MOL0     C60202   2.109   5.225   8.382  0.0398 -0.1528 -0.0900
  457MOL0     C60203   2.202   5.101   8.405  1.6918 -0.3962 -0.0681
  457MOL0     C60204   2.348   5.124   8.386  0.4954 -0.5042  0.1403
  457MOL0     C60205   2.386   5.163   8.239  0.2475  0.0389 -1.3481
  457MOL0     C60206   2.532   5.120   8.203  0.1005  0.3137  0.6119
  457MOL0     C60207   2.628   5.232   8.241 -0.8211 -0.6604 -0.1647
  457MOL0     C60208   2.770   5.198   8.214 -0.1980  0.3018  0.0711
  457MOL0     N60209   2.821   5.080   8.292  0.1396 -0.1479  1.0555
  457MOL0     C60210   2.825   4.946   8.249  0.3256 -0.0528 -0.1110
  457MOL0     C60211   2.832   4.873   8.359 -1.0277 -0.1742 -0.8311
  457MOL0     C60212   2.821   4.731   8.368  0.5294 -0.7073 -1.0017
  457MOL0     C60213   2.682   4.692   8.398  0.7287  0.6092 -0.2782
  457MOL0     C60214   2.666   4.537   8.408 -0.1669 -0.7512 -0.1927
  457MOL0     C60215   2.529   4.488   8.439  0.1596 -0.1155 -0.6811
  457MOL0     O60216   2.426   4.521   8.341  0.0960 -0.4310  0.5093
  457MOL0     C60217   2.300   4.487   8.374 -0.1372 -0.7987 -0.6442
  457MOL0     C60218   2.237   4.582   8.456 -0.0798  0.2129 -0.0017
  457MOL0     C60219   2.102   4.563   8.493  0.6037 -0.2103  0.6221
  457MOL0     C60220   2.026   4.459   8.438 -0.0835  0.0160  0.2713
  457MOL0     C60221   1.886   4.444   8.487 -0.1945  0.4443  0.9884
  457MOL0     O60222   1.808   4.349   8.429 -0.0396  0.4005  0.1097
  457MOL0     C60223   1.680   4.336   8.456 -0.3367  0.7393  0.4136
  457MOL0     C60224   1.636   4.208   8.488 -0.3204 -0.3897 -0.1743
  457MOL0     C60225   1.507   4.182   8.535 -0.5019  0.1023  0.2463
  457MOL0     C60226   1.405   4.284   8.513 -0.1709  0.0391  0.6401
  457MOL0     O60227   1.272   4.251   8.549  1.4276  0.3687 -0.4526
  457MOL0     C60228   1.167   4.338   8.513 -0.0952  1.2613  1.2842
  457MOL0     C60229   1.134   4.322   8.365 -0.2078 -0.1660  0.7199
  457MOL0     C60230   0.996   4.381   8.342  0.7084 -0.5620  0.5917
  457MOL0     C60231   0.952   4.395   8.202  0.1382  0.6291  0.1331
  457MOL0     C60232   0.869   4.265   8.171 -1.2330 -0.7683  0.6360
  457MOL0     C60233   0.804   4.269   8.029 -0.5727  0.0474 -0.0922
  457MOL0     C60234   0.684   4.184   8.008 -0.5250  0.1090 -0.6007
  457MOL0     C60235   0.634   4.199   7.866  0.0051 -0.2294 -0.9603
  457MOL0    Cl60236   0.615   4.360   7.815 -0.1039  0.1699  0.3248
  457MOL0     C60237   1.451   4.409   8.469  0.2922 -0.6290  0.2986
  457MOL0     C60238   1.585   4.437   8.439 -0.3254  0.3177  0.5240
  457MOL0     O60239   1.857   4.525   8.582  0.0479 -0.4471  0.6394
  457MOL0     C60240   2.088   4.375   8.346  0.8548 -0.5120 -0.9054
  457MOL0     C60241   2.222   4.384   8.316 -0.0803 -0.3099  0.1432
  457MOL0     N60242   2.825   4.955   8.467 -0.3677  0.1914 -0.0120
  457MOL0     N60243   2.834   5.076   8.428  0.4845  0.9432  0.0649
  457MOL0     C60244   1.727   5.303   8.554 -0.6067 -0.2601  0.9241
  457MOL0     C60245   1.601   5.310   8.604  0.1455  0.1607 -0.3573
  457MOL0     C60246   1.156   5.370   8.628  0.6104 -0.2891  0.4085
  457MOL0     C60247   1.098   5.509   8.624  0.3993  0.9911  0.4571
  457MOL0     C60248   0.966   5.526   8.650  0.1005  0.9935  0.2023
  457MOL0     C60249   0.886   5.420   8.691  0.6289  0.1415 -0.3434
  457MOL0     O60250   0.750   5.443   8.723 -0.6793 -0.1672  0.2488
  457MOL0     C60251   0.655   5.422   8.619  0.2971  0.7406 -0.0090
  457MOL0     C60252   0.547   5.529   8.621  0.3073 -0.8158  0.3016
  457MOL0     C60253   0.453   5.514   8.747  0.7991  0.2632 -0.4148
  457MOL0     C60254   0.329   5.586   8.719  0.0747  0.5204 -0.4286
  457MOL0     C60255   0.234   5.559   8.825 -0.3187 -0.7351  0.9367
  457MOL0     C60256   0.144   5.561   8.903 -0.8410 -0.1200 -0.5606
  457MOL0     C60257   0.940   5.294   8.699 -0.6750 -0.0485  0.4382
  457MOL0     C60258   1.066   5.269   8.659 -0.4010  0.1586 -0.4861
  457MOL0     H60259   1.500   5.567   8.403  1.6584  1.8243  0.4275
  457MOL0     H60260   1.739   5.536   8.315  0.9017  1.7337  1.0983
  457MOL0     H60261   1.922   5.125   8.402 -0.0094  0.6502 -3.3563
  457MOL0     H60262   1.986   5.235   8.543 -0.8680  1.1699 -0.8048
  457MOL0     H60263   2.157   5.303   8.443 -0.0843 -1.0729  1.2208
  457MOL0     H60264   2.103   5.265   8.280 -0.8642  0.4810  0.1927
  457MOL0     H60265   2.159   5.019   8.347  2.5514 -1.2824  0.5192
  457MOL0     H60266   2.194   5.076   8.511 -1.2057  0.9293  0.1139
  457MOL0     H60267   2.376   5.199   8.460  0.3036 -0.5680  0.2779
  457MOL0     H60268   2.402   5.033   8.413  1.2548 -0.2064 -0.3448
  457MOL0     H60269   2.368   5.268   8.215 -2.2649 -0.1913 -0.7638
  457MOL0     H60270   2.314   5.119   8.169  2.8100 -3.8760 -1.8328
  457MOL0     H60271   2.550   5.097   8.098 -0.5073  0.8693  0.3770
  457MOL0     H60272   2.569   5.037   8.264 -0.7004  0.0404  0.7375
  457MOL0     H60273   2.601   5.328   8.197 -0.1347  0.0984  1.0184
  457MOL0     H60274   2.617   5.255   8.347 -0.9074 -0.6883 -0.1664
  457MOL0     H60275   2.837   5.283   8.229 -2.1216  1.7453  0.8848
  457MOL0     H60276   2.781   5.167   8.109  1.2261 -2.9461  1.0210
  457MOL0     H60277   2.811   4.913   8.147 -0.5431 -0.7716  0.2222
  457MOL0     H60278   2.880   4.695   8.453  0.1146 -2.8372 -1.5796
  457MOL0     H60279   2.858   4.690   8.274  0.5845  0.7272 -1.6465
  457MOL0     H60280   2.620   4.726   8.314 -0.7879 -2.6948 -0.6438
  457MOL0     H60281   2.654   4.736   8.494  0.1180  1.3085 -0.7629
  457MOL0     H60282   2.689   4.489   8.313 -2.1004 -1.1419 -0.5008
  457MOL0     H60283   2.731   4.505   8.490 -1.6850  0.6122  1.6248
  457MOL0     H60284   2.495   4.532   8.533 -0.1666  0.2655 -0.9732
  457MOL0     H60285   2.526   4.378   8.440  0.7253 -0.1315  0.7362
  457MOL0     H60286   2.305   4.660   8.489  1.2161 -0.0522 -1.8707
  457MOL0     H60287   2.062   4.646   8.550 -0.2508  2.3348 -3.3132
  457MOL0     H60288   1.707   4.126   8.481 -0.8894 -1.0431  1.1990
  457MOL0     H60289   1.490   4.084   8.578  1.1523 -0.1331  0.4336
  457MOL0     H60290   1.197   4.439   8.544  0.6500  0.9065  1.7576
  457MOL0     H60291   1.087   4.306   8.580 -0.0413 -0.9949  0.3448
  457MOL0     H60292   1.133   4.218   8.330  1.5745  0.4782 -1.4952
  457MOL0     H60293   1.201   4.380   8.301 -1.0674 -2.3516 -2.4375
  457MOL0     H60294   1.007   4.480   8.388  0.7812 -0.9593  1.4511
  457MOL0     H60295   0.931   4.317   8.402  0.6987 -0.1394  1.0444
  457MOL0     H60296   0.910   4.494   8.182  1.8831  1.0609 -1.6898
  457MOL0     H60297   1.038   4.384   8.135 -0.9987 -1.6130 -1.0924
  457MOL0     H60298   0.788   4.257   8.245 -0.9771 -1.4252  0.8607
  457MOL0     H60299   0.940   4.182   8.164  1.7699  1.6302  0.6032
  457MOL0     H60300   0.876   4.243   7.951 -2.5131  0.3141 -2.0629
  457MOL0     H60301   0.783   4.374   8.005  2.1166  1.5132  3.0324
  457MOL0     H60302   0.710   4.086   8.047  1.1023  0.6739 -0.1702
  457MOL0     H60303   0.605   4.231   8.069  0.6278 -0.5151  1.4596
  457MOL0     H60304   0.536   4.151   7.852 -1.1291  1.9628 -0.9307
  457MOL0     H60305   0.711   4.142   7.812 -0.8820 -1.3323 -1.1066
  457MOL0     H60306   1.379   4.489   8.478  2.0707  1.1300 -0.3553
  457MOL0     H60307   1.607   4.536   8.399 -0.1911 -0.4004 -1.2892
  457MOL0     H60308   2.028   4.294   8.305  3.3102 -3.2538  0.5394
  457MOL0     H60309   2.270   4.314   8.248  0.8653 -0.8750  1.3504
  457MOL0     H60310   1.787   5.223   8.594 -0.2570 -0.8098 -0.6171
  457MOL0     H60311   1.566   5.250   8.687 -1.1657  0.4191 -0.6959
  457MOL0     H60312   1.167   5.592   8.613 -1.1152  2.0828 -1.5690
  457MOL0     H60313   0.928   5.627   8.638  1.4564  1.2420 -3.2560
  457MOL0     H60314   0.603   5.326   8.634 -1.9154  2.0541  1.3877
  457MOL0     H60315   0.708   5.409   8.524  1.1273  1.6792  0.3226
  457MOL0     H60316   0.597   5.626   8.617 -3.0092  0.9813 -1.1589
  457MOL0     H60317   0.494   5.518   8.527  4.0731  0.6078 -2.2368
  457MOL0     H60318   0.511   5.554   8.831 -0.0687  0.8503 -0.0757
  457MOL0     H60319   0.418   5.414   8.774 -2.0732  1.8892  2.8158
  457MOL0     H60320   0.347   5.691   8.693  2.0376 -0.0064 -1.4227
  457MOL0     H60321   0.281   5.557   8.624 -0.1643  2.5009 -0.9535
  457MOL0     H60322   0.055   5.561   8.963 -0.2850  0.2874  0.2770
  457MOL0     H60323   0.889   5.211   8.747 -0.1645 -0.6510 -0.0423
  457MOL0     H60324   1.095   5.164   8.663 -1.0077  0.0131  0.3933
  458MOL0     O60325   0.261  10.740   4.325 -0.1120  0.5758  0.8104
  458MOL0     C60326   0.293  10.834   4.257  0.8345 -0.2944  0.8342
  458MOL0     O60327   0.216  10.957   4.251 -0.4305  0.0758 -0.6682
  458MOL0     C60328   0.086  10.958   4.300 -0.2870  0.5734 -0.5372
  458MOL0     C60329   0.070  10.991   4.429  0.3307 -0.0029 -0.3779
  458MOL0     C60330  -0.057  10.987   4.488  0.4060  0.7613  0.3284
  458MOL0     C60331  -0.165  10.930   4.411 -0.2219 -0.0976 -0.4996
  458MOL0     O60332  -0.294  10.926   4.451 -0.5424  0.1322 -0.0492
  458MOL0     C60333  -0.321  10.887   4.588 -0.2838 -0.1184 -0.1816
  458MOL0     C60334  -0.466  10.935   4.622  0.6952  0.0623  0.0207
  458MOL0     C60335  -0.494  11.085   4.585  0.5169 -0.4534  0.2834
  458MOL0     C60336  -0.634  11.116   4.637  0.0919 -0.3360  0.3544
  458MOL0     C60337  -0.679  11.251   4.576 -0.5574  0.3818  0.1278
  458MOL0     C60338  -0.807  11.295   4.648  0.1715  0.2297 -0.1490
  458MOL0     C60339  -0.840  11.448   4.667 -0.2915  0.4826  0.6255
  458MOL0     C60340  -0.814  11.552   4.554  0.5878 -0.1641 -0.2249
  458MOL0     N60341  -0.907  11.515   4.446  0.5358  0.3930  0.1923
  458MOL0     C60342  -1.038  11.546   4.455  1.1378  0.0465 -0.3415
  458MOL0     C60343  -1.090  11.519   4.331 -0.4173  0.0365  0.9650
  458MOL0     C60344  -1.223  11.542   4.283  0.1257  1.0141  0.2800
  458MOL0     C60345  -1.300  11.412   4.268  0.7678  1.4038  0.7154
  458MOL0     C60346  -1.356  11.356   4.396  0.5833  0.1338 -0.6527
  458MOL0     C60347  -1.486  11.272   4.375  0.3579  0.4944  0.6600
  458MOL0     O60348  -1.542  11.266   4.499  0.6039 -0.4408 -0.3278
  458MOL0     C60349  -1.670  11.204   4.506 -0.0100  0.2680  1.4333
  458MOL0     C60350  -1.722  11.180   4.632  0.1015  0.5408 -0.8566
  458MOL0     C60351  -1.856  11.149   4.661 -0.1125 -0.0081  0.4355
  458MOL0     C60352  -1.941  11.133   4.555  0.2639  0.8871  0.2547
  458MOL0     C60353  -2.081  11.097   4.573  0.6277 -0.4123 -0.4893
  458MOL0     O60354  -2.126  11.028   4.684 -0.6250  0.0132 -0.1498
  458MOL0     C60355  -2.240  10.961   4.660 -1.0122  1.2927 -0.3951
  458MOL0     C60356  -2.234  10.823   4.618 -0.2609 -0.2466 -0.3403
  458MOL0     C60357  -2.350  10.752   4.611 -0.4418  0.3383  0.3464
  458MOL0     C60358  -2.477  10.808   4.630  0.3253 -0.0106 -0.0365
  458MOL0     O60359  -2.587  10.725   4.617 -0.0991 -0.3919 -0.3984
  458MOL0     C60360  -2.731  10.771   4.624  0.3938 -0.1692 -0.4144
  458MOL0     C60361  -2.817  10.673   4.694  0.7606  0.7411  0.2326
  458MOL0     C60362  -2.741  10.588   4.801  0.2298  1.3684  0.9281
  458MOL0     C60363  -2.840  10.491   4.855 -1.6631  0.3436  0.3514
  458MOL0     C60364  -2.769  10.413   4.976 -0.1928  0.1985 -0.4360
  458MOL0     C60365  -2.815  10.263   4.976 -0.6736  0.0988  0.4241
  458MOL0     C60366  -2.747  10.176   5.089  0.7101 -0.0305 -0.1998
  458MOL0     C60367  -2.786  10.033   5.093 -0.1237 -1.1173  0.8764
  458MOL0    Cl60368  -2.682   9.951   5.223  0.4123 -0.0808  0.3345
  458MOL0     C60369  -2.477  10.943   4.661  0.0612 -0.5157  0.3473
  458MOL0     C60370  -2.360  11.022   4.666  0.4228  0.4898  0.0568
  458MOL0     O60371  -2.156  11.148   4.488  0.5560 -0.0333 -0.1584
  458MOL0     C60372  -1.893  11.149   4.428  0.7117 -0.6589  0.3881
  458MOL0     C60373  -1.755  11.174   4.399 -0.0559 -0.3264 -0.0731
  458MOL0     N60374  -0.997  11.460   4.255 -0.4158 -0.6021  0.0866
  458MOL0     N60375  -0.883  11.456   4.324 -0.0152 -0.2477 -0.1598
  458MOL0     C60376  -0.138  10.885   4.284  0.2300 -0.9023  0.1937
  458MOL0     C60377  -0.013  10.912   4.221  0.1897 -0.3663  1.2708
  458MOL0     C60378   0.421  10.843   4.179 -0.1896  0.0416 -0.0982
  458MOL0     C60379   0.520  10.733   4.167  0.2736 -1.2952  0.0627
  458MOL0     C60380   0.622  10.737   4.068 -0.3437 -0.1039  0.2042
  458MOL0     C60381   0.645  10.847   3.988  0.9220 -0.4879 -1.0775
  458MOL0     O60382   0.762  10.836   3.923 -0.4311  0.5309  0.0717
  458MOL0     C60383   0.782  10.877   3.791  1.3998  0.0717  0.2017
  458MOL0     C60384   0.925  10.927   3.763 -0.2328 -0.7317 -0.4062
  458MOL0     C60385   1.029  10.819   3.748  0.6382 -0.7785 -1.4072
  458MOL0     C60386   1.153  10.878   3.676 -0.6372 -0.3059  0.7515
  458MOL0     C60387   1.231  10.980   3.760 -0.7212  0.7110  0.0095
  458MOL0     C60388   1.288  11.070   3.821  1.3218  0.2544  0.2748
  458MOL0     C60389   0.561  10.956   4.009 -0.5194  0.0825  0.8349
  458MOL0     C60390   0.455  10.954   4.100  0.2445 -0.4623  0.3140
  458MOL0     H60391   0.157  11.016   4.488  0.0539  0.8926 -0.3234
  458MOL0     H60392  -0.074  11.018   4.591 -1.0928  1.0382  0.0081
  458MOL0     H60393  -0.252  10.933   4.660  0.9328 -2.4242  0.1974
  458MOL0     H60394  -0.312  10.779   4.603 -0.4543  0.0462  1.2322
  458MOL0     H60395  -0.480  10.932   4.730 -3.5737  1.1024 -0.3201
  458MOL0     H60396  -0.534  10.860   4.580  0.6267 -0.6678  1.4025
  458MOL0     H60397  -0.472  11.099   4.479 -2.2448  0.5428 -0.2346
  458MOL0     H60398  -0.424  11.153   4.635 -0.2592  0.8747 -0.3682
  458MOL0     H60399  -0.705  11.039   4.605  0.7194 -1.2339  1.0586
  458MOL0     H60400  -0.628  11.121   4.746  0.0649  1.6296  0.2892
  458MOL0     H60401  -0.680  11.241   4.467  3.7734 -1.8203  0.0495
  458MOL0     H60402  -0.603  11.326   4.604 -0.7394 -0.5412  3.4870
  458MOL0     H60403  -0.807  11.246   4.746  4.2774 -1.6837 -0.8827
  458MOL0     H60404  -0.884  11.252   4.584 -1.3598  1.0635  1.0483
  458MOL0     H60405  -0.945  11.452   4.697  0.0682  0.2166  1.9795
  458MOL0     H60406  -0.783  11.479   4.755 -0.7465  3.2853  0.0393
  458MOL0     H60407  -0.708  11.558   4.530  1.0861 -2.3468  1.1025
  458MOL0     H60408  -0.840  11.651   4.591  0.5926 -0.9935  2.1541
  458MOL0     H60409  -1.097  11.594   4.532 -1.1257 -0.4720 -1.6697
  458MOL0     H60410  -1.213  11.603   4.193  1.9614  1.9785  1.0858
  458MOL0     H60411  -1.275  11.619   4.342  0.4029  0.7651  0.8649
  458MOL0     H60412  -1.243  11.329   4.225 -1.4761 -2.2382  4.1501
  458MOL0     H60413  -1.389  11.432   4.207  0.8045  0.8487  0.4717
  458MOL0     H60414  -1.302  11.295   4.468  0.1831 -0.4271 -0.8230
  458MOL0     H60415  -1.385  11.437   4.463  0.7533 -1.0839  0.9427
  458MOL0     H60416  -1.461  11.176   4.328  1.1963  1.7559 -1.6836
  458MOL0     H60417  -1.543  11.327   4.300  0.3581  0.0791  0.3469
  458MOL0     H60418  -1.661  11.196   4.720 -2.0164 -2.1271  1.3004
  458MOL0     H60419  -1.894  11.144   4.763  0.2551 -2.4135  0.5137
  458MOL0     H60420  -2.143  10.766   4.604  1.1455  1.8058  0.0330
  458MOL0     H60421  -2.341  10.648   4.584 -0.1886  1.1289 -3.0556
  458MOL0     H60422  -2.773  10.784   4.524  0.1420  0.9487 -0.1794
  458MOL0     H60423  -2.742  10.871   4.668 -2.6372 -1.2373  1.5657
  458MOL0     H60424  -2.852  10.603   4.617 -0.8679  3.1492 -1.3712
  458MOL0     H60425  -2.896  10.738   4.734  0.5270  1.2986 -1.0611
  458MOL0     H60426  -2.709  10.650   4.886  2.4502 -1.6320  2.4634
  458MOL0     H60427  -2.660  10.545   4.740 -2.8796  0.1965 -2.7957
  458MOL0     H60428  -2.922  10.556   4.886  1.1447  3.4070  1.9914
  458MOL0     H60429  -2.878  10.418   4.783  2.2121 -1.4370 -0.1352
  458MOL0     H60430  -2.812  10.462   5.065 -2.6608 -0.8898 -0.9331
  458MOL0     H60431  -2.660  10.411   4.971 -0.0483  1.7068  1.1780
  458MOL0     H60432  -2.780  10.208   4.888  0.3592  1.5332 -0.1109
  458MOL0     H60433  -2.922  10.265   4.994 -0.8051  0.0364 -0.3097
  458MOL0     H60434  -2.639  10.178   5.070  1.2533 -1.0547  2.4188
  458MOL0     H60435  -2.756  10.217   5.190 -0.7523  0.1182 -0.3663
  458MOL0     H60436  -2.776   9.982   4.997  2.1197 -2.3995  1.7159
  458MOL0     H60437  -2.891  10.015   5.121  0.3505 -2.0267  2.2050
  458MOL0     H60438  -2.574  10.991   4.665 -0.4652 -1.4151 -1.0337
  458MOL0     H60439  -2.372  11.125   4.698  1.5879  0.9306 -0.8525
  458MOL0     H60440  -1.958  11.131   4.343  4.1034  1.2540 -2.9188
  458MOL0     H60441  -1.716  11.181   4.298 -3.1523 -1.7415 -1.5053
  458MOL0     H60442  -0.215  10.856   4.214  1.0085  1.4863 -1.7759
  458MOL0     H60443   0.007  10.889   4.117 -1.0635 -0.2765  0.9928
  458MOL0     H60444   0.512  10.646   4.231  3.4986  0.6397  3.5133
  458MOL0     H60445   0.683  10.647   4.068 -0.7976 -0.6234  4.5116
  458MOL0     H60446   0.705  10.952   3.769 -0.0072 -0.7527  2.0695
  458MOL0     H60447   0.766  10.797   3.718  2.3054 -1.6384  1.7847
  458MOL0     H60448   0.933  11.000   3.683  0.7797 -0.8802 -0.4543
  458MOL0     H60449   0.959  10.994   3.842  0.9323 -1.4125 -0.3104
  458MOL0     H60450   0.999  10.734   3.686 -0.3985 -2.7777  1.5881
  458MOL0     H60451   1.057  10.769   3.842  2.1409  0.4469 -1.1598
  458MOL0     H60452   1.220  10.797   3.645  0.1906  0.5475  0.2522
  458MOL0     H60453   1.136  10.929   3.581  0.0013 -0.4584  0.5459
  458MOL0     H60454   1.329  11.154   3.873  2.5215  0.1229 -0.4313
  458MOL0     H60455   0.590  11.045   3.955 -1.1422 -1.8958 -3.0777
  458MOL0     H60456   0.402  11.048   4.111 -0.9692 -1.1249  0.3205
  459MOL0     O60457   5.740   7.517   6.561  1.0515  1.2207 -0.0629
  459MOL0     C60458   5.624   7.558   6.556 -0.1147  0.0541  0.8514
  459MOL0     O60459   5.590   7.691   6.559  0.2931  0.0585  0.1751
  459MOL0     C60460   5.696   7.789   6.570 -0.2315 -0.6851  0.3194
  459MOL0     C60461   5.792   7.811   6.467 -0.1464  0.3578  0.5316
  459MOL0     C60462   5.887   7.912   6.485 -0.3451 -0.6127 -0.6881
  459MOL0     C60463   5.902   7.972   6.610 -0.1289 -0.6800 -0.3579
  459MOL0     O60464   6.009   8.059   6.638  0.0672  0.2470  1.0820
  459MOL0     C60465   6.122   7.988   6.707 -0.7629  0.3887  0.4371
  459MOL0     C60466   6.169   8.042   6.844 -0.4529  0.4986 -0.0307
  459MOL0     C60467   6.184   8.193   6.843  0.3519 -0.3588 -0.0243
  459MOL0     C60468   6.204   8.268   6.980 -0.4595 -0.1417  1.0163
  459MOL0     C60469   6.082   8.242   7.067  0.6733 -0.3969 -0.3288
  459MOL0     C60470   6.077   8.303   7.205 -0.4869 -0.1877  0.1022
  459MOL0     C60471   6.043   8.450   7.194  1.0728  0.0189 -0.3170
  459MOL0     C60472   5.994   8.523   7.331  0.1817 -0.5934 -0.0220
  459MOL0     N60473   5.848   8.549   7.323  0.5020  0.4751 -0.4403
  459MOL0     C60474   5.781   8.638   7.239 -0.5246 -0.3877 -0.2713
  459MOL0     C60475   5.658   8.637   7.294 -0.4404  0.3333 -1.2729
  459MOL0     C60476   5.547   8.730   7.255 -0.3757  1.4117 -0.0581
  459MOL0     C60477   5.458   8.645   7.161  0.2052 -0.2834 -0.3617
  459MOL0     C60478   5.322   8.706   7.140  0.8101 -0.3928 -0.0105
  459MOL0     C60479   5.219   8.662   7.246 -0.1778  0.1338  0.5540
  459MOL0     O60480   5.097   8.727   7.211  0.9787  0.1476 -0.2522
  459MOL0     C60481   4.989   8.692   7.275  0.0768 -0.1846 -0.3334
  459MOL0     C60482   4.954   8.559   7.318 -0.8086  0.3904 -0.3335
  459MOL0     C60483   4.831   8.535   7.369  0.7354 -0.5333  0.2575
  459MOL0     C60484   4.735   8.639   7.405 -0.5852  0.5688 -0.1455
  459MOL0     C60485   4.605   8.611   7.472 -0.5768 -0.0946 -0.3318
  459MOL0     O60486   4.514   8.721   7.488 -0.3913 -0.8608  0.1252
  459MOL0     C60487   4.381   8.693   7.486  0.2527  0.0534 -0.3306
  459MOL0     C60488   4.325   8.600   7.573 -0.8687  0.7244  0.6645
  459MOL0     C60489   4.194   8.560   7.560 -0.1811  0.7018  0.4335
  459MOL0     C60490   4.104   8.620   7.476 -0.7635 -0.6266  0.8853
  459MOL0     O60491   3.973   8.584   7.481 -0.5418 -0.4205  0.5150
  459MOL0     C60492   3.865   8.648   7.415 -0.1621 -0.8434  0.4033
  459MOL0     C60493   3.738   8.603   7.489 -0.2607  0.8244  0.8471
  459MOL0     C60494   3.626   8.684   7.418  0.0400 -0.5229  0.1036
  459MOL0     C60495   3.492   8.640   7.462  0.4339 -0.3115  0.4612
  459MOL0     C60496   3.386   8.730   7.406  0.7191 -0.6558  0.3299
  459MOL0     C60497   3.384   8.869   7.458  0.2942  0.9331 -0.1112
  459MOL0     C60498   3.271   8.955   7.406 -0.7389 -0.4761  0.3805
  459MOL0     C60499   3.130   8.923   7.454 -0.5075  0.8112  0.2620
  459MOL0    Cl60500   3.016   9.038   7.371 -0.3461  0.0610  0.1026
  459MOL0     C60501   4.160   8.720   7.393 -1.2719 -0.2378 -0.1503
  459MOL0     C60502   4.293   8.757   7.399 -0.9272  0.0053 -0.0276
  459MOL0     O60503   4.577   8.493   7.478 -1.2548 -0.1889  0.8309
  459MOL0     C60504   4.779   8.760   7.369 -0.0615  0.0863  0.2968
  459MOL0     C60505   4.897   8.799   7.301  0.3146 -0.6082  0.2094
  459MOL0     N60506   5.650   8.553   7.403  0.3241 -0.6157 -0.1496
  459MOL0     N60507   5.762   8.495   7.415 -0.3916 -0.4737  0.2352
  459MOL0     C60508   5.803   7.947   6.715 -0.0423  0.0977  0.2765
  459MOL0     C60509   5.699   7.856   6.690 -0.1148 -0.1131  0.0959
  459MOL0     C60510   5.514   7.460   6.545 -0.8816 -0.1004 -0.2526
  459MOL0     C60511   5.540   7.321   6.535 -0.0855  0.0899  0.4136
  459MOL0     C60512   5.432   7.231   6.525 -0.1556  0.7882  0.4594
  459MOL0     C60513   5.295   7.271   6.531 -0.4949 -0.8304 -0.1476
  459MOL0     O60514   5.199   7.179   6.544 -0.1008  0.5817 -1.1154
  459MOL0     C60515   5.073   7.209   6.476 -0.1530 -0.3651  0.8694
  459MOL0     C60516   5.011   7.091   6.402 -0.6921  0.2426 -0.3330
  459MOL0     C60517   4.960   6.977   6.492 -0.3260 -1.5695  0.0710
  459MOL0     C60518   4.821   6.988   6.545  0.7972  0.5827  0.1403
  459MOL0     C60519   4.718   6.934   6.452 -0.2160  0.8495 -0.2071
  459MOL0     C60520   4.642   6.897   6.365 -0.0286  0.0524  0.2547
  459MOL0     C60521   5.277   7.403   6.536  0.2261 -0.0790  0.0042
  459MOL0     C60522   5.378   7.498   6.547 -0.1049  0.2356  0.3404
  459MOL0     H60523   5.784   7.761   6.371 -0.8332 -1.5925  1.5490
  459MOL0     H60524   5.962   7.933   6.410  1.2877 -3.0613  0.1444
  459MOL0     H60525   6.200   7.989   6.630 -2.1279 -2.8371 -1.2087
  459MOL0     H60526   6.098   7.882   6.723  0.0629  0.2617  0.8870
  459MOL0     H60527   6.269   8.001   6.861 -1.0627 -2.3240 -2.4267
  459MOL0     H60528   6.102   8.004   6.922  0.4180 -0.7392  0.1519
  459MOL0     H60529   6.102   8.244   6.790 -0.5107  0.6378  2.1621
  459MOL0     H60530   6.269   8.209   6.776 -0.9643  2.0630 -1.2732
  459MOL0     H60531   6.281   8.204   7.023 -0.8081 -0.4660  1.1590
  459MOL0     H60532   6.231   8.373   6.963  0.0645 -0.7903 -3.5357
  459MOL0     H60533   6.082   8.136   7.094 -1.0070  0.4794  3.9621
  459MOL0     H60534   5.986   8.257   7.016  0.7963  1.5120 -0.0761
  459MOL0     H60535   6.174   8.301   7.255  1.1355  2.7050 -2.5781
  459MOL0     H60536   6.004   8.263   7.277 -0.0552  2.6456  2.3154
  459MOL0     H60537   6.131   8.508   7.165  0.3966  0.2619 -1.9485
  459MOL0     H60538   5.960   8.466   7.125 -1.8946  0.4141  3.0441
  459MOL0     H60539   6.026   8.626   7.350 -3.1646  0.1363  2.5906
  459MOL0     H60540   6.034   8.466   7.415  0.6501  0.1648  0.2862
  459MOL0     H60541   5.813   8.698   7.155 -1.6338  0.7234  0.0800
  459MOL0     H60542   5.574   8.821   7.202 -2.5326  0.5023 -2.9897
  459MOL0     H60543   5.499   8.762   7.348  2.4489  1.7226  1.4041
  459MOL0     H60544   5.447   8.547   7.208 -1.7761  0.1742  0.2092
  459MOL0     H60545   5.495   8.643   7.058 -1.1230  3.0947 -1.0649
  459MOL0     H60546   5.328   8.815   7.148 -1.9850  0.0370 -2.1839
  459MOL0     H60547   5.285   8.677   7.042  2.6408 -0.8408 -0.6107
  459MOL0     H60548   5.252   8.708   7.340 -4.4770  0.2604  2.1832
  459MOL0     H60549   5.218   8.554   7.259  0.7316  0.1343  0.7137
  459MOL0     H60550   5.016   8.474   7.293  0.9049  1.5604 -0.2620
  459MOL0     H60551   4.802   8.431   7.379 -4.1814  0.5641 -0.3410
  459MOL0     H60552   4.400   8.575   7.647 -0.3049 -0.9719 -0.4118
  459MOL0     H60553   4.160   8.492   7.638  1.4725 -0.6091  0.0489
  459MOL0     H60554   3.858   8.616   7.311  0.0997  1.2541 -0.3094
  459MOL0     H60555   3.884   8.756   7.408  2.0940 -1.1802  0.5908
  459MOL0     H60556   3.739   8.620   7.597  1.9133  2.5922  0.6130
  459MOL0     H60557   3.744   8.495   7.467  3.2180  0.4676  2.8252
  459MOL0     H60558   3.631   8.659   7.312 -0.9867 -3.3332  0.6349
  459MOL0     H60559   3.650   8.789   7.437 -1.2613 -0.3097  0.6927
  459MOL0     H60560   3.462   8.535   7.449 -0.3459  0.0322 -0.6456
  459MOL0     H60561   3.486   8.653   7.570  1.5935  0.1247  0.4782
  459MOL0     H60562   3.288   8.689   7.434  1.7658 -3.3781  0.3292
  459MOL0     H60563   3.387   8.737   7.296 -2.6832  1.5689  0.3083
  459MOL0     H60564   3.474   8.926   7.433 -0.6437  2.5095 -0.0236
  459MOL0     H60565   3.377   8.860   7.567 -4.3472  0.0843 -0.2659
  459MOL0     H60566   3.288   9.054   7.448  0.2952  0.4697 -2.0774
  459MOL0     H60567   3.270   8.964   7.297  0.6215 -1.1610  0.2909
  459MOL0     H60568   3.115   8.922   7.562 -2.1477 -4.0534  0.2457
  459MOL0     H60569   3.106   8.825   7.413 -0.7827  0.5043  1.1272
  459MOL0     H60570   4.092   8.762   7.319 -3.2454 -1.8284  0.6545
  459MOL0     H60571   4.336   8.825   7.327  0.0436  0.4538  0.9446
  459MOL0     H60572   4.709   8.841   7.387 -1.9222 -1.0728 -1.2853
  459MOL0     H60573   4.921   8.900   7.268 -0.9646 -0.0656  0.8803
  459MOL0     H60574   5.807   7.987   6.816  1.7627 -4.3413  2.2522
  459MOL0     H60575   5.626   7.817   6.761  2.3203 -0.9699  2.3100
  459MOL0     H60576   5.643   7.287   6.537  0.4517  1.3517 -2.4241
  459MOL0     H60577   5.453   7.126   6.506 -1.4504  0.3477  1.3773
  459MOL0     H60578   5.085   7.286   6.399 -0.7134 -0.9384  0.1771
  459MOL0     H60579   5.006   7.257   6.547  0.2960  0.8956  0.4678
  459MOL0     H60580   4.934   7.153   6.356  0.7428  1.8523 -0.6704
  459MOL0     H60581   5.085   7.046   6.334  0.3857  0.5395  0.6153
  459MOL0     H60582   5.029   6.970   6.576 -1.1118 -2.0548  0.6930
  459MOL0     H60583   4.968   6.885   6.433  0.0799 -0.0191 -2.4572
  459MOL0     H60584   4.813   6.932   6.638 -0.9138  1.8071  0.7669
  459MOL0     H60585   4.798   7.094   6.559  2.3731  1.0010 -0.1754
  459MOL0     H60586   4.578   6.862   6.288 -0.3623  0.0493  0.5338
  459MOL0     H60587   5.180   7.450   6.529  0.3419 -0.0258 -1.7721
  459MOL0     H60588   5.351   7.599   6.577  0.9548  0.9551 -0.9816
  460MOL0     O60589   0.314   2.153   0.635  0.0785 -0.2886 -0.1602
  460MOL0     C60590   0.324   2.114   0.519  0.0359  0.4515 -0.2807
  460MOL0     O60591   0.217   2.095   0.435  1.0798  0.3641 -0.5489
  460MOL0     C60592   0.099   2.077   0.500  0.4908 -0.9597 -0.3538
  460MOL0     C60593   0.042   2.188   0.554  0.2158  0.3456 -0.4690
  460MOL0     C60594  -0.072   2.172   0.639  0.5360  0.4358  0.2835
  460MOL0     C60595  -0.133   2.041   0.659  0.3337  0.1862  0.0494
  460MOL0     O60596  -0.231   2.019   0.745  0.6892  0.5241 -1.3420
  460MOL0     C60597  -0.199   2.036   0.885  0.1017 -0.0309  0.2462
  460MOL0     C60598  -0.328   2.062   0.972  0.4974  0.0184 -1.1211
  460MOL0     C60599  -0.450   1.972   0.952  0.5139 -0.0848  0.0345
  460MOL0     C60600  -0.544   1.989   1.070  0.1649  0.6717 -0.3446
  460MOL0     C60601  -0.689   1.933   1.042  0.3815 -0.7079  0.2366
  460MOL0     C60602  -0.777   1.939   1.170 -0.5180  0.3362 -0.3976
  460MOL0     C60603  -0.923   1.895   1.156 -0.5236  0.7674  0.4714
  460MOL0     C60604  -0.990   1.831   1.272  0.3567  0.3537 -0.4742
  460MOL0     N60605  -1.118   1.777   1.245 -0.0649  0.1841 -0.0436
  460MOL0     C60606  -1.151   1.676   1.160 -0.9727 -0.9289  0.2313
  460MOL0     C60607  -1.287   1.694   1.140  0.2249 -0.0246 -0.0264
  460MOL0     C60608  -1.388   1.602   1.071 -0.3967 -0.2819  0.2060
  460MOL0     C60609  -1.462   1.524   1.176 -0.6695  0.2140  0.6599
  460MOL0     C60610  -1.547   1.404   1.140  0.0947 -0.4454  0.5366
  460MOL0     C60611  -1.599   1.330   1.260 -0.3524 -0.2688 -0.7023
  460MOL0     O60612  -1.659   1.207   1.235 -1.1244  0.2277 -0.4818
  460MOL0     C60613  -1.781   1.199   1.286 -0.1200 -0.3919 -0.8886
  460MOL0     C60614  -1.820   1.075   1.352 -0.0245  0.0064  0.6339
  460MOL0     C60615  -1.945   1.051   1.416  0.0706  0.5437 -0.9637
  460MOL0     C60616  -2.040   1.158   1.405  0.2122  1.4523 -0.6381
  460MOL0     C60617  -2.180   1.119   1.453  0.0960  0.1482 -0.6032
  460MOL0     O60618  -2.288   1.199   1.427 -0.3579  0.6172  0.1232
  460MOL0     C60619  -2.404   1.174   1.493  0.1003 -0.1277  0.1493
  460MOL0     C60620  -2.484   1.279   1.524  0.9399  0.3138 -0.6527
  460MOL0     C60621  -2.606   1.263   1.584 -0.1253 -0.0519 -0.2177
  460MOL0     C60622  -2.651   1.143   1.623 -0.0524  0.6383 -0.9351
  460MOL0     O60623  -2.775   1.129   1.690  0.2257 -0.3149  0.4027
  460MOL0     C60624  -2.889   1.202   1.645  0.2177  0.2792 -0.4300
  460MOL0     C60625  -2.920   1.305   1.749 -0.5598  0.0817  0.4848
  460MOL0     C60626  -2.945   1.247   1.892  0.1439 -0.1242  0.7881
  460MOL0     C60627  -3.067   1.155   1.904  0.3592 -0.5820 -0.3504
  460MOL0     C60628  -3.201   1.226   1.877  0.6490 -0.1708 -0.2399
  460MOL0     C60629  -3.229   1.347   1.969  0.9473  0.4133 -0.1530
  460MOL0     C60630  -3.363   1.410   1.939 -0.0232  0.6604 -1.0335
  460MOL0     C60631  -3.404   1.510   2.038 -0.1698  0.2687 -0.5805
  460MOL0    Cl60632  -3.445   1.442   2.199  0.0336 -0.5940 -0.2943
  460MOL0     C60633  -2.568   1.032   1.604  0.4411 -0.3588 -0.2004
  460MOL0     C60634  -2.451   1.051   1.521 -0.7977  0.9351 -1.0949
  460MOL0     O60635  -2.168   1.037   1.545 -0.2885 -0.4681 -0.0463
  460MOL0     C60636  -2.005   1.271   1.329 -0.1590 -0.4801 -0.3238
  460MOL0     C60637  -1.881   1.291   1.274  0.9008 -0.2361 -0.0695
  460MOL0     N60638  -1.330   1.804   1.210  0.4347  0.3059  0.0586
  460MOL0     N60639  -1.228   1.848   1.276 -0.2955  0.9797  0.5910
  460MOL0     C60640  -0.087   1.938   0.574 -0.6709  0.2794  0.0595
  460MOL0     C60641   0.024   1.958   0.492 -0.9871 -0.1066 -0.0442
  460MOL0     C60642   0.463   2.096   0.463  0.5838  0.2599 -0.9472
  460MOL0     C60643   0.568   2.167   0.513 -0.1509 -0.7348 -0.7306
  460MOL0     C60644   0.699   2.140   0.474  0.9033  0.7542 -0.8127
  460MOL0     C60645   0.722   2.059   0.366 -0.1186  0.1688  0.8502
  460MOL0     O60646   0.842   2.069   0.309 -0.2322  0.0156  0.1303
  460MOL0     C60647   0.887   2.199   0.252 -0.5040 -1.2353 -0.3052
  460MOL0     C60648   1.042   2.193   0.256 -1.1845 -0.0972  0.4274
  460MOL0     C60649   1.113   2.171   0.391 -0.1724  0.2898  0.3221
  460MOL0     C60650   1.261   2.203   0.400  0.0881  0.9850  1.0191
  460MOL0     C60651   1.292   2.340   0.358  0.3662 -0.8072 -1.1738
  460MOL0     C60652   1.309   2.453   0.317  0.0453  0.5107  0.1888
  460MOL0     C60653   0.611   1.982   0.309 -0.4951  0.2682 -0.1765
  460MOL0     C60654   0.484   2.004   0.360 -1.3779 -0.3786 -0.0629
  460MOL0     H60655   0.095   2.283   0.546  3.6193 -1.4250 -0.8223
  460MOL0     H60656  -0.097   2.260   0.698  0.3794  0.2608  0.4808
  460MOL0     H60657  -0.130   2.119   0.900 -1.9962  1.2202  4.7821
  460MOL0     H60658  -0.151   1.947   0.927  0.2329 -0.0846 -0.0203
  460MOL0     H60659  -0.366   2.157   0.934  2.5984  1.5900  0.5010
  460MOL0     H60660  -0.293   2.074   1.075  0.5801  0.7315 -1.2276
  460MOL0     H60661  -0.424   1.868   0.928  1.7010  0.1261  0.2971
  460MOL0     H60662  -0.514   2.004   0.870 -2.7731 -4.7113  0.3874
  460MOL0     H60663  -0.516   1.934   1.160 -0.2023  2.7668  1.1246
  460MOL0     H60664  -0.558   2.096   1.088  1.2650  0.9310 -0.9716
  460MOL0     H60665  -0.675   1.833   1.000  3.1640  0.1313 -1.0875
  460MOL0     H60666  -0.735   1.987   0.959  0.0428 -2.5407 -0.8352
  460MOL0     H60667  -0.787   2.038   1.216 -3.2277  1.0124 -2.2208
  460MOL0     H60668  -0.737   1.871   1.246 -1.7285 -1.4363 -1.2954
  460MOL0     H60669  -0.986   1.976   1.118  0.9425  0.7499 -2.2557
  460MOL0     H60670  -0.923   1.833   1.066 -1.5449  2.6050 -0.8670
  460MOL0     H60671  -1.003   1.903   1.353  1.0086 -0.8020  0.7080
  460MOL0     H60672  -0.927   1.753   1.317  0.4480  1.3269  1.1846
  460MOL0     H60673  -1.095   1.599   1.107 -2.6044  0.2058 -3.4795
  460MOL0     H60674  -1.337   1.523   1.016 -2.0954 -1.0796 -0.2840
  460MOL0     H60675  -1.460   1.651   1.005 -0.5887 -0.9122 -0.0665
  460MOL0     H60676  -1.526   1.595   1.228  0.7935  1.6130  0.6309
  460MOL0     H60677  -1.393   1.484   1.251 -2.1227 -2.0309  0.9114
  460MOL0     H60678  -1.630   1.451   1.087 -0.7938 -0.2945  2.0202
  460MOL0     H60679  -1.496   1.335   1.072 -2.8438  1.1189 -3.6968
  460MOL0     H60680  -1.655   1.389   1.334  0.7650 -2.3492  1.9996
  460MOL0     H60681  -1.506   1.319   1.316  0.4161  0.3468 -1.8282
  460MOL0     H60682  -1.745   0.998   1.348  0.5315  0.5240  0.8962
  460MOL0     H60683  -1.960   0.954   1.462  0.2983  1.5844  1.4417
  460MOL0     H60684  -2.445   1.378   1.505  0.3786  0.5712 -0.4939
  460MOL0     H60685  -2.673   1.345   1.607 -0.8688 -1.2205  2.1208
  460MOL0     H60686  -2.980   1.142   1.645  0.0706  0.4758 -1.3329
  460MOL0     H60687  -2.882   1.242   1.543  1.6879 -1.7298 -1.1898
  460MOL0     H60688  -3.003   1.361   1.704  0.4732 -0.2560 -2.0403
  460MOL0     H60689  -2.838   1.379   1.747  0.3166 -0.7786  2.2381
  460MOL0     H60690  -2.944   1.338   1.952 -3.9375  4.4022 -4.9182
  460MOL0     H60691  -2.858   1.184   1.911  0.9175  0.9842  0.9877
  460MOL0     H60692  -3.062   1.064   1.843 -0.8602  0.1161 -1.5457
  460MOL0     H60693  -3.063   1.130   2.010  2.4956  0.9420  0.0034
  460MOL0     H60694  -3.282   1.153   1.882  1.3801 -0.9727 -0.0172
  460MOL0     H60695  -3.211   1.262   1.774  1.2548 -0.5635 -0.4362
  460MOL0     H60696  -3.151   1.423   1.967  2.0912 -0.6464  1.6498
  460MOL0     H60697  -3.209   1.308   2.069 -0.4142  1.0981  0.4170
  460MOL0     H60698  -3.349   1.463   1.844 -0.3375  1.3795 -0.6779
  460MOL0     H60699  -3.436   1.330   1.921  2.5050 -1.8134 -1.1022
  460MOL0     H60700  -3.498   1.551   1.999 -0.7046  0.4688  0.8515
  460MOL0     H60701  -3.344   1.601   2.049  1.0711 -0.2748 -2.4332
  460MOL0     H60702  -2.592   0.933   1.643  2.9879 -0.2611  1.9172
  460MOL0     H60703  -2.397   0.969   1.475 -0.6363  0.0337  0.6038
  460MOL0     H60704  -2.080   1.348   1.311  0.7887  0.6006  0.2156
  460MOL0     H60705  -1.862   1.387   1.227 -1.1290  0.2296 -0.0183
  460MOL0     H60706  -0.138   1.843   0.564 -0.2473  0.1649 -1.1893
  460MOL0     H60707   0.066   1.880   0.430 -3.0550 -2.2384  1.0690
  460MOL0     H60708   0.555   2.236   0.595  0.6186 -0.0795 -1.1474
  460MOL0     H60709   0.775   2.199   0.526 -1.3739  3.0219  0.1360
  460MOL0     H60710   0.846   2.293   0.290 -2.4847 -1.3857 -1.8878
  460MOL0     H60711   0.861   2.196   0.146 -0.6251 -2.5029 -0.2511
  460MOL0     H60712   1.088   2.122   0.187  3.7146  3.1704 -0.1902
  460MOL0     H60713   1.090   2.278   0.208  1.5300 -2.9540 -2.4528
  460MOL0     H60714   1.103   2.065   0.416 -0.1893 -0.1666 -1.5127
  460MOL0     H60715   1.062   2.233   0.465 -1.9108  0.4195 -0.9292
  460MOL0     H60716   1.296   2.189   0.503 -2.4880  0.3547  1.8631
  460MOL0     H60717   1.329   2.133   0.351 -2.9437 -1.3983 -0.0820
  460MOL0     H60718   1.335   2.554   0.295 -2.0562  1.5318  1.9801
  460MOL0     H60719   0.622   1.920   0.220  2.5637  2.5451 -1.5730
  460MOL0     H60720   0.407   1.950   0.305  1.3569 -2.5353 -2.0456
  461MOL0     O60721   0.747   8.133   3.704  0.7003 -0.3114  0.5454
  461MOL0     C60722   0.758   8.049   3.783  0.2633  0.2395  0.1654
  461MOL0     O60723   0.675   7.938   3.793  0.2624 -0.2333 -0.2635
  461MOL0     C60724   0.544   7.967   3.805  0.7337  0.1101 -0.8131
  461MOL0     C60725   0.458   8.048   3.729  0.2531  0.0736  0.0123
  461MOL0     C60726   0.320   8.054   3.752  0.1947  0.0565  0.5632
  461MOL0     C60727   0.257   7.989   3.856 -0.0739  0.7811 -0.2176
  461MOL0     O60728   0.123   7.962   3.890  0.9684  0.6215 -0.7454
  461MOL0     C60729   0.037   7.941   3.782 -0.0211 -0.0148  0.4680
  461MOL0     C60730  -0.100   7.902   3.831  0.5371  0.1231  0.1932
  461MOL0     C60731  -0.191   8.030   3.823 -0.2387  1.1542 -0.0661
  461MOL0     C60732  -0.329   7.979   3.860 -0.3154  0.0217  0.8460
  461MOL0     C60733  -0.434   8.095   3.859 -0.2662  0.1362 -0.6701
  461MOL0     C60734  -0.476   8.135   3.718 -0.2435  0.3978  0.0958
  461MOL0     C60735  -0.598   8.226   3.721  0.7891  0.2300  0.7224
  461MOL0     C60736  -0.722   8.151   3.700  0.2630  0.1819 -0.2264
  461MOL0     N60737  -0.848   8.235   3.679 -0.0842  0.6403 -0.3724
  461MOL0     C60738  -0.917   8.305   3.775 -0.3919  0.4332 -0.8290
  461MOL0     C60739  -1.017   8.365   3.707  0.6499  0.3161 -0.3596
  461MOL0     C60740  -1.133   8.434   3.771 -0.1450 -0.8774 -0.2874
  461MOL0     C60741  -1.127   8.593   3.764 -1.2641 -0.5690 -0.2235
  461MOL0     C60742  -1.254   8.669   3.732 -1.1897 -0.3405  0.2710
  461MOL0     C60743  -1.356   8.667   3.849 -0.3574  0.3059  0.2622
  461MOL0     O60744  -1.490   8.684   3.795 -0.1868  0.7687 -0.3672
  461MOL0     C60745  -1.581   8.728   3.880 -0.2995 -0.0786 -0.1463
  461MOL0     C60746  -1.563   8.748   4.015  0.5329 -0.3984 -0.3612
  461MOL0     C60747  -1.677   8.792   4.090 -0.6318  0.0421 -0.4106
  461MOL0     C60748  -1.791   8.843   4.028  0.2237  0.6502  0.5034
  461MOL0     C60749  -1.909   8.897   4.099  0.1008  0.6400 -0.8890
  461MOL0     O60750  -1.892   8.886   4.237  0.2579 -0.5435 -0.3142
  461MOL0     C60751  -2.005   8.883   4.310 -0.1520 -0.3163  0.2897
  461MOL0     C60752  -2.037   8.766   4.375 -0.8261  0.7566 -0.0632
  461MOL0     C60753  -2.159   8.759   4.441 -0.1278  0.2753  0.3182
  461MOL0     C60754  -2.236   8.873   4.461 -0.5084  0.1526  0.1440
  461MOL0     O60755  -2.355   8.883   4.535 -0.4397  0.1634  0.3811
  461MOL0     C60756  -2.395   8.789   4.634 -0.0736  0.0408  0.2464
  461MOL0     C60757  -2.501   8.695   4.575 -0.5680  0.5828 -0.3201
  461MOL0     C60758  -2.571   8.628   4.690  0.7497  0.4245 -0.1821
  461MOL0     C60759  -2.684   8.710   4.763 -0.0041  0.0580  0.5459
  461MOL0     C60760  -2.784   8.791   4.679 -0.5942  0.6369 -0.2235
  461MOL0     C60761  -2.857   8.710   4.571 -0.6174  0.4843  0.0569
  461MOL0     C60762  -2.945   8.612   4.629 -0.5322 -0.2588  0.1114
  461MOL0     C60763  -3.054   8.566   4.546  0.2966  0.0368  0.2827
  461MOL0    Cl60764  -3.000   8.471   4.416 -0.3846  0.7292  0.0623
  461MOL0     C60765  -2.199   8.996   4.403 -0.2512  0.0566  0.4447
  461MOL0     C60766  -2.086   8.995   4.315 -0.3557 -0.7432  0.0515
  461MOL0     O60767  -2.011   8.933   4.048 -0.6526  0.7517 -0.7731
  461MOL0     C60768  -1.811   8.810   3.895 -0.9338 -0.4560 -0.1013
  461MOL0     C60769  -1.705   8.760   3.817 -0.2075 -0.6264  0.3022
  461MOL0     N60770  -1.012   8.333   3.573 -0.9894  0.5315  0.1380
  461MOL0     N60771  -0.917   8.250   3.560 -0.5642 -0.0498 -0.7355
  461MOL0     C60772   0.345   7.930   3.953  0.7483 -0.4439  0.8458
  461MOL0     C60773   0.489   7.919   3.927  0.8866 -0.4300  0.0792
  461MOL0     C60774   0.889   8.028   3.835 -1.3259  0.6353 -0.5049
  461MOL0     C60775   0.997   8.117   3.798 -0.1104  0.0316  0.0796
  461MOL0     C60776   1.121   8.104   3.857 -0.5124 -0.7124 -0.0280
  461MOL0     C60777   1.145   8.004   3.953 -0.2794 -0.1748  0.5941
  461MOL0     O60778   1.271   7.999   3.994 -0.5043  0.5136 -0.6582
  461MOL0     C60779   1.319   7.871   4.046  0.6449 -0.1536  1.3448
  461MOL0     C60780   1.471   7.882   4.084  0.8568 -0.2922 -0.3968
  461MOL0     C60781   1.528   7.743   4.133  0.0368 -0.0397  0.1234
  461MOL0     C60782   1.659   7.718   4.065 -0.0491 -0.1408  0.7014
  461MOL0     C60783   1.768   7.819   4.099  0.3595  0.2251  0.9458
  461MOL0     C60784   1.857   7.900   4.116  0.1370  0.5583 -0.4157
  461MOL0     C60785   1.046   7.911   3.982  0.4674 -0.1315  0.1144
  461MOL0     C60786   0.916   7.918   3.919  0.0665 -0.3058  0.3158
  461MOL0     H60787   0.479   8.091   3.631 -3.7584  0.0755 -1.0347
  461MOL0     H60788   0.259   8.103   3.677 -1.4506 -0.7545  1.3235
  461MOL0     H60789   0.084   7.867   3.716 -3.0775 -1.0960 -0.6813
  461MOL0     H60790   0.028   8.031   3.721 -0.6914 -0.0836  0.4575
  461MOL0     H60791  -0.096   7.870   3.935 -1.1158 -0.1436  0.1883
  461MOL0     H60792  -0.125   7.819   3.764  2.6269  1.5157 -2.5424
  461MOL0     H60793  -0.197   8.065   3.720  1.6478  0.0329 -0.5985
  461MOL0     H60794  -0.163   8.100   3.902 -2.0947 -0.9330  2.6370
  461MOL0     H60795  -0.365   7.905   3.788  0.1289  2.1175 -1.6745
  461MOL0     H60796  -0.338   7.935   3.960  0.9157  1.8644  1.8471
  461MOL0     H60797  -0.401   8.178   3.921 -2.0553  0.2765  0.1709
  461MOL0     H60798  -0.527   8.056   3.901 -0.3636  1.3361  0.2516
  461MOL0     H60799  -0.497   8.049   3.653 -1.7090  0.6248  0.2494
  461MOL0     H60800  -0.394   8.195   3.676 -0.5441 -0.4132 -1.7787
  461MOL0     H60801  -0.598   8.281   3.815 -0.8267 -1.4354  1.7475
  461MOL0     H60802  -0.584   8.296   3.637 -0.7431  0.3090  0.5134
  461MOL0     H60803  -0.737   8.091   3.790  1.9167 -1.2917 -0.8776
  461MOL0     H60804  -0.712   8.079   3.618 -0.2599 -0.5067  0.2996
  461MOL0     H60805  -0.890   8.309   3.880 -2.1019  1.5490 -0.4015
  461MOL0     H60806  -1.155   8.385   3.866 -3.7100 -2.6928 -1.8499
  461MOL0     H60807  -1.220   8.397   3.716  0.6304 -2.2096 -0.6761
  461MOL0     H60808  -1.060   8.619   3.683 -1.5931  1.0753  0.0007
  461MOL0     H60809  -1.088   8.626   3.861  0.3514 -2.8213 -0.0147
  461MOL0     H60810  -1.237   8.771   3.698 -2.3052 -0.1730  0.2095
  461MOL0     H60811  -1.293   8.604   3.654 -1.5660 -1.3875  1.2952
  461MOL0     H60812  -1.333   8.745   3.922  0.8268 -0.5958  0.8959
  461MOL0     H60813  -1.349   8.567   3.893 -1.3153 -1.2359 -2.8089
  461MOL0     H60814  -1.475   8.730   4.075 -0.5304 -0.5305  1.2203
  461MOL0     H60815  -1.661   8.800   4.197  1.2485 -0.1436 -0.6526
  461MOL0     H60816  -1.970   8.681   4.364 -0.6644  0.9738 -0.7683
  461MOL0     H60817  -2.197   8.670   4.491 -1.8560  2.0128  2.3362
  461MOL0     H60818  -2.455   8.847   4.704 -1.5116  0.7773 -1.5046
  461MOL0     H60819  -2.309   8.751   4.690 -0.5858 -0.7269  0.5190
  461MOL0     H60820  -2.446   8.621   4.516  3.5674  3.6531 -0.7725
  461MOL0     H60821  -2.569   8.757   4.515 -1.7663  0.0546  0.4509
  461MOL0     H60822  -2.492   8.602   4.762  2.0395  0.4542 -1.5510
  461MOL0     H60823  -2.614   8.535   4.654  0.1830 -0.2161  1.9564
  461MOL0     H60824  -2.748   8.641   4.818  1.2522  0.4323  2.5682
  461MOL0     H60825  -2.635   8.779   4.832 -0.0695  0.6391  0.0202
  461MOL0     H60826  -2.732   8.865   4.617 -0.9149  0.0799 -1.1691
  461MOL0     H60827  -2.856   8.851   4.735 -1.6556 -0.4242 -0.4323
  461MOL0     H60828  -2.790   8.644   4.516 -0.8172 -1.9041  2.4948
  461MOL0     H60829  -2.901   8.764   4.487 -1.5407  1.8093  1.3204
  461MOL0     H60830  -2.888   8.530   4.674 -1.8657  0.0471  2.5279
  461MOL0     H60831  -2.991   8.651   4.720 -3.3439 -3.5862  0.3112
  461MOL0     H60832  -3.106   8.652   4.503 -0.8865 -0.8163 -0.0472
  461MOL0     H60833  -3.136   8.507   4.590 -0.1041 -0.9536 -1.6969
  461MOL0     H60834  -2.251   9.091   4.408 -1.8301 -0.6624 -1.1114
  461MOL0     H60835  -2.069   9.087   4.261 -2.4549 -0.7657 -0.7203
  461MOL0     H60836  -1.899   8.836   3.837 -0.4605 -1.3639 -1.2825
  461MOL0     H60837  -1.714   8.750   3.709 -0.0300 -0.3978  0.2630
  461MOL0     H60838   0.309   7.884   4.045 -1.1391 -1.4941 -0.3433
  461MOL0     H60839   0.554   7.870   3.999  1.3073 -1.6100 -1.0627
  461MOL0     H60840   0.989   8.195   3.723  1.9165 -0.2755 -0.5248
  461MOL0     H60841   1.205   8.171   3.838 -1.9364  0.6110 -2.1131
  461MOL0     H60842   1.315   7.797   3.966 -0.8525  0.4443  0.8457
  461MOL0     H60843   1.259   7.831   4.129  1.0000  1.6544  2.5368
  461MOL0     H60844   1.531   7.930   4.006  1.4691  1.1830  0.9335
  461MOL0     H60845   1.482   7.956   4.164  0.5782  0.7908 -1.3251
  461MOL0     H60846   1.472   7.656   4.099  1.5237 -2.3789  3.2010
  461MOL0     H60847   1.544   7.738   4.241  2.3428 -3.5659 -0.2030
  461MOL0     H60848   1.701   7.621   4.097  1.8715  1.0593  2.0394
  461MOL0     H60849   1.643   7.713   3.957 -0.2700  3.0424  0.4927
  461MOL0     H60850   1.940   7.966   4.131 -0.0766  0.8129 -0.3465
  461MOL0     H60851   1.063   7.831   4.054 -3.5475 -1.1266  0.2146
  461MOL0     H60852   0.840   7.842   3.931 -0.8160  0.7699  1.9251
  462MOL0     O60853   8.839   4.085  10.788  0.2321 -0.3947  0.8894
  462MOL0     C60854   8.865   4.144  10.679  0.4530  0.1388 -0.1077
  462MOL0     O60855   8.768   4.163  10.583 -0.3954  0.1148  0.7265
  462MOL0     C60856   8.650   4.086  10.587 -0.3034 -0.7145  0.4512
  462MOL0     C60857   8.625   3.990  10.485  0.2847 -0.9086 -0.0636
  462MOL0     C60858   8.502   3.922  10.483 -0.2958  0.8722 -0.1192
  462MOL0     C60859   8.413   3.941  10.593 -0.2581 -0.1182 -0.7145
  462MOL0     O60860   8.290   3.883  10.603 -0.7487  0.3855  0.1154
  462MOL0     C60861   8.254   3.773  10.514  0.1608 -0.7156 -0.5836
  462MOL0     C60862   8.109   3.745  10.537 -0.8062 -0.3141  0.4226
  462MOL0     C60863   8.055   3.629  10.444  0.6416 -0.6951  0.2711
  462MOL0     C60864   7.908   3.595  10.491  0.0586  0.6353 -0.5912
  462MOL0     C60865   7.838   3.480  10.409 -0.9174 -0.4021 -0.1150
  462MOL0     C60866   7.791   3.516  10.269 -0.2783 -0.5837  0.2158
  462MOL0     C60867   7.741   3.653  10.230 -0.2333 -0.4232 -0.8435
  462MOL0     C60868   7.850   3.744  10.187 -0.3725 -0.2764  0.1122
  462MOL0     N60869   7.922   3.719  10.060 -0.4063  0.5886 -0.5346
  462MOL0     C60870   8.024   3.622  10.035  0.6299 -0.3891  0.5029
  462MOL0     C60871   8.087   3.672   9.928  0.2974  0.7308  0.3344
  462MOL0     C60872   8.213   3.620   9.864  0.3726 -0.0572 -0.1290
  462MOL0     C60873   8.318   3.716   9.916  0.4165 -0.7919 -0.0064
  462MOL0     C60874   8.459   3.685   9.869  0.1424 -0.1682  0.3915
  462MOL0     C60875   8.562   3.761   9.939  0.5995 -0.0749 -0.1418
  462MOL0     O60876   8.586   3.715  10.074  0.0731  0.0478  0.5293
  462MOL0     C60877   8.711   3.720  10.134  0.4791  0.4004 -0.6589
  462MOL0     C60878   8.719   3.667  10.265  0.4462  0.4336  0.1636
  462MOL0     C60879   8.839   3.691  10.345  0.6527 -0.1465 -0.9062
  462MOL0     C60880   8.952   3.759  10.285 -1.0120 -0.0035 -0.2122
  462MOL0     C60881   9.079   3.767  10.355  0.2494  0.1259 -0.1995
  462MOL0     O60882   9.151   3.862  10.313 -0.4954 -0.3177  0.1416
  462MOL0     C60883   9.267   3.893  10.384 -0.0136 -0.2572 -0.2670
  462MOL0     C60884   9.282   4.026  10.427  0.3812  0.4775  0.2036
  462MOL0     C60885   9.395   4.055  10.500 -0.0236  0.0437 -1.1653
  462MOL0     C60886   9.500   3.963  10.531  0.7643 -1.1989 -0.3457
  462MOL0     O60887   9.620   3.991  10.596 -0.2260 -0.8994  0.7904
  462MOL0     C60888   9.631   4.093  10.699 -0.1319  1.0769  0.3771
  462MOL0     C60889   9.734   4.202  10.665 -0.0286 -0.0354 -0.1143
  462MOL0     C60890   9.750   4.294  10.793  0.0038 -0.3265 -0.1386
  462MOL0     C60891   9.868   4.385  10.790 -0.1543  0.2403 -0.2211
  462MOL0     C60892   9.882   4.493  10.898  0.4922 -0.3205 -0.1722
  462MOL0     C60893  10.028   4.537  10.880  0.7465 -0.0347 -0.4034
  462MOL0     C60894  10.057   4.639  10.983 -0.2550  0.2625 -0.0539
  462MOL0     C60895  10.201   4.705  10.965  0.1012  0.1825  0.2433
  462MOL0    Cl60896  10.324   4.589  11.009 -0.3926 -0.2034  0.2291
  462MOL0     C60897   9.486   3.836  10.471 -0.4029 -1.0879  0.0240
  462MOL0     C60898   9.375   3.801  10.396  0.4107 -1.2373 -0.0016
  462MOL0     O60899   9.104   3.691  10.449  0.2953 -0.7718 -0.5181
  462MOL0     C60900   8.934   3.819  10.153 -0.5398  1.0943 -0.3088
  462MOL0     C60901   8.818   3.796  10.081 -0.0624  0.1034  0.6111
  462MOL0     N60902   8.004   3.761   9.860 -0.4348 -0.0508  0.1935
  462MOL0     N60903   7.919   3.796   9.951  0.2684 -0.9858 -0.4489
  462MOL0     C60904   8.436   4.038  10.694 -0.5352 -0.5268  0.3579
  462MOL0     C60905   8.552   4.122  10.685  0.2869  0.1318  0.7067
  462MOL0     C60906   8.990   4.211  10.655  0.1255  0.4636 -0.6690
  462MOL0     C60907   9.104   4.170  10.721 -0.6826 -0.6149 -1.1249
  462MOL0     C60908   9.221   4.244  10.710  0.0473 -0.5084  0.3594
  462MOL0     C60909   9.229   4.359  10.637 -0.3364 -1.2177  0.4328
  462MOL0     O60910   9.353   4.406  10.617 -0.2445 -0.1829 -0.2256
  462MOL0     C60911   9.365   4.500  10.507 -0.2871  0.5346  0.7526
  462MOL0     C60912   9.515   4.542  10.494  0.4944 -0.1108 -0.1464
  462MOL0     C60913   9.578   4.617  10.612 -0.1759 -0.3634  0.5085
  462MOL0     C60914   9.718   4.678  10.571  0.4518 -0.3278  0.1742
  462MOL0     C60915   9.787   4.760  10.679  0.1482  0.1305  0.5063
  462MOL0     C60916   9.844   4.844  10.749  0.3552 -0.6422  0.6755
  462MOL0     C60917   9.114   4.391  10.558  0.3259  0.1521  1.0587
  462MOL0     C60918   8.995   4.323  10.573 -0.1603  0.3327  0.8049
  462MOL0     H60919   8.705   3.963  10.417  0.5352  2.2659 -1.1847
  462MOL0     H60920   8.474   3.846  10.410  0.4728  0.4680 -0.0112
  462MOL0     H60921   8.317   3.685  10.531 -1.0858 -2.3542 -3.5170
  462MOL0     H60922   8.278   3.804  10.412  0.4600  1.9571  0.2249
  462MOL0     H60923   8.072   3.844  10.510  2.4739  0.6847 -0.9266
  462MOL0     H60924   8.092   3.713  10.640 -1.1576 -2.8264 -0.3520
  462MOL0     H60925   8.121   3.544  10.462 -0.1747 -2.3320 -3.5237
  462MOL0     H60926   8.065   3.644  10.336  0.1339  1.6807  0.4931
  462MOL0     H60927   7.916   3.562  10.595  0.9952 -1.5857 -1.2911
  462MOL0     H60928   7.843   3.680  10.472 -0.6874 -0.3250 -2.6556
  462MOL0     H60929   7.743   3.462  10.461 -1.9647 -1.5005 -2.2861
  462MOL0     H60930   7.895   3.386  10.409  1.0950  0.7574  0.8119
  462MOL0     H60931   7.715   3.441  10.243 -0.2264 -0.3481 -0.6448
  462MOL0     H60932   7.867   3.485  10.196 -0.4497  1.0884 -0.7145
  462MOL0     H60933   7.665   3.646  10.151  0.3905  1.7408 -1.7114
  462MOL0     H60934   7.689   3.703  10.312  3.3827  2.3983 -0.0334
  462MOL0     H60935   7.914   3.756  10.274  0.4743 -0.2160 -0.4996
  462MOL0     H60936   7.796   3.838  10.175 -0.6514 -0.5488 -0.9061
  462MOL0     H60937   8.049   3.543  10.105 -0.1252  0.5935  1.9425
  462MOL0     H60938   8.193   3.629   9.757 -0.6175 -0.1932  0.0399
  462MOL0     H60939   8.235   3.515   9.885 -0.7914 -0.4731 -0.9043
  462MOL0     H60940   8.328   3.712  10.025 -2.6706 -0.9961  0.3480
  462MOL0     H60941   8.288   3.819   9.894 -3.8145 -2.0024 -0.8853
  462MOL0     H60942   8.481   3.579   9.889  1.9769 -0.1447 -1.2106
  462MOL0     H60943   8.475   3.711   9.764  1.3194 -2.7416 -0.1503
  462MOL0     H60944   8.522   3.863   9.945  2.4615  0.6457  0.8128
  462MOL0     H60945   8.654   3.755   9.880 -0.9807  0.9349 -2.9327
  462MOL0     H60946   8.639   3.610  10.313  0.9832 -0.7090 -0.2696
  462MOL0     H60947   8.848   3.646  10.444 -0.5695 -0.2895 -0.8395
  462MOL0     H60948   9.202   4.096  10.404  0.4379  0.9646  1.4436
  462MOL0     H60949   9.413   4.158  10.528 -0.3096  0.1999 -1.5592
  462MOL0     H60950   9.664   4.042  10.790 -0.6264 -1.9601 -1.0244
  462MOL0     H60951   9.536   4.136  10.733 -0.2043  2.0389 -0.9715
  462MOL0     H60952   9.709   4.257  10.574  2.5661 -1.4978 -1.8274
  462MOL0     H60953   9.831   4.159  10.640 -0.1589  0.2027 -1.0642
  462MOL0     H60954   9.744   4.243  10.890  2.1437 -0.5379 -0.0795
  462MOL0     H60955   9.663   4.360  10.796  0.9248  1.0754 -2.2755
  462MOL0     H60956   9.953   4.319  10.807 -1.4282 -2.2596 -2.6691
  462MOL0     H60957   9.874   4.426  10.689 -0.4087 -1.4635 -0.9652
  462MOL0     H60958   9.865   4.440  10.992 -0.8185 -0.5725 -0.5330
  462MOL0     H60959   9.811   4.575  10.881  1.1574 -0.1466 -2.3991
  462MOL0     H60960  10.045   4.575  10.779  2.3002  0.0827 -0.1146
  462MOL0     H60961  10.095   4.460  10.919 -3.6756 -1.8998  4.8733
  462MOL0     H60962   9.987   4.723  10.968 -0.9704 -0.3888 -0.4262
  462MOL0     H60963  10.041   4.605  11.085  2.7170 -1.6714 -0.1386
  462MOL0     H60964  10.209   4.789  11.034 -0.2486  1.8520 -1.6580
  462MOL0     H60965  10.203   4.736  10.860 -4.8231  3.5542  0.8198
  462MOL0     H60966   9.572   3.770  10.479 -0.8652 -1.4644  2.7081
  462MOL0     H60967   9.369   3.711  10.336  0.0507  0.7472 -3.1271
  462MOL0     H60968   9.012   3.880  10.108  0.6886 -1.0283 -1.2185
  462MOL0     H60969   8.806   3.842   9.983 -2.5141 -1.0975  0.2621
  462MOL0     H60970   8.354   4.053  10.764 -1.3056  2.7594 -1.0705
  462MOL0     H60971   8.566   4.198  10.762 -3.5873 -1.9268  3.7965
  462MOL0     H60972   9.099   4.102  10.806  1.7436  1.1934  0.6078
  462MOL0     H60973   9.305   4.214  10.772 -0.7508 -2.2922  0.6422
  462MOL0     H60974   9.300   4.587  10.515  2.3654  2.7267  0.1123
  462MOL0     H60975   9.339   4.442  10.418 -3.5558  1.1501  1.1812
  462MOL0     H60976   9.569   4.450  10.474 -1.7723 -1.6826  0.6094
  462MOL0     H60977   9.525   4.605  10.405 -3.4426 -0.6148 -1.1250
  462MOL0     H60978   9.595   4.551  10.698 -0.4732 -2.3359 -0.8808
  462MOL0     H60979   9.516   4.704  10.639 -0.6271 -0.4884 -0.0971
  462MOL0     H60980   9.780   4.592  10.542 -1.4006 -2.1206  1.2417
  462MOL0     H60981   9.711   4.731  10.476  1.1101 -2.3228 -1.0399
  462MOL0     H60982   9.883   4.925  10.808 -0.1919  0.8031 -0.8643
  462MOL0     H60983   9.119   4.473  10.487  2.3759 -1.2459 -0.5252
  462MOL0     H60984   8.904   4.359  10.526  0.6046  0.1388 -0.8648
  463MOL0     O60985   9.412   8.868   3.566 -1.0515 -0.5289 -0.3128
  463MOL0     C60986   9.346   8.768   3.566 -0.4098 -0.1192 -0.1864
  463MOL0     O60987   9.395   8.638   3.532 -0.4435  0.4060  0.4468
  463MOL0     C60988   9.527   8.627   3.481 -0.1557  0.5371 -0.0623
  463MOL0     C60989   9.612   8.719   3.421  0.2990 -0.3377  0.1825
  463MOL0     C60990   9.747   8.685   3.393  1.1937  0.5263 -0.0214
  463MOL0     C60991   9.788   8.551   3.397 -0.2140  0.3125 -0.0318
  463MOL0     O60992   9.921   8.512   3.372  0.0693  0.9145 -0.1751
  463MOL0     C60993  10.012   8.619   3.371  0.0763  0.2510 -0.3166
  463MOL0     C60994  10.150   8.557   3.392 -0.1171  0.3015 -0.3166
  463MOL0     C60995  10.221   8.500   3.262  0.6542 -0.3043  0.2245
  463MOL0     C60996  10.268   8.612   3.170  0.3310  0.4285  0.0095
  463MOL0     C60997  10.384   8.585   3.078 -0.8010 -0.1824  0.5218
  463MOL0     C60998  10.357   8.480   2.966  0.3746  0.3238 -0.3355
  463MOL0     C60999  10.453   8.476   2.849  0.3906  0.0408  0.2040
  463MOL0     C61000  10.599   8.463   2.902 -0.3925 -0.5624  0.7329
  463MOL0     N61001  10.662   8.401   2.780  0.7302 -0.6031 -0.8199
  463MOL0     C61002  10.659   8.269   2.746  0.2127 -0.0361 -0.7567
  463MOL0     C61003  10.729   8.265   2.630  0.5739 -0.0046 -0.3921
  463MOL0     C61004  10.751   8.142   2.544  0.9467 -0.1447 -0.1654
  463MOL0     C61005  10.660   8.139   2.422  0.0752  0.1854 -0.1996
  463MOL0     C61006  10.736   8.125   2.293 -0.0893  0.1895 -0.6012
  463MOL0     C61007  10.814   8.256   2.260  0.4016  0.6147 -0.0008
  463MOL0     O61008  10.820   8.275   2.118  0.0178 -0.1217 -0.3562
  463MOL0     C61009  10.881   8.180   2.045  0.1903 -1.2396 -0.2437
  463MOL0     C61010  11.003   8.123   2.076  0.7954 -0.4067  0.1210
  463MOL0     C61011  11.049   8.019   1.996  0.5803 -0.2457  0.6736
  463MOL0     C61012  10.973   7.971   1.883  0.2184 -0.1865  0.4555
  463MOL0     C61013  11.016   7.849   1.805 -0.4681  0.9534  0.7733
  463MOL0     O61014  11.149   7.825   1.811  0.2408  0.2281 -0.7512
  463MOL0     C61015  11.200   7.719   1.744  0.0674 -0.3051  0.6401
  463MOL0     C61016  11.172   7.593   1.791 -0.9840 -0.2523  0.3950
  463MOL0     C61017  11.231   7.482   1.729 -0.2511  0.0804  0.2740
  463MOL0     C61018  11.304   7.491   1.609  0.2466  1.1065 -0.4815
  463MOL0     O61019  11.369   7.375   1.564  0.8543  0.0317 -0.1837
  463MOL0     C61020  11.405   7.385   1.426  0.5102  0.2794 -0.1118
  463MOL0     C61021  11.499   7.279   1.375  0.6359 -0.3950  0.4616
  463MOL0     C61022  11.509   7.273   1.216 -0.4364  0.0547 -0.6915
  463MOL0     C61023  11.548   7.413   1.160 -0.4013 -0.0554 -0.2810
  463MOL0     C61024  11.606   7.397   1.017  0.8024  0.3477 -0.3170
  463MOL0     C61025  11.500   7.353   0.919  0.0666  0.4779  0.8525
  463MOL0     C61026  11.546   7.340   0.783 -1.3124  0.3305  0.0642
  463MOL0     C61027  11.444   7.351   0.670  0.3744  0.0096  0.1165
  463MOL0    Cl61028  11.272   7.280   0.715 -0.0191  0.0782  0.0175
  463MOL0     C61029  11.332   7.614   1.559 -1.5020 -0.1934  0.1885
  463MOL0     C61030  11.292   7.733   1.628  0.8080  0.2797  1.0745
  463MOL0     O61031  10.929   7.778   1.754 -0.3295 -0.0849 -0.2901
  463MOL0     C61032  10.853   8.043   1.846 -0.5787  0.1565 -0.3942
  463MOL0     C61033  10.811   8.150   1.934 -0.6524 -0.0234  0.4908
  463MOL0     N61034  10.788   8.386   2.607  0.8469 -0.0212  0.4462
  463MOL0     N61035  10.745   8.467   2.697  0.6843  0.7958  0.4703
  463MOL0     C61036   9.707   8.450   3.446  0.9037 -0.4867  0.1932
  463MOL0     C61037   9.575   8.493   3.493  0.7240  0.0331  0.5304
  463MOL0     C61038   9.203   8.791   3.561 -0.2421 -0.3767  0.1416
  463MOL0     C61039   9.114   8.682   3.528  0.5353 -0.3247 -0.8206
  463MOL0     C61040   8.981   8.701   3.531  0.3215 -0.2325  0.5262
  463MOL0     C61041   8.926   8.819   3.585 -0.0154 -0.8729 -0.3374
  463MOL0     O61042   8.791   8.841   3.587 -0.8752  0.7498 -0.7117
  463MOL0     C61043   8.697   8.732   3.595  0.9871 -0.1994 -0.6450
  463MOL0     C61044   8.630   8.703   3.453  0.5176 -0.6756 -0.2149
  463MOL0     C61045   8.556   8.826   3.413  0.0632 -0.5295 -0.3185
  463MOL0     C61046   8.437   8.803   3.317 -0.6494  0.2826 -0.0117
  463MOL0     C61047   8.384   8.934   3.278  0.4634  0.1029 -0.1881
  463MOL0     C61048   8.338   9.046   3.244  0.0057 -0.0683 -0.2194
  463MOL0     C61049   9.012   8.920   3.613 -0.6018  0.0864  0.5860
  463MOL0     C61050   9.150   8.908   3.615  0.2113  0.2411  0.3480
  463MOL0     H61051   9.595   8.826   3.412 -0.9530 -0.5344 -0.0000
  463MOL0     H61052   9.815   8.747   3.335  1.8984 -1.3362 -1.2922
  463MOL0     H61053  10.001   8.686   3.456  0.7156 -2.8866  2.4574
  463MOL0     H61054  10.017   8.673   3.276  0.4455  3.9825  1.6382
  463MOL0     H61055  10.139   8.476   3.465  1.7533  1.2850  1.1682
  463MOL0     H61056  10.211   8.634   3.440  1.5909 -0.8408 -0.5228
  463MOL0     H61057  10.149   8.439   3.207  0.8135  0.2204 -0.6018
  463MOL0     H61058  10.311   8.443   3.286  1.3339 -0.3554 -2.1152
  463MOL0     H61059  10.178   8.647   3.118  0.2052 -0.2448 -0.2426
  463MOL0     H61060  10.294   8.695   3.236  0.7367 -0.0977  0.5286
  463MOL0     H61061  10.470   8.562   3.141 -1.3613 -0.2845  1.2666
  463MOL0     H61062  10.412   8.679   3.029  1.3518 -0.4607  1.1369
  463MOL0     H61063  10.258   8.489   2.919  0.1989  1.0180  0.1590
  463MOL0     H61064  10.365   8.378   3.004  1.8990  0.1565 -1.0506
  463MOL0     H61065  10.426   8.396   2.779  1.8977 -2.5712  2.3744
  463MOL0     H61066  10.442   8.565   2.788  1.2411  0.3765  0.5264
  463MOL0     H61067  10.608   8.390   2.983  0.6362 -3.3241 -1.6805
  463MOL0     H61068  10.646   8.560   2.921  1.0175 -1.2153  0.7356
  463MOL0     H61069  10.588   8.197   2.786  0.8488  0.3919  1.2371
  463MOL0     H61070  10.738   8.045   2.593 -3.8468 -1.1628 -2.8430
  463MOL0     H61071  10.857   8.151   2.518  0.5702  1.2131 -1.3490
  463MOL0     H61072  10.592   8.224   2.428 -0.6445 -0.4443  4.3442
  463MOL0     H61073  10.597   8.049   2.423  0.1577  0.1133 -0.9364
  463MOL0     H61074  10.802   8.038   2.296 -1.1567 -0.8614 -3.4251
  463MOL0     H61075  10.661   8.107   2.215 -1.4472  0.7232  0.5425
  463MOL0     H61076  10.914   8.244   2.303 -0.0622 -1.6958  0.5462
  463MOL0     H61077  10.756   8.340   2.299  1.1514  2.4778 -2.5716
  463MOL0     H61078  11.061   8.167   2.156  1.6466  0.1956 -0.8119
  463MOL0     H61079  11.142   7.965   2.008 -0.2084 -1.7033  0.4599
  463MOL0     H61080  11.105   7.572   1.874 -0.7431 -1.1293  0.3679
  463MOL0     H61081  11.200   7.388   1.775 -1.8936  0.1870 -0.5494
  463MOL0     H61082  11.475   7.468   1.413  2.7094 -1.4465  0.1457
  463MOL0     H61083  11.315   7.399   1.366  0.9940  1.2409 -0.6498
  463MOL0     H61084  11.465   7.179   1.404 -0.2627 -0.3910 -0.4987
  463MOL0     H61085  11.595   7.281   1.428  0.8531  0.4226  0.0535
  463MOL0     H61086  11.415   7.236   1.174 -0.6386  0.9845 -1.0868
  463MOL0     H61087  11.585   7.197   1.192 -0.4383  0.0074 -0.5493
  463MOL0     H61088  11.453   7.467   1.151 -1.5173 -2.0081 -0.7280
  463MOL0     H61089  11.618   7.477   1.215 -1.6281 -0.2318  1.5860
  463MOL0     H61090  11.695   7.333   1.011  1.8036  1.7608 -1.1674
  463MOL0     H61091  11.643   7.495   0.986  0.8285  0.6965  0.7874
  463MOL0     H61092  11.409   7.413   0.926 -2.4738 -2.8955 -0.2022
  463MOL0     H61093  11.461   7.254   0.946 -1.7086  0.2475 -2.0824
  463MOL0     H61094  11.631   7.407   0.767  0.9658 -2.5687 -1.0001
  463MOL0     H61095  11.581   7.238   0.765 -2.6721  0.1472 -1.8051
  463MOL0     H61096  11.480   7.300   0.580  3.1965 -0.2624  1.3037
  463MOL0     H61097  11.438   7.457   0.645 -1.7804 -0.7187 -3.1423
  463MOL0     H61098  11.393   7.625   1.469 -3.9949  0.0087 -1.5820
  463MOL0     H61099  11.311   7.836   1.601 -2.4907  1.6992  3.5378
  463MOL0     H61100  10.789   8.016   1.762  0.3906 -2.8721 -0.2637
  463MOL0     H61101  10.725   8.210   1.906 -0.7150 -0.5406 -0.4871
  463MOL0     H61102   9.740   8.346   3.454 -1.4003 -1.2178  1.1724
  463MOL0     H61103   9.519   8.413   3.542 -1.1872  0.9480 -0.0718
  463MOL0     H61104   9.160   8.586   3.509 -2.0812 -1.4190 -1.9242
  463MOL0     H61105   8.915   8.628   3.486  0.3125  0.1506 -0.0852
  463MOL0     H61106   8.629   8.772   3.670  1.8604 -0.9851  0.6008
  463MOL0     H61107   8.735   8.637   3.632 -1.6234 -0.4781  1.5673
  463MOL0     H61108   8.698   8.676   3.372  2.7148  0.4481  1.1716
  463MOL0     H61109   8.559   8.620   3.464  3.0363 -2.7940  1.4475
  463MOL0     H61110   8.634   8.885   3.363  1.7083 -3.2734 -1.2605
  463MOL0     H61111   8.529   8.883   3.502  3.0294 -1.3878  1.2673
  463MOL0     H61112   8.458   8.737   3.232  1.3890  1.4709 -0.5133
  463MOL0     H61113   8.351   8.757   3.367 -2.2131  0.0940 -2.6981
  463MOL0     H61114   8.304   9.142   3.210  0.3816  0.1490  0.0092
  463MOL0     H61115   8.979   9.013   3.658 -0.6205  0.9877 -1.1798
  463MOL0     H61116   9.219   8.984   3.651 -1.3334  2.3658 -0.9300
  464MOL0     O61117   8.533   1.988   5.490 -0.9865  0.0410 -0.4481
  464MOL0     C61118   8.540   1.879   5.434  0.2720 -0.0441 -0.4843
  464MOL0     O61119   8.491   1.852   5.317 -1.0348 -0.4347 -0.4795
  464MOL0     C61120   8.456   1.961   5.242 -0.0878  0.0941  0.1998
  464MOL0     C61121   8.328   1.949   5.178  0.4493 -0.6394  0.0977
  464MOL0     C61122   8.303   2.035   5.061 -0.4060 -0.4676 -0.9355
  464MOL0     C61123   8.401   2.134   5.033  0.5444  1.4672 -0.1827
  464MOL0     O61124   8.368   2.217   4.931 -0.5935  0.3530 -0.4383
  464MOL0     C61125   8.248   2.291   4.936 -0.2881 -0.4046  0.5111
  464MOL0     C61126   8.226   2.382   4.816 -0.3529  0.2804  0.1077
  464MOL0     C61127   8.091   2.441   4.828  0.1765 -0.1027 -1.0151
  464MOL0     C61128   8.028   2.461   4.687  0.0076 -0.1230 -1.5115
  464MOL0     C61129   8.038   2.605   4.648 -0.3476  0.5499  0.8119
  464MOL0     C61130   7.935   2.632   4.532  0.2169  0.2000  0.5277
  464MOL0     C61131   7.926   2.787   4.496  0.4833  0.0768  0.5978
  464MOL0     C61132   8.064   2.861   4.461  0.1630  0.2007  0.7153
  464MOL0     N61133   8.128   2.798   4.346 -0.5659  0.8604  0.6141
  464MOL0     C61134   8.260   2.752   4.343 -0.1462  0.0159  1.0925
  464MOL0     C61135   8.266   2.687   4.220 -0.1021  0.1329 -0.3383
  464MOL0     C61136   8.387   2.618   4.158  0.3045 -0.0007  0.1361
  464MOL0     C61137   8.495   2.579   4.250 -0.9624 -0.5123 -0.0721
  464MOL0     C61138   8.450   2.483   4.361  0.1129  0.4601  0.1534
  464MOL0     C61139   8.541   2.446   4.472 -0.7994 -0.1028  0.0752
  464MOL0     O61140   8.565   2.562   4.554 -0.7126  0.7308  0.6733
  464MOL0     C61141   8.621   2.537   4.678 -0.3815 -0.3726 -0.3399
  464MOL0     C61142   8.609   2.643   4.769 -0.4603  0.1596  1.2943
  464MOL0     C61143   8.656   2.619   4.897  0.1915  0.8233  0.0523
  464MOL0     C61144   8.735   2.503   4.928 -0.1289  0.0252 -0.2000
  464MOL0     C61145   8.791   2.493   5.059 -0.4096  0.1335  0.3436
  464MOL0     O61146   8.807   2.361   5.100 -0.4154 -0.4389 -0.6679
  464MOL0     C61147   8.829   2.325   5.233 -1.6854 -1.5861  0.0099
  464MOL0     C61148   8.787   2.393   5.346 -0.8501 -0.3367  0.2094
  464MOL0     C61149   8.794   2.341   5.474  0.5040  0.3528  0.2189
  464MOL0     C61150   8.858   2.219   5.491 -0.5148  0.6173  0.2365
  464MOL0     O61151   8.882   2.158   5.614  0.3789 -0.6553 -0.3358
  464MOL0     C61152   8.776   2.174   5.715  0.3112 -0.1492  0.5560
  464MOL0     C61153   8.833   2.143   5.848  0.4857  1.0703 -0.3012
  464MOL0     C61154   8.891   2.002   5.866 -0.0215  0.4059  0.7814
  464MOL0     C61155   8.964   1.989   5.995 -0.1577 -0.4073  0.3696
  464MOL0     C61156   9.025   1.848   5.994 -0.5916 -0.0614  0.4840
  464MOL0     C61157   9.013   1.787   6.131  0.6203  0.1509  0.4345
  464MOL0     C61158   9.009   1.637   6.141 -1.0066  0.7265  0.3964
  464MOL0     C61159   9.115   1.559   6.060 -0.6603 -0.1480  0.1114
  464MOL0    Cl61160   9.288   1.622   6.110 -0.2631  0.7022 -0.0723
  464MOL0     C61161   8.907   2.149   5.380 -0.6513 -0.2696  0.5735
  464MOL0     C61162   8.891   2.205   5.254  0.6527 -0.6940  0.4834
  464MOL0     O61163   8.822   2.598   5.122  0.8702  0.4687 -0.9651
  464MOL0     C61164   8.761   2.408   4.823  0.4391  0.5444  0.3852
  464MOL0     C61165   8.703   2.427   4.700 -0.2837 -0.1387  0.3895
  464MOL0     N61166   8.151   2.710   4.150 -0.2972  0.0574  0.1646
  464MOL0     N61167   8.071   2.777   4.225 -0.0177 -1.1335 -0.1566
  464MOL0     C61168   8.514   2.142   5.101 -0.1736 -0.6342  1.3625
  464MOL0     C61169   8.547   2.056   5.201 -0.3563 -0.5208  0.3613
  464MOL0     C61170   8.636   1.778   5.494  0.5547 -0.2194 -0.0739
  464MOL0     C61171   8.725   1.811   5.603  0.0412 -0.4273  0.6094
  464MOL0     C61172   8.823   1.724   5.636 -0.3205 -0.0048  0.2219
  464MOL0     C61173   8.833   1.597   5.572 -0.5531 -0.1908 -0.4528
  464MOL0     O61174   8.956   1.533   5.578  0.8862  0.1630  0.2862
  464MOL0     C61175   9.005   1.440   5.486  0.8284  0.4992  0.1624
  464MOL0     C61176   9.145   1.391   5.528  0.0764 -0.5352  0.0308
  464MOL0     C61177   9.143   1.296   5.653  0.3773 -0.4117  0.3154
  464MOL0     C61178   9.283   1.233   5.665 -0.0198 -0.6329 -0.4215
  464MOL0     C61179   9.373   1.315   5.746 -0.2452  0.0938 -0.2656
  464MOL0     C61180   9.461   1.374   5.814 -0.0477 -0.9782  0.3457
  464MOL0     C61181   8.749   1.568   5.468  0.5794  0.4622 -0.3800
  464MOL0     C61182   8.644   1.659   5.428  0.1620  0.7055 -0.4176
  464MOL0     H61183   8.253   1.874   5.198 -1.1740 -0.7313 -4.9625
  464MOL0     H61184   8.222   2.022   4.990 -1.4218 -0.9443  0.2545
  464MOL0     H61185   8.250   2.349   5.029 -1.0973 -2.1285  1.6568
  464MOL0     H61186   8.159   2.227   4.944 -1.1614  0.4665 -1.5921
  464MOL0     H61187   8.232   2.311   4.733 -0.6340 -1.0583  1.1955
  464MOL0     H61188   8.296   2.464   4.800 -2.3652  2.0224 -0.2026
  464MOL0     H61189   8.095   2.529   4.892  0.9180 -1.2131  0.5543
  464MOL0     H61190   8.031   2.365   4.879  2.8220  0.5409  3.6627
  464MOL0     H61191   8.080   2.405   4.608  0.0315  0.5072 -1.9506
  464MOL0     H61192   7.927   2.418   4.693  0.0049  0.1134  1.2363
  464MOL0     H61193   8.142   2.635   4.627 -0.0738 -1.2137 -0.5080
  464MOL0     H61194   8.011   2.667   4.735 -5.2901 -0.1791  0.0616
  464MOL0     H61195   7.838   2.588   4.557 -0.0631  0.3668 -0.2396
  464MOL0     H61196   7.950   2.570   4.443 -1.8083  2.1064 -1.2380
  464MOL0     H61197   7.862   2.798   4.408  0.6463 -0.4755  0.4041
  464MOL0     H61198   7.889   2.844   4.581 -1.9171 -0.4431 -0.0304
  464MOL0     H61199   8.132   2.856   4.546  0.5646 -1.7996  0.3196
  464MOL0     H61200   8.035   2.963   4.436  1.7021  0.0085 -2.2245
  464MOL0     H61201   8.340   2.763   4.416  2.6944  2.4144 -2.0369
  464MOL0     H61202   8.422   2.688   4.082 -0.4536 -0.2426 -0.4399
  464MOL0     H61203   8.352   2.530   4.104  1.0997  2.4080 -4.9356
  464MOL0     H61204   8.539   2.668   4.296  0.3640 -0.8744 -0.6026
  464MOL0     H61205   8.570   2.527   4.191  2.7402  4.5609 -0.4542
  464MOL0     H61206   8.355   2.513   4.407 -0.0840  4.1556 -2.2702
  464MOL0     H61207   8.443   2.380   4.323 -1.4971  0.2282  1.0044
  464MOL0     H61208   8.631   2.414   4.418  0.1799  1.4592  0.7010
  464MOL0     H61209   8.501   2.365   4.534 -2.5572  0.9165  0.3521
  464MOL0     H61210   8.574   2.740   4.735  1.5060 -0.2847 -2.5933
  464MOL0     H61211   8.660   2.692   4.977  2.6718 -1.3688  2.1337
  464MOL0     H61212   8.749   2.495   5.342  1.2404  0.5558  1.6567
  464MOL0     H61213   8.766   2.402   5.559 -2.1697  0.7413 -0.8629
  464MOL0     H61214   8.694   2.107   5.690  0.7340  0.8028 -4.6457
  464MOL0     H61215   8.741   2.277   5.730  0.5650 -0.1782  1.3900
  464MOL0     H61216   8.760   2.155   5.929 -0.3252  0.3372 -0.9105
  464MOL0     H61217   8.913   2.217   5.854  0.1991  1.3016  0.9176
  464MOL0     H61218   8.974   1.983   5.798  0.2039 -0.3724  1.2505
  464MOL0     H61219   8.821   1.919   5.849 -1.4243  1.8420 -0.7556
  464MOL0     H61220   9.050   2.056   6.004  1.9398 -2.8826 -0.2478
  464MOL0     H61221   8.888   1.998   6.073 -0.2482 -1.4189  0.4070
  464MOL0     H61222   9.126   1.844   5.954  0.0147  0.3472  1.9027
  464MOL0     H61223   8.958   1.790   5.930 -3.6245  1.8496  1.7075
  464MOL0     H61224   8.922   1.825   6.177  1.0319  0.7331  0.7800
  464MOL0     H61225   9.098   1.814   6.194 -0.3867 -1.0655  2.4263
  464MOL0     H61226   9.007   1.615   6.249  0.2416  0.1227  0.3093
  464MOL0     H61227   8.913   1.598   6.105 -1.0127  1.4863 -0.4444
  464MOL0     H61228   9.101   1.560   5.952 -4.1524  2.1851  0.4103
  464MOL0     H61229   9.101   1.458   6.099 -1.9041 -0.2581 -0.5593
  464MOL0     H61230   8.955   2.054   5.397  1.5195  0.3646 -1.3530
  464MOL0     H61231   8.902   2.161   5.155  0.2320  2.6662 -1.2016
  464MOL0     H61232   8.827   2.326   4.850  1.9360  2.1955  1.9659
  464MOL0     H61233   8.715   2.353   4.621 -2.0343  2.9469 -3.0494
  464MOL0     H61234   8.576   2.224   5.067 -2.1489 -0.5074 -2.5590
  464MOL0     H61235   8.646   2.036   5.242 -1.1649  2.2018  4.2015
  464MOL0     H61236   8.719   1.907   5.654 -3.0757 -1.2572  2.0414
  464MOL0     H61237   8.910   1.746   5.697  0.2423  0.0258 -0.5662
  464MOL0     H61238   9.013   1.484   5.387 -0.6696 -1.0314 -0.6896
  464MOL0     H61239   8.936   1.356   5.471  3.0148 -0.9781 -2.4590
  464MOL0     H61240   9.191   1.342   5.442  3.2112 -1.8351  2.2438
  464MOL0     H61241   9.206   1.478   5.552 -2.7534  1.1168  1.8130
  464MOL0     H61242   9.082   1.208   5.632 -2.8589  0.1720  5.3915
  464MOL0     H61243   9.117   1.339   5.750 -0.8016 -2.3492  0.9299
  464MOL0     H61244   9.268   1.140   5.722  0.0991 -0.2547  0.2377
  464MOL0     H61245   9.332   1.219   5.569  1.2487  1.1783 -0.0767
  464MOL0     H61246   9.538   1.403   5.883 -0.8699 -0.0196  0.8910
  464MOL0     H61247   8.766   1.476   5.413  1.7917  1.5193 -1.8512
  464MOL0     H61248   8.584   1.640   5.340 -1.5412  1.9301  0.4286
  465MOL0     O61249   8.188   0.399   5.437  1.4121 -0.1380  0.3143
  465MOL0     C61250   8.126   0.375   5.331 -1.2517 -0.4669 -0.6392
  465MOL0     O61251   8.182   0.374   5.199 -0.3106  0.4218  0.1101
  465MOL0     C61252   8.314   0.346   5.193  0.4511 -0.1480 -0.4541
  465MOL0     C61253   8.392   0.260   5.275  0.0357  1.2866  0.6591
  465MOL0     C61254   8.534   0.264   5.276 -0.5201 -0.0665 -0.1623
  465MOL0     C61255   8.605   0.358   5.199  0.4279 -0.4744 -0.4021
  465MOL0     O61256   8.736   0.351   5.161 -0.6047 -0.2482 -0.3553
  465MOL0     C61257   8.831   0.330   5.269 -0.4079 -0.9505  0.5412
  465MOL0     C61258   8.917   0.451   5.308  0.3558 -0.5991 -1.1800
  465MOL0     C61259   8.996   0.528   5.195  1.2180  0.5477 -0.4605
  465MOL0     C61260   9.063   0.641   5.276  0.3548 -0.4839  0.0752
  465MOL0     C61261   9.162   0.705   5.175 -0.4906 -0.0750  0.1944
  465MOL0     C61262   9.274   0.624   5.123 -0.8692  0.7011  0.0226
  465MOL0     C61263   9.371   0.703   5.029  0.5133 -0.1449  0.8074
  465MOL0     C61264   9.301   0.736   4.897 -0.0681 -0.0349  0.2806
  465MOL0     N61265   9.404   0.767   4.801  0.2976  0.4447  0.4897
  465MOL0     C61266   9.518   0.685   4.783  0.1038 -0.3125  0.6393
  465MOL0     C61267   9.593   0.752   4.693 -0.8255  0.4997 -0.9945
  465MOL0     C61268   9.726   0.719   4.622 -0.3200 -0.5542  0.0952
  465MOL0     C61269   9.852   0.770   4.688 -0.0893  0.6019  0.1764
  465MOL0     C61270   9.971   0.783   4.597  0.3727 -0.6468 -0.4240
  465MOL0     C61271  10.103   0.801   4.674  0.2420 -0.6201  0.5881
  465MOL0     O61272  10.206   0.834   4.580  0.3080  0.2554 -0.0605
  465MOL0     C61273  10.332   0.853   4.605  0.1602  0.4735 -0.9808
  465MOL0     C61274  10.398   0.867   4.735  1.3984 -0.6846 -0.0264
  465MOL0     C61275  10.538   0.889   4.741  0.6491  0.0413 -0.1982
  465MOL0     C61276  10.613   0.890   4.620 -0.1797 -0.1837 -0.7206
  465MOL0     C61277  10.768   0.905   4.623  0.1627 -0.1462 -0.6589
  465MOL0     O61278  10.827   0.889   4.494  0.2411  0.5543  0.4107
  465MOL0     C61279  10.963   0.878   4.491 -0.2478  0.5439 -0.3931
  465MOL0     C61280  11.045   0.967   4.422  0.5562 -0.6250 -0.0679
  465MOL0     C61281  11.185   0.948   4.420 -1.1615 -0.6293  1.2392
  465MOL0     C61282  11.260   0.847   4.497 -0.1618 -0.0739 -0.4693
  465MOL0     O61283  11.400   0.834   4.506  0.8143 -0.5177 -0.3901
  465MOL0     C61284  11.464   0.880   4.385 -0.2721  0.3183  0.7101
  465MOL0     C61285  11.610   0.855   4.398  0.0288 -0.1885  0.4439
  465MOL0     C61286  11.654   0.946   4.505  0.6402 -0.1917  0.5344
  465MOL0     C61287  11.808   0.952   4.534 -0.2615 -0.0184  0.1256
  465MOL0     C61288  11.830   1.010   4.665 -0.2809 -0.1493 -0.1065
  465MOL0     C61289  11.977   1.041   4.689 -0.5202  0.2087 -0.0516
  465MOL0     C61290  12.067   0.915   4.700 -0.7430 -0.1655 -0.1236
  465MOL0     C61291  12.199   0.948   4.780 -0.3736  0.3759 -0.2162
  465MOL0    Cl61292  12.303   0.799   4.774 -0.0959 -0.0449  0.1815
  465MOL0     C61293  11.171   0.771   4.570  0.5865  0.2002 -1.1595
  465MOL0     C61294  11.027   0.789   4.575  0.0366 -0.1437  0.2630
  465MOL0     O61295  10.827   0.916   4.731  0.7389 -1.1570  0.2555
  465MOL0     C61296  10.545   0.875   4.498 -0.1743 -0.8863  0.3484
  465MOL0     C61297  10.408   0.861   4.493  0.4901 -0.1571  0.1638
  465MOL0     N61298   9.533   0.872   4.665 -0.1464 -0.5599  0.6730
  465MOL0     N61299   9.423   0.886   4.739 -0.2061 -0.2546  0.8242
  465MOL0     C61300   8.529   0.440   5.113 -0.4873  0.1676 -0.3659
  465MOL0     C61301   8.385   0.427   5.103 -0.0302 -0.4457  0.2515
  465MOL0     C61302   7.983   0.356   5.340 -0.3428  0.7373  0.9145
  465MOL0     C61303   7.928   0.345   5.472  0.7996  1.3534  0.1338
  465MOL0     C61304   7.795   0.374   5.505 -0.5958 -1.2140 -0.8006
  465MOL0     C61305   7.711   0.406   5.403  0.1697  0.4963 -1.0254
  465MOL0     O61306   7.585   0.439   5.437  0.6890 -0.1186 -0.3862
  465MOL0     C61307   7.476   0.412   5.350 -0.2727  0.1251  0.1163
  465MOL0     C61308   7.428   0.268   5.355  0.0031 -0.2628  0.1000
  465MOL0     C61309   7.445   0.208   5.504  0.3409 -0.8055  0.5906
  465MOL0     C61310   7.348   0.092   5.539 -0.3788 -0.2771  0.8843
  465MOL0     C61311   7.357   0.037   5.671  1.3297  0.4521  0.8799
  465MOL0     C61312   7.340  -0.010   5.786 -0.5585  0.4429  0.2520
  465MOL0     C61313   7.753   0.403   5.272 -0.1090  0.0380 -0.0222
  465MOL0     C61314   7.889   0.387   5.237  0.9919  0.4357  0.9783
  465MOL0     H61315   8.341   0.186   5.336 -0.3906 -0.7243 -1.9515
  465MOL0     H61316   8.584   0.187   5.333 -0.8582  1.5472  2.4669
  465MOL0     H61317   8.893   0.247   5.235 -0.5535 -1.0764  0.5859
  465MOL0     H61318   8.777   0.307   5.361  0.1346  0.2306  1.1781
  465MOL0     H61319   8.990   0.419   5.382 -0.0571 -1.4529 -1.1276
  465MOL0     H61320   8.852   0.524   5.357  1.8766  1.0378 -1.4950
  465MOL0     H61321   8.923   0.561   5.120 -0.2795  1.8444  1.4481
  465MOL0     H61322   9.079   0.465   5.163  1.9558  0.6824  1.1104
  465MOL0     H61323   8.989   0.715   5.309  0.3695 -0.4705  0.0777
  465MOL0     H61324   9.111   0.594   5.362 -0.4110 -0.2585  0.6409
  465MOL0     H61325   9.194   0.792   5.232 -1.6953  1.3039 -1.1754
  465MOL0     H61326   9.101   0.743   5.093 -0.4857  0.1106  0.2775
  465MOL0     H61327   9.224   0.548   5.063  1.0872 -0.8322  0.2413
  465MOL0     H61328   9.338   0.570   5.193 -1.8336 -0.3799  0.0956
  465MOL0     H61329   9.414   0.797   5.067 -1.7883  0.7782  1.3118
  465MOL0     H61330   9.457   0.637   5.015 -0.1541 -1.1574  1.4320
  465MOL0     H61331   9.240   0.824   4.919 -0.7492 -0.6674  0.9885
  465MOL0     H61332   9.236   0.653   4.867  0.1233 -0.6611  1.5444
  465MOL0     H61333   9.532   0.586   4.826 -0.3140 -0.8647 -0.4636
  465MOL0     H61334   9.717   0.743   4.516  1.9530 -2.4034 -0.6098
  465MOL0     H61335   9.748   0.612   4.623 -0.3727 -0.5786  1.7313
  465MOL0     H61336   9.890   0.705   4.767 -1.2953  0.4362  0.6436
  465MOL0     H61337   9.826   0.867   4.732 -2.6006  0.3997 -0.7106
  465MOL0     H61338   9.982   0.689   4.542  2.3480 -0.5245 -0.2950
  465MOL0     H61339   9.959   0.857   4.517 -0.0660 -2.5091 -2.1721
  465MOL0     H61340  10.115   0.705   4.725  0.1251 -1.6809 -1.2913
  465MOL0     H61341  10.109   0.880   4.750  3.1271  1.3475 -1.4121
  465MOL0     H61342  10.335   0.875   4.823 -0.6331  1.5815 -1.5395
  465MOL0     H61343  10.583   0.904   4.839 -1.4810  0.1009  0.8312
  465MOL0     H61344  11.014   1.049   4.358  2.9827  0.3119 -0.1682
  465MOL0     H61345  11.249   1.011   4.359 -0.1174 -2.7499  0.0348
  465MOL0     H61346  11.452   0.987   4.366  1.3781  0.6035  1.1418
  465MOL0     H61347  11.429   0.819   4.301 -0.5837 -1.1110  1.8297
  465MOL0     H61348  11.674   0.870   4.310 -0.1964 -0.6789  0.1856
  465MOL0     H61349  11.622   0.750   4.428  0.8149 -0.0946  0.4910
  465MOL0     H61350  11.611   0.909   4.598  0.8304 -1.3935  0.1672
  465MOL0     H61351  11.626   1.052   4.501 -0.3437 -0.4576  0.1583
  465MOL0     H61352  11.856   0.854   4.525 -0.7983 -0.2959  0.1740
  465MOL0     H61353  11.847   1.021   4.459  3.2632  0.8184  2.5332
  465MOL0     H61354  11.804   0.935   4.740 -2.7178 -4.3409 -4.5805
  465MOL0     H61355  11.772   1.098   4.693  0.1749 -0.1885  1.0299
  465MOL0     H61356  11.996   1.110   4.773  3.1336 -0.0683 -0.4779
  465MOL0     H61357  12.012   1.104   4.607  4.3317  0.0946  1.5447
  465MOL0     H61358  12.015   0.832   4.749  0.2010 -0.4821  0.3743
  465MOL0     H61359  12.094   0.886   4.599  2.6951  3.6942 -0.5567
  465MOL0     H61360  12.170   0.947   4.885 -0.2545 -4.1904 -0.0276
  465MOL0     H61361  12.255   1.038   4.751 -1.2007  0.7446 -0.6840
  465MOL0     H61362  11.213   0.697   4.637 -0.2831  1.1151  0.4605
  465MOL0     H61363  10.964   0.736   4.646  1.3789  2.0991  3.4159
  465MOL0     H61364  10.592   0.846   4.405  2.3043 -0.1303  1.2912
  465MOL0     H61365  10.368   0.855   4.392 -0.7431  0.7200  0.5700
  465MOL0     H61366   8.596   0.499   5.051  1.8584 -1.8722  0.1049
  465MOL0     H61367   8.328   0.495   5.041  0.7311  1.0229  1.1020
  465MOL0     H61368   8.003   0.340   5.550  1.2320  2.2853 -0.2078
  465MOL0     H61369   7.762   0.381   5.608 -1.8265  1.0051 -1.2649
  465MOL0     H61370   7.497   0.443   5.247  3.3422 -1.4095  0.2620
  465MOL0     H61371   7.393   0.470   5.393  0.1473 -0.2824  1.5208
  465MOL0     H61372   7.321   0.266   5.329  0.4918 -0.2336 -2.1303
  465MOL0     H61373   7.486   0.210   5.283 -0.5040 -1.1232  0.3802
  465MOL0     H61374   7.424   0.286   5.578 -1.0796  0.1099 -0.7070
  465MOL0     H61375   7.550   0.177   5.507  1.3080  1.9036 -1.4148
  465MOL0     H61376   7.250   0.138   5.524 -0.3273 -0.7920 -1.5626
  465MOL0     H61377   7.363   0.010   5.468 -1.0626 -0.1891  0.6269
  465MOL0     H61378   7.341  -0.058   5.881  0.4320  1.5254  0.8097
  465MOL0     H61379   7.686   0.432   5.191  0.4758 -0.6389 -0.7685
  465MOL0     H61380   7.911   0.403   5.132 -1.7317 -2.3736 -0.1738
  466MOL0     O61381   3.981   1.151   6.231  0.4141 -0.0747  0.1115
  466MOL0     C61382   4.073   1.085   6.171 -0.3297 -0.2968  0.3089
  466MOL0     O61383   4.061   0.962   6.117  0.6394  0.0642 -0.2882
  466MOL0     C61384   3.940   0.905   6.076  0.5962  0.2575  0.2337
  466MOL0     C61385   3.832   0.983   6.019 -0.6457  0.1851  0.9450
  466MOL0     C61386   3.719   0.924   5.944 -0.5379  0.2872 -0.2787
  466MOL0     C61387   3.717   0.782   5.943 -0.6208 -0.3324 -0.0914
  466MOL0     O61388   3.621   0.716   5.873  0.4115 -0.9808  0.1661
  466MOL0     C61389   3.498   0.786   5.855  0.0889  0.2918  0.1535
  466MOL0     C61390   3.386   0.683   5.825 -0.6108  0.1125 -0.5754
  466MOL0     C61391   3.249   0.746   5.855 -0.3808  0.2492  0.7069
  466MOL0     C61392   3.136   0.649   5.801 -0.4521 -0.2287 -0.9870
  466MOL0     C61393   3.001   0.706   5.822  0.9005 -0.2203  0.2836
  466MOL0     C61394   2.892   0.600   5.811 -0.0753  0.6014  0.2494
  466MOL0     C61395   2.892   0.510   5.690  0.0272 -0.1306 -0.4538
  466MOL0     C61396   2.761   0.432   5.665 -0.4142  0.1904 -0.9439
  466MOL0     N61397   2.695   0.402   5.794 -0.1731 -0.1905 -0.0791
  466MOL0     C61398   2.582   0.466   5.843  0.5125  0.3068  0.4125
  466MOL0     C61399   2.545   0.384   5.946 -0.4352 -0.2807  0.0074
  466MOL0     C61400   2.409   0.402   6.001  0.2230  0.0505  0.1026
  466MOL0     C61401   2.426   0.436   6.150  0.0810 -0.0847  0.7713
  466MOL0     C61402   2.287   0.430   6.207  0.2914 -0.2394 -0.0145
  466MOL0     C61403   2.294   0.432   6.360 -0.6403 -0.2024  0.1631
  466MOL0     O61404   2.241   0.550   6.406  0.2109 -0.2068  0.6249
  466MOL0     C61405   2.233   0.578   6.539  0.2577  1.2260  0.5876
  466MOL0     C61406   2.184   0.702   6.572  0.5450 -1.2825  0.0312
  466MOL0     C61407   2.180   0.754   6.702  0.0115  0.4409 -0.3683
  466MOL0     C61408   2.237   0.677   6.801  0.5699 -0.1947  2.1848
  466MOL0     C61409   2.250   0.737   6.937 -0.5306  0.2147 -1.3093
  466MOL0     O61410   2.227   0.877   6.938  0.1335  0.1930 -0.0984
  466MOL0     C61411   2.217   0.923   7.070 -0.0203 -0.1330 -0.0501
  466MOL0     C61412   2.325   0.998   7.125 -0.5816 -0.6998  0.0892
  466MOL0     C61413   2.313   1.046   7.259  0.8899  0.1262  0.0200
  466MOL0     C61414   2.197   1.009   7.339 -0.8338 -1.0118 -0.5589
  466MOL0     O61415   2.177   1.046   7.473 -0.4367  0.0486  0.6261
  466MOL0     C61416   2.286   1.114   7.548 -0.1012  0.1453  0.3643
  466MOL0     C61417   2.244   1.099   7.695  0.3484  0.0287 -0.3231
  466MOL0     C61418   2.258   0.957   7.750  0.0535 -0.1273 -0.1913
  466MOL0     C61419   2.179   0.950   7.880 -0.2979 -0.8508 -0.3083
  466MOL0     C61420   2.177   0.812   7.921  0.8485 -0.2261 -0.1934
  466MOL0     C61421   2.145   0.789   8.068 -0.1873  0.8605 -0.5963
  466MOL0     C61422   2.251   0.837   8.171  0.5938 -0.6558  0.6012
  466MOL0     C61423   2.225   0.781   8.294 -0.2166  0.1135 -0.5711
  466MOL0    Cl61424   2.265   0.603   8.317 -0.0111  0.1830 -0.2493
  466MOL0     C61425   2.086   0.942   7.272 -0.7689 -0.5446 -0.3402
  466MOL0     C61426   2.101   0.900   7.139 -0.2921  0.5752  0.8339
  466MOL0     O61427   2.261   0.658   7.037 -0.1814  0.2088  0.1602
  466MOL0     C61428   2.286   0.548   6.771  0.4736  0.7462 -0.6120
  466MOL0     C61429   2.271   0.489   6.643 -0.4264 -0.8540  0.3195
  466MOL0     N61430   2.621   0.270   5.943  0.3935  0.2966  1.3704
  466MOL0     N61431   2.717   0.283   5.864 -0.0482 -0.1438  0.0538
  466MOL0     C61432   3.820   0.705   5.996 -1.0167  0.1784 -0.1453
  466MOL0     C61433   3.928   0.765   6.066 -0.1148  0.8540  0.3840
  466MOL0     C61434   4.206   1.129   6.209  0.8442  0.1691 -0.3025
  466MOL0     C61435   4.319   1.093   6.131  0.0324 -0.7157 -0.2303
  466MOL0     C61436   4.448   1.122   6.175  0.2111  0.1634  0.0105
  466MOL0     C61437   4.466   1.203   6.288 -0.6203  0.9326 -0.7064
  466MOL0     O61438   4.587   1.240   6.333 -0.3605  1.1461  0.9988
  466MOL0     C61439   4.649   1.145   6.424  0.5053  0.4376 -0.2504
  466MOL0     C61440   4.627   1.170   6.578 -0.2858  0.0263 -0.2222
  466MOL0     C61441   4.701   1.284   6.651  0.1665 -0.8307 -0.3386
  466MOL0     C61442   4.859   1.253   6.661  0.3566  0.8514  0.8782
  466MOL0     C61443   4.928   1.356   6.727  0.0057 -0.1034  0.7171
  466MOL0     C61444   4.997   1.446   6.765  0.1906 -0.2822 -0.0085
  466MOL0     C61445   4.362   1.232   6.362  0.3005 -0.6375 -0.0673
  466MOL0     C61446   4.232   1.196   6.331 -0.1277  0.5122  0.3698
  466MOL0     H61447   3.825   1.091   6.021 -2.1475  0.1060  2.6582
  466MOL0     H61448   3.644   0.990   5.902 -2.6588  0.3273  3.2270
  466MOL0     H61449   3.509   0.865   5.780  3.1001  0.0776  0.2427
  466MOL0     H61450   3.452   0.832   5.944  0.9450  0.3305  0.5855
  466MOL0     H61451   3.401   0.601   5.895  1.0958  2.3588  1.9105
  466MOL0     H61452   3.400   0.650   5.722 -1.4947  3.7527 -2.0263
  466MOL0     H61453   3.235   0.841   5.802 -1.6323  0.2863  1.0840
  466MOL0     H61454   3.233   0.767   5.961  0.1198  0.6099  0.7149
  466MOL0     H61455   3.154   0.625   5.696 -0.3955  1.9185 -1.5242
  466MOL0     H61456   3.147   0.556   5.856 -3.0138  0.2352  0.4753
  466MOL0     H61457   2.977   0.779   5.744  2.5764 -0.1531 -0.2024
  466MOL0     H61458   3.001   0.763   5.916  1.4257 -0.8704  0.6823
  466MOL0     H61459   2.800   0.657   5.828 -0.4268  0.0191  0.3063
  466MOL0     H61460   2.902   0.535   5.898  3.3764 -1.0466 -1.1995
  466MOL0     H61461   2.918   0.567   5.600  2.1462  0.2476  0.3363
  466MOL0     H61462   2.975   0.438   5.694 -1.3579 -1.7855 -0.4015
  466MOL0     H61463   2.793   0.341   5.615  1.2342 -0.3606  0.9463
  466MOL0     H61464   2.694   0.489   5.600  1.4513  0.5669 -2.6317
  466MOL0     H61465   2.524   0.554   5.819  2.2833  2.0729  2.1822
  466MOL0     H61466   2.362   0.305   5.981  1.5338 -0.4620 -0.6483
  466MOL0     H61467   2.349   0.480   5.954 -3.0808  0.9248  5.0456
  466MOL0     H61468   2.466   0.538   6.150 -3.1351  1.4250 -2.9096
  466MOL0     H61469   2.499   0.363   6.188 -1.4132 -1.3289  1.3655
  466MOL0     H61470   2.220   0.509   6.172 -0.6718 -0.1563  1.9163
  466MOL0     H61471   2.246   0.332   6.180  0.2980 -0.8033  1.8808
  466MOL0     H61472   2.395   0.427   6.402 -1.8856  1.4898  3.8351
  466MOL0     H61473   2.236   0.356   6.413  2.2347 -0.8010  2.7011
  466MOL0     H61474   2.136   0.756   6.491  1.4662 -1.5763 -0.7197
  466MOL0     H61475   2.134   0.852   6.702  2.6685  1.9860 -4.3500
  466MOL0     H61476   2.415   1.034   7.077  0.0534  0.7336  2.2151
  466MOL0     H61477   2.384   1.118   7.298  0.4797  0.0345  0.9749
  466MOL0     H61478   2.293   1.223   7.547  0.6562  0.1021  0.1257
  466MOL0     H61479   2.384   1.069   7.528  0.5224  2.9669 -4.3136
  466MOL0     H61480   2.137   1.120   7.696 -0.1777 -1.7529 -3.5519
  466MOL0     H61481   2.301   1.169   7.757 -0.6013  1.3012 -0.8345
  466MOL0     H61482   2.362   0.922   7.752 -0.6296 -2.3059  0.4982
  466MOL0     H61483   2.204   0.889   7.683 -1.0194  0.2631  0.2553
  466MOL0     H61484   2.240   1.002   7.956  1.4768 -0.6308 -1.8048
  466MOL0     H61485   2.076   0.985   7.874 -0.1900 -0.7698 -2.2724
  466MOL0     H61486   2.280   0.777   7.908  2.0737  2.5913  1.0750
  466MOL0     H61487   2.116   0.746   7.858  1.6661 -2.9951  1.7436
  466MOL0     H61488   2.144   0.681   8.083  3.7107  0.8278  0.5041
  466MOL0     H61489   2.045   0.829   8.083 -0.6769 -0.4539 -0.1812
  466MOL0     H61490   2.354   0.831   8.136  0.5054 -0.1186  0.2246
  466MOL0     H61491   2.233   0.943   8.193 -1.0228 -0.7440 -0.1301
  466MOL0     H61492   2.120   0.797   8.319 -0.3388 -0.1318 -0.9147
  466MOL0     H61493   2.294   0.826   8.367 -1.2765  1.1321 -0.1629
  466MOL0     H61494   1.995   0.922   7.329 -0.6741  1.3331  0.5563
  466MOL0     H61495   2.024   0.847   7.084  2.0676 -0.6162 -1.5375
  466MOL0     H61496   2.333   0.499   6.856 -2.5222 -0.4821  0.4797
  466MOL0     H61497   2.308   0.388   6.626  0.4691 -0.9837  2.6657
  466MOL0     H61498   3.811   0.597   6.002  0.2207  0.1347  3.6754
  466MOL0     H61499   3.990   0.688   6.111 -0.7787  0.3263  0.4159
  466MOL0     H61500   4.300   1.042   6.036 -1.6724  0.7982 -0.7424
  466MOL0     H61501   4.524   1.076   6.113 -0.5574 -0.5529 -0.4185
  466MOL0     H61502   4.757   1.147   6.411  0.4856  2.8922 -0.5111
  466MOL0     H61503   4.617   1.041   6.418 -0.9696  0.7728  1.0327
  466MOL0     H61504   4.520   1.188   6.589 -0.8930 -1.7793 -2.4720
  466MOL0     H61505   4.635   1.080   6.641 -1.7654  0.3647  0.4972
  466MOL0     H61506   4.661   1.298   6.752 -0.7330  0.7701 -0.8820
  466MOL0     H61507   4.687   1.382   6.604  2.2629 -2.2579 -4.3668
  466MOL0     H61508   4.862   1.164   6.724  0.8246  0.0483 -0.2522
  466MOL0     H61509   4.904   1.232   6.564 -1.1738  0.2689  0.2516
  466MOL0     H61510   5.057   1.527   6.801  3.6062 -2.3980 -0.4551
  466MOL0     H61511   4.376   1.298   6.447  1.9596  0.4768 -1.1484
  466MOL0     H61512   4.146   1.227   6.389 -0.8362  1.1349 -0.9618
  467MOL0     O61513   6.904   1.377   0.863  0.1704  0.0279 -0.5497
  467MOL0     C61514   6.835   1.445   0.941 -0.3181  0.7424 -0.9726
  467MOL0     O61515   6.710   1.414   0.982  0.5654 -0.0418 -0.1228
  467MOL0     C61516   6.642   1.325   0.910  0.0516  0.3110  0.4666
  467MOL0     C61517   6.574   1.349   0.793 -0.5497 -0.1858  0.3823
  467MOL0     C61518   6.490   1.248   0.740  0.0223 -0.6149  0.2025
  467MOL0     C61519   6.487   1.115   0.787  0.2665 -0.2792 -0.3444
  467MOL0     O61520   6.421   1.014   0.717  0.3344  0.0190  0.1455
  467MOL0     C61521   6.294   0.986   0.779  0.3622 -0.2677  0.3558
  467MOL0     C61522   6.240   0.855   0.746 -0.4990  0.7677 -0.3944
  467MOL0     C61523   6.119   0.815   0.839  0.1142 -0.4299  0.3098
  467MOL0     C61524   6.054   0.679   0.807 -0.2799  0.3529  0.3955
  467MOL0     C61525   5.914   0.667   0.868 -0.0171  0.1590 -0.0003
  467MOL0     C61526   5.808   0.701   0.769  0.5084  0.0510 -0.2925
  467MOL0     C61527   5.679   0.646   0.833 -0.3659 -0.4959 -0.1363
  467MOL0     C61528   5.554   0.710   0.770  0.0046  0.2740  0.4459
  467MOL0     N61529   5.443   0.667   0.846  0.7131  0.6997  0.1505
  467MOL0     C61530   5.357   0.560   0.819 -1.6437  0.5313 -0.2085
  467MOL0     C61531   5.256   0.572   0.905  0.5228 -0.9376 -0.3395
  467MOL0     C61532   5.125   0.496   0.902  0.3969  0.0565 -0.0074
  467MOL0     C61533   5.009   0.525   0.996  0.1350  0.9726 -0.1307
  467MOL0     C61534   4.893   0.419   0.974  0.1711  0.6394 -0.1774
  467MOL0     C61535   4.760   0.462   1.037  0.3417  0.2750 -0.5572
  467MOL0     O61536   4.788   0.497   1.172 -0.1458  0.6983 -0.2873
  467MOL0     C61537   4.684   0.494   1.260  0.0329 -0.2940 -0.0219
  467MOL0     C61538   4.549   0.480   1.223  0.3380 -0.8429  0.4143
  467MOL0     C61539   4.440   0.506   1.316  0.0055 -0.4031  0.1112
  467MOL0     C61540   4.465   0.514   1.446  0.2541 -0.1778  0.3016
  467MOL0     C61541   4.344   0.523   1.543 -0.1400 -0.6337  1.0576
  467MOL0     O61542   4.376   0.502   1.667  0.0497  0.0540 -0.2482
  467MOL0     C61543   4.272   0.508   1.762  0.7307  0.6957 -0.0652
  467MOL0     C61544   4.225   0.402   1.835  1.3406  0.9632 -0.2256
  467MOL0     C61545   4.128   0.410   1.929  1.0399  0.4496 -0.4314
  467MOL0     C61546   4.067   0.535   1.963 -0.5808 -0.1858  0.5585
  467MOL0     O61547   3.973   0.535   2.051  0.3532 -0.1126  0.3902
  467MOL0     C61548   3.950   0.657   2.130  0.6993  0.2260  0.3096
  467MOL0     C61549   3.882   0.643   2.258  0.3013 -0.2192  0.1749
  467MOL0     C61550   3.963   0.535   2.333  0.6601  1.0160 -1.4107
  467MOL0     C61551   3.924   0.513   2.480 -0.3062  0.4867  0.6058
  467MOL0     C61552   4.022   0.432   2.564  0.0463 -0.2991  0.0620
  467MOL0     C61553   4.163   0.490   2.580  0.1457  0.0205  0.2548
  467MOL0     C61554   4.234   0.414   2.696  0.0984  0.8922 -0.2525
  467MOL0     C61555   4.389   0.431   2.697 -0.7519  0.1086 -0.9256
  467MOL0    Cl61556   4.446   0.339   2.854  0.1327  0.2169 -0.5360
  467MOL0     C61557   4.112   0.643   1.884  0.2566  0.0384 -0.2785
  467MOL0     C61558   4.211   0.631   1.789 -0.4363 -0.5048  0.3571
  467MOL0     O61559   4.228   0.546   1.497 -0.4635 -0.0135  0.1707
  467MOL0     C61560   4.603   0.527   1.483 -0.1695 -0.7537  0.5500
  467MOL0     C61561   4.711   0.521   1.393  0.4299  0.7550 -1.1436
  467MOL0     N61562   5.279   0.676   0.992 -0.2507 -0.3443  0.5858
  467MOL0     N61563   5.389   0.731   0.960 -0.7474  0.2767  0.7885
  467MOL0     C61564   6.555   1.097   0.906  1.2007 -0.1931  0.2754
  467MOL0     C61565   6.631   1.195   0.967  0.4083  0.2858  0.1904
  467MOL0     C61566   6.899   1.553   1.014 -1.4690  0.1189 -1.4325
  467MOL0     C61567   7.024   1.611   0.962  0.6842 -0.2832 -1.0143
  467MOL0     C61568   7.081   1.721   1.017  0.3794  0.0104  0.0661
  467MOL0     C61569   7.031   1.783   1.130  0.9370  0.2418  0.2781
  467MOL0     O61570   7.076   1.907   1.173  0.1684  0.2661 -0.0081
  467MOL0     C61571   7.173   1.899   1.280 -0.4726 -0.0778 -0.3237
  467MOL0     C61572   7.192   2.039   1.345 -0.2594 -0.3446  0.3867
  467MOL0     C61573   7.309   2.122   1.280 -0.4810 -0.3943  1.0425
  467MOL0     C61574   7.312   2.267   1.319  0.5388 -0.5192  0.2385
  467MOL0     C61575   7.421   2.327   1.246  0.7492 -0.6385  0.5093
  467MOL0     C61576   7.525   2.365   1.191 -0.8134 -0.1496  0.7194
  467MOL0     C61577   6.906   1.737   1.180  0.2203 -0.3425  0.5684
  467MOL0     C61578   6.833   1.627   1.123  0.1438  0.3485 -0.2699
  467MOL0     H61579   6.580   1.438   0.732 -1.4870  0.0382  0.5957
  467MOL0     H61580   6.433   1.282   0.654  2.6603  2.6394 -0.5024
  467MOL0     H61581   6.228   1.071   0.758  0.2231  0.2318  2.5787
  467MOL0     H61582   6.303   0.992   0.888 -1.7586  1.8635  0.5040
  467MOL0     H61583   6.318   0.778   0.751  1.6770  2.9128  0.8294
  467MOL0     H61584   6.204   0.857   0.642 -0.7088 -1.9226 -0.4516
  467MOL0     H61585   6.053   0.902   0.836 -0.5283 -0.8346  1.9001
  467MOL0     H61586   6.151   0.822   0.943 -1.0680  2.5815  0.5524
  467MOL0     H61587   6.046   0.681   0.698  1.3095  2.6521  0.2720
  467MOL0     H61588   6.108   0.592   0.846 -4.0328 -3.3519 -1.7935
  467MOL0     H61589   5.906   0.728   0.959 -2.2646  1.3440 -0.9180
  467MOL0     H61590   5.901   0.563   0.897  1.6990  0.0323  0.4385
  467MOL0     H61591   5.833   0.652   0.674  0.6499  0.5474 -0.5161
  467MOL0     H61592   5.795   0.809   0.755 -0.9244 -0.1804 -0.9779
  467MOL0     H61593   5.674   0.539   0.811 -1.3131 -0.2416 -1.2520
  467MOL0     H61594   5.668   0.665   0.940 -4.1174  1.6806 -0.7102
  467MOL0     H61595   5.549   0.674   0.667 -1.9857 -0.4885  0.7757
  467MOL0     H61596   5.555   0.819   0.762 -2.2077  0.2195 -1.7627
  467MOL0     H61597   5.367   0.491   0.736 -2.6972  1.0206 -0.7611
  467MOL0     H61598   5.142   0.390   0.922 -1.9112  0.0376  2.5749
  467MOL0     H61599   5.096   0.511   0.798  2.3656  0.6521 -0.5156
  467MOL0     H61600   4.974   0.628   0.986 -0.1527  0.6598 -3.3010
  467MOL0     H61601   5.030   0.513   1.103  1.0064  1.5180 -0.2313
  467MOL0     H61602   4.884   0.400   0.867 -1.8220 -0.1770  0.0789
  467MOL0     H61603   4.930   0.329   1.025 -1.1375  1.9097  3.3353
  467MOL0     H61604   4.690   0.379   1.026  1.9012 -1.2512  0.5355
  467MOL0     H61605   4.722   0.552   0.987 -0.8533  0.2009  0.1856
  467MOL0     H61606   4.504   0.453   1.128 -0.7571 -1.3145  1.0434
  467MOL0     H61607   4.341   0.502   1.272 -0.2893 -1.0401  0.8218
  467MOL0     H61608   4.275   0.306   1.831  1.3062  0.9973 -2.1375
  467MOL0     H61609   4.107   0.317   1.980  1.7866 -0.7942 -2.2829
  467MOL0     H61610   3.895   0.728   2.067  0.2504  0.6052  1.1138
  467MOL0     H61611   4.043   0.710   2.155 -1.3854  4.9573 -0.8970
  467MOL0     H61612   3.782   0.600   2.254 -0.6786  1.3194  3.6487
  467MOL0     H61613   3.879   0.736   2.316  3.1416  0.1124 -0.0817
  467MOL0     H61614   4.069   0.563   2.327  0.1516  3.2041 -1.1633
  467MOL0     H61615   3.950   0.436   2.287 -0.4075 -0.5105  1.8616
  467MOL0     H61616   3.910   0.600   2.546  0.5997  2.1383 -1.2797
  467MOL0     H61617   3.823   0.471   2.475 -0.2483  0.4972 -1.6384
  467MOL0     H61618   4.032   0.334   2.517  1.9238 -1.1647  2.0673
  467MOL0     H61619   3.970   0.435   2.660 -1.3821 -0.4427 -0.6817
  467MOL0     H61620   4.149   0.597   2.597  1.1865  0.5142 -1.6092
  467MOL0     H61621   4.202   0.474   2.479 -3.0471  1.1807 -1.3122
  467MOL0     H61622   4.186   0.446   2.788  0.2856  1.4803 -0.3560
  467MOL0     H61623   4.200   0.310   2.691  0.0586  0.8229  1.2678
  467MOL0     H61624   4.409   0.538   2.691 -0.1176 -0.0461 -5.7041
  467MOL0     H61625   4.446   0.382   2.618  1.5934  1.1641  0.0114
  467MOL0     H61626   4.073   0.744   1.891 -3.0753 -1.1879  0.8900
  467MOL0     H61627   4.251   0.721   1.743  2.3486 -2.4284 -1.2591
  467MOL0     H61628   4.620   0.543   1.589 -2.1226 -3.6191  1.4459
  467MOL0     H61629   4.815   0.529   1.423  0.5265 -3.5237  0.3422
  467MOL0     H61630   6.559   0.996   0.946  1.1878  0.6065  2.4154
  467MOL0     H61631   6.688   1.158   1.052  0.4187  1.1484  0.5755
  467MOL0     H61632   7.059   1.582   0.863  3.4212 -0.6844 -0.0150
  467MOL0     H61633   7.160   1.765   0.958  0.1677  2.1503  1.2798
  467MOL0     H61634   7.264   1.845   1.251  1.1643  0.9650  2.4631
  467MOL0     H61635   7.110   1.841   1.348 -1.0950  0.7989 -0.1438
  467MOL0     H61636   7.103   2.101   1.338 -0.1292 -0.2570 -0.5826
  467MOL0     H61637   7.216   2.029   1.452 -1.8042 -0.0137  0.7797
  467MOL0     H61638   7.292   2.123   1.172  0.0565 -1.0291  0.9461
  467MOL0     H61639   7.404   2.069   1.297  0.8592  1.0364 -1.5105
  467MOL0     H61640   7.222   2.321   1.287  1.0032 -0.2726 -0.6897
  467MOL0     H61641   7.324   2.281   1.427  1.7549  0.1240  0.0347
  467MOL0     H61642   7.611   2.416   1.152 -1.2100 -1.6525 -2.5136
  467MOL0     H61643   6.859   1.791   1.261  0.4886 -3.5721  3.1057
  467MOL0     H61644   6.739   1.596   1.166  0.7022 -1.2345 -0.1141
  468MOL0     O61645   8.452   3.988   7.542  0.4065 -0.4539  0.0357
  468MOL0     C61646   8.404   4.007   7.432 -0.1520 -0.1339  0.4043
  468MOL0     O61647   8.437   4.113   7.346 -0.7831  0.9331  0.0967
  468MOL0     C61648   8.547   4.188   7.375  0.2153 -0.0906 -0.1138
  468MOL0     C61649   8.554   4.264   7.492 -0.4921 -0.2837 -1.3955
  468MOL0     C61650   8.673   4.344   7.512  0.0137  0.5416 -0.0828
  468MOL0     C61651   8.787   4.328   7.439  0.4930  0.1678  0.8794
  468MOL0     O61652   8.911   4.386   7.460  0.3675 -0.2856 -0.4021
  468MOL0     C61653   8.949   4.405   7.597  0.0609 -0.6633 -0.2004
  468MOL0     C61654   9.067   4.306   7.623 -0.4797  0.8140 -0.3632
  468MOL0     C61655   9.159   4.265   7.499 -0.1243  0.2138  0.6331
  468MOL0     C61656   9.278   4.173   7.546  0.0537 -1.2268 -0.4250
  468MOL0     C61657   9.347   4.111   7.421  0.2946 -0.8938 -0.2749
  468MOL0     C61658   9.439   3.994   7.436  0.5333 -0.4602 -0.3365
  468MOL0     C61659   9.499   3.931   7.307  0.6866  0.0034 -0.1397
  468MOL0     C61660   9.634   3.989   7.258 -1.1783 -0.9877  0.2144
  468MOL0     N61661   9.684   3.904   7.153 -0.3150  0.0659 -0.4750
  468MOL0     C61662   9.732   3.776   7.183 -0.3954  0.0334  0.4722
  468MOL0     C61663   9.767   3.719   7.066  0.6018 -0.9592  1.0121
  468MOL0     C61664   9.809   3.576   7.039  0.0529  0.4243  0.5705
  468MOL0     C61665   9.875   3.568   6.902  0.6545  0.0047 -0.3396
  468MOL0     C61666   9.915   3.422   6.855  0.0246  0.1599  0.7825
  468MOL0     C61667  10.007   3.439   6.734 -0.4145  0.0092  0.0109
  468MOL0     O61668   9.943   3.535   6.638  0.1574  0.0680  0.0929
  468MOL0     C61669  10.015   3.589   6.532  0.4506  0.3864 -0.0144
  468MOL0     C61670   9.958   3.664   6.430  0.1684  0.0530  0.8267
  468MOL0     C61671  10.037   3.700   6.317  0.3101 -0.6292 -0.9067
  468MOL0     C61672  10.176   3.678   6.308 -0.8653  0.4358 -0.3905
  468MOL0     C61673  10.253   3.729   6.197  0.2814  0.2380 -0.2299
  468MOL0     O61674  10.388   3.728   6.217 -0.7205 -0.1460 -0.3567
  468MOL0     C61675  10.482   3.740   6.122  0.7019 -0.6837  1.0731
  468MOL0     C61676  10.467   3.815   6.004  0.7091  0.3086 -0.9104
  468MOL0     C61677  10.572   3.828   5.917 -1.0577 -0.2748  0.3606
  468MOL0     C61678  10.706   3.778   5.931  0.6353  0.1423 -0.0164
  468MOL0     O61679  10.801   3.806   5.831 -0.0862  0.3471  0.5973
  468MOL0     C61680  10.926   3.735   5.842  0.2261  0.1390  0.5897
  468MOL0     C61681  11.011   3.764   5.717 -0.2062 -0.0202 -0.0352
  468MOL0     C61682  10.941   3.739   5.580  0.3696  0.3600  0.9184
  468MOL0     C61683  11.026   3.763   5.452 -0.3070 -0.7984 -0.4087
  468MOL0     C61684  10.948   3.742   5.315 -0.3779  0.5968  0.1478
  468MOL0     C61685  10.856   3.863   5.284 -0.6723  0.9977 -0.6545
  468MOL0     C61686  10.790   3.850   5.145  0.4103  0.1216  0.3871
  468MOL0     C61687  10.900   3.857   5.037  0.6641 -0.3819 -0.4812
  468MOL0    Cl61688  10.846   3.756   4.894  0.0053 -0.1413  0.1205
  468MOL0     C61689  10.716   3.688   6.044  0.4872 -0.0530  0.0826
  468MOL0     C61690  10.606   3.672   6.138  0.2884  0.2060 -0.5327
  468MOL0     O61691  10.196   3.768   6.095 -0.0906  0.5452 -0.0566
  468MOL0     C61692  10.234   3.596   6.407  0.4092 -0.4037 -0.7208
  468MOL0     C61693  10.150   3.554   6.515  0.1063  0.6165 -0.0417
  468MOL0     N61694   9.750   3.814   6.966  0.8946 -0.5935  0.5910
  468MOL0     N61695   9.704   3.926   7.022  0.0937 -0.3873  0.1664
  468MOL0     C61696   8.774   4.243   7.325  0.0356 -0.4825  0.1139
  468MOL0     C61697   8.651   4.189   7.286 -0.7357 -0.0735  0.8766
  468MOL0     C61698   8.297   3.913   7.383  0.0375  0.4999 -0.2977
  468MOL0     C61699   8.221   3.831   7.470 -0.4593  0.3536  0.1681
  468MOL0     C61700   8.114   3.755   7.423 -0.8567 -0.0145 -0.7998
  468MOL0     C61701   8.086   3.759   7.286  0.8599  0.5725  0.0213
  468MOL0     O61702   7.988   3.676   7.234 -0.3073  0.0603 -0.0475
  468MOL0     C61703   7.855   3.688   7.292 -0.4684  0.1634  0.2060
  468MOL0     C61704   7.764   3.592   7.218 -0.2033  0.5518 -0.0292
  468MOL0     C61705   7.615   3.632   7.221  0.3834  0.3782  0.4517
  468MOL0     C61706   7.558   3.647   7.361  0.8845 -0.0612  0.1550
  468MOL0     C61707   7.594   3.555   7.468  0.4831  0.0841  0.2906
  468MOL0     C61708   7.650   3.484   7.551  0.7733  0.0778  0.1471
  468MOL0     C61709   8.165   3.834   7.197 -0.6437 -0.7507 -0.1706
  468MOL0     C61710   8.273   3.908   7.249 -0.0038 -0.1248 -0.3172
  468MOL0     H61711   8.472   4.261   7.564 -0.5044 -1.6606 -1.4293
  468MOL0     H61712   8.670   4.402   7.604 -1.5816  1.2162 -0.5231
  468MOL0     H61713   8.871   4.384   7.671 -0.1682 -2.1522 -0.8236
  468MOL0     H61714   8.975   4.511   7.611  1.2846 -1.1109  1.1086
  468MOL0     H61715   9.016   4.218   7.664 -0.8600  0.3776 -1.7236
  468MOL0     H61716   9.130   4.339   7.706 -1.0805  0.1756  0.3566
  468MOL0     H61717   9.198   4.355   7.449 -0.2559  1.4855  2.6858
  468MOL0     H61718   9.103   4.210   7.423 -0.3811  0.1684  0.8558
  468MOL0     H61719   9.338   4.226   7.621 -3.9186 -0.1913  2.3699
  468MOL0     H61720   9.235   4.088   7.599 -1.8285 -1.4695 -2.2482
  468MOL0     H61721   9.391   4.199   7.374  0.8208 -0.1571  1.5028
  468MOL0     H61722   9.267   4.080   7.354  0.5093  0.0274 -0.9712
  468MOL0     H61723   9.376   3.919   7.486  1.8743 -0.8503  0.8363
  468MOL0     H61724   9.521   4.026   7.500  0.0888 -0.2975  0.1588
  468MOL0     H61725   9.509   3.827   7.336 -1.6556 -0.3279 -0.2974
  468MOL0     H61726   9.429   3.936   7.222  0.3862 -2.1268 -0.0758
  468MOL0     H61727   9.709   3.992   7.337  0.1417 -5.2468 -0.6510
  468MOL0     H61728   9.605   4.089   7.222 -0.3338 -0.5316  0.7643
  468MOL0     H61729   9.728   3.727   7.280  1.0072 -1.0216  0.0320
  468MOL0     H61730   9.715   3.522   7.029 -0.1736  0.7279  1.0244
  468MOL0     H61731   9.875   3.541   7.119  0.1830 -1.3098 -0.2551
  468MOL0     H61732   9.963   3.634   6.897 -0.1949  1.0552 -2.5844
  468MOL0     H61733   9.811   3.611   6.825  0.9627 -0.7236 -1.0212
  468MOL0     H61734   9.962   3.370   6.939  1.4353  0.7406  0.3994
  468MOL0     H61735   9.826   3.362   6.837  0.7026 -0.3721 -1.0827
  468MOL0     H61736  10.023   3.341   6.689 -2.6771 -0.4796  0.1259
  468MOL0     H61737  10.096   3.484   6.778 -1.8509  3.6082 -0.3878
  468MOL0     H61738   9.852   3.681   6.443  0.1734 -0.5289  1.7325
  468MOL0     H61739   9.991   3.748   6.231  1.5937  0.7507 -0.8617
  468MOL0     H61740  10.376   3.873   5.993 -1.1536 -1.4955  2.9024
  468MOL0     H61741  10.554   3.888   5.828  1.3671  1.1751  0.7363
  468MOL0     H61742  10.913   3.628   5.858  3.0840 -0.2421  0.8100
  468MOL0     H61743  10.980   3.770   5.930  3.6245 -0.5103 -1.0689
  468MOL0     H61744  11.096   3.695   5.714 -0.5133 -0.6396  3.0138
  468MOL0     H61745  11.055   3.863   5.727  1.9421 -0.9872  0.4863
  468MOL0     H61746  10.840   3.779   5.583  0.3938  0.3740  2.7495
  468MOL0     H61747  10.918   3.632   5.574 -1.0005  0.7374 -1.1247
  468MOL0     H61748  11.066   3.865   5.452  2.7366 -1.9096 -0.4676
  468MOL0     H61749  11.120   3.709   5.459  1.0784  1.7020  2.5828
  468MOL0     H61750  10.890   3.649   5.311 -1.3114  1.0962 -5.1525
  468MOL0     H61751  11.025   3.742   5.237 -1.0758 -0.1417 -0.5598
  468MOL0     H61752  10.922   3.950   5.284  0.6401  0.0522 -2.3047
  468MOL0     H61753  10.774   3.862   5.357 -0.1790 -2.8220  0.0538
  468MOL0     H61754  10.737   3.754   5.144  0.6484 -0.1053  3.3108
  468MOL0     H61755  10.712   3.926   5.140 -0.0629 -0.2735  1.5378
  468MOL0     H61756  11.000   3.827   5.070  0.9166  0.8510 -0.0975
  468MOL0     H61757  10.900   3.962   5.006  2.7532 -0.5200 -1.0735
  468MOL0     H61758  10.808   3.636   6.070  0.7441  1.1540  1.6690
  468MOL0     H61759  10.607   3.603   6.222 -0.0412 -2.6810 -2.7099
  468MOL0     H61760  10.335   3.559   6.413  2.6697  4.9413  4.9917
  468MOL0     H61761  10.199   3.485   6.582 -1.4473  0.4409  0.9553
  468MOL0     H61762   8.858   4.231   7.257  1.0687 -1.0234  1.4356
  468MOL0     H61763   8.642   4.157   7.183 -0.7529 -0.8392  1.1161
  468MOL0     H61764   8.247   3.817   7.574 -0.6164 -1.9829 -0.0611
  468MOL0     H61765   8.065   3.690   7.494  0.7366 -1.8979 -1.3354
  468MOL0     H61766   7.834   3.795   7.281  2.6729  0.9067  0.5975
  468MOL0     H61767   7.861   3.666   7.399  2.1418  1.0688  0.3053
  468MOL0     H61768   7.805   3.593   7.117  2.1591  0.4740  0.8819
  468MOL0     H61769   7.774   3.492   7.260 -0.1914 -0.1797 -1.6818
  468MOL0     H61770   7.559   3.567   7.153 -0.9546  3.8400 -2.0423
  468MOL0     H61771   7.604   3.727   7.169 -1.7262  0.0674  0.2405
  468MOL0     H61772   7.600   3.741   7.396 -0.1984 -0.7750  3.8422
  468MOL0     H61773   7.449   3.661   7.353  0.5231 -2.6712 -0.4349
  468MOL0     H61774   7.658   3.432   7.644  2.2655  3.3527  2.0088
  468MOL0     H61775   8.150   3.829   7.090  3.1902 -1.3136 -0.8163
  468MOL0     H61776   8.344   3.958   7.185 -1.3821 -0.3390 -2.0720
  469MOL0     O61777   9.788   8.100  10.272  0.5559 -0.1138  0.2024
  469MOL0     C61778   9.784   8.117  10.396 -0.1350  0.2496 -0.2450
  469MOL0     O61779   9.689   8.065  10.476  0.3576 -0.3330 -0.2174
  469MOL0     C61780   9.576   8.005  10.423  0.4297 -0.5291  0.2019
  469MOL0     C61781   9.559   7.936  10.303 -0.6729  0.0860 -0.7637
  469MOL0     C61782   9.437   7.870  10.267  0.1261  0.1149  0.0220
  469MOL0     C61783   9.320   7.891  10.342  0.9483  0.0672 -0.6451
  469MOL0     O61784   9.189   7.850  10.306 -1.1035 -0.2704  0.2187
  469MOL0     C61785   9.178   7.821  10.168  0.3391  0.0849 -0.6325
  469MOL0     C61786   9.024   7.818  10.142 -0.1835  0.3834 -0.0012
  469MOL0     C61787   8.949   7.955  10.172 -0.3824 -0.2681 -0.3224
  469MOL0     C61788   8.801   7.931  10.214 -0.1930 -0.1545  0.7812
  469MOL0     C61789   8.737   8.060  10.272  1.3846 -0.0865  0.1401
  469MOL0     C61790   8.700   8.158  10.166  0.5616 -0.3349 -0.3224
  469MOL0     C61791   8.645   8.285  10.219 -0.0740 -0.8094  0.3333
  469MOL0     C61792   8.743   8.369  10.317 -0.0575  0.2703 -0.3631
  469MOL0     N61793   8.877   8.382  10.266 -0.2635 -0.0010 -0.1463
  469MOL0     C61794   8.972   8.292  10.307 -0.7824 -0.0474  0.7011
  469MOL0     C61795   9.079   8.325  10.232  0.3437  0.4143 -0.2655
  469MOL0     C61796   9.228   8.277  10.251  0.6237  0.2739 -0.2816
  469MOL0     C61797   9.332   8.368  10.181 -0.2130 -0.1525  0.4902
  469MOL0     C61798   9.470   8.318  10.204  0.5493  0.6553 -0.2422
  469MOL0     C61799   9.582   8.407  10.148  0.2412 -0.4646  0.4648
  469MOL0     O61800   9.586   8.513  10.244 -0.0026  0.5285 -1.3461
  469MOL0     C61801   9.711   8.579  10.249  0.3035 -0.7527  0.6212
  469MOL0     C61802   9.769   8.595  10.370  0.2514 -0.5783  0.4486
  469MOL0     C61803   9.888   8.668  10.392 -0.3999 -0.8005  0.2916
  469MOL0     C61804   9.962   8.711  10.281 -0.0964 -0.2635 -0.5819
  469MOL0     C61805  10.092   8.782  10.296 -0.5751  0.2004  0.9653
  469MOL0     O61806  10.124   8.878  10.203 -0.2293  0.7283 -0.1349
  469MOL0     C61807  10.261   8.913  10.191  1.3736 -0.4036 -0.1861
  469MOL0     C61808  10.371   8.830  10.188 -0.9879  0.6468  0.2559
  469MOL0     C61809  10.500   8.876  10.170 -0.3929 -0.7752  0.0520
  469MOL0     C61810  10.525   9.013  10.147  0.3278  0.0035 -0.2111
  469MOL0     O61811  10.642   9.081  10.123 -0.8040  0.2365  0.4153
  469MOL0     C61812  10.754   8.999  10.081 -0.8712  1.0712  0.6277
  469MOL0     C61813  10.869   9.092  10.024  0.1766 -0.9218  0.0615
  469MOL0     C61814  10.863   9.242  10.095  0.8610  0.6509  0.0281
  469MOL0     C61815  10.966   9.338  10.036 -0.0848 -1.1014  1.0457
  469MOL0     C61816  10.980   9.477  10.108  1.0946  0.9777  0.0975
  469MOL0     C61817  10.846   9.569  10.115  0.4032 -0.5260  0.3269
  469MOL0     C61818  10.895   9.720  10.074  0.7807  0.6005 -0.0196
  469MOL0     C61819  10.776   9.793  10.011 -0.4964  0.5078 -0.4635
  469MOL0    Cl61820  10.656   9.797  10.137 -0.3612  0.0765  0.1443
  469MOL0     C61821  10.410   9.095  10.163  0.7986  0.2086  0.3571
  469MOL0     C61822  10.280   9.051  10.180 -0.4748 -0.9166 -0.1209
  469MOL0     O61823  10.152   8.763  10.400  0.3274 -0.1436  0.1247
  469MOL0     C61824   9.911   8.681  10.151 -0.4150 -0.0318  0.1258
  469MOL0     C61825   9.777   8.618  10.130  0.3987 -0.2678  0.3034
  469MOL0     N61826   9.052   8.422  10.144  0.3507 -0.3002 -0.4512
  469MOL0     N61827   8.920   8.456  10.163 -0.3651  0.6698  0.2938
  469MOL0     C61828   9.339   7.975  10.456  0.9095  0.4149  0.4337
  469MOL0     C61829   9.460   8.020  10.497 -0.1579 -1.0149 -0.0572
  469MOL0     C61830   9.890   8.211  10.453 -0.4696 -0.1045  0.4262
  469MOL0     C61831   9.875   8.243  10.593  0.1485 -0.3467  0.0290
  469MOL0     C61832   9.966   8.341  10.646  0.0485  0.3436  0.1793
  469MOL0     C61833  10.071   8.387  10.578  0.7699 -0.1661  0.1768
  469MOL0     O61834  10.155   8.465  10.644  1.0706  0.0174  0.0352
  469MOL0     C61835  10.290   8.479  10.608  0.3070 -0.4442  0.3143
  469MOL0     C61836  10.362   8.350  10.562  0.5960 -0.5121  0.1435
  469MOL0     C61837  10.342   8.226  10.643  0.2283  0.0182 -0.4261
  469MOL0     C61838  10.347   8.253  10.797  0.0907 -0.2045  0.2358
  469MOL0     C61839  10.331   8.137  10.886 -0.3197  0.7395  0.2006
  469MOL0     C61840  10.311   8.034  10.944 -0.1482 -1.0196 -0.8397
  469MOL0     C61841  10.084   8.368  10.434  0.5046  0.5838  0.3694
  469MOL0     C61842   9.994   8.271  10.377  0.2037  0.1178  0.5825
  469MOL0     H61843   9.646   7.920  10.240 -1.6029  0.4392 -2.1725
  469MOL0     H61844   9.442   7.819  10.171  0.3350  0.0395  0.0714
  469MOL0     H61845   9.219   7.724  10.138 -1.6979 -2.4273  3.7115
  469MOL0     H61846   9.226   7.897  10.106  2.6836  0.1607  1.1194
  469MOL0     H61847   8.990   7.736  10.205  2.8177 -1.3761 -0.5044
  469MOL0     H61848   8.997   7.793  10.039 -1.9089  0.9964  0.2745
  469MOL0     H61849   8.956   8.026  10.089  1.9776  2.6348  2.1152
  469MOL0     H61850   9.001   7.999  10.257  0.4559 -0.7023 -0.5945
  469MOL0     H61851   8.742   7.873  10.143  2.0956 -1.9304  0.2203
  469MOL0     H61852   8.807   7.867  10.303 -2.1916 -0.9434  0.3996
  469MOL0     H61853   8.817   8.096  10.336  0.1516 -0.2324  1.8453
  469MOL0     H61854   8.646   8.055  10.333  2.2270 -0.6173  1.3828
  469MOL0     H61855   8.620   8.113  10.105 -2.2013 -0.4465  3.0415
  469MOL0     H61856   8.784   8.174  10.099  2.1968  3.8631  2.3320
  469MOL0     H61857   8.628   8.337  10.124 -0.1620 -0.0466  0.7586
  469MOL0     H61858   8.549   8.270  10.269 -2.0306  2.5778 -1.9969
  469MOL0     H61859   8.745   8.319  10.415  0.5397 -1.3454 -1.1580
  469MOL0     H61860   8.691   8.464  10.327 -3.1338 -1.3481  0.5507
  469MOL0     H61861   8.965   8.222  10.389 -0.5779 -0.6101  0.2430
  469MOL0     H61862   9.244   8.175  10.214  0.7854 -0.9393  2.8434
  469MOL0     H61863   9.248   8.265  10.358 -3.5803 -0.0621  0.6137
  469MOL0     H61864   9.317   8.471  10.217 -1.4103 -0.4628  0.9351
  469MOL0     H61865   9.320   8.383  10.074 -0.7977  2.6659  0.8675
  469MOL0     H61866   9.474   8.321  10.313 -3.1282  1.0356 -0.0004
  469MOL0     H61867   9.480   8.215  10.170  2.9677 -0.0592  2.2762
  469MOL0     H61868   9.556   8.453  10.053  3.0842 -2.6173 -1.5516
  469MOL0     H61869   9.681   8.362  10.135  2.0057  3.2369 -0.2073
  469MOL0     H61870   9.711   8.553  10.451  0.5350 -1.0824  0.3943
  469MOL0     H61871   9.920   8.683  10.494  2.6940 -2.5264 -0.3216
  469MOL0     H61872  10.360   8.722  10.198  0.7366 -0.1825 -4.1845
  469MOL0     H61873  10.579   8.802  10.159 -0.9462 -1.1842 -1.3411
  469MOL0     H61874  10.721   8.934   9.999 -1.5672 -1.5976  2.8927
  469MOL0     H61875  10.790   8.930  10.157 -3.4422 -2.9097 -1.4297
  469MOL0     H61876  10.865   9.114   9.917  1.3098  2.4143  0.5813
  469MOL0     H61877  10.972   9.058  10.035  0.8581 -0.4203 -3.5788
  469MOL0     H61878  10.889   9.218  10.198  1.7010 -5.6938 -1.1990
  469MOL0     H61879  10.759   9.275  10.092  0.0664 -1.6664 -1.5902
  469MOL0     H61880  11.070   9.304  10.040  0.6417  0.4857 -1.5931
  469MOL0     H61881  10.921   9.363   9.940 -0.5640  2.2842  1.9923
  469MOL0     H61882  11.061   9.530  10.057 -1.2438  2.0305 -2.7822
  469MOL0     H61883  11.016   9.453  10.208  3.4046 -2.3195 -1.3487
  469MOL0     H61884  10.790   9.568  10.209 -1.4841  2.1640 -0.6347
  469MOL0     H61885  10.773   9.538  10.039 -1.6023 -3.1878  3.0861
  469MOL0     H61886  10.924   9.766  10.169  2.8378 -0.7241  0.0658
  469MOL0     H61887  10.972   9.715   9.996  0.5014 -0.3006 -0.2502
  469MOL0     H61888  10.730   9.732   9.932 -1.2645 -0.4837  0.7073
  469MOL0     H61889  10.805   9.891   9.973  1.8457  1.4681  3.2565
  469MOL0     H61890  10.419   9.202  10.181 -1.1201  0.5010 -0.2053
  469MOL0     H61891  10.190   9.112  10.191  1.1356  1.3480  1.1185
  469MOL0     H61892   9.970   8.702  10.062  1.8545 -2.5219  0.9225
  469MOL0     H61893   9.728   8.597  10.036 -0.5427  1.6615  0.3156
  469MOL0     H61894   9.256   7.995  10.523  0.2802  0.4102 -0.3225
  469MOL0     H61895   9.473   8.085  10.583 -1.4133  1.9656 -1.9504
  469MOL0     H61896   9.807   8.203  10.667  0.0052 -1.5117 -0.7038
  469MOL0     H61897   9.954   8.378  10.747 -3.3184  0.7832 -0.2870
  469MOL0     H61898  10.345   8.512  10.697  1.5362 -1.9138  0.1321
  469MOL0     H61899  10.308   8.554  10.530  1.5313 -0.2616  0.7383
  469MOL0     H61900  10.308   8.330  10.468 -0.4109 -0.0350  0.6074
  469MOL0     H61901  10.470   8.364  10.556  0.4756 -0.0138 -1.5572
  469MOL0     H61902  10.414   8.147  10.622 -3.2710 -3.6632  0.2240
  469MOL0     H61903  10.243   8.184  10.624  0.2451  0.1891 -0.8943
  469MOL0     H61904  10.442   8.298  10.828 -0.7676  2.7522 -1.1370
  469MOL0     H61905  10.285   8.338  10.827 -0.3089  0.0172 -1.1475
  469MOL0     H61906  10.288   7.947  11.001  2.3074  0.1827  2.2650
  469MOL0     H61907  10.156   8.423  10.375  0.6773 -0.6968 -0.6507
  469MOL0     H61908   9.992   8.252  10.270 -0.1243 -0.2947  0.6602
  470MOL0     O61909  10.363   4.474   9.029  0.7338 -0.6768 -0.4931
  470MOL0     C61910  10.376   4.595   8.994 -0.5785  0.6155  0.3034
  470MOL0     O61911  10.493   4.669   8.998  0.5053  0.2761  0.1218
  470MOL0     C61912  10.602   4.594   9.034  0.4137  0.2411  0.2421
  470MOL0     C61913  10.631   4.573   9.167 -0.3247 -0.0224  0.0125
  470MOL0     C61914  10.749   4.501   9.206 -0.7050 -0.0340  1.0000
  470MOL0     C61915  10.828   4.449   9.101 -0.9321 -0.2953  0.3572
  470MOL0     O61916  10.921   4.358   9.135 -0.0287  0.1825  0.1589
  470MOL0     C61917  11.029   4.341   9.038  0.1248 -0.2218 -0.0583
  470MOL0     C61918  11.141   4.260   9.106 -0.0951 -0.0112  0.2533
  470MOL0     C61919  11.237   4.209   9.004  0.0862  0.1431 -0.3737
  470MOL0     C61920  11.381   4.216   9.066  0.4336  0.7004 -0.3120
  470MOL0     C61921  11.467   4.154   8.961  0.1124 -0.8995 -0.0286
  470MOL0     C61922  11.607   4.105   9.008 -0.2053 -0.2031  0.7396
  470MOL0     C61923  11.686   4.211   9.088  1.4283 -0.1048 -0.8256
  470MOL0     C61924  11.842   4.198   9.073 -0.3616 -0.3585  1.0300
  470MOL0     N61925  11.880   4.200   8.926 -0.3132 -0.4432 -0.5567
  470MOL0     C61926  11.868   4.311   8.843 -0.4135  0.2336  0.7807
  470MOL0     C61927  11.907   4.270   8.713  0.0391  0.1490 -0.7383
  470MOL0     C61928  11.892   4.353   8.586 -0.0089 -0.9300 -0.0818
  470MOL0     C61929  12.017   4.418   8.529  0.0965 -0.8310 -0.2537
  470MOL0     C61930  11.975   4.484   8.396 -0.1446 -0.0257 -0.5948
  470MOL0     C61931  11.999   4.631   8.385 -0.1357 -0.2465 -0.1799
  470MOL0     O61932  11.952   4.657   8.252  0.9074 -0.4913  0.0802
  470MOL0     C61933  12.049   4.697   8.160 -0.2436 -0.0917 -1.0366
  470MOL0     C61934  12.064   4.639   8.031 -0.0854  0.9100  0.4663
  470MOL0     C61935  12.166   4.665   7.938 -1.0384 -0.0323 -0.3776
  470MOL0     C61936  12.253   4.774   7.961  0.2638 -0.4224 -0.0541
  470MOL0     C61937  12.342   4.813   7.858 -0.0562  0.6253  0.1833
  470MOL0     O61938  12.313   4.792   7.730  0.0881 -0.0464 -0.3786
  470MOL0     C61939  12.425   4.789   7.645  0.0077  0.7346 -0.4683
  470MOL0     C61940  12.448   4.674   7.571  0.1332  0.1780 -1.2056
  470MOL0     C61941  12.565   4.686   7.496  0.0213  0.2004 -0.0159
  470MOL0     C61942  12.635   4.802   7.477 -0.9444 -0.5263  0.2583
  470MOL0     O61943  12.752   4.790   7.401  0.1553  0.4464  0.3351
  470MOL0     C61944  12.746   4.884   7.296 -0.7174  0.2594 -0.2040
  470MOL0     C61945  12.854   4.993   7.320  0.0816 -0.8258  0.4445
  470MOL0     C61946  12.998   4.941   7.309 -0.6424 -0.2783  1.0737
  470MOL0     C61947  13.095   5.042   7.360  0.9272 -0.5380 -0.0872
  470MOL0     C61948  13.237   4.993   7.378 -0.2154 -0.5144  0.6087
  470MOL0     C61949  13.328   4.961   7.262 -0.6435 -0.8362  0.3849
  470MOL0     C61950  13.363   5.084   7.163 -0.2245  1.4298  0.8662
  470MOL0     C61951  13.495   5.070   7.093 -0.3219  0.6355  0.4300
  470MOL0    Cl61952  13.460   4.959   6.965 -0.2869 -0.2064 -0.1630
  470MOL0     C61953  12.598   4.923   7.533  0.6538 -1.4525 -0.0267
  470MOL0     C61954  12.489   4.914   7.623  0.9292  0.1640  0.4591
  470MOL0     O61955  12.455   4.858   7.901  0.5859 -0.2971  1.1420
  470MOL0     C61956  12.248   4.823   8.093  0.3717 -0.2611 -0.4492
  470MOL0     C61957  12.145   4.797   8.190 -0.4987  0.5400 -0.1329
  470MOL0     N61958  11.933   4.135   8.724  0.7512  0.0150  0.6299
  470MOL0     N61959  11.926   4.093   8.845 -0.5388  0.6934 -0.1437
  470MOL0     C61960  10.797   4.470   8.962  0.3265  0.5500  0.1360
  470MOL0     C61961  10.687   4.543   8.929  0.7103 -0.6508 -0.2795
  470MOL0     C61962  10.256   4.663   8.935  1.3597  0.8769 -0.3831
  470MOL0     C61963  10.144   4.587   8.894 -0.0732 -0.0664 -0.2522
  470MOL0     C61964  10.032   4.652   8.842  0.0856  0.9105 -0.4788
  470MOL0     C61965  10.024   4.796   8.827 -0.2804  0.1953 -0.0593
  470MOL0     O61966   9.915   4.853   8.780  0.5633  1.0799 -0.1595
  470MOL0     C61967   9.832   4.894   8.883  1.0269 -0.1025 -0.7695
  470MOL0     C61968   9.734   5.006   8.840 -0.8731  0.1448 -0.0162
  470MOL0     C61969   9.608   4.991   8.941  0.0885 -0.6648 -0.8021
  470MOL0     C61970   9.493   4.904   8.886  0.1335  0.4871  0.7935
  470MOL0     C61971   9.508   4.762   8.908  0.0913 -0.1898 -1.2757
  470MOL0     C61972   9.515   4.647   8.940 -0.9708  0.9534  0.0572
  470MOL0     C61973  10.139   4.861   8.867  0.3031 -0.2721  0.9197
  470MOL0     C61974  10.252   4.795   8.915 -0.2291 -0.3703 -0.0034
  470MOL0     H61975  10.572   4.612   9.249 -1.1782  1.2836 -1.1699
  470MOL0     H61976  10.776   4.474   9.307 -0.9877 -1.2537  0.7766
  470MOL0     H61977  11.070   4.437   9.004 -0.1447  0.5846  1.7714
  470MOL0     H61978  10.995   4.273   8.960  0.7382 -1.0109  0.3409
  470MOL0     H61979  11.104   4.180   9.171 -0.7291  1.3882  1.6787
  470MOL0     H61980  11.183   4.330   9.179 -3.2433  0.2621  1.9726
  470MOL0     H61981  11.242   4.282   8.923  1.0968  1.3443  0.7364
  470MOL0     H61982  11.203   4.109   8.976  1.2832 -1.2553  2.6933
  470MOL0     H61983  11.409   4.321   9.080 -0.5708  1.6208 -4.1087
  470MOL0     H61984  11.388   4.150   9.153 -2.2374 -2.7044 -2.4054
  470MOL0     H61985  11.481   4.225   8.879  4.6939 -0.5180  0.8046
  470MOL0     H61986  11.426   4.062   8.918  1.7194 -1.0651 -1.3105
  470MOL0     H61987  11.663   4.077   8.919  0.0699 -2.4788  1.5523
  470MOL0     H61988  11.607   4.012   9.067 -0.8543 -0.8709 -0.2828
  470MOL0     H61989  11.653   4.312   9.060  1.6588  0.6583  1.4478
  470MOL0     H61990  11.659   4.190   9.192  4.2722  0.4210  0.1182
  470MOL0     H61991  11.870   4.101   9.114  0.1515  0.2833  2.2291
  470MOL0     H61992  11.897   4.279   9.121 -1.6610  1.2340 -0.0328
  470MOL0     H61993  11.823   4.407   8.866 -0.2130  0.9914 -1.6981
  470MOL0     H61994  11.816   4.430   8.603  0.4003 -0.8707  1.7342
  470MOL0     H61995  11.865   4.281   8.508  4.0888 -0.6638 -2.0199
  470MOL0     H61996  12.095   4.343   8.514  0.7330  0.1221 -1.9281
  470MOL0     H61997  12.048   4.493   8.602 -4.7701  0.5487  0.7276
  470MOL0     H61998  12.038   4.435   8.322  0.4475  0.8920 -0.7144
  470MOL0     H61999  11.871   4.464   8.366  0.4100 -0.7450 -2.1195
  470MOL0     H62000  12.105   4.649   8.404  0.2664 -3.8163  1.9877
  470MOL0     H62001  11.940   4.687   8.459 -0.1387  0.8739 -1.0103
  470MOL0     H62002  11.994   4.559   8.007 -1.8487  2.0291  1.6854
  470MOL0     H62003  12.180   4.597   7.854  0.4183  0.2046 -0.3460
  470MOL0     H62004  12.383   4.587   7.581 -1.2102  1.0947 -1.6618
  470MOL0     H62005  12.604   4.602   7.438  1.8752  1.0285 -0.0534
  470MOL0     H62006  12.650   4.932   7.275  0.0357  1.4200 -1.1398
  470MOL0     H62007  12.779   4.844   7.199 -0.2769 -0.4591  0.2338
  470MOL0     H62008  12.855   5.029   7.423  1.1701 -2.7175  1.1545
  470MOL0     H62009  12.837   5.085   7.264  0.6761 -0.6443  0.5533
  470MOL0     H62010  13.021   4.927   7.203  2.1225  1.7107  1.3258
  470MOL0     H62011  13.001   4.853   7.374 -1.3782  1.6377  3.8849
  470MOL0     H62012  13.094   5.130   7.295  0.5778 -0.8679 -0.5354
  470MOL0     H62013  13.059   5.058   7.462 -0.0027 -1.1995 -0.3038
  470MOL0     H62014  13.222   4.899   7.432 -0.3478  0.5242  2.4705
  470MOL0     H62015  13.290   5.054   7.451 -0.6020 -2.1931  2.3807
  470MOL0     H62016  13.288   4.875   7.207  0.1861 -0.6672 -0.5063
  470MOL0     H62017  13.429   4.945   7.301 -0.4652 -1.3089 -0.2541
  470MOL0     H62018  13.277   5.088   7.095  2.8604 -1.8834 -3.9382
  470MOL0     H62019  13.376   5.173   7.224  1.2487  1.8745 -0.0532
  470MOL0     H62020  13.577   5.034   7.156  1.9329  3.7910 -0.4701
  470MOL0     H62021  13.527   5.165   7.049 -1.8825  1.1497  0.3306
  470MOL0     H62022  12.653   5.014   7.511  0.6319 -1.2827  0.6179
  470MOL0     H62023  12.449   5.002   7.672  2.0898  2.1186 -1.8316
  470MOL0     H62024  12.308   4.905   8.132  0.5385 -1.0708  1.0256
  470MOL0     H62025  12.124   4.862   8.275  0.0791  0.0936  0.3580
  470MOL0     H62026  10.863   4.426   8.888 -1.4622  0.1003 -1.2521
  470MOL0     H62027  10.632   4.533   8.837  0.8757  1.0280 -0.5891
  470MOL0     H62028  10.128   4.483   8.920 -3.2133  0.6131  0.9734
  470MOL0     H62029   9.950   4.588   8.811 -1.5766  2.3040  0.8510
  470MOL0     H62030   9.881   4.945   8.968 -2.5789  0.1759  1.3437
  470MOL0     H62031   9.781   4.805   8.921 -0.1760  1.0529  0.4538
  470MOL0     H62032   9.776   5.106   8.853 -2.3689  0.6121  1.7599
  470MOL0     H62033   9.706   4.989   8.736 -2.7593 -2.1826  0.7750
  470MOL0     H62034   9.568   5.090   8.965  2.0921 -0.1506  0.7524
  470MOL0     H62035   9.640   4.950   9.037 -1.5412 -0.5984 -0.1887
  470MOL0     H62036   9.402   4.941   8.935 -0.1159 -2.4764  2.8312
  470MOL0     H62037   9.490   4.927   8.779 -1.6127  4.8226  1.5601
  470MOL0     H62038   9.522   4.542   8.959  1.5908  1.3235  1.7772
  470MOL0     H62039  10.140   4.969   8.853 -0.5971 -0.4483 -0.6976
  470MOL0     H62040  10.346   4.842   8.944 -0.8077  0.1906  1.0157
  471MOL0     O62041   4.494   6.285   6.402 -0.0279 -0.5339  0.4873
  471MOL0     C62042   4.563   6.232   6.314  0.2607 -0.9683 -0.8137
  471MOL0     O62043   4.518   6.193   6.194 -0.2932  0.5977 -0.0651
  471MOL0     C62044   4.394   6.238   6.166  1.4210 -0.0716 -0.4739
  471MOL0     C62045   4.366   6.367   6.108  1.1608 -0.0581  0.6900
  471MOL0     C62046   4.231   6.406   6.071  0.5956 -0.2094 -0.6845
  471MOL0     C62047   4.126   6.324   6.098 -0.0594 -0.2970  0.4387
  471MOL0     O62048   4.001   6.362   6.043 -0.0917 -0.0441 -1.1681
  471MOL0     C62049   3.940   6.273   5.951 -0.0786 -0.0025 -0.3730
  471MOL0     C62050   3.806   6.328   5.913  0.0830  1.3873  0.2448
  471MOL0     C62051   3.699   6.311   6.022  0.3938 -1.0276 -0.8930
  471MOL0     C62052   3.552   6.310   5.963  0.3212  0.0893 -0.2985
  471MOL0     C62053   3.514   6.434   5.883 -0.0769  1.0319 -0.2291
  471MOL0     C62054   3.369   6.426   5.834  0.4958  0.9747 -0.7501
  471MOL0     C62055   3.337   6.558   5.759 -0.5319 -0.2383  0.4416
  471MOL0     C62056   3.207   6.563   5.684  0.2987 -0.3770  0.3408
  471MOL0     N62057   3.212   6.490   5.557 -0.4994 -0.5490  0.6962
  471MOL0     C62058   3.262   6.529   5.436 -0.1852  0.5125 -0.5214
  471MOL0     C62059   3.263   6.419   5.356 -1.0528 -0.4566 -0.6590
  471MOL0     C62060   3.302   6.406   5.211 -0.6997  0.2834  0.1617
  471MOL0     C62061   3.235   6.297   5.141  0.5192 -1.0350 -0.3704
  471MOL0     C62062   3.078   6.319   5.146  0.5603  0.1560  0.0826
  471MOL0     C62063   3.006   6.203   5.087  0.1120  0.2685 -0.3103
  471MOL0     O62064   2.866   6.199   5.119  0.1935  0.2628 -0.0500
  471MOL0     C62065   2.829   6.153   5.241 -0.8384  0.4372  0.1971
  471MOL0     C62066   2.903   6.067   5.329 -0.2449 -0.5778 -0.0526
  471MOL0     C62067   2.847   6.007   5.442  0.8300 -1.0137 -0.4907
  471MOL0     C62068   2.707   6.043   5.474  0.1934  0.4108 -0.0280
  471MOL0     C62069   2.645   5.986   5.600 -0.0181 -0.6962 -0.7180
  471MOL0     O62070   2.699   5.868   5.651  0.0678  0.7669 -0.2575
  471MOL0     C62071   2.640   5.803   5.765  0.1394  0.3371  0.4132
  471MOL0     C62072   2.580   5.867   5.875  0.7054 -0.3380  0.4695
  471MOL0     C62073   2.552   5.794   5.995  1.3761  0.4008 -0.2231
  471MOL0     C62074   2.558   5.649   5.988 -0.6412  0.1700  0.3113
  471MOL0     O62075   2.534   5.574   6.102 -0.3788 -0.3271 -0.8822
  471MOL0     C62076   2.398   5.542   6.131  0.8826 -0.4716 -0.1458
  471MOL0     C62077   2.387   5.392   6.099  0.0869  0.3156 -0.4017
  471MOL0     C62078   2.241   5.339   6.122  0.4136  0.2984  0.4334
  471MOL0     C62079   2.249   5.181   6.124  0.5586 -0.1521  0.4255
  471MOL0     C62080   2.292   5.134   5.991  0.8491  1.1229  0.4599
  471MOL0     C62081   2.319   4.984   5.986  0.0418 -0.6658  0.0249
  471MOL0     C62082   2.359   4.939   5.846 -0.9606 -0.1385 -0.9021
  471MOL0     C62083   2.347   4.795   5.822 -0.1928  0.5185 -0.0032
  471MOL0    Cl62084   2.459   4.762   5.694  0.6008  0.2873 -0.5008
  471MOL0     C62085   2.605   5.584   5.874  0.1618  0.5246 -0.3184
  471MOL0     C62086   2.650   5.663   5.765  0.4728 -0.7314  0.0083
  471MOL0     O62087   2.541   6.037   5.629  0.3123 -0.3563  0.2931
  471MOL0     C62088   2.638   6.144   5.398  0.5844 -0.1695  0.3326
  471MOL0     C62089   2.702   6.189   5.282  0.3381 -0.5272 -0.8508
  471MOL0     N62090   3.225   6.309   5.432  0.1602 -0.4823 -0.9710
  471MOL0     N62091   3.191   6.352   5.551 -0.4362  1.1537  0.1390
  471MOL0     C62092   4.155   6.201   6.160  0.5240  0.1786  0.0737
  471MOL0     C62093   4.278   6.159   6.196 -0.7381 -0.2504 -0.1185
  471MOL0     C62094   4.699   6.179   6.350 -1.0780 -0.7830  0.6101
  471MOL0     C62095   4.767   6.090   6.269  0.5193  0.4931  0.1225
  471MOL0     C62096   4.889   6.036   6.306  0.1941 -0.2468  0.1471
  471MOL0     C62097   4.940   6.072   6.431 -0.6199  0.2461 -0.8199
  471MOL0     O62098   5.042   6.002   6.493  0.4047  0.8760 -0.6254
  471MOL0     C62099   5.140   6.063   6.577 -0.0879  0.3234 -1.0406
  471MOL0     C62100   5.221   5.946   6.645  0.0488  0.4989 -0.5449
  471MOL0     C62101   5.155   5.842   6.737 -1.0620 -0.2611  0.2761
  471MOL0     C62102   5.050   5.897   6.834  1.0750  0.7140 -0.1151
  471MOL0     C62103   5.097   6.006   6.916 -0.2402  1.0567 -0.7905
  471MOL0     C62104   5.167   6.080   6.984  0.1278 -0.1777 -0.4030
  471MOL0     C62105   4.883   6.172   6.505  0.1044  0.2468 -0.7695
  471MOL0     C62106   4.758   6.225   6.467 -0.5403  0.3264  0.2505
  471MOL0     H62107   4.440   6.445   6.090  0.8655  0.1582  0.4263
  471MOL0     H62108   4.217   6.489   6.003  2.4922 -0.6630 -1.7031
  471MOL0     H62109   3.933   6.176   5.999 -1.8567  0.5887  0.6434
  471MOL0     H62110   3.995   6.254   5.858 -0.3606  0.4616 -0.6399
  471MOL0     H62111   3.779   6.289   5.814  1.6978 -0.9734  0.6587
  471MOL0     H62112   3.826   6.435   5.897  1.0679  1.0810 -0.7967
  471MOL0     H62113   3.710   6.391   6.096 -0.9485 -2.0261  0.4505
  471MOL0     H62114   3.719   6.220   6.080  1.5493 -1.1204 -1.4176
  471MOL0     H62115   3.553   6.223   5.896  0.2504  0.7379 -1.1562
  471MOL0     H62116   3.480   6.314   6.045  0.0301  0.8317 -0.5841
  471MOL0     H62117   3.573   6.430   5.791  2.6962  0.6715  1.4665
  471MOL0     H62118   3.537   6.525   5.940 -1.3650  1.2726 -0.0574
  471MOL0     H62119   3.299   6.407   5.916  1.0455  1.4353 -0.1685
  471MOL0     H62120   3.368   6.346   5.758  4.6089 -1.2111  1.1715
  471MOL0     H62121   3.346   6.638   5.833 -0.4849  1.2339 -1.1038
  471MOL0     H62122   3.415   6.580   5.686  0.7333 -3.2533  0.7259
  471MOL0     H62123   3.175   6.667   5.672  4.5074  1.0252 -0.5724
  471MOL0     H62124   3.121   6.517   5.733 -2.4509  4.4968  0.7002
  471MOL0     H62125   3.291   6.629   5.406  1.3565 -0.5592 -2.9244
  471MOL0     H62126   3.409   6.414   5.190 -0.2535  0.9302  2.4371
  471MOL0     H62127   3.264   6.500   5.170 -4.7792  0.6443  3.9714
  471MOL0     H62128   3.263   6.212   5.204  0.5743  1.4392  3.2687
  471MOL0     H62129   3.265   6.292   5.036  2.6442  0.4721  0.1095
  471MOL0     H62130   3.051   6.324   5.252 -2.8129 -1.2883 -0.5948
  471MOL0     H62131   3.052   6.410   5.091 -0.2266 -1.3290 -2.1325
  471MOL0     H62132   3.058   6.112   5.119  1.9518  1.9615  1.7961
  471MOL0     H62133   3.004   6.219   4.979  0.1173  2.1841 -0.0515
  471MOL0     H62134   2.996   6.028   5.290  1.3619  1.3678  1.6435
  471MOL0     H62135   2.896   5.929   5.499 -1.6955 -2.4614 -0.1822
  471MOL0     H62136   2.576   5.975   5.863 -0.5935 -0.3792  0.3011
  471MOL0     H62137   2.507   5.844   6.080  1.6340  0.9321 -0.3964
  471MOL0     H62138   2.323   5.596   6.072 -0.5946  1.4712  3.2165
  471MOL0     H62139   2.376   5.566   6.235  3.4982 -0.8029  0.5413
  471MOL0     H62140   2.460   5.329   6.149 -1.5049 -1.6873 -0.4425
  471MOL0     H62141   2.405   5.374   5.992  3.6320 -0.0801  0.1527
  471MOL0     H62142   2.178   5.374   6.040 -0.1064 -2.7438 -0.5868
  471MOL0     H62143   2.202   5.378   6.216  3.3386 -0.4080  2.0619
  471MOL0     H62144   2.331   5.147   6.189  1.6719  0.9618 -0.3482
  471MOL0     H62145   2.149   5.146   6.152  0.1431 -0.1646 -1.0185
  471MOL0     H62146   2.384   5.186   5.965  1.5364  0.5312  1.6459
  471MOL0     H62147   2.223   5.158   5.909  1.2606  2.2377  0.4267
  471MOL0     H62148   2.242   4.935   6.047 -0.4047 -1.2866 -1.0003
  471MOL0     H62149   2.409   4.962   6.044 -0.9711 -0.8454  1.6122
  471MOL0     H62150   2.293   4.981   5.770 -4.3474 -1.3343  1.1218
  471MOL0     H62151   2.458   4.983   5.830  0.1149 -0.9912  2.5115
  471MOL0     H62152   2.245   4.773   5.789  0.3559 -0.4330 -1.1323
  471MOL0     H62153   2.383   4.736   5.906  2.0818  2.4215  0.4583
  471MOL0     H62154   2.613   5.475   5.874  1.5909  0.5773  1.5921
  471MOL0     H62155   2.697   5.614   5.681 -0.5298  0.6960 -1.4389
  471MOL0     H62156   2.538   6.183   5.416 -0.4325 -1.1549 -2.6119
  471MOL0     H62157   2.654   6.250   5.207  0.2444 -1.1327 -1.2920
  471MOL0     H62158   4.077   6.126   6.167  1.2756 -1.0508 -3.1245
  471MOL0     H62159   4.281   6.065   6.250 -1.5858 -1.4757 -2.1064
  471MOL0     H62160   4.722   6.052   6.177 -0.3414  2.5600 -0.3902
  471MOL0     H62161   4.942   5.974   6.235  1.0278 -1.0505  1.4467
  471MOL0     H62162   5.100   6.121   6.661  2.0145 -1.6122  1.4545
  471MOL0     H62163   5.207   6.125   6.517  0.2989  2.5211  1.4437
  471MOL0     H62164   5.276   5.884   6.574  1.2441  0.9170 -0.0051
  471MOL0     H62165   5.282   6.006   6.713 -0.7531  1.4919 -0.6712
  471MOL0     H62166   5.225   5.786   6.800  0.5914  1.1097 -0.2647
  471MOL0     H62167   5.106   5.768   6.673  0.2854 -1.8792  1.0308
  471MOL0     H62168   4.960   5.938   6.788 -0.6907  1.1844  3.4211
  471MOL0     H62169   5.035   5.813   6.902  1.9535  2.8596  2.9799
  471MOL0     H62170   5.233   6.157   7.018  0.3749 -0.5317 -0.0739
  471MOL0     H62171   4.937   6.211   6.591  1.5940 -1.1302 -1.0367
  471MOL0     H62172   4.712   6.311   6.515 -1.4562 -0.0871  0.1414
  472MOL0     O62173   1.012   5.345  10.693  0.2432  0.3983  0.1654
  472MOL0     C62174   1.023   5.443  10.767  0.8915 -0.1733 -0.4876
  472MOL0     O62175   1.124   5.474  10.856 -0.6774 -0.0366 -0.2457
  472MOL0     C62176   1.242   5.404  10.862 -0.1046  0.7799  0.2936
  472MOL0     C62177   1.230   5.266  10.883 -0.5102  0.0088 -0.9062
  472MOL0     C62178   1.345   5.185  10.913  0.8333  0.1810  0.9662
  472MOL0     C62179   1.470   5.248  10.921  0.4137 -1.2867  0.2145
  472MOL0     O62180   1.580   5.174  10.948  0.3933 -0.7143 -0.4339
  472MOL0     C62181   1.667   5.151  10.840 -1.1220  0.0060  0.7725
  472MOL0     C62182   1.749   5.026  10.865 -0.1863  0.1431 -0.5539
  472MOL0     C62183   1.904   5.037  10.870  0.0794 -0.4640 -0.0967
  472MOL0     C62184   1.930   5.092  11.012 -0.3113 -0.6527  0.1270
  472MOL0     C62185   2.067   5.143  11.043 -0.4138 -0.1562  0.6806
  472MOL0     C62186   2.161   5.024  11.075  0.2165 -0.0405  0.0855
  472MOL0     C62187   2.252   5.057  11.195 -0.4158  0.0100 -0.1242
  472MOL0     C62188   2.218   4.995  11.342  0.4289 -0.0286  0.1295
  472MOL0     N62189   2.081   5.030  11.372 -0.0126 -0.8561 -0.4955
  472MOL0     C62190   2.033   5.167  11.382 -1.3924  0.1024 -0.0893
  472MOL0     C62191   1.900   5.150  11.417  0.2480  0.2450 -0.3897
  472MOL0     C62192   1.812   5.277  11.444  0.7148  0.7188  0.0120
  472MOL0     C62193   1.690   5.279  11.333 -0.5463 -0.0332 -1.4164
  472MOL0     C62194   1.635   5.425  11.334 -0.4193  0.3975  0.0507
  472MOL0     C62195   1.564   5.462  11.468  0.2182  1.5794  0.8024
  472MOL0     O62196   1.487   5.587  11.448  0.2652 -0.5697 -0.0861
  472MOL0     C62197   1.368   5.581  11.528  0.1703  0.0053  0.1482
  472MOL0     C62198   1.251   5.651  11.487 -0.1764  1.0412  0.2413
  472MOL0     C62199   1.136   5.653  11.561  0.6110 -0.2937  0.0829
  472MOL0     C62200   1.134   5.597  11.696 -0.5581  0.1442 -0.1719
  472MOL0     C62201   1.015   5.605  11.782  0.2456  0.2530  0.3569
  472MOL0     O62202   1.002   5.512  11.883  0.2912 -0.0685  0.7722
  472MOL0     C62203   0.897   5.491  11.960 -0.0519  1.0581 -1.0379
  472MOL0     C62204   0.772   5.537  11.949 -0.2511 -0.8920  0.1557
  472MOL0     C62205   0.672   5.495  12.040 -0.3712  0.6617  0.3289
  472MOL0     C62206   0.692   5.390  12.124 -0.2901 -0.4613 -0.2552
  472MOL0     O62207   0.596   5.330  12.209 -0.2609  0.2737 -0.1453
  472MOL0     C62208   0.470   5.387  12.209  0.0698 -0.0121  0.7994
  472MOL0     C62209   0.400   5.308  12.315 -0.3312 -0.4629  0.3912
  472MOL0     C62210   0.251   5.338  12.314  0.1302 -0.3158 -0.4254
  472MOL0     C62211   0.180   5.233  12.396  0.2843 -0.4307 -0.4019
  472MOL0     C62212   0.032   5.262  12.407 -0.1452 -0.6256  0.1073
  472MOL0     C62213  -0.045   5.198  12.529  0.3059  0.2490 -0.2196
  472MOL0     C62214  -0.177   5.273  12.581  0.4986  0.5409  0.1916
  472MOL0     C62215  -0.291   5.253  12.481  0.4297 -0.7182  0.3376
  472MOL0    Cl62216  -0.441   5.293  12.563  0.4274 -0.1593 -0.6436
  472MOL0     C62217   0.820   5.339  12.139 -0.0254  0.0198 -0.0526
  472MOL0     C62218   0.917   5.379  12.046  0.0102  0.8004  0.6107
  472MOL0     O62219   0.943   5.706  11.764  0.7195 -0.0805  0.4938
  472MOL0     C62220   1.250   5.528  11.740  0.6381  0.3551  0.2831
  472MOL0     C62221   1.361   5.521  11.656 -0.7960  0.1157 -0.5199
  472MOL0     N62222   1.874   5.010  11.425 -0.1782 -0.3442 -0.3522
  472MOL0     N62223   1.990   4.946  11.412 -0.2433 -0.2462  0.3830
  472MOL0     C62224   1.484   5.385  10.883 -0.7791  0.1584  0.2996
  472MOL0     C62225   1.370   5.463  10.861 -0.0179 -0.1197 -0.8277
  472MOL0     C62226   0.894   5.514  10.774  0.3867  0.1840 -1.2388
  472MOL0     C62227   0.771   5.457  10.738 -0.1041 -0.4606  0.3998
  472MOL0     C62228   0.651   5.524  10.763  0.2401 -0.1720 -0.0751
  472MOL0     C62229   0.649   5.654  10.799 -0.8189 -0.5065 -0.6934
  472MOL0     O62230   0.525   5.720  10.811  0.2880  0.3333 -0.1233
  472MOL0     C62231   0.518   5.840  10.890  0.1703  0.2010 -0.5194
  472MOL0     C62232   0.373   5.868  10.923 -0.2093 -0.1649 -0.1172
  472MOL0     C62233   0.285   5.879  10.795 -0.3767  0.1841  0.2797
  472MOL0     C62234   0.145   5.912  10.839  0.0059  0.2808 -0.0992
  472MOL0     C62235   0.056   5.943  10.726  0.0393  0.5636 -0.0853
  472MOL0     C62236  -0.043   5.946  10.654  0.7618 -0.5042  0.1674
  472MOL0     C62237   0.770   5.713  10.829 -0.2435 -0.2080 -0.8824
  472MOL0     C62238   0.894   5.642  10.819 -0.0044 -0.0692  0.1306
  472MOL0     H62239   1.130   5.224  10.892 -0.3629 -1.0642 -3.4384
  472MOL0     H62240   1.323   5.079  10.926  0.2412  0.0295 -0.9785
  472MOL0     H62241   1.731   5.238  10.821 -0.2432 -0.9864 -1.0039
  472MOL0     H62242   1.606   5.133  10.751 -0.7226 -2.2885  0.9042
  472MOL0     H62243   1.730   4.958  10.782  1.5679  0.1920 -1.0333
  472MOL0     H62244   1.717   4.973  10.955 -0.8740  2.1577  0.4463
  472MOL0     H62245   1.943   5.112  10.801  0.6654  0.0973  0.8182
  472MOL0     H62246   1.946   4.936  10.861 -3.3511 -2.7762  5.0761
  472MOL0     H62247   1.859   5.175  11.016  1.5485  1.0231  0.0583
  472MOL0     H62248   1.909   5.011  11.084  0.8059 -1.8828 -0.8746
  472MOL0     H62249   2.073   5.220  11.120  2.1862 -0.0764  0.4883
  472MOL0     H62250   2.106   5.189  10.951 -0.1296 -4.5158 -1.6707
  472MOL0     H62251   2.223   5.000  10.988  1.2525 -0.4191  0.8963
  472MOL0     H62252   2.100   4.940  11.109  0.9134 -0.4472  0.3493
  472MOL0     H62253   2.352   5.013  11.185  0.5645  2.2540 -0.6939
  472MOL0     H62254   2.264   5.165  11.205 -3.1251  0.4739 -0.9347
  472MOL0     H62255   2.286   5.028  11.422 -0.3158  1.7926  0.0498
  472MOL0     H62256   2.219   4.886  11.338 -1.5341 -0.0346 -1.5470
  472MOL0     H62257   2.091   5.258  11.374  0.8091 -0.9212  2.5332
  472MOL0     H62258   1.885   5.358  11.433  1.1875  0.5842  1.8903
  472MOL0     H62259   1.770   5.271  11.545 -1.2738 -0.1091 -0.8218
  472MOL0     H62260   1.601   5.223  11.364  1.5108 -2.5431  0.4176
  472MOL0     H62261   1.719   5.253  11.231 -0.1460 -1.0486 -1.0551
  472MOL0     H62262   1.715   5.498  11.320  1.5617 -1.6009  0.3502
  472MOL0     H62263   1.568   5.436  11.249 -0.2383  0.6839 -0.0569
  472MOL0     H62264   1.644   5.479  11.541  1.0676  0.5042  0.1293
  472MOL0     H62265   1.495   5.382  11.494  0.0208  1.2528 -0.6583
  472MOL0     H62266   1.256   5.708  11.395  0.5835  2.4665  1.1259
  472MOL0     H62267   1.062   5.722  11.524  0.5547  0.8239  2.1309
  472MOL0     H62268   0.744   5.616  11.880 -2.2440 -1.1477  0.6206
  472MOL0     H62269   0.575   5.543  12.049 -0.2656  0.6015  2.0034
  472MOL0     H62270   0.422   5.381  12.110  0.1056 -3.1268  0.8572
  472MOL0     H62271   0.478   5.486  12.253  2.3571 -0.2436  1.0089
  472MOL0     H62272   0.451   5.319  12.411  0.3117 -1.4651  0.1790
  472MOL0     H62273   0.417   5.201  12.301  1.5255  0.1038 -2.4453
  472MOL0     H62274   0.209   5.340  12.213 -1.0798 -1.5819  0.0134
  472MOL0     H62275   0.247   5.439  12.355 -1.1584 -0.0682 -1.0947
  472MOL0     H62276   0.184   5.138  12.340  0.9067  0.4790 -1.9804
  472MOL0     H62277   0.230   5.219  12.492  0.1138  2.1348  0.1199
  472MOL0     H62278  -0.014   5.230  12.313  0.5413  2.3832 -1.3808
  472MOL0     H62279   0.023   5.371  12.404  1.6766 -0.3448 -4.6454
  472MOL0     H62280   0.025   5.194  12.612 -1.2636  1.4961  1.2298
  472MOL0     H62281  -0.069   5.096  12.497  1.0482  0.2978 -0.9683
  472MOL0     H62282  -0.207   5.233  12.679  0.8300 -0.8203 -0.2513
  472MOL0     H62283  -0.161   5.381  12.594  0.5982  0.4873  0.5394
  472MOL0     H62284  -0.296   5.152  12.440  2.5214 -0.5137 -0.5188
  472MOL0     H62285  -0.276   5.332  12.407 -2.0239  0.3795  0.9198
  472MOL0     H62286   0.835   5.256  12.207 -0.7085 -1.2487 -1.3956
  472MOL0     H62287   1.011   5.328  12.030 -1.4968 -1.0234 -4.5197
  472MOL0     H62288   1.255   5.481  11.837 -2.8671 -1.8438 -0.4376
  472MOL0     H62289   1.437   5.476  11.719 -1.6244  1.4287  1.4922
  472MOL0     H62290   1.583   5.430  10.892 -0.3157 -0.4058 -1.5094
  472MOL0     H62291   1.378   5.570  10.845  4.0962  0.5235  3.2396
  472MOL0     H62292   0.756   5.354  10.708 -0.8309  0.3597 -2.2883
  472MOL0     H62293   0.549   5.488  10.754  0.4863 -0.6741 -1.0735
  472MOL0     H62294   0.554   5.920  10.824  1.2990 -0.6344 -0.9421
  472MOL0     H62295   0.577   5.834  10.982 -0.3687  3.8467  0.2208
  472MOL0     H62296   0.338   5.785  10.983  2.5684 -0.5074  1.1901
  472MOL0     H62297   0.358   5.964  10.974  1.4817  0.8929 -1.4701
  472MOL0     H62298   0.288   5.782  10.744 -1.2930  0.5754 -0.5593
  472MOL0     H62299   0.327   5.955  10.728  3.1395 -2.5124 -0.9006
  472MOL0     H62300   0.095   5.835  10.900 -0.2893 -2.4479 -3.4642
  472MOL0     H62301   0.151   6.003  10.899  1.3564 -0.1099  0.3866
  472MOL0     H62302  -0.135   5.946  10.600  0.3920  0.2754  0.7895
  472MOL0     H62303   0.772   5.817  10.860 -3.1864 -0.4435  0.4619
  472MOL0     H62304   0.991   5.689  10.831  0.7559 -0.7785 -2.6093
  473MOL0     O62305  10.431   2.141   2.992 -0.3745 -0.0105 -0.7154
  473MOL0     C62306  10.482   2.191   3.092 -0.8165  0.7771  0.0564
  473MOL0     O62307  10.418   2.245   3.196  0.2109 -0.0805 -0.4877
  473MOL0     C62308  10.288   2.226   3.207 -0.0521 -0.3993 -0.0500
  473MOL0     C62309  10.229   2.129   3.289 -0.4845 -0.2878 -0.2660
  473MOL0     C62310  10.088   2.119   3.304 -0.4626 -0.5355 -0.8732
  473MOL0     C62311  10.005   2.210   3.238 -0.1610 -0.9892 -0.6139
  473MOL0     O62312   9.870   2.211   3.223  0.3229  0.7398  0.4559
  473MOL0     C62313   9.791   2.099   3.278  0.1572  0.0692 -0.1062
  473MOL0     C62314   9.746   2.151   3.416 -0.6869 -0.0215  0.4872
  473MOL0     C62315   9.642   2.064   3.472 -0.3289 -0.5528  0.2363
  473MOL0     C62316   9.675   2.036   3.617  0.5979 -1.0503 -0.3370
  473MOL0     C62317   9.576   1.939   3.685 -0.1539 -0.1174 -0.4000
  473MOL0     C62318   9.428   1.982   3.711  0.0537 -0.4016 -0.7813
  473MOL0     C62319   9.420   2.112   3.804  0.2107  0.0898  0.9829
  473MOL0     C62320   9.275   2.158   3.843 -0.4410 -0.3554 -0.9065
  473MOL0     N62321   9.285   2.280   3.930  0.8854  0.0465 -0.5501
  473MOL0     C62322   9.328   2.407   3.891  0.2798 -0.0159  0.3833
  473MOL0     C62323   9.321   2.488   3.994  0.4601 -0.1321  0.0894
  473MOL0     C62324   9.352   2.636   3.993 -0.1467 -1.0892  0.0538
  473MOL0     C62325   9.438   2.670   4.123 -0.6001 -0.1569  0.5763
  473MOL0     C62326   9.453   2.825   4.130  0.5815 -0.2010  0.1536
  473MOL0     C62327   9.594   2.869   4.154  0.9381 -0.4414 -0.3174
  473MOL0     O62328   9.680   2.806   4.059  0.3740 -0.6355 -0.6851
  473MOL0     C62329   9.811   2.831   4.058 -0.4096  0.3119 -0.2166
  473MOL0     C62330   9.882   2.938   4.126 -0.3887  0.9248  0.0724
  473MOL0     C62331  10.018   2.962   4.095  0.1070  0.6896 -1.0288
  473MOL0     C62332  10.082   2.887   3.993 -0.0038 -0.4190 -0.3573
  473MOL0     C62333  10.224   2.913   3.953 -0.2272 -0.5283 -0.2830
  473MOL0     O62334  10.270   2.861   3.831 -0.1770  0.9648 -0.0550
  473MOL0     C62335  10.402   2.831   3.822  0.1156 -0.3555  0.1680
  473MOL0     C62336  10.435   2.791   3.690 -0.1136  0.5206  0.4765
  473MOL0     C62337  10.569   2.774   3.654 -0.2989  0.0455  0.0545
  473MOL0     C62338  10.669   2.776   3.757  0.3247 -0.7557 -0.0593
  473MOL0     O62339  10.799   2.782   3.741  0.3263  0.3463  0.3891
  473MOL0     C62340  10.845   2.816   3.616 -0.8901  0.6468 -0.5331
  473MOL0     C62341  11.000   2.814   3.626  0.6844 -0.5485  0.3292
  473MOL0     C62342  11.060   2.879   3.502 -0.3054  0.1068 -0.0037
  473MOL0     C62343  11.213   2.886   3.526  2.2644 -0.8193 -0.3529
  473MOL0     C62344  11.289   2.833   3.412 -0.0337  0.5297  0.6168
  473MOL0     C62345  11.277   2.935   3.292  0.0353  0.6423 -0.2660
  473MOL0     C62346  11.293   2.854   3.160  0.0546  0.2038 -0.6334
  473MOL0     C62347  11.436   2.866   3.120 -0.1693  0.1438 -0.1179
  473MOL0    Cl62348  11.468   2.723   3.013  0.3947  0.1479 -0.0715
  473MOL0     C62349  10.640   2.804   3.889  0.8803  0.0783 -0.4716
  473MOL0     C62350  10.503   2.822   3.921  0.4900  0.2370 -0.0641
  473MOL0     O62351  10.292   2.985   4.028 -0.6955  0.2369  0.4672
  473MOL0     C62352  10.009   2.796   3.913 -0.8034 -0.3930 -0.9605
  473MOL0     C62353   9.869   2.772   3.944 -0.0519  0.0728  0.2371
  473MOL0     N62354   9.265   2.413   4.095  0.5685  0.1962  0.7345
  473MOL0     N62355   9.254   2.283   4.063  0.2619  0.0634 -0.0072
  473MOL0     C62356  10.067   2.310   3.158  0.1806  0.3148  0.8375
  473MOL0     C62357  10.206   2.317   3.143 -0.3772  1.2244  0.5406
  473MOL0     C62358  10.624   2.204   3.090  0.6914  0.5905  0.1474
  473MOL0     C62359  10.698   2.191   2.972 -0.2775  0.4076  0.7845
  473MOL0     C62360  10.839   2.204   2.974  0.3753 -0.1562  0.9452
  473MOL0     C62361  10.913   2.206   3.095 -1.2236 -0.2753  0.6918
  473MOL0     O62362  11.051   2.195   3.076  0.1066  0.7855  0.0612
  473MOL0     C62363  11.129   2.212   3.196 -1.2168 -1.1821 -0.9702
  473MOL0     C62364  11.139   2.072   3.260 -0.7005 -1.2312 -0.4423
  473MOL0     C62365  11.237   2.062   3.381 -0.2737 -0.4414 -0.3197
  473MOL0     C62366  11.181   1.992   3.498  0.1570  0.3084 -0.8467
  473MOL0     C62367  11.060   2.053   3.557 -1.0198 -0.1738  0.4380
  473MOL0     C62368  10.971   2.109   3.617 -0.3009 -0.9497  0.0969
  473MOL0     C62369  10.836   2.234   3.209 -0.9749  0.5738  0.6532
  473MOL0     C62370  10.699   2.230   3.204  0.7786 -0.0615 -0.7233
  473MOL0     H62371  10.293   2.054   3.333 -1.3075  0.1148  1.7169
  473MOL0     H62372  10.048   2.035   3.360  1.6738 -0.8383  0.2979
  473MOL0     H62373   9.836   2.000   3.271  0.6200  0.1548  1.3848
  473MOL0     H62374   9.700   2.093   3.218 -0.5158  0.6995  0.8043
  473MOL0     H62375   9.705   2.253   3.416 -1.7573 -0.4421 -0.0547
  473MOL0     H62376   9.832   2.166   3.482  0.1480 -3.2978  0.2898
  473MOL0     H62377   9.617   1.969   3.425 -1.0904 -1.7603  2.8610
  473MOL0     H62378   9.553   2.127   3.480  0.9087  1.1780  1.3252
  473MOL0     H62379   9.774   1.995   3.641  1.2429 -1.0862 -2.8068
  473MOL0     H62380   9.676   2.134   3.666  0.5621 -1.3472  0.2618
  473MOL0     H62381   9.625   1.920   3.781 -0.3157  0.1687 -0.2585
  473MOL0     H62382   9.575   1.845   3.630 -1.8271 -0.2499 -0.2239
  473MOL0     H62383   9.370   1.910   3.770  1.1921 -2.0219 -1.5707
  473MOL0     H62384   9.371   2.006   3.620 -2.3655  2.1604  1.2289
  473MOL0     H62385   9.477   2.106   3.898  3.2354  1.1499 -0.6596
  473MOL0     H62386   9.451   2.202   3.751 -0.3404 -1.5919 -2.4623
  473MOL0     H62387   9.225   2.080   3.900 -0.0839 -0.7480 -1.1189
  473MOL0     H62388   9.211   2.182   3.758  0.2750 -0.9327 -1.6296
  473MOL0     H62389   9.356   2.432   3.789  1.2519  3.2666  1.3324
  473MOL0     H62390   9.257   2.690   3.994  0.1447 -0.5765  1.0499
  473MOL0     H62391   9.404   2.661   3.899 -0.1937  2.7941  0.8903
  473MOL0     H62392   9.540   2.632   4.111 -1.0004 -0.8252 -1.0437
  473MOL0     H62393   9.391   2.639   4.217  0.1572  0.5888  1.2084
  473MOL0     H62394   9.410   2.874   4.042 -1.3863 -1.8248  0.1291
  473MOL0     H62395   9.388   2.860   4.210  2.5571 -0.0422  1.7637
  473MOL0     H62396   9.629   2.858   4.257 -1.0073 -2.7583  0.1940
  473MOL0     H62397   9.590   2.977   4.136  0.9519 -0.3732  0.0622
  473MOL0     H62398   9.832   3.011   4.190 -1.6735  1.0992 -1.0904
  473MOL0     H62399  10.073   3.028   4.161  0.2730 -2.9273  2.9141
  473MOL0     H62400  10.358   2.797   3.613 -0.5184  2.2715  0.9610
  473MOL0     H62401  10.594   2.750   3.551 -2.3072  1.4656 -0.8127
  473MOL0     H62402  10.815   2.921   3.612 -1.2152  0.6496  1.2642
  473MOL0     H62403  10.822   2.755   3.529  0.4217 -1.4831  0.5130
  473MOL0     H62404  11.038   2.711   3.625  1.0497 -0.6380 -4.7613
  473MOL0     H62405  11.028   2.872   3.714 -0.1891  0.5380 -0.0955
  473MOL0     H62406  11.016   2.978   3.493  0.0122  0.4989  2.2856
  473MOL0     H62407  11.040   2.828   3.407  1.2647 -1.1613  0.3068
  473MOL0     H62408  11.241   2.989   3.548 -0.0560  0.0012 -0.9518
  473MOL0     H62409  11.232   2.830   3.618  0.3820  0.8289  1.1132
  473MOL0     H62410  11.258   2.733   3.380 -1.2757  1.2777 -0.6174
  473MOL0     H62411  11.392   2.834   3.451  0.0099  1.6446  0.5049
  473MOL0     H62412  11.355   3.011   3.298  2.1841 -1.3918 -0.7415
  473MOL0     H62413  11.176   2.975   3.299 -1.8117 -3.7078  0.9555
  473MOL0     H62414  11.268   2.748   3.172  2.8623 -0.6126 -1.3109
  473MOL0     H62415  11.223   2.899   3.089 -1.8442 -1.4607  0.1155
  473MOL0     H62416  11.499   2.862   3.209  2.0195 -1.0077 -1.6195
  473MOL0     H62417  11.467   2.957   3.068  1.2600  0.4898  1.2471
  473MOL0     H62418  10.722   2.807   3.961  1.9683  0.0772 -1.6752
  473MOL0     H62419  10.482   2.847   4.024 -0.1948  3.1731 -0.8264
  473MOL0     H62420  10.071   2.745   3.840  1.8768  1.5598 -0.1865
  473MOL0     H62421   9.823   2.698   3.879 -1.2602  1.2189 -0.2740
  473MOL0     H62422  10.002   2.378   3.105 -0.1971 -0.7946 -0.1821
  473MOL0     H62423  10.249   2.396   3.082 -1.2985  2.1905  1.1172
  473MOL0     H62424  10.636   2.181   2.884  0.3430 -0.8463  0.4726
  473MOL0     H62425  10.900   2.187   2.886  1.6329 -1.5716  2.0419
  473MOL0     H62426  11.091   2.289   3.264 -2.0866 -1.4143 -1.1772
  473MOL0     H62427  11.228   2.245   3.163 -0.8224 -3.4160 -2.2026
  473MOL0     H62428  11.042   2.041   3.299 -0.4669 -1.5055 -0.0848
  473MOL0     H62429  11.179   2.000   3.187  2.7668  0.6585 -0.6456
  473MOL0     H62430  11.264   2.161   3.417 -0.7384 -0.1530 -0.7473
  473MOL0     H62431  11.334   2.023   3.349 -0.0702  0.2036 -0.5043
  473MOL0     H62432  11.170   1.886   3.471  0.7445  0.3315 -1.1898
  473MOL0     H62433  11.267   1.992   3.566 -2.5379  0.2019  2.8694
  473MOL0     H62434  10.916   2.158   3.695  1.1637 -0.7006  1.0198
  473MOL0     H62435  10.899   2.248   3.296  2.1890  1.4298 -1.5753
  473MOL0     H62436  10.650   2.236   3.301  1.9895  0.9275 -0.1433
  474MOL0     O62437   7.396  10.638   2.869  0.3436  0.4896 -0.7197
  474MOL0     C62438   7.296  10.575   2.855  0.3229  0.7170 -0.5844
  474MOL0     O62439   7.274  10.494   2.750 -0.0112  0.1594 -0.1639
  474MOL0     C62440   7.365  10.446   2.663 -0.1101  0.4656  1.0497
  474MOL0     C62441   7.461  10.526   2.598  0.5515 -0.0701 -0.3982
  474MOL0     C62442   7.540  10.473   2.503  0.5354 -0.0744  0.4442
  474MOL0     C62443   7.553  10.333   2.475 -0.2435  0.8747  0.8268
  474MOL0     O62444   7.647  10.279   2.393  0.0554 -0.0732 -0.5610
  474MOL0     C62445   7.722  10.363   2.307  0.2653 -0.2794 -0.2624
  474MOL0     C62446   7.839  10.288   2.245 -0.1184  0.1691 -0.2039
  474MOL0     C62447   7.873  10.340   2.109 -0.8248 -0.4906 -0.9506
  474MOL0     C62448   7.988  10.256   2.053 -0.5515 -0.8981  0.7962
  474MOL0     C62449   8.028  10.310   1.915 -0.3708  1.0101  0.5147
  474MOL0     C62450   8.108  10.209   1.828 -0.1174 -0.3489 -0.8713
  474MOL0     C62451   8.136  10.260   1.688  0.5165  0.3302  0.0007
  474MOL0     C62452   8.255  10.360   1.686  0.0648  0.3939  0.4102
  474MOL0     N62453   8.334  10.368   1.560 -0.4232 -0.1850 -0.5121
  474MOL0     C62454   8.477  10.345   1.549 -0.8717  0.4360  0.2454
  474MOL0     C62455   8.498  10.357   1.415  0.1998  0.5542 -0.1871
  474MOL0     C62456   8.627  10.366   1.336  0.5086 -0.9442 -0.2747
  474MOL0     C62457   8.627  10.294   1.208 -0.5023  0.8686  1.0940
  474MOL0     C62458   8.619  10.141   1.242  0.3627  0.5406 -0.1669
  474MOL0     C62459   8.751  10.097   1.319  0.5012  0.3454  0.6626
  474MOL0     O62460   8.743   9.962   1.356 -0.1763 -0.2608  0.5060
  474MOL0     C62461   8.676   9.922   1.468 -0.2479 -0.2535 -0.7646
  474MOL0     C62462   8.697   9.789   1.496  0.0364  0.4789 -0.4014
  474MOL0     C62463   8.619   9.727   1.596 -0.1779  0.7147  0.5687
  474MOL0     C62464   8.522   9.794   1.670 -0.0742 -0.1523  0.0754
  474MOL0     C62465   8.457   9.739   1.787 -0.2460  0.0687  0.1550
  474MOL0     O62466   8.458   9.604   1.818 -0.3595  0.5096  0.2747
  474MOL0     C62467   8.425   9.575   1.948  0.5316  0.4652 -0.0166
  474MOL0     C62468   8.288   9.528   1.977 -0.6482 -1.2611  0.7616
  474MOL0     C62469   8.252   9.494   2.101 -0.1727 -0.2625  0.2040
  474MOL0     C62470   8.336   9.513   2.211 -0.2484 -0.2121 -0.7639
  474MOL0     O62471   8.282   9.485   2.330  0.0489  0.1111 -0.4106
  474MOL0     C62472   8.338   9.544   2.442 -0.5797  0.4525 -0.1923
  474MOL0     C62473   8.260   9.492   2.561  0.2655  0.2950 -0.2751
  474MOL0     C62474   8.105   9.496   2.554  0.4410  0.5895  0.2138
  474MOL0     C62475   8.033   9.439   2.676 -0.1441  0.4587 -0.1937
  474MOL0     C62476   7.883   9.403   2.660  1.2347  0.2942  0.9114
  474MOL0     C62477   7.789   9.493   2.586 -0.7724 -0.7862 -0.6096
  474MOL0     C62478   7.644   9.471   2.582 -0.2209 -0.7074  0.4762
  474MOL0     C62479   7.606   9.333   2.559  0.8599  0.6573 -0.5217
  474MOL0    Cl62480   7.425   9.314   2.556 -0.4356 -0.2694  0.2181
  474MOL0     C62481   8.466   9.564   2.193 -0.1369  0.6195 -0.0950
  474MOL0     C62482   8.508   9.589   2.061 -0.0517  1.5013  0.0478
  474MOL0     O62483   8.391   9.821   1.850 -0.2968 -1.1056 -0.6243
  474MOL0     C62484   8.501   9.935   1.635 -0.4595  0.2726 -1.3728
  474MOL0     C62485   8.579   9.997   1.539 -0.1246  1.0120 -0.0324
  474MOL0     N62486   8.373  10.408   1.365 -0.1568 -1.0383  0.6633
  474MOL0     N62487   8.284  10.409   1.453 -0.0284 -0.6896  0.0862
  474MOL0     C62488   7.459  10.252   2.544  0.1847 -0.3225 -0.6755
  474MOL0     C62489   7.364  10.305   2.635  0.0781  0.2685  0.9190
  474MOL0     C62490   7.192  10.569   2.962 -0.5109  0.0124 -0.0969
  474MOL0     C62491   7.089  10.474   2.944  0.0596 -0.2418 -0.0308
  474MOL0     C62492   6.995  10.450   3.041  0.4700 -0.7285 -0.2540
  474MOL0     C62493   6.999  10.531   3.159  0.7552 -0.1496 -0.0818
  474MOL0     O62494   6.907  10.524   3.262 -0.8947  0.3781 -0.8287
  474MOL0     C62495   6.790  10.442   3.238  0.2758 -0.9019  0.7963
  474MOL0     C62496   6.687  10.473   3.335  1.2649  0.7486 -0.0509
  474MOL0     C62497   6.637  10.619   3.328 -1.0420  0.1468  0.2361
  474MOL0     C62498   6.508  10.632   3.405 -1.0216  0.1905 -0.0559
  474MOL0     C62499   6.387  10.622   3.325 -0.1795  0.1611  0.4641
  474MOL0     C62500   6.297  10.616   3.246 -0.3759  0.7151  0.7595
  474MOL0     C62501   7.097  10.626   3.177  0.0101 -0.6035  0.5950
  474MOL0     C62502   7.197  10.646   3.082  0.4927 -0.5581 -0.4683
  474MOL0     H62503   7.465  10.632   2.622  1.3192 -0.2630  0.3726
  474MOL0     H62504   7.607  10.540   2.449 -3.0761  0.7885 -3.4996
  474MOL0     H62505   7.756  10.462   2.338 -0.3558  1.1827 -3.7111
  474MOL0     H62506   7.656  10.384   2.221  1.8753  3.7774 -0.7389
  474MOL0     H62507   7.808  10.183   2.231  1.3088  0.0104 -2.6260
  474MOL0     H62508   7.930  10.292   2.305  0.0929  1.8170 -0.6099
  474MOL0     H62509   7.893  10.447   2.107 -0.5178 -0.4951  0.7116
  474MOL0     H62510   7.783  10.326   2.047 -2.3089 -3.0858  1.5204
  474MOL0     H62511   8.080  10.249   2.112  0.7527 -2.1385 -1.2709
  474MOL0     H62512   7.954  10.152   2.045  2.0457 -2.2161  4.3411
  474MOL0     H62513   8.089  10.400   1.922 -0.4524  1.0768  0.3640
  474MOL0     H62514   7.942  10.342   1.856 -1.3127 -1.1896  0.5883
  474MOL0     H62515   8.048  10.117   1.824  0.3349 -0.6347 -1.0708
  474MOL0     H62516   8.204  10.183   1.873 -2.0254 -1.3916  3.0606
  474MOL0     H62517   8.144  10.173   1.622 -0.9522  0.5369 -0.5009
  474MOL0     H62518   8.052  10.311   1.640 -1.7691 -2.3952  0.8001
  474MOL0     H62519   8.317  10.315   1.764 -1.8412  0.6496  2.1755
  474MOL0     H62520   8.211  10.448   1.733 -1.2573 -1.8147  3.7244
  474MOL0     H62521   8.551  10.332   1.627 -1.0549  0.6505  0.4585
  474MOL0     H62522   8.710  10.349   1.404  0.7640  0.9344 -0.0469
  474MOL0     H62523   8.634  10.467   1.294 -1.8044 -1.4870 -2.2474
  474MOL0     H62524   8.720  10.318   1.155  1.0467  1.1746  3.7771
  474MOL0     H62525   8.550  10.333   1.141 -0.9602  0.3322  1.2961
  474MOL0     H62526   8.531  10.118   1.301  0.8137  1.0368  0.7198
  474MOL0     H62527   8.604  10.085   1.150 -1.2805  3.6171 -1.9672
  474MOL0     H62528   8.753  10.160   1.409 -0.2240  1.9065 -0.3676
  474MOL0     H62529   8.839  10.117   1.258  1.4762  0.5441  2.0915
  474MOL0     H62530   8.765   9.735   1.431  1.6108 -1.9879  2.9792
  474MOL0     H62531   8.634   9.622   1.619 -2.5135 -0.2672 -1.9125
  474MOL0     H62532   8.212   9.526   1.900  0.5778  1.4599 -0.6730
  474MOL0     H62533   8.147   9.476   2.120 -0.9405  2.3755 -1.0374
  474MOL0     H62534   8.330   9.653   2.433 -0.4646  0.5403  0.6838
  474MOL0     H62535   8.444   9.520   2.458 -0.9136 -0.5710  0.5693
  474MOL0     H62536   8.294   9.550   2.647  0.2169  2.3694 -1.5718
  474MOL0     H62537   8.287   9.387   2.580 -0.1394  0.3897  0.8702
  474MOL0     H62538   8.083   9.426   2.473  2.9629  1.6021 -1.4895
  474MOL0     H62539   8.069   9.593   2.519 -0.3557 -0.3506 -1.6808
  474MOL0     H62540   8.087   9.350   2.711 -0.2667 -0.7285 -2.8417
  474MOL0     H62541   8.035   9.515   2.756  1.2341  0.4077 -0.1553
  474MOL0     H62542   7.844   9.392   2.762  2.7029  1.6250  1.6630
  474MOL0     H62543   7.888   9.305   2.612  3.4361  0.3665  0.8620
  474MOL0     H62544   7.821   9.485   2.481 -1.8791 -0.9340 -0.9447
  474MOL0     H62545   7.812   9.589   2.632 -1.1334 -2.1758  2.6958
  474MOL0     H62546   7.614   9.514   2.678  0.3635 -0.1187  0.4008
  474MOL0     H62547   7.610   9.530   2.496  3.1248  0.2008 -0.3669
  474MOL0     H62548   7.644   9.262   2.634  2.8134  3.7973  1.7277
  474MOL0     H62549   7.640   9.296   2.462  0.6657 -3.3072  0.7161
  474MOL0     H62550   8.529   9.577   2.280 -0.7645  2.3303  0.1454
  474MOL0     H62551   8.614   9.610   2.052  0.9589 -2.7365 -0.1543
  474MOL0     H62552   8.426   9.994   1.688  0.1136 -0.3709  0.2166
  474MOL0     H62553   8.557  10.098   1.504 -1.4498  1.1027  0.9888
  474MOL0     H62554   7.458  10.148   2.513  1.0008  0.3600 -3.1888
  474MOL0     H62555   7.280  10.252   2.679 -1.6539  0.8475 -1.5005
  474MOL0     H62556   7.073  10.393   2.874  1.3346 -1.3760  0.9181
  474MOL0     H62557   6.926  10.366   3.041  1.4580 -1.5975 -1.9981
  474MOL0     H62558   6.811  10.335   3.245 -0.3796 -0.9590  2.3773
  474MOL0     H62559   6.738  10.466   3.145 -1.2599  1.7662  2.2012
  474MOL0     H62560   6.603  10.406   3.310  2.1411 -0.0054 -1.0617
  474MOL0     H62561   6.719  10.449   3.437  2.0805 -1.3831 -0.7572
  474MOL0     H62562   6.624  10.642   3.222 -0.4626 -0.3115  0.0592
  474MOL0     H62563   6.717  10.684   3.363  2.0861 -2.7675 -0.8802
  474MOL0     H62564   6.495  10.552   3.479  0.3111  0.3189  0.3436
  474MOL0     H62565   6.516  10.728   3.457 -1.6094  0.8855 -1.2215
  474MOL0     H62566   6.215  10.605   3.178 -0.7847 -2.8321  1.6079
  474MOL0     H62567   7.076  10.681   3.268  1.1608  0.9054 -0.0077
  474MOL0     H62568   7.282  10.713   3.095 -0.4720  0.4780  0.6452
  475MOL0     O62569   8.134   6.115   8.952  0.2047 -0.4425 -0.1517
  475MOL0     C62570   8.229   6.115   8.871  0.9446 -0.4155 -0.2829
  475MOL0     O62571   8.359   6.124   8.903 -0.4545 -0.1048  0.6703
  475MOL0     C62572   8.390   6.137   9.030 -0.2031 -1.2560  0.2693
  475MOL0     C62573   8.382   6.030   9.118 -0.1533 -0.1574 -0.8983
  475MOL0     C62574   8.407   6.046   9.258  0.3744 -0.3073 -0.3358
  475MOL0     C62575   8.454   6.175   9.299  0.1046  0.5267  0.1334
  475MOL0     O62576   8.495   6.187   9.430 -0.4928 -0.1095  0.6872
  475MOL0     C62577   8.398   6.146   9.525  0.5293  1.2491 -0.3574
  475MOL0     C62578   8.361   6.262   9.620  0.1167 -0.3841  0.6288
  475MOL0     C62579   8.486   6.299   9.704  0.7988 -0.3557  0.4464
  475MOL0     C62580   8.464   6.431   9.788  0.1379  0.9832  0.2755
  475MOL0     C62581   8.566   6.467   9.902 -0.7029 -0.0865  0.2129
  475MOL0     C62582   8.496   6.531  10.025  0.0120 -0.3070  1.6250
  475MOL0     C62583   8.585   6.536  10.150  0.7912  0.9335  1.0864
  475MOL0     C62584   8.507   6.576  10.274  0.8243 -0.2014 -0.4564
  475MOL0     N62585   8.446   6.463  10.341  0.3148 -0.4012  0.7425
  475MOL0     C62586   8.516   6.364  10.409  1.5959  0.6290 -0.0159
  475MOL0     C62587   8.414   6.304  10.482  0.7205 -0.5733  0.4107
  475MOL0     C62588   8.431   6.190  10.581  0.3402  0.5307  0.2165
  475MOL0     C62589   8.451   6.251  10.723  0.4663  0.0726 -0.0373
  475MOL0     C62590   8.495   6.154  10.834  0.8108 -0.1959 -0.2112
  475MOL0     C62591   8.405   6.033  10.850 -0.1491 -0.2200 -0.5889
  475MOL0     O62592   8.288   6.066  10.934 -0.2980 -0.2430  0.7128
  475MOL0     C62593   8.202   5.967  10.972 -0.8866 -0.4862 -0.3605
  475MOL0     C62594   8.090   6.006  11.040  0.6918 -0.0092 -0.5918
  475MOL0     C62595   8.004   5.908  11.097 -0.0021  0.0391 -0.3770
  475MOL0     C62596   8.019   5.771  11.073 -1.3918  0.8072 -0.5405
  475MOL0     C62597   7.943   5.669  11.151  0.6365 -0.5387  0.7041
  475MOL0     O62598   7.950   5.541  11.113 -0.4047  0.0383  0.0327
  475MOL0     C62599   7.881   5.441  11.170  0.3896  0.2002 -0.2753
  475MOL0     C62600   7.739   5.435  11.172  0.0608 -0.2067 -0.3391
  475MOL0     C62601   7.672   5.330  11.244  0.2630 -0.3662 -0.1938
  475MOL0     C62602   7.745   5.222  11.296 -0.5161  0.3755  0.7731
  475MOL0     O62603   7.689   5.114  11.356 -0.0086 -0.1627 -0.5186
  475MOL0     C62604   7.603   5.035  11.272 -0.1737 -0.1172 -0.4044
  475MOL0     C62605   7.587   4.899  11.339  0.1934  0.1090  0.6229
  475MOL0     C62606   7.488   4.807  11.270  0.2059  0.3500  0.0393
  475MOL0     C62607   7.555   4.757  11.143  0.4052  0.0859  0.2560
  475MOL0     C62608   7.476   4.642  11.085  0.4009 -0.0727 -0.4322
  475MOL0     C62609   7.489   4.612  10.934 -0.2543 -0.0534  0.3428
  475MOL0     C62610   7.455   4.470  10.903 -0.4577 -0.4007 -0.5814
  475MOL0     C62611   7.523   4.424  10.780  0.6839  0.1207  0.5248
  475MOL0    Cl62612   7.438   4.285  10.712  0.0182 -0.1288 -0.3209
  475MOL0     C62613   7.881   5.230  11.298  0.2741 -0.0161  1.0198
  475MOL0     C62614   7.947   5.337  11.233  1.2290  0.7508  0.4113
  475MOL0     O62615   7.865   5.719  11.239  0.2791  0.4985  0.6342
  475MOL0     C62616   8.136   5.738  11.003  0.3417 -0.1779 -0.0901
  475MOL0     C62617   8.225   5.833  10.952 -1.1232 -0.2554 -0.0194
  475MOL0     N62618   8.290   6.359  10.450 -0.6436  0.3165 -0.9457
  475MOL0     N62619   8.315   6.449  10.364  0.0976 -0.0520  0.1459
  475MOL0     C62620   8.477   6.280   9.211  0.7850  0.6964  0.3174
  475MOL0     C62621   8.453   6.255   9.074  0.5981 -0.3508 -0.6023
  475MOL0     C62622   8.181   6.118   8.727  0.6604 -0.4958  0.1476
  475MOL0     C62623   8.062   6.175   8.689 -0.3898  1.1014  0.1042
  475MOL0     C62624   8.027   6.194   8.557 -0.2725  0.3757  0.9678
  475MOL0     C62625   8.113   6.151   8.454  0.0919  0.1529 -0.7115
  475MOL0     O62626   8.088   6.174   8.321 -0.5014 -0.0575 -1.0716
  475MOL0     C62627   8.039   6.296   8.265  0.4921 -1.0769 -0.3624
  475MOL0     C62628   8.074   6.294   8.114 -0.6627  0.1653 -0.3905
  475MOL0     C62629   8.223   6.312   8.094 -0.5544 -0.3246 -0.0925
  475MOL0     C62630   8.281   6.435   8.020  0.3283 -0.1535 -0.5688
  475MOL0     C62631   8.258   6.566   8.093  0.5942 -0.1573 -0.0634
  475MOL0     C62632   8.247   6.657   8.166  0.3219  0.5839 -0.2520
  475MOL0     C62633   8.231   6.084   8.493  0.0673 -0.3800 -0.6228
  475MOL0     C62634   8.268   6.067   8.628  0.3413 -0.6257  0.0410
  475MOL0     H62635   8.347   5.938   9.071 -0.0819  0.0540 -1.3632
  475MOL0     H62636   8.385   5.967   9.329 -1.0792  3.1186  3.4415
  475MOL0     H62637   8.416   6.046   9.564 -2.8522 -0.1631 -1.9911
  475MOL0     H62638   8.308   6.107   9.477  1.4743 -2.8743  0.8508
  475MOL0     H62639   8.275   6.254   9.687 -0.4192  2.5364  0.3858
  475MOL0     H62640   8.329   6.350   9.564 -0.8734  0.2298  2.1233
  475MOL0     H62641   8.568   6.314   9.634  0.3884  0.1508  0.0687
  475MOL0     H62642   8.515   6.224   9.778  1.1115 -0.3569  0.3228
  475MOL0     H62643   8.457   6.507   9.709 -3.4261 -1.6193 -2.2120
  475MOL0     H62644   8.362   6.437   9.828 -1.2954  0.5821 -2.9877
  475MOL0     H62645   8.637   6.535   9.856 -2.7538  0.9934 -1.5540
  475MOL0     H62646   8.616   6.373   9.929 -1.1123  0.0358  1.4733
  475MOL0     H62647   8.395   6.491  10.042 -1.3155  1.1753 -1.7385
  475MOL0     H62648   8.481   6.636   9.995 -0.0300 -0.3902  1.3513
  475MOL0     H62649   8.642   6.447  10.179 -0.7464  0.2608  2.2565
  475MOL0     H62650   8.656   6.617  10.133  2.0597  0.3536  3.2110
  475MOL0     H62651   8.429   6.646  10.244  0.4982  0.3446  1.5548
  475MOL0     H62652   8.560   6.632  10.351 -2.1347 -1.4056  2.7521
  475MOL0     H62653   8.624   6.346  10.411  1.7958  1.6053 -1.1474
  475MOL0     H62654   8.521   6.135  10.552  1.8915  2.5532  0.9000
  475MOL0     H62655   8.341   6.128  10.578 -1.4751  3.0368 -2.5852
  475MOL0     H62656   8.364   6.315  10.740  0.2543  0.7052 -2.9514
  475MOL0     H62657   8.535   6.321  10.717  0.3472  0.2370  0.2033
  475MOL0     H62658   8.597   6.120  10.815  1.0448  0.0841  0.4997
  475MOL0     H62659   8.479   6.207  10.928 -6.2859  1.8179 -1.9388
  475MOL0     H62660   8.476   5.956  10.882  0.3372 -1.1022 -3.4976
  475MOL0     H62661   8.372   5.990  10.755 -1.7244  1.6023 -0.9262
  475MOL0     H62662   8.063   6.111  11.041  2.8522  0.6868 -3.0619
  475MOL0     H62663   7.923   5.935  11.164 -0.1609 -0.1318 -0.4982
  475MOL0     H62664   7.672   5.514  11.138 -1.5333  0.0753  3.0272
  475MOL0     H62665   7.566   5.331  11.267  0.3386  1.7162  0.1896
  475MOL0     H62666   7.646   5.030  11.172 -1.5538  1.7203 -1.1588
  475MOL0     H62667   7.506   5.086  11.268 -0.0436  0.4320  1.9606
  475MOL0     H62668   7.560   4.903  11.445 -1.3965 -2.0714  0.3763
  475MOL0     H62669   7.686   4.853  11.332  1.1280  2.2721 -2.7777
  475MOL0     H62670   7.396   4.855  11.236 -1.6233 -1.6308  1.9368
  475MOL0     H62671   7.458   4.729  11.339  2.5763 -0.6216  0.0436
  475MOL0     H62672   7.557   4.839  11.070  0.9573 -1.9685 -2.1516
  475MOL0     H62673   7.661   4.737  11.157  0.6017  1.5920  1.1268
  475MOL0     H62674   7.368   4.660  11.092 -0.1295 -1.5565 -3.0464
  475MOL0     H62675   7.504   4.556  11.146  3.0270  0.6923 -0.4527
  475MOL0     H62676   7.589   4.630  10.893  0.9835 -1.7349  2.3937
  475MOL0     H62677   7.419   4.671  10.875  1.2451  1.3618 -0.1047
  475MOL0     H62678   7.489   4.408  10.987  3.4642  2.2510  0.0312
  475MOL0     H62679   7.345   4.467  10.897 -0.9466  3.7966  1.8995
  475MOL0     H62680   7.621   4.383  10.807  1.1774  1.4258  0.8276
  475MOL0     H62681   7.544   4.504  10.708  0.3338  0.4463  0.7804
  475MOL0     H62682   7.932   5.142  11.335 -1.2788 -0.6099  1.8208
  475MOL0     H62683   8.055   5.341  11.231  1.4889 -2.7442 -1.5039
  475MOL0     H62684   8.172   5.636  10.998 -1.0329 -0.6963  0.3019
  475MOL0     H62685   8.312   5.797  10.897 -1.1307 -2.0672  1.0805
  475MOL0     H62686   8.520   6.373   9.249  1.3100 -1.3021  5.4945
  475MOL0     H62687   8.484   6.332   9.004  0.7529 -0.2338 -0.4071
  475MOL0     H62688   7.988   6.205   8.763 -1.1642  1.4775 -0.7921
  475MOL0     H62689   7.933   6.242   8.530 -0.4721 -1.1871 -1.3868
  475MOL0     H62690   8.092   6.378   8.314  4.1284 -1.1810 -3.6469
  475MOL0     H62691   7.930   6.304   8.267  0.2977 -2.7973 -2.0487
  475MOL0     H62692   8.045   6.196   8.075  1.9670 -1.0503  0.4567
  475MOL0     H62693   8.020   6.378   8.069  1.6261  2.7211  1.3340
  475MOL0     H62694   8.246   6.222   8.036 -1.3492 -2.1386  2.2567
  475MOL0     H62695   8.279   6.306   8.188 -0.8180 -1.6042  0.0054
  475MOL0     H62696   8.388   6.426   8.000  0.3258 -1.1029 -0.1951
  475MOL0     H62697   8.229   6.435   7.924  0.4590 -4.8191 -0.8323
  475MOL0     H62698   8.232   6.736   8.236 -1.7107  0.0304  0.0042
  475MOL0     H62699   8.298   6.044   8.418  1.9426 -0.9964  1.2668
  475MOL0     H62700   8.356   6.012   8.660  0.2584 -1.0891 -0.5014
  476MOL0     O62701   9.867   5.724   3.390  0.0072  0.0234 -0.0543
  476MOL0     C62702   9.982   5.724   3.358  0.6552  0.1693  0.7574
  476MOL0     O62703  10.079   5.638   3.398 -0.6456 -0.0477 -0.2880
  476MOL0     C62704  10.045   5.539   3.489 -0.7100  0.9936  0.7304
  476MOL0     C62705  10.023   5.562   3.622  0.1288  0.1585  0.1706
  476MOL0     C62706   9.966   5.456   3.701 -0.6108  0.0436 -0.0135
  476MOL0     C62707   9.946   5.334   3.648  0.7643  1.0035 -0.2634
  476MOL0     O62708   9.901   5.246   3.739 -0.3099 -0.6708  0.8465
  476MOL0     C62709   9.840   5.125   3.688  0.3997  0.1445  0.5882
  476MOL0     C62710   9.738   5.064   3.788  0.1651  0.6215 -0.4701
  476MOL0     C62711   9.621   4.979   3.744 -0.3419 -0.2910 -0.2414
  476MOL0     C62712   9.655   4.852   3.673  0.5682  0.2755  0.2215
  476MOL0     C62713   9.713   4.751   3.766  0.0856  0.2957  0.6053
  476MOL0     C62714   9.748   4.625   3.698  1.2346 -0.7108 -0.3535
  476MOL0     C62715   9.886   4.588   3.735 -1.0374  0.2763  0.4038
  476MOL0     C62716   9.937   4.471   3.649  0.4059  0.0675 -0.7263
  476MOL0     N62717  10.082   4.444   3.686  1.0174  0.0164 -2.0000
  476MOL0     C62718  10.121   4.390   3.808 -0.0745  0.6023  0.2340
  476MOL0     C62719  10.257   4.412   3.804  0.2764  0.1148 -0.8486
  476MOL0     C62720  10.340   4.358   3.923  0.4818  0.1006  1.0867
  476MOL0     C62721  10.494   4.384   3.909  0.7446  0.6566 -0.6417
  476MOL0     C62722  10.556   4.292   3.811  1.2729  0.2156 -0.0950
  476MOL0     C62723  10.691   4.346   3.778 -0.4549 -0.4597 -0.3024
  476MOL0     O62724  10.779   4.242   3.725  0.0454 -0.2917  0.2968
  476MOL0     C62725  10.909   4.294   3.704  0.6824 -0.4176  0.4282
  476MOL0     C62726  11.009   4.285   3.804 -0.1938  0.4057 -0.0457
  476MOL0     C62727  11.132   4.348   3.786 -0.9565 -1.3287  0.4050
  476MOL0     C62728  11.169   4.414   3.664  0.3206  0.1081 -1.4072
  476MOL0     C62729  11.306   4.470   3.649  0.2034  0.2984 -0.7305
  476MOL0     O62730  11.406   4.432   3.743  0.1743  0.1145  0.2790
  476MOL0     C62731  11.521   4.509   3.739 -0.0343 -0.1567  0.4174
  476MOL0     C62732  11.602   4.517   3.626 -0.0816  0.6733  0.1026
  476MOL0     C62733  11.723   4.589   3.622  1.2183 -0.1985 -0.4311
  476MOL0     C62734  11.768   4.642   3.741 -0.6441  0.8094 -0.1402
  476MOL0     O62735  11.892   4.700   3.743 -0.3650 -0.4207  0.4917
  476MOL0     C62736  11.998   4.615   3.689  0.2479  0.5832 -0.5177
  476MOL0     C62737  12.136   4.693   3.703  0.0570  0.2995  0.1802
  476MOL0     C62738  12.184   4.691   3.852 -0.4747  1.0305  0.3391
  476MOL0     C62739  12.329   4.749   3.869 -0.4326  0.8151  0.3259
  476MOL0     C62740  12.353   4.802   4.012 -0.2213  0.0236 -0.4614
  476MOL0     C62741  12.476   4.880   4.017 -0.7565  0.4884 -0.5917
  476MOL0     C62742  12.513   4.967   4.139  0.2156 -0.4358 -0.8355
  476MOL0     C62743  12.655   4.980   4.177  0.0323  0.0719 -0.3131
  476MOL0    Cl62744  12.729   4.837   4.253  0.6741  0.1037 -0.1506
  476MOL0     C62745  11.696   4.625   3.856 -0.9011 -0.4172 -0.2607
  476MOL0     C62746  11.573   4.558   3.854 -0.5337 -0.3363  0.0452
  476MOL0     O62747  11.321   4.542   3.554 -0.2553  0.5291  0.2715
  476MOL0     C62748  11.069   4.416   3.564 -0.5243 -0.6426 -0.5364
  476MOL0     C62749  10.943   4.368   3.586  0.9467  0.2342  0.1776
  476MOL0     N62750  10.299   4.467   3.688  0.2008 -0.1884  0.3987
  476MOL0     N62751  10.190   4.485   3.620 -0.0346 -0.5980  0.3613
  476MOL0     C62752   9.980   5.308   3.516  1.1049  1.7060  1.2289
  476MOL0     C62753  10.030   5.407   3.434  0.6351  0.0878  0.2844
  476MOL0     C62754  10.012   5.819   3.256  0.8619  0.1670  1.1857
  476MOL0     C62755   9.927   5.928   3.226 -0.5023 -0.0002 -0.0124
  476MOL0     C62756   9.965   6.026   3.133 -0.1613 -0.5990 -0.2292
  476MOL0     C62757  10.092   6.012   3.087  0.0787 -0.3389  0.9227
  476MOL0     O62758  10.144   6.113   3.008 -0.2403 -0.2800 -0.0681
  476MOL0     C62759  10.272   6.108   2.937  0.1256 -0.2547  0.3027
  476MOL0     C62760  10.269   5.988   2.841  0.5018 -0.3601 -0.0436
  476MOL0     C62761  10.351   6.027   2.726  0.2033  0.2855  0.2239
  476MOL0     C62762  10.416   5.914   2.641 -0.0071 -0.3411 -0.1447
  476MOL0     C62763  10.317   5.820   2.588 -0.7388  0.2550  0.6585
  476MOL0     C62764  10.245   5.733   2.541  0.6751  0.5782  0.2190
  476MOL0     C62765  10.177   5.903   3.118  1.0425 -1.0087  0.0611
  476MOL0     C62766  10.134   5.806   3.196 -0.3901  0.1454 -0.2062
  476MOL0     H62767  10.034   5.666   3.652 -1.4900  0.8839 -1.5089
  476MOL0     H62768   9.947   5.468   3.807  1.5296  0.3727  0.3781
  476MOL0     H62769   9.925   5.063   3.656 -1.4745 -2.9785  1.2119
  476MOL0     H62770   9.784   5.148   3.597  0.1984 -2.2077  0.0411
  476MOL0     H62771   9.702   5.152   3.842  5.8281  0.1561  5.1687
  476MOL0     H62772   9.793   5.003   3.860 -2.1564 -3.3538 -1.7427
  476MOL0     H62773   9.553   5.034   3.677 -0.4538  1.1907  1.0187
  476MOL0     H62774   9.563   4.952   3.832 -0.1368 -0.1413 -0.0595
  476MOL0     H62775   9.559   4.811   3.640  2.4273 -2.4030 -2.3113
  476MOL0     H62776   9.716   4.878   3.586 -1.3016  0.1888 -1.1722
  476MOL0     H62777   9.639   4.732   3.844  1.2694  0.8833  1.9188
  476MOL0     H62778   9.803   4.789   3.817  2.5835 -0.4926 -2.8618
  476MOL0     H62779   9.748   4.645   3.590  0.3130 -0.5470 -0.3361
  476MOL0     H62780   9.661   4.563   3.724 -0.5633  2.6345  2.4845
  476MOL0     H62781   9.959   4.668   3.723  0.6529 -1.1191  0.9342
  476MOL0     H62782   9.883   4.540   3.834 -0.4259  0.3735  0.4727
  476MOL0     H62783   9.932   4.502   3.545  0.3269  0.9689 -0.4636
  476MOL0     H62784   9.873   4.384   3.662  1.2494 -0.6581 -1.3420
  476MOL0     H62785  10.070   4.332   3.884  0.4277 -0.3715 -0.1464
  476MOL0     H62786  10.321   4.251   3.915  0.7046 -0.0231  2.1015
  476MOL0     H62787  10.303   4.384   4.022  1.7915  1.4900  1.2571
  476MOL0     H62788  10.534   4.356   4.007 -0.2667 -4.8637 -1.4829
  476MOL0     H62789  10.506   4.485   3.869  0.2130 -0.1652 -3.0201
  476MOL0     H62790  10.567   4.194   3.858  3.6672  0.7054  0.5194
  476MOL0     H62791  10.488   4.279   3.726 -0.3826 -0.3664  1.2691
  476MOL0     H62792  10.732   4.399   3.864 -2.0541  1.5121 -0.6848
  476MOL0     H62793  10.683   4.424   3.702  0.2484  0.4824  0.5536
  476MOL0     H62794  10.989   4.224   3.892 -0.8021 -0.2151 -0.5892
  476MOL0     H62795  11.206   4.337   3.864  0.5852  0.9925 -0.6190
  476MOL0     H62796  11.566   4.475   3.533  0.2648  1.9784 -0.6406
  476MOL0     H62797  11.772   4.590   3.525 -0.1432 -0.6805 -1.1469
  476MOL0     H62798  11.974   4.595   3.585 -3.4158  0.3874  0.2150
  476MOL0     H62799  12.010   4.523   3.746  1.4967  1.1291  0.1363
  476MOL0     H62800  12.125   4.796   3.667  0.4690  0.6547  1.0314
  476MOL0     H62801  12.212   4.651   3.636 -0.5115  4.1183 -3.2428
  476MOL0     H62802  12.196   4.586   3.882  0.6462 -1.1370 -6.1170
  476MOL0     H62803  12.110   4.737   3.918  2.7240  2.4852  3.2225
  476MOL0     H62804  12.404   4.674   3.843 -2.1769 -0.0968 -2.6669
  476MOL0     H62805  12.337   4.834   3.800 -2.9562  1.3220  0.5407
  476MOL0     H62806  12.345   4.716   4.079  1.0928  0.8313  0.7869
  476MOL0     H62807  12.266   4.864   4.035 -1.1337 -1.2292 -0.4093
  476MOL0     H62808  12.475   4.952   3.934  2.3184  1.0503 -0.2380
  476MOL0     H62809  12.553   4.808   3.990 -0.8087  0.0636  0.3883
  476MOL0     H62810  12.479   5.070   4.128  1.4673  0.1481  0.4015
  476MOL0     H62811  12.464   4.926   4.228 -1.0364  3.6018  0.5615
  476MOL0     H62812  12.666   5.060   4.251 -0.9938  1.0916 -1.2302
  476MOL0     H62813  12.714   5.012   4.090 -1.3267 -0.2680 -1.3882
  476MOL0     H62814  11.747   4.670   3.940  2.4271  0.4288 -2.5199
  476MOL0     H62815  11.517   4.535   3.944  0.3488  1.3290  1.0724
  476MOL0     H62816  11.095   4.475   3.477 -0.4517 -0.0375 -0.1146
  476MOL0     H62817  10.864   4.378   3.512  0.6984 -2.6014 -0.0522
  476MOL0     H62818   9.967   5.208   3.477  0.6320  1.9831  0.6644
  476MOL0     H62819  10.050   5.373   3.334  0.1320 -2.7594  1.0580
  476MOL0     H62820   9.825   5.933   3.264 -1.0104  0.0042 -1.2928
  476MOL0     H62821   9.899   6.109   3.110 -3.6350 -3.6492 -2.3699
  476MOL0     H62822  10.355   6.088   3.005  0.5891 -3.4726 -1.0204
  476MOL0     H62823  10.272   6.198   2.875 -1.7345 -0.6298 -0.3001
  476MOL0     H62824  10.311   5.899   2.890  3.3730  1.1068  0.4147
  476MOL0     H62825  10.165   5.970   2.812 -0.8599  2.0259  2.8104
  476MOL0     H62826  10.436   6.086   2.761 -0.3363  0.2227  1.7137
  476MOL0     H62827  10.285   6.091   2.666 -0.4480 -1.0192 -0.4842
  476MOL0     H62828  10.465   5.964   2.557 -6.2578  1.4095 -3.3011
  476MOL0     H62829  10.493   5.867   2.704  0.9296  1.0420 -0.1934
  476MOL0     H62830  10.203   5.652   2.485  1.2927 -0.7423  1.5980
  476MOL0     H62831  10.276   5.877   3.082  1.0417 -0.7385 -0.1376
  476MOL0     H62832  10.198   5.717   3.194 -1.0282 -0.3069 -1.7465
  477MOL0     O62833   0.882   9.378   8.673  0.2071  0.6110 -0.6253
  477MOL0     C62834   0.786   9.349   8.752  0.5384 -0.2863  0.1324
  477MOL0     O62835   0.791   9.358   8.891  0.3095  0.3845  0.1647
  477MOL0     C62836   0.876   9.442   8.949 -0.7436 -0.7217 -0.0654
  477MOL0     C62837   0.971   9.396   9.038 -0.0280  0.8136  0.8518
  477MOL0     C62838   1.062   9.480   9.094 -0.1581  0.3011 -0.3167
  477MOL0     C62839   1.076   9.617   9.058 -0.4927 -0.0344  1.0780
  477MOL0     O62840   1.167   9.703   9.113 -0.1534 -0.8173 -0.8857
  477MOL0     C62841   1.278   9.658   9.195  0.1982 -0.8708  0.0482
  477MOL0     C62842   1.354   9.778   9.242  0.3208 -0.0929  0.0837
  477MOL0     C62843   1.495   9.741   9.297 -0.1425  0.1584  0.3922
  477MOL0     C62844   1.500   9.614   9.391 -0.1172  0.3410 -0.5424
  477MOL0     C62845   1.639   9.603   9.437 -0.7232 -1.0816 -1.1857
  477MOL0     C62846   1.651   9.520   9.558  0.1971  0.8423 -0.6131
  477MOL0     C62847   1.643   9.369   9.535  0.3807 -1.1140  0.8279
  477MOL0     C62848   1.769   9.311   9.467  0.1857  0.1416  0.3261
  477MOL0     N62849   1.743   9.167   9.443  0.0213 -0.0222  0.6276
  477MOL0     C62850   1.699   9.118   9.324  0.4568  0.5023 -0.2935
  477MOL0     C62851   1.663   8.986   9.342 -0.8756  0.3436  0.3096
  477MOL0     C62852   1.608   8.902   9.235  0.4595  0.3382  0.3010
  477MOL0     C62853   1.713   8.798   9.180 -0.7563 -0.1278  0.8741
  477MOL0     C62854   1.794   8.868   9.065 -0.7764 -0.4858  0.5373
  477MOL0     C62855   1.871   8.772   8.970 -0.9377  0.0669 -0.5144
  477MOL0     O62856   1.929   8.672   9.055 -0.3932  0.4478  0.4833
  477MOL0     C62857   2.026   8.601   8.993 -0.4677 -0.3854  0.7346
  477MOL0     C62858   2.120   8.531   9.070 -0.2553 -0.1780 -0.2066
  477MOL0     C62859   2.209   8.446   9.016 -0.3068  0.4843  0.1455
  477MOL0     C62860   2.213   8.419   8.874 -0.0150  1.0088  0.5456
  477MOL0     C62861   2.306   8.321   8.801 -0.3744 -0.3058 -0.8849
  477MOL0     O62862   2.368   8.216   8.875  0.1315 -0.5538  0.2502
  477MOL0     C62863   2.475   8.158   8.805 -0.4874  0.2255 -0.4411
  477MOL0     C62864   2.605   8.228   8.817  0.9750  0.7122  0.2683
  477MOL0     C62865   2.710   8.176   8.747 -0.6758  0.2457 -0.5213
  477MOL0     C62866   2.697   8.050   8.676 -1.4435  0.1116  0.4869
  477MOL0     O62867   2.805   7.983   8.609  0.3424 -0.3865 -0.5421
  477MOL0     C62868   2.787   8.024   8.473  0.6325  0.3402 -1.2677
  477MOL0     C62869   2.861   7.932   8.371  0.3403 -0.3076 -0.0145
  477MOL0     C62870   3.019   7.921   8.388  1.1078 -0.8470 -0.2457
  477MOL0     C62871   3.081   7.831   8.284  0.0292  0.2008 -0.1751
  477MOL0     C62872   3.239   7.825   8.291  0.4885 -0.7102  0.2494
  477MOL0     C62873   3.281   7.691   8.224 -0.3805 -0.0037 -0.6196
  477MOL0     C62874   3.257   7.691   8.071  0.4001 -0.2403  0.1469
  477MOL0     C62875   3.380   7.727   7.983  0.2202  0.1574 -0.0882
  477MOL0    Cl62876   3.523   7.618   8.026  0.9205  0.2757 -0.1258
  477MOL0     C62877   2.577   7.979   8.688 -0.3632 -0.5425 -0.5621
  477MOL0     C62878   2.468   8.040   8.747 -0.2552  0.6805  0.5438
  477MOL0     O62879   2.329   8.346   8.681  0.6262  0.4192  0.3826
  477MOL0     C62880   2.120   8.494   8.792 -0.3347 -0.2274 -0.0880
  477MOL0     C62881   2.032   8.579   8.851  0.4864 -0.3515  0.1726
  477MOL0     N62882   1.698   8.957   9.475 -0.4345 -0.9241  0.0998
  477MOL0     N62883   1.738   9.063   9.536  0.8224  0.1084  0.6334
  477MOL0     C62884   0.984   9.661   8.962  1.1636  0.5964 -0.1971
  477MOL0     C62885   0.875   9.578   8.918 -0.1492  0.3657 -0.6632
  477MOL0     C62886   0.650   9.301   8.696 -0.9566  0.3392  0.2965
  477MOL0     C62887   0.620   9.290   8.559 -1.0615  0.4191 -0.3979
  477MOL0     C62888   0.489   9.264   8.523 -0.8412 -0.5187 -0.3057
  477MOL0     C62889   0.375   9.265   8.609 -0.5458  0.4151 -0.7607
  477MOL0     O62890   0.244   9.286   8.581 -0.1285 -0.2416 -0.3761
  477MOL0     C62891   0.205   9.228   8.461  0.7468  0.4777  0.3951
  477MOL0     C62892   0.062   9.186   8.479  0.1014 -0.2497 -0.7716
  477MOL0     C62893  -0.003   9.151   8.346  0.8824 -1.0096  0.1640
  477MOL0     C62894  -0.160   9.145   8.366 -1.3310 -0.6428 -0.2152
  477MOL0     C62895  -0.195   9.031   8.454  0.5536 -0.1739  0.1639
  477MOL0     C62896  -0.207   8.938   8.533  0.0018  0.1662  0.0296
  477MOL0     C62897   0.414   9.270   8.745 -0.4171  0.7200 -0.8767
  477MOL0     C62898   0.544   9.291   8.787  0.2592  0.2750  0.0104
  477MOL0     H62899   0.963   9.293   9.071  1.3444  0.3861 -0.0740
  477MOL0     H62900   1.133   9.435   9.164 -1.3664 -0.5335  0.4041
  477MOL0     H62901   1.340   9.587   9.139  3.3934  1.3153  0.5552
  477MOL0     H62902   1.239   9.608   9.283  0.4787  1.8138  1.8004
  477MOL0     H62903   1.293   9.826   9.319 -0.0244 -1.9604  1.0584
  477MOL0     H62904   1.363   9.851   9.161 -0.2654  0.9179  0.9064
  477MOL0     H62905   1.543   9.832   9.335 -0.5001  0.0233  1.2010
  477MOL0     H62906   1.565   9.720   9.215 -1.8335 -3.2937 -0.3733
  477MOL0     H62907   1.432   9.626   9.476  1.8374  2.5104  0.8402
  477MOL0     H62908   1.477   9.517   9.346  1.1571 -0.6237  0.8382
  477MOL0     H62909   1.681   9.703   9.456 -0.6433 -1.3649  0.1721
  477MOL0     H62910   1.703   9.573   9.353 -0.1473  4.5734 -3.2462
  477MOL0     H62911   1.572   9.549   9.627  2.8431  2.2328  2.0890
  477MOL0     H62912   1.739   9.538   9.621 -0.1559  2.8678 -0.6578
  477MOL0     H62913   1.625   9.321   9.632  2.5969 -2.4572  0.6383
  477MOL0     H62914   1.556   9.351   9.471 -0.5154  4.5374 -0.0297
  477MOL0     H62915   1.860   9.330   9.525  0.9032 -0.4378 -0.5743
  477MOL0     H62916   1.785   9.359   9.369 -0.4669 -0.3722 -0.0412
  477MOL0     H62917   1.694   9.162   9.225  1.9605  0.7264 -0.2880
  477MOL0     H62918   1.580   8.968   9.153 -0.7402 -0.8846 -0.3279
  477MOL0     H62919   1.528   8.845   9.283 -1.7520  1.8640 -1.3614
  477MOL0     H62920   1.649   8.718   9.141  1.0860 -0.7345 -1.0838
  477MOL0     H62921   1.777   8.768   9.263  1.1162  2.8546  0.6606
  477MOL0     H62922   1.735   8.923   8.992 -1.5592  0.9232  2.1669
  477MOL0     H62923   1.869   8.938   9.105  1.2328 -1.3676 -1.4510
  477MOL0     H62924   1.939   8.833   8.909  0.9205  0.0904  1.4794
  477MOL0     H62925   1.810   8.711   8.902  0.1034 -1.8750  0.2170
  477MOL0     H62926   2.113   8.538   9.178 -2.0522 -0.7915 -0.2453
  477MOL0     H62927   2.268   8.392   9.090 -2.3022  0.2658  1.6465
  477MOL0     H62928   2.621   8.313   8.882 -1.0376  1.1492  0.2607
  477MOL0     H62929   2.810   8.217   8.750 -1.2197  1.6767 -1.1939
  477MOL0     H62930   2.827   8.123   8.452 -1.0704  1.2004 -0.6610
  477MOL0     H62931   2.681   8.014   8.447 -0.1393  1.1645  1.2651
  477MOL0     H62932   2.844   7.982   8.275  0.1287  0.7119  0.5442
  477MOL0     H62933   2.816   7.833   8.384  1.0083 -0.5698  0.3550
  477MOL0     H62934   3.043   7.874   8.484  1.3174 -0.2127  0.0138
  477MOL0     H62935   3.065   8.020   8.386 -0.8180  0.1864  2.2278
  477MOL0     H62936   3.040   7.730   8.284  2.1336 -0.7332 -1.5743
  477MOL0     H62937   3.043   7.873   8.190 -2.6404  0.1781  0.8097
  477MOL0     H62938   3.272   7.847   8.392  0.1278  0.6792  0.0772
  477MOL0     H62939   3.289   7.898   8.227  0.2915 -1.7160 -1.1247
  477MOL0     H62940   3.228   7.608   8.273  0.2331  1.0172  1.8792
  477MOL0     H62941   3.387   7.675   8.246 -0.9335 -0.8893  1.6235
  477MOL0     H62942   3.225   7.589   8.046  3.4002 -1.9524  2.5491
  477MOL0     H62943   3.174   7.756   8.043  1.7292  1.8685  0.8662
  477MOL0     H62944   3.415   7.831   7.985  1.3474 -0.1984 -0.5357
  477MOL0     H62945   3.362   7.712   7.876 -3.4796  4.0766 -0.2784
  477MOL0     H62946   2.568   7.885   8.634 -2.0923 -0.1807 -0.9637
  477MOL0     H62947   2.381   7.976   8.735  0.8245 -1.1601  1.9464
  477MOL0     H62948   2.100   8.486   8.686 -1.9688  2.0237  0.0075
  477MOL0     H62949   1.962   8.622   8.781  2.5138 -2.2239 -3.3079
  477MOL0     H62950   0.977   9.766   8.935  0.9149  0.7598  0.4857
  477MOL0     H62951   0.802   9.610   8.844  0.2081  0.8172 -0.8251
  477MOL0     H62952   0.703   9.318   8.495 -0.9059 -0.3982 -0.5579
  477MOL0     H62953   0.467   9.262   8.417  3.1458 -4.3226 -1.3679
  477MOL0     H62954   0.259   9.134   8.445  0.4506  0.3041  0.4164
  477MOL0     H62955   0.210   9.300   8.378  0.5281 -0.0136 -0.0498
  477MOL0     H62956   0.055   9.104   8.552  2.7034 -0.7185 -0.9670
  477MOL0     H62957   0.011   9.267   8.532  1.6234 -1.3691  2.7041
  477MOL0     H62958   0.023   9.053   8.304 -3.4399 -2.1638 -0.2991
  477MOL0     H62959   0.009   9.228   8.270 -0.2173 -1.1900 -0.2107
  477MOL0     H62960  -0.191   9.243   8.405 -0.7509 -0.4987 -0.1108
  477MOL0     H62961  -0.213   9.136   8.270  0.7448  2.7569 -1.8588
  477MOL0     H62962  -0.200   8.852   8.597 -2.3309 -0.1363 -0.0332
  477MOL0     H62963   0.334   9.277   8.818  0.4565  1.8703  0.0022
  477MOL0     H62964   0.569   9.284   8.893  0.0046 -1.9251 -0.0242
  478MOL0     O62965   3.184   6.593   0.399  0.5912 -0.7223 -0.0859
  478MOL0     C62966   3.240   6.679   0.462  0.1317 -0.5016  0.3234
  478MOL0     O62967   3.178   6.761   0.560 -0.0290 -0.2607  0.3614
  478MOL0     C62968   3.053   6.733   0.614  0.1987  0.3233 -0.0131
  478MOL0     C62969   2.982   6.613   0.618 -0.0961  0.1920  0.1512
  478MOL0     C62970   2.847   6.597   0.658  0.0164  0.0268 -0.1684
  478MOL0     C62971   2.781   6.713   0.703 -0.4497  0.4937  0.6322
  478MOL0     O62972   2.651   6.697   0.740  0.2353  0.4686  0.5248
  478MOL0     C62973   2.565   6.815   0.733  0.4113 -0.5067 -0.5092
  478MOL0     C62974   2.522   6.869   0.882  0.0329  0.9653  0.7478
  478MOL0     C62975   2.460   6.760   0.964  0.7892 -0.1955 -0.0571
  478MOL0     C62976   2.316   6.736   0.934 -0.5028 -0.0155 -0.0893
  478MOL0     C62977   2.263   6.622   1.020 -0.2325 -0.4889  0.4610
  478MOL0     C62978   2.127   6.570   0.967 -0.0888  0.3409 -0.3076
  478MOL0     C62979   2.101   6.453   1.055 -0.4928  0.1320 -0.5734
  478MOL0     C62980   1.954   6.406   1.024  0.4429  0.2740  0.5043
  478MOL0     N62981   1.924   6.273   1.077 -0.5163  0.7321  0.6159
  478MOL0     C62982   1.917   6.232   1.203  0.5981 -0.4190 -0.7667
  478MOL0     C62983   1.943   6.099   1.203 -0.0977  0.5574 -0.3971
  478MOL0     C62984   1.960   6.030   1.331  0.2943  0.2994  0.3797
  478MOL0     C62985   1.830   6.012   1.402 -1.3102 -0.5774 -0.3334
  478MOL0     C62986   1.864   5.946   1.543 -0.2319 -0.1588  0.2282
  478MOL0     C62987   1.749   5.938   1.636  0.6437 -0.5591 -0.0637
  478MOL0     O62988   1.705   6.067   1.672  0.2006 -0.2713 -0.4957
  478MOL0     C62989   1.670   6.089   1.810  0.8226  0.1651  0.0033
  478MOL0     C62990   1.766   6.093   1.908 -0.0000 -0.2588  0.5887
  478MOL0     C62991   1.725   6.090   2.042  0.4281  0.1159  0.1779
  478MOL0     C62992   1.592   6.104   2.076  0.3445 -1.1381 -0.3946
  478MOL0     C62993   1.552   6.103   2.222  0.0108 -0.4730  0.4429
  478MOL0     O62994   1.423   6.136   2.239  0.2674 -0.3439  0.2839
  478MOL0     C62995   1.369   6.157   2.365 -0.3228  0.1469 -0.6556
  478MOL0     C62996   1.441   6.168   2.485 -0.3587  0.4455 -0.6554
  478MOL0     C62997   1.384   6.179   2.612  0.2217  0.8333 -0.6465
  478MOL0     C62998   1.244   6.177   2.612  0.3056  0.0610  0.2241
  478MOL0     O62999   1.181   6.176   2.735  0.6164 -0.8879  0.5145
  478MOL0     C63000   1.044   6.186   2.753  0.6753  1.0896  0.0752
  478MOL0     C63001   0.993   6.048   2.790 -0.0629  0.0328 -0.4155
  478MOL0     C63002   0.843   6.049   2.769  0.2686  0.5432 -0.0139
  478MOL0     C63003   0.786   5.911   2.819  0.1924 -0.4456 -0.3623
  478MOL0     C63004   0.638   5.896   2.790 -0.4432  0.5147  0.0231
  478MOL0     C63005   0.577   5.785   2.888 -0.4292  0.0260 -0.0500
  478MOL0     C63006   0.424   5.775   2.862  1.4943 -0.3367 -0.5109
  478MOL0     C63007   0.353   5.659   2.951 -0.2969 -0.7575  0.6681
  478MOL0    Cl63008   0.376   5.504   2.878  0.1523  0.1328  0.0520
  478MOL0     C63009   1.166   6.157   2.497 -0.0198  0.1766 -0.5191
  478MOL0     C63010   1.230   6.164   2.376  0.1278  0.3420 -0.4606
  478MOL0     O63011   1.638   6.068   2.308 -0.0478  0.1388  0.8636
  478MOL0     C63012   1.501   6.117   1.973 -0.2820 -0.5177  1.1513
  478MOL0     C63013   1.548   6.102   1.840  0.5214 -0.7687  0.0592
  478MOL0     N63014   1.955   6.057   1.071 -0.3910 -0.1117 -0.2273
  478MOL0     N63015   1.941   6.162   0.997 -0.4650 -0.4437  0.0596
  478MOL0     C63016   2.850   6.834   0.716  1.1819 -0.7515  1.0147
  478MOL0     C63017   2.987   6.839   0.684  0.7296 -0.1143 -0.3313
  478MOL0     C63018   3.387   6.695   0.445  0.5309  0.1574  1.0531
  478MOL0     C63019   3.450   6.810   0.502  0.3699 -0.4434 -0.1596
  478MOL0     C63020   3.590   6.825   0.502 -1.3137 -0.4608  0.7912
  478MOL0     C63021   3.665   6.718   0.453 -0.9292 -0.6240  0.2433
  478MOL0     O63022   3.804   6.725   0.466 -0.5621  0.6219 -0.2446
  478MOL0     C63023   3.884   6.728   0.342 -0.7258  0.1227  0.8326
  478MOL0     C63024   4.030   6.673   0.360 -0.4850  0.4720 -0.2922
  478MOL0     C63025   4.112   6.759   0.449  0.3226 -0.3235  0.8775
  478MOL0     C63026   4.204   6.844   0.362  0.1729 -0.1289 -0.1893
  478MOL0     C63027   4.309   6.749   0.310  0.2960 -1.6386 -0.4087
  478MOL0     C63028   4.403   6.672   0.288  0.8956  0.8428  0.3915
  478MOL0     C63029   3.611   6.620   0.375 -0.0435  0.1463  0.0032
  478MOL0     C63030   3.474   6.602   0.372  0.9152 -0.6207  0.6478
  478MOL0     H63031   3.021   6.516   0.588 -3.1597 -1.0920 -0.0139
  478MOL0     H63032   2.802   6.499   0.669  2.5230 -1.1560  0.1620
  478MOL0     H63033   2.479   6.779   0.676  0.7807 -3.6177  0.6809
  478MOL0     H63034   2.600   6.905   0.681  1.6434 -0.8212 -0.2376
  478MOL0     H63035   2.452   6.951   0.859 -0.0435  0.0019 -3.2248
  478MOL0     H63036   2.606   6.916   0.934  0.5359  1.7740 -0.7292
  478MOL0     H63037   2.449   6.788   1.069 -1.3486 -2.3151  0.3734
  478MOL0     H63038   2.518   6.668   0.953 -0.3039 -0.6047 -3.4567
  478MOL0     H63039   2.250   6.822   0.948  0.5916  0.7185  0.8170
  478MOL0     H63040   2.315   6.700   0.831  0.3952 -1.4680  0.3798
  478MOL0     H63041   2.259   6.667   1.120  2.8139 -0.1442  0.5436
  478MOL0     H63042   2.341   6.545   1.025  1.0471  0.7079 -0.2663
  478MOL0     H63043   2.135   6.539   0.863  3.3953  1.5665 -0.5137
  478MOL0     H63044   2.045   6.640   0.985  1.4677  1.7761  1.6438
  478MOL0     H63045   2.167   6.367   1.047 -0.0767  0.4981 -1.1488
  478MOL0     H63046   2.116   6.491   1.157  1.1976 -2.1254  0.0933
  478MOL0     H63047   1.947   6.397   0.915  3.7289 -0.0092  0.1960
  478MOL0     H63048   1.874   6.477   1.044 -1.8930 -2.2984  0.7705
  478MOL0     H63049   1.878   6.287   1.288  1.4466  1.7171 -1.6900
  478MOL0     H63050   2.036   6.083   1.389  1.3090 -1.5816  0.8831
  478MOL0     H63051   1.998   5.928   1.320  0.8726  0.6753 -1.4688
  478MOL0     H63052   1.764   5.943   1.348  1.2340 -2.7282 -0.9358
  478MOL0     H63053   1.775   6.106   1.417  0.5193  0.0574  3.5722
  478MOL0     H63054   1.900   5.843   1.537  2.3236  0.5568  1.5107
  478MOL0     H63055   1.940   6.006   1.594  0.2976 -1.1192  0.5973
  478MOL0     H63056   1.779   5.881   1.725  1.5193 -2.3492 -1.4247
  478MOL0     H63057   1.660   5.893   1.591 -1.2081  2.4925  0.2544
  478MOL0     H63058   1.863   6.100   1.860 -0.8459  4.6044 -0.9860
  478MOL0     H63059   1.797   6.086   2.123  2.0370 -1.2849 -1.2448
  478MOL0     H63060   1.549   6.177   2.487  0.0326 -3.0260 -1.1952
  478MOL0     H63061   1.439   6.190   2.705  0.4215 -0.9204 -0.5226
  478MOL0     H63062   0.994   6.229   2.666  0.8771  1.6244  0.2181
  478MOL0     H63063   1.023   6.253   2.837 -1.4159 -2.3838  2.5854
  478MOL0     H63064   1.008   6.025   2.896 -0.5106  0.3757 -0.2756
  478MOL0     H63065   1.051   5.975   2.732 -1.2289 -3.1174  2.0663
  478MOL0     H63066   0.802   6.054   2.668 -0.2941  1.3268  0.2400
  478MOL0     H63067   0.804   6.137   2.822 -2.5950  0.1766 -1.3412
  478MOL0     H63068   0.849   5.828   2.784  2.5895  0.5276  1.3950
  478MOL0     H63069   0.785   5.913   2.928 -2.9830  3.3664 -0.2481
  478MOL0     H63070   0.636   5.856   2.688  2.7859 -1.1486  0.4859
  478MOL0     H63071   0.588   5.993   2.788 -0.2620  0.6408  1.0225
  478MOL0     H63072   0.593   5.802   2.995 -1.7696 -1.1386  0.3722
  478MOL0     H63073   0.614   5.687   2.855 -2.7164 -1.2871  1.0491
  478MOL0     H63074   0.386   5.873   2.892  1.3763 -0.9567  1.5349
  478MOL0     H63075   0.421   5.762   2.754 -0.4672  0.6277 -0.6231
  478MOL0     H63076   0.245   5.676   2.956 -0.1629 -0.1603  2.1030
  478MOL0     H63077   0.398   5.656   3.051  2.0047 -0.5900 -0.3024
  478MOL0     H63078   1.058   6.146   2.500 -0.0551  0.6463  0.0824
  478MOL0     H63079   1.170   6.151   2.287 -3.5641 -2.1030  2.1393
  478MOL0     H63080   1.394   6.121   1.991 -0.5104 -1.9698  0.2617
  478MOL0     H63081   1.480   6.100   1.755  1.4829  4.8727 -1.2296
  478MOL0     H63082   2.801   6.920   0.762 -1.5938 -1.1092 -1.0749
  478MOL0     H63083   3.032   6.935   0.707 -0.1811  0.7734 -2.0898
  478MOL0     H63084   3.385   6.882   0.551 -1.7023 -2.8139  0.7977
  478MOL0     H63085   3.628   6.900   0.571 -2.9091 -0.9263  2.2297
  478MOL0     H63086   3.899   6.831   0.310  0.1192 -0.6110 -1.2874
  478MOL0     H63087   3.831   6.689   0.255 -2.6042  2.1809  0.9744
  478MOL0     H63088   4.029   6.573   0.403 -0.4541  0.3455 -0.5880
  478MOL0     H63089   4.082   6.672   0.264  1.7189 -2.6838  0.7678
  478MOL0     H63090   4.169   6.691   0.513  3.3328  1.3739  0.2013
  478MOL0     H63091   4.049   6.828   0.507  3.2174  4.1640 -0.7626
  478MOL0     H63092   4.136   6.887   0.288 -0.4016 -1.2165 -0.3257
  478MOL0     H63093   4.251   6.920   0.424 -1.5610 -0.4187  1.5918
  478MOL0     H63094   4.468   6.589   0.268 -0.3642 -0.8921  2.8894
  478MOL0     H63095   3.678   6.554   0.321 -0.8345 -1.1580  0.5903
  478MOL0     H63096   3.433   6.521   0.313 -1.0291  0.8450 -0.1402
  479MOL0     O63097   4.547   9.197   0.923  0.0053 -0.2695 -0.3378
  479MOL0     C63098   4.650   9.201   0.848  0.5651  0.0338  0.0455
  479MOL0     O63099   4.656   9.234   0.711 -0.2203  0.6016  0.0616
  479MOL0     C63100   4.536   9.250   0.645  0.1228 -0.4064  0.8305
  479MOL0     C63101   4.494   9.373   0.613  0.7504 -0.2382 -0.8645
  479MOL0     C63102   4.377   9.389   0.539  0.4226 -0.6139 -0.7632
  479MOL0     C63103   4.312   9.274   0.481  0.1507  0.4079 -0.3035
  479MOL0     O63104   4.201   9.306   0.409 -0.4381 -0.8582 -0.5224
  479MOL0     C63105   4.097   9.209   0.430  0.4095 -0.2069  0.5488
  479MOL0     C63106   3.954   9.260   0.404 -0.0204  0.1557  0.1843
  479MOL0     C63107   3.861   9.137   0.388  0.3151  0.3980  0.2118
  479MOL0     C63108   3.711   9.174   0.412 -0.4162  0.1420  0.0656
  479MOL0     C63109   3.654   9.269   0.315 -0.2084 -0.8366 -0.3450
  479MOL0     C63110   3.650   9.227   0.170 -1.0656  0.4866 -0.8801
  479MOL0     C63111   3.606   9.346   0.068  0.0457 -0.4880  0.2289
  479MOL0     C63112   3.625   9.310  -0.086 -1.1411 -1.4605 -0.0431
  479MOL0     N63113   3.764   9.272  -0.108 -0.8117  0.4912  0.1408
  479MOL0     C63114   3.866   9.359  -0.100  0.1566  0.0589  0.0765
  479MOL0     C63115   3.982   9.286  -0.111  0.2131 -0.8105 -0.5525
  479MOL0     C63116   4.117   9.351  -0.106 -0.6388  0.3301  0.8203
  479MOL0     C63117   4.223   9.265  -0.183  0.2340  0.1296 -0.0362
  479MOL0     C63118   4.340   9.343  -0.238 -0.2326 -0.2173 -0.1000
  479MOL0     C63119   4.439   9.252  -0.313  0.2024  0.0212 -0.2853
  479MOL0     O63120   4.458   9.140  -0.223 -0.1034  0.7676  0.1243
  479MOL0     C63121   4.585   9.102  -0.177  0.0060 -0.3895  0.3903
  479MOL0     C63122   4.604   8.971  -0.153 -0.7703 -0.4753 -0.0766
  479MOL0     C63123   4.713   8.922  -0.085  0.3883  0.2960  0.4744
  479MOL0     C63124   4.826   9.012  -0.067  0.5484 -0.0626  0.2048
  479MOL0     C63125   4.953   8.962  -0.012  0.1192  0.1145 -0.0266
  479MOL0     O63126   5.070   9.041  -0.031 -0.4251 -0.4125 -0.3068
  479MOL0     C63127   5.192   8.991   0.022  0.7307  1.1047 -0.8391
  479MOL0     C63128   5.257   8.874  -0.037 -0.6033 -1.1702 -0.6270
  479MOL0     C63129   5.391   8.834   0.002  0.9456 -0.1271  0.4220
  479MOL0     C63130   5.459   8.912   0.094  0.7927  0.1556  0.6268
  479MOL0     O63131   5.583   8.866   0.126 -0.9547  1.0370 -0.0451
  479MOL0     C63132   5.679   8.976   0.126 -1.3561 -0.7120 -0.2753
  479MOL0     C63133   5.831   8.926   0.109  0.1855 -0.2976 -0.4168
  479MOL0     C63134   5.858   8.843  -0.024 -0.8773  0.6812  0.1568
  479MOL0     C63135   5.813   8.927  -0.147 -0.1493  0.0600 -0.0040
  479MOL0     C63136   5.914   8.891  -0.259 -0.4022 -0.1579  0.0879
  479MOL0     C63137   5.951   8.737  -0.282 -0.2651  0.4139 -0.0540
  479MOL0     C63138   6.038   8.703  -0.399  0.3022 -0.5435 -0.0485
  479MOL0     C63139   6.165   8.782  -0.415  0.2463  0.3177 -0.5334
  479MOL0    Cl63140   6.263   8.721  -0.551  0.0526 -0.3392  0.0653
  479MOL0     C63141   5.399   9.034   0.148  0.6948 -0.4235  0.6814
  479MOL0     C63142   5.261   9.072   0.120 -0.4856  0.6038  0.4407
  479MOL0     O63143   4.950   8.856   0.050 -0.5613  0.2471  0.3761
  479MOL0     C63144   4.815   9.143  -0.105 -0.0428  0.0697 -0.5659
  479MOL0     C63145   4.694   9.192  -0.152 -0.0718 -0.5716 -0.0668
  479MOL0     N63146   3.945   9.158  -0.127 -0.4555  0.1879 -0.3632
  479MOL0     N63147   3.813   9.151  -0.122 -0.6422  0.8591 -0.7502
  479MOL0     C63148   4.370   9.147   0.496  0.6102 -0.3540  0.0563
  479MOL0     C63149   4.484   9.138   0.579 -0.0028 -0.1059 -0.2181
  479MOL0     C63150   4.783   9.217   0.913 -0.6219  1.1670 -0.0995
  479MOL0     C63151   4.896   9.274   0.848 -0.7006  0.4906  0.0130
  479MOL0     C63152   5.013   9.309   0.924 -0.1854  0.3363 -0.0990
  479MOL0     C63153   5.021   9.289   1.066 -0.2252  0.0166 -0.4194
  479MOL0     O63154   5.128   9.291   1.160 -0.2185  0.5667 -0.4183
  479MOL0     C63155   5.264   9.296   1.114  0.7132 -0.2050 -0.4203
  479MOL0     C63156   5.350   9.366   1.217 -0.8433  0.2864  0.8372
  479MOL0     C63157   5.491   9.371   1.160 -0.3972 -0.4044  0.0009
  479MOL0     C63158   5.570   9.460   1.255 -0.9085 -0.3691 -0.1433
  479MOL0     C63159   5.705   9.501   1.203  1.1000  0.2332  0.3563
  479MOL0     C63160   5.814   9.518   1.153  0.7478 -0.2070 -0.8484
  479MOL0     C63161   4.907   9.230   1.128 -0.0168  0.2760 -0.4627
  479MOL0     C63162   4.792   9.196   1.050  1.1812  1.2477 -0.0303
  479MOL0     H63163   4.548   9.457   0.655 -3.3343  1.1338  2.4414
  479MOL0     H63164   4.334   9.487   0.515  0.5329 -0.9605 -2.5771
  479MOL0     H63165   4.093   9.164   0.530  1.2488  2.1102  1.6946
  479MOL0     H63166   4.118   9.130   0.358  3.5662  0.8488  0.1425
  479MOL0     H63167   3.950   9.320   0.313 -0.4067 -1.7599 -1.1423
  479MOL0     H63168   3.922   9.316   0.491 -1.9783 -2.1449  1.0505
  479MOL0     H63169   3.879   9.051   0.454  0.5263  2.2941  2.7775
  479MOL0     H63170   3.883   9.102   0.287  2.3039 -2.3216  1.4612
  479MOL0     H63171   3.653   9.082   0.408 -0.6156  0.2890 -0.5010
  479MOL0     H63172   3.711   9.211   0.515  1.7423  1.8876 -0.4763
  479MOL0     H63173   3.705   9.365   0.320 -1.5389 -0.0625 -1.1645
  479MOL0     H63174   3.548   9.284   0.337 -0.2326 -1.3303 -0.1106
  479MOL0     H63175   3.586   9.139   0.154 -2.8929  2.0708 -2.7342
  479MOL0     H63176   3.754   9.197   0.154 -0.3803  1.2881  1.6048
  479MOL0     H63177   3.502   9.374   0.085 -0.2312 -1.1092 -0.4047
  479MOL0     H63178   3.665   9.436   0.089 -1.4756  0.4925  0.3828
  479MOL0     H63179   3.597   9.390  -0.156  2.7926 -0.9976 -1.3205
  479MOL0     H63180   3.549   9.238  -0.116 -3.3652  0.9125 -0.4642
  479MOL0     H63181   3.868   9.465  -0.077 -1.3520  0.0962  0.1520
  479MOL0     H63182   4.142   9.380  -0.003 -1.0458 -3.0914  2.0308
  479MOL0     H63183   4.111   9.446  -0.160 -2.6290  2.6194  4.6043
  479MOL0     H63184   4.165   9.214  -0.261 -2.5426  0.8196  1.4243
  479MOL0     H63185   4.255   9.197  -0.103 -0.9976  5.0836  5.3339
  479MOL0     H63186   4.294   9.417  -0.304 -0.9867  0.8275  1.5240
  479MOL0     H63187   4.398   9.391  -0.158  1.3268 -0.1623 -1.2182
  479MOL0     H63188   4.528   9.310  -0.338  0.5319 -0.1105  0.5283
  479MOL0     H63189   4.397   9.209  -0.404 -0.3404  1.2672 -0.6337
  479MOL0     H63190   4.531   8.891  -0.159 -2.1022  0.5841  1.1730
  479MOL0     H63191   4.711   8.819  -0.050  4.1935  1.0589  3.7114
  479MOL0     H63192   5.201   8.825  -0.115  0.5807  0.2540 -2.4484
  479MOL0     H63193   5.438   8.749  -0.046  0.7821  1.2818 -2.4782
  479MOL0     H63194   5.680   9.026   0.223  3.8150  1.6089 -1.1589
  479MOL0     H63195   5.658   9.051   0.048  1.4738  0.7405  0.2118
  479MOL0     H63196   5.866   8.872   0.197 -2.3830  1.7580  2.0737
  479MOL0     H63197   5.882   9.022   0.124 -0.6724  0.1062  0.0495
  479MOL0     H63198   5.800   8.750  -0.034 -0.4534  0.2376  1.5229
  479MOL0     H63199   5.961   8.806  -0.027 -0.8574  0.7969 -2.3402
  479MOL0     H63200   5.707   8.907  -0.164 -0.6714  1.2053  1.6194
  479MOL0     H63201   5.828   9.035  -0.139  1.7636 -0.2496  1.5097
  479MOL0     H63202   6.002   8.939  -0.216 -1.1743 -0.3034  1.9412
  479MOL0     H63203   5.880   8.945  -0.348 -1.6333 -0.0579  0.5903
  479MOL0     H63204   5.860   8.676  -0.288  0.0669 -0.2539  1.3286
  479MOL0     H63205   6.001   8.691  -0.196 -3.0844 -2.4653  0.2695
  479MOL0     H63206   6.058   8.595  -0.396 -2.6774 -1.1655  3.1171
  479MOL0     H63207   5.982   8.725  -0.490 -1.9106 -1.2365  1.0762
  479MOL0     H63208   6.224   8.771  -0.324 -3.0056  0.8118  1.7815
  479MOL0     H63209   6.127   8.885  -0.420 -1.5631 -0.3653 -3.6044
  479MOL0     H63210   5.449   9.099   0.219 -2.6861  0.5956  2.3858
  479MOL0     H63211   5.225   9.170   0.148  1.1414  1.3447  0.0285
  479MOL0     H63212   4.901   9.208  -0.095  0.0213  0.2278 -1.9290
  479MOL0     H63213   4.677   9.295  -0.179 -0.7802 -0.6501  0.0546
  479MOL0     H63214   4.319   9.060   0.458  0.1109 -0.2050  0.3756
  479MOL0     H63215   4.531   9.041   0.591  1.5794  0.3323 -2.3048
  479MOL0     H63216   4.897   9.291   0.740  2.2972 -0.2717 -0.1739
  479MOL0     H63217   5.097   9.357   0.876  1.0405 -1.4256  0.1770
  479MOL0     H63218   5.259   9.365   1.029 -2.0044  0.5434  0.2437
  479MOL0     H63219   5.303   9.196   1.095  0.2840 -0.2999 -0.8129
  479MOL0     H63220   5.315   9.463   1.251  1.7362  2.3644 -1.8926
  479MOL0     H63221   5.351   9.298   1.303  0.4093 -1.5893 -0.5664
  479MOL0     H63222   5.494   9.406   1.057 -2.6960 -0.7818 -0.2304
  479MOL0     H63223   5.524   9.267   1.155 -1.4621 -0.6731 -3.3081
  479MOL0     H63224   5.518   9.554   1.275  1.1774  0.4534  1.8688
  479MOL0     H63225   5.572   9.410   1.352 -2.8569  0.5184  0.4085
  479MOL0     H63226   5.915   9.523   1.117  0.1046  1.3362 -2.5658
  479MOL0     H63227   4.909   9.213   1.235  1.8104  5.8031  0.7442
  479MOL0     H63228   4.702   9.161   1.101  0.3223  2.0252 -0.9803
  480MOL0     O63229  10.152   3.145   3.273 -0.0034 -0.4593  0.1428
  480MOL0     C63230  10.099   3.114   3.168 -0.6633  0.7011 -0.2558
  480MOL0     O63231  10.163   3.125   3.052  0.1422 -0.5742  0.0742
  480MOL0     C63232  10.285   3.193   3.043  0.4137 -0.9425 -0.2865
  480MOL0     C63233  10.315   3.312   3.111  1.2703  0.2681 -0.0972
  480MOL0     C63234  10.447   3.364   3.090  0.1142  0.1757 -0.0697
  480MOL0     C63235  10.554   3.304   3.030  0.3327 -0.4546 -0.0381
  480MOL0     O63236  10.680   3.358   3.006 -0.1428 -0.2310 -0.9826
  480MOL0     C63237  10.709   3.483   3.084 -1.0656  0.0372  0.2001
  480MOL0     C63238  10.831   3.547   3.022  0.6718  0.1848  0.9211
  480MOL0     C63239  10.921   3.626   3.117 -1.0026 -0.7424  0.0450
  480MOL0     C63240  11.059   3.642   3.043  0.0210 -0.6861 -0.5753
  480MOL0     C63241  11.150   3.742   3.125 -0.2475  0.6658  0.0972
  480MOL0     C63242  11.276   3.773   3.042 -0.1937  0.8994 -0.5470
  480MOL0     C63243  11.353   3.898   3.089 -0.2955  0.5053  0.1071
  480MOL0     C63244  11.478   3.948   3.008 -0.0703 -0.5078  0.5922
  480MOL0     N63245  11.603   3.875   3.051  0.6952 -0.2016  0.0950
  480MOL0     C63246  11.668   3.896   3.173 -0.3403 -0.8047 -0.1940
  480MOL0     C63247  11.766   3.808   3.182 -0.0738 -0.7140  0.0354
  480MOL0     C63248  11.857   3.777   3.296  0.2528 -0.1117 -0.2832
  480MOL0     C63249  11.785   3.687   3.396 -0.0952  0.3525 -0.1340
  480MOL0     C63250  11.728   3.560   3.346 -0.0366  0.1227  0.5852
  480MOL0     C63251  11.701   3.461   3.455 -0.6358  0.3531 -0.1238
  480MOL0     O63252  11.667   3.534   3.583 -0.2076  0.7310  0.1703
  480MOL0     C63253  11.540   3.574   3.612 -0.3094  0.2648 -0.0743
  480MOL0     C63254  11.425   3.564   3.531 -0.5865 -0.2602 -0.4035
  480MOL0     C63255  11.301   3.615   3.577  0.5057  1.5748 -0.3818
  480MOL0     C63256  11.292   3.680   3.696  0.4463  0.0408 -0.1341
  480MOL0     C63257  11.155   3.723   3.739 -0.2867  0.9857 -0.8362
  480MOL0     O63258  11.142   3.819   3.833  0.2620 -0.1268 -0.5395
  480MOL0     C63259  11.019   3.827   3.900 -0.7380 -0.4128 -0.4393
  480MOL0     C63260  10.985   3.740   4.005 -0.6073 -0.0722  0.9888
  480MOL0     C63261  10.862   3.751   4.065  0.1850  0.3375  0.4492
  480MOL0     C63262  10.772   3.855   4.015  1.2932  0.4307 -0.6321
  480MOL0     O63263  10.645   3.859   4.062  0.0515 -0.5691  0.5202
  480MOL0     C63264  10.581   3.980   4.080  0.0974  0.4545  1.1822
  480MOL0     C63265  10.488   3.945   4.197 -0.1757  0.2821 -0.5366
  480MOL0     C63266  10.411   4.070   4.254  0.5966  0.3541 -0.0058
  480MOL0     C63267  10.308   4.022   4.358  0.1489  0.7736  0.1639
  480MOL0     C63268  10.245   4.137   4.445 -0.0228  0.1314  0.2159
  480MOL0     C63269  10.142   4.218   4.360  0.4481  1.0493 -0.7196
  480MOL0     C63270  10.109   4.354   4.424 -0.0982  0.5236  0.4074
  480MOL0     C63271   9.989   4.406   4.335  0.1182  0.3620 -0.3130
  480MOL0    Cl63272  10.030   4.452   4.169 -0.6331  0.1893 -0.6005
  480MOL0     C63273  10.815   3.948   3.914 -0.5481  0.6607  0.6350
  480MOL0     C63274  10.936   3.929   3.853 -0.1199  0.4904  0.2063
  480MOL0     O63275  11.062   3.650   3.703 -0.2365  0.4058  0.0523
  480MOL0     C63276  11.402   3.695   3.780  0.2609 -0.1435 -0.3822
  480MOL0     C63277  11.519   3.626   3.738 -0.0213 -0.0988 -0.1464
  480MOL0     N63278  11.759   3.730   3.068  0.2622 -0.0541  0.5978
  480MOL0     N63279  11.660   3.766   2.990  0.2034  0.2749  0.3190
  480MOL0     C63280  10.519   3.177   2.971 -0.4746  0.5269 -0.2097
  480MOL0     C63281  10.384   3.128   2.971 -0.5208  0.4827 -0.7598
  480MOL0     C63282   9.953   3.080   3.168  0.3143 -0.1953 -0.6816
  480MOL0     C63283   9.893   3.007   3.068  0.1768  1.0330 -0.2928
  480MOL0     C63284   9.753   2.968   3.072 -0.1338 -0.3039 -0.9672
  480MOL0     C63285   9.679   2.991   3.182 -0.1129  0.1377 -0.0113
  480MOL0     O63286   9.546   2.962   3.168 -0.5510  0.1669  0.1700
  480MOL0     C63287   9.509   2.845   3.237 -0.7373  0.3026  0.5618
  480MOL0     C63288   9.373   2.799   3.199 -0.9604  0.4317 -0.7502
  480MOL0     C63289   9.336   2.751   3.056  0.0668 -0.4249 -0.0173
  480MOL0     C63290   9.382   2.612   3.020  0.5186 -0.0975 -0.7189
  480MOL0     C63291   9.525   2.604   2.991  0.2973 -0.6433 -0.1147
  480MOL0     C63292   9.644   2.612   2.970 -0.1405 -0.4719  0.7327
  480MOL0     C63293   9.729   3.061   3.288 -0.2607  1.0560  0.4228
  480MOL0     C63294   9.869   3.103   3.285  0.7075 -0.2258  0.1665
  480MOL0     H63295  10.238   3.363   3.167  0.5613 -3.7907  3.0931
  480MOL0     H63296  10.440   3.463   3.135 -2.1755 -0.3893  0.9545
  480MOL0     H63297  10.720   3.460   3.191 -1.7159  0.8733  0.4551
  480MOL0     H63298  10.635   3.560   3.061 -0.8001  0.5362  0.9660
  480MOL0     H63299  10.813   3.624   2.946 -0.2244  2.1786  2.9988
  480MOL0     H63300  10.880   3.465   2.969 -2.5535 -0.3991 -1.4822
  480MOL0     H63301  10.935   3.567   3.208 -0.9691 -1.2807 -0.3050
  480MOL0     H63302  10.871   3.719   3.147  0.2897 -0.0823  0.1982
  480MOL0     H63303  11.115   3.548   3.033  0.2240 -0.7954  1.1767
  480MOL0     H63304  11.039   3.690   2.947 -2.0249 -1.8461 -0.7838
  480MOL0     H63305  11.179   3.693   3.219 -0.2672 -2.0411 -1.2120
  480MOL0     H63306  11.089   3.831   3.140 -1.8445 -0.5287  0.9202
  480MOL0     H63307  11.243   3.790   2.939 -2.1826 -4.3773 -1.1104
  480MOL0     H63308  11.341   3.685   3.045 -1.7993 -0.5234 -3.1054
  480MOL0     H63309  11.282   3.981   3.092 -0.9602  0.0744 -1.8887
  480MOL0     H63310  11.388   3.890   3.193  1.0638 -1.1186 -0.4273
  480MOL0     H63311  11.489   4.057   3.016  0.6581 -0.5748  0.5787
  480MOL0     H63312  11.467   3.935   2.900  0.2072  1.4249  0.2945
  480MOL0     H63313  11.630   3.962   3.250 -1.3638  1.4815 -2.5367
  480MOL0     H63314  11.887   3.873   3.338  0.3738  0.8284 -2.3724
  480MOL0     H63315  11.947   3.719   3.272  0.1144 -1.9244  3.0544
  480MOL0     H63316  11.700   3.735   3.446 -0.4227  0.1213 -0.4661
  480MOL0     H63317  11.862   3.668   3.472  0.0079 -2.4001 -0.8066
  480MOL0     H63318  11.636   3.576   3.289  0.2043  1.2562  0.4864
  480MOL0     H63319  11.803   3.523   3.277  0.4961 -2.0783  2.2463
  480MOL0     H63320  11.792   3.402   3.465 -0.2187  0.6762 -1.7721
  480MOL0     H63321  11.610   3.409   3.424 -1.1971  0.7119  0.8563
  480MOL0     H63322  11.426   3.529   3.428 -0.9608  1.4844 -1.0424
  480MOL0     H63323  11.216   3.618   3.510  1.0874 -1.7227 -1.4354
  480MOL0     H63324  11.053   3.664   4.044 -2.1272 -2.5993 -0.9642
  480MOL0     H63325  10.829   3.672   4.131  0.4062  1.1278  1.5419
  480MOL0     H63326  10.522   4.003   3.991 -0.3355 -0.5374  1.2012
  480MOL0     H63327  10.653   4.060   4.096  3.1209 -0.9042 -3.4235
  480MOL0     H63328  10.550   3.911   4.280 -1.1281  1.2453  0.6006
  480MOL0     H63329  10.423   3.865   4.162  0.3301 -0.0818 -0.6560
  480MOL0     H63330  10.358   4.113   4.168  0.8741  0.1088 -0.2977
  480MOL0     H63331  10.468   4.147   4.307 -0.8095  0.3132  1.6670
  480MOL0     H63332  10.227   3.961   4.315  1.9728 -0.3511 -1.9092
  480MOL0     H63333  10.354   3.959   4.434  0.5094 -1.6141 -1.8786
  480MOL0     H63334  10.325   4.205   4.476  0.5988 -0.9815  1.0977
  480MOL0     H63335  10.195   4.088   4.529 -0.1892  0.1795  0.1465
  480MOL0     H63336  10.053   4.154   4.350  0.8356  0.1218  1.2308
  480MOL0     H63337  10.182   4.234   4.260  2.5774 -2.6514 -0.6459
  480MOL0     H63338  10.079   4.342   4.528  0.7300  0.5661  0.6556
  480MOL0     H63339  10.199   4.416   4.423  1.1649 -1.2275  0.9548
  480MOL0     H63340   9.939   4.487   4.387 -1.0154 -0.2776 -0.3707
  480MOL0     H63341   9.912   4.328   4.342 -0.5644  0.9828 -0.7161
  480MOL0     H63342  10.750   4.029   3.883 -0.3250  0.0594 -1.5438
  480MOL0     H63343  10.966   3.986   3.766  0.2036 -3.4654 -2.5780
  480MOL0     H63344  11.387   3.749   3.873 -3.1051  1.2273 -1.5665
  480MOL0     H63345  11.604   3.615   3.804  0.4317  1.9901 -0.2914
  480MOL0     H63346  10.593   3.116   2.920 -2.0918 -1.8804  0.1254
  480MOL0     H63347  10.363   3.039   2.913 -0.1751  0.3774 -0.7245
  480MOL0     H63348   9.955   2.984   2.982 -0.6149  0.4509 -0.7278
  480MOL0     H63349   9.709   2.917   2.987  3.2358 -1.9501 -1.8805
  480MOL0     H63350   9.503   2.862   3.345  0.3573 -1.6002  0.9759
  480MOL0     H63351   9.580   2.764   3.214 -0.0142  1.2542 -0.6973
  480MOL0     H63352   9.340   2.735   3.281  0.0384  0.8562  0.0159
  480MOL0     H63353   9.305   2.884   3.211 -0.0798  0.8918  1.6695
  480MOL0     H63354   9.359   2.819   2.974 -3.3082  1.1159  0.0958
  480MOL0     H63355   9.226   2.755   3.054  0.1004  1.2620 -1.4315
  480MOL0     H63356   9.363   2.542   3.103 -1.8212 -2.3539 -2.9568
  480MOL0     H63357   9.328   2.584   2.930 -0.1415 -0.7142 -0.1476
  480MOL0     H63358   9.747   2.633   2.946 -0.6725 -0.7139 -2.1079
  480MOL0     H63359   9.666   3.072   3.376 -0.1737  0.7590  0.5240
  480MOL0     H63360   9.911   3.149   3.373 -1.0852  2.3189 -0.1865
  481MOL0     O63361  10.068   5.043   2.464 -0.1529 -0.7829 -0.4466
  481MOL0     C63362  10.143   5.011   2.552  0.0603  1.0463  0.9368
  481MOL0     O63363  10.156   4.890   2.614  0.0891 -0.0010  0.2319
  481MOL0     C63364  10.077   4.790   2.566  0.4201 -0.2473  0.6384
  481MOL0     C63365   9.988   4.733   2.659 -0.1104  0.6116 -0.3507
  481MOL0     C63366   9.907   4.625   2.620  0.0747  0.7425 -0.0055
  481MOL0     C63367   9.904   4.580   2.481  0.2194 -1.0178 -0.1603
  481MOL0     O63368   9.827   4.468   2.456 -0.1127  0.2306  0.0677
  481MOL0     C63369   9.755   4.489   2.335 -0.9800 -0.2516 -1.1268
  481MOL0     C63370   9.664   4.365   2.328 -0.1520 -0.3965  0.8398
  481MOL0     C63371   9.603   4.354   2.194  0.0603 -0.4432  0.7127
  481MOL0     C63372   9.526   4.222   2.183 -0.2012 -0.0036 -0.4216
  481MOL0     C63373   9.473   4.195   2.045  0.0502  0.8544  0.6240
  481MOL0     C63374   9.399   4.061   2.034  0.6761  0.7199  0.0745
  481MOL0     C63375   9.260   4.061   2.104  0.2131 -0.9083 -0.9376
  481MOL0     C63376   9.185   3.919   2.089 -0.4944  0.8119  0.5677
  481MOL0     N63377   9.038   3.915   2.096 -0.1672 -0.3918  0.1261
  481MOL0     C63378   8.964   3.796   2.092 -0.3006  0.7288 -0.1054
  481MOL0     C63379   8.845   3.835   2.153  0.3720  0.4501  0.7846
  481MOL0     C63380   8.740   3.746   2.198 -0.0607  1.0333  0.3636
  481MOL0     C63381   8.598   3.797   2.139  0.2032  0.0290 -0.4878
  481MOL0     C63382   8.479   3.717   2.198 -0.9572  0.3279  0.1097
  481MOL0     C63383   8.476   3.710   2.351 -0.1295  0.3119 -0.4815
  481MOL0     O63384   8.345   3.660   2.394  0.4072  0.4877  0.2117
  481MOL0     C63385   8.324   3.618   2.527  0.0891 -0.1047 -0.0862
  481MOL0     C63386   8.415   3.546   2.605 -0.3838  0.3287 -0.2941
  481MOL0     C63387   8.391   3.508   2.741 -0.1964 -0.4676 -0.6157
  481MOL0     C63388   8.255   3.525   2.794 -0.2643  0.0998  0.2786
  481MOL0     C63389   8.219   3.481   2.937 -0.0718  0.0073  0.4479
  481MOL0     O63390   8.299   3.377   2.997  0.4247  0.2105  0.0226
  481MOL0     C63391   8.272   3.330   3.131  0.1857  0.2851  1.5685
  481MOL0     C63392   8.140   3.336   3.187 -0.9848  0.4577 -0.6514
  481MOL0     C63393   8.125   3.279   3.314  0.2992 -1.3054  0.8142
  481MOL0     C63394   8.230   3.241   3.388 -0.6097  0.9233 -0.4255
  481MOL0     O63395   8.227   3.178   3.520  0.0150 -0.2469  0.2612
  481MOL0     C63396   8.096   3.132   3.560  0.2953  0.7995 -1.1024
  481MOL0     C63397   8.129   3.033   3.679  0.1438 -0.2274 -0.0060
  481MOL0     C63398   8.171   3.130   3.798  0.4353  0.3808 -0.2218
  481MOL0     C63399   8.180   3.044   3.927 -1.0535  0.1279 -0.3934
  481MOL0     C63400   8.332   3.002   3.941  0.4857  0.1214 -0.0687
  481MOL0     C63401   8.418   3.076   4.052  0.5697  0.2796  0.3872
  481MOL0     C63402   8.347   3.078   4.187 -0.1566 -0.1408 -0.5578
  481MOL0     C63403   8.443   3.028   4.308 -0.0667  0.9288  1.2994
  481MOL0    Cl63404   8.581   3.138   4.324 -0.3034  0.2484 -0.3530
  481MOL0     C63405   8.353   3.249   3.332 -0.0322  0.7210 -0.1549
  481MOL0     C63406   8.381   3.280   3.197 -0.9287  0.0030 -0.3385
  481MOL0     O63407   8.129   3.543   2.991 -0.8821  0.0872  0.0968
  481MOL0     C63408   8.161   3.594   2.713  0.4069  0.7184  0.3003
  481MOL0     C63409   8.196   3.631   2.586 -0.4828 -0.1287  0.5684
  481MOL0     N63410   8.843   3.973   2.179 -0.2292 -1.0736 -0.1077
  481MOL0     N63411   8.958   4.016   2.144  0.3971  0.2632  1.2011
  481MOL0     C63412   9.998   4.633   2.398  0.3396 -1.0995 -0.9861
  481MOL0     C63413  10.080   4.742   2.442 -0.4721  0.0714  0.5126
  481MOL0     C63414  10.239   5.110   2.605  1.0125 -0.0442  0.3954
  481MOL0     C63415  10.272   5.219   2.519  0.1726 -0.1492  0.1847
  481MOL0     C63416  10.369   5.309   2.557 -0.3943 -0.1493 -0.2460
  481MOL0     C63417  10.436   5.289   2.679  0.3259 -0.0133  0.3854
  481MOL0     O63418  10.540   5.374   2.702 -0.6306 -0.3564  0.2612
  481MOL0     C63419  10.643   5.317   2.780  0.2881 -0.2128 -0.2545
  481MOL0     C63420  10.778   5.388   2.750  0.0458  0.4493  0.3270
  481MOL0     C63421  10.815   5.410   2.601 -0.0502  0.7725  0.2710
  481MOL0     C63422  10.952   5.460   2.578  0.2806  0.5196  0.3149
  481MOL0     C63423  10.947   5.600   2.529 -0.8422  0.0566  0.1609
  481MOL0     C63424  10.935   5.716   2.493  0.1607 -0.6481 -1.1074
  481MOL0     C63425  10.391   5.190   2.770  0.9404  1.0201 -0.3935
  481MOL0     C63426  10.296   5.097   2.734 -0.4486 -0.0869 -0.5955
  481MOL0     H63427  10.002   4.776   2.758 -2.4381  0.4632  0.0957
  481MOL0     H63428   9.834   4.599   2.695 -2.5718  1.9849 -2.0040
  481MOL0     H63429   9.818   4.498   2.246  2.5511 -0.9923  1.0883
  481MOL0     H63430   9.696   4.578   2.358 -0.9427 -0.7447  1.1781
  481MOL0     H63431   9.591   4.373   2.409 -1.9414 -3.2245 -0.3565
  481MOL0     H63432   9.732   4.283   2.351  1.2823  0.4214 -0.3352
  481MOL0     H63433   9.683   4.357   2.119 -0.5103 -3.4741 -0.1524
  481MOL0     H63434   9.537   4.441   2.190 -1.1958 -1.3274  1.3889
  481MOL0     H63435   9.593   4.141   2.216 -1.4070 -0.3257  1.3619
  481MOL0     H63436   9.445   4.226   2.256  0.4936  1.6194  0.3042
  481MOL0     H63437   9.558   4.181   1.978  1.6221  1.3288  2.4245
  481MOL0     H63438   9.399   4.274   2.024 -2.4443 -1.4972  0.0402
  481MOL0     H63439   9.459   3.985   2.085 -0.1131  1.1309  1.6766
  481MOL0     H63440   9.382   4.037   1.929 -0.2767  0.5826  0.2448
  481MOL0     H63441   9.279   4.089   2.207 -0.1965  0.4596 -1.2150
  481MOL0     H63442   9.203   4.144   2.060  2.1665  1.3428  0.5181
  481MOL0     H63443   9.226   3.849   2.162 -1.9438  0.7550  1.3651
  481MOL0     H63444   9.215   3.879   1.991  1.6075  1.1088  1.0475
  481MOL0     H63445   8.993   3.701   2.048 -2.4405 -0.2102  0.3611
  481MOL0     H63446   8.732   3.743   2.307  0.7214  1.6271  0.4533
  481MOL0     H63447   8.770   3.647   2.163  0.5893  1.5926 -0.7264
  481MOL0     H63448   8.589   3.779   2.031 -1.6184  0.1646 -0.3928
  481MOL0     H63449   8.571   3.899   2.167 -0.4389 -0.8329  2.2678
  481MOL0     H63450   8.387   3.754   2.152 -1.4810 -0.9341  0.0993
  481MOL0     H63451   8.499   3.615   2.165  0.3099 -0.0873  1.9820
  481MOL0     H63452   8.507   3.797   2.410  2.1220 -0.8004  0.0761
  481MOL0     H63453   8.545   3.630   2.377 -0.3545 -0.0702 -1.0223
  481MOL0     H63454   8.504   3.512   2.553 -0.7761 -0.5198 -0.4137
  481MOL0     H63455   8.455   3.441   2.797 -1.3242  0.3910  1.8363
  481MOL0     H63456   8.047   3.365   3.139  0.2106  2.7632 -1.7161
  481MOL0     H63457   8.024   3.265   3.352  0.6309  0.4837  2.5051
  481MOL0     H63458   8.036   3.085   3.482  3.3109  2.7758 -4.9950
  481MOL0     H63459   8.046   3.215   3.611  3.6831 -0.5419  5.3514
  481MOL0     H63460   8.201   2.958   3.646  1.4010  0.9765 -0.1207
  481MOL0     H63461   8.036   2.982   3.708 -0.9920 -0.2744 -3.2707
  481MOL0     H63462   8.103   3.211   3.823 -0.1841  0.9098 -3.2340
  481MOL0     H63463   8.265   3.184   3.783  0.0054  0.6118 -2.5233
  481MOL0     H63464   8.156   3.107   4.013  0.7192  0.7005 -0.2714
  481MOL0     H63465   8.116   2.955   3.927 -0.8611 -0.0135 -0.5093
  481MOL0     H63466   8.396   3.021   3.854 -1.1074 -0.7104 -1.4717
  481MOL0     H63467   8.331   2.894   3.956  1.1896 -0.6225 -4.1129
  481MOL0     H63468   8.430   3.178   4.013 -0.4755  0.0374 -0.6421
  481MOL0     H63469   8.518   3.034   4.061  0.1857 -0.4115  1.7073
  481MOL0     H63470   8.311   3.178   4.211  1.2240  0.1316  0.5410
  481MOL0     H63471   8.261   3.012   4.182 -1.3503  1.2658  0.5720
  481MOL0     H63472   8.474   2.925   4.288  1.0809  1.4409  0.2662
  481MOL0     H63473   8.369   3.026   4.388 -3.2082 -0.4146 -1.4221
  481MOL0     H63474   8.442   3.225   3.390 -1.1520 -1.5686  0.7674
  481MOL0     H63475   8.482   3.283   3.157 -0.3075  1.6052  1.2399
  481MOL0     H63476   8.059   3.603   2.749  0.8238 -1.5052  2.2978
  481MOL0     H63477   8.127   3.684   2.521 -0.8137  0.7946  1.6410
  481MOL0     H63478  10.020   4.600   2.297 -1.0269  0.0109 -1.6869
  481MOL0     H63479  10.145   4.782   2.364 -1.4104  0.7690  0.0722
  481MOL0     H63480  10.208   5.241   2.434 -0.3421 -0.9832  0.3531
  481MOL0     H63481  10.396   5.393   2.494  3.1104  0.4180  1.7804
  481MOL0     H63482  10.649   5.209   2.763  1.2247 -1.5186  6.0373
  481MOL0     H63483  10.619   5.317   2.887 -2.0345 -1.5339 -0.7114
  481MOL0     H63484  10.768   5.489   2.792 -1.9472  1.0660 -1.4283
  481MOL0     H63485  10.855   5.329   2.800 -0.9363 -1.6857 -0.5721
  481MOL0     H63486  10.743   5.476   2.553  3.2809  1.4652 -4.5561
  481MOL0     H63487  10.801   5.312   2.555 -4.3867  0.6757  1.3869
  481MOL0     H63488  11.015   5.446   2.667 -0.0533  0.1341  0.4982
  481MOL0     H63489  11.001   5.399   2.501  2.0116  0.6072  1.2795
  481MOL0     H63490  10.920   5.821   2.478  0.9257  0.0621  2.3226
  481MOL0     H63491  10.431   5.166   2.868  1.6276  1.0335 -0.6679
  481MOL0     H63492  10.270   5.015   2.799 -0.1385 -0.8338 -1.3883
  482MOL0     O63493   7.022   8.780   6.976 -0.1521 -0.6127 -0.7687
  482MOL0     C63494   7.081   8.680   6.992 -0.1231 -0.1303 -1.0372
  482MOL0     O63495   7.089   8.615   7.103  0.5074 -0.3782  0.0489
  482MOL0     C63496   7.016   8.656   7.211  0.6578  1.1111 -0.4415
  482MOL0     C63497   7.056   8.752   7.305 -0.1553  0.3041 -0.2502
  482MOL0     C63498   6.970   8.798   7.410  1.1779 -0.3013  0.1246
  482MOL0     C63499   6.838   8.750   7.418 -0.1508  0.1486  0.1887
  482MOL0     O63500   6.762   8.816   7.511  0.3026  0.0759 -0.4878
  482MOL0     C63501   6.623   8.799   7.511 -0.1415  1.0242  0.2602
  482MOL0     C63502   6.556   8.916   7.579 -1.1198 -0.4102 -0.2456
  482MOL0     C63503   6.584   8.932   7.733 -0.7430 -0.0988 -0.3035
  482MOL0     C63504   6.526   8.812   7.817  0.2435 -0.1878 -0.2142
  482MOL0     C63505   6.502   8.851   7.962  0.4944 -0.7859  0.5255
  482MOL0     C63506   6.627   8.871   8.044  0.9765  0.7263  0.1245
  482MOL0     C63507   6.590   8.911   8.179 -1.0219 -1.4110  0.1047
  482MOL0     C63508   6.705   8.987   8.247  0.9883  0.0058  0.0037
  482MOL0     N63509   6.665   9.037   8.380 -0.0713 -0.3154  0.8818
  482MOL0     C63510   6.576   9.133   8.392 -0.1113  0.0081  0.3616
  482MOL0     C63511   6.546   9.146   8.520 -0.5591 -0.9667  0.1727
  482MOL0     C63512   6.448   9.250   8.581 -0.6657 -0.1378 -0.0272
  482MOL0     C63513   6.320   9.180   8.629 -0.6192 -0.0132  0.2881
  482MOL0     C63514   6.234   9.122   8.518  0.2764 -0.4517  0.1589
  482MOL0     C63515   6.203   9.210   8.398  1.3152 -0.0837 -0.5025
  482MOL0     O63516   6.179   9.352   8.430 -0.0803 -0.1831 -0.0258
  482MOL0     C63517   6.073   9.385   8.510  0.9239 -0.0592  1.0229
  482MOL0     C63518   6.067   9.512   8.565 -0.4076  0.0350  0.5181
  482MOL0     C63519   5.984   9.535   8.673 -0.3995 -0.1321 -0.2596
  482MOL0     C63520   5.898   9.436   8.724 -0.8102  0.3191  0.6768
  482MOL0     C63521   5.819   9.467   8.844 -0.0546  0.5887  0.4661
  482MOL0     O63522   5.723   9.370   8.886 -0.4215 -0.6003 -0.0874
  482MOL0     C63523   5.611   9.379   8.975 -0.0135 -0.3996 -0.0063
  482MOL0     C63524   5.572   9.500   9.038  0.4471  0.4362 -0.7581
  482MOL0     C63525   5.453   9.509   9.117  1.2848 -0.6821  0.3142
  482MOL0     C63526   5.367   9.396   9.115  0.3643 -0.4760 -0.0110
  482MOL0     O63527   5.238   9.409   9.156  0.6226 -0.5105 -0.3380
  482MOL0     C63528   5.207   9.507   9.256  0.3941 -0.0111 -0.5914
  482MOL0     C63529   5.070   9.488   9.327  0.1524  0.1463 -0.1021
  482MOL0     C63530   5.018   9.602   9.423  0.9741  0.8245  0.5468
  482MOL0     C63531   4.897   9.550   9.482 -0.2009  0.5831  0.6927
  482MOL0     C63532   4.842   9.639   9.593 -1.0869  0.5373 -0.2359
  482MOL0     C63533   4.927   9.635   9.726  0.0048 -0.2700 -0.1687
  482MOL0     C63534   4.850   9.561   9.833  0.0218 -0.3579 -0.9190
  482MOL0     C63535   4.913   9.570   9.981  0.0196  0.2923  0.7433
  482MOL0    Cl63536   4.881   9.417  10.067 -0.0703  0.0509 -0.2893
  482MOL0     C63537   5.409   9.270   9.080  0.2726  0.7920  0.4263
  482MOL0     C63538   5.528   9.265   9.004 -0.2476 -0.5836 -1.1632
  482MOL0     O63539   5.828   9.576   8.900 -1.0510 -0.0549  0.0597
  482MOL0     C63540   5.893   9.314   8.660  0.1867  0.1352 -0.7815
  482MOL0     C63541   5.964   9.296   8.545 -0.3958  0.0018 -0.0727
  482MOL0     N63542   6.619   9.055   8.584  0.4843  0.0808 -0.5161
  482MOL0     N63543   6.693   8.986   8.500  0.1954 -0.6556  0.3762
  482MOL0     C63544   6.796   8.648   7.328 -0.2964  0.7526  0.4553
  482MOL0     C63545   6.884   8.601   7.230  0.1586  0.0183 -0.8712
  482MOL0     C63546   7.158   8.620   6.887 -0.0906  0.4182  0.3937
  482MOL0     C63547   7.240   8.504   6.899  1.1216  0.4997  0.5710
  482MOL0     C63548   7.320   8.449   6.796  0.2226  0.3123 -0.8456
  482MOL0     C63549   7.312   8.512   6.671  0.3607 -0.7701 -0.4703
  482MOL0     O63550   7.374   8.452   6.575 -0.1775 -0.2237  0.9021
  482MOL0     C63551   7.449   8.520   6.467  0.0178  0.3839  0.0972
  482MOL0     C63552   7.561   8.604   6.533  0.7410 -0.3618 -1.0346
  482MOL0     C63553   7.657   8.672   6.427  0.6081  0.4344 -0.0233
  482MOL0     C63554   7.790   8.719   6.493 -0.3578  0.6555  0.6598
  482MOL0     C63555   7.896   8.759   6.397  0.1743  0.8945  0.0256
  482MOL0     C63556   7.974   8.777   6.300  0.4123  0.8284  0.2595
  482MOL0     C63557   7.229   8.620   6.657  0.7939  0.1228  0.5287
  482MOL0     C63558   7.155   8.676   6.762  1.1314  0.4801  0.9809
  482MOL0     H63559   7.155   8.797   7.305 -0.0017  0.0287  1.3070
  482MOL0     H63560   6.999   8.883   7.471 -2.6328  0.4817  1.1153
  482MOL0     H63561   6.593   8.700   7.545 -0.2632 -0.3663 -3.4120
  482MOL0     H63562   6.578   8.797   7.411 -0.2563 -0.1431  0.3257
  482MOL0     H63563   6.448   8.897   7.575 -1.2307  0.2678 -0.6718
  482MOL0     H63564   6.585   9.011   7.533 -3.9626  0.7682  0.2028
  482MOL0     H63565   6.558   9.034   7.763  3.2790  1.1430 -0.4541
  482MOL0     H63566   6.692   8.934   7.751 -0.7624  2.2506 -0.1229
  482MOL0     H63567   6.430   8.786   7.771 -1.2992  4.0278  0.1227
  482MOL0     H63568   6.593   8.726   7.820 -2.5633 -2.5048  0.2804
  482MOL0     H63569   6.442   8.773   8.010  1.2567 -2.6998 -1.4744
  482MOL0     H63570   6.447   8.945   7.962  2.4135  0.4032 -0.7147
  482MOL0     H63571   6.695   8.942   7.996 -0.2611  3.0300  1.5748
  482MOL0     H63572   6.681   8.776   8.044 -0.3705 -0.2170  3.7909
  482MOL0     H63573   6.499   8.971   8.188 -1.7547 -2.6007  1.0195
  482MOL0     H63574   6.567   8.816   8.229 -3.3151 -1.8460 -1.5969
  482MOL0     H63575   6.745   9.067   8.184  1.7132 -0.3844 -0.0426
  482MOL0     H63576   6.794   8.925   8.263  1.7335  0.7489 -1.1369
  482MOL0     H63577   6.539   9.189   8.307  1.3976  2.7135  1.3508
  482MOL0     H63578   6.443   9.331   8.508  2.0055  0.6616  0.5642
  482MOL0     H63579   6.496   9.293   8.669 -1.9377  0.9356  0.1798
  482MOL0     H63580   6.253   9.255   8.669 -1.0035  1.2653 -2.5197
  482MOL0     H63581   6.336   9.103   8.706  2.1105 -0.5511 -0.6861
  482MOL0     H63582   6.286   9.030   8.489  3.4502  1.9794 -2.6029
  482MOL0     H63583   6.146   9.091   8.575  0.5041  1.8829  1.9297
  482MOL0     H63584   6.108   9.173   8.358 -0.0835  0.7207  1.9115
  482MOL0     H63585   6.282   9.209   8.322  0.4851  1.0057 -1.4211
  482MOL0     H63586   6.139   9.583   8.526 -1.9962  1.5138  0.1541
  482MOL0     H63587   5.988   9.631   8.725  0.6658 -0.1943 -0.2154
  482MOL0     H63588   5.643   9.582   9.040  2.7362 -1.3504  3.0996
  482MOL0     H63589   5.432   9.610   9.150 -1.6317 -1.0827 -0.0273
  482MOL0     H63590   5.195   9.607   9.212 -2.5344 -0.9900 -2.3106
  482MOL0     H63591   5.283   9.497   9.333 -0.9773 -4.1518  0.4562
  482MOL0     H63592   5.062   9.395   9.383 -0.3656  0.9117  1.1503
  482MOL0     H63593   4.997   9.477   9.246 -0.3806 -2.1836  0.6271
  482MOL0     H63594   5.007   9.696   9.367 -2.8425  0.2209  0.0205
  482MOL0     H63595   5.094   9.616   9.500  1.1279  1.0085  0.3646
  482MOL0     H63596   4.821   9.557   9.403 -3.5111 -1.8539  3.3884
  482MOL0     H63597   4.901   9.447   9.519 -0.6398 -0.0680 -0.9886
  482MOL0     H63598   4.736   9.617   9.610 -0.8030 -0.1552  0.7600
  482MOL0     H63599   4.851   9.744   9.564  2.6960  1.4436  3.3259
  482MOL0     H63600   4.947   9.733   9.770  0.5440 -0.9497  1.1339
  482MOL0     H63601   5.016   9.578   9.700  1.1877  0.6022  1.7608
  482MOL0     H63602   4.747   9.596   9.842 -1.0547 -3.2562 -0.8578
  482MOL0     H63603   4.855   9.456   9.801  0.6983 -0.2479 -1.1747
  482MOL0     H63604   4.873   9.646  10.048 -2.3218  0.0385 -0.2801
  482MOL0     H63605   5.022   9.573   9.971 -0.1445  3.0234 -1.4454
  482MOL0     H63606   5.344   9.183   9.086  0.3313  0.3987 -2.9762
  482MOL0     H63607   5.566   9.166   8.980  0.5978 -1.4322  2.8992
  482MOL0     H63608   5.840   9.229   8.702  4.1148 -2.3927 -0.3391
  482MOL0     H63609   5.946   9.207   8.486 -0.5886 -1.9635  2.7568
  482MOL0     H63610   6.696   8.609   7.344 -0.7227  2.1473  1.3309
  482MOL0     H63611   6.858   8.521   7.161  2.3842 -0.4736 -1.1982
  482MOL0     H63612   7.231   8.444   6.989  0.9747 -2.8526 -1.5018
  482MOL0     H63613   7.372   8.354   6.805  2.2535  1.5328  3.2463
  482MOL0     H63614   7.378   8.580   6.409 -2.2489 -2.5644 -0.4650
  482MOL0     H63615   7.476   8.436   6.403 -0.7259 -1.1450  1.6998
  482MOL0     H63616   7.510   8.672   6.603  0.5203 -1.6279  0.0709
  482MOL0     H63617   7.619   8.534   6.593  0.4114  0.1091 -0.1452
  482MOL0     H63618   7.609   8.758   6.379  1.1067  0.4638 -0.4882
  482MOL0     H63619   7.663   8.605   6.341  0.0999  1.4441 -0.8791
  482MOL0     H63620   7.762   8.808   6.549  1.2474  1.6478 -0.0312
  482MOL0     H63621   7.826   8.655   6.574  0.8476  0.4654  0.0026
  482MOL0     H63622   8.047   8.803   6.225  0.2353  2.2994  0.5590
  482MOL0     H63623   7.213   8.675   6.564 -3.7465  0.9895  1.5642
  482MOL0     H63624   7.087   8.757   6.738 -0.2868 -1.2659 -1.3120
  483MOL0     O63625   2.179   7.637   8.788  0.0833  0.0829 -0.4168
  483MOL0     C63626   2.151   7.752   8.737 -0.0049  0.0309  0.0877
  483MOL0     O63627   2.196   7.789   8.613 -0.8443  0.6641  0.5835
  483MOL0     C63628   2.294   7.714   8.551 -1.4628 -0.5509 -0.6106
  483MOL0     C63629   2.415   7.680   8.612 -0.4071 -0.4916  0.5043
  483MOL0     C63630   2.517   7.596   8.553 -0.7262 -1.6770 -0.8800
  483MOL0     C63631   2.496   7.556   8.419  0.3470 -0.8735 -0.3403
  483MOL0     O63632   2.590   7.489   8.348 -0.2744  0.3180 -0.4521
  483MOL0     C63633   2.561   7.352   8.326  0.0670  0.7004 -0.1332
  483MOL0     C63634   2.636   7.313   8.202  0.4705 -0.0877 -0.4980
  483MOL0     C63635   2.645   7.166   8.181 -1.1832 -1.1222 -0.1541
  483MOL0     C63636   2.707   7.128   8.048  0.2130  0.3880  0.6467
  483MOL0     C63637   2.684   6.981   8.016  0.0262  0.6435  1.1100
  483MOL0     C63638   2.736   6.951   7.866  0.1906  0.2944  0.4023
  483MOL0     C63639   2.712   6.804   7.827  0.1317 -0.0550 -0.4778
  483MOL0     C63640   2.769   6.769   7.688  0.8793  0.1587  0.0212
  483MOL0     N63641   2.899   6.812   7.657  0.1437  0.4790 -0.0471
  483MOL0     C63642   2.937   6.913   7.569  0.8319 -0.5565 -0.3077
  483MOL0     C63643   3.073   6.909   7.573  0.5027 -0.4545 -0.0293
  483MOL0     C63644   3.164   7.003   7.497 -0.4553 -0.4313 -0.4223
  483MOL0     C63645   3.310   6.983   7.534 -0.4739  0.0350 -0.3751
  483MOL0     C63646   3.398   7.093   7.463 -0.0237  0.6584  0.0384
  483MOL0     C63647   3.544   7.076   7.498  0.6492  0.0359 -0.5118
  483MOL0     O63648   3.608   7.188   7.435 -0.4654 -0.6565  0.1035
  483MOL0     C63649   3.739   7.171   7.388  0.2832 -0.2919 -0.4166
  483MOL0     C63650   3.837   7.074   7.429 -0.2279 -0.4192  0.5408
  483MOL0     C63651   3.969   7.090   7.374  0.1890  0.7679  0.1948
  483MOL0     C63652   4.004   7.183   7.280 -0.0460 -0.4045 -0.6630
  483MOL0     C63653   4.148   7.190   7.233  0.0678  0.7062  0.5635
  483MOL0     O63654   4.202   7.313   7.193 -0.2246  0.1469  0.5093
  483MOL0     C63655   4.312   7.313   7.120 -0.4225 -0.2961  0.0909
  483MOL0     C63656   4.313   7.373   6.989 -0.6997  1.0602 -0.5071
  483MOL0     C63657   4.436   7.401   6.927 -0.2566 -0.1674 -0.6438
  483MOL0     C63658   4.552   7.347   6.991 -0.8664 -0.5640  0.1412
  483MOL0     O63659   4.678   7.365   6.935 -0.1260 -0.3702 -0.3009
  483MOL0     C63660   4.680   7.414   6.798 -0.2532  0.1867 -0.1033
  483MOL0     C63661   4.813   7.380   6.742  0.1123  0.1796  1.0462
  483MOL0     C63662   4.948   7.423   6.806  0.6210 -0.9258 -0.4358
  483MOL0     C63663   4.974   7.571   6.759 -0.3714  0.3688  0.9404
  483MOL0     C63664   5.113   7.602   6.810 -0.4843  1.1540  0.1427
  483MOL0     C63665   5.174   7.736   6.773  0.0730  0.3392 -0.5406
  483MOL0     C63666   5.305   7.754   6.846  0.3973 -0.4204 -0.9556
  483MOL0     C63667   5.345   7.901   6.879  0.4360 -0.2691 -1.0671
  483MOL0    Cl63668   5.348   7.989   6.722 -0.0471 -0.0608  0.2121
  483MOL0     C63669   4.547   7.284   7.114  0.6801  0.7707 -0.3949
  483MOL0     C63670   4.428   7.264   7.179  0.0671 -0.2291 -0.3261
  483MOL0     O63671   4.207   7.083   7.226 -1.2654  0.4338  0.1864
  483MOL0     C63672   3.910   7.284   7.259 -0.5399 -1.7848 -0.0649
  483MOL0     C63673   3.776   7.275   7.301  0.6057  0.6361  0.5321
  483MOL0     N63674   3.115   6.811   7.669 -0.0848 -0.1254 -0.0938
  483MOL0     N63675   3.014   6.761   7.722  1.3985 -0.0947  0.5744
  483MOL0     C63676   2.378   7.591   8.356  0.2715  0.3855  0.2403
  483MOL0     C63677   2.280   7.674   8.419 -0.6549  0.2388  0.3390
  483MOL0     C63678   2.065   7.841   8.804 -0.3498 -0.4073  0.1718
  483MOL0     C63679   2.000   7.799   8.915 -0.1975 -0.2764 -0.2304
  483MOL0     C63680   1.916   7.883   8.984  1.0091 -1.2210 -0.5770
  483MOL0     C63681   1.907   8.024   8.955 -0.1971  0.0834  0.0724
  483MOL0     O63682   1.841   8.126   9.017  0.0844  0.0583  0.3368
  483MOL0     C63683   1.742   8.094   9.118 -0.7247  0.1063 -0.3094
  483MOL0     C63684   1.648   8.211   9.133  0.2279 -0.4113  1.6243
  483MOL0     C63685   1.726   8.336   9.188 -0.2688  0.3234  0.6426
  483MOL0     C63686   1.765   8.325   9.338 -0.6890 -0.3148  0.1769
  483MOL0     C63687   1.805   8.453   9.399  0.6391  0.2394 -0.8902
  483MOL0     C63688   1.828   8.555   9.457 -0.4682  0.0712  0.1815
  483MOL0     C63689   1.987   8.071   8.846  0.1318  0.0961 -0.3176
  483MOL0     C63690   2.056   7.977   8.759 -0.0484  0.3656  0.1039
  483MOL0     H63691   2.422   7.711   8.716  4.3830 -1.4500  0.6819
  483MOL0     H63692   2.610   7.585   8.607 -0.7451 -1.8108 -0.8751
  483MOL0     H63693   2.456   7.329   8.308 -0.1259 -2.2571  3.5484
  483MOL0     H63694   2.588   7.293   8.414  0.9478  2.1010  0.5824
  483MOL0     H63695   2.736   7.354   8.217  0.4821  1.2439 -3.5341
  483MOL0     H63696   2.589   7.366   8.118  2.0765 -1.2617 -2.2001
  483MOL0     H63697   2.540   7.137   8.175 -1.7232  0.7740 -0.8642
  483MOL0     H63698   2.697   7.123   8.267  1.8417 -1.4799 -2.0461
  483MOL0     H63699   2.678   7.190   7.963 -1.4634 -1.2284 -0.0490
  483MOL0     H63700   2.813   7.150   8.057 -0.4402  3.7050  1.5000
  483MOL0     H63701   2.582   6.947   8.034  0.5445 -1.2644  0.6004
  483MOL0     H63702   2.745   6.920   8.084 -1.2164 -2.2896 -0.2637
  483MOL0     H63703   2.840   6.985   7.858 -0.9383  5.6679  3.2207
  483MOL0     H63704   2.682   7.008   7.790 -0.3485  0.3045  0.7852
  483MOL0     H63705   2.767   6.746   7.902  0.7262  1.3765  0.2506
  483MOL0     H63706   2.605   6.783   7.834  0.4166 -1.7620 -0.9467
  483MOL0     H63707   2.697   6.796   7.611  0.8385 -0.4979 -0.1733
  483MOL0     H63708   2.764   6.660   7.682 -2.4557  0.2046  0.2524
  483MOL0     H63709   2.873   6.977   7.509  0.9979  1.3525  1.4228
  483MOL0     H63710   3.144   7.110   7.508  1.2111 -0.0532 -0.7793
  483MOL0     H63711   3.151   6.975   7.392 -2.1109  0.7790 -0.5801
  483MOL0     H63712   3.335   6.883   7.497 -0.7034  0.8265 -2.8495
  483MOL0     H63713   3.324   6.985   7.642 -2.4132 -1.4438 -0.0420
  483MOL0     H63714   3.389   7.095   7.354  1.6693  0.2499 -0.1403
  483MOL0     H63715   3.367   7.191   7.499  0.8278  2.0170 -2.6656
  483MOL0     H63716   3.575   6.978   7.460 -0.7243 -0.3627 -0.6656
  483MOL0     H63717   3.555   7.092   7.606 -1.1825  0.3629 -0.3351
  483MOL0     H63718   3.816   6.994   7.499 -1.9212  1.2216  2.0476
  483MOL0     H63719   4.048   7.022   7.405  1.1770  1.7310 -0.1287
  483MOL0     H63720   4.221   7.412   6.946 -1.7506  0.4959  1.1231
  483MOL0     H63721   4.433   7.446   6.828 -2.0799  1.0509 -0.0908
  483MOL0     H63722   4.658   7.521   6.792  0.5076  0.6271  3.0708
  483MOL0     H63723   4.597   7.366   6.745  0.2777 -3.7188  2.1841
  483MOL0     H63724   4.805   7.410   6.637  0.7939 -0.6567  0.7417
  483MOL0     H63725   4.816   7.271   6.739  1.3277  0.2012  0.9688
  483MOL0     H63726   5.018   7.349   6.768  0.6540 -1.0944 -0.0521
  483MOL0     H63727   4.946   7.426   6.915 -2.6427 -0.0855 -0.4073
  483MOL0     H63728   4.974   7.581   6.650 -0.8156  1.0282  1.0010
  483MOL0     H63729   4.900   7.642   6.796 -1.4655 -0.9061  1.2643
  483MOL0     H63730   5.182   7.526   6.771  1.1426  3.0009 -0.8009
  483MOL0     H63731   5.099   7.598   6.918 -3.6042  0.8886 -0.1794
  483MOL0     H63732   5.111   7.820   6.803 -2.6062 -2.2221  1.6348
  483MOL0     H63733   5.190   7.727   6.665 -0.3775 -6.4428 -0.4837
  483MOL0     H63734   5.302   7.711   6.947  1.9890 -1.4813 -1.3347
  483MOL0     H63735   5.384   7.699   6.796 -1.4534 -0.7730 -3.7390
  483MOL0     H63736   5.442   7.903   6.929  0.2913  1.9808 -0.7635
  483MOL0     H63737   5.279   7.946   6.953  0.3414 -1.5864 -0.3433
  483MOL0     H63738   4.642   7.267   7.163  0.1672  0.3534  0.4820
  483MOL0     H63739   4.440   7.233   7.282  0.1348 -0.5897 -0.4427
  483MOL0     H63740   3.937   7.363   7.190  0.7700 -1.1975  1.0706
  483MOL0     H63741   3.704   7.342   7.255  1.6084 -0.4634 -2.9975
  483MOL0     H63742   2.371   7.570   8.249  0.0137  3.5056 -0.4557
  483MOL0     H63743   2.192   7.710   8.368 -1.2011 -1.4611  0.0330
  483MOL0     H63744   2.006   7.692   8.934  3.7960 -0.9472 -3.8181
  483MOL0     H63745   1.860   7.841   9.067 -3.6449  0.1007 -2.7392
  483MOL0     H63746   1.805   8.075   9.204 -0.6895 -0.6151 -0.4891
  483MOL0     H63747   1.684   8.003   9.101 -1.2244  0.6089 -1.4216
  483MOL0     H63748   1.598   8.221   9.035 -0.9770  0.7256  2.3180
  483MOL0     H63749   1.562   8.190   9.198 -0.8709  1.0310  0.6950
  483MOL0     H63750   1.667   8.426   9.168  0.6420  1.1523  1.5905
  483MOL0     H63751   1.819   8.354   9.132 -1.6743 -0.3213 -2.0660
  483MOL0     H63752   1.685   8.281   9.398 -1.1451 -0.0106 -0.1985
  483MOL0     H63753   1.852   8.259   9.349 -1.6872 -1.6042  0.6496
  483MOL0     H63754   1.832   8.647   9.511 -2.9825  0.5719 -0.3441
  483MOL0     H63755   2.003   8.178   8.829  0.5012  0.0813 -0.0900
  483MOL0     H63756   2.118   8.001   8.673 -1.3139  2.5269 -0.2657
  484MOL0     O63757   5.244   6.443   1.380  0.8054  0.2089 -0.2723
  484MOL0     C63758   5.246   6.437   1.259  1.5269  0.3598 -0.1714
  484MOL0     O63759   5.355   6.456   1.174 -0.4058 -0.0143  0.3236
  484MOL0     C63760   5.464   6.527   1.203 -0.2706  0.0858 -0.6680
  484MOL0     C63761   5.531   6.591   1.099 -0.4161  0.2428  0.1964
  484MOL0     C63762   5.649   6.662   1.131 -0.1381  0.8525 -0.6343
  484MOL0     C63763   5.701   6.668   1.260  0.4768 -0.0810  0.1359
  484MOL0     O63764   5.822   6.735   1.271 -0.1077 -0.2915 -0.5599
  484MOL0     C63765   5.921   6.676   1.360 -0.2941 -0.6500  0.7118
  484MOL0     C63766   6.058   6.739   1.333 -0.1107 -1.0290  0.2669
  484MOL0     C63767   6.170   6.680   1.410 -0.0099  0.5724  0.7951
  484MOL0     C63768   6.304   6.733   1.368  0.0533  0.0715  0.3154
  484MOL0     C63769   6.434   6.683   1.449  0.8838  0.8927  0.4806
  484MOL0     C63770   6.550   6.774   1.407 -0.0779 -0.4270 -0.0981
  484MOL0     C63771   6.673   6.714   1.461 -0.3008 -0.3679  0.0075
  484MOL0     C63772   6.788   6.805   1.481 -0.4048 -0.8098 -0.3757
  484MOL0     N63773   6.881   6.736   1.576  0.1868 -0.1705  0.0483
  484MOL0     C63774   6.979   6.650   1.529 -0.4675  0.2230  0.0609
  484MOL0     C63775   7.044   6.616   1.638  0.0432 -0.3737 -0.5205
  484MOL0     C63776   7.176   6.541   1.637  1.1092  0.8819 -0.6432
  484MOL0     C63777   7.293   6.637   1.607  0.2382  0.5492  0.0074
  484MOL0     C63778   7.347   6.707   1.742 -0.3190 -0.1726 -0.4679
  484MOL0     C63779   7.486   6.779   1.714  1.0165  0.0954 -0.0318
  484MOL0     O63780   7.466   6.885   1.622  0.7494 -0.0683  0.5761
  484MOL0     C63781   7.580   6.943   1.568  1.1706  0.4036 -0.0393
  484MOL0     C63782   7.587   6.990   1.436 -1.0917 -0.0263 -0.1018
  484MOL0     C63783   7.700   7.056   1.398  0.8091 -0.4759  0.3648
  484MOL0     C63784   7.807   7.075   1.480 -0.9787 -0.5383  0.8184
  484MOL0     C63785   7.943   7.121   1.424  0.1069 -0.2716 -0.5273
  484MOL0     O63786   7.994   7.219   1.503 -0.2504  0.2563 -0.7422
  484MOL0     C63787   8.099   7.291   1.449  0.0088 -0.4463  0.2599
  484MOL0     C63788   8.080   7.421   1.408 -1.0798 -0.7542 -0.3026
  484MOL0     C63789   8.186   7.499   1.351 -1.1931 -0.9594  0.4754
  484MOL0     C63790   8.319   7.451   1.343  1.1329  0.6091  0.1421
  484MOL0     O63791   8.411   7.537   1.288  0.1231 -0.0722  0.9862
  484MOL0     C63792   8.536   7.485   1.241  0.6126  0.0925 -0.1271
  484MOL0     C63793   8.580   7.577   1.135  0.2142 -0.9441  0.4489
  484MOL0     C63794   8.731   7.575   1.105 -0.2966  1.0527 -0.9359
  484MOL0     C63795   8.763   7.712   1.043 -0.6747  0.1379 -0.9161
  484MOL0     C63796   8.895   7.700   0.975  0.1262  0.7058  0.1134
  484MOL0     C63797   8.930   7.845   0.905 -0.6035  1.0676 -1.1180
  484MOL0     C63798   9.047   7.839   0.804 -0.4887 -0.6861 -0.1022
  484MOL0     C63799   9.117   7.979   0.814  0.5291 -0.4083  0.7361
  484MOL0    Cl63800   9.042   8.100   0.714  0.0881 -0.1899 -0.7931
  484MOL0     C63801   8.344   7.327   1.404  0.1659  0.8511 -0.3863
  484MOL0     C63802   8.234   7.245   1.454 -0.3667 -0.0925  0.7805
  484MOL0     O63803   7.982   7.078   1.317  0.1475 -0.5774 -0.2911
  484MOL0     C63804   7.803   7.023   1.611 -0.2517  0.2227  1.6851
  484MOL0     C63805   7.681   6.970   1.659 -0.9672 -0.4934 -0.1726
  484MOL0     N63806   6.983   6.680   1.742 -0.4083 -0.6756  0.0742
  484MOL0     N63807   6.873   6.752   1.704  0.6347 -0.1204  0.3205
  484MOL0     C63808   5.622   6.617   1.364  0.7736  0.0884  0.5213
  484MOL0     C63809   5.512   6.540   1.332 -0.5027 -0.5942  0.1251
  484MOL0     C63810   5.112   6.407   1.197 -0.0580 -0.3167 -0.5450
  484MOL0     C63811   5.104   6.398   1.058  1.2997 -0.4439 -0.6830
  484MOL0     C63812   4.983   6.376   0.987  0.0034 -0.7262 -0.5219
  484MOL0     C63813   4.870   6.332   1.055 -0.3027 -0.7628 -0.1214
  484MOL0     O63814   4.766   6.304   0.971  0.0730  0.8985 -0.5691
  484MOL0     C63815   4.646   6.255   1.036 -1.3768  0.9346 -0.0234
  484MOL0     C63816   4.541   6.269   0.923  0.2957 -0.5346  0.6456
  484MOL0     C63817   4.408   6.218   0.965  0.9235  0.4995 -0.1968
  484MOL0     C63818   4.310   6.316   1.028  1.0160 -0.7124 -0.0572
  484MOL0     C63819   4.202   6.244   1.081 -0.6421 -0.3363  0.2709
  484MOL0     C63820   4.122   6.178   1.134  0.0487  1.1312  0.3101
  484MOL0     C63821   4.880   6.331   1.192  0.2864  0.3482  0.0783
  484MOL0     C63822   4.993   6.379   1.260 -0.6231  0.7212 -0.2699
  484MOL0     H63823   5.495   6.594   0.997 -1.9796  2.8395  0.7098
  484MOL0     H63824   5.704   6.716   1.055  0.0070  1.4829 -0.0978
  484MOL0     H63825   5.929   6.568   1.346  1.4589 -0.3817 -0.9368
  484MOL0     H63826   5.894   6.688   1.465 -0.9033  1.2103  0.3707
  484MOL0     H63827   6.066   6.848   1.342  4.8242 -1.1123 -0.7583
  484MOL0     H63828   6.083   6.722   1.228  2.2346  1.3733  0.3437
  484MOL0     H63829   6.165   6.573   1.390 -0.3896  0.8998 -1.1054
  484MOL0     H63830   6.155   6.708   1.514 -1.3058 -1.9477  1.3668
  484MOL0     H63831   6.327   6.701   1.266 -2.5150 -0.4214 -0.1710
  484MOL0     H63832   6.302   6.842   1.361  1.3166  0.3322  2.8085
  484MOL0     H63833   6.448   6.576   1.429 -0.6282  0.4394  1.6174
  484MOL0     H63834   6.404   6.682   1.554  0.0442  2.4219  0.2926
  484MOL0     H63835   6.536   6.874   1.449 -1.6912 -0.6577 -0.0444
  484MOL0     H63836   6.555   6.780   1.298 -0.8000 -1.6584 -0.2176
  484MOL0     H63837   6.649   6.688   1.564 -0.4068  1.8684  0.5872
  484MOL0     H63838   6.704   6.624   1.407 -1.1553  0.3755 -1.8182
  484MOL0     H63839   6.758   6.905   1.513 -1.4957 -1.9349  2.4810
  484MOL0     H63840   6.836   6.818   1.383  0.4340 -1.0131 -0.0063
  484MOL0     H63841   6.993   6.603   1.433  0.9695 -0.5066  0.5936
  484MOL0     H63842   7.163   6.449   1.579 -0.4535 -0.0036  1.0204
  484MOL0     H63843   7.199   6.508   1.738 -1.5789  1.1814  0.1397
  484MOL0     H63844   7.249   6.720   1.551 -0.6789  2.3618  3.1653
  484MOL0     H63845   7.367   6.583   1.547 -1.1146 -1.1879 -0.1680
  484MOL0     H63846   7.276   6.773   1.793  1.4398  1.2266  0.2543
  484MOL0     H63847   7.361   6.630   1.818  1.2769  1.1952  0.7052
  484MOL0     H63848   7.546   6.698   1.673 -0.2536 -1.7742  1.5900
  484MOL0     H63849   7.531   6.814   1.807  2.0111 -1.5494  0.1453
  484MOL0     H63850   7.501   6.964   1.374  0.2350  2.1851 -3.1631
  484MOL0     H63851   7.690   7.091   1.296  0.4573 -1.1720  0.1541
  484MOL0     H63852   7.974   7.443   1.418 -1.0155 -0.6975  0.3539
  484MOL0     H63853   8.152   7.596   1.315  1.2624 -0.4340 -0.6224
  484MOL0     H63854   8.530   7.385   1.197  0.9375  0.1448 -0.2919
  484MOL0     H63855   8.600   7.482   1.329  0.1155  1.2508  0.2920
  484MOL0     H63856   8.564   7.681   1.163  1.9025 -0.2614 -0.9257
  484MOL0     H63857   8.530   7.551   1.041  1.2558  1.3976 -0.8438
  484MOL0     H63858   8.757   7.496   1.034  0.0835  0.0737  0.2620
  484MOL0     H63859   8.794   7.542   1.188 -0.9769 -4.7642 -2.2620
  484MOL0     H63860   8.687   7.742   0.971 -0.9940 -2.1044 -1.6061
  484MOL0     H63861   8.772   7.792   1.117 -1.9095  0.4050 -1.0475
  484MOL0     H63862   8.896   7.626   0.894  1.5049 -0.0025  0.7390
  484MOL0     H63863   8.970   7.668   1.048 -1.7802 -2.2917  0.9695
  484MOL0     H63864   8.958   7.913   0.986  0.3892 -1.0625  0.3876
  484MOL0     H63865   8.839   7.884   0.859 -1.5420  1.0657  0.6778
  484MOL0     H63866   9.122   7.764   0.831  0.0272 -0.3856 -0.6721
  484MOL0     H63867   9.002   7.820   0.706 -0.4936 -4.8500  0.5309
  484MOL0     H63868   9.213   7.970   0.763 -0.5484 -1.4087 -1.2267
  484MOL0     H63869   9.143   8.011   0.915  3.2522 -2.6591  0.8406
  484MOL0     H63870   8.439   7.276   1.393  0.6660  2.0724 -2.3513
  484MOL0     H63871   8.254   7.148   1.498  0.4876 -0.0954  0.4176
  484MOL0     H63872   7.891   7.040   1.673 -0.5230  0.5217  1.9876
  484MOL0     H63873   7.695   6.948   1.764  3.8862 -0.6837 -0.6339
  484MOL0     H63874   5.649   6.616   1.469 -0.5434  1.3399  0.9062
  484MOL0     H63875   5.454   6.486   1.405 -2.8863 -0.5747 -1.6478
  484MOL0     H63876   5.183   6.433   0.991  1.7692  0.1896  0.1741
  484MOL0     H63877   4.987   6.378   0.879  5.4165 -0.8997 -0.6075
  484MOL0     H63878   4.615   6.301   1.130  1.7995  2.9436  0.1902
  484MOL0     H63879   4.675   6.155   1.068  0.6153  2.5913  4.0684
  484MOL0     H63880   4.535   6.371   0.885  0.0452 -0.0420  1.9476
  484MOL0     H63881   4.571   6.199   0.844 -0.0335  0.2969 -0.2319
  484MOL0     H63882   4.419   6.131   1.031 -1.0325 -0.8520 -1.5275
  484MOL0     H63883   4.360   6.166   0.881 -1.8277 -1.1012  2.1845
  484MOL0     H63884   4.361   6.355   1.117  2.6098 -2.3087 -0.2192
  484MOL0     H63885   4.279   6.394   0.958  0.9788 -2.1514 -1.6979
  484MOL0     H63886   4.074   6.096   1.182  2.3746 -1.2979 -1.2281
  484MOL0     H63887   4.793   6.317   1.255 -1.3512 -2.2184 -2.5515
  484MOL0     H63888   4.976   6.395   1.366  0.4990  1.0256 -0.1226
  485MOL0     O63889   5.670   3.145  10.395 -0.5567 -0.5589  0.6537
  485MOL0     C63890   5.687   3.267  10.410  0.2897 -0.1494  0.2540
  485MOL0     O63891   5.736   3.348  10.312  0.2531  0.1437  0.0667
  485MOL0     C63892   5.767   3.300  10.189 -0.1362 -0.2966  1.0295
  485MOL0     C63893   5.883   3.347  10.126  1.1864  0.1502 -0.0105
  485MOL0     C63894   5.911   3.304   9.992  0.2924  0.5198 -0.6231
  485MOL0     C63895   5.809   3.224   9.926  0.0108  0.1943 -0.5280
  485MOL0     O63896   5.803   3.203   9.788 -0.2108 -0.1176 -0.0637
  485MOL0     C63897   5.864   3.303   9.700  0.0456  0.3496 -0.2595
  485MOL0     C63898   5.797   3.296   9.560  0.2745  0.1141 -0.3104
  485MOL0     C63899   5.648   3.283   9.567 -1.0316 -0.0515  0.0515
  485MOL0     C63900   5.592   3.280   9.428 -0.4096  0.2945  0.0226
  485MOL0     C63901   5.452   3.226   9.440  1.0211  0.3678  0.9969
  485MOL0     C63902   5.382   3.233   9.305  0.6881 -1.0264 -0.0919
  485MOL0     C63903   5.249   3.156   9.298  0.5946  0.1844 -0.6312
  485MOL0     C63904   5.131   3.250   9.297  0.0995  0.8080 -0.2323
  485MOL0     N63905   5.009   3.175   9.295  0.2257  0.4086 -0.7580
  485MOL0     C63906   4.942   3.123   9.183  1.3792  0.0787 -1.0028
  485MOL0     C63907   4.840   3.054   9.237  0.9839  0.1347 -0.6216
  485MOL0     C63908   4.745   2.960   9.152 -0.0065 -0.0859  0.1551
  485MOL0     C63909   4.671   3.018   9.037  0.5697  0.4935  0.5814
  485MOL0     C63910   4.615   2.899   8.952 -0.1473 -0.2311  0.1210
  485MOL0     C63911   4.519   2.960   8.842  0.8231  0.3978 -0.1038
  485MOL0     O63912   4.584   3.036   8.737  0.3544 -0.5936 -0.8003
  485MOL0     C63913   4.522   3.038   8.609 -0.0868  0.3810 -0.7829
  485MOL0     C63914   4.599   3.018   8.496 -0.1433 -0.2428  1.4464
  485MOL0     C63915   4.557   3.052   8.367  0.1267  0.0649 -0.0529
  485MOL0     C63916   4.423   3.100   8.347  0.5740  1.0231  0.0991
  485MOL0     C63917   4.382   3.139   8.208  0.4350 -0.1136 -1.8376
  485MOL0     O63918   4.461   3.097   8.113  0.3411  0.1086  0.1952
  485MOL0     C63919   4.429   3.133   7.980 -0.2542 -0.3313 -0.2419
  485MOL0     C63920   4.424   3.266   7.929 -0.0502  0.9007 -0.2921
  485MOL0     C63921   4.381   3.302   7.809 -0.0563  0.4135 -0.2455
  485MOL0     C63922   4.335   3.201   7.725  0.7790  0.9877  0.0575
  485MOL0     O63923   4.264   3.224   7.608 -0.9873 -0.4997  0.1601
  485MOL0     C63924   4.207   3.356   7.587  0.3066  0.1576  0.6028
  485MOL0     C63925   4.112   3.364   7.462 -0.1995  0.6730  0.0525
  485MOL0     C63926   4.062   3.497   7.443  0.9255 -0.1558  0.3838
  485MOL0     C63927   3.943   3.493   7.345  0.2222 -0.6496  0.1795
  485MOL0     C63928   3.987   3.475   7.198  0.5048  0.2559 -0.0705
  485MOL0     C63929   3.867   3.479   7.099  0.2417  0.1293 -0.8489
  485MOL0     C63930   3.793   3.342   7.100 -0.0942 -0.0928  0.8514
  485MOL0     C63931   3.668   3.344   7.007 -0.1260 -0.0971 -0.0045
  485MOL0    Cl63932   3.728   3.350   6.837 -0.0248  0.5843  0.2131
  485MOL0     C63933   4.335   3.068   7.760 -0.5913  0.2941  0.1435
  485MOL0     C63934   4.382   3.034   7.891  0.1613  0.1798 -0.3164
  485MOL0     O63935   4.270   3.189   8.195  0.0371  0.3386 -1.2327
  485MOL0     C63936   4.340   3.105   8.463 -0.2634 -0.6063  0.2640
  485MOL0     C63937   4.399   3.077   8.587  0.6973 -0.4525  0.6885
  485MOL0     N63938   4.836   3.067   9.371 -0.1126  0.3625  0.0505
  485MOL0     N63939   4.937   3.136   9.400 -0.4099  0.5515  0.0158
  485MOL0     C63940   5.694   3.186   9.994  0.4234 -0.1589  0.5753
  485MOL0     C63941   5.667   3.230  10.124  0.4329 -0.6325 -0.3990
  485MOL0     C63942   5.673   3.319  10.552 -0.1027 -0.8387  0.1651
  485MOL0     C63943   5.682   3.452  10.579  0.1207 -0.5486 -0.0655
  485MOL0     C63944   5.683   3.499  10.710  0.3582  0.5669  0.2959
  485MOL0     C63945   5.691   3.411  10.817 -0.4680 -0.0772 -0.3846
  485MOL0     O63946   5.720   3.442  10.941 -0.3578  0.3833  0.2360
  485MOL0     C63947   5.611   3.504  11.013 -0.3905  0.5775 -0.1819
  485MOL0     C63948   5.655   3.520  11.165 -0.2294 -0.6635 -0.4806
  485MOL0     C63949   5.721   3.403  11.243  0.0924 -0.2098  0.1247
  485MOL0     C63950   5.799   3.445  11.362 -0.8058  0.0246  0.0502
  485MOL0     C63951   5.836   3.338  11.456  0.7010  0.5181 -0.1977
  485MOL0     C63952   5.857   3.235  11.521 -0.4318  0.6762 -0.5645
  485MOL0     C63953   5.695   3.274  10.790 -0.0592 -0.2178  0.0823
  485MOL0     C63954   5.681   3.229  10.653 -0.5141  0.3667 -0.3838
  485MOL0     H63955   5.942   3.410  10.191 -2.5214  1.0627  2.8231
  485MOL0     H63956   5.999   3.330   9.934  0.5475 -0.2540 -0.5807
  485MOL0     H63957   5.972   3.299   9.684  0.3095  0.9323  1.1837
  485MOL0     H63958   5.836   3.406   9.722  0.0212  0.6608 -1.6833
  485MOL0     H63959   5.836   3.213   9.500 -3.3039  1.0326 -4.4693
  485MOL0     H63960   5.834   3.378   9.497  1.3366 -2.5436 -3.4368
  485MOL0     H63961   5.603   3.366   9.623 -1.0230 -0.6731  1.0048
  485MOL0     H63962   5.606   3.198   9.623 -6.1967  1.8957 -0.3195
  485MOL0     H63963   5.599   3.380   9.383  1.2125  1.8467  3.3603
  485MOL0     H63964   5.645   3.208   9.364  1.5600  0.2369  1.6126
  485MOL0     H63965   5.397   3.294   9.506 -0.5912  1.8302 -1.6876
  485MOL0     H63966   5.463   3.119   9.462 -0.4343 -0.1220 -0.4071
  485MOL0     H63967   5.447   3.193   9.226 -2.6936 -1.6277 -2.7776
  485MOL0     H63968   5.356   3.338   9.289 -0.4358 -0.6249  3.4241
  485MOL0     H63969   5.236   3.102   9.204 -1.4537 -1.6618  0.6278
  485MOL0     H63970   5.248   3.098   9.391  2.1822 -0.1374 -0.7740
  485MOL0     H63971   5.135   3.313   9.207  0.1160  0.9389 -0.1402
  485MOL0     H63972   5.114   3.313   9.384  0.4776 -1.3734  1.5029
  485MOL0     H63973   4.961   3.129   9.077  1.5529 -0.8519 -1.0351
  485MOL0     H63974   4.681   2.915   9.229 -0.0438 -3.4308 -1.6425
  485MOL0     H63975   4.800   2.872   9.117 -4.2959 -1.9090 -2.9154
  485MOL0     H63976   4.739   3.081   8.979 -1.3438  1.6082 -0.5535
  485MOL0     H63977   4.581   3.074   9.065  0.3038  0.4931 -0.2531
  485MOL0     H63978   4.705   2.852   8.911  0.6717  1.3443  0.0218
  485MOL0     H63979   4.547   2.841   9.015 -1.2008  2.2888  1.4572
  485MOL0     H63980   4.433   3.008   8.891  0.5076  1.8478 -1.9575
  485MOL0     H63981   4.476   2.869   8.800 -1.5120  0.9257  0.9462
  485MOL0     H63982   4.705   2.993   8.503 -0.2672 -0.8248  1.2298
  485MOL0     H63983   4.630   3.046   8.287  1.4363  0.2870  1.0844
  485MOL0     H63984   4.458   3.343   7.998  2.1336 -0.4298  0.1905
  485MOL0     H63985   4.364   3.405   7.779 -3.9515  0.6373  2.0464
  485MOL0     H63986   4.288   3.430   7.581  1.7307 -1.3986 -0.0623
  485MOL0     H63987   4.138   3.380   7.669  0.7926  1.4540  0.6534
  485MOL0     H63988   4.038   3.286   7.478 -0.9286  1.9749  4.0813
  485MOL0     H63989   4.170   3.332   7.374  2.2636  0.0134  1.8070
  485MOL0     H63990   4.134   3.569   7.402 -1.9105  1.0546 -3.0246
  485MOL0     H63991   4.032   3.537   7.540 -0.3713  2.1592 -0.8831
  485MOL0     H63992   3.868   3.418   7.373  1.0310 -0.7837  2.1914
  485MOL0     H63993   3.895   3.591   7.356 -0.3664 -0.9115 -0.0373
  485MOL0     H63994   4.038   3.379   7.182 -0.2127  0.1492 -1.8287
  485MOL0     H63995   4.056   3.554   7.166  2.7135 -1.5193  0.0232
  485MOL0     H63996   3.915   3.491   7.001  1.9795 -0.8457 -0.1628
  485MOL0     H63997   3.798   3.561   7.122  1.8479  1.3670 -0.2585
  485MOL0     H63998   3.856   3.260   7.066  0.3387  1.5972 -2.9090
  485MOL0     H63999   3.755   3.328   7.202 -0.2789 -1.9289  0.5656
  485MOL0     H64000   3.618   3.440   7.024  2.8398  1.9621 -1.7866
  485MOL0     H64001   3.604   3.259   7.030  1.3751 -0.9615  1.1102
  485MOL0     H64002   4.304   2.987   7.695  3.4814 -0.0218 -1.7011
  485MOL0     H64003   4.391   2.932   7.928 -0.4259  0.6515  1.2300
  485MOL0     H64004   4.239   3.141   8.448  0.1016  0.3325  0.0127
  485MOL0     H64005   4.332   3.061   8.671  0.9331  1.2581  1.2231
  485MOL0     H64006   5.626   3.136   9.926  2.1351 -1.4098 -0.3135
  485MOL0     H64007   5.569   3.213  10.167  0.5854 -3.3633 -0.9255
  485MOL0     H64008   5.692   3.527  10.501  2.3913 -0.6813  0.0464
  485MOL0     H64009   5.684   3.606  10.728  3.4160  0.2169  3.1634
  485MOL0     H64010   5.523   3.439  11.004 -0.4377  0.7130 -0.7460
  485MOL0     H64011   5.595   3.604  10.974  1.7108  1.1360  0.2423
  485MOL0     H64012   5.734   3.596  11.165 -0.4653 -0.2142 -3.9962
  485MOL0     H64013   5.569   3.559  11.221 -0.6749 -2.7414  0.3652
  485MOL0     H64014   5.769   3.335  11.172 -1.7972 -1.8355  0.3034
  485MOL0     H64015   5.642   3.336  11.277 -2.2814  0.7973 -2.9283
  485MOL0     H64016   5.876   3.514  11.326 -0.3394  0.5834  2.0112
  485MOL0     H64017   5.741   3.511  11.427  2.7171  0.4236  3.0995
  485MOL0     H64018   5.882   3.136  11.552 -0.7170  0.1494 -1.9657
  485MOL0     H64019   5.717   3.203  10.870  3.8368  2.5375  1.8227
  485MOL0     H64020   5.690   3.122  10.635  3.2153  0.7723 -1.8192
  486MOL0     O64021   2.023  10.863   0.278  0.1458  0.0963 -0.0900
  486MOL0     C64022   1.931  10.940   0.305  0.2355  0.3592 -0.0466
  486MOL0     O64023   1.887  11.039   0.232 -0.2618  0.2169 -0.7236
  486MOL0     C64024   1.971  11.087   0.138 -0.5001 -0.5846  0.4043
  486MOL0     C64025   1.978  11.036   0.008 -0.3069  0.2785 -1.2824
  486MOL0     C64026   2.078  11.075  -0.083 -0.4340  0.5589  0.7136
  486MOL0     C64027   2.184  11.150  -0.036  0.1435 -0.9786 -0.5430
  486MOL0     O64028   2.304  11.171  -0.106  0.4347 -0.2812  0.2335
  486MOL0     C64029   2.365  11.056  -0.157  0.1860 -0.1865 -0.4962
  486MOL0     C64030   2.510  11.091  -0.185  0.3010  0.7520  0.4042
  486MOL0     C64031   2.539  11.208  -0.281  0.4390 -0.9393  0.1761
  486MOL0     C64032   2.680  11.229  -0.292 -0.8308  0.1787  0.1489
  486MOL0     C64033   2.726  11.345  -0.382 -0.3231  1.3793  0.4843
  486MOL0     C64034   2.702  11.289  -0.531  0.8428  0.2704  0.4298
  486MOL0     C64035   2.736  11.393  -0.644  0.0764 -0.6461 -1.0681
  486MOL0     C64036   2.640  11.513  -0.645 -0.1935 -0.1196  0.1676
  486MOL0     N64037   2.687  11.618  -0.730  0.3832  0.3005  1.3075
  486MOL0     C64038   2.721  11.597  -0.863 -0.5278 -0.8966  0.5543
  486MOL0     C64039   2.753  11.724  -0.897  0.0123 -0.0217  0.0978
  486MOL0     C64040   2.783  11.757  -1.047  0.0541 -0.3517  0.2874
  486MOL0     C64041   2.657  11.809  -1.119  0.6802 -0.2177 -0.3777
  486MOL0     C64042   2.628  11.953  -1.077 -0.9236  0.2049  0.2782
  486MOL0     C64043   2.545  12.029  -1.178 -0.1201  0.2884 -0.6327
  486MOL0     O64044   2.406  11.979  -1.200 -0.2004 -0.7411 -0.8047
  486MOL0     C64045   2.310  12.063  -1.249 -0.6966 -0.0801  0.0236
  486MOL0     C64046   2.330  12.189  -1.306  0.2579 -0.0277  0.5252
  486MOL0     C64047   2.228  12.275  -1.346 -0.3976 -0.4485  0.4973
  486MOL0     C64048   2.096  12.233  -1.333 -0.2126 -0.9173  0.4924
  486MOL0     C64049   1.978  12.322  -1.367  0.0105  0.9887  1.0692
  486MOL0     O64050   1.853  12.278  -1.346  0.3732  0.0122  0.1000
  486MOL0     C64051   1.755  12.336  -1.416  0.7561 -0.0522 -0.4577
  486MOL0     C64052   1.699  12.460  -1.383 -0.2071 -0.2756  0.0648
  486MOL0     C64053   1.586  12.526  -1.454 -0.0083 -0.5626 -0.3956
  486MOL0     C64054   1.529  12.454  -1.566 -0.1785  0.3429  0.9150
  486MOL0     O64055   1.416  12.510  -1.622  0.0381 -0.8906  0.3191
  486MOL0     C64056   1.443  12.617  -1.720  0.8051  0.0155 -0.0818
  486MOL0     C64057   1.443  12.547  -1.860 -0.0475  0.3492 -0.5920
  486MOL0     C64058   1.341  12.442  -1.891 -0.0138 -0.1631 -0.3686
  486MOL0     C64059   1.210  12.523  -1.877  0.7123  0.4528  0.3109
  486MOL0     C64060   1.104  12.445  -1.964 -0.6217 -0.2126 -0.0868
  486MOL0     C64061   1.050  12.318  -1.908 -0.4801  0.5424 -0.0173
  486MOL0     C64062   0.913  12.281  -1.971 -0.6781 -0.6136 -0.6568
  486MOL0     C64063   0.814  12.214  -1.876 -0.7035 -0.9750 -0.1232
  486MOL0    Cl64064   0.659  12.194  -1.970 -0.1705  0.1596 -0.0290
  486MOL0     C64065   1.588  12.336  -1.608 -0.4954 -0.4563  0.7933
  486MOL0     C64066   1.688  12.270  -1.527 -0.1316 -0.0297  0.7741
  486MOL0     O64067   2.007  12.424  -1.424 -0.3189 -0.0081 -0.8995
  486MOL0     C64068   2.079  12.104  -1.280 -0.3811  0.5004  0.8316
  486MOL0     C64069   2.182  12.024  -1.228 -0.0651 -0.0749 -0.2375
  486MOL0     N64070   2.752  11.812  -0.786 -0.1605  0.3102 -0.2130
  486MOL0     N64071   2.715  11.745  -0.687 -0.1980 -0.8191 -0.6008
  486MOL0     C64072   2.186  11.210   0.091  0.7064  0.2334 -0.8764
  486MOL0     C64073   2.077  11.174   0.178 -0.1747  0.0663 -0.3496
  486MOL0     C64074   1.859  10.900   0.424  0.7111  1.2968 -0.4369
  486MOL0     C64075   1.868  10.762   0.474  0.5180 -0.3091 -0.4395
  486MOL0     C64076   1.800  10.727   0.594  0.1125  0.2032  0.8522
  486MOL0     C64077   1.715  10.820   0.661  0.0700  0.2740  0.1732
  486MOL0     O64078   1.659  10.786   0.780  0.5232  0.3704  0.0452
  486MOL0     C64079   1.517  10.801   0.796  1.2824  0.1882  0.0837
  486MOL0     C64080   1.435  10.679   0.806 -0.0173 -0.4959 -0.0213
  486MOL0     C64081   1.285  10.707   0.832 -0.3897  0.0369  0.1500
  486MOL0     C64082   1.208  10.574   0.856  0.1655  0.2420  0.6539
  486MOL0     C64083   1.184  10.499   0.727 -0.0244  0.0334  0.8672
  486MOL0     C64084   1.169  10.434   0.624  0.2881 -0.2577  0.1034
  486MOL0     C64085   1.709  10.952   0.606 -0.4311 -0.8840  0.3335
  486MOL0     C64086   1.770  10.989   0.487 -0.0877  0.7150  0.0382
  486MOL0     H64087   1.902  10.961  -0.013 -1.5337  1.3560 -0.8099
  486MOL0     H64088   2.082  11.023  -0.178  1.1423  2.2093 -0.1728
  486MOL0     H64089   2.330  11.028  -0.256 -0.4163  0.7816 -0.5753
  486MOL0     H64090   2.352  10.973  -0.087 -0.8813 -0.5483 -1.0988
  486MOL0     H64091   2.559  11.000  -0.220  1.9889  2.2417 -1.3621
  486MOL0     H64092   2.547  11.123  -0.087 -3.6737  4.5277  0.9531
  486MOL0     H64093   2.501  11.306  -0.250  0.4111  0.3990 -3.6281
  486MOL0     H64094   2.483  11.193  -0.374 -1.8457  3.4890  0.5782
  486MOL0     H64095   2.733  11.241  -0.198  1.8420 -3.4448 -0.6857
  486MOL0     H64096   2.730  11.138  -0.326  0.3445  0.4776  1.0362
  486MOL0     H64097   2.832  11.355  -0.356  0.7077 -1.7939 -1.8479
  486MOL0     H64098   2.667  11.436  -0.364 -0.4873  1.1008  1.3600
  486MOL0     H64099   2.601  11.247  -0.540  1.4156 -0.7997 -1.7644
  486MOL0     H64100   2.747  11.191  -0.552 -1.8614 -0.3959 -3.2798
  486MOL0     H64101   2.837  11.435  -0.635  0.8417 -2.5649 -0.1973
  486MOL0     H64102   2.740  11.341  -0.740  0.0196 -2.9084  0.0795
  486MOL0     H64103   2.615  11.560  -0.549  0.0888 -0.6449  0.5067
  486MOL0     H64104   2.541  11.487  -0.682  1.0533 -0.1708 -3.6064
  486MOL0     H64105   2.719  11.504  -0.918 -3.4328  0.3298 -1.6457
  486MOL0     H64106   2.832  11.673  -1.096  0.0498 -0.5606  0.6369
  486MOL0     H64107   2.869  11.824  -1.058  0.5084 -1.3021 -3.4699
  486MOL0     H64108   2.583  11.735  -1.088  0.7753  0.4478  1.5134
  486MOL0     H64109   2.673  11.808  -1.228 -0.2594  2.4426 -0.5936
  486MOL0     H64110   2.569  11.940  -0.985 -0.0183  1.2584  1.0378
  486MOL0     H64111   2.723  12.005  -1.064 -0.5460 -0.4357  0.0841
  486MOL0     H64112   2.600  12.041  -1.272  0.2020  0.5487 -0.4144
  486MOL0     H64113   2.531  12.127  -1.130  0.0142  1.5277 -2.9882
  486MOL0     H64114   2.432  12.225  -1.321  0.8962 -1.9670 -0.2120
  486MOL0     H64115   2.253  12.372  -1.388 -1.5539 -0.4684 -0.2768
  486MOL0     H64116   1.739  12.522  -1.303 -2.5964  0.6897  0.6006
  486MOL0     H64117   1.548  12.622  -1.420  0.9628 -1.1644  2.6819
  486MOL0     H64118   1.538  12.659  -1.686  0.9641 -2.0728  2.3747
  486MOL0     H64119   1.367  12.696  -1.724  0.7789 -0.0565 -2.6443
  486MOL0     H64120   1.539  12.496  -1.871  1.5564  2.9894  0.0919
  486MOL0     H64121   1.446  12.625  -1.937  4.3901 -1.7803 -2.9076
  486MOL0     H64122   1.338  12.353  -1.828  1.4479  1.7801  2.6873
  486MOL0     H64123   1.337  12.413  -1.996 -2.5907 -0.2571 -0.2976
  486MOL0     H64124   1.172  12.518  -1.775 -3.0668 -0.0379 -0.9783
  486MOL0     H64125   1.204  12.625  -1.915 -2.8423 -0.2428 -1.4196
  486MOL0     H64126   1.143  12.430  -2.064  1.1710 -0.6778  0.6424
  486MOL0     H64127   1.019  12.513  -1.976 -1.1227 -0.9716 -0.9024
  486MOL0     H64128   1.058  12.313  -1.799  0.0347 -0.6099 -0.0942
  486MOL0     H64129   1.116  12.238  -1.942 -0.5433 -0.3991  1.9204
  486MOL0     H64130   0.865  12.366  -2.020 -0.5031 -1.5232 -2.5359
  486MOL0     H64131   0.937  12.205  -2.047  0.6629 -0.3173 -0.5614
  486MOL0     H64132   0.796  12.267  -1.782  1.3425 -2.1837  1.0243
  486MOL0     H64133   0.851  12.117  -1.844  3.3690 -0.1789 -1.7998
  486MOL0     H64134   1.550  12.289  -1.698 -1.0434  0.1161  0.7147
  486MOL0     H64135   1.716  12.166  -1.542 -0.6448 -0.1712  0.7842
  486MOL0     H64136   1.976  12.069  -1.285  0.1236 -1.6416  3.2813
  486MOL0     H64137   2.165  11.941  -1.160  1.0721  1.9598  2.7213
  486MOL0     H64138   2.261  11.278   0.128  3.4222 -2.8620 -0.2805
  486MOL0     H64139   2.081  11.214   0.279 -1.8558 -3.5575  1.3383
  486MOL0     H64140   1.932  10.693   0.420 -0.1728 -3.2233  2.1487
  486MOL0     H64141   1.810  10.628   0.636 -2.7299 -0.1211  0.9821
  486MOL0     H64142   1.484  10.856   0.707  2.3226  0.5068 -0.1208
  486MOL0     H64143   1.496  10.867   0.881  0.4455 -1.5887  1.3301
  486MOL0     H64144   1.444  10.628   0.710 -2.0573 -0.6419 -0.1656
  486MOL0     H64145   1.486  10.624   0.886 -0.5368  2.0924  2.2361
  486MOL0     H64146   1.243  10.750   0.740 -2.8668 -0.0684  1.1408
  486MOL0     H64147   1.279  10.778   0.915  1.9480 -1.2204  1.4739
  486MOL0     H64148   1.246  10.521   0.943 -1.1562 -0.8557  0.5889
  486MOL0     H64149   1.105  10.596   0.884 -0.4703  1.5277 -2.2808
  486MOL0     H64150   1.159  10.394   0.525 -0.5161  2.1154 -0.8335
  486MOL0     H64151   1.659  11.029   0.665  1.1609  0.7683 -0.3689
  486MOL0     H64152   1.744  11.086   0.444 -2.2369  0.3860  0.4818
  487MOL0     O64153   9.738   3.313   7.703 -0.3925 -0.3088  0.3355
  487MOL0     C64154   9.788   3.424   7.676 -1.8190 -0.6685 -1.3555
  487MOL0     O64155   9.737   3.512   7.587 -0.0397 -0.6282 -0.1647
  487MOL0     C64156   9.604   3.502   7.558  0.6614  0.6664 -0.2654
  487MOL0     C64157   9.526   3.608   7.606 -0.1420 -0.6951  0.0868
  487MOL0     C64158   9.389   3.603   7.596 -0.0750 -0.1318 -0.4860
  487MOL0     C64159   9.321   3.497   7.526  0.1675 -0.5841 -0.3208
  487MOL0     O64160   9.189   3.477   7.498 -0.9021 -0.1813 -0.5678
  487MOL0     C64161   9.089   3.579   7.528 -0.3644  1.1083 -0.1614
  487MOL0     C64162   9.114   3.719   7.478 -0.7778 -0.2315 -0.8943
  487MOL0     C64163   8.983   3.791   7.481  0.4642 -0.0354 -0.3675
  487MOL0     C64164   8.945   3.812   7.622  1.4572 -0.4235 -0.2418
  487MOL0     C64165   8.842   3.926   7.634  0.3698  0.5005 -0.5536
  487MOL0     C64166   8.780   3.926   7.774 -0.1386  0.4705 -0.2119
  487MOL0     C64167   8.662   3.824   7.796  0.3431  0.3013  0.0298
  487MOL0     C64168   8.600   3.834   7.940 -0.9239  0.4580  0.4549
  487MOL0     N64169   8.474   3.757   7.935 -0.8133 -0.1833  1.0446
  487MOL0     C64170   8.365   3.790   7.863 -0.0377  0.0272  0.5464
  487MOL0     C64171   8.274   3.707   7.914 -0.6163  1.1470  0.1744
  487MOL0     C64172   8.128   3.701   7.883  0.0862  0.0757  0.3848
  487MOL0     C64173   8.073   3.571   7.819 -0.3265  0.4869  0.5456
  487MOL0     C64174   8.097   3.451   7.902 -0.4844 -0.0357 -0.2632
  487MOL0     C64175   8.042   3.463   8.044  0.0066  0.4913 -0.3099
  487MOL0     O64176   7.897   3.497   8.040 -0.7755  0.1050  0.1243
  487MOL0     C64177   7.831   3.561   8.140  1.1326  0.6264 -0.0364
  487MOL0     C64178   7.861   3.553   8.281 -0.8029  0.6217 -0.0207
  487MOL0     C64179   7.816   3.642   8.373  0.1286 -1.2787 -0.6946
  487MOL0     C64180   7.707   3.732   8.332 -0.1813  0.6764  0.5048
  487MOL0     C64181   7.628   3.815   8.418 -0.3467 -0.2412  0.0522
  487MOL0     O64182   7.526   3.892   8.365  0.8645  0.2461  0.2145
  487MOL0     C64183   7.500   4.008   8.428  1.8344 -1.3031  0.1108
  487MOL0     C64184   7.560   4.122   8.373 -0.2210 -0.0848  0.3415
  487MOL0     C64185   7.541   4.249   8.421 -0.9703  0.1163 -1.5776
  487MOL0     C64186   7.443   4.264   8.529  0.4790  1.0844  0.9256
  487MOL0     O64187   7.407   4.389   8.569 -0.7502  0.2846  0.7569
  487MOL0     C64188   7.495   4.440   8.666  0.3267  0.4890  0.0994
  487MOL0     C64189   7.487   4.590   8.664 -0.5262  0.0814  0.2345
  487MOL0     C64190   7.364   4.647   8.735  1.7083  0.7054  0.2158
  487MOL0     C64191   7.362   4.803   8.742  0.5662 -0.4703 -0.0461
  487MOL0     C64192   7.233   4.875   8.794  0.0698  0.2771 -0.7427
  487MOL0     C64193   7.219   5.032   8.768  0.2402 -0.3767  0.4488
  487MOL0     C64194   7.097   5.089   8.844 -0.4246 -0.4457  0.4869
  487MOL0     C64195   7.076   5.234   8.808  0.0974  0.0647 -0.1120
  487MOL0    Cl64196   6.947   5.311   8.897  0.1462  0.0305 -0.0433
  487MOL0     C64197   7.379   4.145   8.579  0.1737 -0.8260  0.3168
  487MOL0     C64198   7.409   4.019   8.528  1.0385  0.3898 -0.3747
  487MOL0     O64199   7.651   3.802   8.541 -0.2354  0.2363  0.3264
  487MOL0     C64200   7.662   3.719   8.194 -0.1385 -0.2537 -0.7313
  487MOL0     C64201   7.733   3.644   8.101 -0.2513  0.1887 -0.6806
  487MOL0     N64202   8.343   3.616   7.997  0.0223  0.1145  0.4105
  487MOL0     N64203   8.467   3.650   8.012  0.9778  1.6585 -0.4885
  487MOL0     C64204   9.407   3.391   7.483 -0.3861  0.7487  0.5340
  487MOL0     C64205   9.545   3.387   7.512 -0.3744 -0.8940  0.3507
  487MOL0     C64206   9.909   3.477   7.757  0.5277  0.6819  0.3013
  487MOL0     C64207   9.961   3.394   7.864 -0.6190 -0.9146  0.2991
  487MOL0     C64208  10.072   3.435   7.932 -0.6238 -0.5900 -0.8970
  487MOL0     C64209  10.136   3.560   7.911  0.2744 -0.3528  0.4103
  487MOL0     O64210  10.246   3.609   7.975 -0.5496  0.0851  0.0578
  487MOL0     C64211  10.360   3.531   7.976 -1.0284  0.2277  1.1178
  487MOL0     C64212  10.441   3.557   7.852 -0.4740  0.5762  0.5910
  487MOL0     C64213  10.516   3.694   7.871 -0.1188 -0.1183  0.2888
  487MOL0     C64214  10.446   3.821   7.802 -0.0186  0.3500 -0.1892
  487MOL0     C64215  10.476   3.821   7.663  0.0339 -0.5592 -0.3803
  487MOL0     C64216  10.478   3.851   7.543 -0.2265 -0.1271 -0.4582
  487MOL0     C64217  10.081   3.650   7.816 -0.1809 -0.5880  0.4009
  487MOL0     C64218   9.968   3.607   7.740 -0.3653  0.4039  0.8409
  487MOL0     H64219   9.575   3.689   7.660 -3.9839  2.3806 -0.4993
  487MOL0     H64220   9.345   3.682   7.656 -0.8390 -0.9488  0.0737
  487MOL0     H64221   9.068   3.577   7.635 -0.1485  3.6884 -0.0097
  487MOL0     H64222   8.995   3.562   7.475  0.2396  0.3276 -1.0145
  487MOL0     H64223   9.147   3.722   7.374 -1.9717  0.9837 -1.2652
  487MOL0     H64224   9.194   3.774   7.527 -3.3758  0.8109  2.5636
  487MOL0     H64225   8.901   3.752   7.421 -0.0645 -0.4043  0.5726
  487MOL0     H64226   8.986   3.893   7.442  0.0377 -0.4140 -1.4187
  487MOL0     H64227   8.891   3.724   7.659 -2.0564  2.1767  1.3919
  487MOL0     H64228   9.025   3.831   7.694 -0.2167 -1.1893  1.9232
  487MOL0     H64229   8.769   3.919   7.552  1.8061 -1.3239 -1.7709
  487MOL0     H64230   8.900   4.017   7.619 -1.4078  2.0890  1.5840
  487MOL0     H64231   8.754   4.027   7.810 -0.7071 -0.3563  1.8289
  487MOL0     H64232   8.858   3.888   7.841 -0.9185  0.1629  0.5411
  487MOL0     H64233   8.581   3.849   7.728 -2.2429 -2.2726  1.8650
  487MOL0     H64234   8.697   3.726   7.762  0.3094  0.5927 -0.8637
  487MOL0     H64235   8.571   3.939   7.950 -1.6959  0.2648  0.2889
  487MOL0     H64236   8.677   3.800   8.010  0.7258 -0.1521 -1.5466
  487MOL0     H64237   8.344   3.872   7.794 -1.7284  1.5690  2.7528
  487MOL0     H64238   8.102   3.781   7.813  1.5640  0.1179 -0.1631
  487MOL0     H64239   8.062   3.718   7.968 -1.2366  2.4297 -1.0036
  487MOL0     H64240   8.131   3.551   7.729  0.1333  0.5318  0.8286
  487MOL0     H64241   7.966   3.579   7.801 -0.1905  1.0682 -0.0597
  487MOL0     H64242   8.052   3.363   7.855  1.9977 -1.9937  0.7910
  487MOL0     H64243   8.205   3.433   7.905 -0.7576 -1.7736  1.2320
  487MOL0     H64244   8.082   3.542   8.108 -1.0186  0.5708  0.2672
  487MOL0     H64245   8.053   3.367   8.095 -1.3076  0.2748 -0.3836
  487MOL0     H64246   7.935   3.477   8.303 -1.4500  0.0144  0.0732
  487MOL0     H64247   7.867   3.637   8.468 -0.4462 -1.2758 -0.3790
  487MOL0     H64248   7.617   4.115   8.280 -3.2310  0.1839 -1.6703
  487MOL0     H64249   7.589   4.340   8.386  0.1438  0.0483 -0.3034
  487MOL0     H64250   7.600   4.414   8.655  0.6077 -0.0904  3.2065
  487MOL0     H64251   7.457   4.398   8.760 -1.4986 -0.4465 -0.9951
  487MOL0     H64252   7.488   4.628   8.562 -2.9533 -0.5318 -0.0829
  487MOL0     H64253   7.579   4.628   8.710  0.3876 -0.4090 -1.1333
  487MOL0     H64254   7.360   4.621   8.841  1.5348 -1.3784 -0.2585
  487MOL0     H64255   7.269   4.613   8.693  1.6523 -3.2187  3.0181
  487MOL0     H64256   7.432   4.829   8.822 -3.8281  2.9113  3.2426
  487MOL0     H64257   7.391   4.856   8.651 -0.0460  2.7065  1.4622
  487MOL0     H64258   7.220   4.859   8.902 -1.2121  0.6890 -0.8144
  487MOL0     H64259   7.144   4.830   8.748  0.3791 -2.3446  0.9906
  487MOL0     H64260   7.206   5.047   8.660 -3.5719 -0.0362  0.8537
  487MOL0     H64261   7.310   5.083   8.801  0.7001  1.0261 -2.6758
  487MOL0     H64262   7.011   5.041   8.796 -0.6158  0.5802 -0.2220
  487MOL0     H64263   7.094   5.072   8.952  0.7642 -0.6456  0.5056
  487MOL0     H64264   7.048   5.237   8.702 -1.6151 -0.7465  0.2743
  487MOL0     H64265   7.172   5.285   8.818 -1.0456  2.6280 -1.2625
  487MOL0     H64266   7.306   4.170   8.655 -1.0995  1.7490 -1.5841
  487MOL0     H64267   7.353   3.930   8.553 -2.1870  2.2961 -0.3095
  487MOL0     H64268   7.574   3.773   8.161  0.1712  0.8545  0.1975
  487MOL0     H64269   7.702   3.628   7.999  0.4756  1.1765 -1.0745
  487MOL0     H64270   9.356   3.310   7.432  2.0833  0.9257 -2.5260
  487MOL0     H64271   9.604   3.307   7.469  4.2930  3.3149 -2.0805
  487MOL0     H64272   9.912   3.297   7.870  0.7006 -1.6109  0.2532
  487MOL0     H64273  10.127   3.385   8.012  2.7602  2.3467 -1.1417
  487MOL0     H64274  10.340   3.424   7.982 -0.6932  0.1568  0.9791
  487MOL0     H64275  10.420   3.558   8.063 -1.9765  0.9557  1.5711
  487MOL0     H64276  10.511   3.474   7.833  0.5543  2.1116 -3.5121
  487MOL0     H64277  10.374   3.560   7.765  2.1361  1.8756 -1.5213
  487MOL0     H64278  10.622   3.684   7.843  0.3625 -1.3354  2.3260
  487MOL0     H64279  10.519   3.714   7.979  0.0483  3.0011 -0.1878
  487MOL0     H64280  10.337   3.818   7.817  0.1016  1.3335  1.0698
  487MOL0     H64281  10.490   3.911   7.848  2.6397 -1.1358  0.3783
  487MOL0     H64282  10.479   3.890   7.443  4.0515  0.9902 -0.1981
  487MOL0     H64283  10.119   3.741   7.771 -0.3614 -1.7965 -2.4060
  487MOL0     H64284   9.940   3.672   7.658 -0.3372  1.8771  1.9709
  488MOL0     O64285   0.177   4.021   7.852  0.1359  0.1233 -0.1448
  488MOL0     C64286   0.195   3.915   7.794  0.6949 -0.0342 -1.2204
  488MOL0     O64287   0.225   3.899   7.665  0.2180 -0.1730  0.6441
  488MOL0     C64288   0.245   4.016   7.584 -0.4416  0.5365 -0.5268
  488MOL0     C64289   0.169   4.060   7.480 -1.1278  0.0084  0.0834
  488MOL0     C64290   0.196   4.184   7.415  0.1087  0.1553 -0.3146
  488MOL0     C64291   0.307   4.254   7.445 -0.4008 -0.6107  0.4800
  488MOL0     O64292   0.336   4.357   7.367 -0.7177  0.0287 -0.6128
  488MOL0     C64293   0.235   4.439   7.304  0.5570  0.5753 -0.2582
  488MOL0     C64294   0.290   4.576   7.273 -0.4055  0.2285  0.0095
  488MOL0     C64295   0.411   4.582   7.169 -0.0645  0.2762  0.6894
  488MOL0     C64296   0.376   4.546   7.023  0.5771  0.1273  0.4389
  488MOL0     C64297   0.488   4.562   6.914  0.4823  0.2806 -0.4902
  488MOL0     C64298   0.554   4.708   6.904  0.0069 -0.2379 -0.7143
  488MOL0     C64299   0.659   4.685   6.803  0.3619  0.0049  0.4905
  488MOL0     C64300   0.730   4.812   6.760 -0.9700 -0.5291  0.6499
  488MOL0     N64301   0.858   4.788   6.696  0.1167 -0.3956 -0.2741
  488MOL0     C64302   0.882   4.794   6.558  0.8890 -0.1065 -0.0315
  488MOL0     C64303   1.016   4.818   6.538 -0.0111  0.5043 -0.1779
  488MOL0     C64304   1.082   4.836   6.404 -0.7719  0.5136  0.3983
  488MOL0     C64305   1.239   4.800   6.423  0.1143  0.3973 -0.6352
  488MOL0     C64306   1.291   4.805   6.282 -1.0979  0.4646  0.3277
  488MOL0     C64307   1.439   4.759   6.291  0.5030 -0.0237  0.3258
  488MOL0     O64308   1.482   4.762   6.152 -0.1596  0.1207 -0.2775
  488MOL0     C64309   1.615   4.749   6.130 -0.0330  0.1736  0.0566
  488MOL0     C64310   1.652   4.706   6.002  0.7362 -0.0948  0.1055
  488MOL0     C64311   1.779   4.661   5.964  0.2614 -0.4052 -0.7471
  488MOL0     C64312   1.882   4.669   6.056  0.8856 -0.2051  0.2829
  488MOL0     C64313   2.019   4.636   6.019  0.0968 -0.2395  0.2113
  488MOL0     O64314   2.025   4.554   5.907  0.1358 -0.4687 -0.2501
  488MOL0     C64315   2.135   4.482   5.881 -0.5637  1.2640 -0.4717
  488MOL0     C64316   2.234   4.423   5.969 -0.6504  0.7534 -1.2536
  488MOL0     C64317   2.359   4.365   5.932  0.8783 -0.5719  0.3838
  488MOL0     C64318   2.391   4.373   5.792 -0.6224  0.0962 -0.7987
  488MOL0     O64319   2.514   4.311   5.760 -0.2387 -0.5263  0.1022
  488MOL0     C64320   2.552   4.292   5.623 -0.6696 -0.3827  0.6083
  488MOL0     C64321   2.689   4.354   5.592  0.2022  0.0036  0.6416
  488MOL0     C64322   2.793   4.307   5.690 -0.2876  0.6874  0.0022
  488MOL0     C64323   2.910   4.402   5.682 -0.4732  0.3374 -0.3218
  488MOL0     C64324   2.991   4.384   5.549  0.3930 -1.0226 -0.5505
  488MOL0     C64325   3.064   4.254   5.525  0.3941 -0.2404  0.1986
  488MOL0     C64326   3.074   4.247   5.369 -0.4527 -0.0844 -0.1063
  488MOL0     C64327   3.179   4.135   5.339 -0.4880  0.5031  0.0728
  488MOL0    Cl64328   3.344   4.198   5.325 -0.0782 -0.7118 -0.3773
  488MOL0     C64329   2.290   4.412   5.704 -0.0240 -0.1110 -1.0205
  488MOL0     C64330   2.170   4.464   5.746  0.4515 -0.7382 -0.6237
  488MOL0     O64331   2.109   4.667   6.092  1.0905 -0.0756 -0.9854
  488MOL0     C64332   1.849   4.716   6.185  1.4837 -0.7459  0.6730
  488MOL0     C64333   1.720   4.752   6.217  0.2634 -0.0579  0.6011
  488MOL0     N64334   1.058   4.835   6.671  0.3435 -0.1943  0.0732
  488MOL0     N64335   0.974   4.815   6.758  1.0042 -0.4851 -0.1450
  488MOL0     C64336   0.385   4.213   7.553 -0.2610 -0.0746  1.2870
  488MOL0     C64337   0.347   4.104   7.625  0.0577 -0.2391 -0.3047
  488MOL0     C64338   0.175   3.789   7.884 -0.9242  0.3485 -0.6040
  488MOL0     C64339   0.183   3.668   7.822  0.6411  0.4776 -0.4448
  488MOL0     C64340   0.151   3.552   7.892 -0.2978 -0.5526  0.3192
  488MOL0     C64341   0.103   3.559   8.021 -0.8133  0.1647 -0.9418
  488MOL0     O64342   0.077   3.446   8.099 -0.0105 -0.1672  0.0958
  488MOL0     C64343   0.021   3.337   8.023 -1.2638 -0.3918  0.2567
  488MOL0     C64344  -0.094   3.276   8.102 -0.0291 -0.9243  0.0462
  488MOL0     C64345  -0.103   3.280   8.263 -0.4246  0.6263 -0.0783
  488MOL0     C64346  -0.005   3.193   8.338 -0.1295  0.0515  0.5395
  488MOL0     C64347  -0.039   3.054   8.347  0.3126  0.0932 -0.1110
  488MOL0     C64348  -0.077   2.943   8.335 -0.1875 -0.9931 -0.5325
  488MOL0     C64349   0.093   3.685   8.084  0.0507  0.5399 -0.3296
  488MOL0     C64350   0.118   3.800   8.012 -0.3510 -0.1614  0.7302
  488MOL0     H64351   0.071   4.015   7.470 -1.4742  0.8921 -0.7565
  488MOL0     H64352   0.127   4.220   7.340  0.4749  1.1200 -0.2091
  488MOL0     H64353   0.148   4.447   7.369 -0.2531  1.4036 -1.3986
  488MOL0     H64354   0.212   4.400   7.204  1.0542  1.5469 -0.7685
  488MOL0     H64355   0.297   4.633   7.367 -2.2187  1.4187 -0.5250
  488MOL0     H64356   0.208   4.628   7.221 -4.4929 -4.5329  0.9502
  488MOL0     H64357   0.485   4.507   7.197 -0.4758 -1.3858 -2.2895
  488MOL0     H64358   0.467   4.676   7.180  2.5199 -0.9735 -0.8735
  488MOL0     H64359   0.370   4.437   7.022  0.3611  0.1257 -0.9987
  488MOL0     H64360   0.278   4.583   6.989  1.1399  0.4269 -0.9312
  488MOL0     H64361   0.440   4.511   6.830 -0.9251 -3.9801  2.5145
  488MOL0     H64362   0.573   4.499   6.940 -0.0474 -0.3862 -0.3410
  488MOL0     H64363   0.608   4.736   6.995  2.2692  0.6435 -2.2281
  488MOL0     H64364   0.489   4.793   6.879  0.9339  0.2218 -1.6771
  488MOL0     H64365   0.734   4.616   6.843 -0.2505 -0.0505  1.5923
  488MOL0     H64366   0.618   4.639   6.712 -1.7017  0.5988  1.0675
  488MOL0     H64367   0.741   4.872   6.851  3.6985  1.5756 -0.9852
  488MOL0     H64368   0.662   4.870   6.696 -0.5214 -0.2540  0.4223
  488MOL0     H64369   0.804   4.782   6.483  1.3718 -0.8029 -0.4357
  488MOL0     H64370   1.082   4.941   6.375 -0.1268  0.0716 -1.3736
  488MOL0     H64371   1.030   4.776   6.328 -0.5955  0.7326  0.1004
  488MOL0     H64372   1.239   4.697   6.458  1.7545  0.3116 -0.7978
  488MOL0     H64373   1.291   4.874   6.485  1.0230  0.3148 -1.2867
  488MOL0     H64374   1.236   4.745   6.209  2.5004  0.3209 -2.5734
  488MOL0     H64375   1.292   4.909   6.248  4.1709  0.8639  0.8543
  488MOL0     H64376   1.434   4.658   6.334  2.1419  1.1297  3.5427
  488MOL0     H64377   1.495   4.811   6.370 -0.6042 -0.2976  1.3175
  488MOL0     H64378   1.580   4.695   5.922  1.9593  1.9491 -1.3896
  488MOL0     H64379   1.795   4.636   5.859 -0.9121  0.4175 -1.1340
  488MOL0     H64380   2.219   4.428   6.076  3.0479  0.6102 -0.6244
  488MOL0     H64381   2.431   4.313   5.995  1.4467 -2.1562 -1.4580
  488MOL0     H64382   2.481   4.341   5.556 -2.1154  1.8868  3.5723
  488MOL0     H64383   2.545   4.183   5.611  0.5836 -0.3534 -0.6367
  488MOL0     H64384   2.680   4.463   5.602  0.2500 -0.0224  0.9558
  488MOL0     H64385   2.721   4.322   5.492 -1.3904 -2.5948  0.8701
  488MOL0     H64386   2.830   4.209   5.659  0.8396  1.4800 -1.2677
  488MOL0     H64387   2.756   4.299   5.793 -0.6979  0.6112 -0.1498
  488MOL0     H64388   2.876   4.505   5.693  2.5996  1.2876  1.1593
  488MOL0     H64389   2.977   4.377   5.765 -3.0279 -2.0676  1.2199
  488MOL0     H64390   3.067   4.462   5.546 -1.3119  0.6584 -1.7429
  488MOL0     H64391   2.915   4.409   5.475 -1.7418  0.3522  1.9490
  488MOL0     H64392   3.021   4.166   5.575  1.7756  0.0803  2.0621
  488MOL0     H64393   3.158   4.260   5.581 -0.4332 -0.5590  1.7051
  488MOL0     H64394   2.976   4.214   5.335 -0.7524 -1.2123  1.7127
  488MOL0     H64395   3.111   4.334   5.314  0.8104 -0.1340  0.6161
  488MOL0     H64396   3.146   4.091   5.244 -1.2003 -1.2805  1.0984
  488MOL0     H64397   3.169   4.054   5.411 -0.8273  1.0893  0.6935
  488MOL0     H64398   2.296   4.397   5.596 -0.8904  0.0044 -1.0907
  488MOL0     H64399   2.104   4.502   5.668  1.0479  0.7531 -0.4495
  488MOL0     H64400   1.921   4.712   6.266  1.7561  1.8389  0.6406
  488MOL0     H64401   1.707   4.781   6.321  3.9480 -0.0263  1.1692
  488MOL0     H64402   0.479   4.261   7.579  0.1200 -1.1588  1.9312
  488MOL0     H64403   0.406   4.075   7.711  1.1552 -0.4966 -1.1222
  488MOL0     H64404   0.191   3.661   7.714  1.0933  1.2060 -0.4638
  488MOL0     H64405   0.172   3.455   7.849  1.2863  0.9893 -2.7116
  488MOL0     H64406   0.097   3.261   8.004 -2.1471 -1.6302  1.4205
  488MOL0     H64407  -0.018   3.370   7.926  0.0896 -0.9820 -0.5273
  488MOL0     H64408  -0.181   3.334   8.070 -1.8591 -3.2683  0.4968
  488MOL0     H64409  -0.102   3.172   8.069  0.6321 -0.2361 -2.4092
  488MOL0     H64410  -0.197   3.238   8.299  0.8630 -2.6199 -0.2067
  488MOL0     H64411  -0.091   3.380   8.306  0.5462 -0.1940  1.6901
  488MOL0     H64412   0.085   3.198   8.276 -1.0715 -2.9144 -1.2609
  488MOL0     H64413   0.033   3.232   8.433 -0.4153  1.3153  0.1535
  488MOL0     H64414  -0.105   2.840   8.333 -0.6394 -0.9290  1.0091
  488MOL0     H64415   0.053   3.679   8.185  0.1716 -1.0275 -0.3566
  488MOL0     H64416   0.108   3.897   8.060 -0.1555  0.8043 -1.0824
  489MOL0     O64417   4.778   7.023   7.867  0.1149 -0.2891  0.0900
  489MOL0     C64418   4.773   6.910   7.916  0.9147  0.6247 -0.7398
  489MOL0     O64419   4.731   6.799   7.853  0.5325  0.6778  0.3338
  489MOL0     C64420   4.679   6.791   7.728  0.9369 -0.4742 -0.0430
  489MOL0     C64421   4.586   6.890   7.670  0.0277 -0.2548  0.0018
  489MOL0     C64422   4.539   6.877   7.543 -0.4285 -0.2549  0.1449
  489MOL0     C64423   4.575   6.753   7.474  1.8746 -0.3371  0.3819
  489MOL0     O64424   4.516   6.717   7.352  0.5339 -1.0371 -0.6512
  489MOL0     C64425   4.399   6.786   7.304 -0.0290  0.1043 -0.0602
  489MOL0     C64426   4.351   6.740   7.165  0.5458 -0.7344  0.3555
  489MOL0     C64427   4.421   6.803   7.040  0.0861 -0.2869 -0.1749
  489MOL0     C64428   4.370   6.747   6.908  0.0719  0.4929 -0.4560
  489MOL0     C64429   4.459   6.787   6.784 -0.0203 -0.0608 -0.7569
  489MOL0     C64430   4.446   6.938   6.760  0.7839 -1.1261 -0.2616
  489MOL0     C64431   4.297   6.994   6.752 -0.8623  0.5623  0.6201
  489MOL0     C64432   4.304   7.138   6.689  0.7756  0.1437  0.3650
  489MOL0     N64433   4.168   7.175   6.623 -0.2946 -0.4191 -0.4245
  489MOL0     C64434   4.089   7.275   6.674  0.1592 -0.7699 -0.0090
  489MOL0     C64435   3.968   7.244   6.628  0.0634  0.2022  0.2771
  489MOL0     C64436   3.840   7.307   6.668 -0.4794 -0.2656  0.1143
  489MOL0     C64437   3.740   7.340   6.560 -0.7532  1.0997  0.2446
  489MOL0     C64438   3.639   7.234   6.535 -0.1243  0.9854  0.0563
  489MOL0     C64439   3.564   7.246   6.405 -0.0013  0.1269  0.5953
  489MOL0     O64440   3.480   7.134   6.379  0.1127  0.2290 -0.0405
  489MOL0     C64441   3.353   7.117   6.438 -0.1877 -0.5424 -0.1186
  489MOL0     C64442   3.286   7.002   6.409 -0.0457  0.1906  0.4675
  489MOL0     C64443   3.150   6.979   6.456  0.1439  0.1973  0.5874
  489MOL0     C64444   3.087   7.077   6.527 -0.3528  0.9341 -0.8087
  489MOL0     C64445   2.958   7.054   6.589  0.3043 -0.6017  0.0676
  489MOL0     O64446   2.923   6.926   6.598  0.6197 -0.7821  1.0196
  489MOL0     C64447   2.789   6.891   6.620  1.2403  0.5532  0.4004
  489MOL0     C64448   2.763   6.762   6.585 -0.3711  0.3817  0.8370
  489MOL0     C64449   2.639   6.707   6.578  0.9724 -0.3218 -1.1159
  489MOL0     C64450   2.521   6.792   6.596  0.2439  0.6325 -0.5761
  489MOL0     O64451   2.401   6.727   6.572  0.6832 -0.6474 -0.2577
  489MOL0     C64452   2.274   6.788   6.594  0.2151 -0.1768  0.3673
  489MOL0     C64453   2.177   6.684   6.656 -0.1794 -0.2200  0.0523
  489MOL0     C64454   2.023   6.726   6.640  0.4514 -0.3042  0.8481
  489MOL0     C64455   1.937   6.615   6.698  0.6475 -0.0006 -0.8803
  489MOL0     C64456   1.774   6.640   6.676 -0.5241  0.3788  0.3383
  489MOL0     C64457   1.685   6.527   6.735 -0.2740  0.7758 -0.0109
  489MOL0     C64458   1.525   6.555   6.724  0.8570  0.4435  0.3732
  489MOL0     C64459   1.447   6.421   6.724  0.5080 -0.5332 -0.8100
  489MOL0    Cl64460   1.488   6.341   6.890 -0.2115  0.1149  0.4666
  489MOL0     C64461   2.543   6.928   6.630  0.8222 -0.1502 -0.2584
  489MOL0     C64462   2.677   6.971   6.655  0.9899  1.0784  0.1092
  489MOL0     O64463   2.889   7.155   6.607  0.5005  0.4141  0.6321
  489MOL0     C64464   3.155   7.195   6.546  0.3742 -0.1678 -0.7099
  489MOL0     C64465   3.285   7.218   6.499  0.0515 -0.3073 -0.3100
  489MOL0     N64466   3.984   7.143   6.529 -0.0086 -0.3470 -0.6981
  489MOL0     N64467   4.105   7.108   6.526 -0.1929 -0.4382  0.0919
  489MOL0     C64468   4.665   6.667   7.520 -0.8260  0.2658 -0.3568
  489MOL0     C64469   4.715   6.682   7.648  0.0791 -0.8024  0.0002
  489MOL0     C64470   4.846   6.893   8.045 -0.2224  0.2693  0.6518
  489MOL0     C64471   4.864   6.766   8.101  0.3888 -0.0139 -1.4705
  489MOL0     C64472   4.914   6.751   8.233  0.0740 -1.0824 -0.5366
  489MOL0     C64473   4.946   6.867   8.313  0.1019 -1.1684  0.6884
  489MOL0     O64474   4.980   6.868   8.443  0.0578 -0.2176 -0.1867
  489MOL0     C64475   5.068   6.758   8.484 -0.4253  0.3931  0.8792
  489MOL0     C64476   4.971   6.660   8.559 -0.7804 -1.0957  0.3786
  489MOL0     C64477   4.897   6.725   8.674 -0.0555  1.2201 -0.5369
  489MOL0     C64478   4.772   6.802   8.639 -0.3986 -0.0783 -0.0751
  489MOL0     C64479   4.685   6.746   8.534  0.5615 -0.6851 -0.3635
  489MOL0     C64480   4.615   6.703   8.442  0.6999  0.3383  0.0756
  489MOL0     C64481   4.944   6.991   8.246  1.6449 -0.1856  1.1338
  489MOL0     C64482   4.902   7.000   8.117  1.0385  0.6578 -0.7774
  489MOL0     H64483   4.566   6.974   7.737  2.0876  0.6599 -0.4367
  489MOL0     H64484   4.470   6.956   7.516  1.8556  2.6665  2.2461
  489MOL0     H64485   4.429   6.892   7.304  0.3464  0.1514  3.6740
  489MOL0     H64486   4.317   6.784   7.377  0.3309  0.5085  0.3651
  489MOL0     H64487   4.245   6.760   7.148  0.3733 -2.7734 -1.4105
  489MOL0     H64488   4.371   6.633   7.151 -0.5036 -0.9175  0.1979
  489MOL0     H64489   4.525   6.771   7.054  0.9784  2.4201  0.1911
  489MOL0     H64490   4.410   6.912   7.046  0.4157 -0.1560 -1.5178
  489MOL0     H64491   4.382   6.639   6.920  2.7168  0.9319  1.8640
  489MOL0     H64492   4.268   6.781   6.891  0.4510  0.7327 -2.6322
  489MOL0     H64493   4.433   6.725   6.698 -0.1344 -1.0920  0.0122
  489MOL0     H64494   4.564   6.764   6.807 -0.6823 -0.2967  2.4431
  489MOL0     H64495   4.500   6.950   6.665 -2.5457 -4.7661 -2.9732
  489MOL0     H64496   4.491   7.000   6.837 -4.0644  1.3709  0.9257
  489MOL0     H64497   4.243   6.931   6.680  2.3070 -1.4044 -0.2389
  489MOL0     H64498   4.243   6.997   6.847 -0.8536  2.2450  0.6051
  489MOL0     H64499   4.378   7.144   6.608  0.0156  2.9087 -0.2378
  489MOL0     H64500   4.331   7.215   6.762 -2.2348  0.7551  0.9364
  489MOL0     H64501   4.103   7.356   6.745 -5.5834  0.2884  0.4121
  489MOL0     H64502   3.863   7.403   6.716  0.0107  0.5282 -1.6065
  489MOL0     H64503   3.787   7.240   6.736 -0.1495 -0.0765  0.5667
  489MOL0     H64504   3.793   7.370   6.469  2.5901 -0.4183  1.5389
  489MOL0     H64505   3.675   7.416   6.606 -1.1863 -0.2987  2.0850
  489MOL0     H64506   3.682   7.134   6.533 -4.2010 -0.9748 -0.3325
  489MOL0     H64507   3.565   7.223   6.615 -0.2293 -1.2175 -0.2862
  489MOL0     H64508   3.640   7.244   6.327 -0.8079  3.5177 -0.4189
  489MOL0     H64509   3.512   7.342   6.399 -1.5225 -0.6960 -0.0144
  489MOL0     H64510   3.356   6.927   6.372 -0.9324 -0.0035 -0.9103
  489MOL0     H64511   3.106   6.881   6.441 -0.7840  0.9642 -2.6152
  489MOL0     H64512   2.853   6.710   6.557  1.1019  3.4543 -0.7102
  489MOL0     H64513   2.631   6.605   6.544 -1.0294 -0.6313  0.1413
  489MOL0     H64514   2.241   6.830   6.499 -0.8407  0.2183  0.8957
  489MOL0     H64515   2.279   6.865   6.671  2.6570  1.4261 -1.2483
  489MOL0     H64516   2.200   6.670   6.762 -2.0090  1.5027  0.7107
  489MOL0     H64517   2.203   6.592   6.603  1.3855  0.5471 -0.5861
  489MOL0     H64518   1.997   6.738   6.535  1.2472 -1.0673  0.5543
  489MOL0     H64519   1.996   6.825   6.678 -2.5766 -0.5137 -0.4651
  489MOL0     H64520   1.955   6.515   6.658  2.5187 -0.1037  0.1118
  489MOL0     H64521   1.958   6.606   6.804  2.6567 -0.0434 -1.2490
  489MOL0     H64522   1.748   6.647   6.570  5.4799  0.3740 -1.5050
  489MOL0     H64523   1.759   6.738   6.721 -3.0767  2.6433 -4.5706
  489MOL0     H64524   1.712   6.515   6.840 -1.9928  0.9472  0.4778
  489MOL0     H64525   1.702   6.430   6.686 -1.0428  2.6531 -4.4268
  489MOL0     H64526   1.478   6.624   6.794 -0.5022 -0.3630  0.2883
  489MOL0     H64527   1.506   6.599   6.625  0.4547 -0.8476 -0.1483
  489MOL0     H64528   1.483   6.354   6.645  1.8349  1.4560 -1.9895
  489MOL0     H64529   1.341   6.445   6.714  0.8493  1.1839 -0.6063
  489MOL0     H64530   2.462   6.990   6.668  0.8971 -0.8949  1.1787
  489MOL0     H64531   2.676   7.077   6.680  0.4786  0.7493  1.5579
  489MOL0     H64532   3.105   7.274   6.601  1.8877  0.2474  0.1313
  489MOL0     H64533   3.330   7.316   6.511 -2.1744  0.7080  0.3994
  489MOL0     H64534   4.691   6.580   7.461  0.6106 -0.0618  0.7002
  489MOL0     H64535   4.791   6.627   7.701  0.3852  1.3822  2.0002
  489MOL0     H64536   4.823   6.676   8.056 -0.9863 -0.3268  0.2820
  489MOL0     H64537   4.929   6.647   8.262 -0.4225 -0.6372  1.4477
  489MOL0     H64538   5.140   6.799   8.556 -0.2074  1.5901  0.0175
  489MOL0     H64539   5.126   6.711   8.404  2.4709  3.7693  0.6954
  489MOL0     H64540   4.899   6.633   8.481  2.4361 -0.1959 -3.2146
  489MOL0     H64541   5.020   6.571   8.599 -0.9180 -1.2015  0.3132
  489MOL0     H64542   4.970   6.781   8.733  1.8572 -0.4684 -1.1951
  489MOL0     H64543   4.869   6.638   8.736 -1.6571  0.7843 -1.7929
  489MOL0     H64544   4.716   6.799   8.733  3.4803 -1.3241  2.4307
  489MOL0     H64545   4.806   6.904   8.619  2.1415 -1.2048 -2.0848
  489MOL0     H64546   4.567   6.654   8.360 -0.5224 -1.9142  2.0285
  489MOL0     H64547   4.962   7.084   8.300  1.4712  0.6117 -0.1408
  489MOL0     H64548   4.895   7.102   8.079  5.4261  1.4720  0.0681
  490MOL0     O64549   4.643   8.480   5.710  0.0752 -0.6425  0.2327
  490MOL0     C64550   4.732   8.514   5.633 -0.5161  0.1990 -0.7082
  490MOL0     O64551   4.763   8.642   5.596  0.7084 -0.0800  0.5640
  490MOL0     C64552   4.698   8.748   5.655  0.0726 -0.3832  0.3136
  490MOL0     C64553   4.709   8.775   5.792  0.6827 -0.6089  0.2149
  490MOL0     C64554   4.652   8.887   5.846  0.0572 -0.4841 -0.7497
  490MOL0     C64555   4.568   8.973   5.771 -0.8569  0.0535 -0.1009
  490MOL0     O64556   4.509   9.095   5.816  0.5564  0.1261  0.1442
  490MOL0     C64557   4.462   9.118   5.954 -0.4153  0.0124  0.0875
  490MOL0     C64558   4.312   9.098   5.965  0.8067  0.4094  0.9300
  490MOL0     C64559   4.231   9.223   5.918 -0.7787  0.2422  0.0615
  490MOL0     C64560   4.287   9.291   5.788  0.3481 -0.4123 -0.1513
  490MOL0     C64561   4.185   9.402   5.753  0.1532 -0.4547 -0.4022
  490MOL0     C64562   4.056   9.360   5.685  0.0215 -0.3795 -0.1048
  490MOL0     C64563   3.989   9.483   5.632 -0.2972  0.4923 -0.5517
  490MOL0     C64564   3.942   9.589   5.728  0.5816 -0.1929  0.1119
  490MOL0     N64565   3.850   9.539   5.833 -0.1747  1.0466  0.4795
  490MOL0     C64566   3.881   9.492   5.959 -0.2938  0.2936 -0.8995
  490MOL0     C64567   3.758   9.488   6.026  0.1083 -0.5293  0.1025
  490MOL0     C64568   3.722   9.439   6.171  0.4992 -0.4062 -0.0007
  490MOL0     C64569   3.820   9.342   6.243 -0.4497 -0.1690 -0.4719
  490MOL0     C64570   3.779   9.316   6.389  0.3624  0.2579 -0.2678
  490MOL0     C64571   3.862   9.191   6.437  0.9065 -0.3305  0.3017
  490MOL0     O64572   4.004   9.219   6.417 -0.2435 -0.4903  0.3189
  490MOL0     C64573   4.096   9.129   6.418  0.6602 -0.5803  0.1085
  490MOL0     C64574   4.216   9.166   6.357 -0.2202  0.0077  0.0125
  490MOL0     C64575   4.322   9.072   6.368  0.2758  0.1291  0.3225
  490MOL0     C64576   4.311   8.936   6.405 -0.6043  0.0941  0.6209
  490MOL0     C64577   4.423   8.846   6.388 -0.0799 -0.1007 -0.1302
  490MOL0     O64578   4.547   8.892   6.332  0.0806 -0.3953  0.0925
  490MOL0     C64579   4.664   8.816   6.314 -0.6622 -0.2804  0.0660
  490MOL0     C64580   4.767   8.886   6.247 -0.5761  0.1811 -0.4393
  490MOL0     C64581   4.874   8.826   6.178  0.2846  0.3798  0.2790
  490MOL0     C64582   4.871   8.682   6.156  0.0099 -0.3585  0.1771
  490MOL0     O64583   4.974   8.623   6.086  0.0848 -0.1184 -0.2367
  490MOL0     C64584   4.967   8.480   6.080  0.1705 -0.7973 -0.2683
  490MOL0     C64585   5.080   8.428   5.987 -0.0131 -0.0865 -0.6813
  490MOL0     C64586   5.111   8.283   6.008 -0.3282 -0.2001  0.8887
  490MOL0     C64587   5.197   8.220   5.892 -0.1969 -1.1823  0.0443
  490MOL0     C64588   5.342   8.280   5.892 -0.2259  0.4345 -0.6445
  490MOL0     C64589   5.419   8.227   5.772 -0.2850 -0.2067  0.9049
  490MOL0     C64590   5.570   8.240   5.793  0.5147  0.8390 -0.4113
  490MOL0     C64591   5.656   8.283   5.673  1.0900  0.8576  1.1487
  490MOL0    Cl64592   5.642   8.161   5.536 -0.3204  0.0002 -0.5227
  490MOL0     C64593   4.775   8.610   6.230  0.4415 -0.9167 -0.2465
  490MOL0     C64594   4.680   8.680   6.308  0.1439  0.9359  0.5635
  490MOL0     O64595   4.408   8.729   6.423 -0.0453  0.0662 -0.5629
  490MOL0     C64596   4.187   8.907   6.471  0.2899  0.7404  0.5088
  490MOL0     C64597   4.090   9.000   6.478 -0.6779 -0.3114 -0.5603
  490MOL0     N64598   3.660   9.544   5.943 -0.1805 -0.4522 -0.0542
  490MOL0     N64599   3.721   9.559   5.824  0.6286  0.1447 -0.6271
  490MOL0     C64600   4.541   8.936   5.637  0.5039  0.1191  0.3110
  490MOL0     C64601   4.620   8.838   5.577 -0.0770  0.0007  0.2509
  490MOL0     C64602   4.815   8.406   5.589  0.4584 -0.0229 -0.1312
  490MOL0     C64603   4.905   8.425   5.481  0.3937  0.1759 -1.4036
  490MOL0     C64604   4.985   8.316   5.441  0.1017 -0.8848 -0.1622
  490MOL0     C64605   4.971   8.183   5.495 -0.5410  0.3229 -0.0620
  490MOL0     O64606   5.055   8.079   5.468  0.0297  0.4074  0.7974
  490MOL0     C64607   5.199   8.110   5.472  0.1122  1.2439 -0.8290
  490MOL0     C64608   5.276   7.980   5.468 -0.7451  1.3036 -0.5497
  490MOL0     C64609   5.290   7.926   5.332 -0.0864  0.6426 -0.5351
  490MOL0     C64610   5.309   7.771   5.333 -0.3295 -0.5653 -0.5609
  490MOL0     C64611   5.401   7.723   5.433 -0.1285  0.6987 -0.2210
  490MOL0     C64612   5.489   7.700   5.512  0.3818 -0.0525  0.2272
  490MOL0     C64613   4.873   8.171   5.600  0.6109  0.5567  0.1187
  490MOL0     C64614   4.797   8.274   5.643 -0.5933 -0.3026 -0.0517
  490MOL0     H64615   4.775   8.719   5.858 -0.4680 -0.6534  1.3549
  490MOL0     H64616   4.672   8.912   5.950 -0.9031  2.7801 -1.2105
  490MOL0     H64617   4.483   9.221   5.983  0.1857  1.1945 -3.8727
  490MOL0     H64618   4.521   9.052   6.019 -0.1322 -2.5517 -2.5488
  490MOL0     H64619   4.287   9.079   6.069  1.2676  0.7996  1.1127
  490MOL0     H64620   4.292   9.010   5.902 -1.5422  3.0061 -2.3481
  490MOL0     H64621   4.229   9.297   5.999 -0.6310  1.4061 -0.9621
  490MOL0     H64622   4.126   9.191   5.920 -0.2011 -1.7408  0.8950
  490MOL0     H64623   4.388   9.329   5.801  0.6070 -1.2573  0.4269
  490MOL0     H64624   4.288   9.220   5.705 -0.4344  1.1584 -1.5562
  490MOL0     H64625   4.234   9.473   5.685 -0.2101 -1.9722 -2.3135
  490MOL0     H64626   4.174   9.462   5.844  2.1515  0.4738 -0.7034
  490MOL0     H64627   3.998   9.298   5.753  1.3289 -0.4571  0.9872
  490MOL0     H64628   4.066   9.291   5.601 -1.2077  0.0064 -0.5890
  490MOL0     H64629   4.057   9.528   5.559 -1.2988 -0.4240 -2.1193
  490MOL0     H64630   3.902   9.450   5.573  1.9072  1.0464 -4.4757
  490MOL0     H64631   3.892   9.671   5.675  0.5642  0.3117  0.8904
  490MOL0     H64632   4.023   9.632   5.787  0.3885 -0.4483  0.5608
  490MOL0     H64633   3.973   9.461   6.007 -2.1666  1.0837  3.7677
  490MOL0     H64634   3.632   9.376   6.173 -0.8925  1.4286 -1.0534
  490MOL0     H64635   3.697   9.530   6.225  0.9262  2.0935 -3.6238
  490MOL0     H64636   3.919   9.389   6.241 -0.2793 -0.5136 -2.8104
  490MOL0     H64637   3.823   9.247   6.189 -0.5143  1.0393 -2.7521
  490MOL0     H64638   3.804   9.406   6.446 -1.0938 -0.4413  1.5457
  490MOL0     H64639   3.671   9.313   6.406 -0.0668 -0.2734 -2.6370
  490MOL0     H64640   3.842   9.096   6.386  0.2558  0.2238 -0.4940
  490MOL0     H64641   3.837   9.166   6.540 -2.4888  1.4194  0.0111
  490MOL0     H64642   4.234   9.266   6.320  3.0204  0.1029  1.4320
  490MOL0     H64643   4.426   9.091   6.341  0.6009 -0.5514  1.0681
  490MOL0     H64644   4.744   8.992   6.250 -0.5580  0.1771 -0.1988
  490MOL0     H64645   4.944   8.896   6.135 -0.6972  0.3886 -1.4024
  490MOL0     H64646   4.868   8.461   6.040 -1.8054 -0.5493  3.8997
  490MOL0     H64647   4.978   8.444   6.183 -1.1894 -0.4302  0.0211
  490MOL0     H64648   5.166   8.495   5.991  0.2032 -0.3143 -1.3775
  490MOL0     H64649   5.037   8.438   5.887 -3.4008 -2.5100  0.3190
  490MOL0     H64650   5.019   8.224   6.015 -0.7815  0.5064  1.0760
  490MOL0     H64651   5.163   8.270   6.103  1.1351 -3.1544 -0.2181
  490MOL0     H64652   5.185   8.111   5.891  3.6745 -1.7618 -1.8088
  490MOL0     H64653   5.142   8.237   5.799 -1.8470 -1.1043  0.9838
  490MOL0     H64654   5.380   8.232   5.983 -3.1921 -0.9141  0.0104
  490MOL0     H64655   5.343   8.389   5.895 -0.6231  0.4409 -0.6291
  490MOL0     H64656   5.391   8.290   5.688  2.6452 -0.7154 -0.5844
  490MOL0     H64657   5.390   8.123   5.751 -2.0729 -0.2369  3.0892
  490MOL0     H64658   5.589   8.303   5.881 -1.3695 -3.0055  3.0573
  490MOL0     H64659   5.608   8.144   5.830 -2.2209  0.0989  0.6886
  490MOL0     H64660   5.756   8.313   5.707  1.0055  3.4469 -0.5865
  490MOL0     H64661   5.603   8.371   5.637 -0.3309 -1.4059 -2.8528
  490MOL0     H64662   4.756   8.503   6.226 -0.1909 -0.7801 -1.6191
  490MOL0     H64663   4.599   8.612   6.332  1.3239 -1.3153 -1.3578
  490MOL0     H64664   4.175   8.803   6.499  2.4204  1.2052  3.6394
  490MOL0     H64665   4.003   8.962   6.531  0.0260 -0.1338  0.7474
  490MOL0     H64666   4.478   9.001   5.578 -0.5300 -1.2255 -0.1148
  490MOL0     H64667   4.621   8.804   5.474  2.0894 -2.4117  0.9634
  490MOL0     H64668   4.910   8.520   5.428  1.2601  0.5215 -0.7325
  490MOL0     H64669   5.066   8.335   5.371  0.0391  0.2570  0.0459
  490MOL0     H64670   5.218   8.175   5.558  0.4799  0.6565 -0.4539
  490MOL0     H64671   5.218   8.171   5.383 -1.1217 -0.0309 -2.0172
  490MOL0     H64672   5.375   7.994   5.512 -1.6271  1.2998  1.5327
  490MOL0     H64673   5.226   7.904   5.530 -0.5454  1.7625  0.1831
  490MOL0     H64674   5.372   7.979   5.282 -0.5706  0.0178 -2.0685
  490MOL0     H64675   5.193   7.937   5.284 -1.4274 -2.1225  1.2847
  490MOL0     H64676   5.213   7.726   5.360 -0.0175 -0.0549  1.6046
  490MOL0     H64677   5.346   7.728   5.240  3.6336 -3.4801  2.0084
  490MOL0     H64678   5.569   7.689   5.583  0.7494  1.6950  0.1343
  490MOL0     H64679   4.853   8.072   5.639  0.2954  0.8940  0.8297
  490MOL0     H64680   4.732   8.250   5.727  0.1412 -0.1801  0.5686
  491MOL0     O64681   1.667   0.604   5.129  0.8046 -0.7628  0.5376
  491MOL0     C64682   1.771   0.656   5.151 -0.5192  0.2356 -0.9686
  491MOL0     O64683   1.787   0.786   5.204  0.0430  0.4054 -0.3205
  491MOL0     C64684   1.678   0.862   5.243 -0.0257 -1.0454  0.7348
  491MOL0     C64685   1.593   0.908   5.142  1.3891  0.8685  0.2603
  491MOL0     C64686   1.476   0.977   5.176 -0.2589  0.2178 -0.2566
  491MOL0     C64687   1.455   1.010   5.310  0.6901  0.6587 -0.6107
  491MOL0     O64688   1.351   1.089   5.335  0.3699  0.5688  0.5677
  491MOL0     C64689   1.383   1.218   5.387 -0.9968  0.1082  0.2328
  491MOL0     C64690   1.260   1.292   5.415 -0.5057  1.3124 -0.7249
  491MOL0     C64691   1.299   1.425   5.481 -0.2162 -0.1592 -0.7270
  491MOL0     C64692   1.169   1.486   5.537  0.1474 -0.3435 -0.2201
  491MOL0     C64693   1.200   1.607   5.626  0.0103 -0.2795 -0.4669
  491MOL0     C64694   1.086   1.626   5.729 -0.9949  0.2859  0.0973
  491MOL0     C64695   0.969   1.698   5.671  0.4545  0.5161 -0.0588
  491MOL0     C64696   0.864   1.686   5.776  0.0437 -0.0758  0.0973
  491MOL0     N64697   0.750   1.767   5.756  0.6423  0.0969 -0.1937
  491MOL0     C64698   0.660   1.781   5.640 -0.3227  0.1313  0.1132
  491MOL0     C64699   0.606   1.897   5.663  0.3342  0.0019 -1.0659
  491MOL0     C64700   0.498   1.948   5.582  0.2149 -1.0117 -0.6684
  491MOL0     C64701   0.371   1.863   5.625 -0.9086  0.4842 -0.4862
  491MOL0     C64702   0.257   1.925   5.558  1.3192 -0.8899  0.0918
  491MOL0     C64703   0.211   2.051   5.627 -0.0760  0.0631  0.1402
  491MOL0     O64704   0.089   2.045   5.691 -0.2660 -0.0099  0.3986
  491MOL0     C64705  -0.030   2.072   5.616 -0.4604  0.4948  0.4754
  491MOL0     C64706  -0.140   2.094   5.691  0.6252  0.8459 -0.2857
  491MOL0     C64707  -0.262   2.128   5.615  0.2735  1.5730 -0.1265
  491MOL0     C64708  -0.275   2.129   5.475 -0.1522  0.6669 -0.6730
  491MOL0     C64709  -0.399   2.148   5.404 -0.2604 -0.3783  0.1115
  491MOL0     O64710  -0.388   2.164   5.270  0.9387  0.3305 -0.2480
  491MOL0     C64711  -0.506   2.163   5.199  0.3644 -0.5925  0.2643
  491MOL0     C64712  -0.556   2.048   5.138 -0.8507 -0.9614 -0.6608
  491MOL0     C64713  -0.674   2.051   5.063 -0.3567  0.2300  0.3118
  491MOL0     C64714  -0.740   2.173   5.031 -0.1418  0.2109 -0.1354
  491MOL0     O64715  -0.852   2.179   4.952  0.1743 -0.3809  0.2387
  491MOL0     C64716  -0.954   2.081   4.970 -1.0109 -0.1706  0.2691
  491MOL0     C64717  -1.070   2.161   5.021  0.8214  0.0154  0.5100
  491MOL0     C64718  -1.047   2.215   5.165  0.5340 -0.2447 -0.6090
  491MOL0     C64719  -1.181   2.260   5.233  0.5018  0.5448 -0.3313
  491MOL0     C64720  -1.179   2.294   5.378 -0.0746  0.1039 -0.2599
  491MOL0     C64721  -1.318   2.358   5.421 -0.1263 -0.0463  0.6122
  491MOL0     C64722  -1.326   2.391   5.568 -0.4855  0.3624  0.5885
  491MOL0     C64723  -1.465   2.447   5.610 -0.0704  0.0234 -0.0415
  491MOL0    Cl64724  -1.456   2.463   5.788  0.6110  0.1045  0.1977
  491MOL0     C64725  -0.683   2.295   5.090  0.6309 -0.3463 -0.7596
  491MOL0     C64726  -0.568   2.284   5.168 -0.0807 -0.1223 -0.5298
  491MOL0     O64727  -0.507   2.159   5.464  1.0853 -0.4461 -0.5738
  491MOL0     C64728  -0.160   2.089   5.404  0.8373 -0.0901  0.2513
  491MOL0     C64729  -0.045   2.067   5.473 -0.8919  0.1254  0.1634
  491MOL0     N64730   0.655   1.943   5.788 -0.6719 -0.3165  1.0706
  491MOL0     N64731   0.751   1.878   5.827 -0.6687 -0.4733  0.3097
  491MOL0     C64732   1.526   0.959   5.411 -0.8188  0.7178 -0.5776
  491MOL0     C64733   1.640   0.882   5.382  0.0785  0.1389 -0.6235
  491MOL0     C64734   1.894   0.570   5.152 -0.0052 -0.4478  0.0008
  491MOL0     C64735   1.896   0.428   5.177  0.5086  0.0808 -0.4202
  491MOL0     C64736   2.016   0.357   5.152 -0.2532  0.5192 -0.2350
  491MOL0     C64737   2.139   0.424   5.121 -0.3644  0.0802  0.3505
  491MOL0     O64738   2.266   0.374   5.105 -0.3603 -0.7403  0.1436
  491MOL0     C64739   2.272   0.235   5.087 -0.2389  0.0059  0.2453
  491MOL0     C64740   2.408   0.212   5.018 -0.2531 -0.5021  0.9585
  491MOL0     C64741   2.430   0.069   4.982 -0.9087  0.5313  0.4231
  491MOL0     C64742   2.566   0.062   4.912  1.3428 -0.1380  0.3540
  491MOL0     C64743   2.688   0.057   4.987 -0.0730 -0.2517  0.2309
  491MOL0     C64744   2.780   0.055   5.066  1.1735 -0.4650 -1.3347
  491MOL0     C64745   2.136   0.564   5.110 -0.6795  0.1288 -0.1096
  491MOL0     C64746   2.012   0.629   5.111 -0.5577  0.1847  1.3216
  491MOL0     H64747   1.613   0.894   5.036 -0.4342  1.9460 -0.2819
  491MOL0     H64748   1.398   1.007   5.108 -1.1584 -0.9313  0.2392
  491MOL0     H64749   1.448   1.282   5.326  1.7939  1.0321  3.8081
  491MOL0     H64750   1.434   1.203   5.483  0.5774  0.1603 -0.5600
  491MOL0     H64751   1.186   1.237   5.474 -1.5042  1.7921 -1.4874
  491MOL0     H64752   1.213   1.310   5.318 -0.0912  3.1416 -0.6169
  491MOL0     H64753   1.329   1.472   5.386 -0.9930  0.1367 -0.8339
  491MOL0     H64754   1.382   1.412   5.551  0.5233 -2.1182 -1.8713
  491MOL0     H64755   1.112   1.512   5.447  0.6799 -0.2396 -0.5338
  491MOL0     H64756   1.113   1.403   5.581 -2.6245 -0.3966 -3.3985
  491MOL0     H64757   1.228   1.704   5.582 -3.6167  1.3369  0.3835
  491MOL0     H64758   1.288   1.581   5.685  2.1883  3.7828 -1.5494
  491MOL0     H64759   1.129   1.694   5.803 -1.2062  0.7965 -0.2458
  491MOL0     H64760   1.063   1.532   5.781  0.9297  1.6418  3.7724
  491MOL0     H64761   0.989   1.803   5.647 -0.5074  0.2075 -2.4564
  491MOL0     H64762   0.932   1.663   5.574  2.2007  1.4109 -1.1090
  491MOL0     H64763   0.899   1.712   5.876 -0.2865  1.2616 -0.1252
  491MOL0     H64764   0.812   1.590   5.785 -1.7956  0.9562  0.9792
  491MOL0     H64765   0.651   1.709   5.560 -1.1458 -1.2470  1.3984
  491MOL0     H64766   0.509   1.932   5.474  1.2441 -1.0142 -0.5698
  491MOL0     H64767   0.486   2.056   5.592 -0.8093 -0.9987 -1.7640
  491MOL0     H64768   0.358   1.854   5.733 -5.0593  0.8600 -0.8028
  491MOL0     H64769   0.382   1.763   5.581 -2.0808  0.9103 -1.7991
  491MOL0     H64770   0.281   1.938   5.452 -1.3311  1.7644 -0.3558
  491MOL0     H64771   0.175   1.854   5.576  0.1176  0.0814 -1.2273
  491MOL0     H64772   0.204   2.132   5.553 -3.0314 -0.0095  0.2352
  491MOL0     H64773   0.287   2.070   5.703 -0.2613 -0.3224  0.4234
  491MOL0     H64774  -0.130   2.087   5.799 -0.8433 -0.0288 -0.1782
  491MOL0     H64775  -0.357   2.137   5.668  0.6464  0.7491  0.7095
  491MOL0     H64776  -0.492   1.963   5.160 -1.8215 -1.2154  1.4509
  491MOL0     H64777  -0.714   1.963   5.013  1.9532  0.0968 -1.4863
  491MOL0     H64778  -0.933   1.988   5.025 -1.0661 -2.3072 -3.0499
  491MOL0     H64779  -0.979   2.052   4.868 -0.5867  3.0433 -0.8615
  491MOL0     H64780  -1.164   2.104   5.017 -0.8929  2.7122 -0.5131
  491MOL0     H64781  -1.089   2.241   4.949 -1.3318 -2.2115 -1.5882
  491MOL0     H64782  -0.979   2.299   5.149 -2.1919  1.9069 -1.5351
  491MOL0     H64783  -1.013   2.133   5.229 -2.0748 -1.1712 -0.2760
  491MOL0     H64784  -1.215   2.349   5.181 -1.3585 -1.8562 -3.6254
  491MOL0     H64785  -1.255   2.179   5.233  1.4603 -0.5144  2.7778
  491MOL0     H64786  -1.102   2.363   5.411 -0.0265  0.9749 -2.0563
  491MOL0     H64787  -1.163   2.195   5.423 -0.0412  0.2436  0.0337
  491MOL0     H64788  -1.391   2.280   5.396  0.1546 -1.3344  3.4636
  491MOL0     H64789  -1.347   2.451   5.371 -1.3797  0.0514  1.4801
  491MOL0     H64790  -1.311   2.294   5.616  2.0303  0.2809 -0.2410
  491MOL0     H64791  -1.247   2.457   5.606 -1.3372  1.6382  0.2264
  491MOL0     H64792  -1.559   2.393   5.592 -0.4665  0.5560  0.4084
  491MOL0     H64793  -1.470   2.540   5.553 -1.0461  0.1075  0.1714
  491MOL0     H64794  -0.728   2.389   5.060  4.7295  2.5874  1.4425
  491MOL0     H64795  -0.521   2.369   5.215  1.7458 -0.3784 -1.7766
  491MOL0     H64796  -0.160   2.082   5.296 -1.1009 -1.3753  0.2753
  491MOL0     H64797   0.046   2.047   5.418 -0.9544  0.5946 -0.1221
  491MOL0     H64798   1.501   0.966   5.516  1.9678  0.1203  0.2169
  491MOL0     H64799   1.699   0.824   5.452 -1.4689  0.7723  1.2907
  491MOL0     H64800   1.805   0.374   5.201 -0.2934  2.3335  2.1942
  491MOL0     H64801   2.020   0.249   5.156 -0.1746  0.5633  1.3485
  491MOL0     H64802   2.191   0.205   5.019  0.9746 -0.7135 -0.9462
  491MOL0     H64803   2.267   0.193   5.188  0.9849  2.3025  1.3279
  491MOL0     H64804   2.418   0.273   4.928  3.3056  0.7098  2.0117
  491MOL0     H64805   2.493   0.245   5.077  1.1650  2.2472 -2.2930
  491MOL0     H64806   2.352   0.030   4.916  2.3540 -0.9843 -2.8868
  491MOL0     H64807   2.429  -0.007   5.061 -2.5061  0.5377  0.4318
  491MOL0     H64808   2.545  -0.031   4.860 -2.0736  0.6047  0.1790
  491MOL0     H64809   2.574   0.140   4.836 -3.1101  3.1720  2.8083
  491MOL0     H64810   2.866   0.062   5.130  0.0327 -1.2261  0.3348
  491MOL0     H64811   2.221   0.624   5.079  0.0604 -1.5922 -1.5773
  491MOL0     H64812   2.006   0.734   5.083 -1.6775  0.1829  1.4837
  492MOL0     O64813   3.024   2.047   3.385  0.1179 -0.2876 -0.4432
  492MOL0     C64814   2.962   2.013   3.282 -0.2227 -1.0229 -0.0785
  492MOL0     O64815   2.972   2.060   3.155 -0.0096  0.4810 -0.5174
  492MOL0     C64816   3.058   2.160   3.124  0.3791  0.3251 -0.4310
  492MOL0     C64817   3.079   2.268   3.201  0.6384 -0.2830 -0.6432
  492MOL0     C64818   3.173   2.357   3.163 -0.3536 -0.9676 -0.2040
  492MOL0     C64819   3.244   2.342   3.036 -0.4570  0.9439 -0.6421
  492MOL0     O64820   3.313   2.442   2.985  0.3334  0.2909 -0.7045
  492MOL0     C64821   3.238   2.573   2.967  0.6459  0.0837  0.1536
  492MOL0     C64822   3.277   2.656   2.848 -0.5193 -0.0201 -0.2291
  492MOL0     C64823   3.429   2.678   2.845 -0.1060  0.5668 -0.4611
  492MOL0     C64824   3.478   2.720   2.707 -0.2376 -0.3246 -0.4134
  492MOL0     C64825   3.630   2.691   2.700 -0.0533  0.3570 -0.4048
  492MOL0     C64826   3.680   2.731   2.559  0.1929 -0.9697  1.0322
  492MOL0     C64827   3.820   2.683   2.529 -0.2147  0.5620  0.1021
  492MOL0     C64828   3.835   2.530   2.511  0.5410 -0.7258 -0.2458
  492MOL0     N64829   3.925   2.516   2.399 -0.6904  0.2532 -0.5894
  492MOL0     C64830   4.062   2.516   2.405  0.4988  0.3826  0.0786
  492MOL0     C64831   4.110   2.505   2.278 -0.3941  0.4000  0.6506
  492MOL0     C64832   4.260   2.491   2.243  0.0381  0.1119 -0.0294
  492MOL0     C64833   4.288   2.427   2.105 -0.6461  0.2170  0.6542
  492MOL0     C64834   4.421   2.339   2.100  0.8161  0.0270 -0.1040
  492MOL0     C64835   4.452   2.277   1.962  0.9824  0.2469  0.6674
  492MOL0     O64836   4.380   2.156   1.954  0.7448  0.7720 -0.1256
  492MOL0     C64837   4.338   2.095   1.838 -0.1905  0.1518  0.0752
  492MOL0     C64838   4.222   2.135   1.765  0.0010  1.5243 -0.7374
  492MOL0     C64839   4.187   2.056   1.649 -0.9647  0.1467  0.2839
  492MOL0     C64840   4.261   1.940   1.611  0.7390 -0.3275 -0.5438
  492MOL0     C64841   4.215   1.878   1.488  0.1948 -0.6428 -0.2218
  492MOL0     O64842   4.144   1.943   1.399  0.5967 -0.0184  0.1498
  492MOL0     C64843   4.104   1.882   1.284  0.7400 -0.0766 -0.2525
  492MOL0     C64844   4.077   1.965   1.168  0.5576  0.7970 -0.0291
  492MOL0     C64845   3.993   1.913   1.065  0.4951  0.4808  0.0354
  492MOL0     C64846   3.948   1.776   1.067  1.3709  0.4173 -0.3431
  492MOL0     O64847   3.870   1.716   0.977  0.4773  0.2303 -0.5452
  492MOL0     C64848   3.806   1.804   0.874 -0.3048 -0.1891 -0.4733
  492MOL0     C64849   3.674   1.734   0.829 -0.2996 -0.0761  0.1845
  492MOL0     C64850   3.623   1.806   0.700 -0.6457  0.5607  0.6191
  492MOL0     C64851   3.478   1.770   0.671 -0.4018  1.2345 -0.0824
  492MOL0     C64852   3.426   1.824   0.536 -0.5914 -0.9861 -0.0505
  492MOL0     C64853   3.510   1.774   0.413 -0.0149 -0.1743  0.4252
  492MOL0     C64854   3.441   1.824   0.282  0.2521  0.9034 -0.0495
  492MOL0     C64855   3.503   1.738   0.171  0.3599  0.0131 -0.2686
  492MOL0    Cl64856   3.660   1.810   0.123 -0.0896  0.6130  0.3203
  492MOL0     C64857   3.979   1.701   1.182  0.1614 -0.6561 -0.0037
  492MOL0     C64858   4.051   1.757   1.289  0.0983  0.1778  0.1851
  492MOL0     O64859   4.241   1.762   1.471 -0.8161  0.0636  0.0503
  492MOL0     C64860   4.364   1.900   1.689  0.6226 -0.9433  0.6500
  492MOL0     C64861   4.408   1.981   1.799 -0.2930 -0.5447  1.2475
  492MOL0     N64862   3.997   2.517   2.192 -0.2094 -0.0075 -0.4957
  492MOL0     N64863   3.893   2.515   2.272 -0.5651 -0.4513 -0.2265
  492MOL0     C64864   3.214   2.233   2.949 -0.9125 -0.4356 -0.9164
  492MOL0     C64865   3.120   2.141   2.997 -0.4907 -0.6410  0.1422
  492MOL0     C64866   2.848   1.922   3.303  1.1295  0.6424 -0.1181
  492MOL0     C64867   2.735   1.926   3.218  0.4891 -0.2654  0.9274
  492MOL0     C64868   2.615   1.862   3.260  0.3947  0.5709 -0.8858
  492MOL0     C64869   2.616   1.785   3.375  0.7667 -0.0608 -0.1210
  492MOL0     O64870   2.497   1.726   3.430  0.0301  0.0227 -0.4025
  492MOL0     C64871   2.370   1.725   3.349  0.0914 -0.5980 -0.5113
  492MOL0     C64872   2.260   1.792   3.431 -0.2144  0.3140 -0.6705
  492MOL0     C64873   2.117   1.745   3.390  0.6469  0.2473 -0.0677
  492MOL0     C64874   2.054   1.846   3.305  0.4691 -0.8684 -0.4440
  492MOL0     C64875   1.927   1.790   3.254  0.2109  0.5304  0.5333
  492MOL0     C64876   1.826   1.727   3.225 -0.3127 -0.7404  0.6020
  492MOL0     C64877   2.733   1.771   3.453 -0.1604  0.4242  0.2570
  492MOL0     C64878   2.849   1.833   3.413 -0.2012 -0.1490 -0.3634
  492MOL0     H64879   3.035   2.285   3.299 -1.2933  1.2640 -1.6933
  492MOL0     H64880   3.188   2.442   3.228  0.7435 -0.6004 -0.9093
  492MOL0     H64881   3.244   2.630   3.061 -0.3314 -0.1332  0.3601
  492MOL0     H64882   3.133   2.559   2.942  0.3961  1.3443  0.4472
  492MOL0     H64883   3.229   2.752   2.866  0.6298  0.5838 -0.3116
  492MOL0     H64884   3.241   2.597   2.763  1.5959  0.8444 -1.8074
  492MOL0     H64885   3.486   2.595   2.888  0.2873  0.9946 -0.1518
  492MOL0     H64886   3.451   2.759   2.915 -0.0406 -1.6081  2.2170
  492MOL0     H64887   3.426   2.660   2.632 -0.9620 -3.7814  2.5606
  492MOL0     H64888   3.455   2.826   2.692 -1.2999 -0.3481  0.8633
  492MOL0     H64889   3.645   2.586   2.725 -4.0298 -0.7918 -2.0629
  492MOL0     H64890   3.687   2.748   2.774 -0.0233 -0.2216  0.0220
  492MOL0     H64891   3.669   2.840   2.557  0.3358 -0.9200  2.4429
  492MOL0     H64892   3.610   2.697   2.481 -0.2659  2.5186 -0.2961
  492MOL0     H64893   3.855   2.737   2.441  0.0888 -1.2419 -0.9292
  492MOL0     H64894   3.885   2.700   2.616  0.7878  1.2100 -0.7500
  492MOL0     H64895   3.739   2.485   2.486 -0.6750  0.9335  1.2085
  492MOL0     H64896   3.868   2.484   2.604 -1.1286 -1.5017 -0.0019
  492MOL0     H64897   4.111   2.528   2.502  0.0601 -0.0384  0.3567
  492MOL0     H64898   4.305   2.424   2.318  2.2837 -0.9928 -2.2215
  492MOL0     H64899   4.318   2.583   2.248  0.2949  0.2131 -2.9576
  492MOL0     H64900   4.289   2.512   2.036  0.7201  0.8580  1.4285
  492MOL0     H64901   4.203   2.360   2.090 -1.9904  1.6293  1.6174
  492MOL0     H64902   4.514   2.393   2.119  1.5457 -0.8336 -1.0701
  492MOL0     H64903   4.422   2.262   2.178  0.9213  0.0298 -0.1016
  492MOL0     H64904   4.560   2.271   1.944  0.5855  0.3744 -2.2302
  492MOL0     H64905   4.420   2.344   1.882 -1.1728 -1.3903  0.0765
  492MOL0     H64906   4.170   2.223   1.803 -0.6773  1.3169 -1.1647
  492MOL0     H64907   4.097   2.086   1.595 -0.6369  2.8466  1.1015
  492MOL0     H64908   4.110   2.068   1.168  1.2191  0.5882 -0.2507
  492MOL0     H64909   3.956   1.986   0.994 -3.8272  0.8426  2.3547
  492MOL0     H64910   3.877   1.816   0.792 -0.3421  1.3804 -0.2974
  492MOL0     H64911   3.780   1.905   0.905  0.6439 -0.3815  1.0543
  492MOL0     H64912   3.613   1.751   0.917 -0.8491 -0.2927 -0.1493
  492MOL0     H64913   3.687   1.627   0.811 -1.1748 -0.7596  3.2096
  492MOL0     H64914   3.694   1.772   0.625 -1.2293 -0.4724  0.5196
  492MOL0     H64915   3.634   1.914   0.712  0.2432  0.4975  0.4043
  492MOL0     H64916   3.473   1.661   0.666  0.6682  1.1802 -0.1955
  492MOL0     H64917   3.419   1.788   0.761  1.8475 -0.1184  1.7628
  492MOL0     H64918   3.418   1.933   0.539  0.2393 -0.9493  2.2407
  492MOL0     H64919   3.326   1.794   0.504  0.2032 -1.6599 -2.0542
  492MOL0     H64920   3.522   1.665   0.424  5.6323  0.1244  0.0996
  492MOL0     H64921   3.609   1.819   0.421 -1.4943  3.9071 -1.4438
  492MOL0     H64922   3.334   1.806   0.292  0.7321 -1.8890  1.0551
  492MOL0     H64923   3.457   1.930   0.264  2.6084  0.8033  0.9444
  492MOL0     H64924   3.446   1.728   0.078 -1.2061 -1.5712  0.7711
  492MOL0     H64925   3.527   1.634   0.196  2.8549  0.6891  0.3803
  492MOL0     H64926   3.947   1.598   1.175  2.0967 -1.1783 -2.1314
  492MOL0     H64927   4.059   1.693   1.376 -2.8834 -1.5988 -0.7010
  492MOL0     H64928   4.430   1.818   1.660  1.4491  0.3432 -1.2954
  492MOL0     H64929   4.491   1.954   1.863 -0.0338  0.0749  1.1794
  492MOL0     H64930   3.275   2.231   2.860 -1.4205 -0.7419 -1.2644
  492MOL0     H64931   3.100   2.046   2.948  1.5890 -0.8955 -0.2856
  492MOL0     H64932   2.732   1.978   3.123  0.9238  0.6269  1.3805
  492MOL0     H64933   2.530   1.886   3.197  0.5753  1.5527 -0.7812
  492MOL0     H64934   2.335   1.623   3.328 -1.8391 -0.4888  1.6991
  492MOL0     H64935   2.383   1.775   3.253  4.6859 -2.7557 -1.3251
  492MOL0     H64936   2.266   1.763   3.537 -1.7666  3.2948  0.3519
  492MOL0     H64937   2.267   1.901   3.423 -0.7629  0.6773  2.3028
  492MOL0     H64938   2.060   1.749   3.483  1.2533 -1.5953  0.4342
  492MOL0     H64939   2.102   1.648   3.342 -0.0550  0.3040  0.0311
  492MOL0     H64940   2.028   1.941   3.352 -0.4310 -1.0471 -0.5628
  492MOL0     H64941   2.102   1.894   3.220 -1.5850  2.7029  0.2162
  492MOL0     H64942   1.740   1.684   3.177 -0.9027  1.4554 -0.4787
  492MOL0     H64943   2.733   1.719   3.548  0.9644 -0.3994 -0.1698
  492MOL0     H64944   2.944   1.822   3.464  0.2962  0.7571 -1.0458
  493MOL0     O64945   3.006   3.218   3.362  0.1286 -0.0179 -0.6733
  493MOL0     C64946   2.963   3.274   3.465 -0.6784  0.1895  0.5535
  493MOL0     O64947   3.015   3.271   3.587  0.0330  0.7056 -0.2676
  493MOL0     C64948   3.143   3.220   3.608  0.7054  0.4964  0.8293
  493MOL0     C64949   3.237   3.181   3.503  0.4709 -0.6825 -0.9387
  493MOL0     C64950   3.363   3.123   3.539  0.2042 -0.3784 -0.8720
  493MOL0     C64951   3.401   3.114   3.668 -0.7664  0.4432  0.2964
  493MOL0     O64952   3.522   3.055   3.702 -0.1924  0.0225 -0.2547
  493MOL0     C64953   3.602   2.972   3.610 -0.2317 -0.5962 -0.3878
  493MOL0     C64954   3.741   2.981   3.668  0.1173  0.7097 -0.6409
  493MOL0     C64955   3.831   2.892   3.578  0.1059 -0.0410  0.3279
  493MOL0     C64956   3.958   2.868   3.664  0.6711 -0.3766  0.1761
  493MOL0     C64957   4.061   2.777   3.605  0.2649 -0.1797  0.2370
  493MOL0     C64958   4.174   2.746   3.702 -0.4738 -1.4560 -0.1230
  493MOL0     C64959   4.286   2.665   3.640 -0.8692 -0.2003  0.6090
  493MOL0     C64960   4.384   2.612   3.748  0.6536  0.5187 -0.3500
  493MOL0     N64961   4.516   2.561   3.722  0.4286  0.5106  0.0945
  493MOL0     C64962   4.593   2.484   3.807 -0.5036  0.5074 -0.0697
  493MOL0     C64963   4.713   2.464   3.742 -0.2683  0.9320  0.1695
  493MOL0     C64964   4.838   2.387   3.792 -0.5071 -0.1577  0.2688
  493MOL0     C64965   4.958   2.469   3.836  0.3836 -0.2212 -0.6229
  493MOL0     C64966   5.091   2.384   3.840  0.2971  0.8370 -0.4577
  493MOL0     C64967   5.205   2.487   3.860  0.6268 -0.5828 -1.3225
  493MOL0     O64968   5.317   2.409   3.862 -0.1895  0.4282 -0.6275
  493MOL0     C64969   5.444   2.465   3.847  0.2549 -0.7457  0.0500
  493MOL0     C64970   5.479   2.592   3.896 -0.3188  0.7442  0.5646
  493MOL0     C64971   5.610   2.640   3.881  0.5340 -1.0866 -0.1405
  493MOL0     C64972   5.701   2.576   3.805 -0.0455 -0.4370 -0.5816
  493MOL0     C64973   5.843   2.631   3.795 -0.1865  1.0710 -0.0954
  493MOL0     O64974   5.932   2.567   3.703 -0.7153  0.0579 -0.1149
  493MOL0     C64975   6.070   2.590   3.725 -0.7399  0.2314  0.3259
  493MOL0     C64976   6.149   2.483   3.686  0.4084  0.5152  0.1197
  493MOL0     C64977   6.284   2.500   3.677  0.1410 -0.2558 -0.4244
  493MOL0     C64978   6.356   2.622   3.711  0.9237  0.2412  0.1449
  493MOL0     O64979   6.493   2.628   3.727 -0.2200 -0.2466  0.5993
  493MOL0     C64980   6.575   2.516   3.705 -0.3142 -0.7905 -1.1891
  493MOL0     C64981   6.715   2.544   3.758 -0.6634  0.1630  0.1006
  493MOL0     C64982   6.772   2.432   3.849  1.0288  0.0476  0.4800
  493MOL0     C64983   6.802   2.303   3.764  0.9820 -0.7350  0.2521
  493MOL0     C64984   6.886   2.201   3.840 -0.9876 -0.7369 -0.0698
  493MOL0     C64985   6.857   2.063   3.777 -0.3784  0.2492  0.4717
  493MOL0     C64986   6.905   1.944   3.866  0.4199  0.4245 -0.5983
  493MOL0     C64987   6.822   1.926   3.992 -0.8516  0.4205  0.2734
  493MOL0    Cl64988   6.659   1.851   3.962 -0.5911 -0.0510  0.7979
  493MOL0     C64989   6.275   2.732   3.731 -0.0858  0.4467  0.2400
  493MOL0     C64990   6.134   2.715   3.751 -0.6266 -0.1440 -0.1647
  493MOL0     O64991   5.873   2.712   3.885  0.1807 -0.1588  0.0623
  493MOL0     C64992   5.666   2.454   3.752 -0.3134  1.3761  0.9636
  493MOL0     C64993   5.539   2.396   3.779  0.2501  1.0788 -0.4702
  493MOL0     N64994   4.708   2.538   3.627  0.1158 -0.1081  0.3266
  493MOL0     N64995   4.593   2.598   3.615  0.2600 -0.0718  0.1320
  493MOL0     C64996   3.312   3.164   3.766 -0.4874 -0.5216 -0.1154
  493MOL0     C64997   3.192   3.210   3.735  0.4159  0.2366  0.2049
  493MOL0     C64998   2.848   3.376   3.449 -0.2299  1.0057 -0.2175
  493MOL0     C64999   2.748   3.366   3.351  0.4725 -0.4413  0.1432
  493MOL0     C65000   2.639   3.450   3.346  0.3475  0.6033 -0.5787
  493MOL0     C65001   2.625   3.555   3.442  0.1260  0.6752  0.0587
  493MOL0     O65002   2.516   3.633   3.441  0.5714 -0.1232  0.2830
  493MOL0     C65003   2.433   3.624   3.560 -0.2271 -0.1672  0.6474
  493MOL0     C65004   2.343   3.751   3.575  0.2426 -0.0075  0.0451
  493MOL0     C65005   2.240   3.751   3.696  0.0285 -0.2527 -0.2634
  493MOL0     C65006   2.106   3.704   3.638  0.7148 -0.0602 -0.3071
  493MOL0     C65007   2.017   3.714   3.752 -0.2608 -0.1828  0.3661
  493MOL0     C65008   1.942   3.717   3.843  0.2436  0.0248 -1.3935
  493MOL0     C65009   2.732   3.579   3.532 -0.8515  0.9516  0.0022
  493MOL0     C65010   2.843   3.493   3.533  0.8681 -0.6558  0.3714
  493MOL0     H65011   3.214   3.185   3.397 -1.8245  0.1976 -0.4667
  493MOL0     H65012   3.433   3.095   3.461  3.0780  1.9334  0.6562
  493MOL0     H65013   3.614   3.016   3.510 -2.7465 -1.9867 -1.3996
  493MOL0     H65014   3.564   2.870   3.599 -2.6525 -0.3981  3.9357
  493MOL0     H65015   3.726   2.939   3.768  2.8307  2.7991  0.7853
  493MOL0     H65016   3.767   3.087   3.672  2.8384  0.0752  1.1826
  493MOL0     H65017   3.854   2.938   3.481 -1.2963  0.5853  0.2714
  493MOL0     H65018   3.781   2.797   3.556 -0.4812 -0.1285  1.9329
  493MOL0     H65019   4.014   2.961   3.674  0.1577  0.1291 -1.4649
  493MOL0     H65020   3.933   2.836   3.766 -0.1471  3.1275  1.1853
  493MOL0     H65021   4.094   2.811   3.506 -1.4789 -1.0126 -0.6779
  493MOL0     H65022   4.024   2.678   3.579  2.2973 -0.3344 -2.5696
  493MOL0     H65023   4.134   2.711   3.797 -0.5717  4.4580  2.4132
  493MOL0     H65024   4.220   2.843   3.721  0.4073 -2.3409  2.6588
  493MOL0     H65025   4.231   2.587   3.586 -3.2391  3.1100 -2.1634
  493MOL0     H65026   4.353   2.721   3.574 -1.2003 -0.7417 -0.2059
  493MOL0     H65027   4.320   2.550   3.812  3.5214 -0.0105  2.2381
  493MOL0     H65028   4.405   2.704   3.803  0.0828  2.5731 -3.3389
  493MOL0     H65029   4.568   2.437   3.901 -0.1482  0.4498 -0.0012
  493MOL0     H65030   4.880   2.326   3.712 -0.8878 -2.1043  1.4705
  493MOL0     H65031   4.810   2.330   3.882  0.8850 -0.7258  0.3554
  493MOL0     H65032   4.956   2.512   3.937 -0.5536  1.5579 -1.3459
  493MOL0     H65033   4.979   2.548   3.764  2.1384  0.7204  0.8392
  493MOL0     H65034   5.109   2.301   3.907 -1.3966 -1.2786 -2.4627
  493MOL0     H65035   5.099   2.334   3.743 -0.8909  0.4206 -0.3544
  493MOL0     H65036   5.181   2.530   3.958 -3.3597 -3.3494 -0.8487
  493MOL0     H65037   5.207   2.557   3.776  0.6010 -0.1042 -0.9305
  493MOL0     H65038   5.408   2.651   3.954 -2.5298  0.7076 -1.8899
  493MOL0     H65039   5.636   2.738   3.919 -2.1336 -0.5417  0.4772
  493MOL0     H65040   6.100   2.388   3.664  2.4140 -0.5051 -0.1721
  493MOL0     H65041   6.334   2.408   3.649  0.6349  0.0064 -0.4154
  493MOL0     H65042   6.580   2.508   3.596  2.4319  0.6632 -1.2565
  493MOL0     H65043   6.532   2.429   3.755  1.9095 -3.0589 -2.9407
  493MOL0     H65044   6.701   2.631   3.824 -1.7431 -0.6147  0.9333
  493MOL0     H65045   6.796   2.567   3.689  1.7679  0.7823  2.9293
  493MOL0     H65046   6.699   2.398   3.923  0.7848  0.5575  0.4761
  493MOL0     H65047   6.857   2.474   3.905  0.7353 -1.4550  2.1243
  493MOL0     H65048   6.706   2.262   3.732 -0.4888  2.0539  0.8206
  493MOL0     H65049   6.859   2.341   3.678  2.7017 -1.0195  1.2096
  493MOL0     H65050   6.858   2.196   3.945 -4.3355 -1.5941 -0.8796
  493MOL0     H65051   6.994   2.220   3.838 -0.4804 -2.6964  2.8905
  493MOL0     H65052   6.903   2.049   3.679 -2.3926 -2.4304 -0.2372
  493MOL0     H65053   6.750   2.047   3.761 -0.0810  0.4720 -2.2219
  493MOL0     H65054   6.896   1.847   3.817 -2.0371 -0.9057  2.1346
  493MOL0     H65055   7.009   1.952   3.900  0.2662 -1.3143  0.3835
  493MOL0     H65056   6.824   2.015   4.057 -0.7536  0.9476 -0.4444
  493MOL0     H65057   6.869   1.845   4.049 -2.1060  0.1314  0.9392
  493MOL0     H65058   6.322   2.829   3.749  2.4581 -1.3864  5.9112
  493MOL0     H65059   6.073   2.804   3.755 -1.4350 -0.5042 -2.6989
  493MOL0     H65060   5.729   2.405   3.678 -0.1052 -1.7411  2.9696
  493MOL0     H65061   5.510   2.297   3.743 -2.1819  2.1024 -1.5792
  493MOL0     H65062   3.353   3.185   3.865 -0.4664 -1.8858  0.1894
  493MOL0     H65063   3.132   3.255   3.813  0.6829  0.1473  0.4653
  493MOL0     H65064   2.755   3.290   3.273  1.6537  2.6502 -3.0325
  493MOL0     H65065   2.558   3.419   3.280  1.0014 -0.2617 -1.0003
  493MOL0     H65066   2.489   3.616   3.654  0.0073  4.4491  1.1449
  493MOL0     H65067   2.365   3.540   3.547  0.4449 -0.3195 -2.9506
  493MOL0     H65068   2.408   3.838   3.570 -0.0739  0.2490  0.3260
  493MOL0     H65069   2.290   3.765   3.480  0.9665 -0.2699 -0.4095
  493MOL0     H65070   2.233   3.856   3.726 -1.8717  0.1667 -1.8820
  493MOL0     H65071   2.277   3.685   3.774 -0.6376  0.0251  0.3082
  493MOL0     H65072   2.073   3.786   3.573 -0.1286  0.2345  0.4803
  493MOL0     H65073   2.121   3.602   3.602  0.4193 -1.3713  2.9401
  493MOL0     H65074   1.865   3.715   3.918 -1.2704  2.7547 -2.7081
  493MOL0     H65075   2.728   3.658   3.607 -1.6794 -0.4985  1.5492
  493MOL0     H65076   2.915   3.511   3.612  0.4424  0.5169  0.5226
  494MOL0     O65077  11.040  10.812   0.617  0.3533  0.1432 -0.2713
  494MOL0     C65078  11.150  10.852   0.566  0.7262 -0.5311 -1.0543
  494MOL0     O65079  11.166  10.947   0.470 -0.5598 -0.1895  0.3604
  494MOL0     C65080  11.073  11.011   0.390  0.3963  0.1199  0.4986
  494MOL0     C65081  11.106  11.131   0.323 -0.5028  0.0321  0.1133
  494MOL0     C65082  11.019  11.196   0.231  0.3753 -0.9255 -0.8624
  494MOL0     C65083  10.880  11.144   0.226 -1.1929  0.7327  0.9972
  494MOL0     O65084  10.777  11.200   0.149 -0.1879 -0.5747  0.5210
  494MOL0     C65085  10.808  11.285   0.036  0.1775  0.6110  0.3026
  494MOL0     C65086  10.690  11.276  -0.055  0.1361  0.7423 -0.2727
  494MOL0     C65087  10.701  11.154  -0.143 -0.2696 -0.1604  0.2376
  494MOL0     C65088  10.574  11.121  -0.227  0.2832  0.3194  0.4773
  494MOL0     C65089  10.604  11.002  -0.328  0.0991 -0.1407  0.1139
  494MOL0     C65090  10.525  10.999  -0.463  0.3787 -0.3432  0.4861
  494MOL0     C65091  10.375  10.954  -0.452 -0.5953  0.1476  0.1317
  494MOL0     C65092  10.358  10.796  -0.443 -0.2870 -0.6561 -1.1699
  494MOL0     N65093  10.372  10.746  -0.298 -0.3919 -0.1355 -0.4541
  494MOL0     C65094  10.361  10.811  -0.176  0.4344  0.2144  0.4101
  494MOL0     C65095  10.397  10.712  -0.086  0.1127  0.8718 -0.0437
  494MOL0     C65096  10.383  10.731   0.060 -0.7930  1.1721 -0.9135
  494MOL0     C65097  10.513  10.759   0.125  0.6441 -0.6329  0.3971
  494MOL0     C65098  10.513  10.780   0.280  0.5246 -0.9817  0.4856
  494MOL0     C65099  10.496  10.650   0.366  0.4907  0.4275 -0.7273
  494MOL0     O65100  10.351  10.612   0.361 -0.8464 -0.1759  0.0427
  494MOL0     C65101  10.272  10.661   0.464  0.4512  0.8640  0.2824
  494MOL0     C65102  10.139  10.683   0.417 -0.5238 -0.2540 -0.1070
  494MOL0     C65103  10.044  10.730   0.511 -0.0484  0.7851  0.3154
  494MOL0     C65104  10.087  10.778   0.639 -0.4303 -0.4608 -0.3995
  494MOL0     C65105  10.001  10.843   0.732  0.5981 -0.4851 -0.7868
  494MOL0     O65106  10.053  10.943   0.798 -0.4355 -0.0574  0.1078
  494MOL0     C65107   9.979  10.998   0.891  0.1540 -1.6050  0.8817
  494MOL0     C65108  10.024  10.988   1.019  0.7047 -0.5307 -0.4559
  494MOL0     C65109   9.933  11.032   1.122 -1.0483  0.1689  1.1794
  494MOL0     C65110   9.817  11.099   1.097  0.8645  0.6188 -0.5016
  494MOL0     O65111   9.744  11.143   1.205  0.1284  0.3295 -0.2952
  494MOL0     C65112   9.601  11.153   1.207  0.1540 -0.3183  0.3294
  494MOL0     C65113   9.558  11.084   1.335  0.1529 -1.1252  0.8962
  494MOL0     C65114   9.420  11.120   1.364  0.9480 -0.2987  0.6308
  494MOL0     C65115   9.380  11.071   1.509 -0.8640 -0.2073  0.4211
  494MOL0     C65116   9.229  11.044   1.525 -0.6902  0.7141 -0.2835
  494MOL0     C65117   9.218  11.012   1.672  0.0307  1.4553  0.0723
  494MOL0     C65118   9.086  10.946   1.708 -0.0026  0.5991  0.1248
  494MOL0     C65119   9.047  10.984   1.845 -0.0309 -0.1911  0.1416
  494MOL0    Cl65120   8.896  10.886   1.874  0.2404  0.4269 -0.1489
  494MOL0     C65121   9.777  11.108   0.965  0.0348  0.9038 -0.2170
  494MOL0     C65122   9.856  11.057   0.861  0.2585 -0.2615  0.5159
  494MOL0     O65123   9.897  10.782   0.751 -0.4118  0.4005  0.2155
  494MOL0     C65124  10.226  10.766   0.668 -0.4054  0.0075 -0.2834
  494MOL0     C65125  10.316  10.697   0.590  0.2163 -0.7069  0.2924
  494MOL0     N65126  10.446  10.602  -0.151  0.8643  0.2167  0.0318
  494MOL0     N65127  10.417  10.618  -0.275 -0.2937 -1.2984  1.4838
  494MOL0     C65128  10.849  11.038   0.306  0.1719 -0.1048  1.5566
  494MOL0     C65129  10.936  10.971   0.386  0.2959  0.6794  0.2365
  494MOL0     C65130  11.266  10.799   0.642  0.3158 -0.7374 -0.9272
  494MOL0     C65131  11.396  10.824   0.598  0.4181 -0.1214 -1.0136
  494MOL0     C65132  11.504  10.762   0.654 -1.2745 -0.2345  0.0345
  494MOL0     C65133  11.490  10.677   0.763  1.7211  0.4770  0.1447
  494MOL0     O65134  11.600  10.626   0.830 -0.4777  0.5571 -1.1397
  494MOL0     C65135  11.721  10.698   0.831  0.8372 -0.7515  0.3592
  494MOL0     C65136  11.812  10.668   0.953  0.4399 -0.8495 -0.7032
  494MOL0     C65137  11.944  10.736   0.935 -0.3167 -0.6749  0.7881
  494MOL0     C65138  12.047  10.688   1.038  0.1858  0.4981  0.2453
  494MOL0     C65139  12.184  10.754   1.009 -0.3011  0.0813  0.5374
  494MOL0     C65140  12.284  10.820   0.987  0.1992  0.1871 -0.4934
  494MOL0     C65141  11.360  10.642   0.810  0.5980  0.2917  0.1613
  494MOL0     C65142  11.251  10.710   0.748 -0.3656 -0.3145  0.3694
  494MOL0     H65143  11.208  11.165   0.338  0.0956  0.1479 -3.2778
  494MOL0     H65144  11.055  11.288   0.186  2.1847 -0.8722  0.5621
  494MOL0     H65145  10.900  11.251  -0.014 -0.4337  2.6601 -2.4533
  494MOL0     H65146  10.822  11.388   0.070  0.5869  0.8396 -0.5206
  494MOL0     H65147  10.691  11.366  -0.117 -1.0485  2.2264  1.7302
  494MOL0     H65148  10.598  11.269   0.004 -1.3595  0.6688 -2.5152
  494MOL0     H65149  10.720  11.067  -0.079 -0.3410 -0.6162 -0.3450
  494MOL0     H65150  10.781  11.171  -0.216 -1.0098  1.0267 -0.3236
  494MOL0     H65151  10.485  11.094  -0.168  0.4169 -0.0401  0.5152
  494MOL0     H65152  10.542  11.213  -0.277  1.3654  0.2238 -0.4297
  494MOL0     H65153  10.592  10.904  -0.281  2.4162  0.7594  2.8368
  494MOL0     H65154  10.713  11.005  -0.338 -0.0639  0.4972 -1.8799
  494MOL0     H65155  10.576  10.930  -0.531 -3.2715 -1.2393 -1.6319
  494MOL0     H65156  10.537  11.097  -0.509  3.2475 -0.2119  1.3192
  494MOL0     H65157  10.320  11.004  -0.373 -0.2276 -1.4309  1.4453
  494MOL0     H65158  10.334  10.987  -0.548  1.3722  2.1577 -0.1132
  494MOL0     H65159  10.429  10.752  -0.514  1.0580  1.6013 -1.3285
  494MOL0     H65160  10.258  10.772  -0.478 -0.7203 -1.9722  0.8043
  494MOL0     H65161  10.328  10.913  -0.162 -5.2666 -0.9431 -1.8880
  494MOL0     H65162  10.365  10.634   0.108 -0.8628  1.4340 -0.4042
  494MOL0     H65163  10.306  10.805   0.083 -0.8360  1.1048 -0.8384
  494MOL0     H65164  10.553  10.846   0.073  1.0504  0.7678  2.8672
  494MOL0     H65165  10.583  10.679   0.097  0.2894 -0.1018 -2.2633
  494MOL0     H65166  10.615  10.808   0.309  0.0342 -0.6421  1.9630
  494MOL0     H65167  10.442  10.860   0.302  2.0106  0.5740 -0.1586
  494MOL0     H65168  10.535  10.676   0.465 -1.5440  0.7744  0.0355
  494MOL0     H65169  10.555  10.577   0.311 -0.2379  0.8440 -2.1297
  494MOL0     H65170  10.113  10.657   0.315  1.6635 -0.1859 -0.7530
  494MOL0     H65171   9.941  10.741   0.481 -0.1853  0.6901  0.7453
  494MOL0     H65172  10.121  10.953   1.050 -0.0231  0.5697  3.7172
  494MOL0     H65173   9.976  11.039   1.221 -1.1475  1.9433  1.1151
  494MOL0     H65174   9.556  11.102   1.122  0.3814 -0.6526  0.4055
  494MOL0     H65175   9.578  11.260   1.208  0.2206 -0.2929 -0.6035
  494MOL0     H65176   9.615  11.136   1.413 -0.8840  2.0511 -0.2766
  494MOL0     H65177   9.584  10.978   1.328  2.7990 -0.5662  1.2245
  494MOL0     H65178   9.352  11.084   1.287 -1.7657 -1.7450  3.4589
  494MOL0     H65179   9.417  11.229   1.369  3.3574 -0.0168 -1.8952
  494MOL0     H65180   9.431  10.976   1.529  2.5376  1.4593  0.4227
  494MOL0     H65181   9.420  11.142   1.582 -2.4890  1.4667 -0.2533
  494MOL0     H65182   9.204  10.963   1.455 -0.3574 -0.0440  0.4589
  494MOL0     H65183   9.160  11.128   1.511  0.4523  1.3911 -2.0857
  494MOL0     H65184   9.232  11.103   1.731  1.0504  1.7772 -0.6372
  494MOL0     H65185   9.288  10.932   1.700 -1.1219  0.4408  0.1352
  494MOL0     H65186   9.007  10.976   1.638 -0.1562  0.8628  0.4124
  494MOL0     H65187   9.090  10.837   1.697  0.0633  0.7030 -1.0438
  494MOL0     H65188   9.009  11.086   1.853 -1.0130 -0.6438  1.4647
  494MOL0     H65189   9.114  10.958   1.928 -0.3228  1.0075  0.7798
  494MOL0     H65190   9.682  11.156   0.941 -0.3380  0.1867 -0.2070
  494MOL0     H65191   9.818  11.051   0.760 -2.3319 -0.0013  1.3892
  494MOL0     H65192  10.252  10.807   0.765  1.5858  1.0418 -1.1983
  494MOL0     H65193  10.418  10.677   0.620  0.5050  0.0177 -0.1685
  494MOL0     H65194  10.744  11.008   0.305  0.5772 -2.0105 -2.1467
  494MOL0     H65195  10.904  10.890   0.451 -0.9335  1.3684  0.5283
  494MOL0     H65196  11.423  10.897   0.522  0.1134  1.9106  0.7352
  494MOL0     H65197  11.599  10.787   0.606 -0.5242 -0.5332  1.3252
  494MOL0     H65198  11.698  10.805   0.833 -2.3010 -1.2948 -0.7192
  494MOL0     H65199  11.773  10.689   0.735 -0.4733  1.0486 -0.5919
  494MOL0     H65200  11.759  10.700   1.043  1.3981 -0.6882 -0.1882
  494MOL0     H65201  11.833  10.563   0.976 -1.6700 -1.2918 -0.5664
  494MOL0     H65202  11.945  10.844   0.917  3.8012 -0.6410  0.2901
  494MOL0     H65203  11.968  10.691   0.839 -1.1024 -3.9722  1.9928
  494MOL0     H65204  12.011  10.700   1.140 -0.3750  0.5877  0.0422
  494MOL0     H65205  12.071  10.582   1.028  1.2121  0.7050  0.3970
  494MOL0     H65206  12.368  10.886   0.985 -1.8996  3.1478  1.0989
  494MOL0     H65207  11.345  10.575   0.895  2.3328  0.5408  0.7099
  494MOL0     H65208  11.151  10.679   0.775 -0.8921 -0.7901 -1.9093
  495MOL0     O65209   8.771   1.714   8.126 -0.7970 -0.5420  0.2234
  495MOL0     C65210   8.660   1.727   8.079 -0.3879  1.0252  0.4124
  495MOL0     O65211   8.552   1.648   8.120 -0.4270 -0.2577 -0.2888
  495MOL0     C65212   8.571   1.541   8.213  0.2141  0.2188 -0.8229
  495MOL0     C65213   8.666   1.438   8.199  0.1133 -0.1149  0.5383
  495MOL0     C65214   8.667   1.320   8.272  0.6488  0.6263  0.4498
  495MOL0     C65215   8.572   1.308   8.372 -0.7337 -0.1217 -0.4304
  495MOL0     O65216   8.574   1.188   8.447 -0.3283  0.2196 -0.3555
  495MOL0     C65217   8.653   1.192   8.565  0.2107 -0.0134  0.2063
  495MOL0     C65218   8.553   1.198   8.686  0.1314 -0.3190  0.3724
  495MOL0     C65219   8.459   1.079   8.684  0.3750 -0.2167 -0.7490
  495MOL0     C65220   8.358   1.093   8.804  0.5703 -0.1214 -0.3004
  495MOL0     C65221   8.229   1.030   8.784  1.0531 -0.2195 -0.0370
  495MOL0     C65222   8.149   1.123   8.686 -0.2691 -0.0251 -0.3452
  495MOL0     C65223   8.009   1.063   8.668 -0.3658  0.2298  0.7375
  495MOL0     C65224   7.912   1.143   8.586  0.4482 -0.2107  0.3537
  495MOL0     N65225   7.958   1.159   8.449 -0.7480  0.6240 -0.1810
  495MOL0     C65226   8.056   1.245   8.410 -1.1024  0.1197  0.4485
  495MOL0     C65227   8.042   1.247   8.270  0.0746  0.0761  0.0790
  495MOL0     C65228   8.136   1.323   8.181 -0.9362 -0.4172  0.3874
  495MOL0     C65229   8.224   1.232   8.106  0.3629  0.1953 -0.6528
  495MOL0     C65230   8.326   1.300   8.012 -0.1698 -0.1323  0.9656
  495MOL0     C65231   8.270   1.416   7.921 -0.6750  0.4108  0.0899
  495MOL0     O65232   8.133   1.420   7.880  0.2013 -0.6350 -0.4124
  495MOL0     C65233   8.091   1.358   7.761 -0.0170 -0.7786  0.1665
  495MOL0     C65234   7.966   1.399   7.718  1.3468  0.5620 -0.8269
  495MOL0     C65235   7.904   1.329   7.610 -0.3936  0.3693 -1.0546
  495MOL0     C65236   7.976   1.233   7.531  0.2458 -0.4001  0.1417
  495MOL0     C65237   7.913   1.153   7.429  0.1802 -0.1531 -0.2922
  495MOL0     O65238   7.779   1.145   7.437 -0.1316 -0.1658  0.5097
  495MOL0     C65239   7.699   1.129   7.323 -0.3804  0.6069  0.0790
  495MOL0     C65240   7.713   1.008   7.251  0.4786 -0.3463 -0.4111
  495MOL0     C65241   7.631   0.984   7.142  0.4532 -1.5238  0.1341
  495MOL0     C65242   7.536   1.079   7.094 -0.8568  0.4170 -0.2854
  495MOL0     O65243   7.451   1.070   6.986 -0.3849 -1.1884 -0.4743
  495MOL0     C65244   7.448   0.949   6.907 -0.7786 -0.2289 -0.1439
  495MOL0     C65245   7.338   0.860   6.973 -0.2330 -0.0363  0.2052
  495MOL0     C65246   7.208   0.941   6.967  0.3182  0.4051  0.5146
  495MOL0     C65247   7.089   0.863   7.027 -0.4692  0.5857 -0.8637
  495MOL0     C65248   6.951   0.918   6.997 -0.3827 -0.3694  1.4441
  495MOL0     C65249   6.861   0.967   7.108  0.0476  0.0035  1.3735
  495MOL0     C65250   6.871   1.106   7.157  0.0119 -0.7258  0.1275
  495MOL0     C65251   6.985   1.122   7.254 -0.9012 -0.2343 -0.1692
  495MOL0    Cl65252   6.928   1.241   7.366  0.4706  0.0379  0.5269
  495MOL0     C65253   7.524   1.195   7.180  0.2126  0.0375  0.4661
  495MOL0     C65254   7.595   1.213   7.292  0.7410 -0.5295  0.2385
  495MOL0     O65255   7.985   1.090   7.356  0.5646  0.3123 -0.4515
  495MOL0     C65256   8.108   1.205   7.572 -1.0970 -0.0483 -0.7394
  495MOL0     C65257   8.169   1.264   7.688 -0.1476  0.3420  0.0266
  495MOL0     N65258   7.936   1.170   8.237 -0.1085  0.5613 -0.2325
  495MOL0     N65259   7.886   1.111   8.349  0.1158 -0.6801  0.4096
  495MOL0     C65260   8.469   1.398   8.394  0.1941 -0.0570 -0.8514
  495MOL0     C65261   8.471   1.521   8.315  0.8187 -0.6712 -0.0966
  495MOL0     C65262   8.622   1.839   7.992  0.0960 -0.6583  0.2005
  495MOL0     C65263   8.493   1.858   7.939 -0.3610  0.1320  0.5632
  495MOL0     C65264   8.458   1.980   7.879 -0.4133  0.1370 -0.3345
  495MOL0     C65265   8.551   2.076   7.847  0.0608  0.7784  0.2470
  495MOL0     O65266   8.501   2.193   7.775  0.0700  0.9434 -0.4818
  495MOL0     C65267   8.587   2.239   7.677  0.1946  0.3841  0.1592
  495MOL0     C65268   8.662   2.363   7.723 -0.3828  0.0845 -0.5150
  495MOL0     C65269   8.687   2.460   7.610 -0.0613 -0.5584 -0.0606
  495MOL0     C65270   8.795   2.562   7.658  0.1264  0.6251 -0.3092
  495MOL0     C65271   8.836   2.663   7.561  0.2965  0.6293  0.7183
  495MOL0     C65272   8.852   2.750   7.479  0.0717 -0.5747 -0.8729
  495MOL0     C65273   8.684   2.050   7.881 -0.6755  0.0104 -0.2368
  495MOL0     C65274   8.714   1.938   7.962  0.9928 -0.1114 -1.0884
  495MOL0     H65275   8.741   1.450   8.121 -2.0523  2.6946 -1.3152
  495MOL0     H65276   8.747   1.246   8.270  1.0758  0.9594  2.6302
  495MOL0     H65277   8.718   1.280   8.570 -2.1370  1.7461  2.2990
  495MOL0     H65278   8.708   1.098   8.559 -0.4050 -0.3521 -0.1362
  495MOL0     H65279   8.489   1.286   8.671  0.9285  0.1888 -0.1463
  495MOL0     H65280   8.610   1.207   8.779  0.9435  0.3631 -0.1805
  495MOL0     H65281   8.519   0.989   8.701 -1.8446 -1.1415  3.9351
  495MOL0     H65282   8.405   1.066   8.590 -0.9490 -2.2832  0.2177
  495MOL0     H65283   8.414   1.050   8.888  0.2413 -3.4007 -1.6188
  495MOL0     H65284   8.339   1.199   8.820  2.1984  0.0561  0.7058
  495MOL0     H65285   8.168   1.025   8.874 -1.8861 -0.0719 -1.8862
  495MOL0     H65286   8.235   0.928   8.746 -2.5723 -0.8427  0.6885
  495MOL0     H65287   8.207   1.112   8.594  1.4106  0.5290  0.5959
  495MOL0     H65288   8.143   1.227   8.719  0.6614 -1.1047  3.7895
  495MOL0     H65289   8.032   0.967   8.621  2.1848  0.0427  2.1302
  495MOL0     H65290   7.953   1.040   8.759 -1.0424 -0.5054  0.1507
  495MOL0     H65291   7.874   1.232   8.638 -2.1038  1.3156 -3.6568
  495MOL0     H65292   7.821   1.083   8.582 -0.2726  0.6767  2.1722
  495MOL0     H65293   8.131   1.307   8.458 -2.5637  4.3328 -2.1915
  495MOL0     H65294   8.215   1.383   8.227 -0.2268  1.2926 -2.7719
  495MOL0     H65295   8.075   1.388   8.118  1.5546  2.2978  0.5455
  495MOL0     H65296   8.162   1.166   8.045 -2.6874  3.4308 -1.3940
  495MOL0     H65297   8.275   1.172   8.182  2.2512  3.1261  0.5783
  495MOL0     H65298   8.400   1.350   8.075 -0.4217  0.2382  0.9691
  495MOL0     H65299   8.371   1.226   7.945  0.4983  1.9281 -0.9807
  495MOL0     H65300   8.342   1.436   7.841  0.1651 -0.6241  0.5564
  495MOL0     H65301   8.276   1.515   7.968 -2.3205  0.2986  0.5784
  495MOL0     H65302   7.908   1.469   7.777  0.7677 -0.5561 -0.0207
  495MOL0     H65303   7.799   1.350   7.591 -1.6631 -3.2987  0.8256
  495MOL0     H65304   7.781   0.929   7.281  0.2906  0.3087  1.9101
  495MOL0     H65305   7.639   0.882   7.104  1.7956 -0.1411 -3.9061
  495MOL0     H65306   7.546   0.901   6.912  0.5390  2.2114 -1.1177
  495MOL0     H65307   7.424   0.967   6.801 -0.4302 -0.4322 -0.2601
  495MOL0     H65308   7.370   0.845   7.076 -1.3689  3.8887  1.3048
  495MOL0     H65309   7.323   0.765   6.921 -1.2886  0.6279 -0.7460
  495MOL0     H65310   7.189   0.973   6.865 -2.2627 -0.1421  0.7379
  495MOL0     H65311   7.219   1.039   7.013  3.1146  0.4323 -0.0954
  495MOL0     H65312   7.105   0.758   6.999 -2.7748  0.7552 -3.1510
  495MOL0     H65313   7.093   0.859   7.137  4.0205  0.9895 -0.8330
  495MOL0     H65314   6.890   0.851   6.935  0.3790  1.0539 -0.9818
  495MOL0     H65315   6.976   1.003   6.933  0.5785 -0.1550  2.0941
  495MOL0     H65316   6.859   0.901   7.195  1.8510 -0.3175  1.2150
  495MOL0     H65317   6.759   0.953   7.073  0.3479 -0.0017  0.4891
  495MOL0     H65318   6.876   1.179   7.076 -1.8508  0.8272  1.3385
  495MOL0     H65319   6.773   1.128   7.199 -2.0230 -2.2836 -3.3486
  495MOL0     H65320   7.079   1.161   7.213 -1.1357 -0.0893 -0.5741
  495MOL0     H65321   7.013   1.038   7.317 -0.9717 -0.1760 -0.0594
  495MOL0     H65322   7.458   1.274   7.147 -1.1603 -1.3516 -0.2360
  495MOL0     H65323   7.577   1.298   7.358  3.2942  0.4488 -0.2293
  495MOL0     H65324   8.160   1.122   7.526 -0.7798  0.6364 -1.6509
  495MOL0     H65325   8.264   1.228   7.726 -0.0097  1.3995  0.7112
  495MOL0     H65326   8.386   1.377   8.461 -1.2444 -0.1380 -2.5842
  495MOL0     H65327   8.391   1.594   8.316  3.5108  2.5408 -1.0455
  495MOL0     H65328   8.408   1.793   7.956 -2.2781  2.2127 -0.6334
  495MOL0     H65329   8.354   1.990   7.851 -1.0886  1.2514  2.2980
  495MOL0     H65330   8.520   2.264   7.594 -1.0338 -2.0074  0.3610
  495MOL0     H65331   8.645   2.161   7.628 -1.0727  0.6258 -1.8471
  495MOL0     H65332   8.608   2.421   7.798 -0.6650 -1.2066  0.3162
  495MOL0     H65333   8.751   2.335   7.781 -1.0926  0.4834  0.8111
  495MOL0     H65334   8.594   2.516   7.598 -0.2224  0.3195  3.9802
  495MOL0     H65335   8.716   2.404   7.521 -1.0059 -3.3874  1.2861
  495MOL0     H65336   8.761   2.620   7.744  1.3610  1.0794 -0.0992
  495MOL0     H65337   8.888   2.518   7.696 -1.3625 -0.6837  2.0199
  495MOL0     H65338   8.849   2.826   7.404 -3.4140  0.2021 -0.1163
  495MOL0     H65339   8.762   2.118   7.848 -0.8885  0.6584  0.5473
  495MOL0     H65340   8.811   1.932   8.011 -0.0179 -2.3568  0.8491
  496MOL0     O65341  10.008   8.044   5.515 -0.4390  0.0523 -0.3159
  496MOL0     C65342   9.948   8.096   5.422  0.9067 -1.3597 -0.9478
  496MOL0     O65343   9.823   8.147   5.431 -0.3026 -0.6029  0.4996
  496MOL0     C65344   9.734   8.114   5.529 -0.1240  0.6433 -0.0130
  496MOL0     C65345   9.724   7.978   5.576  0.3283 -0.1994  0.2502
  496MOL0     C65346   9.625   7.943   5.668 -0.1444  0.4996 -0.6253
  496MOL0     C65347   9.548   8.041   5.719  0.0958  0.1905 -0.3758
  496MOL0     O65348   9.443   8.017   5.809 -0.3346 -0.3136  0.1397
  496MOL0     C65349   9.369   7.895   5.782  0.6643  0.6767 -0.6164
  496MOL0     C65350   9.237   7.903   5.857 -0.0064  0.3316  0.3143
  496MOL0     C65351   9.154   7.779   5.851  0.6623 -0.0099  0.3365
  496MOL0     C65352   9.023   7.815   5.917  0.6926  0.3719  0.5568
  496MOL0     C65353   8.926   7.706   5.876 -0.0272 -0.3491 -0.1758
  496MOL0     C65354   8.780   7.730   5.931 -0.7537 -0.2511 -0.1016
  496MOL0     C65355   8.686   7.614   5.886 -0.2246 -0.8413  0.3537
  496MOL0     C65356   8.649   7.636   5.740 -0.0054  0.4073  0.2512
  496MOL0     N65357   8.564   7.526   5.689  0.8388  0.4815 -0.2160
  496MOL0     C65358   8.427   7.519   5.707 -0.4417  0.0543 -0.2909
  496MOL0     C65359   8.401   7.396   5.660 -0.3961  0.9332 -0.2675
  496MOL0     C65360   8.255   7.351   5.647  0.3059 -0.1411  0.4179
  496MOL0     C65361   8.166   7.447   5.566 -0.5129 -0.0824 -0.3332
  496MOL0     C65362   8.227   7.480   5.429  0.0632  0.2459 -0.2816
  496MOL0     C65363   8.127   7.531   5.332  0.0037  0.0356  0.3409
  496MOL0     O65364   8.030   7.432   5.294  0.3610 -0.0168 -0.1595
  496MOL0     C65365   7.901   7.445   5.326  0.3294 -0.8233 -0.6291
  496MOL0     C65366   7.828   7.326   5.354  0.0086 -0.3979  0.0405
  496MOL0     C65367   7.692   7.339   5.397 -0.3462 -0.4116 -0.1901
  496MOL0     C65368   7.630   7.470   5.401 -0.6172 -0.0560  0.4622
  496MOL0     C65369   7.489   7.495   5.424 -1.2450  0.7872  0.0533
  496MOL0     O65370   7.427   7.423   5.527 -0.5528  0.2037  0.4844
  496MOL0     C65371   7.314   7.491   5.560 -0.6155  0.5472 -0.2774
  496MOL0     C65372   7.190   7.452   5.516  0.7953 -0.8043  0.3264
  496MOL0     C65373   7.072   7.510   5.575 -0.0660  0.0249 -0.1655
  496MOL0     C65374   7.076   7.610   5.673  0.0437  0.4286  0.5095
  496MOL0     O65375   6.965   7.673   5.729  0.2264 -0.1315  0.0181
  496MOL0     C65376   6.845   7.638   5.665 -0.8271  0.1887 -0.6355
  496MOL0     C65377   6.742   7.745   5.705  0.7940 -0.7584  0.4511
  496MOL0     C65378   6.608   7.680   5.740  0.0971 -0.2101 -0.0307
  496MOL0     C65379   6.509   7.795   5.785 -1.2670 -0.4872  0.5184
  496MOL0     C65380   6.491   7.789   5.934  0.2827 -0.1406 -1.0645
  496MOL0     C65381   6.424   7.912   5.993 -0.1878  0.2268  0.1686
  496MOL0     C65382   6.403   7.908   6.148  0.4037  0.2461  1.1991
  496MOL0     C65383   6.260   7.916   6.192 -0.0160  0.5873  0.1508
  496MOL0    Cl65384   6.252   7.900   6.363 -0.2440  0.5153  0.0617
  496MOL0     C65385   7.199   7.653   5.706 -0.8133 -0.2556  0.3729
  496MOL0     C65386   7.321   7.598   5.647 -0.0242 -0.3176 -0.9220
  496MOL0     O65387   7.440   7.575   5.350 -1.0394  0.4823  0.7745
  496MOL0     C65388   7.697   7.576   5.343  0.5413  0.2701 -0.3587
  496MOL0     C65389   7.829   7.563   5.312  0.0533 -0.2811  0.5156
  496MOL0     N65390   8.509   7.343   5.590  0.5961  0.0175 -0.2177
  496MOL0     N65391   8.606   7.420   5.625  0.1492  0.7232  0.1889
  496MOL0     C65392   9.564   8.180   5.684 -0.6082  0.5609  0.2380
  496MOL0     C65393   9.654   8.219   5.579  0.8397 -0.2270  0.2349
  496MOL0     C65394  10.013   8.103   5.291  0.2001  1.0343  0.0380
  496MOL0     C65395   9.938   8.107   5.177  0.7680  1.2263  0.2769
  496MOL0     C65396   9.991   8.123   5.050 -0.1117  0.2188 -0.0141
  496MOL0     C65397  10.131   8.134   5.038  0.6409 -0.2174 -0.3004
  496MOL0     O65398  10.206   8.161   4.933  0.0677  0.1159  0.8860
  496MOL0     C65399  10.174   8.275   4.849 -0.1259  0.7864 -0.3739
  496MOL0     C65400  10.292   8.371   4.859 -0.2213  0.0974  0.2622
  496MOL0     C65401  10.259   8.501   4.935 -0.0724  0.5434 -0.2352
  496MOL0     C65402  10.384   8.558   5.017  1.1467  0.9204 -0.1709
  496MOL0     C65403  10.496   8.564   4.922 -0.4696  0.8753 -0.7306
  496MOL0     C65404  10.594   8.569   4.846  0.7552  0.3776  0.1114
  496MOL0     C65405  10.213   8.122   5.149  0.4952 -1.0198 -0.8831
  496MOL0     C65406  10.150   8.104   5.273 -0.1978  0.2474 -0.7162
  496MOL0     H65407   9.794   7.898   5.554 -0.0315 -0.8897  1.5103
  496MOL0     H65408   9.613   7.838   5.692 -4.0620  0.9356 -0.0486
  496MOL0     H65409   9.429   7.814   5.825 -0.8013  0.6050  1.4729
  496MOL0     H65410   9.349   7.876   5.677  0.6985 -0.3132 -0.4509
  496MOL0     H65411   9.187   7.995   5.827  0.3740  1.0632  1.8469
  496MOL0     H65412   9.269   7.911   5.961 -2.1235 -0.3614  1.0747
  496MOL0     H65413   9.208   7.697   5.899  0.7152 -0.0509  0.2083
  496MOL0     H65414   9.147   7.745   5.747  0.6723  1.0304 -0.0178
  496MOL0     H65415   9.047   7.812   6.023  0.3591  1.0492  0.6533
  496MOL0     H65416   8.982   7.913   5.892 -2.3743 -0.5422  1.5562
  496MOL0     H65417   8.951   7.603   5.903 -0.0814 -0.8237 -1.7883
  496MOL0     H65418   8.922   7.697   5.767 -0.5831 -1.8981 -0.0582
  496MOL0     H65419   8.756   7.832   5.898  1.4459  0.3620  0.0372
  496MOL0     H65420   8.798   7.726   6.039  3.9283 -0.1258 -0.6657
  496MOL0     H65421   8.727   7.514   5.904 -0.6810 -0.9840  0.6125
  496MOL0     H65422   8.588   7.627   5.933 -1.3422 -0.3176 -1.9711
  496MOL0     H65423   8.740   7.651   5.680  0.3910  5.6990  1.7392
  496MOL0     H65424   8.581   7.720   5.727 -3.9072 -2.8778 -4.4084
  496MOL0     H65425   8.370   7.594   5.760 -1.6815 -2.0113  1.5048
  496MOL0     H65426   8.218   7.347   5.749  1.2892 -0.0549  0.7904
  496MOL0     H65427   8.240   7.249   5.612 -3.4015  0.5270 -0.3361
  496MOL0     H65428   8.148   7.543   5.615  2.2056  1.0962 -1.4652
  496MOL0     H65429   8.071   7.393   5.559  0.2444 -1.4355 -0.5675
  496MOL0     H65430   8.308   7.552   5.442  0.3165  0.7868 -3.8829
  496MOL0     H65431   8.273   7.387   5.394 -0.8323 -2.0485  3.9507
  496MOL0     H65432   8.192   7.569   5.253 -1.1000  1.0799 -0.0904
  496MOL0     H65433   8.072   7.620   5.364 -0.7824 -0.5768  0.7447
  496MOL0     H65434   7.885   7.234   5.350  0.9214  0.1706 -3.7861
  496MOL0     H65435   7.632   7.252   5.422 -0.4976  0.8852  4.9088
  496MOL0     H65436   7.191   7.376   5.439  1.9214 -0.3036 -0.1885
  496MOL0     H65437   6.978   7.473   5.536  0.3844  0.2871 -1.5464
  496MOL0     H65438   6.801   7.541   5.691  0.3223 -0.5543 -1.3794
  496MOL0     H65439   6.850   7.640   5.556  0.7328  1.5399 -0.5699
  496MOL0     H65440   6.744   7.815   5.620  1.7850  1.7492  2.4081
  496MOL0     H65441   6.773   7.794   5.797  2.5441 -0.7344 -0.1043
  496MOL0     H65442   6.618   7.606   5.821 -0.8954  0.0924  0.3901
  496MOL0     H65443   6.562   7.637   5.650 -0.2427  0.1022 -0.0085
  496MOL0     H65444   6.550   7.893   5.759 -2.0603 -0.3718 -0.3716
  496MOL0     H65445   6.411   7.784   5.738 -1.9702 -1.5590  2.1479
  496MOL0     H65446   6.578   7.778   6.000 -2.2689 -0.8981  2.4992
  496MOL0     H65447   6.445   7.694   5.964  1.2623  0.2137  1.8604
  496MOL0     H65448   6.324   7.929   5.952  0.0312  2.1269  0.3098
  496MOL0     H65449   6.491   7.995   5.966  0.4193 -0.4415 -0.4231
  496MOL0     H65450   6.432   7.812   6.192 -3.3244 -0.8933  1.5164
  496MOL0     H65451   6.468   7.977   6.203 -1.2085  0.0422  3.5335
  496MOL0     H65452   6.215   7.820   6.165 -0.0233 -0.3216  3.0041
  496MOL0     H65453   6.205   7.996   6.142  1.4044  1.0579 -0.7183
  496MOL0     H65454   7.213   7.714   5.795 -0.5967  1.9164 -1.0516
  496MOL0     H65455   7.414   7.629   5.694  0.2272  0.4267 -1.8704
  496MOL0     H65456   7.647   7.672   5.342  0.3769  0.1844 -0.3271
  496MOL0     H65457   7.884   7.651   5.280 -1.1662  0.3154 -0.0125
  496MOL0     H65458   9.497   8.248   5.736 -6.0323 -2.3977 -2.0216
  496MOL0     H65459   9.665   8.324   5.557  2.4919  0.0145  1.9652
  496MOL0     H65460   9.830   8.100   5.182  0.7726 -3.3943 -1.4530
  496MOL0     H65461   9.925   8.121   4.964 -2.7315 -5.2103  1.6223
  496MOL0     H65462  10.079   8.315   4.885 -0.1667 -0.4073  0.9278
  496MOL0     H65463  10.162   8.249   4.744  0.8017  3.7617 -1.2999
  496MOL0     H65464  10.376   8.316   4.902 -0.1316  0.0734  0.0559
  496MOL0     H65465  10.329   8.398   4.760  0.8215  0.7019  0.7927
  496MOL0     H65466  10.173   8.474   4.998  1.3009 -2.8608  0.3829
  496MOL0     H65467  10.223   8.585   4.874 -1.7817  0.8365  1.0843
  496MOL0     H65468  10.351   8.651   5.065 -0.2027 -0.6130  2.0340
  496MOL0     H65469  10.424   8.496   5.097 -1.5937  0.3385  0.8609
  496MOL0     H65470  10.681   8.564   4.783  0.8630 -0.3922  0.3135
  496MOL0     H65471  10.321   8.129   5.140  0.5829 -0.2800  0.4083
  496MOL0     H65472  10.215   8.089   5.358 -1.4426  1.7018  0.5598
  497MOL0     O65473   7.138   3.096  10.779  0.5936  0.1277 -0.0746
  497MOL0     C65474   7.055   3.159  10.840  0.2787 -0.4666  0.1352
  497MOL0     O65475   7.065   3.296  10.870  0.7350  0.2554 -0.1276
  497MOL0     C65476   7.192   3.351  10.854 -0.0619  0.5569  0.5029
  497MOL0     C65477   7.228   3.428  10.964 -0.3113 -0.7926  0.5662
  497MOL0     C65478   7.334   3.512  10.950  0.2383  0.1362 -1.4761
  497MOL0     C65479   7.403   3.527  10.841 -0.9093  0.4266  0.2376
  497MOL0     O65480   7.509   3.618  10.832 -0.0993 -0.3377 -0.3592
  497MOL0     C65481   7.635   3.573  10.884 -0.3084  0.5802 -0.1311
  497MOL0     C65482   7.743   3.678  10.884  0.2578 -1.0698 -1.2484
  497MOL0     C65483   7.881   3.646  10.949 -0.0636  0.2028 -0.3200
  497MOL0     C65484   7.984   3.752  10.911  0.5537 -0.4743 -0.0460
  497MOL0     C65485   8.128   3.735  10.959  0.1413  0.8382 -0.8942
  497MOL0     C65486   8.218   3.853  10.923 -0.4821 -0.5821 -0.0336
  497MOL0     C65487   8.362   3.813  10.966 -0.0357 -0.1918  0.4914
  497MOL0     C65488   8.420   3.700  10.877  0.2417  0.4697  0.0458
  497MOL0     N65489   8.562   3.680  10.879 -0.1951 -0.5420 -0.5219
  497MOL0     C65490   8.650   3.755  10.816 -0.7109 -0.3315  0.0009
  497MOL0     C65491   8.770   3.684  10.841  0.3752 -0.0155  0.5921
  497MOL0     C65492   8.895   3.724  10.767  0.6071 -0.7904 -0.2228
  497MOL0     C65493   9.005   3.758  10.863 -0.1288  0.7080  0.4328
  497MOL0     C65494   9.122   3.781  10.767 -1.1731 -0.5105 -0.2796
  497MOL0     C65495   9.256   3.803  10.840  0.6138  0.3471  0.2240
  497MOL0     O65496   9.253   3.924  10.917 -0.1034  0.3728 -0.7863
  497MOL0     C65497   9.354   3.960  11.004  0.3474 -0.3974  0.0043
  497MOL0     C65498   9.338   4.063  11.095 -0.0777 -0.0660 -0.3604
  497MOL0     C65499   9.455   4.118  11.149 -0.8222 -1.2333 -0.7366
  497MOL0     C65500   9.590   4.065  11.132 -0.3097 -0.1185 -0.1684
  497MOL0     C65501   9.715   4.124  11.187 -0.5439  0.0835  0.5994
  497MOL0     O65502   9.833   4.087  11.130 -0.0718 -0.9838  0.5296
  497MOL0     C65503   9.955   4.146  11.165 -0.2373  0.5256 -1.0290
  497MOL0     C65504  10.047   4.159  11.060  0.1319 -0.9307 -1.1926
  497MOL0     C65505  10.180   4.200  11.082 -0.4975  0.6856  0.5919
  497MOL0     C65506  10.225   4.220  11.208  0.6445 -0.1691 -0.7729
  497MOL0     O65507  10.349   4.260  11.241  0.2098 -0.0773 -0.3474
  497MOL0     C65508  10.466   4.213  11.170  1.7219 -0.2820  0.8100
  497MOL0     C65509  10.590   4.273  11.236  0.9474  0.2189 -0.5910
  497MOL0     C65510  10.611   4.240  11.387 -0.3778  0.6105 -0.4018
  497MOL0     C65511  10.756   4.288  11.431  0.3298 -0.4622  0.6220
  497MOL0     C65512  10.852   4.183  11.384 -1.2110 -0.4000  0.5438
  497MOL0     C65513  10.997   4.220  11.414  1.0354  0.5604 -0.1924
  497MOL0     C65514  11.097   4.117  11.355 -0.6094  1.4822 -0.3245
  497MOL0     C65515  11.229   4.187  11.331  0.6356  0.5981  0.5043
  497MOL0    Cl65516  11.310   4.228  11.481 -0.7100 -0.0946  0.0362
  497MOL0     C65517  10.130   4.209  11.313  0.9731 -0.3616  0.8081
  497MOL0     C65518   9.998   4.162  11.296  0.3519 -0.0906 -0.7272
  497MOL0     O65519   9.692   4.193  11.282  0.1091  0.3906 -0.7201
  497MOL0     C65520   9.600   3.955  11.050 -0.2049 -0.7526  0.7803
  497MOL0     C65521   9.486   3.913  10.975  0.3916 -1.0380 -0.2763
  497MOL0     N65522   8.735   3.575  10.918 -0.9755  0.2296 -0.1899
  497MOL0     N65523   8.608   3.566  10.935 -0.2092 -0.0104 -0.6695
  497MOL0     C65524   7.375   3.449  10.726  0.0175 -1.0813 -0.1123
  497MOL0     C65525   7.269   3.362  10.737 -0.1304  0.3700 -0.7741
  497MOL0     C65526   6.929   3.096  10.867  0.2917  0.0456  0.7015
  497MOL0     C65527   6.815   3.177  10.886  0.0006 -0.4244 -0.0464
  497MOL0     C65528   6.694   3.114  10.922  0.0989 -0.4872 -0.1105
  497MOL0     C65529   6.690   2.979  10.956  0.6682 -0.1428 -0.3818
  497MOL0     O65530   6.577   2.917  11.002 -0.5824 -0.0054  0.2198
  497MOL0     C65531   6.489   2.976  11.086 -0.5904 -0.9447  0.4787
  497MOL0     C65532   6.403   2.863  11.152  0.4997 -0.7409 -0.6594
  497MOL0     C65533   6.363   2.891  11.303 -0.1901 -0.2875 -0.0017
  497MOL0     C65534   6.243   2.995  11.315 -0.6716  0.4971  0.2118
  497MOL0     C65535   6.128   2.941  11.248  0.2803  0.0151 -0.2745
  497MOL0     C65536   6.031   2.895  11.192  1.1499  0.1948 -1.4805
  497MOL0     C65537   6.803   2.903  10.930 -0.2796 -0.2303 -0.4422
  497MOL0     C65538   6.922   2.959  10.887  0.1323  0.0988  0.8358
  497MOL0     H65539   7.163   3.426  11.051 -1.1057 -1.1145 -0.0295
  497MOL0     H65540   7.365   3.564  11.041  0.0962 -2.4203  0.1396
  497MOL0     H65541   7.668   3.485  10.828 -0.3749  0.9242 -0.7146
  497MOL0     H65542   7.615   3.539  10.986 -3.4319  2.0925 -0.1366
  497MOL0     H65543   7.702   3.771  10.926 -4.7941 -2.8211 -1.5377
  497MOL0     H65544   7.744   3.712  10.780 -0.4940  3.4605  0.0131
  497MOL0     H65545   7.922   3.546  10.932 -0.2253 -0.4327  2.5044
  497MOL0     H65546   7.861   3.647  11.057  1.4399  1.7453 -0.0056
  497MOL0     H65547   7.974   3.777  10.805  1.6907  7.9296  1.1344
  497MOL0     H65548   7.949   3.843  10.961  1.3844 -0.2220  0.0897
  497MOL0     H65549   8.165   3.645  10.909  1.0822  0.5145  0.3502
  497MOL0     H65550   8.133   3.713  11.066  2.6488  1.9754 -0.7041
  497MOL0     H65551   8.184   3.940  10.979  0.5779 -1.5788  2.2631
  497MOL0     H65552   8.215   3.862  10.814  1.4344  0.0001 -0.0671
  497MOL0     H65553   8.427   3.900  10.956  1.4504 -1.5220 -3.0728
  497MOL0     H65554   8.364   3.779  11.070  1.4437  0.6452  0.7690
  497MOL0     H65555   8.392   3.732  10.776 -1.3948  1.5875  0.7972
  497MOL0     H65556   8.362   3.608  10.885  2.0763 -1.4071 -4.6195
  497MOL0     H65557   8.630   3.853  10.772 -3.1307 -1.1820 -1.0064
  497MOL0     H65558   8.874   3.812  10.706 -0.7259 -1.3403 -0.6064
  497MOL0     H65559   8.923   3.645  10.696  1.7674  2.1583 -3.2803
  497MOL0     H65560   9.024   3.662  10.913 -1.1570  0.2830  0.0390
  497MOL0     H65561   8.992   3.838  10.936 -1.6688 -1.2830  2.4959
  497MOL0     H65562   9.150   3.689  10.715 -0.4877 -1.8323  2.2330
  497MOL0     H65563   9.121   3.869  10.703  0.7280 -0.4580 -0.2938
  497MOL0     H65564   9.341   3.813  10.771 -1.1973  0.2655 -2.1638
  497MOL0     H65565   9.282   3.721  10.907 -0.2735  0.2512  0.4537
  497MOL0     H65566   9.238   4.102  11.108 -0.7774 -0.5463 -3.4961
  497MOL0     H65567   9.448   4.207  11.211  2.4624  0.6675 -2.7958
  497MOL0     H65568   9.999   4.154  10.963 -2.3551 -1.9331  0.0108
  497MOL0     H65569  10.245   4.200  10.994 -0.7932  0.4652  0.3693
  497MOL0     H65570  10.469   4.242  11.064 -3.3025  0.3113  0.5802
  497MOL0     H65571  10.450   4.105  11.166  2.3657 -0.3611  0.0410
  497MOL0     H65572  10.591   4.382  11.232  1.0123  0.2669  0.4552
  497MOL0     H65573  10.669   4.245  11.165 -0.4908  1.1630 -2.6533
  497MOL0     H65574  10.602   4.133  11.404 -0.2101  1.1145  3.9303
  497MOL0     H65575  10.537   4.292  11.450  0.3845  0.4742  0.6258
  497MOL0     H65576  10.776   4.387  11.390 -2.8085 -0.2016 -0.6243
  497MOL0     H65577  10.772   4.307  11.537  4.5643 -2.6445  0.5699
  497MOL0     H65578  10.830   4.168  11.278 -1.6187 -0.8366  0.6877
  497MOL0     H65579  10.825   4.093  11.438  1.4840 -2.1868 -0.8436
  497MOL0     H65580  11.023   4.238  11.518  1.2053 -1.1029  0.0896
  497MOL0     H65581  11.004   4.313  11.356 -2.9626  1.1456  0.0036
  497MOL0     H65582  11.118   4.037  11.427 -1.0730  2.5748  1.0707
  497MOL0     H65583  11.056   4.068  11.266 -0.3261 -1.6601  1.1165
  497MOL0     H65584  11.212   4.278  11.272 -0.3256  0.9201  1.2455
  497MOL0     H65585  11.283   4.109  11.276 -1.6769 -0.1385 -0.8714
  497MOL0     H65586  10.146   4.239  11.416  0.9791  1.3368  0.3450
  497MOL0     H65587   9.927   4.145  11.376  0.5223  0.6918 -0.3968
  497MOL0     H65588   9.690   3.911  11.008 -1.9535 -1.1531 -2.8867
  497MOL0     H65589   9.504   3.846  10.891  1.4095  0.9271 -1.7363
  497MOL0     H65590   7.438   3.451  10.638 -0.2277 -0.3137 -0.2868
  497MOL0     H65591   7.235   3.303  10.652  0.4585  0.2666 -0.9420
  497MOL0     H65592   6.810   3.281  10.852  0.0436 -0.2613  0.4428
  497MOL0     H65593   6.602   3.167  10.902 -0.4666 -0.8871  1.2889
  497MOL0     H65594   6.425   3.046  11.031 -0.5188 -1.0236  0.2909
  497MOL0     H65595   6.542   3.053  11.143  1.8631  1.7438 -4.7334
  497MOL0     H65596   6.317   2.847  11.087 -0.6739 -0.5432  0.7836
  497MOL0     H65597   6.463   2.772  11.164  0.2029 -0.6443  2.6956
  497MOL0     H65598   6.454   2.938  11.342 -0.6793  2.4815 -1.9032
  497MOL0     H65599   6.333   2.801  11.358 -2.2183 -0.9636 -2.0444
  497MOL0     H65600   6.218   3.016  11.419 -0.4549 -2.7361  1.0354
  497MOL0     H65601   6.273   3.091  11.271 -2.7421  0.3575 -1.6664
  497MOL0     H65602   5.943   2.854  11.147  0.6093 -0.1950 -0.1138
  497MOL0     H65603   6.807   2.796  10.950 -0.4727  0.0363  1.1784
  497MOL0     H65604   7.009   2.893  10.890  0.0697  0.0173  3.1122
  498MOL0     O65605   7.164   0.743   4.316 -0.3410 -0.3799 -0.3555
  498MOL0     C65606   7.195   0.694   4.209 -0.4921  0.1429  0.5450
  498MOL0     O65607   7.264   0.761   4.109  0.2775  0.0715  0.0087
  498MOL0     C65608   7.290   0.894   4.114  0.9391 -0.3247 -1.3142
  498MOL0     C65609   7.261   0.970   3.995  0.2560 -0.4744 -0.1331
  498MOL0     C65610   7.313   1.100   3.987 -0.1367 -0.2110  0.1283
  498MOL0     C65611   7.374   1.153   4.102  0.0881 -0.1162  0.4222
  498MOL0     O65612   7.446   1.270   4.098 -0.1029  0.1436  0.9883
  498MOL0     C65613   7.555   1.263   4.015  0.1639  1.0512  0.1952
  498MOL0     C65614   7.639   1.382   4.019  0.4553 -0.0530 -0.1765
  498MOL0     C65615   7.780   1.336   3.968  0.2508 -0.1846 -0.0394
  498MOL0     C65616   7.875   1.456   3.998 -1.1250 -1.1105 -0.8799
  498MOL0     C65617   8.027   1.432   3.988 -0.0880 -1.3974  0.4129
  498MOL0     C65618   8.083   1.467   3.850  0.3469 -0.1638  0.0494
  498MOL0     C65619   8.217   1.402   3.827 -0.9470  0.2586 -0.3664
  498MOL0     C65620   8.322   1.494   3.882  0.8703 -0.6545  0.1046
  498MOL0     N65621   8.431   1.426   3.947  0.1092  0.5268  0.0777
  498MOL0     C65622   8.550   1.377   3.890  1.3244 -0.3761  1.4373
  498MOL0     C65623   8.619   1.331   4.000  0.6523  0.5395  0.4685
  498MOL0     C65624   8.762   1.285   3.986 -0.4483  0.3453 -0.7916
  498MOL0     C65625   8.871   1.402   3.982  0.6568 -0.1167 -0.4405
  498MOL0     C65626   8.860   1.471   3.841  0.4372  0.4496 -0.1343
  498MOL0     C65627   8.977   1.557   3.817 -0.0870 -0.7471  0.9299
  498MOL0     O65628   9.093   1.463   3.811 -0.2167 -0.2405 -0.0802
  498MOL0     C65629   9.204   1.490   3.726 -0.0995 -0.7845 -0.2260
  498MOL0     C65630   9.223   1.613   3.657  0.7232 -0.2091  0.0902
  498MOL0     C65631   9.330   1.631   3.568  0.0859 -0.2074  0.5076
  498MOL0     C65632   9.434   1.528   3.558 -0.2980  0.0239 -0.8254
  498MOL0     C65633   9.522   1.526   3.445 -0.6012  0.4933 -0.0623
  498MOL0     O65634   9.542   1.654   3.381 -0.6760  0.4730  0.5589
  498MOL0     C65635   9.650   1.663   3.295  0.0097 -0.4751  0.3830
  498MOL0     C65636   9.778   1.682   3.338 -0.3807  1.1804  0.2439
  498MOL0     C65637   9.886   1.723   3.254  0.8478 -0.7639 -0.3813
  498MOL0     C65638   9.867   1.766   3.125  0.7267 -0.5772  0.9712
  498MOL0     O65639   9.978   1.803   3.050 -0.5793 -0.1053 -0.5230
  498MOL0     C65640   9.955   1.842   2.913  1.4078 -0.4290  0.0346
  498MOL0     C65641  10.080   1.877   2.837 -0.2441 -0.2113 -0.3279
  498MOL0     C65642  10.072   1.860   2.685 -0.1076 -0.8846  0.4885
  498MOL0     C65643  10.211   1.839   2.626  0.6180  0.7863 -0.1991
  498MOL0     C65644  10.208   1.830   2.472  0.1182 -0.3207  0.0092
  498MOL0     C65645  10.343   1.852   2.414 -0.5732  0.3311 -0.0918
  498MOL0     C65646  10.320   1.865   2.261  1.0928  0.5081 -0.4852
  498MOL0     C65647  10.461   1.892   2.205 -0.1281 -0.2120 -0.6395
  498MOL0    Cl65648  10.557   1.745   2.161 -0.0419 -0.2955 -0.1456
  498MOL0     C65649   9.734   1.741   3.074  0.2962  1.0699  0.5860
  498MOL0     C65650   9.623   1.702   3.157  0.1555  0.1413  0.1800
  498MOL0     O65651   9.573   1.418   3.410 -0.2817  0.2916  0.0341
  498MOL0     C65652   9.410   1.411   3.630 -0.1691 -0.4376  0.5703
  498MOL0     C65653   9.298   1.391   3.706 -0.1760  0.3829 -0.0028
  498MOL0     N65654   8.545   1.345   4.114  0.5710 -0.3840  0.0364
  498MOL0     N65655   8.425   1.392   4.079 -0.5267 -0.2023 -0.9619
  498MOL0     C65656   7.383   1.083   4.219  0.5526  1.0841 -0.4699
  498MOL0     C65657   7.350   0.946   4.224  0.0214  0.1401  1.0024
  498MOL0     C65658   7.171   0.554   4.173  0.1616 -1.5832  0.2721
  498MOL0     C65659   7.061   0.479   4.230 -0.1653 -0.4209  0.2609
  498MOL0     C65660   7.030   0.349   4.188 -0.9495 -0.5498 -0.6350
  498MOL0     C65661   7.117   0.277   4.106 -0.3208  0.1252 -0.9805
  498MOL0     O65662   7.100   0.149   4.062 -0.5720  0.1127 -0.3031
  498MOL0     C65663   6.978   0.075   4.080  0.2771 -1.0653 -0.6686
  498MOL0     C65664   6.864   0.115   4.000  0.5765 -0.3325  0.3961
  498MOL0     C65665   6.893   0.093   3.853 -0.2655  0.7004 -0.9208
  498MOL0     C65666   6.765   0.079   3.771 -0.1624  0.3920  0.4935
  498MOL0     C65667   6.700   0.200   3.729  0.1962  0.4452 -0.5812
  498MOL0     C65668   6.658   0.303   3.688 -0.1400  0.2775  0.9927
  498MOL0     C65669   7.223   0.353   4.054  0.4794  0.1992 -0.3456
  498MOL0     C65670   7.243   0.487   4.078  0.1745 -0.4059  0.0196
  498MOL0     H65671   7.195   0.925   3.921 -2.0874  0.3462  1.3428
  498MOL0     H65672   7.317   1.150   3.891  1.1132 -1.0945 -0.3057
  498MOL0     H65673   7.524   1.237   3.913 -0.2158  2.3679 -0.0373
  498MOL0     H65674   7.620   1.182   4.050 -0.9224  0.4147  0.7907
  498MOL0     H65675   7.654   1.414   4.122  1.0193 -2.7981  0.6743
  498MOL0     H65676   7.586   1.447   3.948  1.8651 -0.9634 -2.1585
  498MOL0     H65677   7.774   1.329   3.859 -1.5636 -0.7989  0.0613
  498MOL0     H65678   7.814   1.239   4.006  3.0379  0.8772  0.4378
  498MOL0     H65679   7.843   1.551   3.953 -1.2030 -0.4721  0.4611
  498MOL0     H65680   7.865   1.487   4.103  3.9730 -1.3339 -0.0765
  498MOL0     H65681   8.044   1.328   4.018 -0.7486 -1.6915 -0.2108
  498MOL0     H65682   8.097   1.488   4.051  2.5493 -2.3772 -1.4338
  498MOL0     H65683   8.096   1.574   3.834  0.1133 -0.1841 -0.2817
  498MOL0     H65684   8.004   1.443   3.778  0.8914 -2.0724  0.0254
  498MOL0     H65685   8.214   1.315   3.893 -1.5691  1.8680  1.8598
  498MOL0     H65686   8.246   1.378   3.724  0.7858 -1.1009  0.3807
  498MOL0     H65687   8.289   1.561   3.962 -2.4196  2.3836 -3.4283
  498MOL0     H65688   8.357   1.559   3.802 -1.7851  2.4999  1.2867
  498MOL0     H65689   8.589   1.380   3.789  2.3741 -0.6222  1.8162
  498MOL0     H65690   8.774   1.215   3.902  0.2815  0.9574 -1.2144
  498MOL0     H65691   8.796   1.216   4.064  1.7769 -0.8188 -2.6422
  498MOL0     H65692   8.971   1.364   4.007  0.2545  0.6166  2.6617
  498MOL0     H65693   8.842   1.480   4.053 -2.0576  1.4262 -3.0259
  498MOL0     H65694   8.838   1.391   3.769 -2.0524  0.9382 -0.0115
  498MOL0     H65695   8.767   1.528   3.836  0.8819  1.1086 -3.4468
  498MOL0     H65696   8.991   1.643   3.882  1.1608  0.5909 -0.9937
  498MOL0     H65697   8.943   1.597   3.721 -0.7492  1.4224  2.0138
  498MOL0     H65698   9.150   1.693   3.668 -1.1621 -2.0462  1.8931
  498MOL0     H65699   9.342   1.721   3.509 -1.6144  0.4119  1.0569
  498MOL0     H65700   9.806   1.647   3.437 -0.5895  0.5516  0.0833
  498MOL0     H65701   9.982   1.728   3.304 -0.0404  2.7070  1.3408
  498MOL0     H65702   9.899   1.936   2.912  0.8179 -0.7671 -1.6143
  498MOL0     H65703   9.886   1.771   2.865 -3.2827  2.5148  1.7504
  498MOL0     H65704  10.161   1.810   2.869 -0.3789 -1.2310 -2.0254
  498MOL0     H65705  10.108   1.976   2.873  0.2138 -0.9251  1.3694
  498MOL0     H65706  10.030   1.954   2.649  0.6570  0.4796  2.9729
  498MOL0     H65707  10.008   1.774   2.662 -0.4288 -0.4579 -0.2598
  498MOL0     H65708  10.272   1.921   2.665 -1.9398  2.0922  1.3443
  498MOL0     H65709  10.252   1.748   2.671 -0.4480  0.3687 -0.0550
  498MOL0     H65710  10.137   1.901   2.429  0.2287  1.4517  2.5599
  498MOL0     H65711  10.174   1.732   2.438  1.0774 -0.4482 -0.6442
  498MOL0     H65712  10.414   1.775   2.443  0.9450  2.7519  3.3447
  498MOL0     H65713  10.374   1.949   2.456 -0.8119  0.0984  0.6366
  498MOL0     H65714  10.276   1.773   2.220  2.5941  0.7791 -2.8962
  498MOL0     H65715  10.250   1.947   2.241 -0.9226 -0.9774  0.0319
  498MOL0     H65716  10.512   1.961   2.272 -2.4163  1.2410 -0.2762
  498MOL0     H65717  10.444   1.962   2.123 -1.2579  0.5581  0.2221
  498MOL0     H65718   9.713   1.754   2.968 -0.0248 -0.3161  0.4621
  498MOL0     H65719   9.525   1.709   3.112  0.0583 -0.6922  0.2414
  498MOL0     H65720   9.461   1.318   3.605 -1.1513 -0.5891 -1.0328
  498MOL0     H65721   9.279   1.295   3.753 -2.9114  1.0713  0.4644
  498MOL0     H65722   7.432   1.140   4.298  1.3889  0.2415 -0.3675
  498MOL0     H65723   7.369   0.874   4.302  0.0095 -0.5051  0.4180
  498MOL0     H65724   6.976   0.518   4.286 -1.6316 -2.9343 -0.0858
  498MOL0     H65725   6.941   0.302   4.230 -2.2687  1.7742 -0.6660
  498MOL0     H65726   6.946   0.076   4.184  1.3260  0.0250 -0.3382
  498MOL0     H65727   7.011  -0.027   4.060  3.0139 -0.3353 -0.3172
  498MOL0     H65728   6.769   0.066   4.025  0.6335  0.0516  1.4258
  498MOL0     H65729   6.844   0.221   4.016 -1.6391 -0.8075  1.0759
  498MOL0     H65730   6.938  -0.007   3.848 -1.0568  0.1876  1.0454
  498MOL0     H65731   6.955   0.179   3.826 -3.2104  3.9965  1.8192
  498MOL0     H65732   6.779   0.031   3.673 -1.0672  2.1959 -0.5759
  498MOL0     H65733   6.702   0.014   3.833 -1.3819 -0.0472 -1.1377
  498MOL0     H65734   6.610   0.392   3.652  1.3870  0.2854 -1.2586
  498MOL0     H65735   7.266   0.307   3.966 -0.7540  1.5326 -1.6944
  498MOL0     H65736   7.320   0.537   4.019 -0.9520  1.0580 -0.2708
  499MOL0     O65737   8.710   9.340  11.035  0.4086  0.9120  0.3700
  499MOL0     C65738   8.748   9.351  11.152  1.0038 -0.0928  0.4343
  499MOL0     O65739   8.659   9.341  11.261 -0.3962  0.4870  0.4110
  499MOL0     C65740   8.536   9.293  11.227  1.5230  0.6769 -0.2132
  499MOL0     C65741   8.444   9.362  11.152 -0.3184 -0.1864  0.2203
  499MOL0     C65742   8.310   9.324  11.154 -0.6093 -0.1939 -0.0094
  499MOL0     C65743   8.274   9.201  11.202 -0.0217  0.2336 -0.4618
  499MOL0     O65744   8.147   9.153  11.179 -0.1096 -0.6288  0.3384
  499MOL0     C65745   8.061   9.131  11.287  1.1301 -0.4657  0.0333
  499MOL0     C65746   7.951   9.038  11.239 -0.0136 -0.5026  0.0867
  499MOL0     C65747   7.844   9.027  11.348  0.8316  0.6624 -0.0927
  499MOL0     C65748   7.731   8.931  11.297  0.3515  0.5138  0.1337
  499MOL0     C65749   7.599   8.948  11.368 -0.4049  0.2047  0.2152
  499MOL0     C65750   7.594   8.930  11.516 -0.0282  0.3776  0.4047
  499MOL0     C65751   7.450   8.908  11.581  0.6502 -0.2661 -0.3919
  499MOL0     C65752   7.461   8.852  11.719 -0.8677  0.2364 -1.4057
  499MOL0     N65753   7.339   8.822  11.789  0.0360 -0.0837 -0.1238
  499MOL0     C65754   7.348   8.752  11.904  0.6266 -0.4946 -0.4186
  499MOL0     C65755   7.218   8.770  11.956 -1.1520  0.5485  0.1459
  499MOL0     C65756   7.158   8.701  12.072 -0.6123  0.2068  0.1867
  499MOL0     C65757   7.160   8.547  12.064 -0.2269  0.4945 -0.7072
  499MOL0     C65758   7.123   8.480  11.925  0.3306  0.7512 -0.9196
  499MOL0     C65759   7.207   8.344  11.913 -0.1194  1.1191  0.0453
  499MOL0     O65760   7.342   8.337  11.970 -1.5577  1.2792 -0.0394
  499MOL0     C65761   7.453   8.374  11.894  0.8163  0.0974  0.0273
  499MOL0     C65762   7.587   8.372  11.958  0.0264 -0.0828 -0.5144
  499MOL0     C65763   7.703   8.388  11.880  0.1766 -0.4764  0.0695
  499MOL0     C65764   7.686   8.447  11.755  0.5725 -0.1817  1.1260
  499MOL0     C65765   7.805   8.474  11.672  0.2035 -0.4006 -0.3057
  499MOL0     O65766   7.793   8.519  11.537 -0.5370  0.4783  0.4556
  499MOL0     C65767   7.903   8.564  11.463  0.0190  0.6947  1.0586
  499MOL0     C65768   7.890   8.569  11.326 -0.4091  0.3501  1.5022
  499MOL0     C65769   7.994   8.619  11.239  0.4106 -0.3546  0.2994
  499MOL0     C65770   8.110   8.681  11.292  0.8645  0.5388  0.7384
  499MOL0     O65771   8.206   8.709  11.204 -0.1702 -0.1591  0.5591
  499MOL0     C65772   8.336   8.719  11.255  1.5394  0.7007 -0.0297
  499MOL0     C65773   8.431   8.765  11.154 -0.3620 -0.0193 -0.3735
  499MOL0     C65774   8.568   8.759  11.231 -0.7958  0.5610  0.1373
  499MOL0     C65775   8.674   8.846  11.173  0.0655  0.1473 -0.8041
  499MOL0     C65776   8.804   8.841  11.259  0.4713 -0.3803  0.0595
  499MOL0     C65777   8.796   8.899  11.398 -0.4416  1.4432 -0.1011
  499MOL0     C65778   8.937   8.938  11.453  1.2280 -0.4236  0.3448
  499MOL0     C65779   8.917   8.941  11.610 -0.5880 -0.0241 -0.1204
  499MOL0    Cl65780   8.786   9.054  11.650  0.1043  0.2803 -0.4969
  499MOL0     C65781   8.113   8.693  11.434  0.1305  0.4070 -0.2927
  499MOL0     C65782   8.012   8.639  11.517  0.9480  0.9716  0.2240
  499MOL0     O65783   7.908   8.440  11.728  0.3435  0.2273  0.2062
  499MOL0     C65784   7.554   8.465  11.700 -1.4067 -0.5183 -0.2456
  499MOL0     C65785   7.441   8.422  11.762  0.8252  0.0077  0.2905
  499MOL0     N65786   7.156   8.867  11.884  0.0779  0.2253  0.2533
  499MOL0     N65787   7.225   8.898  11.786 -0.2532 -0.4894  0.1279
  499MOL0     C65788   8.368   9.126  11.272  0.9848  0.7323 -0.1217
  499MOL0     C65789   8.502   9.161  11.280  0.8458  0.1223 -0.0680
  499MOL0     C65790   8.876   9.398  11.173  0.1282  0.3544 -0.5857
  499MOL0     C65791   8.919   9.480  11.275 -1.1474  0.5818 -0.4152
  499MOL0     C65792   9.057   9.506  11.296  0.2542  0.8606 -1.5493
  499MOL0     C65793   9.153   9.476  11.204  0.4178  0.5032 -0.3241
  499MOL0     O65794   9.284   9.505  11.236 -0.3560  0.8305  0.5319
  499MOL0     C65795   9.365   9.519  11.120  0.7729 -0.4654 -0.5096
  499MOL0     C65796   9.505   9.573  11.161 -0.0409  0.3555 -0.5677
  499MOL0     C65797   9.583   9.465  11.231 -0.1064  0.0162  0.0301
  499MOL0     C65798   9.707   9.529  11.290 -0.7039  0.6733  0.6250
  499MOL0     C65799   9.794   9.433  11.365  0.9516 -0.3220 -0.3374
  499MOL0     C65800   9.875   9.355  11.415 -0.6842 -0.2349 -0.0623
  499MOL0     C65801   9.110   9.397  11.096  0.7633 -0.7945  0.2681
  499MOL0     C65802   8.975   9.353  11.080 -0.3860 -0.3861 -0.5916
  499MOL0     H65803   8.478   9.460  11.119  1.9945 -0.8732  0.4274
  499MOL0     H65804   8.244   9.394  11.103  1.3655 -0.4720 -3.2355
  499MOL0     H65805   8.025   9.229  11.320  2.3462  0.4300 -1.2008
  499MOL0     H65806   8.105   9.082  11.374  0.7913 -0.4228  0.2304
  499MOL0     H65807   8.001   8.943  11.220  2.1607  0.3353  1.2247
  499MOL0     H65808   7.902   9.077  11.149 -0.1681  0.7746  0.7002
  499MOL0     H65809   7.809   9.128  11.373  1.3876  0.4707  1.5573
  499MOL0     H65810   7.891   8.990  11.440  2.0878 -4.0198 -2.3384
  499MOL0     H65811   7.704   8.940  11.191 -0.3962 -0.4704  0.2187
  499MOL0     H65812   7.756   8.825  11.303 -1.6214 -0.2025 -2.3932
  499MOL0     H65813   7.539   8.869  11.320  0.6440  0.7400 -2.1221
  499MOL0     H65814   7.555   9.046  11.347 -0.8759 -0.3893 -1.7640
  499MOL0     H65815   7.645   9.020  11.551 -0.1029  0.7895 -0.5198
  499MOL0     H65816   7.655   8.840  11.531 -0.6887 -0.0140  0.8078
  499MOL0     H65817   7.400   9.004  11.597  0.4072 -0.6218  1.1660
  499MOL0     H65818   7.393   8.842  11.514 -2.8171  0.5714  1.4766
  499MOL0     H65819   7.503   8.925  11.789  0.3956 -1.5413 -0.2265
  499MOL0     H65820   7.520   8.760  11.727  0.2794  0.8871 -2.1045
  499MOL0     H65821   7.418   8.670  11.917 -2.1176 -3.2785 -1.5383
  499MOL0     H65822   7.050   8.718  12.063 -0.7577 -0.2657  0.9340
  499MOL0     H65823   7.193   8.739  12.168 -1.2377  1.5188 -0.0916
  499MOL0     H65824   7.093   8.521  12.146 -0.7976  2.8461 -0.3530
  499MOL0     H65825   7.257   8.510  12.098 -0.3616 -0.9614 -1.8384
  499MOL0     H65826   7.014   8.475  11.925  0.2833  0.1330  1.8957
  499MOL0     H65827   7.155   8.548  11.845  0.3080  1.1648 -0.5808
  499MOL0     H65828   7.201   8.301  11.812 -2.4181 -1.1962  1.0553
  499MOL0     H65829   7.145   8.269  11.963  0.1581  1.3114  0.6880
  499MOL0     H65830   7.595   8.349  12.063 -1.4852  0.7464 -0.1870
  499MOL0     H65831   7.802   8.377  11.923  0.2940 -0.6583 -0.2410
  499MOL0     H65832   7.801   8.528  11.281  0.6558  1.2980 -1.7805
  499MOL0     H65833   7.990   8.598  11.133 -0.9993  0.9284  0.0687
  499MOL0     H65834   8.364   8.626  11.304 -0.2222  1.6604  3.0767
  499MOL0     H65835   8.326   8.792  11.337 -0.1691 -0.7251  1.1110
  499MOL0     H65836   8.413   8.865  11.112  1.4845  0.2266 -0.6719
  499MOL0     H65837   8.446   8.694  11.073  3.0104 -0.4822  0.4813
  499MOL0     H65838   8.597   8.654  11.222 -2.3770  0.2596 -2.2374
  499MOL0     H65839   8.554   8.783  11.337  1.8342 -2.5172  1.3611
  499MOL0     H65840   8.698   8.811  11.073 -0.4721  1.0135 -1.2524
  499MOL0     H65841   8.639   8.949  11.163 -0.1585  0.3696  1.6717
  499MOL0     H65842   8.877   8.910  11.217  0.3874 -0.9614 -1.0690
  499MOL0     H65843   8.856   8.744  11.251 -2.7670 -2.1195 -2.0349
  499MOL0     H65844   8.752   8.824  11.464  1.5393  1.3881  1.2777
  499MOL0     H65845   8.731   8.987  11.403 -1.1314  0.8681  1.6239
  499MOL0     H65846   9.010   8.858  11.439  1.7325 -0.1846  1.5183
  499MOL0     H65847   8.967   9.040  11.424  0.0782 -0.6312 -1.7854
  499MOL0     H65848   9.009   8.978  11.654  0.8927 -2.4630 -0.9212
  499MOL0     H65849   8.890   8.846  11.658 -1.3439  0.3207  0.1622
  499MOL0     H65850   8.196   8.739  11.489  1.2788 -2.9905  1.0926
  499MOL0     H65851   8.024   8.640  11.625  0.3761  1.5801  0.2928
  499MOL0     H65852   7.532   8.517  11.607 -1.9693 -1.1064 -0.4516
  499MOL0     H65853   7.357   8.433  11.693  1.6902  1.0623 -0.6470
  499MOL0     H65854   8.336   9.033  11.318  3.1775 -0.2261 -0.4332
  499MOL0     H65855   8.569   9.088  11.323  0.6833 -0.3230 -0.5613
  499MOL0     H65856   8.857   9.517  11.356  0.6833  0.3533  1.1695
  499MOL0     H65857   9.078   9.551  11.392 -3.9043 -0.8491  0.4504
  499MOL0     H65858   9.327   9.599  11.055  2.5805  0.4841 -0.4615
  499MOL0     H65859   9.388   9.425  11.069  2.6546 -1.0453  1.2718
  499MOL0     H65860   9.555   9.590  11.065  0.5736 -1.4469 -0.5916
  499MOL0     H65861   9.503   9.668  11.217  0.7686  0.3717 -0.5586
  499MOL0     H65862   9.607   9.376  11.173  1.2152 -0.6102  1.4733
  499MOL0     H65863   9.539   9.436  11.327 -3.6045  0.1286 -1.3610
  499MOL0     H65864   9.757   9.562  11.199  0.2930  0.9582  1.2597
  499MOL0     H65865   9.695   9.618  11.351 -2.7766  0.4882  0.5733
  499MOL0     H65866   9.945   9.286  11.459 -1.7052 -1.2661 -0.0271
  499MOL0     H65867   9.185   9.386  11.018  1.7476  3.2340  0.4185
  499MOL0     H65868   8.944   9.293  10.995  0.8923 -0.7373 -0.8302
  500MOL0     O65869   2.663   8.579  10.340 -0.4865 -0.3186 -0.4511
  500MOL0     C65870   2.717   8.534  10.239  0.1603 -0.4398 -0.3036
  500MOL0     O65871   2.843   8.544  10.206 -0.2260  0.2560 -0.0558
  500MOL0     C65872   2.941   8.597  10.287 -0.6055  0.4066 -0.0660
  500MOL0     C65873   3.033   8.497  10.331  0.0291  0.5018  0.1290
  500MOL0     C65874   3.151   8.547  10.386  0.8052  1.2252  0.8820
  500MOL0     C65875   3.170   8.688  10.408  0.1559 -0.5805 -0.1037
  500MOL0     O65876   3.288   8.734  10.445 -0.2341  0.2529 -0.4648
  500MOL0     C65877   3.357   8.823  10.364  0.4319 -0.1707 -0.5756
  500MOL0     C65878   3.511   8.840  10.395  0.1911 -0.2376 -0.0646
  500MOL0     C65879   3.582   8.713  10.336  0.9498 -0.7788 -1.1735
  500MOL0     C65880   3.737   8.713  10.361 -0.0301  0.0754  0.6164
  500MOL0     C65881   3.816   8.628  10.273  0.0679 -0.0393 -0.9431
  500MOL0     C65882   3.851   8.696  10.139 -0.6145 -0.2010  0.3565
  500MOL0     C65883   3.916   8.583  10.045 -0.5775  0.3094 -0.3039
  500MOL0     C65884   3.934   8.620   9.898 -0.1625 -0.4727  0.2018
  500MOL0     N65885   4.050   8.704   9.879  0.2635 -0.3742 -0.2015
  500MOL0     C65886   4.178   8.672   9.847 -0.0140 -0.3601  0.1196
  500MOL0     C65887   4.240   8.785   9.813 -0.3521  0.1761  0.5273
  500MOL0     C65888   4.387   8.800   9.759  0.3246  0.7884  0.2148
  500MOL0     C65889   4.419   8.915   9.657  1.0400  0.5045  0.1561
  500MOL0     C65890   4.564   8.936   9.646 -0.4838 -0.1038 -0.9023
  500MOL0     C65891   4.595   9.077   9.589 -0.8502 -0.7696 -0.0581
  500MOL0     O65892   4.515   9.095   9.475 -0.9140  1.1584 -0.4622
  500MOL0     C65893   4.589   9.101   9.354 -0.4552  0.9942  0.1772
  500MOL0     C65894   4.561   8.989   9.271  0.8764  0.3014 -0.5651
  500MOL0     C65895   4.621   8.979   9.151  0.2394 -0.6536  0.3533
  500MOL0     C65896   4.724   9.077   9.111  1.1151 -0.4504 -0.6686
  500MOL0     C65897   4.793   9.068   8.982 -0.3144  0.1447 -1.3890
  500MOL0     O65898   4.912   9.148   8.967  0.3799  0.5630  0.4115
  500MOL0     C65899   5.007   9.147   8.867  0.5374  0.9968 -0.1259
  500MOL0     C65900   5.004   9.064   8.750 -0.0645  0.0388  0.1761
  500MOL0     C65901   5.105   9.078   8.658 -0.2473  0.0266  0.4492
  500MOL0     C65902   5.220   9.144   8.678  0.3530 -0.1119 -0.2786
  500MOL0     O65903   5.335   9.108   8.600 -0.4986 -0.1786  0.1827
  500MOL0     C65904   5.463   9.158   8.630 -0.3684 -0.3595 -0.2483
  500MOL0     C65905   5.563   9.098   8.531  0.6059  1.3238 -0.1909
  500MOL0     C65906   5.592   8.959   8.577 -0.4154 -0.1968  0.6521
  500MOL0     C65907   5.622   8.850   8.472 -0.6896 -0.8554 -0.1255
  500MOL0     C65908   5.747   8.880   8.384 -0.3995  0.4055 -1.5284
  500MOL0     C65909   5.881   8.848   8.458  0.8280  0.7386 -1.1555
  500MOL0     C65910   6.006   8.880   8.369 -0.0524 -0.2209 -0.0351
  500MOL0     C65911   6.113   8.796   8.431 -0.3463 -0.1352  1.1912
  500MOL0    Cl65912   6.255   8.781   8.328  0.1894  0.8476  0.0553
  500MOL0     C65913   5.221   9.221   8.802  0.3205 -0.2774  0.8274
  500MOL0     C65914   5.110   9.230   8.887 -0.5261 -0.5686 -0.2330
  500MOL0     O65915   4.753   8.983   8.905  0.2158  0.4135 -0.0283
  500MOL0     C65916   4.750   9.184   9.201  0.4148  0.6185 -0.3704
  500MOL0     C65917   4.679   9.199   9.323  1.3291  0.3781  0.1676
  500MOL0     N65918   4.151   8.890   9.832 -0.2911 -0.2915  0.5812
  500MOL0     N65919   4.035   8.839   9.856 -0.1029  0.1668 -0.0758
  500MOL0     C65920   3.071   8.777  10.365 -0.3462 -0.8474  0.2542
  500MOL0     C65921   2.967   8.731  10.289 -0.2342  0.7460 -0.4152
  500MOL0     C65922   2.619   8.475  10.146 -0.4117  0.0055  0.0462
  500MOL0     C65923   2.652   8.475  10.011  0.3945  0.0972 -0.3164
  500MOL0     C65924   2.561   8.443   9.912  0.4670  0.3453  0.8999
  500MOL0     C65925   2.428   8.409   9.939  0.1635 -0.0192 -0.1968
  500MOL0     O65926   2.334   8.364   9.848 -0.3755 -0.1209  0.1214
  500MOL0     C65927   2.369   8.306   9.713 -0.7590 -0.1177 -0.1251
  500MOL0     C65928   2.244   8.279   9.633  0.2729 -0.1575 -1.4316
  500MOL0     C65929   2.271   8.227   9.489  0.1268 -0.4278  0.4846
  500MOL0     C65930   2.147   8.180   9.417  1.1631 -0.2148 -0.7105
  500MOL0     C65931   2.159   8.153   9.276 -0.5541 -0.4503 -0.8307
  500MOL0     C65932   2.189   8.120   9.164  0.1756 -0.3113 -0.1303
  500MOL0     C65933   2.394   8.405  10.079  0.3206 -0.1880 -0.3414
  500MOL0     C65934   2.483   8.446  10.180 -0.4503 -0.4671  0.3243
  500MOL0     H65935   3.010   8.393  10.307  0.9284  0.4670 -0.6192
  500MOL0     H65936   3.230   8.477  10.411 -0.3804 -1.0403 -1.1870
  500MOL0     H65937   3.312   8.923  10.375  3.5588  1.0833  3.0996
  500MOL0     H65938   3.356   8.787  10.261  0.2724 -1.0250 -0.2796
  500MOL0     H65939   3.529   8.839  10.503 -0.5584 -2.0723  0.0772
  500MOL0     H65940   3.561   8.927  10.352 -1.2206 -0.3695 -2.0669
  500MOL0     H65941   3.555   8.723  10.230 -0.6492 -1.1905 -0.8407
  500MOL0     H65942   3.538   8.625  10.384 -2.5580  1.8819  0.9779
  500MOL0     H65943   3.775   8.815  10.354 -2.5410  1.0113 -0.9728
  500MOL0     H65944   3.747   8.677  10.464 -0.8743 -2.8262 -0.2203
  500MOL0     H65945   3.767   8.531  10.257 -2.4774  0.8598  0.7532
  500MOL0     H65946   3.908   8.602  10.325 -0.2892  0.0816 -0.2294
  500MOL0     H65947   3.927   8.771  10.165 -2.1765  2.4305 -2.1597
  500MOL0     H65948   3.765   8.739  10.088 -0.2452 -2.5233 -2.5077
  500MOL0     H65949   4.013   8.572  10.094  0.4009  1.6773 -1.8318
  500MOL0     H65950   3.853   8.494  10.056 -1.1299  0.7721  0.3861
  500MOL0     H65951   3.839   8.663   9.866 -0.9467 -1.7525  0.7026
  500MOL0     H65952   3.946   8.534   9.832 -2.6639 -0.4247 -0.3825
  500MOL0     H65953   4.214   8.571   9.861 -2.0020 -1.1249  0.0519
  500MOL0     H65954   4.402   8.709   9.701 -0.1540  1.3747 -0.8608
  500MOL0     H65955   4.456   8.797   9.844  1.1160  2.2295 -0.3402
  500MOL0     H65956   4.370   9.006   9.693 -0.1425 -0.3212  0.6870
  500MOL0     H65957   4.370   8.894   9.561  0.2546  2.1098  0.1638
  500MOL0     H65958   4.613   8.930   9.744  1.8966  0.3470 -1.9799
  500MOL0     H65959   4.618   8.873   9.574  2.7981 -1.8249  2.6445
  500MOL0     H65960   4.701   9.100   9.569 -1.1565 -1.0388 -2.1761
  500MOL0     H65961   4.554   9.146   9.663  0.1143  1.5878 -1.5845
  500MOL0     H65962   4.495   8.912   9.309  2.7543 -1.3266 -0.4492
  500MOL0     H65963   4.596   8.896   9.086  1.5056 -1.0763  0.3799
  500MOL0     H65964   4.922   8.997   8.728  1.4240 -2.4328  1.6785
  500MOL0     H65965   5.096   9.012   8.572  2.4072 -3.0400  2.2733
  500MOL0     H65966   5.495   9.139   8.733  0.3342  1.6670 -0.0553
  500MOL0     H65967   5.463   9.267   8.637  0.5055 -0.3893  0.4136
  500MOL0     H65968   5.657   9.153   8.519  1.7472 -0.8730 -2.1591
  500MOL0     H65969   5.524   9.095   8.429 -0.8578 -1.2318  0.3709
  500MOL0     H65970   5.510   8.930   8.643 -2.9799  5.4178  0.4654
  500MOL0     H65971   5.680   8.969   8.640  0.1401  0.5577 -0.2236
  500MOL0     H65972   5.640   8.757   8.527 -0.0346 -1.1321 -0.7879
  500MOL0     H65973   5.545   8.831   8.396  0.1422  0.3412 -1.3310
  500MOL0     H65974   5.764   8.988   8.373  3.7315  0.3293  1.6153
  500MOL0     H65975   5.746   8.820   8.292 -0.0072 -2.3850  0.1714
  500MOL0     H65976   5.884   8.746   8.497 -0.4376  0.6847 -1.1361
  500MOL0     H65977   5.874   8.908   8.549 -2.0617  0.8196 -1.3245
  500MOL0     H65978   5.997   8.865   8.261  0.1675 -2.8441  0.2453
  500MOL0     H65979   6.030   8.985   8.385  1.3502 -0.6353  0.7605
  500MOL0     H65980   6.078   8.692   8.440  0.1504 -0.4977 -0.6459
  500MOL0     H65981   6.158   8.831   8.525  2.1376 -0.2602  0.1225
  500MOL0     H65982   5.319   9.265   8.824 -0.6132  2.9991 -0.8316
  500MOL0     H65983   5.109   9.294   8.975 -0.3179  0.5209 -1.0082
  500MOL0     H65984   4.809   9.270   9.171  0.8171  1.1920  1.8385
  500MOL0     H65985   4.695   9.281   9.392 -1.8216  0.2480  1.2033
  500MOL0     H65986   3.072   8.886  10.373 -3.3417 -0.8573  2.2975
  500MOL0     H65987   2.894   8.799  10.247 -0.0532  2.3479  1.6711
  500MOL0     H65988   2.754   8.502   9.988  0.0300  2.8805  0.9374
  500MOL0     H65989   2.600   8.436   9.811 -0.6066  2.8717  0.2318
  500MOL0     H65990   2.427   8.218   9.741  1.2453  0.7900 -1.2017
  500MOL0     H65991   2.435   8.373   9.657 -1.5538  1.9672  1.2802
  500MOL0     H65992   2.197   8.198   9.691  2.0505 -0.3284 -0.1494
  500MOL0     H65993   2.183   8.370   9.634  2.0361  1.0637 -0.6055
  500MOL0     H65994   2.347   8.149   9.492 -0.6813 -1.2264  1.0028
  500MOL0     H65995   2.309   8.310   9.429 -0.8881 -0.8102 -0.7355
  500MOL0     H65996   2.109   8.094   9.472 -0.2569  0.8642  0.0526
  500MOL0     H65997   2.083   8.267   9.430  2.6361  0.4829  3.9307
  500MOL0     H65998   2.229   8.104   9.066 -0.6732  3.5493 -1.3010
  500MOL0     H65999   2.296   8.362  10.094  0.5755 -1.4832 -2.1181
  500MOL0     H66000   2.454   8.435  10.284  0.1958 -1.2663  0.4319
  501MOL0     O66001   4.771  11.060   6.554  0.5325 -0.6113  0.2803
  501MOL0     C66002   4.730  11.119   6.453  0.2531 -0.1621 -0.5894
  501MOL0     O66003   4.642  11.224   6.465 -0.3713 -0.4648 -0.5687
  501MOL0     C66004   4.594  11.254   6.590 -0.6718 -0.7177  0.0961
  501MOL0     C66005   4.500  11.176   6.663  0.1709  0.6921  0.3223
  501MOL0     C66006   4.448  11.217   6.786 -0.0335 -0.1894 -0.8593
  501MOL0     C66007   4.507  11.324   6.841 -0.0659  0.2249  0.0825
  501MOL0     O66008   4.468  11.363   6.965 -0.3351  0.1224 -0.1473
  501MOL0     C66009   4.359  11.443   6.979  0.0950 -0.9831  0.3636
  501MOL0     C66010   4.362  11.543   7.092 -0.4442 -0.2569 -0.1495
  501MOL0     C66011   4.502  11.592   7.142 -0.0693 -0.2574 -0.1312
  501MOL0     C66012   4.497  11.695   7.257  0.6198 -0.2252 -0.1250
  501MOL0     C66013   4.637  11.742   7.274  0.3635 -0.2144  0.0676
  501MOL0     C66014   4.668  11.822   7.405 -0.3775 -0.8868 -0.2415
  501MOL0     C66015   4.824  11.858   7.410  0.1539  0.0052  0.3972
  501MOL0     C66016   4.885  11.892   7.548  0.6393 -0.1478  0.5867
  501MOL0     N66017   4.825  12.014   7.606  1.0451  0.9026 -0.1463
  501MOL0     C66018   4.792  12.119   7.533  0.5183 -0.2642  0.7183
  501MOL0     C66019   4.743  12.207   7.624 -0.1680  0.4025 -0.3891
  501MOL0     C66020   4.689  12.349   7.589  0.5477  0.2529  0.3273
  501MOL0     C66021   4.765  12.419   7.473  0.2824  0.6259 -0.3966
  501MOL0     C66022   4.896  12.481   7.510  0.2270  0.0458  0.7269
  501MOL0     C66023   4.893  12.589   7.623  0.2921 -0.7598 -0.2621
  501MOL0     O66024   4.818  12.699   7.577  0.3768 -0.1773  0.2509
  501MOL0     C66025   4.693  12.715   7.596  0.7289 -0.3152 -0.3929
  501MOL0     C66026   4.613  12.666   7.707  0.3932 -0.2235 -0.2735
  501MOL0     C66027   4.495  12.738   7.741 -0.3558 -0.7450  0.5489
  501MOL0     C66028   4.437  12.830   7.650 -1.4131  0.2431 -0.4386
  501MOL0     C66029   4.303  12.887   7.693 -0.2601  0.6326  0.6916
  501MOL0     O66030   4.246  12.823   7.791  0.6237 -0.5998 -0.2591
  501MOL0     C66031   4.116  12.869   7.827 -0.9157 -0.4342 -0.2869
  501MOL0     C66032   4.094  12.995   7.874 -0.0364  0.5462  0.2234
  501MOL0     C66033   3.959  13.037   7.902  0.4331  0.4084  0.6453
  501MOL0     C66034   3.853  12.956   7.881 -0.3772 -0.1757  0.9997
  501MOL0     O66035   3.739  13.019   7.898  0.1621  0.2945 -0.6151
  501MOL0     C66036   3.659  12.954   7.996  0.6476  0.2147  0.5414
  501MOL0     C66037   3.530  13.038   8.004  0.0252 -0.5801 -0.2447
  501MOL0     C66038   3.454  13.016   7.879  1.2861 -0.1681 -0.5858
  501MOL0     C66039   3.323  13.096   7.886  0.6060  0.7096  0.7811
  501MOL0     C66040   3.203  13.012   7.851 -1.0638 -0.2672  0.0673
  501MOL0     C66041   3.211  12.959   7.710 -0.0524 -0.1798  0.3487
  501MOL0     C66042   3.078  12.921   7.646 -0.1692  0.5012  0.2904
  501MOL0     C66043   3.037  12.774   7.678  0.5417 -0.5787  0.2499
  501MOL0    Cl66044   3.004  12.755   7.852  0.1065  0.3253 -0.7212
  501MOL0     C66045   3.875  12.832   7.829 -0.3497 -0.4942  0.7409
  501MOL0     C66046   4.005  12.790   7.799 -0.1030 -0.0771 -0.3980
  501MOL0     O66047   4.259  12.980   7.621 -0.3607  0.7074  0.8210
  501MOL0     C66048   4.509  12.861   7.529  0.1930  0.5230 -0.2808
  501MOL0     C66049   4.630  12.803   7.500 -0.0746 -0.4193 -0.1381
  501MOL0     N66050   4.758  12.157   7.748  0.0574 -0.8540 -0.0832
  501MOL0     N66051   4.804  12.041   7.736 -1.3325 -0.4805 -0.0301
  501MOL0     C66052   4.612  11.396   6.785  1.1347  0.1641 -0.4758
  501MOL0     C66053   4.648  11.363   6.656 -0.3989  0.2910 -0.4380
  501MOL0     C66054   4.775  11.084   6.323  0.6555 -0.1583 -0.1402
  501MOL0     C66055   4.841  10.967   6.288 -1.2931  0.0355 -0.5926
  501MOL0     C66056   4.885  10.938   6.159  0.6076 -0.8023 -0.4221
  501MOL0     C66057   4.869  11.030   6.053 -0.4081  0.3201 -0.7835
  501MOL0     O66058   4.918  11.016   5.924  1.5044  0.5157 -0.5590
  501MOL0     C66059   5.041  10.954   5.908  0.3372 -1.0253 -0.2731
  501MOL0     C66060   5.146  11.049   5.952 -0.1489 -0.4703  0.5229
  501MOL0     C66061   5.283  10.979   5.934 -0.4299  0.2908 -0.1950
  501MOL0     C66062   5.356  11.048   5.819 -0.3936 -0.3200  0.8388
  501MOL0     C66063   5.492  10.996   5.787 -0.5386 -0.0069  0.7904
  501MOL0     C66064   5.610  10.972   5.762 -0.4793  0.2893  0.6500
  501MOL0     C66065   4.795  11.141   6.083  0.0414  0.3539  0.2785
  501MOL0     C66066   4.755  11.173   6.216  0.7025 -0.3982  0.0272
  501MOL0     H66067   4.464  11.080   6.628 -1.1725  1.0229  0.7307
  501MOL0     H66068   4.387  11.151   6.847  1.1927  0.5032  1.2075
  501MOL0     H66069   4.273  11.377   6.993 -1.0877 -0.1090 -2.3011
  501MOL0     H66070   4.343  11.510   6.895  0.7866 -0.2721  0.7823
  501MOL0     H66071   4.313  11.487   7.172  1.8100 -0.3430  1.2617
  501MOL0     H66072   4.301  11.631   7.069 -1.2106 -0.3472  1.4272
  501MOL0     H66073   4.547  11.647   7.059  2.4783 -2.0098 -0.0098
  501MOL0     H66074   4.560  11.505   7.174 -0.5157 -1.7092 -3.0117
  501MOL0     H66075   4.423  11.769   7.225  0.8790  0.8080  1.5507
  501MOL0     H66076   4.462  11.643   7.347 -0.1091  1.7652  0.8090
  501MOL0     H66077   4.663  11.807   7.190  0.7615 -1.2333 -0.6231
  501MOL0     H66078   4.701  11.654   7.265 -0.9090 -1.1074 -0.4832
  501MOL0     H66079   4.636  11.769   7.495 -1.7691 -0.4122 -0.4475
  501MOL0     H66080   4.607  11.912   7.414 -0.7098 -1.1216 -0.1299
  501MOL0     H66081   4.893  11.784   7.369 -1.0489 -0.7556 -0.2984
  501MOL0     H66082   4.839  11.944   7.343  1.5733 -2.7577 -3.1563
  501MOL0     H66083   4.992  11.909   7.533  0.5511 -1.6127 -2.5162
  501MOL0     H66084   4.862  11.808   7.614  0.1002  0.0976  0.7183
  501MOL0     H66085   4.793  12.151   7.429  0.4435 -0.0485  0.7848
  501MOL0     H66086   4.698  12.404   7.683 -0.0027 -1.7519  1.6079
  501MOL0     H66087   4.582  12.345   7.567 -0.4240 -0.0197  4.2721
  501MOL0     H66088   4.702  12.500   7.437  0.2511  1.5857  1.6569
  501MOL0     H66089   4.783  12.345   7.395  3.9401 -1.5060  2.1835
  501MOL0     H66090   4.963  12.401   7.544  0.6133 -0.8451 -1.9004
  501MOL0     H66091   4.932  12.538   7.423 -0.5574  1.1142  1.0775
  501MOL0     H66092   4.997  12.621   7.636  1.4258 -3.6206 -1.4732
  501MOL0     H66093   4.860  12.548   7.719 -2.7408 -0.1536 -0.9296
  501MOL0     H66094   4.652  12.602   7.785  3.9843  2.8287  0.7379
  501MOL0     H66095   4.451  12.732   7.840 -0.1089  2.1825  0.9368
  501MOL0     H66096   4.169  13.071   7.890 -1.0816  1.9504 -1.2200
  501MOL0     H66097   3.934  13.138   7.931 -3.0277  0.2543 -1.2581
  501MOL0     H66098   3.701  12.942   8.096  1.7082 -2.3602 -0.1515
  501MOL0     H66099   3.620  12.855   7.972 -0.7614 -0.1255  3.6713
  501MOL0     H66100   3.562  13.140   8.026 -4.0813  1.3428 -2.0788
  501MOL0     H66101   3.475  12.996   8.088  1.9114 -0.1261  1.2936
  501MOL0     H66102   3.433  12.909   7.871  1.7464 -0.1561 -2.5160
  501MOL0     H66103   3.507  13.061   7.795 -0.8757  2.5868 -0.6272
  501MOL0     H66104   3.301  13.123   7.989 -3.2308  0.2963  0.2504
  501MOL0     H66105   3.325  13.185   7.822 -1.8144 -1.0101 -1.9621
  501MOL0     H66106   3.116  13.069   7.884 -0.1234  1.2198  0.0923
  501MOL0     H66107   3.196  12.920   7.910 -2.4580 -0.0569  0.2406
  501MOL0     H66108   3.273  12.868   7.707 -2.7894 -2.2395  1.2670
  501MOL0     H66109   3.259  13.029   7.642  4.3875 -0.4116  2.8170
  501MOL0     H66110   3.004  12.992   7.684  0.2547 -0.4410  3.1280
  501MOL0     H66111   3.075  12.944   7.539  2.6485  1.3354  0.3045
  501MOL0     H66112   3.091  12.694   7.628 -0.4181  0.1481 -2.0582
  501MOL0     H66113   2.937  12.770   7.634  1.1014 -1.5553 -0.9808
  501MOL0     H66114   3.791  12.767   7.808 -2.2929  1.9928  0.2452
  501MOL0     H66115   4.027  12.702   7.740  0.4829 -0.6203  0.5952
  501MOL0     H66116   4.459  12.928   7.460  3.8497  1.9137 -1.8028
  501MOL0     H66117   4.696  12.833   7.420  0.8393 -1.9380 -0.0016
  501MOL0     H66118   4.650  11.476   6.847 -2.7635  2.8762 -1.2046
  501MOL0     H66119   4.712  11.435   6.608  3.7184 -2.8067 -0.0984
  501MOL0     H66120   4.866  10.901   6.370  0.7537  0.5525 -0.7506
  501MOL0     H66121   4.943  10.847   6.146  1.1635 -0.5513  0.2463
  501MOL0     H66122   5.052  10.940   5.800 -3.0508 -2.8994 -0.5291
  501MOL0     H66123   5.050  10.857   5.958  2.0567  0.3791  2.3740
  501MOL0     H66124   5.138  11.142   5.896 -2.2728  0.0130  1.5307
  501MOL0     H66125   5.134  11.078   6.057  2.8181  3.8538 -0.0563
  501MOL0     H66126   5.265  10.872   5.920 -2.3593 -0.1077  3.7447
  501MOL0     H66127   5.350  11.008   6.016 -0.4676 -2.7577  1.0572
  501MOL0     H66128   5.289  11.041   5.733 -3.2452  2.3102  2.6052
  501MOL0     H66129   5.359  11.156   5.838 -0.5608 -0.3325  0.9422
  501MOL0     H66130   5.706  10.968   5.716 -1.2120  0.6912 -1.0040
  501MOL0     H66131   4.778  11.207   5.999 -3.7759 -0.4404  0.2615
  501MOL0     H66132   4.700  11.266   6.225 -5.0205 -2.6909 -4.6256
  502MOL0     O66133   2.814   7.946   2.955  0.0255  0.4221  0.0062
  502MOL0     C66134   2.896   7.958   2.862  0.1613 -1.0536 -0.2866
  502MOL0     O66135   2.873   7.930   2.732 -1.0657  1.3002 -0.7548
  502MOL0     C66136   2.759   7.858   2.710 -0.2454  0.2273  0.8187
  502MOL0     C66137   2.635   7.904   2.745 -0.1148 -0.3469  0.5658
  502MOL0     C66138   2.518   7.840   2.708  0.4849 -0.2553 -0.9749
  502MOL0     C66139   2.515   7.726   2.630 -1.2155  0.1386  0.0909
  502MOL0     O66140   2.403   7.665   2.584 -0.4052 -0.0371  0.1492
  502MOL0     C66141   2.284   7.724   2.624  0.1966  0.5682 -0.1031
  502MOL0     C66142   2.170   7.638   2.571 -0.2979 -0.3043  0.2504
  502MOL0     C66143   2.036   7.665   2.633  0.0806  0.1897  0.7518
  502MOL0     C66144   1.953   7.531   2.629  0.5211  0.0266  0.0052
  502MOL0     C66145   1.807   7.519   2.675 -0.0485 -0.3286  0.5000
  502MOL0     C66146   1.710   7.619   2.593 -0.5622 -0.3631  0.3217
  502MOL0     C66147   1.565   7.594   2.646 -0.2980 -0.4138 -0.6799
  502MOL0     C66148   1.556   7.636   2.799 -0.2373  0.3340  0.4479
  502MOL0     N66149   1.409   7.614   2.816 -0.0984 -0.4200 -0.2534
  502MOL0     C66150   1.324   7.713   2.850 -0.6306  0.0513  0.5804
  502MOL0     C66151   1.203   7.650   2.864  0.1919 -0.5666 -0.4138
  502MOL0     C66152   1.084   7.728   2.909  0.1643 -0.0115 -0.6677
  502MOL0     C66153   0.995   7.668   3.010 -0.9181  0.9556  0.6673
  502MOL0     C66154   0.891   7.568   2.960 -0.0206 -0.1079  0.7501
  502MOL0     C66155   0.768   7.626   2.895 -0.7577 -0.6916 -1.2204
  502MOL0     O66156   0.694   7.688   3.002  0.0953  0.4189  0.3578
  502MOL0     C66157   0.552   7.688   2.999  0.1822 -0.5207  0.0634
  502MOL0     C66158   0.475   7.584   3.040 -0.1761 -0.7588  0.3396
  502MOL0     C66159   0.333   7.594   3.021  0.5220  0.7780 -0.0629
  502MOL0     C66160   0.270   7.709   2.968  0.0865  0.1631  0.5611
  502MOL0     C66161   0.118   7.715   2.947 -0.3233  0.3552  0.6201
  502MOL0     O66162   0.048   7.599   2.965  0.1939 -0.1295 -0.3897
  502MOL0     C66163  -0.086   7.609   2.957 -0.0253 -0.3158 -0.0439
  502MOL0     C66164  -0.147   7.544   3.067  0.1175 -0.0213 -0.1549
  502MOL0     C66165  -0.292   7.551   3.067  0.3273  0.2840 -0.2812
  502MOL0     C66166  -0.364   7.625   2.972  0.5312  0.6674  0.0025
  502MOL0     O66167  -0.499   7.633   2.978 -0.1115 -0.0313  0.4440
  502MOL0     C66168  -0.576   7.514   2.989  0.5261 -0.5792  0.2451
  502MOL0     C66169  -0.561   7.438   2.854  0.2039 -0.6765  0.2636
  502MOL0     C66170  -0.624   7.533   2.750  0.7031  0.5002  1.0273
  502MOL0     C66171  -0.648   7.476   2.616 -0.3849  0.8602 -0.9321
  502MOL0     C66172  -0.716   7.578   2.531 -0.7963  0.5853  0.3285
  502MOL0     C66173  -0.855   7.630   2.567  0.3402  0.5344 -0.2719
  502MOL0     C66174  -0.906   7.750   2.480 -1.3799  0.4719 -1.0701
  502MOL0     C66175  -0.983   7.851   2.559 -0.0306  0.3808  0.1534
  502MOL0    Cl66176  -0.881   7.927   2.689 -0.1557  0.8819  0.4252
  502MOL0     C66177  -0.294   7.697   2.884 -0.4014  1.0672  0.7399
  502MOL0     C66178  -0.161   7.672   2.858 -0.7525  0.8019 -0.3362
  502MOL0     O66179   0.073   7.825   2.921  0.6139  0.5879  0.7060
  502MOL0     C66180   0.350   7.821   2.950  1.3225 -0.0440  1.2311
  502MOL0     C66181   0.488   7.807   2.966 -0.9356 -0.0917 -0.8754
  502MOL0     N66182   1.227   7.512   2.858  0.0289 -0.7293 -0.2306
  502MOL0     N66183   1.349   7.497   2.838  0.1733  0.4249 -0.2188
  502MOL0     C66184   2.638   7.676   2.593  0.0120 -0.4114  1.0096
  502MOL0     C66185   2.760   7.734   2.639 -0.1152 -0.4846  0.2926
  502MOL0     C66186   3.023   8.022   2.907  0.0614  0.6110  0.6057
  502MOL0     C66187   3.125   8.013   2.818 -0.2852 -0.3086 -0.9690
  502MOL0     C66188   3.238   8.082   2.844 -0.4888 -0.5479 -0.1933
  502MOL0     C66189   3.263   8.152   2.966  0.5450  0.3854  0.9188
  502MOL0     O66190   3.379   8.225   2.974  0.4850  1.3039 -0.2378
  502MOL0     C66191   3.394   8.324   3.079  1.0393  0.5474 -0.1555
  502MOL0     C66192   3.513   8.409   3.054  0.1686  0.3397  0.6883
  502MOL0     C66193   3.585   8.447   3.183  0.5869  0.3399  0.6205
  502MOL0     C66194   3.679   8.574   3.190 -0.0441 -0.5007 -1.0235
  502MOL0     C66195   3.788   8.575   3.094  0.7371 -0.1726 -0.3068
  502MOL0     C66196   3.870   8.573   3.010 -0.3211  0.0443  0.4586
  502MOL0     C66197   3.157   8.163   3.057 -0.3645  0.8701 -0.9983
  502MOL0     C66198   3.039   8.102   3.025  0.2270 -0.2703  0.8931
  502MOL0     H66199   2.630   7.991   2.810 -3.3609  0.0851 -0.0707
  502MOL0     H66200   2.427   7.883   2.749  0.8662  0.1087 -0.4968
  502MOL0     H66201   2.281   7.825   2.581 -0.3063  0.2587 -0.8152
  502MOL0     H66202   2.278   7.728   2.733 -0.0161  0.0084 -0.0909
  502MOL0     H66203   2.204   7.535   2.586  0.2678 -0.8848 -3.8541
  502MOL0     H66204   2.165   7.640   2.462 -2.5838 -0.1990  0.3127
  502MOL0     H66205   1.991   7.744   2.572 -0.7437 -1.2092 -0.5020
  502MOL0     H66206   2.050   7.709   2.733  0.6160  0.0793  0.7266
  502MOL0     H66207   1.968   7.496   2.527  2.3258 -2.4688  1.0335
  502MOL0     H66208   2.018   7.464   2.685  0.7419  1.4514  1.5486
  502MOL0     H66209   1.819   7.549   2.779  0.7815  2.9022 -0.3959
  502MOL0     H66210   1.767   7.418   2.678  0.2994 -0.7842 -3.8276
  502MOL0     H66211   1.707   7.596   2.486 -0.6534 -0.0235  0.2495
  502MOL0     H66212   1.735   7.724   2.610  1.4313 -0.6381 -0.5229
  502MOL0     H66213   1.500   7.664   2.592 -1.3890  0.1270  1.2070
  502MOL0     H66214   1.535   7.491   2.626 -1.2060 -0.1254 -0.8890
  502MOL0     H66215   1.584   7.742   2.808 -3.1032  1.5879 -3.0739
  502MOL0     H66216   1.619   7.578   2.866  1.2499  2.3503  0.9100
  502MOL0     H66217   1.345   7.819   2.861  0.0248 -0.1681  1.6468
  502MOL0     H66218   1.023   7.757   2.823  1.3453  1.1276 -1.1630
  502MOL0     H66219   1.112   7.827   2.948  0.7780  0.2899 -1.8220
  502MOL0     H66220   0.951   7.757   3.055 -1.9599  2.5663 -3.1446
  502MOL0     H66221   1.057   7.613   3.080 -2.7353 -2.6456 -0.3026
  502MOL0     H66222   0.946   7.509   2.885  0.7302 -0.3551  1.4820
  502MOL0     H66223   0.877   7.495   3.040  2.5532 -0.4379  1.0010
  502MOL0     H66224   0.708   7.543   2.857 -1.4477 -0.2496 -1.1289
  502MOL0     H66225   0.794   7.690   2.810 -0.5363  0.0828 -0.5878
  502MOL0     H66226   0.515   7.495   3.087  2.7961  0.2056 -0.1676
  502MOL0     H66227   0.276   7.502   3.030  0.6564  0.7086  0.0788
  502MOL0     H66228  -0.097   7.488   3.146  0.2130 -1.4188 -1.1830
  502MOL0     H66229  -0.354   7.510   3.146 -0.4453  2.1483  0.1268
  502MOL0     H66230  -0.678   7.550   3.005  1.5254  2.0508  1.1184
  502MOL0     H66231  -0.538   7.441   3.062 -1.6043 -1.4029  0.6181
  502MOL0     H66232  -0.612   7.341   2.853  2.4303 -1.9543 -1.8037
  502MOL0     H66233  -0.454   7.420   2.840  0.7538 -1.4935  4.2190
  502MOL0     H66234  -0.575   7.629   2.733  0.7590  0.0761 -1.6938
  502MOL0     H66235  -0.722   7.558   2.791  0.2260 -0.3774  0.4510
  502MOL0     H66236  -0.550   7.451   2.574  1.2124  1.2945  2.2547
  502MOL0     H66237  -0.706   7.384   2.628  0.7105  0.1862 -0.6785
  502MOL0     H66238  -0.725   7.550   2.426 -0.0758 -0.0135  0.4178
  502MOL0     H66239  -0.648   7.664   2.531  0.3226 -0.2686  0.8424
  502MOL0     H66240  -0.865   7.654   2.673 -0.8969  0.9924 -0.4854
  502MOL0     H66241  -0.924   7.551   2.537 -1.0111  1.7038 -0.2922
  502MOL0     H66242  -0.823   7.795   2.424 -0.8277  0.1379 -0.5315
  502MOL0     H66243  -0.982   7.705   2.415 -1.2538 -3.0269  0.9705
  502MOL0     H66244  -1.067   7.806   2.613 -0.6252  0.7283 -0.4609
  502MOL0     H66245  -1.021   7.934   2.499  1.1689 -0.7383 -2.2725
  502MOL0     H66246  -0.351   7.768   2.824 -1.8583 -0.9610 -0.3962
  502MOL0     H66247  -0.100   7.726   2.787  0.6907 -0.4076 -0.0644
  502MOL0     H66248   0.305   7.913   2.913 -2.8291 -3.2039 -2.5840
  502MOL0     H66249   0.555   7.891   2.949 -2.2594  1.6163  1.6981
  502MOL0     H66250   2.627   7.598   2.518 -3.4708  0.9125 -0.0300
  502MOL0     H66251   2.852   7.678   2.639  1.5958  2.1451 -0.2584
  502MOL0     H66252   3.108   7.964   2.723  0.6650  0.6237 -1.6464
  502MOL0     H66253   3.323   8.077   2.776 -0.7240  1.6646 -0.7269
  502MOL0     H66254   3.412   8.257   3.164 -0.1660  0.5864  0.1530
  502MOL0     H66255   3.311   8.390   3.105  0.1790 -0.9835  1.1922
  502MOL0     H66256   3.587   8.353   2.996 -0.2109  0.1223  0.4162
  502MOL0     H66257   3.495   8.496   2.990 -1.9474 -0.5270  0.0358
  502MOL0     H66258   3.634   8.354   3.212 -3.0015 -2.2743 -0.9932
  502MOL0     H66259   3.502   8.458   3.253 -0.1532 -3.0583  0.4576
  502MOL0     H66260   3.628   8.670   3.188 -0.3008 -0.6430 -1.4138
  502MOL0     H66261   3.715   8.566   3.293  0.3623 -0.3149 -1.1509
  502MOL0     H66262   3.948   8.568   2.936 -1.1165 -0.6334 -0.3547
  502MOL0     H66263   3.163   8.227   3.145 -1.6888  0.4949 -0.6133
  502MOL0     H66264   2.955   8.109   3.094 -1.2753 -0.7357 -0.8035
  503MOL0     O66265   5.439  10.660   2.700  0.0714  0.5318  0.0379
  503MOL0     C66266   5.550  10.685   2.733 -1.0508  0.3063  0.1727
  503MOL0     O66267   5.639  10.588   2.786  0.5945 -0.0246 -0.1278
  503MOL0     C66268   5.592  10.463   2.778 -0.0372 -0.1728  0.0491
  503MOL0     C66269   5.653  10.370   2.688  0.0485 -0.1609 -0.4352
  503MOL0     C66270   5.606  10.237   2.668  0.1826  0.3317  0.8946
  503MOL0     C66271   5.511  10.189   2.759  0.7818  0.4069 -0.1380
  503MOL0     O66272   5.470  10.057   2.762  0.2135  0.1670 -0.3139
  503MOL0     C66273   5.522   9.962   2.671  1.0566  0.2376  0.5403
  503MOL0     C66274   5.461   9.826   2.698 -0.1365  0.0878 -0.5716
  503MOL0     C66275   5.506   9.708   2.622  0.2500  0.1580  0.6941
  503MOL0     C66276   5.394   9.608   2.613  0.7193  0.1015  0.3567
  503MOL0     C66277   5.377   9.523   2.738 -0.6979  1.0359  0.8547
  503MOL0     C66278   5.279   9.406   2.717  0.5377  0.9471  1.1083
  503MOL0     C66279   5.144   9.440   2.659  0.9229 -0.4603 -0.1934
  503MOL0     C66280   5.126   9.422   2.506  0.5580  0.4106 -0.9907
  503MOL0     N66281   4.993   9.395   2.457  0.4426 -0.3456  0.2353
  503MOL0     C66282   4.892   9.490   2.445  0.1659  0.8696  0.3272
  503MOL0     C66283   4.773   9.422   2.411 -0.7872 -0.4062 -0.5144
  503MOL0     C66284   4.640   9.489   2.401  0.3185 -0.1877 -1.3221
  503MOL0     C66285   4.532   9.430   2.315 -0.4697  0.8690 -0.4224
  503MOL0     C66286   4.573   9.458   2.169 -0.1300 -0.0837  0.9081
  503MOL0     C66287   4.465   9.417   2.064  1.2718  0.4132 -0.2921
  503MOL0     O66288   4.475   9.277   2.034  0.5734  0.7577  0.0061
  503MOL0     C66289   4.381   9.191   2.082  0.1543  0.7143 -0.5301
  503MOL0     C66290   4.277   9.213   2.178  0.2695 -1.2177  0.0241
  503MOL0     C66291   4.187   9.118   2.208  0.4246  0.1793  0.8882
  503MOL0     C66292   4.184   8.997   2.137  0.0297 -0.3420  0.0331
  503MOL0     C66293   4.071   8.918   2.158  0.8385 -0.1352 -0.3596
  503MOL0     O66294   3.964   8.962   2.236  0.0443 -0.4429 -0.8687
  503MOL0     C66295   3.847   8.895   2.215 -0.6522 -0.0359 -0.4248
  503MOL0     C66296   3.775   8.896   2.093  0.5771 -0.1961  0.2561
  503MOL0     C66297   3.650   8.831   2.087 -0.7033  0.4117  0.0856
  503MOL0     C66298   3.590   8.761   2.199  0.4835 -1.4274 -0.4135
  503MOL0     O66299   3.469   8.701   2.189 -0.0212  1.2381  0.3009
  503MOL0     C66300   3.408   8.641   2.303  0.2837  0.5680 -1.0521
  503MOL0     C66301   3.264   8.597   2.268 -0.6530  0.6829 -0.2475
  503MOL0     C66302   3.177   8.726   2.254  0.2676  0.3759 -0.3577
  503MOL0     C66303   3.041   8.697   2.176 -1.0428 -0.8572  0.7835
  503MOL0     C66304   2.953   8.592   2.235 -1.3225  0.0374  0.2949
  503MOL0     C66305   2.830   8.565   2.135  0.9898  0.1012 -0.1047
  503MOL0     C66306   2.711   8.496   2.204  0.0831 -0.1278  0.0520
  503MOL0     C66307   2.600   8.466   2.106  0.1122 -1.0641  0.6738
  503MOL0    Cl66308   2.647   8.364   1.966 -0.3470  0.2149 -0.2666
  503MOL0     C66309   3.662   8.768   2.320  0.0599  0.5270  0.0262
  503MOL0     C66310   3.797   8.813   2.324  0.0576  0.2782  0.6935
  503MOL0     O66311   4.063   8.818   2.090 -0.2886  0.6853  0.1154
  503MOL0     C66312   4.291   8.962   2.052  0.4394 -0.3969 -0.4939
  503MOL0     C66313   4.383   9.062   2.023  0.7404 -0.4385  0.0645
  503MOL0     N66314   4.808   9.294   2.411 -0.8347  0.9186  0.3250
  503MOL0     N66315   4.933   9.276   2.438 -0.4495 -0.5581  0.5341
  503MOL0     C66316   5.452  10.284   2.842  0.3570  0.4112  0.5533
  503MOL0     C66317   5.488  10.415   2.848  0.0122 -0.1846  0.2249
  503MOL0     C66318   5.587  10.833   2.701 -0.2340  0.2690 -0.0067
  503MOL0     C66319   5.718  10.871   2.709 -0.1034 -0.4379  0.0358
  503MOL0     C66320   5.759  10.998   2.649 -0.2863 -0.3950 -0.5212
  503MOL0     C66321   5.659  11.084   2.610 -0.1101 -0.3403  0.0599
  503MOL0     O66322   5.702  11.208   2.573  0.0190 -0.6238 -0.0521
  503MOL0     C66323   5.619  11.284   2.482 -0.6338 -1.0345  0.9989
  503MOL0     C66324   5.696  11.408   2.421 -0.1451  0.2743 -0.0604
  503MOL0     C66325   5.750  11.505   2.522 -0.1953 -1.5888  0.0814
  503MOL0     C66326   5.856  11.599   2.465 -1.0819 -0.5141  0.6577
  503MOL0     C66327   5.897  11.685   2.577 -0.1414  0.4717 -0.4188
  503MOL0     C66328   5.937  11.751   2.672 -0.4453 -0.3104 -0.5888
  503MOL0     C66329   5.526  11.052   2.628  0.7258 -0.2720  0.1579
  503MOL0     C66330   5.488  10.921   2.660  0.1327 -0.9996 -0.6979
  503MOL0     H66331   5.747  10.404   2.645 -1.2269  1.4401 -2.1305
  503MOL0     H66332   5.660  10.171   2.600 -1.2510  1.4292 -1.4493
  503MOL0     H66333   5.631   9.961   2.675  1.0433 -0.0424  1.0199
  503MOL0     H66334   5.487   9.984   2.570  3.4315  0.6873 -0.2258
  503MOL0     H66335   5.354   9.824   2.678 -0.3187  1.0430  0.2225
  503MOL0     H66336   5.454   9.819   2.807 -4.6310  1.4780 -0.5911
  503MOL0     H66337   5.598   9.657   2.653 -0.7934 -1.7034  0.8671
  503MOL0     H66338   5.524   9.747   2.521  2.0607  4.7650  2.5408
  503MOL0     H66339   5.298   9.653   2.587  1.1916  2.0226  1.6817
  503MOL0     H66340   5.426   9.544   2.531 -0.5092 -0.0926  0.0046
  503MOL0     H66341   5.360   9.596   2.817  2.2991  4.1045 -0.9978
  503MOL0     H66342   5.477   9.479   2.750  0.0604  2.3367 -0.2831
  503MOL0     H66343   5.256   9.361   2.815 -1.4083 -1.4187 -0.3256
  503MOL0     H66344   5.332   9.332   2.656 -0.5358 -0.9949  2.4174
  503MOL0     H66345   5.066   9.383   2.710  0.2728  1.6006  1.2556
  503MOL0     H66346   5.124   9.545   2.680 -0.4343 -0.5074 -1.0905
  503MOL0     H66347   5.194   9.339   2.484  0.8612 -0.7570  3.4145
  503MOL0     H66348   5.172   9.507   2.456 -2.8078  2.1898 -1.3643
  503MOL0     H66349   4.903   9.597   2.460  0.5455  0.7912  0.6092
  503MOL0     H66350   4.649   9.593   2.368  1.6826  0.4564  0.9217
  503MOL0     H66351   4.594   9.495   2.500  0.1671  0.0703 -1.4080
  503MOL0     H66352   4.441   9.490   2.321 -1.5007 -0.6670 -0.2131
  503MOL0     H66353   4.508   9.325   2.333 -2.4136  1.1645 -1.0225
  503MOL0     H66354   4.577   9.567   2.159 -1.1746 -0.1988 -1.4156
  503MOL0     H66355   4.675   9.437   2.136  0.2577  2.6239  0.0994
  503MOL0     H66356   4.484   9.469   1.970  0.3444 -2.0959 -1.9821
  503MOL0     H66357   4.374   9.459   2.107  1.6272 -0.3542  1.3004
  503MOL0     H66358   4.285   9.304   2.237 -0.8592 -0.9551 -0.2006
  503MOL0     H66359   4.112   9.153   2.279  0.2945  1.0453  0.3438
  503MOL0     H66360   3.809   8.939   2.000  1.0431  1.7810  1.2920
  503MOL0     H66361   3.587   8.827   1.998 -2.2448  3.1633  0.9311
  503MOL0     H66362   3.414   8.697   2.397  2.6768 -0.4216 -0.5433
  503MOL0     H66363   3.462   8.548   2.323 -3.0718 -0.9425  1.9999
  503MOL0     H66364   3.232   8.534   2.351  3.3501 -2.9915 -1.1643
  503MOL0     H66365   3.266   8.542   2.173  0.1279 -0.1586  0.2431
  503MOL0     H66366   3.225   8.815   2.211  0.0862  1.4903  1.6189
  503MOL0     H66367   3.149   8.766   2.352 -3.3315  3.3814 -2.3126
  503MOL0     H66368   2.990   8.794   2.171 -0.3582 -0.5277 -0.0826
  503MOL0     H66369   3.075   8.658   2.080  0.2117 -1.5478  1.4867
  503MOL0     H66370   2.909   8.629   2.328 -0.7733  1.4761  0.0077
  503MOL0     H66371   3.003   8.496   2.251 -2.3060 -0.6398 -0.5488
  503MOL0     H66372   2.871   8.494   2.062  3.4012  0.2142  1.0347
  503MOL0     H66373   2.801   8.663   2.096 -1.3172  0.3962  2.0960
  503MOL0     H66374   2.730   8.407   2.264 -2.6781 -1.8292 -1.3954
  503MOL0     H66375   2.665   8.562   2.278 -2.4535 -0.9147 -0.7144
  503MOL0     H66376   2.564   8.561   2.067 -0.4808 -1.0473  1.2398
  503MOL0     H66377   2.521   8.417   2.163  1.1345 -2.4485  0.9600
  503MOL0     H66378   3.631   8.707   2.404 -1.6747  2.4460  0.8743
  503MOL0     H66379   3.848   8.782   2.415 -2.0150  1.7506  2.4521
  503MOL0     H66380   4.310   8.867   2.003  3.0870  0.9890 -2.4163
  503MOL0     H66381   4.469   9.045   1.959  1.3558 -3.2698  1.4775
  503MOL0     H66382   5.378  10.236   2.905  0.1109 -1.0321 -0.7768
  503MOL0     H66383   5.441  10.485   2.916  0.8747 -0.2074  0.8649
  503MOL0     H66384   5.783  10.794   2.748 -1.8185 -2.7389 -1.4180
  503MOL0     H66385   5.863  11.026   2.638 -0.5146  1.6933  1.7747
  503MOL0     H66386   5.539  11.333   2.538 -0.8205 -0.2324  0.0449
  503MOL0     H66387   5.578  11.221   2.404  0.4576  2.3515 -2.6497
  503MOL0     H66388   5.774  11.368   2.355 -2.4908  1.4998 -3.9686
  503MOL0     H66389   5.628  11.460   2.353 -0.8651 -1.5842 -0.8286
  503MOL0     H66390   5.785  11.456   2.613 -3.2106 -1.6884  1.3210
  503MOL0     H66391   5.665  11.571   2.541  0.8901  0.4996 -1.8160
  503MOL0     H66392   5.945  11.554   2.419 -2.7800 -2.6637 -0.7383
  503MOL0     H66393   5.814  11.657   2.383  0.0261 -0.6156  0.0042
  503MOL0     H66394   5.981  11.816   2.744 -0.7832  0.1761 -0.8179
  503MOL0     H66395   5.459  11.129   2.590  1.7778 -0.5476 -2.5389
  503MOL0     H66396   5.384  10.892   2.648 -0.5490  1.1695 -0.4804
  504MOL0     O66397   8.414   8.075   1.223  0.0749  0.1432 -0.0902
  504MOL0     C66398   8.441   7.993   1.131 -0.2216 -0.1133  0.7015
  504MOL0     O66399   8.561   7.979   1.056  0.5357 -0.4814 -0.8369
  504MOL0     C66400   8.665   8.066   1.078 -0.4263  0.4910 -0.0792
  504MOL0     C66401   8.703   8.108   1.206  1.1753 -0.0937 -0.0887
  504MOL0     C66402   8.801   8.203   1.222  0.3419 -0.9523  0.2867
  504MOL0     C66403   8.865   8.255   1.116  1.0930  0.5693  1.1229
  504MOL0     O66404   8.948   8.359   1.140 -0.6643 -0.4835  1.3305
  504MOL0     C66405   9.087   8.326   1.141  0.5932  0.4760  0.5829
  504MOL0     C66406   9.160   8.446   1.082 -0.0117  0.7520 -0.8361
  504MOL0     C66407   9.209   8.413   0.937 -0.6575  0.3616 -0.0608
  504MOL0     C66408   9.255   8.547   0.865  0.3108  0.0386  0.1136
  504MOL0     C66409   9.351   8.523   0.743 -0.6715 -1.3607 -0.4686
  504MOL0     C66410   9.290   8.443   0.638  0.6545 -0.5649 -0.3130
  504MOL0     C66411   9.352   8.451   0.502  0.1437  0.5392 -0.0103
  504MOL0     C66412   9.491   8.426   0.479  0.0650  0.4827  0.6076
  504MOL0     N66413   9.531   8.281   0.502 -0.6672 -0.7304 -0.2260
  504MOL0     C66414   9.479   8.176   0.431 -0.2923 -0.2407 -0.2696
  504MOL0     C66415   9.532   8.066   0.488  0.6268  0.3533 -0.1951
  504MOL0     C66416   9.507   7.914   0.454  0.7770 -0.3905  0.4440
  504MOL0     C66417   9.418   7.847   0.556  0.1621  0.1688  0.0362
  504MOL0     C66418   9.421   7.697   0.538 -0.3067  0.2033 -0.8752
  504MOL0     C66419   9.292   7.630   0.573  0.3645 -0.4964 -0.5250
  504MOL0     O66420   9.293   7.519   0.483 -0.5553  1.1083  0.0502
  504MOL0     C66421   9.176   7.447   0.489 -0.0709 -0.2605 -0.3459
  504MOL0     C66422   9.176   7.335   0.409 -0.9104 -0.8857  0.5448
  504MOL0     C66423   9.071   7.247   0.403  0.0381 -0.7157 -0.2389
  504MOL0     C66424   8.962   7.259   0.497 -0.9673  0.9949  0.0894
  504MOL0     C66425   8.862   7.146   0.519 -0.8903  0.2079 -1.0196
  504MOL0     O66426   8.894   7.027   0.473 -0.1388 -0.4283 -0.2514
  504MOL0     C66427   8.800   6.927   0.480 -1.6994  0.5474  0.6490
  504MOL0     C66428   8.724   6.901   0.367  0.0291 -0.1252 -0.1702
  504MOL0     C66429   8.622   6.798   0.376 -0.4588 -0.2607 -0.8887
  504MOL0     C66430   8.625   6.717   0.489 -0.2172  0.2755 -0.8865
  504MOL0     O66431   8.549   6.607   0.479 -0.0508 -0.0161  1.0328
  504MOL0     C66432   8.431   6.610   0.565 -0.0773  0.2907  0.0725
  504MOL0     C66433   8.432   6.476   0.643 -0.2913 -0.2587 -0.5270
  504MOL0     C66434   8.348   6.369   0.566 -0.3157  0.2430 -0.6157
  504MOL0     C66435   8.359   6.238   0.648 -0.6800  0.4174 -1.0733
  504MOL0     C66436   8.254   6.141   0.598  0.0741 -0.3024  0.5692
  504MOL0     C66437   8.227   6.028   0.694 -0.1180  0.1671 -0.1458
  504MOL0     C66438   8.135   5.925   0.628  0.0762 -0.3264  0.5381
  504MOL0     C66439   8.110   5.813   0.733 -0.3615 -0.1872  1.0930
  504MOL0    Cl66440   7.973   5.726   0.656 -0.4232  0.1018  0.3151
  504MOL0     C66441   8.716   6.740   0.601 -0.9054 -0.0795 -0.8137
  504MOL0     C66442   8.804   6.842   0.593 -0.0483  0.0448  0.0876
  504MOL0     O66443   8.758   7.164   0.580 -0.7288  0.7044  0.4802
  504MOL0     C66444   8.968   7.363   0.586  0.1445 -0.2825 -0.3639
  504MOL0     C66445   9.068   7.460   0.582  0.1209 -0.3191 -0.4340
  504MOL0     N66446   9.622   8.112   0.587  0.0463 -0.5515  0.4299
  504MOL0     N66447   9.614   8.240   0.602 -0.1282 -0.6902 -0.3216
  504MOL0     C66448   8.833   8.219   0.985  0.5938  0.0593 -0.1715
  504MOL0     C66449   8.728   8.122   0.969 -0.2885 -0.6380 -0.4999
  504MOL0     C66450   8.339   7.900   1.103  0.7253  0.0813  0.5845
  504MOL0     C66451   8.362   7.794   1.009 -0.2794 -0.0547  0.2677
  504MOL0     C66452   8.263   7.695   0.979  0.0313 -0.1654 -0.8634
  504MOL0     C66453   8.138   7.712   1.038 -0.2192 -1.3616  0.3086
  504MOL0     O66454   8.037   7.627   1.024 -0.2847 -0.3165 -0.9127
  504MOL0     C66455   8.061   7.499   0.972 -0.0370  0.1735  0.6425
  504MOL0     C66456   7.997   7.390   1.042  0.4406  0.7180 -0.0829
  504MOL0     C66457   7.850   7.416   1.059  0.1037  0.4010  0.7069
  504MOL0     C66458   7.774   7.280   1.072 -0.0902  0.7459 -1.2481
  504MOL0     C66459   7.632   7.283   1.114  0.5832  0.5778 -0.4376
  504MOL0     C66460   7.511   7.279   1.154  0.0652 -0.1620  0.1465
  504MOL0     C66461   8.109   7.815   1.124 -1.1379 -0.3873  0.9991
  504MOL0     C66462   8.207   7.905   1.158 -0.1013 -0.6062 -1.4058
  504MOL0     H66463   8.651   8.068   1.293  1.3668 -0.2291 -0.0348
  504MOL0     H66464   8.824   8.252   1.315 -0.8791  2.1194 -0.9105
  504MOL0     H66465   9.099   8.231   1.088 -1.9116 -0.4000  1.4621
  504MOL0     H66466   9.121   8.301   1.242  0.7614  0.8828  0.6282
  504MOL0     H66467   9.240   8.466   1.154  1.0495 -1.1490 -1.4188
  504MOL0     H66468   9.095   8.533   1.067 -2.2693  0.5059  5.1454
  504MOL0     H66469   9.131   8.375   0.871  1.6109 -0.8227 -2.1978
  504MOL0     H66470   9.291   8.342   0.951 -1.6192 -0.5133  1.4616
  504MOL0     H66471   9.161   8.601   0.845  0.4487  1.0237  1.9588
  504MOL0     H66472   9.293   8.604   0.950  0.7560  0.6295 -0.4719
  504MOL0     H66473   9.444   8.482   0.785  1.1544  1.1214 -1.7736
  504MOL0     H66474   9.382   8.620   0.702 -2.4373 -0.6632 -0.2487
  504MOL0     H66475   9.187   8.479   0.633  0.0660 -2.1600 -0.1849
  504MOL0     H66476   9.282   8.340   0.673 -0.4332 -0.9640 -1.6462
  504MOL0     H66477   9.286   8.390   0.439  0.0525  3.4452 -2.9798
  504MOL0     H66478   9.333   8.552   0.464  2.4668  0.8036 -0.6454
  504MOL0     H66479   9.546   8.492   0.546  1.7288  0.8373 -1.0347
  504MOL0     H66480   9.512   8.449   0.374  2.1381 -4.7924 -0.4755
  504MOL0     H66481   9.403   8.175   0.353 -2.9426 -0.6598  2.1432
  504MOL0     H66482   9.609   7.875   0.440  0.8758  0.3780 -1.1105
  504MOL0     H66483   9.452   7.905   0.360  0.6467  1.1816  0.3482
  504MOL0     H66484   9.315   7.882   0.546 -0.3043 -1.7196 -2.9456
  504MOL0     H66485   9.449   7.876   0.657 -2.1230 -0.2146  0.9178
  504MOL0     H66486   9.440   7.688   0.431  0.3410  2.1501 -0.9656
  504MOL0     H66487   9.500   7.652   0.599 -1.0800  0.2067  0.1544
  504MOL0     H66488   9.207   7.696   0.552  1.2529  0.3597 -1.5054
  504MOL0     H66489   9.287   7.610   0.681  0.4911  3.4168  0.3785
  504MOL0     H66490   9.263   7.333   0.345 -2.5879 -0.6969 -1.8698
  504MOL0     H66491   9.079   7.176   0.321  1.6570 -3.5989  2.2285
  504MOL0     H66492   8.724   6.972   0.285  0.0861 -0.2757 -0.2992
  504MOL0     H66493   8.543   6.776   0.304 -2.4247 -1.0445  1.3812
  504MOL0     H66494   8.337   6.624   0.510 -0.4367 -1.5764  0.1287
  504MOL0     H66495   8.440   6.695   0.633 -2.2957  0.5432  0.1103
  504MOL0     H66496   8.390   6.499   0.741 -0.6017  3.5362 -1.3942
  504MOL0     H66497   8.537   6.450   0.656 -0.6216 -1.2978  0.1782
  504MOL0     H66498   8.399   6.354   0.470  0.2815 -2.4282  0.0212
  504MOL0     H66499   8.247   6.408   0.554 -0.0027  1.1730 -0.3021
  504MOL0     H66500   8.459   6.196   0.641 -1.1666 -0.6637 -1.7339
  504MOL0     H66501   8.334   6.274   0.748 -2.4622 -0.8757 -0.9971
  504MOL0     H66502   8.307   6.107   0.509 -2.8159  0.2332 -1.4965
  504MOL0     H66503   8.158   6.183   0.566 -0.0261 -2.2173 -2.0000
  504MOL0     H66504   8.174   6.067   0.782 -0.8232 -3.6625  1.3283
  504MOL0     H66505   8.313   5.967   0.720 -0.7212 -0.5278  0.2557
  504MOL0     H66506   8.046   5.989   0.628  0.0755 -0.2222  3.0316
  504MOL0     H66507   8.171   5.882   0.534  1.1119 -0.1618  0.8463
  504MOL0     H66508   8.093   5.858   0.831 -1.7338 -1.9055  1.6944
  504MOL0     H66509   8.197   5.747   0.737 -0.9444 -1.0619 -0.2889
  504MOL0     H66510   8.729   6.665   0.679 -0.9089  1.5406  0.8045
  504MOL0     H66511   8.875   6.853   0.675 -1.1155 -3.6426  1.6784
  504MOL0     H66512   8.896   7.373   0.666  2.8827  1.6906  2.0840
  504MOL0     H66513   9.061   7.538   0.658 -2.0058  1.0067 -1.9161
  504MOL0     H66514   8.889   8.267   0.905  3.9480  3.0206  3.5418
  504MOL0     H66515   8.694   8.101   0.868 -1.7675 -3.3117  0.4332
  504MOL0     H66516   8.463   7.770   0.980 -0.7008 -0.5069 -0.8913
  504MOL0     H66517   8.270   7.609   0.913 -0.2431 -0.6222 -0.3126
  504MOL0     H66518   8.163   7.460   0.968 -0.6156 -1.7803  2.8675
  504MOL0     H66519   8.020   7.515   0.872  1.1705  1.9051  0.3931
  504MOL0     H66520   8.005   7.296   0.986 -1.8376 -1.8702  3.4204
  504MOL0     H66521   8.040   7.358   1.138 -1.1380  3.0551  1.4966
  504MOL0     H66522   7.816   7.475   0.974  1.8659  4.4045  2.5072
  504MOL0     H66523   7.833   7.473   1.151  1.1143 -1.4481  2.1195
  504MOL0     H66524   7.805   7.207   0.997  1.9471 -0.6436  0.8288
  504MOL0     H66525   7.816   7.222   1.155 -0.5649 -1.9837 -2.7932
  504MOL0     H66526   7.409   7.274   1.185  0.3403 -0.5826  1.0267
  504MOL0     H66527   8.005   7.834   1.149 -1.3700 -1.4687  0.8713
  504MOL0     H66528   8.169   7.981   1.226  0.1997 -2.1634  0.5787
  505MOL0     O66529   1.597   5.168   4.435  0.2245 -0.3106 -0.1559
  505MOL0     C66530   1.647   5.063   4.483 -0.3340  0.2366 -0.2597
  505MOL0     O66531   1.584   4.964   4.556  0.0357  0.1973  0.1652
  505MOL0     C66532   1.451   4.964   4.568 -0.2164  0.9053 -0.5891
  505MOL0     C66533   1.383   4.839   4.553  0.1642  1.0404 -0.0930
  505MOL0     C66534   1.240   4.835   4.568 -0.0892 -0.5810 -0.3482
  505MOL0     C66535   1.161   4.951   4.595 -0.6627  0.3196 -0.2057
  505MOL0     O66536   1.028   4.945   4.598 -0.0567 -0.9017 -0.1568
  505MOL0     C66537   0.968   5.066   4.559 -0.6216  0.2683 -0.6863
  505MOL0     C66538   0.840   5.044   4.486  0.0301  0.6710 -0.1602
  505MOL0     C66539   0.759   5.157   4.430 -0.9689 -0.3701 -0.1267
  505MOL0     C66540   0.700   5.242   4.543 -0.6163  0.5527  0.1221
  505MOL0     C66541   0.787   5.363   4.571 -0.5940 -0.2362 -1.3419
  505MOL0     C66542   0.766   5.402   4.719 -1.2506 -0.9808  0.5857
  505MOL0     C66543   0.862   5.521   4.753  0.5661  0.3409  0.7366
  505MOL0     C66544   0.865   5.568   4.901  0.5882 -0.1626  0.4442
  505MOL0     N66545   0.734   5.622   4.932 -0.4246  0.2848 -0.1615
  505MOL0     C66546   0.669   5.719   4.859  1.4263  0.0375  0.1034
  505MOL0     C66547   0.553   5.745   4.924  0.2478 -0.6278 -0.9771
  505MOL0     C66548   0.456   5.852   4.880  0.4530  0.6432 -0.1876
  505MOL0     C66549   0.313   5.801   4.862  0.1059 -0.3423  0.5139
  505MOL0     C66550   0.294   5.654   4.827 -0.1064 -0.3846 -0.2497
  505MOL0     C66551   0.352   5.610   4.693  0.1872 -0.0877  0.1102
  505MOL0     O66552   0.287   5.647   4.575 -0.4868  0.5457  0.6048
  505MOL0     C66553   0.163   5.598   4.537  0.4361  0.4114  0.1133
  505MOL0     C66554   0.099   5.664   4.437  0.6809 -0.1193  0.3770
  505MOL0     C66555  -0.031   5.623   4.396  1.2586  0.4086  0.4409
  505MOL0     C66556  -0.101   5.516   4.456 -0.1305 -0.4105  0.3003
  505MOL0     C66557  -0.239   5.489   4.422  0.6566 -0.4909  0.0759
  505MOL0     O66558  -0.258   5.363   4.454 -0.0077 -0.1192 -0.3716
  505MOL0     C66559  -0.367   5.285   4.405  0.0593 -1.0924 -1.1526
  505MOL0     C66560  -0.407   5.271   4.272 -0.2535 -0.0994 -0.4401
  505MOL0     C66561  -0.502   5.175   4.238  0.6815 -0.0556 -0.6258
  505MOL0     C66562  -0.563   5.087   4.330  0.3299 -0.1014 -0.6633
  505MOL0     O66563  -0.650   4.985   4.296 -0.4897  0.5951  0.3873
  505MOL0     C66564  -0.606   4.851   4.331 -0.1906 -0.1312  0.5961
  505MOL0     C66565  -0.521   4.782   4.214 -0.5332  0.5122 -1.1258
  505MOL0     C66566  -0.578   4.798   4.063 -1.1382 -0.3929 -0.5058
  505MOL0     C66567  -0.706   4.727   4.036 -0.3077 -0.1057  0.6552
  505MOL0     C66568  -0.828   4.815   4.066  0.2367 -0.2122 -0.2412
  505MOL0     C66569  -0.963   4.744   4.059  0.0005 -0.5177  0.9495
  505MOL0     C66570  -1.091   4.834   4.051 -0.2151  0.3322  0.2696
  505MOL0     C66571  -1.156   4.825   3.917  0.4785  0.3864  0.6646
  505MOL0    Cl66572  -1.294   4.940   3.899  0.2719 -0.0021  0.1228
  505MOL0     C66573  -0.520   5.101   4.461  0.0926  0.5754 -0.0338
  505MOL0     C66574  -0.425   5.194   4.497  0.2268  0.6168  0.6503
  505MOL0     O66575  -0.314   5.561   4.352 -0.0531 -0.3958  0.2974
  505MOL0     C66576  -0.023   5.438   4.551  0.6291 -0.0036 -0.6179
  505MOL0     C66577   0.108   5.474   4.580 -0.0045 -0.4978 -0.8563
  505MOL0     N66578   0.551   5.687   5.045 -0.0281  0.3014 -0.4598
  505MOL0     N66579   0.663   5.615   5.051  0.0019  0.1218  0.2167
  505MOL0     C66580   1.237   5.069   4.630  0.1929  0.3567 -0.0608
  505MOL0     C66581   1.377   5.072   4.608 -1.1364  0.1946 -0.2939
  505MOL0     C66582   1.793   5.049   4.461  0.2318  0.2638  0.5148
  505MOL0     C66583   1.869   4.971   4.544  0.1624  0.1613  0.4444
  505MOL0     C66584   2.003   4.974   4.529 -0.6220 -0.1494  0.0411
  505MOL0     C66585   2.072   5.041   4.426  0.4886 -0.2935  0.3236
  505MOL0     O66586   2.210   5.044   4.413  0.1738  0.0709  0.6534
  505MOL0     C66587   2.282   4.934   4.466  0.9021 -0.8105  0.1835
  505MOL0     C66588   2.431   4.948   4.422 -0.9621  0.2919  0.4825
  505MOL0     C66589   2.445   4.908   4.271 -1.1818  0.5632  0.1576
  505MOL0     C66590   2.587   4.895   4.222 -0.2790 -0.1923 -0.5987
  505MOL0     C66591   2.669   4.772   4.260 -0.0983 -0.6183  0.1023
  505MOL0     C66592   2.728   4.678   4.302 -0.6290 -0.5827  0.5344
  505MOL0     C66593   2.000   5.133   4.343 -0.2188  0.3844 -0.0575
  505MOL0     C66594   1.857   5.130   4.363  0.4377 -0.3484  0.8728
  505MOL0     H66595   1.426   4.745   4.520 -3.1375 -1.1051  1.2436
  505MOL0     H66596   1.195   4.736   4.563  2.7476 -1.9331 -0.6994
  505MOL0     H66597   1.027   5.132   4.495  4.1595 -3.0638 -0.1780
  505MOL0     H66598   0.935   5.127   4.643 -0.4166  1.3976 -1.4027
  505MOL0     H66599   0.767   4.994   4.551 -2.0328  0.8239 -2.2208
  505MOL0     H66600   0.865   4.976   4.404 -1.7428  1.4611 -1.4095
  505MOL0     H66601   0.678   5.106   4.377  0.3814 -2.5389 -0.2329
  505MOL0     H66602   0.815   5.218   4.359  0.1778 -2.3860 -1.0426
  505MOL0     H66603   0.596   5.277   4.535 -1.8477 -1.8901  3.2630
  505MOL0     H66604   0.698   5.177   4.631  1.5679  0.5672  0.2349
  505MOL0     H66605   0.747   5.442   4.507 -1.2536  0.4996 -0.0513
  505MOL0     H66606   0.889   5.340   4.538  0.2486  1.9951 -0.4968
  505MOL0     H66607   0.781   5.322   4.792  0.3898  2.7469  4.9047
  505MOL0     H66608   0.661   5.428   4.730 -0.7748  1.0141  0.9619
  505MOL0     H66609   0.961   5.483   4.724 -0.5371 -0.7772 -1.9403
  505MOL0     H66610   0.855   5.599   4.676 -0.2791  0.9205  1.3819
  505MOL0     H66611   0.944   5.643   4.911  1.3979 -0.3416 -3.2130
  505MOL0     H66612   0.878   5.489   4.975  0.8872  0.7720  1.4320
  505MOL0     H66613   0.688   5.759   4.759 -0.9931  0.9175 -0.0576
  505MOL0     H66614   0.491   5.889   4.783  2.9741 -0.6521  0.1458
  505MOL0     H66615   0.460   5.926   4.960  0.2361 -0.9471  1.3563
  505MOL0     H66616   0.265   5.865   4.787  1.2478  0.2275  0.2435
  505MOL0     H66617   0.260   5.811   4.957 -1.0577 -2.7656  0.1841
  505MOL0     H66618   0.343   5.588   4.899 -0.0250 -3.5588 -2.9428
  505MOL0     H66619   0.188   5.625   4.830 -1.7323  4.0739 -3.3163
  505MOL0     H66620   0.354   5.500   4.695  1.0940 -0.0691  0.9088
  505MOL0     H66621   0.457   5.638   4.682  0.0689 -0.3201 -2.0030
  505MOL0     H66622   0.159   5.746   4.398 -0.5258  2.0252  2.7494
  505MOL0     H66623  -0.080   5.699   4.336 -0.2920 -0.0353  1.0740
  505MOL0     H66624  -0.362   5.324   4.188 -0.8674  2.0473  0.5184
  505MOL0     H66625  -0.520   5.150   4.134  1.3573  0.2988 -0.8356
  505MOL0     H66626  -0.698   4.796   4.352  1.0604 -1.6389  2.4341
  505MOL0     H66627  -0.552   4.852   4.426 -0.6677  0.1233  0.8712
  505MOL0     H66628  -0.522   4.677   4.243 -1.3369  0.1912 -2.2541
  505MOL0     H66629  -0.422   4.825   4.233 -0.6828  0.6866 -0.7230
  505MOL0     H66630  -0.509   4.750   3.994 -1.5603 -1.2155 -0.3728
  505MOL0     H66631  -0.584   4.905   4.039 -2.4075  0.1708  1.9641
  505MOL0     H66632  -0.704   4.708   3.928  1.0930  2.9625  0.0420
  505MOL0     H66633  -0.710   4.628   4.082  0.8626 -1.2262 -1.4889
  505MOL0     H66634  -0.831   4.901   3.998 -3.0237 -1.7445 -2.2427
  505MOL0     H66635  -0.822   4.854   4.168  1.8387 -1.3507  0.1306
  505MOL0     H66636  -0.976   4.688   4.152 -0.3110 -1.5737  0.2905
  505MOL0     H66637  -0.956   4.672   3.977 -0.3615 -0.7078  1.0809
  505MOL0     H66638  -1.169   4.796   4.119  0.3515 -1.5332 -0.0745
  505MOL0     H66639  -1.060   4.937   4.067  0.4143  0.5993 -2.2633
  505MOL0     H66640  -1.201   4.726   3.906  1.8459 -0.0397 -2.0081
  505MOL0     H66641  -1.078   4.832   3.840  0.7529  1.2793  1.0116
  505MOL0     H66642  -0.568   5.035   4.532 -0.8880  0.0288 -1.1670
  505MOL0     H66643  -0.412   5.196   4.605 -1.2806  1.7792  0.8408
  505MOL0     H66644  -0.063   5.355   4.610  1.5199 -0.4601 -0.6405
  505MOL0     H66645   0.148   5.406   4.655 -0.9908  0.7255  0.8461
  505MOL0     H66646   1.195   5.162   4.667  0.3065  1.3530 -2.2999
  505MOL0     H66647   1.417   5.173   4.620  1.4900 -0.8705  0.6572
  505MOL0     H66648   1.838   4.909   4.627  0.1149  0.2229  0.4723
  505MOL0     H66649   2.053   4.926   4.612  0.2909  1.8209  0.6989
  505MOL0     H66650   2.243   4.838   4.433  0.3090 -0.9363  1.1986
  505MOL0     H66651   2.263   4.949   4.573 -0.0849 -2.1563  0.2219
  505MOL0     H66652   2.472   5.049   4.429  1.1566 -0.5345  0.7494
  505MOL0     H66653   2.491   4.887   4.490  0.8670  0.8258 -0.6010
  505MOL0     H66654   2.397   4.979   4.203 -0.0542  1.7321  0.5301
  505MOL0     H66655   2.387   4.817   4.255 -0.2936 -0.1707  0.9548
  505MOL0     H66656   2.587   4.888   4.112  0.7743 -3.9699 -0.4947
  505MOL0     H66657   2.650   4.981   4.247  1.0868 -0.7011 -2.0767
  505MOL0     H66658   2.787   4.594   4.335 -2.1254 -1.9046 -0.0612
  505MOL0     H66659   2.060   5.196   4.278  0.4178  0.6503  0.7811
  505MOL0     H66660   1.794   5.197   4.306  0.0674  1.6436  3.4361
  506MOL0     O66661   2.774   1.036  11.117 -0.7781  0.6522  0.9281
  506MOL0     C66662   2.882   1.009  11.063  0.3709 -0.1173 -0.0930
  506MOL0     O66663   2.952   1.086  10.976  0.3472  0.2935 -0.5032
  506MOL0     C66664   2.911   1.214  10.974 -0.2597  0.8316 -0.8801
  506MOL0     C66665   2.800   1.251  10.898  0.9263  1.1080 -0.2704
  506MOL0     C66666   2.768   1.389  10.892  0.7186  0.9555  0.6860
  506MOL0     C66667   2.839   1.495  10.943  0.6035 -0.0366 -0.5562
  506MOL0     O66668   2.807   1.621  10.903  0.7015 -0.0698  0.7144
  506MOL0     C66669   2.859   1.734  10.973 -0.1819  0.1520 -0.7426
  506MOL0     C66670   2.992   1.783  10.924  0.9639 -0.4089 -0.2282
  506MOL0     C66671   2.973   1.894  10.826  0.7893 -0.1714 -0.0009
  506MOL0     C66672   2.960   2.031  10.897  1.2986 -0.3332 -0.2918
  506MOL0     C66673   2.905   2.134  10.793  0.2753 -0.3378  0.5841
  506MOL0     C66674   3.005   2.157  10.671  0.8726 -0.6500  1.0396
  506MOL0     C66675   2.972   2.294  10.592  0.8385  1.6744  0.3884
  506MOL0     C66676   2.830   2.283  10.524 -0.3942  0.2290 -0.4445
  506MOL0     N66677   2.815   2.383  10.416 -0.2689  0.3137 -1.0566
  506MOL0     C66678   2.783   2.346  10.294  0.5030 -0.3808 -0.4366
  506MOL0     C66679   2.807   2.449  10.216  0.5040  0.7566 -0.0063
  506MOL0     C66680   2.749   2.454  10.075 -0.6899  0.0760  0.5742
  506MOL0     C66681   2.675   2.583  10.058 -0.3158 -0.5970 -0.2958
  506MOL0     C66682   2.557   2.590  10.168  0.4748  0.4144 -0.5210
  506MOL0     C66683   2.526   2.742  10.188 -0.2974  0.3242  0.7027
  506MOL0     O66684   2.405   2.763  10.249  0.3042 -0.2683 -0.0007
  506MOL0     C66685   2.361   2.896  10.266 -0.2027  0.5224 -0.8339
  506MOL0     C66686   2.222   2.914  10.296 -0.0183  0.3089  0.7060
  506MOL0     C66687   2.172   3.042  10.329 -0.1410  0.2575 -0.7107
  506MOL0     C66688   2.244   3.152  10.315  0.1799  0.5179 -1.2436
  506MOL0     C66689   2.193   3.281  10.361  0.1132  0.1130  0.1563
  506MOL0     O66690   2.061   3.303  10.377 -0.2973 -0.0210 -0.6982
  506MOL0     C66691   2.007   3.415  10.433 -1.1097 -0.4712  0.0980
  506MOL0     C66692   1.867   3.430  10.411 -0.4798  0.2804  0.2178
  506MOL0     C66693   1.793   3.540  10.459  0.0151 -0.5058 -0.3194
  506MOL0     C66694   1.860   3.636  10.535  0.2714 -0.1634  0.2836
  506MOL0     O66695   1.793   3.745  10.585  0.0076 -0.3543  0.7679
  506MOL0     C66696   1.868   3.862  10.600  0.0720  0.0061 -0.4109
  506MOL0     C66697   1.777   3.984  10.578 -1.0771  0.5593  0.9891
  506MOL0     C66698   1.719   3.984  10.432 -0.3025  0.2520  0.7435
  506MOL0     C66699   1.693   4.128  10.381 -0.9388 -0.0708 -0.9657
  506MOL0     C66700   1.587   4.132  10.265 -0.3796 -1.2011 -0.7782
  506MOL0     C66701   1.607   4.260  10.185 -0.3503  0.3760 -0.2932
  506MOL0     C66702   1.641   4.387  10.268 -0.4037  0.3651  0.5097
  506MOL0     C66703   1.534   4.414  10.377  0.1207 -0.3291 -0.0649
  506MOL0    Cl66704   1.363   4.403  10.313 -0.1296  0.1130 -0.4923
  506MOL0     C66705   2.001   3.617  10.567  0.3679  0.9503  0.0823
  506MOL0     C66706   2.069   3.510  10.518  0.3481  0.3250  0.6716
  506MOL0     O66707   2.277   3.358  10.398  0.3369 -0.0179  1.0891
  506MOL0     C66708   2.380   3.129  10.301 -0.4369 -0.5747 -0.3539
  506MOL0     C66709   2.441   3.008  10.275  0.8240 -0.6997 -0.8556
  506MOL0     N66710   2.855   2.551  10.303 -0.0420 -0.0407 -0.4095
  506MOL0     N66711   2.857   2.509  10.421  0.0040 -0.2156 -0.6155
  506MOL0     C66712   2.944   1.460  11.030  0.2012  0.4962  0.5163
  506MOL0     C66713   2.984   1.326  11.041 -0.0257  1.1243 -0.3802
  506MOL0     C66714   2.955   0.885  11.112  0.2746  0.1700  0.1951
  506MOL0     C66715   3.096   0.857  11.090 -0.8371 -0.1290  0.0553
  506MOL0     C66716   3.158   0.750  11.155  0.2397 -0.3185 -0.0871
  506MOL0     C66717   3.083   0.661  11.232 -0.2570  0.1664  0.6334
  506MOL0     O66718   3.129   0.543  11.288  0.0762  0.5238 -0.3794
  506MOL0     C66719   3.265   0.511  11.248 -0.3306  0.6960 -0.1936
  506MOL0     C66720   3.303   0.371  11.315  0.4891 -0.5267  0.7213
  506MOL0     C66721   3.388   0.376  11.448  0.1271  0.1745  0.7949
  506MOL0     C66722   3.307   0.447  11.559  0.7464 -0.4887  0.2804
  506MOL0     C66723   3.363   0.458  11.692  0.3048 -1.4206 -1.0072
  506MOL0     C66724   3.418   0.464  11.798 -0.5259 -0.8839 -0.0784
  506MOL0     C66725   2.950   0.692  11.257  0.4886  0.3116 -0.4120
  506MOL0     C66726   2.884   0.795  11.193  0.0314 -0.4021 -0.0924
  506MOL0     H66727   2.737   1.173  10.857 -0.8473  2.6906 -0.6766
  506MOL0     H66728   2.686   1.428  10.832  0.7368  1.7706  1.1726
  506MOL0     H66729   2.859   1.716  11.081 -1.8891 -0.9152 -0.8860
  506MOL0     H66730   2.793   1.820  10.959  0.7589  0.6489 -2.3797
  506MOL0     H66731   3.045   1.705  10.869  1.5805 -0.8036  0.8848
  506MOL0     H66732   3.061   1.803  11.006 -1.5150 -0.9658  2.1643
  506MOL0     H66733   2.890   1.874  10.757 -0.2290  0.8857  0.8809
  506MOL0     H66734   3.060   1.894  10.760  1.7074 -3.8623  0.9720
  506MOL0     H66735   2.894   2.020  10.983  1.7780 -2.7793 -0.1424
  506MOL0     H66736   3.049   2.072  10.945 -1.1749  1.7276  2.9611
  506MOL0     H66737   2.880   2.229  10.842  1.0650  0.5436 -0.6790
  506MOL0     H66738   2.808   2.114  10.747  0.2400  1.0447  0.0121
  506MOL0     H66739   2.987   2.073  10.603  1.3811 -0.4936  0.7095
  506MOL0     H66740   3.110   2.159  10.701  1.2206  1.6390 -0.1456
  506MOL0     H66741   2.978   2.377  10.663 -0.6920  0.3933  2.1334
  506MOL0     H66742   3.043   2.287  10.509  0.5761  0.0859  0.2646
  506MOL0     H66743   2.754   2.291  10.602  0.2480 -0.8039  0.3062
  506MOL0     H66744   2.832   2.181  10.483 -0.0446  0.3313 -0.6891
  506MOL0     H66745   2.734   2.250  10.277  1.1958 -0.6157 -1.1654
  506MOL0     H66746   2.675   2.378  10.047 -2.8353  2.9763 -2.3820
  506MOL0     H66747   2.833   2.440  10.006 -2.1749 -5.4475 -0.6067
  506MOL0     H66748   2.628   2.612   9.963  0.6657 -2.1800 -1.3146
  506MOL0     H66749   2.745   2.665  10.073 -2.2219  1.4471 -1.8948
  506MOL0     H66750   2.461   2.551  10.131 -1.5614  4.2257  0.1941
  506MOL0     H66751   2.585   2.540  10.261 -2.3137 -1.3416 -0.4940
  506MOL0     H66752   2.521   2.788  10.089  0.5317 -0.9965  0.0247
  506MOL0     H66753   2.613   2.787  10.236  2.1171 -2.1026 -1.0772
  506MOL0     H66754   2.166   2.822  10.309  3.3784 -2.1670 -0.6813
  506MOL0     H66755   2.069   3.035  10.363  0.4572 -1.0665  0.9045
  506MOL0     H66756   1.807   3.348  10.373 -1.0540  0.7437  0.1138
  506MOL0     H66757   1.688   3.540  10.432 -0.0583 -2.0878 -0.1799
  506MOL0     H66758   1.944   3.886  10.525 -1.9262  1.2026 -2.1697
  506MOL0     H66759   1.918   3.874  10.697 -1.4910 -0.0158  0.4293
  506MOL0     H66760   1.838   4.074  10.585  0.0749  0.0745 -1.7766
  506MOL0     H66761   1.699   3.985  10.654 -2.4113  0.4528 -0.3442
  506MOL0     H66762   1.624   3.930  10.424  1.2110 -2.7789  1.5845
  506MOL0     H66763   1.785   3.928  10.365 -2.0256 -0.8720 -0.1061
  506MOL0     H66764   1.656   4.165  10.477  2.8122 -2.2660  1.5923
  506MOL0     H66765   1.784   4.183  10.357 -0.6106  1.0927  2.3472
  506MOL0     H66766   1.484   4.126  10.303 -0.2864 -1.6769 -0.5902
  506MOL0     H66767   1.596   4.045  10.199  0.7189 -1.8059  0.1335
  506MOL0     H66768   1.523   4.277  10.117 -1.6673 -1.0055  0.9058
  506MOL0     H66769   1.691   4.247  10.116  0.1460  1.8770 -0.0060
  506MOL0     H66770   1.732   4.378  10.328 -1.9114 -3.0570  2.5619
  506MOL0     H66771   1.647   4.466  10.193 -2.1874 -3.5514 -4.3360
  506MOL0     H66772   1.550   4.519  10.401 -0.1094 -0.1378 -0.7076
  506MOL0     H66773   1.545   4.349  10.464 -1.2232 -1.1343 -0.4523
  506MOL0     H66774   2.055   3.686  10.630  2.5742  0.7892 -1.5055
  506MOL0     H66775   2.173   3.511  10.550 -0.8693 -0.9133  5.6018
  506MOL0     H66776   2.443   3.216  10.315 -2.2012  0.4781  1.5627
  506MOL0     H66777   2.549   3.001  10.267  0.8104 -0.7471 -0.9884
  506MOL0     H66778   3.010   1.535  11.073  0.7570 -1.0654  2.5005
  506MOL0     H66779   3.081   1.301  11.082 -1.6274 -2.9230  1.4681
  506MOL0     H66780   3.154   0.938  11.047  1.6344 -0.1856  2.9763
  506MOL0     H66781   3.263   0.735  11.132 -0.3315 -1.7602 -2.0233
  506MOL0     H66782   3.345   0.583  11.264  0.9549 -0.5889 -0.6323
  506MOL0     H66783   3.261   0.502  11.139  2.0907  2.1405 -0.4604
  506MOL0     H66784   3.216   0.309  11.336 -1.4071  0.9888 -1.9825
  506MOL0     H66785   3.370   0.318  11.247  1.9352 -0.8586  2.3464
  506MOL0     H66786   3.487   0.417  11.423  0.5423 -1.5496 -0.6597
  506MOL0     H66787   3.410   0.277  11.489  1.4996  1.1778  2.6757
  506MOL0     H66788   3.273   0.540  11.511  3.3339  0.3219 -0.1433
  506MOL0     H66789   3.212   0.394  11.559 -0.6090  1.8004 -0.6044
  506MOL0     H66790   3.465   0.460  11.895 -2.9867 -1.6168  1.1713
  506MOL0     H66791   2.895   0.613  11.307  2.6085 -0.6004  0.6392
  506MOL0     H66792   2.777   0.810  11.204 -0.1963 -2.4193  0.9501
  507MOL0     O66793   6.623   7.325   8.539 -0.5338 -0.1566  0.4069
  507MOL0     C66794   6.520   7.255   8.548 -0.1695 -0.1501  0.3873
  507MOL0     O66795   6.505   7.125   8.502  0.9577 -0.2776 -0.2046
  507MOL0     C66796   6.603   7.035   8.466 -1.4189  0.1795  1.2920
  507MOL0     C66797   6.554   6.931   8.390  1.2013  0.2924  0.2847
  507MOL0     C66798   6.646   6.837   8.339 -0.1025  0.5334  0.2804
  507MOL0     C66799   6.783   6.843   8.369  0.9010  1.3025 -0.2997
  507MOL0     O66800   6.848   6.744   8.304  0.1906  0.0547  0.6116
  507MOL0     C66801   6.987   6.738   8.318  0.2762  0.5142 -0.5422
  507MOL0     C66802   7.048   6.642   8.210  0.1832 -0.2854 -0.3216
  507MOL0     C66803   7.201   6.648   8.226  0.1494 -0.1429  1.1412
  507MOL0     C66804   7.268   6.519   8.166  0.4621 -0.5228  0.4257
  507MOL0     C66805   7.421   6.509   8.178  0.2750  1.1385 -0.5549
  507MOL0     C66806   7.504   6.611   8.107  0.4222 -1.2379 -0.2075
  507MOL0     C66807   7.463   6.669   7.956  0.1300  0.0045  0.1457
  507MOL0     C66808   7.489   6.568   7.847 -0.0282 -0.3339  0.3635
  507MOL0     N66809   7.628   6.513   7.850 -0.0471  0.0776  0.9912
  507MOL0     C66810   7.744   6.577   7.821 -0.2136  0.7384 -0.6254
  507MOL0     C66811   7.837   6.472   7.802  0.8585  0.0854 -1.1907
  507MOL0     C66812   7.980   6.493   7.777 -0.6271  0.4297 -1.5108
  507MOL0     C66813   8.001   6.557   7.649  0.3760 -0.3090  0.6158
  507MOL0     C66814   8.149   6.607   7.647 -0.2047 -0.4244 -0.3030
  507MOL0     C66815   8.182   6.673   7.516  0.2545 -0.1639 -0.1515
  507MOL0     O66816   8.179   6.577   7.413 -0.2265 -0.1626 -0.4393
  507MOL0     C66817   8.298   6.555   7.357 -0.3017  0.2537  0.7563
  507MOL0     C66818   8.372   6.452   7.416  1.2676  0.4284 -0.3964
  507MOL0     C66819   8.505   6.418   7.358  0.5229  0.8603 -0.3938
  507MOL0     C66820   8.559   6.491   7.248 -0.2728 -1.3037 -0.3303
  507MOL0     C66821   8.681   6.449   7.190 -0.0686  0.7359  0.0289
  507MOL0     O66822   8.759   6.363   7.263  0.8033 -0.2045 -0.2513
  507MOL0     C66823   8.892   6.342   7.238  0.9327  0.1451 -0.2354
  507MOL0     C66824   8.987   6.438   7.207 -0.2854 -0.9170 -0.3505
  507MOL0     C66825   9.128   6.414   7.197 -0.7507 -0.1710 -1.1214
  507MOL0     C66826   9.171   6.274   7.212  0.1874  0.1239 -0.9599
  507MOL0     O66827   9.299   6.226   7.216 -0.1265 -0.1398  0.4828
  507MOL0     C66828   9.393   6.334   7.202 -0.7271  0.0916  0.2755
  507MOL0     C66829   9.539   6.276   7.217 -0.4222  0.1579 -0.5437
  507MOL0     C66830   9.566   6.191   7.351  1.1237  0.2343  0.1266
  507MOL0     C66831   9.652   6.079   7.303 -0.4118  0.8618  0.1429
  507MOL0     C66832   9.707   5.990   7.417  0.9217  0.1860 -0.1846
  507MOL0     C66833   9.835   6.041   7.485  0.3026  0.3924  0.3021
  507MOL0     C66834   9.956   5.957   7.449 -0.5053 -0.7602  0.6216
  507MOL0     C66835   9.976   5.820   7.520  0.2930 -0.5810 -0.5674
  507MOL0    Cl66836  10.143   5.776   7.477  0.2957 -0.2659  0.0461
  507MOL0     C66837   9.073   6.182   7.261 -0.3997 -0.0181  0.7344
  507MOL0     C66838   8.933   6.213   7.270  0.6528  0.5581  0.3820
  507MOL0     O66839   8.719   6.504   7.090 -0.7124 -0.5224  0.6014
  507MOL0     C66840   8.470   6.595   7.193 -1.3963 -0.1869  0.7205
  507MOL0     C66841   8.348   6.628   7.248 -0.1194 -0.2132 -0.7967
  507MOL0     N66842   7.773   6.349   7.830 -0.2759 -0.3156  0.3076
  507MOL0     N66843   7.654   6.380   7.859  0.1246  0.1783 -1.0679
  507MOL0     C66844   6.825   6.945   8.454 -0.3109 -0.2682  0.3789
  507MOL0     C66845   6.738   7.042   8.491 -0.6920 -0.2932 -0.0796
  507MOL0     C66846   6.403   7.337   8.589  0.4450 -0.0920 -0.3916
  507MOL0     C66847   6.409   7.479   8.612  0.8684 -0.0657 -0.0556
  507MOL0     C66848   6.298   7.554   8.640 -0.3059  0.4152  0.5451
  507MOL0     C66849   6.169   7.492   8.636  1.1590  0.7030  0.5865
  507MOL0     O66850   6.058   7.569   8.661 -0.3709  0.0865  0.8489
  507MOL0     C66851   5.942   7.514   8.720  0.6524 -0.5753  0.0750
  507MOL0     C66852   5.874   7.614   8.820 -0.5997  0.6774  0.4817
  507MOL0     C66853   5.740   7.568   8.876 -0.3776 -0.2441  0.6915
  507MOL0     C66854   5.670   7.685   8.955 -0.2417 -0.7967  0.4328
  507MOL0     C66855   5.725   7.712   9.086  0.6052  0.7202  1.0136
  507MOL0     C66856   5.763   7.717   9.203 -0.0204  0.1263  0.4030
  507MOL0     C66857   6.159   7.357   8.597 -0.6918 -0.4389  0.2205
  507MOL0     C66858   6.271   7.281   8.582 -0.8160  0.1916 -0.6378
  507MOL0     H66859   6.448   6.919   8.370  1.0382  1.4889  0.3637
  507MOL0     H66860   6.596   6.764   8.276  0.1677  0.1209  0.5438
  507MOL0     H66861   7.012   6.701   8.418 -0.0701 -0.9800 -0.9804
  507MOL0     H66862   7.027   6.838   8.302  1.1909  0.0626 -1.1670
  507MOL0     H66863   7.034   6.691   8.113 -2.0213 -0.6460 -0.2490
  507MOL0     H66864   7.005   6.541   8.206  4.1870 -2.1763 -0.1972
  507MOL0     H66865   7.234   6.663   8.329  0.7535  1.4662  0.7439
  507MOL0     H66866   7.244   6.737   8.178  1.9912 -0.9730  1.1503
  507MOL0     H66867   7.231   6.433   8.222  2.4019 -0.5552  1.7497
  507MOL0     H66868   7.245   6.503   8.060  0.5302  0.6025  0.2276
  507MOL0     H66869   7.450   6.424   8.116  0.3515  0.6901  0.0773
  507MOL0     H66870   7.448   6.480   8.280 -0.6968 -2.0856 -1.1143
  507MOL0     H66871   7.613   6.603   8.107  0.5427  0.1251  0.9442
  507MOL0     H66872   7.482   6.694   8.175 -1.8253 -1.0159 -1.0975
  507MOL0     H66873   7.358   6.700   7.960  0.9481  2.9847  1.2908
  507MOL0     H66874   7.501   6.767   7.926 -1.5695  0.6957  0.1143
  507MOL0     H66875   7.467   6.628   7.758  1.5675  1.5019  1.1436
  507MOL0     H66876   7.424   6.480   7.846  1.9702 -1.8842 -0.9094
  507MOL0     H66877   7.761   6.684   7.812 -0.5148  1.0995  2.1305
  507MOL0     H66878   8.024   6.393   7.776 -1.6792 -0.0407 -1.8766
  507MOL0     H66879   8.017   6.559   7.856 -3.0702 -0.1148  0.1824
  507MOL0     H66880   7.939   6.646   7.638 -1.1545 -1.3127  0.7962
  507MOL0     H66881   7.995   6.495   7.559 -1.2076  2.1330 -1.0724
  507MOL0     H66882   8.168   6.680   7.726  0.5447  0.3907 -1.2146
  507MOL0     H66883   8.207   6.516   7.670 -0.0483 -0.2390  0.0474
  507MOL0     H66884   8.276   6.725   7.535 -0.3141  0.1218  2.3083
  507MOL0     H66885   8.116   6.758   7.502  2.4231  1.3936 -1.5659
  507MOL0     H66886   8.337   6.380   7.491  2.7553 -0.0625 -0.1465
  507MOL0     H66887   8.552   6.341   7.418 -3.2130 -1.6570 -0.3519
  507MOL0     H66888   8.960   6.544   7.207 -1.1761 -1.1264  0.7271
  507MOL0     H66889   9.194   6.499   7.183  1.0590 -0.9319  1.8412
  507MOL0     H66890   9.386   6.398   7.291  2.3102  0.7763  0.1161
  507MOL0     H66891   9.384   6.388   7.108 -2.4777 -2.4085 -1.1282
  507MOL0     H66892   9.600   6.366   7.231 -1.0113  0.6634 -1.1685
  507MOL0     H66893   9.576   6.218   7.132  1.9485 -2.1872  1.8863
  507MOL0     H66894   9.471   6.149   7.386  1.3447 -0.5917 -0.2426
  507MOL0     H66895   9.606   6.261   7.426 -4.4037  4.1294  0.0722
  507MOL0     H66896   9.601   6.008   7.237  2.7701 -1.1338 -0.4191
  507MOL0     H66897   9.741   6.107   7.245 -0.1006  0.6597  0.5180
  507MOL0     H66898   9.728   5.893   7.372  2.2665  0.8571 -1.0773
  507MOL0     H66899   9.641   5.972   7.502  3.8375  1.5586  2.6111
  507MOL0     H66900   9.817   6.034   7.593 -1.2267 -0.3027  0.0252
  507MOL0     H66901   9.847   6.149   7.474  1.8922  0.1174 -1.0762
  507MOL0     H66902   9.969   5.956   7.340  1.7069 -0.4851  0.8269
  507MOL0     H66903  10.037   6.022   7.484 -0.3658 -0.2137 -0.6372
  507MOL0     H66904   9.911   5.745   7.475  0.8909 -1.3232 -0.2243
  507MOL0     H66905   9.966   5.823   7.629  0.9285 -1.5551 -0.4655
  507MOL0     H66906   9.108   6.079   7.261 -1.1385 -0.4907 -3.7168
  507MOL0     H66907   8.863   6.139   7.308 -1.6627  2.0973 -0.6547
  507MOL0     H66908   8.503   6.651   7.106  1.9601 -1.7155  0.8248
  507MOL0     H66909   8.284   6.711   7.219 -0.3928 -0.2180 -0.2083
  507MOL0     H66910   6.932   6.952   8.470 -0.2341 -0.1456 -0.1715
  507MOL0     H66911   6.769   7.117   8.563 -0.6672  0.4952 -0.9000
  507MOL0     H66912   6.498   7.541   8.613 -0.2596  1.6153  0.6565
  507MOL0     H66913   6.302   7.662   8.652  0.7905  0.3620  0.7626
  507MOL0     H66914   5.968   7.423   8.775 -0.1989 -0.2703  1.0081
  507MOL0     H66915   5.871   7.493   8.639 -2.4666  3.9406  1.2713
  507MOL0     H66916   5.944   7.615   8.904  2.9558 -4.9363 -1.8201
  507MOL0     H66917   5.864   7.708   8.766  0.2332  1.4518  1.6372
  507MOL0     H66918   5.761   7.484   8.943 -0.1925 -1.0846 -0.3931
  507MOL0     H66919   5.685   7.521   8.794 -0.1195 -2.9546  1.9529
  507MOL0     H66920   5.682   7.776   8.895 -1.4630 -1.1952 -0.4619
  507MOL0     H66921   5.564   7.659   8.954  0.0215 -2.3460 -2.8700
  507MOL0     H66922   5.818   7.728   9.295  0.3668  1.9403  0.0064
  507MOL0     H66923   6.059   7.317   8.585 -0.6765 -0.3535 -0.2150
  507MOL0     H66924   6.270   7.178   8.547  2.4769  0.9056 -3.3094
  508MOL0     O66925  11.341   8.789   1.555  0.1381  0.7398 -0.1060
  508MOL0     C66926  11.413   8.865   1.623  0.8294  0.3944  0.3386
  508MOL0     O66927  11.372   8.994   1.654 -0.4149 -0.0374 -0.2299
  508MOL0     C66928  11.258   9.047   1.599 -0.3398  0.6224 -0.4241
  508MOL0     C66929  11.254   9.066   1.462 -1.1821  0.7834 -0.1145
  508MOL0     C66930  11.140   9.117   1.404  0.1019 -0.4506 -0.0259
  508MOL0     C66931  11.025   9.143   1.486  0.4392  1.3286 -0.3271
  508MOL0     O66932  10.912   9.193   1.432 -0.1883  0.1069  0.3724
  508MOL0     C66933  10.786   9.189   1.501  0.4205 -0.4797 -0.0679
  508MOL0     C66934  10.784   9.310   1.604  0.3308 -0.2011 -0.1175
  508MOL0     C66935  10.768   9.437   1.513 -0.9548  0.0569  0.3034
  508MOL0     C66936  10.898   9.495   1.464  0.2580  0.6138 -1.0807
  508MOL0     C66937  10.890   9.640   1.400  1.1349 -0.9986  0.3653
  508MOL0     C66938  10.774   9.655   1.295  0.0329 -0.0492  0.4326
  508MOL0     C66939  10.778   9.793   1.229 -0.5565 -0.1128 -0.0132
  508MOL0     C66940  10.696   9.776   1.096 -0.4223 -0.4125  0.4075
  508MOL0     N66941  10.735   9.886   1.001  0.6093 -0.2485  0.6327
  508MOL0     C66942  10.839   9.893   0.923  0.2886 -0.0145 -0.0985
  508MOL0     C66943  10.851  10.015   0.871 -0.0207 -0.3480  0.6349
  508MOL0     C66944  10.963  10.072   0.789  0.0890 -0.4124 -0.0138
  508MOL0     C66945  10.917  10.070   0.643 -0.1219 -0.5414  0.0558
  508MOL0     C66946  11.034  10.064   0.550 -0.5126  0.0467  0.7315
  508MOL0     C66947  11.146  10.169   0.570 -0.7418 -0.1975  0.2458
  508MOL0     O66948  11.241  10.140   0.466  0.5443 -0.7516 -0.4856
  508MOL0     C66949  11.317  10.247   0.434  0.5315 -0.5646  0.0266
  508MOL0     C66950  11.392  10.229   0.319  0.3663  0.0343 -0.0648
  508MOL0     C66951  11.461  10.330   0.252 -0.9339  0.7754 -0.4535
  508MOL0     C66952  11.456  10.460   0.294 -0.3830 -0.6678 -0.4746
  508MOL0     C66953  11.517  10.579   0.223 -0.0884  0.8778  0.0197
  508MOL0     O66954  11.465  10.702   0.259 -0.5468  0.5462 -0.1310
  508MOL0     C66955  11.531  10.820   0.248  0.7320 -1.0121  0.6039
  508MOL0     C66956  11.671  10.832   0.255  0.2887 -0.0504 -0.1259
  508MOL0     C66957  11.738  10.949   0.228  0.0267 -0.2291  0.5699
  508MOL0     C66958  11.671  11.064   0.199 -0.5974 -0.7432 -0.4052
  508MOL0     O66959  11.730  11.189   0.196 -0.2266  0.5600  0.8965
  508MOL0     C66960  11.855  11.185   0.123 -0.0117  0.5331  0.1147
  508MOL0     C66961  11.979  11.193   0.220  0.8439  0.2269  0.7918
  508MOL0     C66962  12.099  11.174   0.129 -0.8521  0.5447  0.3076
  508MOL0     C66963  12.216  11.152   0.220  0.2350 -0.0987  0.1783
  508MOL0     C66964  12.312  11.038   0.160  0.1225  0.5316 -0.2854
  508MOL0     C66965  12.355  11.048   0.017  0.2156 -0.2520  0.5821
  508MOL0     C66966  12.439  10.933  -0.023 -0.5690  0.0772 -0.0355
  508MOL0     C66967  12.472  10.962  -0.171 -0.5353 -0.2157 -0.0425
  508MOL0    Cl66968  12.571  11.112  -0.187 -0.2471 -0.2980 -0.2700
  508MOL0     C66969  11.531  11.063   0.211 -0.0674  0.3341  0.4549
  508MOL0     C66970  11.458  10.946   0.235  0.0196  0.4603  0.2522
  508MOL0     O66971  11.606  10.559   0.136 -0.4726  0.3238  0.7966
  508MOL0     C66972  11.373  10.484   0.409 -0.6534  0.9327  0.0942
  508MOL0     C66973  11.325  10.372   0.486 -0.0074  0.4751 -0.0086
  508MOL0     N66974  10.754  10.094   0.930  0.1146  0.7255  0.1867
  508MOL0     N66975  10.680  10.010   1.002 -0.2291  0.4548 -0.4362
  508MOL0     C66976  11.023   9.109   1.625  0.4162  0.3239  0.2082
  508MOL0     C66977  11.141   9.064   1.681 -0.6554 -0.8468 -0.3111
  508MOL0     C66978  11.535   8.804   1.682  0.0692  0.7039  0.4399
  508MOL0     C66979  11.627   8.884   1.735 -0.0641 -0.3488 -1.1054
  508MOL0     C66980  11.763   8.843   1.757 -0.3023  0.2619 -0.5842
  508MOL0     C66981  11.791   8.707   1.754 -0.5422 -0.3943  0.3245
  508MOL0     O66982  11.913   8.660   1.791 -0.3782  0.6018  0.4686
  508MOL0     C66983  11.940   8.661   1.933 -0.0861 -0.4218  0.4015
  508MOL0     C66984  12.026   8.790   1.968  0.4756  0.2373  0.8092
  508MOL0     C66985  12.107   8.768   2.098 -0.8335  1.2228  0.1265
  508MOL0     C66986  12.256   8.729   2.079 -0.3014  0.0266  0.5728
  508MOL0     C66987  12.349   8.809   2.164  0.7615  0.3188  0.8561
  508MOL0     C66988  12.418   8.869   2.245 -0.5030 -0.5912  0.1317
  508MOL0     C66989  11.689   8.613   1.729  0.0198  0.9953  0.1680
  508MOL0     C66990  11.570   8.662   1.678  0.1543 -0.4426 -0.2299
  508MOL0     H66991  11.341   9.050   1.399  1.0000  2.7708  2.1727
  508MOL0     H66992  11.142   9.149   1.300  0.0274  0.6289  0.2948
  508MOL0     H66993  10.776   9.090   1.545 -2.1401  0.8448  2.6966
  508MOL0     H66994  10.707   9.198   1.426  0.1466 -3.2536 -0.2084
  508MOL0     H66995  10.874   9.324   1.665 -0.0407 -0.4699  0.4957
  508MOL0     H66996  10.694   9.292   1.663 -2.1301  0.0554 -3.5126
  508MOL0     H66997  10.702   9.510   1.561 -1.4359  0.1001 -0.4217
  508MOL0     H66998  10.720   9.415   1.418 -0.1710 -0.9784  0.1264
  508MOL0     H66999  10.970   9.516   1.543 -3.0466  0.2096  2.3448
  508MOL0     H67000  10.943   9.427   1.391 -1.1767 -1.0862 -0.4673
  508MOL0     H67001  10.989   9.664   1.359  0.3269  2.7533  0.2511
  508MOL0     H67002  10.877   9.703   1.488  1.3460 -0.1744 -0.1872
  508MOL0     H67003  10.675   9.647   1.341 -0.1762 -0.7556 -0.1175
  508MOL0     H67004  10.785   9.576   1.220  0.7602  1.4217 -1.1070
  508MOL0     H67005  10.750   9.870   1.301  1.5287  0.3607  0.3628
  508MOL0     H67006  10.881   9.811   1.196  0.4276 -1.2862  2.2195
  508MOL0     H67007  10.591   9.778   1.128 -0.0652  5.1461  2.2940
  508MOL0     H67008  10.724   9.681   1.049 -0.9832  0.7234 -2.3786
  508MOL0     H67009  10.912   9.815   0.902 -0.6545 -0.6802 -0.9705
  508MOL0     H67010  11.051  10.009   0.799 -0.4407 -0.9509  1.4514
  508MOL0     H67011  10.997  10.169   0.826  0.0794 -1.0629  1.7696
  508MOL0     H67012  10.867  10.164   0.617 -0.9368 -1.3603 -1.4901
  508MOL0     H67013  10.861   9.979   0.622  0.6474 -1.1345  0.5340
  508MOL0     H67014  11.079   9.964   0.550  1.8340  1.0187  0.5860
  508MOL0     H67015  10.998  10.072   0.447 -0.5014 -1.2614  0.6120
  508MOL0     H67016  11.199  10.157   0.665  3.1223 -0.6363 -1.7380
  508MOL0     H67017  11.103  10.269   0.571  1.6778  0.9233  1.4079
  508MOL0     H67018  11.374  10.139   0.261  0.4439 -1.7988  2.5993
  508MOL0     H67019  11.517  10.317   0.160 -0.0062  0.6404  0.1162
  508MOL0     H67020  11.724  10.739   0.271  1.1396  0.4411 -0.0469
  508MOL0     H67021  11.846  10.933   0.236 -0.0536 -1.1916 -0.1296
  508MOL0     H67022  11.860  11.276   0.063 -0.3775  1.2569  1.1619
  508MOL0     H67023  11.853  11.102   0.051 -0.1402  0.4759  0.1846
  508MOL0     H67024  11.961  11.111   0.290  1.7420 -3.8922 -3.2632
  508MOL0     H67025  11.980  11.289   0.272 -1.4945  0.6156  0.2332
  508MOL0     H67026  12.114  11.264   0.069 -2.8385  0.9011  0.2986
  508MOL0     H67027  12.076  11.085   0.069 -0.3522 -0.7327  1.9490
  508MOL0     H67028  12.275  11.242   0.233  1.2784 -1.0160  2.1999
  508MOL0     H67029  12.192  11.134   0.325 -0.3060 -0.3545  0.0200
  508MOL0     H67030  12.258  10.943   0.173  0.0674  0.6220  0.1718
  508MOL0     H67031  12.400  11.031   0.224 -0.5762 -3.9642  0.5580
  508MOL0     H67032  12.405  11.143  -0.000  1.1436  0.4624  5.6479
  508MOL0     H67033  12.265  11.051  -0.045  1.3709 -1.1799 -1.2187
  508MOL0     H67034  12.533  10.931   0.034  0.4149  1.7968 -1.4919
  508MOL0     H67035  12.382  10.840  -0.022  0.0350 -0.3148 -0.9658
  508MOL0     H67036  12.380  10.976  -0.229 -1.4060 -2.7902  0.5868
  508MOL0     H67037  12.527  10.881  -0.218  1.2854  1.4463 -0.9130
  508MOL0     H67038  11.479  11.158   0.202  0.6454  0.5623 -1.9841
  508MOL0     H67039  11.351  10.935   0.245  0.3166 -1.6685  1.8086
  508MOL0     H67040  11.352  10.586   0.441  0.8979  0.9128  1.2928
  508MOL0     H67041  11.268  10.388   0.578 -0.7475 -0.1345 -0.3509
  508MOL0     H67042  10.936   9.114   1.690 -0.6613 -0.0206 -1.1613
  508MOL0     H67043  11.159   9.068   1.788  4.0296  4.0483 -0.8509
  508MOL0     H67044  11.606   8.991   1.730 -2.4338 -0.6418  0.7440
  508MOL0     H67045  11.835   8.916   1.793  0.8256 -1.4299  0.7033
  508MOL0     H67046  12.003   8.572   1.942  0.3579 -0.4512 -2.1403
  508MOL0     H67047  11.849   8.670   1.993 -2.5314 -0.9844 -2.9361
  508MOL0     H67048  12.083   8.814   1.878  1.2680 -0.1244  1.2006
  508MOL0     H67049  11.962   8.870   2.006  1.3901  0.0778  2.8502
  508MOL0     H67050  12.045   8.708   2.164  0.4117 -0.4489 -0.1299
  508MOL0     H67051  12.119   8.868   2.140  1.2358  0.7316  0.8496
  508MOL0     H67052  12.272   8.622   2.099  0.0263  0.3338  2.0578
  508MOL0     H67053  12.290   8.748   1.976 -3.3770 -2.2682 -1.0437
  508MOL0     H67054  12.475   8.923   2.317 -0.6577 -0.3045  0.0438
  508MOL0     H67055  11.710   8.506   1.731 -0.4415  0.9073  0.5753
  508MOL0     H67056  11.503   8.587   1.638 -1.7297 -0.2793  2.3775
  509MOL0     O67057   0.536   1.977   8.422 -0.4107 -0.4873  0.1109
  509MOL0     C67058   0.510   1.965   8.546  0.1654 -0.8153 -0.5960
  509MOL0     O67059   0.383   1.976   8.607  0.3973  0.1771  0.1724
  509MOL0     C67060   0.264   1.963   8.545 -0.2367 -1.9079 -0.4518
  509MOL0     C67061   0.165   1.887   8.593 -1.1872 -0.4701  0.1123
  509MOL0     C67062   0.038   1.871   8.530 -0.7098 -0.2767 -0.0029
  509MOL0     C67063   0.015   1.948   8.415  0.9156  0.8644  0.7531
  509MOL0     O67064  -0.115   1.925   8.361 -0.6835 -0.8620 -0.4216
  509MOL0     C67065  -0.134   1.831   8.252  0.3445 -0.0784  0.2460
  509MOL0     C67066  -0.249   1.733   8.297 -0.3802  0.3788 -0.7458
  509MOL0     C67067  -0.380   1.802   8.329  0.3198 -0.0289 -0.3004
  509MOL0     C67068  -0.436   1.859   8.201 -0.0765 -0.3753 -0.5136
  509MOL0     C67069  -0.585   1.822   8.175 -0.6519 -0.6722 -0.5827
  509MOL0     C67070  -0.642   1.931   8.088  0.0616  0.1105  0.3357
  509MOL0     C67071  -0.792   1.921   8.072 -0.0996  0.5546 -0.7422
  509MOL0     C67072  -0.831   1.835   7.945  0.8190  1.1936 -0.0797
  509MOL0     N67073  -0.980   1.839   7.915 -0.1415  0.4246 -0.2640
  509MOL0     C67074  -1.073   1.775   7.987 -0.2389  1.3678 -0.3698
  509MOL0     C67075  -1.188   1.793   7.931 -0.3122  0.0422 -0.0478
  509MOL0     C67076  -1.327   1.777   7.993  0.7545  0.0906  0.1124
  509MOL0     C67077  -1.390   1.633   7.973 -0.0737 -1.1185 -0.3929
  509MOL0     C67078  -1.336   1.532   8.067 -1.0906 -0.7647  1.9002
  509MOL0     C67079  -1.404   1.397   8.065  1.5115  0.3049  0.3912
  509MOL0     O67080  -1.549   1.410   8.107  0.4999  0.0246 -0.3224
  509MOL0     C67081  -1.638   1.295   8.104 -0.1684  0.8515 -0.2716
  509MOL0     C67082  -1.764   1.320   8.147 -0.3958  0.4507  0.3444
  509MOL0     C67083  -1.867   1.223   8.158 -0.9234  0.0845  0.8224
  509MOL0     C67084  -1.831   1.084   8.130  0.8484 -0.2554 -0.2620
  509MOL0     C67085  -1.937   0.986   8.148 -0.3557 -0.0078  0.0666
  509MOL0     O67086  -2.057   1.028   8.204  0.6668 -0.3958 -0.0723
  509MOL0     C67087  -2.160   0.939   8.221 -0.3410  0.2157 -0.3660
  509MOL0     C67088  -2.225   0.935   8.348  0.3195 -0.6867 -0.3737
  509MOL0     C67089  -2.330   0.847   8.364 -0.5558 -0.9057 -0.2336
  509MOL0     C67090  -2.368   0.768   8.263  0.9099 -0.2623 -0.5548
  509MOL0     O67091  -2.478   0.679   8.275 -0.3385 -0.2080  0.1073
  509MOL0     C67092  -2.603   0.739   8.265  0.6016 -0.6852 -0.1969
  509MOL0     C67093  -2.679   0.735   8.406  0.4753  0.3218  0.2783
  509MOL0     C67094  -2.827   0.714   8.375 -0.2142 -1.2121 -0.3955
  509MOL0     C67095  -2.912   0.785   8.483  0.8607 -0.2548  0.7363
  509MOL0     C67096  -3.051   0.723   8.498 -0.3424 -0.1450  0.3394
  509MOL0     C67097  -3.132   0.724   8.368 -0.0477 -0.1155  0.6426
  509MOL0     C67098  -3.155   0.872   8.314 -0.2545  0.6683  0.6764
  509MOL0     C67099  -3.223   0.874   8.174 -0.4034 -0.0438 -0.0408
  509MOL0    Cl67100  -3.104   0.859   8.033  0.3000  0.7016  0.0636
  509MOL0     C67101  -2.304   0.770   8.143  0.1777 -0.5127 -0.1996
  509MOL0     C67102  -2.198   0.854   8.116 -0.5077  0.4717 -0.4194
  509MOL0     O67103  -1.910   0.867   8.118 -0.0546  0.0772  0.1553
  509MOL0     C67104  -1.708   1.065   8.067 -0.1683  0.4952 -0.1572
  509MOL0     C67105  -1.610   1.157   8.064 -0.2672  0.2199 -0.7763
  509MOL0     N67106  -1.164   1.879   7.830 -0.4926  0.3168  0.9240
  509MOL0     N67107  -1.040   1.902   7.810  0.9956  0.7449 -0.1492
  509MOL0     C67108   0.115   2.030   8.353  0.1539 -0.5563 -0.5305
  509MOL0     C67109   0.243   2.038   8.429  1.4290 -0.1946 -0.1006
  509MOL0     C67110   0.633   1.956   8.639 -0.6957 -0.5120 -0.1775
  509MOL0     C67111   0.619   1.968   8.779  0.8379 -0.3766  1.1090
  509MOL0     C67112   0.721   1.945   8.865  0.2530  0.9469 -0.4555
  509MOL0     C67113   0.856   1.924   8.814  0.5093  1.0823  0.5816
  509MOL0     O67114   0.961   1.895   8.893 -0.1265  0.5047 -0.6079
  509MOL0     C67115   0.955   1.948   9.028  0.2420 -0.2116 -0.2857
  509MOL0     C67116   1.075   1.902   9.107 -0.4080 -0.1165  0.5487
  509MOL0     C67117   1.214   1.930   9.042  0.3762 -0.1097  0.4146
  509MOL0     C67118   1.315   1.944   9.142 -0.7309  0.2281  0.1928
  509MOL0     C67119   1.444   1.974   9.078 -0.7543 -0.1982  0.3399
  509MOL0     C67120   1.548   2.008   9.025  0.7702 -0.8668  0.2411
  509MOL0     C67121   0.873   1.920   8.682  0.4320 -0.0295 -0.6366
  509MOL0     C67122   0.765   1.941   8.592 -0.4048  0.8882 -0.1019
  509MOL0     H67123   0.195   1.833   8.682  0.6007  2.1234  1.1655
  509MOL0     H67124  -0.031   1.801   8.578  1.5350 -1.3944  1.7917
  509MOL0     H67125  -0.042   1.780   8.224  0.5901  2.3029 -4.2153
  509MOL0     H67126  -0.180   1.883   8.167  0.2166 -2.1286 -1.0023
  509MOL0     H67127  -0.222   1.674   8.385 -0.8225 -1.8562 -2.0191
  509MOL0     H67128  -0.263   1.658   8.219 -2.5168  0.5687 -0.6018
  509MOL0     H67129  -0.356   1.880   8.401 -3.9052  2.2678 -1.0509
  509MOL0     H67130  -0.452   1.735   8.377 -1.3315  1.9660  0.1314
  509MOL0     H67131  -0.431   1.966   8.221  1.9431 -1.0948  4.1292
  509MOL0     H67132  -0.379   1.830   8.111  0.4184 -0.9998 -0.0104
  509MOL0     H67133  -0.634   1.810   8.273  1.7096 -2.4147  0.4943
  509MOL0     H67134  -0.590   1.722   8.130  1.8323 -0.5766 -1.1800
  509MOL0     H67135  -0.594   1.932   7.990 -2.8953  0.9197 -1.2278
  509MOL0     H67136  -0.624   2.027   8.138 -2.1230  0.7542 -0.0065
  509MOL0     H67137  -0.835   1.874   8.161  1.9409 -0.3268 -0.1557
  509MOL0     H67138  -0.829   2.023   8.059 -1.4953  0.0532 -0.8361
  509MOL0     H67139  -0.790   1.736   7.964 -1.5442 -0.9111 -4.4898
  509MOL0     H67140  -0.775   1.878   7.861 -1.0886 -1.0259 -2.6324
  509MOL0     H67141  -1.062   1.719   8.080 -0.9247  0.6406 -0.7077
  509MOL0     H67142  -1.396   1.853   7.953  0.6200 -1.2907 -2.4363
  509MOL0     H67143  -1.309   1.784   8.101 -4.1464 -4.3457  1.6443
  509MOL0     H67144  -1.363   1.617   7.868 -1.3255 -1.0371 -0.7454
  509MOL0     H67145  -1.499   1.629   7.982  0.0077 -1.8729  0.4133
  509MOL0     H67146  -1.232   1.515   8.038 -1.7432 -0.4127 -0.8824
  509MOL0     H67147  -1.344   1.568   8.170 -4.0526  1.5225  1.0184
  509MOL0     H67148  -1.351   1.331   8.135  1.6647  0.2050  0.1830
  509MOL0     H67149  -1.398   1.357   7.964 -1.2185  2.9962 -0.9891
  509MOL0     H67150  -1.781   1.423   8.176  0.7294  0.8476 -0.3215
  509MOL0     H67151  -1.964   1.253   8.196 -1.6257 -0.9297 -0.0841
  509MOL0     H67152  -2.196   1.003   8.428  0.3985  0.5218 -1.3805
  509MOL0     H67153  -2.377   0.844   8.462 -1.6250 -0.9946 -0.7366
  509MOL0     H67154  -2.649   0.673   8.191  1.1850 -1.3329  0.0067
  509MOL0     H67155  -2.603   0.834   8.211 -0.8310 -2.1108 -2.9265
  509MOL0     H67156  -2.667   0.830   8.459 -0.1547  1.6566 -1.8810
  509MOL0     H67157  -2.652   0.657   8.478  0.3178  0.7824  0.8416
  509MOL0     H67158  -2.838   0.605   8.380 -2.2147 -1.0971 -1.0744
  509MOL0     H67159  -2.861   0.752   8.278  0.5695  0.9761  0.1294
  509MOL0     H67160  -2.868   0.783   8.582 -1.1073 -4.6258  1.7633
  509MOL0     H67161  -2.921   0.892   8.462  2.7132  0.4739  3.2779
  509MOL0     H67162  -3.110   0.778   8.572 -2.2514 -2.0887  0.3869
  509MOL0     H67163  -3.057   0.626   8.547 -2.8500  1.5003  3.7189
  509MOL0     H67164  -3.231   0.683   8.388  0.3673 -1.7605 -0.4199
  509MOL0     H67165  -3.090   0.660   8.289  0.8252 -0.4305  1.3501
  509MOL0     H67166  -3.222   0.927   8.381 -0.1779 -0.4808  1.7527
  509MOL0     H67167  -3.059   0.923   8.305 -0.1463  0.6154  1.4553
  509MOL0     H67168  -3.288   0.961   8.159  1.3579  1.7562  2.0438
  509MOL0     H67169  -3.289   0.786   8.175 -0.5241  0.0274  1.6122
  509MOL0     H67170  -2.333   0.696   8.069  1.4587 -1.1452 -0.0990
  509MOL0     H67171  -2.156   0.850   8.016 -0.0479 -0.3696 -0.2055
  509MOL0     H67172  -1.692   0.969   8.018 -1.4046  1.6136 -2.9787
  509MOL0     H67173  -1.511   1.127   8.030  0.5426  4.2381 -2.5007
  509MOL0     H67174   0.096   2.076   8.257 -1.8613  3.4246  1.5124
  509MOL0     H67175   0.328   2.089   8.384  0.3482 -0.1315 -2.1995
  509MOL0     H67176   0.520   1.991   8.818  0.2607  0.9618 -1.0168
  509MOL0     H67177   0.696   1.921   8.968  1.3346 -0.3516 -0.4794
  509MOL0     H67178   0.861   1.914   9.073 -1.7309  2.7638 -1.8855
  509MOL0     H67179   0.947   2.056   9.017  2.5847  0.2701  1.8982
  509MOL0     H67180   1.072   1.951   9.205  2.0037 -1.6892  1.4991
  509MOL0     H67181   1.054   1.796   9.126  1.1565 -1.2041 -3.0378
  509MOL0     H67182   1.211   2.018   8.977 -0.0147  1.4088  2.4060
  509MOL0     H67183   1.236   1.837   8.989  0.5082 -1.4129  2.6229
  509MOL0     H67184   1.293   2.031   9.205  1.5711  1.1437 -0.1652
  509MOL0     H67185   1.329   1.850   9.196  3.3155  0.1925 -0.6184
  509MOL0     H67186   1.640   2.037   8.978  0.4245  0.0633  0.1299
  509MOL0     H67187   0.975   1.901   8.651 -0.1961  0.6166 -3.3770
  509MOL0     H67188   0.773   1.934   8.484  2.2759  1.4926  0.0051
  510MOL0     O67189   6.091   5.639   6.996 -0.5099 -0.2140 -0.2613
  510MOL0     C67190   5.989   5.611   6.936  0.4234 -0.2814  0.9072
  510MOL0     O67191   5.888   5.699   6.927  0.4159 -0.0992  0.1195
  510MOL0     C67192   5.899   5.820   6.986  0.1883  0.3045 -0.4686
  510MOL0     C67193   5.854   5.835   7.117  0.4163 -0.0942 -0.3056
  510MOL0     C67194   5.872   5.962   7.174 -0.2134 -0.1521 -0.1491
  510MOL0     C67195   5.930   6.070   7.117 -0.3622 -0.9895  0.1246
  510MOL0     O67196   5.944   6.188   7.177  1.1104 -0.5492 -0.8003
  510MOL0     C67197   5.813   6.255   7.199  1.0095 -0.9434  0.1122
  510MOL0     C67198   5.815   6.406   7.189 -0.2133 -0.1285  0.0616
  510MOL0     C67199   5.917   6.490   7.278 -0.3311  0.2137  0.0754
  510MOL0     C67200   5.854   6.490   7.421 -0.2461  0.3846  0.1420
  510MOL0     C67201   5.912   6.591   7.517  0.2379  0.2765 -0.5241
  510MOL0     C67202   5.830   6.595   7.651 -1.0455  0.2162  0.3934
  510MOL0     C67203   5.873   6.711   7.724  0.5256  0.4158  0.2359
  510MOL0     C67204   5.823   6.717   7.868 -0.2240 -0.6971  0.2096
  510MOL0     N67205   5.864   6.604   7.953 -0.1470  0.3554 -0.3144
  510MOL0     C67206   5.996   6.588   7.986  0.3185  0.9006 -0.1190
  510MOL0     C67207   5.988   6.463   8.034 -0.9442  0.2623 -0.6111
  510MOL0     C67208   6.104   6.367   8.076  0.1366 -0.7604 -0.1500
  510MOL0     C67209   6.218   6.372   7.976 -0.0615 -0.5406  0.7380
  510MOL0     C67210   6.356   6.360   8.043  0.5795  0.7667  0.1313
  510MOL0     C67211   6.444   6.282   7.954 -0.0831 -0.2227 -0.1355
  510MOL0     O67212   6.577   6.325   7.983 -0.9289 -0.3952  0.5308
  510MOL0     C67213   6.668   6.257   8.055 -1.4453 -0.2230 -0.2238
  510MOL0     C67214   6.787   6.331   8.088  0.4843  0.2638  0.1308
  510MOL0     C67215   6.889   6.262   8.152  0.6197 -0.9077  0.2272
  510MOL0     C67216   6.890   6.128   8.184 -0.5769 -0.7704  0.4867
  510MOL0     C67217   7.013   6.060   8.245  0.4425  0.5377  0.2876
  510MOL0     O67218   7.106   6.152   8.293 -0.2881 -0.3966  0.4625
  510MOL0     C67219   7.212   6.105   8.359  0.8994  0.5189  0.1313
  510MOL0     C67220   7.341   6.136   8.309 -1.0214 -0.4618 -1.2766
  510MOL0     C67221   7.461   6.090   8.381  0.1810 -0.3760 -1.0335
  510MOL0     C67222   7.443   6.013   8.496  0.8478  0.9173 -0.7656
  510MOL0     O67223   7.550   5.953   8.569 -0.2160  0.3202 -0.2616
  510MOL0     C67224   7.626   6.054   8.641 -0.2384  0.1269  0.0658
  510MOL0     C67225   7.715   5.999   8.747  1.0758  0.9530 -0.1583
  510MOL0     C67226   7.817   5.902   8.692 -0.0153  0.0324  0.9453
  510MOL0     C67227   7.923   5.870   8.808  0.1737 -0.0137  1.1283
  510MOL0     C67228   8.024   5.765   8.759  0.5950  0.4521  0.0603
  510MOL0     C67229   8.113   5.712   8.874 -0.3890 -0.6674  1.2076
  510MOL0     C67230   8.233   5.609   8.839 -0.5609  0.0014  0.4105
  510MOL0     C67231   8.356   5.665   8.770  0.3367  0.5455  0.2037
  510MOL0    Cl67232   8.451   5.771   8.879 -0.1404  0.4502 -0.1297
  510MOL0     C67233   7.316   5.992   8.549  0.2596 -0.1185  0.6287
  510MOL0     C67234   7.198   6.023   8.475 -0.9666 -0.1210  0.3170
  510MOL0     O67235   7.027   5.938   8.245 -0.0457  0.8196  0.9618
  510MOL0     C67236   6.779   6.060   8.143  0.2539  1.1413  0.3391
  510MOL0     C67237   6.676   6.121   8.080 -0.0701  0.3729  0.4800
  510MOL0     N67238   5.862   6.424   8.058  0.1958 -0.0118 -0.0958
  510MOL0     N67239   5.786   6.507   8.002 -0.0554 -0.3115 -0.0977
  510MOL0     C67240   5.980   6.052   6.993 -0.4364  0.1447  0.8075
  510MOL0     C67241   5.974   5.927   6.929  0.2601  0.6131  0.0361
  510MOL0     C67242   5.974   5.476   6.876  0.2761 -0.0945 -0.1950
  510MOL0     C67243   6.058   5.370   6.915  0.3416  0.2708  0.1080
  510MOL0     C67244   6.051   5.237   6.854  0.5684 -1.1787  1.0708
  510MOL0     C67245   5.951   5.219   6.753 -0.8083 -0.5604 -0.6573
  510MOL0     O67246   5.946   5.093   6.680 -0.3067 -0.2957  0.3971
  510MOL0     C67247   5.855   5.077   6.569  0.1554  0.6147 -0.0785
  510MOL0     C67248   5.857   4.938   6.526 -0.3575 -0.3495 -0.1238
  510MOL0     C67249   5.994   4.897   6.454  0.8034 -1.5150  0.0551
  510MOL0     C67250   6.037   4.745   6.487 -0.4370 -0.3575  0.3572
  510MOL0     C67251   6.087   4.671   6.367  0.2501  0.4646 -0.0156
  510MOL0     C67252   6.120   4.629   6.264  0.2559 -0.8703  0.3050
  510MOL0     C67253   5.860   5.326   6.722 -0.6779  0.2094 -0.1015
  510MOL0     C67254   5.874   5.450   6.777 -0.4228  0.5086 -0.3592
  510MOL0     H67255   5.810   5.751   7.170 -2.3897  1.8969  0.7657
  510MOL0     H67256   5.830   5.977   7.273  0.2517  1.3612 -0.1656
  510MOL0     H67257   5.773   6.232   7.299 -0.2167  0.9812  0.1087
  510MOL0     H67258   5.743   6.214   7.126  1.8051 -0.7249 -0.7941
  510MOL0     H67259   5.712   6.444   7.191  0.4499  1.8137 -0.2378
  510MOL0     H67260   5.837   6.435   7.086  1.7941 -1.5276  0.0265
  510MOL0     H67261   5.924   6.594   7.242 -3.4635  0.3144 -0.5961
  510MOL0     H67262   6.017   6.450   7.262 -0.6451  0.0872 -1.8349
  510MOL0     H67263   5.749   6.519   7.427 -0.5295 -0.5798 -0.1228
  510MOL0     H67264   5.847   6.390   7.463 -0.4430  0.7107  0.9040
  510MOL0     H67265   5.899   6.684   7.462 -0.7524  1.0062  0.8796
  510MOL0     H67266   6.017   6.568   7.538 -0.2934 -1.6300  0.3451
  510MOL0     H67267   5.854   6.501   7.701  1.9648  0.4427 -0.4142
  510MOL0     H67268   5.726   6.617   7.624  0.3782  5.8738 -1.9889
  510MOL0     H67269   5.982   6.721   7.711  0.3281 -0.1986 -2.4707
  510MOL0     H67270   5.831   6.802   7.681 -1.6654  0.3183  2.0041
  510MOL0     H67271   5.714   6.727   7.859 -0.0841 -1.0275 -4.1793
  510MOL0     H67272   5.860   6.811   7.909  0.5628 -1.0088  0.2231
  510MOL0     H67273   6.076   6.661   7.982  0.6986  1.0179  4.2898
  510MOL0     H67274   6.062   6.266   8.081  0.8322 -1.0156  3.6376
  510MOL0     H67275   6.137   6.404   8.173 -0.8189  0.9500 -0.4315
  510MOL0     H67276   6.217   6.468   7.923  0.7738  0.9868  3.2963
  510MOL0     H67277   6.210   6.286   7.909  3.4889 -1.2871  1.1146
  510MOL0     H67278   6.413   6.452   8.058 -0.4686  1.2331  1.5570
  510MOL0     H67279   6.352   6.305   8.138  3.3821 -0.7183 -0.5089
  510MOL0     H67280   6.426   6.313   7.851 -2.3728  1.3942  0.6557
  510MOL0     H67281   6.425   6.175   7.964  1.2752 -0.3363  1.8719
  510MOL0     H67282   6.800   6.435   8.060  0.7005 -0.4102 -2.5218
  510MOL0     H67283   6.971   6.325   8.184 -1.3053  1.2583  1.1983
  510MOL0     H67284   7.360   6.194   8.219  1.3619  0.6780 -0.1282
  510MOL0     H67285   7.560   6.109   8.340 -0.1056  0.0905 -1.5325
  510MOL0     H67286   7.563   6.133   8.682  1.3294  1.9649 -0.9426
  510MOL0     H67287   7.692   6.099   8.566  0.1977 -1.6159 -0.6628
  510MOL0     H67288   7.654   5.953   8.825  4.0347  0.6737  2.1455
  510MOL0     H67289   7.768   6.084   8.790 -0.8123  1.3001  1.6550
  510MOL0     H67290   7.868   5.947   8.607 -0.9726 -1.8689 -0.7432
  510MOL0     H67291   7.764   5.810   8.664  0.8552 -1.1445  2.9429
  510MOL0     H67292   7.977   5.961   8.837  0.5607  1.1778 -2.7180
  510MOL0     H67293   7.868   5.818   8.887  0.5890 -0.4112  1.1616
  510MOL0     H67294   8.080   5.794   8.670  0.3245  2.1102  0.4000
  510MOL0     H67295   7.967   5.678   8.724 -2.6805  2.5607 -0.2786
  510MOL0     H67296   8.045   5.659   8.943 -0.1990 -0.1137  1.8310
  510MOL0     H67297   8.149   5.802   8.924  0.6823 -0.3602 -0.0917
  510MOL0     H67298   8.262   5.574   8.938  0.9179  2.5483  0.9746
  510MOL0     H67299   8.199   5.526   8.777 -0.9010 -0.0117  0.6144
  510MOL0     H67300   8.326   5.714   8.677  0.3591 -1.6685 -1.0385
  510MOL0     H67301   8.410   5.574   8.740 -0.6628  0.9725 -3.2301
  510MOL0     H67302   7.296   5.929   8.635 -0.7965  1.4531  1.5901
  510MOL0     H67303   7.100   5.999   8.516 -1.0176 -2.4728 -0.9856
  510MOL0     H67304   6.772   5.954   8.166  1.7594  0.7746 -0.7446
  510MOL0     H67305   6.587   6.061   8.062  0.3840 -0.3372  0.5676
  510MOL0     H67306   6.030   6.137   6.948  1.8252 -1.3834  0.2321
  510MOL0     H67307   6.004   5.933   6.825  1.0702 -0.3458  0.2055
  510MOL0     H67308   6.134   5.403   6.985 -0.6374  1.1571  0.7906
  510MOL0     H67309   6.129   5.164   6.867  2.6559  0.7319 -0.0088
  510MOL0     H67310   5.893   5.133   6.483 -0.5400 -1.2796 -1.6875
  510MOL0     H67311   5.754   5.116   6.585 -1.2519 -0.4639 -4.8906
  510MOL0     H67312   5.851   4.874   6.615  2.5196  0.4596  0.7454
  510MOL0     H67313   5.762   4.916   6.476 -0.3527  0.2746 -0.4137
  510MOL0     H67314   6.070   4.969   6.484  1.2252 -1.0707 -1.8986
  510MOL0     H67315   5.975   4.916   6.348 -0.3228  0.7022  0.5921
  510MOL0     H67316   6.106   4.748   6.573 -1.6865 -0.2334  1.3774
  510MOL0     H67317   5.941   4.705   6.520 -1.3522  1.0216 -0.5480
  510MOL0     H67318   6.158   4.569   6.184 -0.8561 -3.3685  1.5424
  510MOL0     H67319   5.788   5.324   6.641 -2.2714 -0.2787  1.2839
  510MOL0     H67320   5.792   5.514   6.746 -0.8379 -0.8227 -2.1947
  511MOL0     O67321  11.238   5.919   5.895 -0.1008  0.4831 -0.6283
  511MOL0     C67322  11.221   5.956   6.009 -0.3364  0.3848 -0.5931
  511MOL0     O67323  11.117   5.905   6.085  1.1471 -0.3426  0.0222
  511MOL0     C67324  11.038   5.804   6.041  0.7284 -0.3862  0.8275
  511MOL0     C67325  10.979   5.801   5.914  0.1675 -0.4739  1.0458
  511MOL0     C67326  10.885   5.708   5.876 -1.4893  0.8668  0.2199
  511MOL0     C67327  10.845   5.612   5.964  0.3502 -0.2819 -0.7192
  511MOL0     O67328  10.735   5.523   5.940 -0.3576 -0.3172  0.2403
  511MOL0     C67329  10.753   5.425   5.829 -0.1387  0.1443  0.4171
  511MOL0     C67330  10.738   5.285   5.884 -0.8558 -0.0057  0.0406
  511MOL0     C67331  10.803   5.189   5.789  0.6414  0.5191  0.3263
  511MOL0     C67332  10.948   5.197   5.767  0.3975  0.5084 -0.6387
  511MOL0     C67333  10.994   5.078   5.679  0.3081  0.2093  0.4211
  511MOL0     C67334  11.127   5.115   5.613  0.4092  0.2644  0.2572
  511MOL0     C67335  11.253   5.106   5.703  0.7086  0.6470  0.2374
  511MOL0     C67336  11.376   5.189   5.660 -0.0961 -0.9939  0.2337
  511MOL0     N67337  11.486   5.177   5.750 -0.3361 -0.4299  0.9405
  511MOL0     C67338  11.481   5.175   5.888 -0.3534 -0.6439 -0.2611
  511MOL0     C67339  11.616   5.180   5.920  0.7819  0.1046 -0.4898
  511MOL0     C67340  11.672   5.186   6.058  0.8940 -0.4466 -0.1109
  511MOL0     C67341  11.755   5.051   6.077  0.8016 -0.9834  0.6992
  511MOL0     C67342  11.665   4.920   6.078 -0.3415 -0.5907 -0.0253
  511MOL0     C67343  11.552   4.908   6.181 -0.6382  0.1762  0.0885
  511MOL0     O67344  11.482   4.794   6.127 -0.4658  1.2793  0.8116
  511MOL0     C67345  11.417   4.722   6.229 -0.4554  0.9680 -0.5239
  511MOL0     C67346  11.296   4.759   6.270  0.4880 -0.3616 -0.8767
  511MOL0     C67347  11.228   4.696   6.375 -0.6745 -0.2432 -0.6718
  511MOL0     C67348  11.288   4.586   6.449  0.4488  0.0895  0.0562
  511MOL0     C67349  11.217   4.506   6.560 -0.4582  0.1135  0.4139
  511MOL0     O67350  11.089   4.535   6.581  0.0794 -0.1279 -0.5890
  511MOL0     C67351  11.018   4.472   6.683 -0.4696  0.9914  0.7163
  511MOL0     C67352  10.957   4.547   6.780  0.2179  0.7429  0.3876
  511MOL0     C67353  10.887   4.487   6.891 -0.8474  0.9281  0.6901
  511MOL0     C67354  10.867   4.344   6.884 -0.8596  0.1336 -0.1422
  511MOL0     O67355  10.790   4.285   6.979 -0.0493  0.6240 -0.6230
  511MOL0     C67356  10.710   4.172   6.935 -0.2208 -0.3644  0.7328
  511MOL0     C67357  10.615   4.150   7.058  0.1802 -0.8588 -0.1277
  511MOL0     C67358  10.491   4.078   7.030  0.3853 -0.1551 -0.1843
  511MOL0     C67359  10.408   4.054   7.158 -0.1921 -0.4024  0.4289
  511MOL0     C67360  10.285   3.978   7.129  0.7049 -0.0673  0.3142
  511MOL0     C67361  10.212   3.946   7.258  0.0768  0.3267 -0.0583
  511MOL0     C67362  10.083   3.853   7.244  0.5142 -0.1534  0.6401
  511MOL0     C67363  10.026   3.844   7.391  0.4312 -0.0334 -0.7379
  511MOL0    Cl67364  10.141   3.772   7.500 -0.5537  0.1804  0.0492
  511MOL0     C67365  10.935   4.265   6.783 -0.5862 -0.1044 -0.4222
  511MOL0     C67366  11.005   4.332   6.684  0.4518 -0.0205 -0.0318
  511MOL0     O67367  11.282   4.415   6.604  0.0830  0.4321  0.2328
  511MOL0     C67368  11.420   4.554   6.405  0.1874 -0.4077  0.6367
  511MOL0     C67369  11.490   4.622   6.304 -0.2472  0.4225 -0.4321
  511MOL0     N67370  11.693   5.193   5.798  0.1623  1.1406  0.8324
  511MOL0     N67371  11.611   5.170   5.697 -0.3022  0.3370 -0.4265
  511MOL0     C67372  10.898   5.609   6.090 -1.0130  0.1820 -0.5799
  511MOL0     C67373  10.990   5.705   6.126  0.3116 -0.9065 -0.6138
  511MOL0     C67374  11.318   6.047   6.061 -0.2152  0.1581  0.6738
  511MOL0     C67375  11.287   6.144   6.155  0.5443 -0.6273  0.1603
  511MOL0     C67376  11.381   6.244   6.193  0.7380 -0.0294  0.1876
  511MOL0     C67377  11.514   6.238   6.144 -0.7044  0.6308 -0.0324
  511MOL0     O67378  11.607   6.335   6.182  0.0802 -0.1099 -0.5799
  511MOL0     C67379  11.729   6.291   6.233 -0.6524  0.1714 -0.3518
  511MOL0     C67380  11.720   6.303   6.385 -0.5543 -0.7934 -0.1363
  511MOL0     C67381  11.856   6.257   6.457  0.3386  0.3685 -0.4245
  511MOL0     C67382  11.986   6.309   6.402 -0.8564 -0.1235 -1.3141
  511MOL0     C67383  12.090   6.325   6.508 -1.0195  0.0347 -0.2334
  511MOL0     C67384  12.173   6.335   6.599 -0.1331 -0.2108  0.1026
  511MOL0     C67385  11.552   6.132   6.061 -0.3461  0.0614 -0.9391
  511MOL0     C67386  11.456   6.050   6.006 -0.7683  0.1826  0.7589
  511MOL0     H67387  10.998   5.881   5.843  2.2995 -0.0076  2.0519
  511MOL0     H67388  10.842   5.700   5.777  2.3779  1.4052 -1.6500
  511MOL0     H67389  10.845   5.444   5.774 -1.7585  1.3105 -2.0746
  511MOL0     H67390  10.674   5.429   5.753 -0.6567  0.7895  0.9611
  511MOL0     H67391  10.632   5.258   5.892 -0.8018 -0.8547 -1.7146
  511MOL0     H67392  10.770   5.287   5.989  2.2673 -0.0261 -0.8198
  511MOL0     H67393  10.753   5.190   5.692 -0.8858 -1.6258  1.0225
  511MOL0     H67394  10.777   5.088   5.819 -1.0368  0.1392 -2.1336
  511MOL0     H67395  10.961   5.283   5.701 -1.1411 -0.5949 -2.4788
  511MOL0     H67396  11.002   5.201   5.862  3.3493 -0.7412 -2.1197
  511MOL0     H67397  10.939   5.055   5.587  1.8099  0.0590 -0.4797
  511MOL0     H67398  10.997   4.984   5.735 -0.6844  0.2085  0.4830
  511MOL0     H67399  11.115   5.217   5.577 -1.1834 -0.3561 -1.0929
  511MOL0     H67400  11.142   5.048   5.528  0.7178  1.4833 -0.6691
  511MOL0     H67401  11.228   5.140   5.804 -0.8462  0.6302 -0.1150
  511MOL0     H67402  11.274   4.999   5.707  0.5975  0.6145 -0.0164
  511MOL0     H67403  11.347   5.295   5.663 -0.5031 -1.1179  0.9643
  511MOL0     H67404  11.407   5.169   5.557  0.7899  0.3134  0.2132
  511MOL0     H67405  11.402   5.180   5.963 -0.4311  2.6984 -0.4374
  511MOL0     H67406  11.593   5.195   6.133 -0.3864 -0.0515 -1.4585
  511MOL0     H67407  11.743   5.268   6.073  0.9891 -0.3803 -0.9063
  511MOL0     H67408  11.822   5.039   6.162  2.4483  0.0497 -0.4085
  511MOL0     H67409  11.824   5.042   5.992 -0.1825 -0.4731 -0.1731
  511MOL0     H67410  11.637   4.912   5.973  4.1012  3.0618 -1.8071
  511MOL0     H67411  11.729   4.834   6.102  0.3257 -0.4003 -1.0950
  511MOL0     H67412  11.481   4.991   6.182 -1.5653 -0.6051  0.4723
  511MOL0     H67413  11.599   4.893   6.279 -1.5447 -0.2177  0.4771
  511MOL0     H67414  11.247   4.842   6.220  1.9829  1.4423  0.5033
  511MOL0     H67415  11.131   4.717   6.418 -0.0380  0.1844  0.6016
  511MOL0     H67416  10.968   4.655   6.775 -2.0463  0.9996 -0.1168
  511MOL0     H67417  10.851   4.545   6.976 -5.1058  0.8166 -0.8235
  511MOL0     H67418  10.768   4.083   6.910  0.3335  0.4177 -0.8942
  511MOL0     H67419  10.648   4.193   6.848 -0.6136  0.6183  1.2287
  511MOL0     H67420  10.597   4.251   7.096 -2.0022 -1.2672  0.0188
  511MOL0     H67421  10.671   4.095   7.134 -1.9411 -4.2685 -0.8292
  511MOL0     H67422  10.511   3.982   6.981  0.9822  0.7005 -1.6813
  511MOL0     H67423  10.430   4.136   6.960 -3.2810 -2.8478  0.5175
  511MOL0     H67424  10.474   3.993   7.220 -1.3545 -1.7027  0.4497
  511MOL0     H67425  10.383   4.145   7.214 -1.4067 -1.2303  1.2830
  511MOL0     H67426  10.296   3.887   7.069 -2.0706  0.6213 -1.4643
  511MOL0     H67427  10.214   4.027   7.062  1.9740  1.5160  0.0835
  511MOL0     H67428  10.179   4.036   7.310 -2.3115 -2.1087  3.1119
  511MOL0     H67429  10.292   3.900   7.316  1.2511  0.8068 -1.2358
  511MOL0     H67430  10.004   3.906   7.190 -0.7704 -0.6366  1.9712
  511MOL0     H67431  10.094   3.759   7.189  1.6810  1.4908 -2.1499
  511MOL0     H67432   9.933   3.787   7.394 -0.0651  0.7317 -1.2715
  511MOL0     H67433  10.006   3.945   7.428 -0.0186  0.0393 -1.1670
  511MOL0     H67434  10.950   4.158   6.794  0.6168  0.1150  0.1505
  511MOL0     H67435  11.067   4.272   6.617 -0.8103  0.6710 -1.8841
  511MOL0     H67436  11.467   4.468   6.452  1.6653  0.8604  1.5853
  511MOL0     H67437  11.593   4.601   6.279 -0.2622  1.4220 -1.4087
  511MOL0     H67438  10.878   5.528   6.159 -2.6224 -0.3687 -1.6336
  511MOL0     H67439  11.045   5.705   6.220 -0.2884 -0.8637 -0.2608
  511MOL0     H67440  11.184   6.157   6.188  1.1404 -0.3670  2.0199
  511MOL0     H67441  11.345   6.329   6.251 -1.8681 -0.1137 -1.1276
  511MOL0     H67442  11.811   6.355   6.198  0.0025  1.4014  3.0007
  511MOL0     H67443  11.740   6.184   6.215 -0.9587 -0.5088  2.8812
  511MOL0     H67444  11.710   6.409   6.409 -0.3247 -1.3574  2.7441
  511MOL0     H67445  11.644   6.244   6.437 -0.1218 -1.6025 -0.3964
  511MOL0     H67446  11.873   6.149   6.460  1.2484  0.5166  1.1844
  511MOL0     H67447  11.848   6.279   6.564  1.1246  1.0217 -0.4840
  511MOL0     H67448  12.027   6.238   6.329  0.2437  1.5777 -2.4142
  511MOL0     H67449  11.980   6.408   6.357  2.9487  0.6300 -0.5740
  511MOL0     H67450  12.252   6.365   6.666 -2.0344  3.3474  1.0337
  511MOL0     H67451  11.657   6.125   6.033  0.0404 -0.1392  0.4954
  511MOL0     H67452  11.478   5.973   5.933  1.4757  2.6148 -1.3325
  512MOL0     O67453   6.692   0.590   4.878 -0.1226  0.3708 -0.0255
  512MOL0     C67454   6.775   0.669   4.842  0.0316 -1.1947 -0.2877
  512MOL0     O67455   6.785   0.803   4.880 -0.6970  0.2422 -0.1325
  512MOL0     C67456   6.665   0.867   4.903  0.0826  0.6574 -0.1678
  512MOL0     C67457   6.551   0.851   4.824  0.0716 -0.6943  0.0306
  512MOL0     C67458   6.434   0.919   4.850  0.9141  0.3144  0.0915
  512MOL0     C67459   6.425   1.016   4.946  0.6206  0.0827  0.0957
  512MOL0     O67460   6.300   1.082   4.953  0.0748 -0.1126  0.1216
  512MOL0     C67461   6.255   1.156   5.075 -0.2752  0.4645  0.5053
  512MOL0     C67462   6.110   1.186   5.073 -0.4418 -0.0078 -0.1068
  512MOL0     C67463   6.036   1.055   5.078  0.4228 -0.3375  0.2641
  512MOL0     C67464   5.882   1.051   5.067  0.1812  0.2705 -0.0096
  512MOL0     C67465   5.844   0.904   5.061 -0.1954  0.5461 -0.4199
  512MOL0     C67466   5.706   0.887   4.998 -0.5515  0.0218  1.1881
  512MOL0     C67467   5.683   0.737   4.990  0.1609 -0.3795 -0.6042
  512MOL0     C67468   5.545   0.709   4.948  0.4595 -0.1870  0.0602
  512MOL0     N67469   5.516   0.569   4.973  0.3726  0.4000 -0.2439
  512MOL0     C67470   5.388   0.516   5.013  0.1990 -0.0678 -0.0472
  512MOL0     C67471   5.402   0.386   5.029 -0.3450  0.3643  0.0362
  512MOL0     C67472   5.315   0.294   5.099 -0.0667  1.0979  0.6900
  512MOL0     C67473   5.364   0.143   5.092  0.1127 -0.4570 -0.6411
  512MOL0     C67474   5.256   0.056   5.164 -1.0737  0.0894 -0.0375
  512MOL0     C67475   5.310  -0.086   5.198  0.6066  0.9656  0.5812
  512MOL0     O67476   5.410  -0.079   5.302 -1.2005  0.3510 -0.3201
  512MOL0     C67477   5.486  -0.197   5.322  0.8230 -0.6046 -0.8133
  512MOL0     C67478   5.616  -0.179   5.360 -0.9390 -0.2282 -0.7268
  512MOL0     C67479   5.704  -0.286   5.382 -0.9041 -0.6564  0.0011
  512MOL0     C67480   5.654  -0.415   5.382  0.4144  1.1569 -0.1915
  512MOL0     C67481   5.743  -0.528   5.435 -0.4204 -1.1232 -0.9428
  512MOL0     O67482   5.837  -0.487   5.528  0.4695 -0.0832 -0.1271
  512MOL0     C67483   5.899  -0.582   5.593  0.1423 -0.6573  0.1830
  512MOL0     C67484   6.037  -0.561   5.613 -1.3169 -0.3249 -0.6546
  512MOL0     C67485   6.103  -0.631   5.717 -0.4936  0.1328 -0.8763
  512MOL0     C67486   6.035  -0.744   5.776 -0.5869 -0.6326 -0.0367
  512MOL0     O67487   6.088  -0.820   5.879  0.3765 -0.2871  0.2652
  512MOL0     C67488   6.190  -0.753   5.954 -0.3066  0.5059 -0.1829
  512MOL0     C67489   6.206  -0.815   6.088  0.3276 -0.4784 -0.9356
  512MOL0     C67490   6.062  -0.800   6.157 -0.6801  0.7692 -0.4337
  512MOL0     C67491   6.040  -0.871   6.298  0.2270 -0.0505  0.3195
  512MOL0     C67492   6.089  -0.795   6.413 -0.6830  0.0248 -0.1576
  512MOL0     C67493   6.034  -0.870   6.536 -0.2833  0.0156 -0.2410
  512MOL0     C67494   6.153  -0.892   6.627 -0.4602 -0.6653  0.5666
  512MOL0     C67495   6.114  -0.953   6.765 -0.4499 -0.3559  1.0610
  512MOL0    Cl67496   6.266  -0.952   6.861  0.0966 -0.4901  0.1280
  512MOL0     C67497   5.903  -0.782   5.740 -0.4342  0.2708 -0.0525
  512MOL0     C67498   5.838  -0.693   5.651  1.1925 -0.1477  0.4188
  512MOL0     O67499   5.722  -0.641   5.405  0.1513 -0.6528  0.3945
  512MOL0     C67500   5.526  -0.436   5.336  0.1474 -0.1414  0.9039
  512MOL0     C67501   5.441  -0.324   5.303 -0.5617  0.5055  0.6631
  512MOL0     N67502   5.539   0.358   4.985 -0.1039 -0.1435  0.5787
  512MOL0     N67503   5.603   0.468   4.968 -1.6133 -0.0136  0.1651
  512MOL0     C67504   6.533   1.037   5.018 -0.2045 -0.1794  0.2337
  512MOL0     C67505   6.653   0.966   4.999 -0.1646  0.1878 -0.5904
  512MOL0     C67506   6.882   0.600   4.774  0.4053  0.1290  0.5523
  512MOL0     C67507   6.901   0.463   4.796 -0.1684  0.0568 -0.0349
  512MOL0     C67508   7.025   0.407   4.748  0.5584  0.4217 -0.1239
  512MOL0     C67509   7.119   0.478   4.683  0.9400 -0.5900 -0.1528
  512MOL0     O67510   7.232   0.402   4.636  0.4633 -0.0601 -0.0308
  512MOL0     C67511   7.317   0.453   4.530  0.6353 -1.3284 -1.1182
  512MOL0     C67512   7.415   0.346   4.469 -0.0588 -0.0199 -0.3442
  512MOL0     C67513   7.348   0.213   4.431  0.1183 -0.4038  0.0253
  512MOL0     C67514   7.362   0.106   4.539  0.7820  0.2101 -0.0357
  512MOL0     C67515   7.280  -0.012   4.513  0.2633 -0.4173 -0.0738
  512MOL0     C67516   7.194  -0.105   4.516 -0.7533 -0.2382  0.7709
  512MOL0     C67517   7.097   0.617   4.655 -0.1470 -0.1553 -0.5048
  512MOL0     C67518   6.970   0.674   4.697  0.7802  0.2079  0.4203
  512MOL0     H67519   6.562   0.778   4.744 -2.5649 -0.4615 -0.6370
  512MOL0     H67520   6.339   0.890   4.805  1.6793 -1.6893 -0.2889
  512MOL0     H67521   6.304   1.253   5.089 -0.7636  0.9008 -0.6798
  512MOL0     H67522   6.277   1.096   5.164 -2.8299  0.1254  0.9789
  512MOL0     H67523   6.089   1.238   4.978  0.2363  0.1097 -0.1979
  512MOL0     H67524   6.082   1.254   5.154  1.3079 -0.6089  1.0399
  512MOL0     H67525   6.061   1.011   5.175  1.8270 -0.4139 -0.1055
  512MOL0     H67526   6.078   0.990   5.001  0.2665 -0.9521  0.6951
  512MOL0     H67527   5.831   1.096   5.153  0.3803 -0.8533  0.7064
  512MOL0     H67528   5.852   1.104   4.976  1.7884  1.0582 -0.1054
  512MOL0     H67529   5.834   0.860   5.161 -2.7045  0.8153 -0.4872
  512MOL0     H67530   5.917   0.859   4.994 -1.4780  2.0865 -3.0342
  512MOL0     H67531   5.702   0.927   4.896 -0.2267 -4.6903 -0.8979
  512MOL0     H67532   5.636   0.936   5.067 -0.6174 -0.9380  1.8239
  512MOL0     H67533   5.747   0.679   4.923  1.0718 -1.2337  0.9547
  512MOL0     H67534   5.690   0.688   5.087 -0.4188  1.1660  0.2389
  512MOL0     H67535   5.531   0.717   4.840 -0.7468 -0.1672  0.2054
  512MOL0     H67536   5.471   0.772   4.999  1.4692  0.4396  0.7742
  512MOL0     H67537   5.299   0.570   5.042 -0.8292 -2.6192  1.9682
  512MOL0     H67538   5.213   0.303   5.061 -0.6708  0.0026  1.9649
  512MOL0     H67539   5.321   0.327   5.203  1.8751 -0.0745  1.0175
  512MOL0     H67540   5.460   0.124   5.141 -0.1392  0.4952  0.2544
  512MOL0     H67541   5.366   0.101   4.991  2.1101 -1.8332 -0.0940
  512MOL0     H67542   5.236   0.117   5.253  0.8870 -0.8217  1.0806
  512MOL0     H67543   5.166   0.033   5.105  1.2497 -3.5011 -2.6608
  512MOL0     H67544   5.347  -0.144   5.113  0.2336 -1.0241  1.7009
  512MOL0     H67545   5.228  -0.148   5.235  1.4309 -0.2124  0.5120
  512MOL0     H67546   5.653  -0.079   5.382  1.6280 -0.7208 -2.3449
  512MOL0     H67547   5.808  -0.264   5.406 -1.5364  0.6403  1.7132
  512MOL0     H67548   6.081  -0.468   5.580 -0.1628 -1.6631 -3.1016
  512MOL0     H67549   6.202  -0.598   5.746 -2.0982  4.6232  0.3987
  512MOL0     H67550   6.155  -0.653   5.980  2.0071  1.3759 -0.2268
  512MOL0     H67551   6.286  -0.755   5.903  1.1205 -1.0614  2.3391
  512MOL0     H67552   6.278  -0.759   6.148 -3.4315  0.3344  3.3218
  512MOL0     H67553   6.240  -0.917   6.067 -1.8557 -2.3437  3.3987
  512MOL0     H67554   6.003  -0.859   6.086  0.4119 -2.9430  1.4894
  512MOL0     H67555   6.035  -0.694   6.162 -1.3077  0.6502 -1.1376
  512MOL0     H67556   5.931  -0.877   6.300  0.1815  0.8694  1.3338
  512MOL0     H67557   6.092  -0.966   6.282 -2.3685 -1.6472  0.7611
  512MOL0     H67558   6.055  -0.691   6.413  1.9016  0.9577  0.4536
  512MOL0     H67559   6.199  -0.791   6.417 -0.7281  3.4719  1.7027
  512MOL0     H67560   5.996  -0.969   6.512  2.4071 -2.2093  3.5442
  512MOL0     H67561   5.958  -0.810   6.587 -2.9302 -0.5381 -3.2194
  512MOL0     H67562   6.217  -0.957   6.567  1.2749  0.9693  0.5621
  512MOL0     H67563   6.208  -0.799   6.641 -1.4156  0.1083 -0.6155
  512MOL0     H67564   6.086  -1.057   6.745  0.8959 -0.3658 -0.9616
  512MOL0     H67565   6.038  -0.894   6.817 -1.4343 -1.2602  0.6831
  512MOL0     H67566   5.845  -0.857   5.793  1.0123 -0.1268  1.0184
  512MOL0     H67567   5.732  -0.705   5.634  1.2747 -0.1022 -0.1327
  512MOL0     H67568   5.473  -0.530   5.344 -0.1441  0.0608  1.3999
  512MOL0     H67569   5.340  -0.348   5.269  0.2887 -1.1037 -0.9333
  512MOL0     H67570   6.546   1.115   5.093  1.4002 -1.3852  1.2674
  512MOL0     H67571   6.740   0.996   5.057 -1.0352 -1.0719  1.4857
  512MOL0     H67572   6.839   0.401   4.860 -0.1486 -2.8081 -2.5897
  512MOL0     H67573   7.048   0.306   4.781 -2.0039  0.5342  2.4371
  512MOL0     H67574   7.367   0.540   4.571 -0.7420  0.4831 -3.0942
  512MOL0     H67575   7.249   0.485   4.451  1.1864  1.9299 -0.4123
  512MOL0     H67576   7.471   0.392   4.386  2.3077 -5.5423 -2.2710
  512MOL0     H67577   7.491   0.337   4.547 -0.4155  1.0268  0.1427
  512MOL0     H67578   7.399   0.165   4.347  0.3256 -1.2664  0.6346
  512MOL0     H67579   7.241   0.230   4.416  0.0392 -2.1993 -1.9521
  512MOL0     H67580   7.465   0.072   4.533  0.3940 -1.0384  0.0358
  512MOL0     H67581   7.337   0.143   4.639  2.7569  0.3194  0.4581
  512MOL0     H67582   7.128  -0.189   4.517  0.1730 -1.0484 -1.1293
  512MOL0     H67583   7.176   0.674   4.608  0.7128 -1.3031 -0.4794
  512MOL0     H67584   6.931   0.774   4.681 -1.5604 -0.6124  0.5058
  513MOL0     O67585   5.792   6.666   6.972  0.2345  0.1518 -0.4280
  513MOL0     C67586   5.866   6.749   7.038  0.5350  0.1141  0.3536
  513MOL0     O67587   5.994   6.770   7.013 -0.1485  1.3271 -0.3120
  513MOL0     C67588   6.061   6.714   6.905  1.2752 -0.3711  0.0268
  513MOL0     C67589   6.039   6.579   6.869 -0.1835  0.4118 -0.3559
  513MOL0     C67590   6.105   6.521   6.767 -0.7223 -0.0814 -0.1355
  513MOL0     C67591   6.208   6.597   6.707 -0.4199  0.2180 -0.0962
  513MOL0     O67592   6.282   6.551   6.602 -0.0606  0.0061  0.2701
  513MOL0     C67593   6.324   6.414   6.609  0.0407  0.4200 -0.9317
  513MOL0     C67594   6.438   6.388   6.511  0.1729 -0.1268 -0.8738
  513MOL0     C67595   6.440   6.239   6.485 -0.5360 -0.4207 -0.1112
  513MOL0     C67596   6.548   6.213   6.374  1.3493  0.5427 -0.4506
  513MOL0     C67597   6.559   6.065   6.344 -0.0769 -0.3228 -0.0658
  513MOL0     C67598   6.577   5.981   6.462 -0.4665 -0.2380 -0.8506
  513MOL0     C67599   6.637   5.846   6.440  0.1931  0.3571 -0.2917
  513MOL0     C67600   6.676   5.777   6.573  0.6991 -0.2611  0.0984
  513MOL0     N67601   6.805   5.814   6.627  0.0794  0.8511  0.3746
  513MOL0     C67602   6.836   5.811   6.756  0.6110  0.2326 -0.3838
  513MOL0     C67603   6.964   5.854   6.759  0.3238  0.2636 -0.6355
  513MOL0     C67604   7.037   5.877   6.896 -0.2564 -0.1826 -0.7258
  513MOL0     C67605   7.037   5.745   6.980 -1.0073  0.5511 -0.2015
  513MOL0     C67606   7.130   5.755   7.096 -0.2207  0.2671 -0.1356
  513MOL0     C67607   7.128   5.618   7.171 -0.0490  1.3671  0.0263
  513MOL0     O67608   7.200   5.516   7.090 -0.6340 -0.0028 -0.0581
  513MOL0     C67609   7.317   5.461   7.134 -0.0868 -0.2207  0.4185
  513MOL0     C67610   7.343   5.325   7.099 -0.3247  0.3775  0.8170
  513MOL0     C67611   7.455   5.270   7.149 -0.4130 -0.1875 -0.2927
  513MOL0     C67612   7.540   5.333   7.238 -0.9187 -1.0536  0.1787
  513MOL0     C67613   7.633   5.254   7.321 -0.1911  0.1707 -0.4756
  513MOL0     O67614   7.717   5.327   7.392 -0.3785 -0.0693  0.3753
  513MOL0     C67615   7.822   5.272   7.470  0.7223  0.3350 -0.4085
  513MOL0     C67616   7.866   5.139   7.495  0.0928 -0.9772 -0.1892
  513MOL0     C67617   7.973   5.103   7.578  0.7719 -0.2902 -0.0089
  513MOL0     C67618   8.045   5.210   7.647 -0.4112  0.3458  0.8570
  513MOL0     O67619   8.163   5.176   7.708 -0.1244 -1.1866  0.2689
  513MOL0     C67620   8.219   5.278   7.788 -0.1115 -0.3317  1.1289
  513MOL0     C67621   8.329   5.222   7.877  0.3224 -0.0197 -0.6278
  513MOL0     C67622   8.449   5.177   7.801  0.9668 -1.0505 -0.6402
  513MOL0     C67623   8.545   5.078   7.872  0.0224 -0.2493 -0.1590
  513MOL0     C67624   8.676   5.081   7.806 -0.1971 -0.0176  0.0537
  513MOL0     C67625   8.667   5.040   7.663  0.5251 -1.6375  0.2039
  513MOL0     C67626   8.791   5.001   7.596 -0.1306  1.2033  1.0600
  513MOL0     C67627   8.849   4.863   7.611  0.7177  0.5381  0.2790
  513MOL0    Cl67628   8.761   4.743   7.497  0.5278  0.5339  0.0089
  513MOL0     C67629   8.011   5.338   7.598  0.3261 -0.9715  0.4044
  513MOL0     C67630   7.908   5.368   7.515  0.5013  0.0359  0.4522
  513MOL0     O67631   7.631   5.132   7.305 -0.3433  0.1572 -0.0556
  513MOL0     C67632   7.504   5.458   7.275 -1.3032  0.1739 -0.3718
  513MOL0     C67633   7.399   5.523   7.219  0.2688 -0.9519 -0.4031
  513MOL0     N67634   7.019   5.870   6.628 -0.5029 -0.8694 -0.3010
  513MOL0     N67635   6.918   5.848   6.554 -0.1698  0.2938  0.3268
  513MOL0     C67636   6.243   6.719   6.752 -0.8178 -0.5968  0.8365
  513MOL0     C67637   6.161   6.786   6.842 -0.2308 -0.2980 -0.1114
  513MOL0     C67638   5.787   6.826   7.138  0.8887  0.0533  0.1799
  513MOL0     C67639   5.807   6.954   7.172 -0.1191 -0.6068  0.6945
  513MOL0     C67640   5.746   7.022   7.285 -0.2714 -0.1794  0.3253
  513MOL0     C67641   5.658   6.949   7.358 -0.4271  0.8612 -0.4604
  513MOL0     O67642   5.610   6.997   7.475 -0.1707  0.0402  0.3040
  513MOL0     C67643   5.471   7.042   7.472 -0.5466 -0.5988 -0.8234
  513MOL0     C67644   5.484   7.198   7.480  0.5440 -0.0425 -0.5352
  513MOL0     C67645   5.399   7.267   7.379  0.6232  0.0716  0.3997
  513MOL0     C67646   5.406   7.411   7.377  0.7122 -1.0761  0.6165
  513MOL0     C67647   5.302   7.462   7.293 -0.1250 -0.1611  0.6348
  513MOL0     C67648   5.228   7.499   7.212 -0.7668  0.3831 -0.6714
  513MOL0     C67649   5.611   6.823   7.314 -0.1399  0.1665 -1.1506
  513MOL0     C67650   5.679   6.769   7.204  0.0160 -0.3154 -0.5551
  513MOL0     H67651   5.969   6.513   6.919  2.0736 -0.4454  1.8963
  513MOL0     H67652   6.081   6.420   6.735 -1.1779  0.2399 -0.8358
  513MOL0     H67653   6.239   6.349   6.584 -0.1477 -0.4639  1.6703
  513MOL0     H67654   6.363   6.392   6.709 -1.2944  1.0406 -0.2417
  513MOL0     H67655   6.534   6.428   6.546 -0.1605  2.7197 -2.8484
  513MOL0     H67656   6.405   6.438   6.419  0.0278  1.0833 -0.1748
  513MOL0     H67657   6.344   6.199   6.450 -0.5142  0.0251 -0.6966
  513MOL0     H67658   6.470   6.193   6.580 -0.5865 -0.7316 -0.2418
  513MOL0     H67659   6.511   6.270   6.289  0.0962 -1.0873 -1.0660
  513MOL0     H67660   6.653   6.240   6.385  1.9583 -0.8641 -2.3457
  513MOL0     H67661   6.649   6.054   6.282  2.1630 -0.1253  2.9109
  513MOL0     H67662   6.469   6.023   6.298 -0.4765  1.5677 -1.1168
  513MOL0     H67663   6.488   5.960   6.523 -0.7942 -0.8289 -1.5117
  513MOL0     H67664   6.646   6.037   6.527 -3.7135  1.2226  1.6829
  513MOL0     H67665   6.554   5.788   6.398 -1.8504  3.2820 -0.6351
  513MOL0     H67666   6.719   5.848   6.367  0.9731  1.4719  0.5822
  513MOL0     H67667   6.681   5.670   6.551  0.0941 -0.5234  1.1699
  513MOL0     H67668   6.590   5.800   6.637 -0.5564 -0.1586 -1.5530
  513MOL0     H67669   6.770   5.782   6.837 -0.9129  2.7060 -0.6076
  513MOL0     H67670   6.997   5.963   6.950  2.7150  3.2343 -3.4344
  513MOL0     H67671   7.134   5.906   6.855 -0.1065 -0.5699 -0.6453
  513MOL0     H67672   7.065   5.661   6.916 -3.2556  0.2607 -0.8989
  513MOL0     H67673   6.935   5.736   7.018 -0.5771  1.2639  1.1993
  513MOL0     H67674   7.233   5.768   7.060 -0.6172  0.2329 -1.3264
  513MOL0     H67675   7.099   5.838   7.160 -1.9071 -0.3137 -0.1599
  513MOL0     H67676   7.022   5.594   7.179 -0.2525  2.2590  0.0524
  513MOL0     H67677   7.163   5.610   7.275 -1.0195  1.1821  0.3458
  513MOL0     H67678   7.275   5.272   7.033 -2.2051  0.7679  2.3514
  513MOL0     H67679   7.481   5.170   7.116 -0.7157 -1.2814  2.4947
  513MOL0     H67680   7.807   5.058   7.453  0.9132 -0.1644 -3.1133
  513MOL0     H67681   7.999   5.000   7.602  1.8332 -0.0520 -0.0586
  513MOL0     H67682   8.144   5.328   7.850 -2.8032 -1.1135 -1.2665
  513MOL0     H67683   8.256   5.357   7.722 -0.4719  0.4977  1.9021
  513MOL0     H67684   8.286   5.140   7.935 -1.4231  1.0940 -0.2763
  513MOL0     H67685   8.363   5.297   7.948 -1.8564 -2.4151  3.2909
  513MOL0     H67686   8.495   5.273   7.779 -0.2014  0.2644  2.2198
  513MOL0     H67687   8.415   5.135   7.705 -1.8462 -0.6048  0.0861
  513MOL0     H67688   8.546   5.101   7.979 -3.0597 -0.7376  0.0663
  513MOL0     H67689   8.511   4.976   7.892 -0.8896  0.2978  1.2643
  513MOL0     H67690   8.735   5.002   7.855 -1.5709  0.8335  3.3364
  513MOL0     H67691   8.725   5.176   7.824  0.6445 -0.0776 -1.6746
  513MOL0     H67692   8.628   5.128   7.611  3.1826  0.3908  1.4293
  513MOL0     H67693   8.589   4.963   7.660 -1.6411  0.3208  2.2361
  513MOL0     H67694   8.784   5.018   7.488 -3.1503 -2.8992  0.3286
  513MOL0     H67695   8.871   5.067   7.628  0.2996  1.2436 -0.0485
  513MOL0     H67696   8.859   4.818   7.710 -2.8704  0.4960  0.7362
  513MOL0     H67697   8.950   4.867   7.568  0.5235 -2.2548 -0.6399
  513MOL0     H67698   8.075   5.423   7.619 -0.5586  0.0316 -0.7953
  513MOL0     H67699   7.893   5.472   7.485  2.0193  0.2746  0.4426
  513MOL0     H67700   7.564   5.508   7.351  0.5822 -0.3528 -1.4589
  513MOL0     H67701   7.390   5.628   7.243 -2.0559 -0.7203 -1.9476
  513MOL0     H67702   6.322   6.780   6.708 -1.3530  1.1266  2.1560
  513MOL0     H67703   6.180   6.891   6.863  0.0974  0.1504 -2.3938
  513MOL0     H67704   5.880   7.013   7.117 -1.3172  2.0191  1.7501
  513MOL0     H67705   5.776   7.123   7.311  1.5460  0.1341 -2.5402
  513MOL0     H67706   5.419   6.994   7.556 -1.1419 -0.7514 -1.2705
  513MOL0     H67707   5.419   7.018   7.379 -0.8180 -0.3125 -0.7493
  513MOL0     H67708   5.452   7.225   7.581  1.3059 -1.0668 -0.0078
  513MOL0     H67709   5.582   7.241   7.457 -0.4830  1.3520 -2.7532
  513MOL0     H67710   5.296   7.237   7.404  0.1164  1.8486  0.6262
  513MOL0     H67711   5.418   7.246   7.273 -4.3624 -0.6060 -0.6497
  513MOL0     H67712   5.384   7.455   7.475 -0.7387  1.3348 -0.7007
  513MOL0     H67713   5.507   7.447   7.355  0.6403  0.0589  1.9643
  513MOL0     H67714   5.156   7.528   7.137 -2.1968 -2.5971 -0.6043
  513MOL0     H67715   5.526   6.765   7.350  0.8135 -0.6508 -0.1430
  513MOL0     H67716   5.631   6.681   7.162 -0.9786  1.6301 -3.8613
  514MOL0     O67717  10.798   2.546   8.731 -0.4431  0.5706 -0.6330
  514MOL0     C67718  10.851   2.607   8.637 -0.2645 -0.1162  0.3764
  514MOL0     O67719  10.805   2.623   8.506 -0.5771 -0.7273 -0.4349
  514MOL0     C67720  10.678   2.588   8.481 -0.4830 -0.0809 -0.8663
  514MOL0     C67721  10.582   2.681   8.463 -0.8234  0.5998 -0.6063
  514MOL0     C67722  10.455   2.642   8.434  0.5556 -0.5086 -0.9334
  514MOL0     C67723  10.424   2.503   8.426 -0.0759  0.0622 -0.4567
  514MOL0     O67724  10.289   2.457   8.399 -0.5988  0.3715  0.0760
  514MOL0     C67725  10.178   2.536   8.426  0.1420  0.3067  0.5369
  514MOL0     C67726  10.045   2.452   8.427  0.0214 -0.2826  0.2296
  514MOL0     C67727   9.924   2.520   8.513  0.3824  0.9963 -0.1171
  514MOL0     C67728   9.819   2.409   8.531  0.0881  0.8720 -1.2159
  514MOL0     C67729   9.683   2.464   8.571 -0.5331  0.7964 -1.0409
  514MOL0     C67730   9.583   2.354   8.570  0.6354  0.3611  0.0091
  514MOL0     C67731   9.447   2.407   8.549 -0.4726  0.2459 -0.2018
  514MOL0     C67732   9.418   2.530   8.630  0.6590 -0.6738 -0.3230
  514MOL0     N67733   9.269   2.569   8.633 -0.8096 -0.3667  0.1636
  514MOL0     C67734   9.173   2.575   8.728 -0.7431 -0.4580 -0.0996
  514MOL0     C67735   9.066   2.639   8.671  0.8849  0.1286 -0.1551
  514MOL0     C67736   8.945   2.681   8.741  0.4208  0.1503 -0.3782
  514MOL0     C67737   8.815   2.626   8.680  0.3607 -0.5504  0.5240
  514MOL0     C67738   8.771   2.697   8.551  0.4739 -0.4607 -0.6525
  514MOL0     C67739   8.637   2.634   8.507 -0.5060 -0.3503 -0.9409
  514MOL0     O67740   8.529   2.694   8.566 -0.1004  0.0549  0.5479
  514MOL0     C67741   8.408   2.647   8.526  0.1024  0.1600  0.5011
  514MOL0     C67742   8.374   2.555   8.425 -0.0488  0.0107  0.0243
  514MOL0     C67743   8.240   2.523   8.391 -0.4293 -0.3068  0.5766
  514MOL0     C67744   8.139   2.570   8.471 -0.6209 -1.2475 -0.1284
  514MOL0     C67745   7.998   2.536   8.454  0.1658 -0.0157 -0.6142
  514MOL0     O67746   7.905   2.628   8.497 -0.3651 -0.2511 -0.8299
  514MOL0     C67747   7.773   2.590   8.480 -1.1251 -0.1413 -0.0697
  514MOL0     C67748   7.710   2.511   8.577  0.1313  0.1624  0.6312
  514MOL0     C67749   7.575   2.478   8.557  0.0726  0.7352  0.4189
  514MOL0     C67750   7.506   2.518   8.443 -0.0477 -0.1115 -0.2423
  514MOL0     O67751   7.374   2.480   8.426  0.3196  0.1019  0.4526
  514MOL0     C67752   7.290   2.579   8.367  0.9836 -0.6541  0.4213
  514MOL0     C67753   7.151   2.568   8.423  0.1693  0.2070  0.0150
  514MOL0     C67754   7.066   2.688   8.362 -0.6020  0.1655  0.4322
  514MOL0     C67755   6.916   2.652   8.351  0.0283 -0.5649  0.7257
  514MOL0     C67756   6.849   2.627   8.488 -0.7023  0.8547  0.9756
  514MOL0     C67757   6.698   2.605   8.472 -0.6280  0.4098 -0.1088
  514MOL0     C67758   6.623   2.612   8.606 -0.5842 -0.4398 -0.3812
  514MOL0     C67759   6.494   2.518   8.611 -0.7794 -0.1290  0.5583
  514MOL0    Cl67760   6.365   2.603   8.503 -0.2560 -0.0991 -0.1080
  514MOL0     C67761   7.575   2.588   8.340 -0.4114 -0.0274 -0.1514
  514MOL0     C67762   7.705   2.633   8.366  0.0223  0.4731 -0.1892
  514MOL0     O67763   7.974   2.428   8.392  0.8530  0.1169  0.1595
  514MOL0     C67764   8.170   2.663   8.576 -0.3334 -0.5507 -0.1683
  514MOL0     C67765   8.303   2.698   8.603  0.0611 -0.2157 -0.3490
  514MOL0     N67766   9.097   2.662   8.537 -0.2807 -0.1904  0.3812
  514MOL0     N67767   9.217   2.626   8.526 -0.0508  0.5184 -0.8569
  514MOL0     C67768  10.519   2.410   8.448  0.5008 -0.7367  0.0176
  514MOL0     C67769  10.655   2.447   8.480 -0.6450 -0.5414  0.2358
  514MOL0     C67770  10.987   2.652   8.670  0.1420  0.4765  0.0608
  514MOL0     C67771  11.032   2.634   8.796 -0.6436 -0.2338  0.0670
  514MOL0     C67772  11.169   2.672   8.826  0.4170  0.3210  0.0335
  514MOL0     C67773  11.258   2.716   8.731  0.3111  0.2718 -0.7820
  514MOL0     O67774  11.386   2.741   8.766  0.0268  0.0463 -0.1383
  514MOL0     C67775  11.499   2.705   8.680 -0.3425  0.5585 -0.0602
  514MOL0     C67776  11.633   2.773   8.726 -0.3089 -0.1121  0.8214
  514MOL0     C67777  11.652   2.723   8.869 -0.0656  0.2276 -0.2243
  514MOL0     C67778  11.772   2.778   8.949 -0.3778  0.2005 -0.5340
  514MOL0     C67779  11.784   2.706   9.077 -0.4991  0.1982  0.5509
  514MOL0     C67780  11.802   2.662   9.185 -0.4912  2.2944 -0.0899
  514MOL0     C67781  11.216   2.732   8.605 -0.0985 -0.7187  0.3501
  514MOL0     C67782  11.083   2.709   8.580  0.1485 -0.1584  0.5280
  514MOL0     H67783  10.614   2.784   8.453  1.1663 -0.2098 -3.6596
  514MOL0     H67784  10.375   2.715   8.427  0.4887 -0.7173 -2.7659
  514MOL0     H67785  10.155   2.608   8.347 -2.1920 -1.7743 -0.7966
  514MOL0     H67786  10.185   2.570   8.530 -1.5267 -0.2297  0.8539
  514MOL0     H67787  10.067   2.359   8.481 -0.2033  0.3306  1.3978
  514MOL0     H67788  10.011   2.431   8.325  1.2296  1.6878 -0.6305
  514MOL0     H67789   9.884   2.597   8.447 -1.2243 -0.6624 -1.2039
  514MOL0     H67790   9.955   2.565   8.608 -0.3711 -2.1491  1.7742
  514MOL0     H67791   9.808   2.352   8.438 -0.9333  0.6420 -0.9676
  514MOL0     H67792   9.848   2.340   8.611 -2.1541 -0.4521 -1.4521
  514MOL0     H67793   9.665   2.531   8.487  2.6446  2.1780 -0.7863
  514MOL0     H67794   9.687   2.524   8.663 -0.5796 -0.7297 -0.0021
  514MOL0     H67795   9.599   2.296   8.661  3.2558 -0.8158 -1.0776
  514MOL0     H67796   9.596   2.284   8.487 -0.3187 -1.4915  1.3626
  514MOL0     H67797   9.429   2.427   8.443 -3.2579  0.6338  0.2489
  514MOL0     H67798   9.364   2.336   8.562 -1.0198  0.1682 -3.3851
  514MOL0     H67799   9.456   2.615   8.573 -0.9616 -0.4794 -1.2047
  514MOL0     H67800   9.453   2.525   8.733  2.8817 -3.1511 -1.0917
  514MOL0     H67801   9.190   2.545   8.831 -1.1456  2.4278  0.8970
  514MOL0     H67802   8.932   2.790   8.740 -0.5399  0.0398 -1.1001
  514MOL0     H67803   8.948   2.661   8.848  0.8130  1.3684 -0.1357
  514MOL0     H67804   8.731   2.641   8.747  0.0565  0.6157 -0.0959
  514MOL0     H67805   8.813   2.517   8.667 -1.6643 -0.3439 -1.3991
  514MOL0     H67806   8.767   2.806   8.551  3.0866 -0.1491 -4.9087
  514MOL0     H67807   8.853   2.676   8.481  0.9663 -1.9569  0.3236
  514MOL0     H67808   8.635   2.530   8.541 -4.0824 -0.1462 -0.1229
  514MOL0     H67809   8.642   2.642   8.398  0.4183 -1.3697 -0.9860
  514MOL0     H67810   8.446   2.510   8.358 -0.3520 -0.4832  0.0232
  514MOL0     H67811   8.228   2.460   8.304 -2.0113  2.1760 -1.1568
  514MOL0     H67812   7.770   2.481   8.663  0.5093  2.7573  1.3559
  514MOL0     H67813   7.521   2.411   8.623  3.4755 -2.9923 -0.2014
  514MOL0     H67814   7.283   2.565   8.259 -4.7114  2.5847 -0.0096
  514MOL0     H67815   7.324   2.681   8.384 -0.6787  0.0318 -0.1566
  514MOL0     H67816   7.148   2.583   8.531  2.0468  3.8063 -0.2810
  514MOL0     H67817   7.115   2.467   8.402 -0.5180  0.1135  1.5167
  514MOL0     H67818   7.106   2.722   8.267 -0.5746 -3.4392 -1.0151
  514MOL0     H67819   7.070   2.771   8.433 -0.6968  0.1217  0.4906
  514MOL0     H67820   6.862   2.742   8.321 -2.6920 -2.0273  0.9502
  514MOL0     H67821   6.892   2.564   8.290 -1.2401  0.3156 -0.0944
  514MOL0     H67822   6.879   2.701   8.562  2.5721 -0.3366  1.0070
  514MOL0     H67823   6.897   2.535   8.522 -2.3926 -0.3451  0.2881
  514MOL0     H67824   6.673   2.510   8.423 -2.5381  0.6510  0.3214
  514MOL0     H67825   6.653   2.675   8.401 -2.4440 -1.5175 -1.0003
  514MOL0     H67826   6.699   2.592   8.682 -0.4454  0.7379 -0.1979
  514MOL0     H67827   6.589   2.714   8.624  4.1136  1.1547  0.9885
  514MOL0     H67828   6.463   2.504   8.715  0.2832 -0.1871  0.8865
  514MOL0     H67829   6.506   2.417   8.569 -0.7377  1.0687 -2.6081
  514MOL0     H67830   7.527   2.602   8.244  0.8193 -0.2335 -0.8128
  514MOL0     H67831   7.740   2.702   8.290  0.6292 -1.3983 -1.6861
  514MOL0     H67832   8.092   2.702   8.642 -1.2706 -0.3934 -1.3267
  514MOL0     H67833   8.334   2.775   8.673 -0.9243 -0.3945  0.2982
  514MOL0     H67834  10.499   2.304   8.449 -1.6448 -0.3954  2.2198
  514MOL0     H67835  10.726   2.370   8.508  1.5647  1.4567  0.4485
  514MOL0     H67836  10.967   2.593   8.873 -1.5551  1.3414  0.1808
  514MOL0     H67837  11.205   2.661   8.928  0.1933 -3.1005 -0.1439
  514MOL0     H67838  11.483   2.734   8.576 -0.5290 -1.2990 -0.5906
  514MOL0     H67839  11.521   2.598   8.687 -0.3078  0.6518  1.6081
  514MOL0     H67840  11.721   2.756   8.664 -0.6214 -2.5792  0.9211
  514MOL0     H67841  11.613   2.880   8.723 -3.3700 -0.5948 -1.2077
  514MOL0     H67842  11.661   2.614   8.862  0.2178  0.2063  0.4103
  514MOL0     H67843  11.565   2.754   8.928  0.3564 -0.3472  0.7255
  514MOL0     H67844  11.870   2.773   8.899 -0.1242  3.3750 -0.5691
  514MOL0     H67845  11.751   2.883   8.972  5.1613  1.3843  0.6579
  514MOL0     H67846  11.823   2.620   9.282  0.4863  1.6252 -0.5857
  514MOL0     H67847  11.287   2.761   8.528  2.7000  0.4981  3.1715
  514MOL0     H67848  11.058   2.735   8.478  2.4244 -1.9807 -0.5933
  515MOL0     O67849   6.439   1.988   2.059  0.3916 -0.7234 -0.3489
  515MOL0     C67850   6.432   2.111   2.077  0.7356 -0.4353 -0.1579
  515MOL0     O67851   6.390   2.204   1.982 -0.4994 -0.3907  0.4061
  515MOL0     C67852   6.354   2.161   1.856  0.4861 -0.0270 -0.1643
  515MOL0     C67853   6.215   2.140   1.840  0.1264 -0.1681  0.4258
  515MOL0     C67854   6.158   2.120   1.719  0.3147  0.3564 -0.2137
  515MOL0     C67855   6.235   2.099   1.606  0.3432 -0.0592 -0.7037
  515MOL0     O67856   6.178   2.077   1.479 -0.5705  0.0383  0.4050
  515MOL0     C67857   6.041   2.082   1.444  0.9622 -0.1576  0.1641
  515MOL0     C67858   6.013   1.999   1.321 -1.0581 -0.0091  0.0942
  515MOL0     C67859   6.068   1.861   1.327  0.2340  0.4102  0.2571
  515MOL0     C67860   6.009   1.778   1.452 -0.4511 -0.1790  0.4819
  515MOL0     C67861   6.041   1.628   1.440 -1.1550 -0.1670 -1.9147
  515MOL0     C67862   6.182   1.576   1.404 -0.3188  0.5130 -0.0410
  515MOL0     C67863   6.173   1.422   1.383  0.2934 -0.5883  0.4093
  515MOL0     C67864   6.156   1.324   1.500  0.0653 -0.8264  0.6473
  515MOL0     N67865   6.024   1.265   1.509 -0.0867 -0.0485 -0.3539
  515MOL0     C67866   5.909   1.338   1.527  1.2061  0.9712  0.1486
  515MOL0     C67867   5.810   1.244   1.519 -0.3565  0.1819  0.4006
  515MOL0     C67868   5.667   1.261   1.551  0.4599 -0.0877 -0.8392
  515MOL0     C67869   5.617   1.137   1.629  0.4940  0.1385 -0.1378
  515MOL0     C67870   5.483   1.176   1.691 -0.3916  0.5346  0.5226
  515MOL0     C67871   5.457   1.070   1.800  0.0040  0.2103  0.5178
  515MOL0     O67872   5.343   1.109   1.877  0.0631 -0.2260 -0.0457
  515MOL0     C67873   5.272   1.027   1.958 -0.2871 -0.5394  0.4726
  515MOL0     C67874   5.139   1.061   1.986 -0.1611 -1.2361  0.0687
  515MOL0     C67875   5.062   0.979   2.071  0.0500  0.4027  0.8103
  515MOL0     C67876   5.115   0.856   2.114  0.4304 -0.0800 -0.7801
  515MOL0     C67877   5.029   0.759   2.186  0.1726  0.6019 -0.8251
  515MOL0     O67878   5.086   0.637   2.225 -0.1092  0.3322  0.2399
  515MOL0     C67879   5.000   0.546   2.295 -0.2962 -0.1002  0.2917
  515MOL0     C67880   4.901   0.583   2.385  0.8220  0.1178 -0.1187
  515MOL0     C67881   4.816   0.489   2.452  0.4371 -0.8099 -0.2500
  515MOL0     C67882   4.840   0.350   2.424  0.9238  0.0733 -0.3312
  515MOL0     O67883   4.755   0.256   2.471 -0.2726  0.1153 -0.0822
  515MOL0     C67884   4.799   0.186   2.589  0.7529  0.2170 -0.0666
  515MOL0     C67885   4.686   0.158   2.693 -0.0506  0.2117  0.6262
  515MOL0     C67886   4.564   0.086   2.621 -0.1604 -0.3297  0.3508
  515MOL0     C67887   4.479   0.005   2.720 -0.9191 -0.2937 -0.5170
  515MOL0     C67888   4.330  -0.009   2.691  1.1517 -0.3179 -0.3824
  515MOL0     C67889   4.300  -0.072   2.558 -0.7433 -0.2683 -0.9677
  515MOL0     C67890   4.151  -0.075   2.522 -0.6936 -0.7281  0.3009
  515MOL0     C67891   4.072   0.045   2.553  0.1662  0.4677  1.4097
  515MOL0    Cl67892   3.898   0.021   2.515 -0.1913 -0.2153  0.2585
  515MOL0     C67893   4.942   0.314   2.328  0.2733 -0.0894 -0.9481
  515MOL0     C67894   5.024   0.406   2.260  1.0609  0.2913 -0.1373
  515MOL0     O67895   4.909   0.785   2.184 -0.6175 -0.0414  0.2052
  515MOL0     C67896   5.242   0.817   2.077 -0.0918  0.9702  0.6220
  515MOL0     C67897   5.319   0.900   1.993  0.5605 -1.2035  0.3970
  515MOL0     N67898   5.874   1.121   1.492  0.3411 -0.2908  0.6439
  515MOL0     N67899   6.004   1.133   1.496  0.4032  0.3525 -0.3721
  515MOL0     C67900   6.376   2.109   1.613 -1.2723 -0.4911 -0.2053
  515MOL0     C67901   6.426   2.140   1.743 -0.4275 -0.0903  0.3353
  515MOL0     C67902   6.458   2.164   2.215 -0.2829 -0.4100 -0.7805
  515MOL0     C67903   6.435   2.301   2.247  0.2256  0.6147  0.6912
  515MOL0     C67904   6.459   2.339   2.383 -0.2792 -0.5302  0.6953
  515MOL0     C67905   6.518   2.257   2.487 -0.7884 -0.2290 -0.1941
  515MOL0     O67906   6.533   2.327   2.605 -0.2762 -0.6548  0.0538
  515MOL0     C67907   6.602   2.267   2.712 -0.3862  0.3300  0.8674
  515MOL0     C67908   6.748   2.308   2.692  0.5261 -0.2992 -0.0703
  515MOL0     C67909   6.759   2.453   2.721  0.1853  0.1645 -0.0362
  515MOL0     C67910   6.760   2.476   2.874  0.5262  0.0826  0.2783
  515MOL0     C67911   6.804   2.617   2.902 -0.0032  0.9776 -0.5624
  515MOL0     C67912   6.849   2.716   2.938  0.0446  0.4511 -1.7558
  515MOL0     C67913   6.548   2.126   2.445  0.7722  0.0380  0.6603
  515MOL0     C67914   6.517   2.079   2.315 -0.3486 -0.2600  0.4879
  515MOL0     H67915   6.146   2.160   1.921 -1.0160  0.7447 -0.7299
  515MOL0     H67916   6.051   2.135   1.721  0.4839  2.0088  3.4475
  515MOL0     H67917   5.995   2.180   1.433 -1.8627 -1.5060 -0.8706
  515MOL0     H67918   5.991   2.031   1.526  1.6069 -1.1600 -0.0481
  515MOL0     H67919   6.054   2.052   1.234 -0.6891  5.4156  3.1537
  515MOL0     H67920   5.905   1.986   1.315 -1.1224  0.6752 -0.3702
  515MOL0     H67921   6.177   1.853   1.320  0.0245 -3.9236 -1.5462
  515MOL0     H67922   6.021   1.804   1.246 -0.7235  0.0524  1.0582
  515MOL0     H67923   6.040   1.812   1.551  0.3156 -1.5903  0.7656
  515MOL0     H67924   5.900   1.782   1.453 -0.4160  1.7253 -0.2928
  515MOL0     H67925   5.976   1.581   1.365  0.3621 -1.1730 -2.6416
  515MOL0     H67926   6.010   1.596   1.540 -2.0485  2.1220 -1.4010
  515MOL0     H67927   6.262   1.594   1.477  1.2599 -3.9429 -0.3848
  515MOL0     H67928   6.218   1.624   1.312 -1.3061 -1.9791 -1.8212
  515MOL0     H67929   6.108   1.399   1.299  3.1802 -0.1172 -2.1392
  515MOL0     H67930   6.272   1.401   1.340  1.4162  2.6040  1.1499
  515MOL0     H67931   6.194   1.361   1.596  0.7047 -1.9368  0.8432
  515MOL0     H67932   6.214   1.236   1.470  0.2584 -0.8898  1.1893
  515MOL0     H67933   5.882   1.438   1.558 -0.9000  0.5005 -0.0085
  515MOL0     H67934   5.607   1.264   1.460 -2.7206 -1.3063  1.0330
  515MOL0     H67935   5.652   1.361   1.594  2.0851 -0.5708  1.0006
  515MOL0     H67936   5.692   1.123   1.707 -0.9862 -4.5506  0.7362
  515MOL0     H67937   5.616   1.046   1.569 -1.0039  0.6625 -0.9793
  515MOL0     H67938   5.503   1.274   1.735  1.6059  0.4950 -0.1975
  515MOL0     H67939   5.398   1.179   1.622 -1.0679 -1.8979  1.1426
  515MOL0     H67940   5.543   1.074   1.867 -1.4102 -2.9240  2.8260
  515MOL0     H67941   5.441   0.970   1.758 -1.7648  0.2107  1.0786
  515MOL0     H67942   5.098   1.154   1.947  1.2006 -0.2955  0.8107
  515MOL0     H67943   4.960   1.005   2.099  0.5270  0.4955  2.6236
  515MOL0     H67944   4.888   0.690   2.392 -1.0809  0.0788 -1.9966
  515MOL0     H67945   4.725   0.514   2.505 -1.1268 -4.1469 -1.0461
  515MOL0     H67946   4.879   0.247   2.633  1.2751 -0.2392 -0.3743
  515MOL0     H67947   4.847   0.090   2.570  0.4082  0.4167 -2.0850
  515MOL0     H67948   4.665   0.255   2.739 -0.0440  1.0955 -1.1231
  515MOL0     H67949   4.724   0.081   2.761  1.2997  0.5845  0.3390
  515MOL0     H67950   4.594   0.014   2.544 -4.0387 -0.4048 -1.3006
  515MOL0     H67951   4.497   0.162   2.581  1.1535 -1.0114 -3.6210
  515MOL0     H67952   4.528  -0.093   2.719 -2.0763 -0.9190  0.7103
  515MOL0     H67953   4.486   0.052   2.819  0.8230 -0.2420 -0.6243
  515MOL0     H67954   4.281   0.089   2.697 -0.3408 -1.1144  1.4547
  515MOL0     H67955   4.278  -0.064   2.770 -0.6505  0.4793 -0.9761
  515MOL0     H67956   4.339  -0.171   2.534  1.5270  0.4137 -0.3155
  515MOL0     H67957   4.344  -0.013   2.477 -0.7012 -0.4259 -1.0601
  515MOL0     H67958   4.145  -0.103   2.417  5.9690  1.9231 -1.2710
  515MOL0     H67959   4.100  -0.154   2.578 -1.5659 -0.0991  0.4221
  515MOL0     H67960   4.095   0.122   2.480 -1.1660 -0.9272 -0.5829
  515MOL0     H67961   4.092   0.078   2.656  0.2222  0.4513  1.4041
  515MOL0     H67962   4.943   0.213   2.287  1.8357  0.6655 -2.9487
  515MOL0     H67963   5.094   0.380   2.181  1.8660  2.7184 -0.2991
  515MOL0     H67964   5.295   0.727   2.106 -1.1572  0.0483 -0.1952
  515MOL0     H67965   5.415   0.856   1.967  0.7434 -0.0378 -1.0202
  515MOL0     H67966   6.441   2.087   1.529  0.1197  1.4881  0.2955
  515MOL0     H67967   6.530   2.154   1.770  0.1925 -3.6531  0.3091
  515MOL0     H67968   6.380   2.358   2.173  0.9484 -1.3583 -1.4790
  515MOL0     H67969   6.418   2.435   2.414 -0.3134 -0.0352 -0.8043
  515MOL0     H67970   6.587   2.159   2.705 -4.1441  0.5912  2.9225
  515MOL0     H67971   6.557   2.299   2.806 -2.4388 -1.8151  0.6886
  515MOL0     H67972   6.806   2.248   2.763 -1.2648  0.0420  1.7758
  515MOL0     H67973   6.781   2.295   2.588 -2.0350  0.9281 -1.1229
  515MOL0     H67974   6.671   2.505   2.683  0.1036  0.7124  0.8658
  515MOL0     H67975   6.849   2.497   2.677 -0.4382  0.9007 -0.6062
  515MOL0     H67976   6.661   2.458   2.919  0.7882 -0.7560  0.5354
  515MOL0     H67977   6.834   2.414   2.925 -0.3131 -2.5192 -1.4835
  515MOL0     H67978   6.879   2.812   2.976 -1.7125  0.5118 -0.3866
  515MOL0     H67979   6.605   2.078   2.524 -0.4197  2.4409  3.1270
  515MOL0     H67980   6.555   1.984   2.279  1.3594  0.7062 -0.4331
  516MOL0     O67981   9.484   8.648   1.170 -0.2088  0.6000  0.2617
  516MOL0     C67982   9.604   8.650   1.145 -0.5028 -1.6674 -0.2450
  516MOL0     O67983   9.678   8.550   1.091  0.0703  0.1907  0.0893
  516MOL0     C67984   9.621   8.425   1.068 -0.3263 -1.0894  0.3776
  516MOL0     C67985   9.521   8.375   1.148  0.4330 -1.0435  0.1124
  516MOL0     C67986   9.471   8.250   1.119  0.7091  0.6657 -0.0583
  516MOL0     C67987   9.521   8.167   1.015  0.6104 -0.6125  0.0687
  516MOL0     O67988   9.471   8.035   1.013 -0.4483 -0.1498  0.0758
  516MOL0     C67989   9.530   7.941   0.915 -1.2024 -1.3269 -0.7160
  516MOL0     C67990   9.665   7.893   0.985 -0.2157 -0.2383  0.2561
  516MOL0     C67991   9.732   7.770   0.918 -0.8606 -0.1280 -0.9077
  516MOL0     C67992   9.822   7.702   1.021  0.2753 -0.1232  0.2168
  516MOL0     C67993   9.896   7.595   0.950  1.0344  0.0665  0.0537
  516MOL0     C67994   9.971   7.512   1.047  0.7031  0.1409  0.9264
  516MOL0     C67995  10.055   7.411   0.969  0.2173 -0.0514  0.3459
  516MOL0     C67996  10.170   7.359   1.068  0.3120 -1.2145  0.0997
  516MOL0     N67997  10.231   7.238   1.020 -0.5546  0.0653  0.6453
  516MOL0     C67998  10.344   7.233   0.939 -1.0921  0.7531  0.1560
  516MOL0     C67999  10.360   7.103   0.915 -0.2868  0.2499 -1.2533
  516MOL0     C68000  10.473   7.044   0.836  0.4848 -0.2608  0.4960
  516MOL0     C68001  10.599   7.042   0.911  0.1056 -0.0937  0.7713
  516MOL0     C68002  10.683   7.167   0.892  0.0955 -0.0683 -0.1267
  516MOL0     C68003  10.832   7.135   0.894  0.5252 -0.3330  0.2072
  516MOL0     O68004  10.866   7.078   1.019  0.0069  0.6382 -0.4929
  516MOL0     C68005  10.959   6.976   1.028 -0.8765 -0.8557  0.2622
  516MOL0     C68006  10.947   6.861   1.114  0.0167 -0.1923  0.4899
  516MOL0     C68007  11.038   6.756   1.120 -0.6072  0.5844  1.0477
  516MOL0     C68008  11.149   6.763   1.030 -0.2045  0.3539  0.2537
  516MOL0     C68009  11.239   6.642   1.022  0.3278 -0.3705 -0.2956
  516MOL0     O68010  11.349   6.666   0.943  0.8996 -0.1140  1.0523
  516MOL0     C68011  11.440   6.559   0.944  0.5251 -0.4547  1.3048
  516MOL0     C68012  11.408   6.436   0.890  0.0539 -0.8388 -0.4108
  516MOL0     C68013  11.502   6.339   0.892 -1.1966 -0.3228  0.5764
  516MOL0     C68014  11.637   6.358   0.935 -0.3059 -0.5365  0.0368
  516MOL0     O68015  11.736   6.266   0.899 -0.2750 -0.6974 -0.6029
  516MOL0     C68016  11.703   6.158   0.812 -0.1078  0.1367 -0.7463
  516MOL0     C68017  11.833   6.084   0.770 -0.7854  0.0560  0.3550
  516MOL0     C68018  11.861   5.967   0.857 -0.4155  0.5977  0.4029
  516MOL0     C68019  11.980   5.885   0.812 -0.5205  0.2150 -0.2635
  516MOL0     C68020  12.034   5.778   0.912 -0.4414 -0.0235 -0.1886
  516MOL0     C68021  12.065   5.827   1.051  0.1511  0.0061  0.1855
  516MOL0     C68022  12.185   5.931   1.043  0.1197 -0.2479  0.2843
  516MOL0     C68023  12.211   5.960   1.186 -0.3620 -0.7228 -0.6311
  516MOL0    Cl68024  12.363   6.059   1.200 -0.1767  0.3901 -0.1718
  516MOL0     C68025  11.668   6.487   0.984  0.2245  0.1415  0.6242
  516MOL0     C68026  11.564   6.586   0.984 -0.3496  0.0104  0.4675
  516MOL0     O68027  11.226   6.541   1.089  0.8554 -0.2055 -0.6669
  516MOL0     C68028  11.163   6.874   0.948 -0.5686 -0.2078 -0.6223
  516MOL0     C68029  11.073   6.981   0.952 -0.2470  0.9896 -0.1994
  516MOL0     N68030  10.263   7.034   0.982  0.4958  0.3411 -0.0935
  516MOL0     N68031  10.186   7.116   1.045 -0.3945 -0.4988 -0.0651
  516MOL0     C68032   9.615   8.226   0.925 -0.4522 -0.6265  0.1129
  516MOL0     C68033   9.673   8.353   0.953  0.0030  0.1709  0.3314
  516MOL0     C68034   9.675   8.782   1.164 -0.2800  0.2671 -0.9282
  516MOL0     C68035   9.603   8.903   1.184 -0.1713 -0.0082  0.1739
  516MOL0     C68036   9.669   9.021   1.191 -0.7145 -0.1638 -0.0247
  516MOL0     C68037   9.811   9.029   1.164 -0.6215  0.2853  0.1995
  516MOL0     O68038   9.852   9.156   1.137 -0.9022  0.0205 -0.0333
  516MOL0     C68039   9.993   9.180   1.123 -0.1696  0.1013  0.4784
  516MOL0     C68040  10.007   9.331   1.121  1.2840  0.0470  0.8226
  516MOL0     C68041  10.140   9.369   1.055  0.5565  0.4422  0.6854
  516MOL0     C68042  10.154   9.521   1.058  0.4391  0.5741  0.2503
  516MOL0     C68043  10.064   9.590   0.968  0.2485 -0.6171  0.3955
  516MOL0     C68044   9.967   9.648   0.906 -0.5234 -0.4026  0.2011
  516MOL0     C68045   9.877   8.904   1.139 -0.8710  0.9747  0.5099
  516MOL0     C68046   9.808   8.788   1.128 -0.8086  0.3972  1.7367
  516MOL0     H68047   9.477   8.422   1.236 -2.0756 -0.7941 -1.1814
  516MOL0     H68048   9.401   8.210   1.192 -1.9458  3.2542 -0.9333
  516MOL0     H68049   9.561   7.989   0.822 -0.7777  2.3868  1.1525
  516MOL0     H68050   9.453   7.864   0.899 -0.5855 -1.9600 -0.6856
  516MOL0     H68051   9.645   7.853   1.085  0.6908 -0.2166  0.4541
  516MOL0     H68052   9.734   7.976   0.971  0.6744 -1.1966 -1.3616
  516MOL0     H68053   9.800   7.796   0.836  1.6174 -2.4581  0.2485
  516MOL0     H68054   9.650   7.710   0.876  1.0441 -1.4177 -2.9782
  516MOL0     H68055   9.895   7.774   1.058  0.0070  0.7938 -0.9675
  516MOL0     H68056   9.771   7.666   1.111  0.3280 -1.0357 -0.1093
  516MOL0     H68057   9.949   7.643   0.868 -0.1881  1.9411  0.3150
  516MOL0     H68058   9.816   7.531   0.911 -0.4945  1.8739  0.0927
  516MOL0     H68059   9.903   7.454   1.110 -0.2993  0.4073  0.1137
  516MOL0     H68060  10.039   7.584   1.093  2.4320 -1.7476  1.4487
  516MOL0     H68061   9.999   7.322   0.942 -1.0681  0.4243  1.3541
  516MOL0     H68062  10.096   7.456   0.877 -1.6947 -1.1283 -1.0927
  516MOL0     H68063  10.115   7.340   1.161 -1.7453 -0.9762 -1.0140
  516MOL0     H68064  10.239   7.444   1.064 -0.9039 -0.1837  0.2703
  516MOL0     H68065  10.417   7.309   0.912  0.1754 -0.6915 -0.6553
  516MOL0     H68066  10.487   7.102   0.744  3.7941  0.2206  1.2015
  516MOL0     H68067  10.451   6.940   0.808  1.2824 -1.3143  3.4675
  516MOL0     H68068  10.646   6.947   0.880 -2.4216 -0.7224 -1.5095
  516MOL0     H68069  10.581   7.039   1.019  1.5063  1.0715  1.0700
  516MOL0     H68070  10.670   7.212   0.793 -1.6289 -1.1022 -0.4176
  516MOL0     H68071  10.652   7.243   0.965 -0.0220  1.3496 -1.5662
  516MOL0     H68072  10.891   7.227   0.889 -0.8313  0.6926  1.7374
  516MOL0     H68073  10.866   7.067   0.815  0.1897  1.7860 -1.8808
  516MOL0     H68074  10.862   6.858   1.181  0.2076 -0.3309  0.7293
  516MOL0     H68075  11.011   6.678   1.191  0.5843 -0.5283  0.3185
  516MOL0     H68076  11.311   6.392   0.870 -0.1604 -0.1806 -0.8506
  516MOL0     H68077  11.469   6.247   0.844 -0.1209 -0.6859  0.4983
  516MOL0     H68078  11.659   6.202   0.721 -1.0223 -1.5990 -1.1766
  516MOL0     H68079  11.630   6.093   0.860  0.9423 -0.5633 -0.0746
  516MOL0     H68080  11.918   6.153   0.772  0.6556 -1.5908 -1.1452
  516MOL0     H68081  11.818   6.051   0.667  0.8349 -0.6628  0.3278
  516MOL0     H68082  11.774   5.901   0.859  0.4322 -0.5304  1.7195
  516MOL0     H68083  11.872   5.996   0.961 -3.6215 -3.7163  2.2701
  516MOL0     H68084  11.951   5.823   0.726 -0.9226 -2.4216  1.6726
  516MOL0     H68085  12.068   5.948   0.799  1.9802 -2.6040  1.8553
  516MOL0     H68086  12.123   5.732   0.868  0.2348 -0.6270  1.7326
  516MOL0     H68087  11.959   5.698   0.924 -0.1577 -0.1686  0.6458
  516MOL0     H68088  12.102   5.746   1.114 -0.5320 -0.2486  0.2672
  516MOL0     H68089  11.984   5.887   1.094 -0.0364 -0.8614  1.0800
  516MOL0     H68090  12.278   5.896   0.998  0.6913  1.1784  0.3022
  516MOL0     H68091  12.146   6.013   0.981  0.8345 -1.9322 -2.5549
  516MOL0     H68092  12.228   5.867   1.239 -1.5455 -0.2822  0.5826
  516MOL0     H68093  12.127   6.011   1.235 -2.3479 -3.7683 -0.5803
  516MOL0     H68094  11.765   6.510   1.027 -0.1599  6.1914 -0.7861
  516MOL0     H68095  11.575   6.686   1.025 -0.2487  0.4526 -0.6189
  516MOL0     H68096  11.247   6.865   0.880 -0.4442 -0.4272 -0.4446
  516MOL0     H68097  11.092   7.071   0.894  0.8301  0.7487 -0.2346
  516MOL0     H68098   9.654   8.159   0.850  0.0388  1.2754 -1.4237
  516MOL0     H68099   9.758   8.388   0.896 -0.1013 -1.1255 -0.6627
  516MOL0     H68100   9.495   8.893   1.187 -0.3315 -1.7438 -4.0292
  516MOL0     H68101   9.611   9.112   1.201 -2.0277 -1.0156  0.4589
  516MOL0     H68102  10.015   9.146   1.022 -2.1827  2.2801 -0.7721
  516MOL0     H68103  10.058   9.134   1.199  0.3184 -0.7701 -0.4455
  516MOL0     H68104   9.921   9.379   1.073  0.4106 -1.6500  0.6222
  516MOL0     H68105  10.001   9.368   1.224  3.8138  1.7063  0.4637
  516MOL0     H68106  10.134   9.342   0.949  0.7236  3.0518 -0.0575
  516MOL0     H68107  10.223   9.305   1.086  1.6398  0.6613 -1.5659
  516MOL0     H68108  10.143   9.565   1.158 -3.6396  1.7687 -0.5369
  516MOL0     H68109  10.252   9.539   1.014  0.4501 -1.1448 -0.5082
  516MOL0     H68110   9.879   9.690   0.862 -2.8197 -0.4941  4.2437
  516MOL0     H68111   9.980   8.910   1.108 -1.5128  0.5360 -1.9016
  516MOL0     H68112   9.870   8.700   1.116 -0.4718  0.5859  2.0472
  517MOL0     O68113   0.733   3.542   1.649  0.1624 -0.5914 -0.6198
  517MOL0     C68114   0.839   3.510   1.703 -1.1083 -0.1077  0.8889
  517MOL0     O68115   0.877   3.386   1.745 -0.7153 -0.3680  0.2133
  517MOL0     C68116   0.788   3.285   1.736  0.6441  0.0767  0.4408
  517MOL0     C68117   0.735   3.242   1.613 -0.4543 -0.2845  0.2497
  517MOL0     C68118   0.631   3.144   1.611 -0.5259  0.0817  0.9088
  517MOL0     C68119   0.608   3.065   1.722  0.3281 -0.2303  0.8145
  517MOL0     O68120   0.532   2.948   1.704 -0.5667 -0.5592 -0.2584
  517MOL0     C68121   0.449   2.902   1.818 -0.5141  0.0739 -0.0263
  517MOL0     C68122   0.322   2.829   1.768  0.1467  0.1263 -0.1718
  517MOL0     C68123   0.362   2.692   1.718 -0.0147  1.0428 -0.6650
  517MOL0     C68124   0.255   2.637   1.626 -0.9955  0.2837 -0.2200
  517MOL0     C68125   0.275   2.486   1.598 -0.6469 -0.3516 -0.3536
  517MOL0     C68126   0.181   2.450   1.482  0.7805 -1.9848  1.1108
  517MOL0     C68127   0.114   2.316   1.504 -0.2993  0.0237 -0.1139
  517MOL0     C68128  -0.000   2.298   1.411  0.5097 -0.2680 -0.2111
  517MOL0     N68129   0.020   2.299   1.263 -0.0799 -0.3000 -0.2676
  517MOL0     C68130   0.146   2.276   1.206  0.3487 -0.7606  1.3416
  517MOL0     C68131   0.120   2.275   1.069  0.0819  0.7404  0.0768
  517MOL0     C68132   0.226   2.244   0.956  0.7370 -1.3143  0.1850
  517MOL0     C68133   0.370   2.278   1.000 -0.3107 -0.0257  0.1192
  517MOL0     C68134   0.459   2.299   0.879  0.6385  0.2304 -0.0054
  517MOL0     C68135   0.599   2.344   0.912 -0.2239  0.5165 -0.3004
  517MOL0     O68136   0.685   2.325   0.796  0.1058 -0.6236  0.3760
  517MOL0     C68137   0.811   2.385   0.797  0.0109 -0.7961  0.0411
  517MOL0     C68138   0.859   2.422   0.675  0.1692 -0.5514  0.4541
  517MOL0     C68139   0.984   2.490   0.666  0.4838  0.0735  0.3393
  517MOL0     C68140   1.067   2.505   0.781 -0.4345  0.0169  0.4577
  517MOL0     C68141   1.193   2.569   0.757  0.1278 -0.4514 -0.5009
  517MOL0     O68142   1.257   2.612   0.872  0.2623  0.5648  0.3968
  517MOL0     C68143   1.383   2.677   0.877  0.8537  0.4018 -0.5549
  517MOL0     C68144   1.488   2.653   0.784  0.8935  0.5039 -0.1719
  517MOL0     C68145   1.615   2.700   0.818 -0.1878  0.2153 -0.3022
  517MOL0     C68146   1.647   2.766   0.940  1.2069 -0.1410  0.3728
  517MOL0     O68147   1.763   2.791   1.002 -0.2174  0.3235  0.5894
  517MOL0     C68148   1.825   2.905   0.940 -0.7449  0.0775 -0.8538
  517MOL0     C68149   1.929   2.968   1.040 -0.1551 -0.4916  0.2136
  517MOL0     C68150   2.043   3.025   0.949  0.1180  0.2768 -0.5359
  517MOL0     C68151   1.987   3.152   0.869  0.3583  0.5661 -0.0719
  517MOL0     C68152   2.099   3.180   0.765  0.0560 -1.4379  0.3786
  517MOL0     C68153   2.050   3.276   0.654 -0.3992 -0.7318  0.5768
  517MOL0     C68154   2.062   3.419   0.681 -0.5720  0.8937 -0.0111
  517MOL0     C68155   2.031   3.506   0.561  0.1290  1.0444  0.0573
  517MOL0    Cl68156   1.846   3.483   0.524  0.2080  0.2440  0.1171
  517MOL0     C68157   1.539   2.804   1.023  0.2788  0.6034  0.5121
  517MOL0     C68158   1.412   2.753   0.992 -0.6456  0.5150 -0.6509
  517MOL0     O68159   1.241   2.577   0.646  0.1890 -0.2292  1.9090
  517MOL0     C68160   1.011   2.470   0.903 -0.6275 -0.1870 -0.0393
  517MOL0     C68161   0.885   2.404   0.912 -0.9540 -0.2557 -0.8533
  517MOL0     N68162  -0.021   2.298   1.055  1.5243 -0.5204 -0.1277
  517MOL0     N68163  -0.078   2.306   1.170 -0.6311 -0.7798  0.4963
  517MOL0     C68164   0.662   3.103   1.850 -0.4638  0.6459 -0.1593
  517MOL0     C68165   0.753   3.211   1.855  0.9788  0.6053 -0.2644
  517MOL0     C68166   0.943   3.613   1.721  0.8790  0.0911 -0.0679
  517MOL0     C68167   1.078   3.574   1.743 -1.0855 -0.5030 -0.7296
  517MOL0     C68168   1.171   3.666   1.783  0.2175 -0.5468 -0.0651
  517MOL0     C68169   1.138   3.804   1.767  0.3077  0.0296  0.3491
  517MOL0     O68170   1.223   3.913   1.789  0.6385  0.0569  0.2840
  517MOL0     C68171   1.343   3.902   1.869 -0.1204  0.2717  0.5315
  517MOL0     C68172   1.305   3.895   2.017  0.3376  0.0577 -0.6811
  517MOL0     C68173   1.211   4.006   2.047  0.2360 -0.0160  0.2303
  517MOL0     C68174   1.198   4.029   2.193  0.2300 -0.3316  0.8129
  517MOL0     C68175   1.058   4.039   2.230  0.7664 -0.8340  0.2178
  517MOL0     C68176   0.941   4.043   2.272 -0.5883 -0.3868 -0.4495
  517MOL0     C68177   1.015   3.844   1.731  0.9299  0.5723 -0.3760
  517MOL0     C68178   0.913   3.749   1.702 -0.7241  0.6923  0.5518
  517MOL0     H68179   0.766   3.287   1.519 -0.3330  1.3452  1.0346
  517MOL0     H68180   0.593   3.110   1.515  1.2423 -1.1197  0.5974
  517MOL0     H68181   0.411   2.988   1.873  1.0018  1.9742 -1.7661
  517MOL0     H68182   0.517   2.840   1.878 -2.0294 -0.7349  0.8933
  517MOL0     H68183   0.273   2.887   1.689 -1.9814 -1.3211 -0.0181
  517MOL0     H68184   0.249   2.803   1.846 -0.4631 -2.3272 -1.4813
  517MOL0     H68185   0.389   2.620   1.795 -2.8589  2.3153  1.7261
  517MOL0     H68186   0.454   2.706   1.661  2.7344  2.4789  3.6340
  517MOL0     H68187   0.157   2.647   1.673 -0.5186 -0.5595  0.9984
  517MOL0     H68188   0.249   2.699   1.536 -3.3605  0.9609  0.3496
  517MOL0     H68189   0.249   2.422   1.682 -1.1539 -0.6516 -0.7317
  517MOL0     H68190   0.381   2.470   1.577  0.8913  2.2944  4.1367
  517MOL0     H68191   0.238   2.456   1.389 -0.1826 -2.5297  0.4792
  517MOL0     H68192   0.099   2.523   1.483  0.2622 -2.5486  2.5340
  517MOL0     H68193   0.192   2.239   1.495  0.0159 -0.3266  3.8415
  517MOL0     H68194   0.073   2.322   1.605 -1.4859  3.2143 -0.6679
  517MOL0     H68195  -0.085   2.362   1.435  1.8175  1.1387  0.7926
  517MOL0     H68196  -0.036   2.195   1.424  2.6553 -1.2794 -1.6608
  517MOL0     H68197   0.244   2.271   1.252  0.1486 -0.8101  1.7723
  517MOL0     H68198   0.207   2.302   0.865  1.4984 -0.4050  0.5727
  517MOL0     H68199   0.241   2.139   0.930  1.3063 -1.8520  2.4382
  517MOL0     H68200   0.402   2.202   1.071 -1.0690  1.2341  1.9088
  517MOL0     H68201   0.372   2.372   1.057 -0.3990  0.0529 -0.0067
  517MOL0     H68202   0.467   2.204   0.824 -2.9919  0.5288 -1.2772
  517MOL0     H68203   0.424   2.370   0.804 -2.7362 -3.4682 -2.3699
  517MOL0     H68204   0.637   2.272   0.986  1.8769  2.1413  0.2946
  517MOL0     H68205   0.616   2.444   0.952 -0.1566  0.5128 -0.3198
  517MOL0     H68206   0.795   2.408   0.588 -0.7000  4.6957 -0.0360
  517MOL0     H68207   1.020   2.521   0.568  0.7141  0.2659  0.4840
  517MOL0     H68208   1.464   2.601   0.692  0.4189 -2.3663  1.4383
  517MOL0     H68209   1.705   2.687   0.759  2.3300  2.7708  2.6206
  517MOL0     H68210   1.751   2.979   0.906  1.3309  2.0862 -1.2772
  517MOL0     H68211   1.878   2.874   0.849  1.0528 -1.5476  0.6703
  517MOL0     H68212   1.975   2.891   1.103  0.9406  1.1097  1.4586
  517MOL0     H68213   1.890   3.052   1.099  3.4410  1.0955  0.5668
  517MOL0     H68214   2.063   2.945   0.876 -3.5687 -0.0096 -1.4747
  517MOL0     H68215   2.128   3.051   1.011 -1.7311  1.9104  1.4862
  517MOL0     H68216   1.886   3.146   0.830 -1.2165  1.2024  3.5116
  517MOL0     H68217   1.990   3.243   0.930 -1.3556  0.7585 -0.2314
  517MOL0     H68218   2.141   3.095   0.711  2.6482  0.6948 -1.1931
  517MOL0     H68219   2.182   3.225   0.821 -1.0609  0.0596  0.9230
  517MOL0     H68220   1.948   3.239   0.641  0.0300 -1.7439 -0.0399
  517MOL0     H68221   2.110   3.266   0.563 -2.1735 -2.1727 -0.4924
  517MOL0     H68222   1.991   3.457   0.756 -1.2834  0.0061 -0.2068
  517MOL0     H68223   2.166   3.434   0.710 -0.0096 -0.0668 -1.4486
  517MOL0     H68224   2.091   3.490   0.471  0.7742  2.6618  0.1627
  517MOL0     H68225   2.052   3.612   0.576  0.7898  0.9146  0.0872
  517MOL0     H68226   1.552   2.845   1.123 -1.8130 -1.4441  1.7201
  517MOL0     H68227   1.335   2.763   1.068  1.2952  3.3697  1.1304
  517MOL0     H68228   1.066   2.475   0.997 -1.0837 -0.4977  0.2495
  517MOL0     H68229   0.850   2.362   1.006 -2.1254 -2.2992 -2.1217
  517MOL0     H68230   0.644   3.054   1.945  1.1347  0.2973 -0.0108
  517MOL0     H68231   0.808   3.235   1.945 -0.4015 -2.0123  1.4194
  517MOL0     H68232   1.103   3.468   1.741 -2.5369 -0.9717  1.5619
  517MOL0     H68233   1.272   3.624   1.782 -0.0406 -1.1886 -0.9294
  517MOL0     H68234   1.410   3.987   1.853  0.9708 -0.7984 -0.8046
  517MOL0     H68235   1.413   3.823   1.838  0.3017  0.6215  0.5908
  517MOL0     H68236   1.265   3.796   2.042 -0.6366 -0.0671 -2.5133
  517MOL0     H68237   1.394   3.905   2.081 -1.3532 -0.4843  1.8904
  517MOL0     H68238   1.114   3.989   1.999  0.1383 -0.7921  0.6883
  517MOL0     H68239   1.248   4.101   2.007  2.2667 -0.1375  1.6684
  517MOL0     H68240   1.236   3.945   2.251  0.0538 -0.5170  0.6599
  517MOL0     H68241   1.260   4.113   2.225  3.8322 -2.5544  0.2638
  517MOL0     H68242   0.845   4.037   2.317  0.0787  0.3236  1.1334
  517MOL0     H68243   0.992   3.948   1.711 -1.5325  0.2335  0.4602
  517MOL0     H68244   0.812   3.774   1.670 -1.0099  0.2932  1.1112
  518MOL0     O68245   7.088   0.856   5.233 -0.3654 -0.1429 -0.0211
  518MOL0     C68246   7.062   0.734   5.227 -0.9998  0.6455  0.3070
  518MOL0     O68247   7.155   0.635   5.231 -0.2148  0.2757 -0.4815
  518MOL0     C68248   7.264   0.641   5.154 -0.0132  0.6097 -0.1057
  518MOL0     C68249   7.376   0.702   5.211  0.4801  0.2211  0.2208
  518MOL0     C68250   7.493   0.721   5.139 -0.2190  0.4182  0.3332
  518MOL0     C68251   7.496   0.666   5.006  0.8574 -0.7223 -0.1088
  518MOL0     O68252   7.611   0.657   4.930  0.6903 -0.3503 -0.0635
  518MOL0     C68253   7.734   0.719   4.979 -0.3055 -0.8296  0.0826
  518MOL0     C68254   7.852   0.703   4.884  0.5613  0.2512  0.2353
  518MOL0     C68255   7.976   0.781   4.935 -0.0112  0.1004 -0.5419
  518MOL0     C68256   8.103   0.766   4.851  0.1345  0.5345  0.8829
  518MOL0     C68257   8.216   0.859   4.890 -0.5328  0.1169  0.4544
  518MOL0     C68258   8.349   0.813   4.807  0.6615 -0.5884  0.3397
  518MOL0     C68259   8.479   0.894   4.839 -0.1586  0.8457  0.7590
  518MOL0     C68260   8.566   0.899   4.711  0.5881 -0.2090 -1.0669
  518MOL0     N68261   8.699   0.956   4.729 -0.2549  0.0601  0.6480
  518MOL0     C68262   8.754   1.062   4.675  0.0364 -0.0016  0.7970
  518MOL0     C68263   8.873   1.074   4.735  0.5070  0.0119 -0.1457
  518MOL0     C68264   8.979   1.180   4.711 -0.6925  0.4450 -0.0869
  518MOL0     C68265   9.083   1.109   4.615 -0.3019 -0.4205  0.8519
  518MOL0     C68266   9.174   1.200   4.526 -0.2506  0.0680 -0.3195
  518MOL0     C68267   9.242   1.306   4.608 -1.0984  0.3926  0.1961
  518MOL0     O68268   9.343   1.376   4.532 -0.6996  0.2333 -0.4351
  518MOL0     C68269   9.481   1.342   4.546 -0.0871  0.0892  0.2323
  518MOL0     C68270   9.582   1.434   4.555 -0.1719 -0.3085  0.1796
  518MOL0     C68271   9.722   1.399   4.575  0.8562  0.6394  0.4765
  518MOL0     C68272   9.755   1.266   4.587  0.1823 -0.7490 -0.3823
  518MOL0     C68273   9.897   1.223   4.597  0.1018  0.3105 -0.1317
  518MOL0     O68274   9.987   1.327   4.618  0.5070  1.1390  0.4073
  518MOL0     C68275  10.106   1.310   4.558 -0.8190  0.1694 -1.0588
  518MOL0     C68276  10.161   1.426   4.498  0.1180 -0.2509 -0.3313
  518MOL0     C68277  10.277   1.429   4.423 -0.7058 -0.2223  0.6630
  518MOL0     C68278  10.356   1.313   4.413 -0.0492 -1.1608  0.6008
  518MOL0     O68279  10.479   1.326   4.348 -0.2129 -0.1134  0.1002
  518MOL0     C68280  10.570   1.217   4.356  0.4293 -1.1994  0.4935
  518MOL0     C68281  10.688   1.246   4.272  0.1856 -0.5885  0.8239
  518MOL0     C68282  10.787   1.352   4.321 -0.0809 -0.5509 -0.8828
  518MOL0     C68283  10.882   1.297   4.421 -0.2892  0.0995  0.4233
  518MOL0     C68284  11.026   1.359   4.402  0.4955  0.3221  0.1039
  518MOL0     C68285  11.102   1.323   4.282 -0.1073  0.1886  0.4131
  518MOL0     C68286  11.202   1.437   4.245 -0.1873 -0.0373 -0.2548
  518MOL0     C68287  11.272   1.422   4.110  0.2136 -0.3691  0.8058
  518MOL0    Cl68288  11.148   1.435   3.975 -0.1844 -0.1600  0.6086
  518MOL0     C68289  10.310   1.194   4.464 -0.7880 -0.2748 -0.0855
  518MOL0     C68290  10.193   1.199   4.542 -0.1267  0.4192  0.5288
  518MOL0     O68291   9.925   1.106   4.558  0.2047 -0.2106 -0.7168
  518MOL0     C68292   9.647   1.174   4.579 -0.4655  0.0998 -0.0966
  518MOL0     C68293   9.512   1.206   4.558 -0.3767  0.1704  0.7346
  518MOL0     N68294   8.884   0.973   4.830  0.0181  0.0843 -0.4542
  518MOL0     N68295   8.774   0.900   4.827  0.4221 -0.2302  0.3915
  518MOL0     C68296   7.380   0.605   4.950  0.4138  0.2376 -0.0678
  518MOL0     C68297   7.270   0.594   5.022  0.3772  0.2941 -0.7496
  518MOL0     C68298   6.924   0.686   5.252 -0.1971 -0.2297  0.0435
  518MOL0     C68299   6.821   0.777   5.251 -0.4313  1.1125  0.5866
  518MOL0     C68300   6.691   0.736   5.249  0.5567  0.2879  0.3107
  518MOL0     C68301   6.659   0.604   5.285  0.4146 -0.3517  0.4427
  518MOL0     O68302   6.528   0.550   5.280 -0.1690  0.4688  0.0128
  518MOL0     C68303   6.473   0.562   5.145 -0.9618 -0.3628  0.0560
  518MOL0     C68304   6.328   0.597   5.165  0.3532 -0.2858  0.5557
  518MOL0     C68305   6.268   0.614   5.031  0.4373 -0.0043  0.5088
  518MOL0     C68306   6.138   0.690   5.032 -0.0090  0.6653  0.0499
  518MOL0     C68307   6.021   0.613   5.084 -1.0221  0.4687  0.8318
  518MOL0     C68308   5.939   0.540   5.126  1.1632 -0.6683  0.1008
  518MOL0     C68309   6.761   0.506   5.308  0.1973 -0.0153 -0.1954
  518MOL0     C68310   6.890   0.543   5.269 -1.5323 -0.2502 -1.6362
  518MOL0     H68311   7.370   0.731   5.315 -3.7110 -0.9209  0.4695
  518MOL0     H68312   7.577   0.764   5.192 -1.1354  2.8350 -0.0704
  518MOL0     H68313   7.765   0.685   5.079 -1.7465  0.4922  1.0407
  518MOL0     H68314   7.713   0.826   4.969  1.4166 -0.4937 -0.1921
  518MOL0     H68315   7.816   0.741   4.789  3.2674  0.3237 -0.8666
  518MOL0     H68316   7.887   0.600   4.871  2.4092  0.9398 -0.7275
  518MOL0     H68317   7.998   0.747   5.037  1.5612 -1.2671 -1.2788
  518MOL0     H68318   7.951   0.887   4.935  1.6081  0.5506  1.7605
  518MOL0     H68319   8.143   0.664   4.856 -0.8018 -0.0888 -2.2306
  518MOL0     H68320   8.071   0.788   4.749 -0.9366 -2.9017  0.3553
  518MOL0     H68321   8.243   0.845   4.995  2.4062 -1.0761 -0.3725
  518MOL0     H68322   8.203   0.967   4.873  2.0439  0.1390 -2.1608
  518MOL0     H68323   8.324   0.815   4.700  2.1434 -2.2285 -0.0751
  518MOL0     H68324   8.364   0.707   4.831  4.5577 -0.0673  0.8581
  518MOL0     H68325   8.472   1.001   4.861  0.9370  1.1757 -0.3958
  518MOL0     H68326   8.535   0.834   4.912 -0.3961 -1.3986 -0.7996
  518MOL0     H68327   8.520   0.944   4.622 -1.1017 -0.5712 -0.4259
  518MOL0     H68328   8.590   0.797   4.682 -2.4792 -0.9093 -1.4921
  518MOL0     H68329   8.715   1.132   4.602  2.5380  0.8966  0.2093
  518MOL0     H68330   9.022   1.202   4.809 -2.1091 -4.2212  1.8833
  518MOL0     H68331   8.923   1.258   4.658 -0.0152  0.4779 -0.7711
  518MOL0     H68332   9.028   1.043   4.546 -1.6140 -0.5364  1.9725
  518MOL0     H68333   9.144   1.040   4.674 -2.7825 -0.5380  3.4666
  518MOL0     H68334   9.247   1.143   4.468  2.3420  0.7373  2.0752
  518MOL0     H68335   9.097   1.242   4.460  1.1265 -0.8999 -2.6515
  518MOL0     H68336   9.292   1.276   4.700  1.9564  0.9467 -1.1421
  518MOL0     H68337   9.168   1.381   4.636 -0.3257 -0.2555  4.6996
  518MOL0     H68338   9.560   1.540   4.559  0.0341 -0.1076 -2.3387
  518MOL0     H68339   9.794   1.479   4.586  1.0631  0.5870 -0.4141
  518MOL0     H68340  10.097   1.512   4.517 -2.4427 -1.4977 -2.5702
  518MOL0     H68341  10.300   1.522   4.372 -1.3928 -0.7581 -0.6723
  518MOL0     H68342  10.529   1.121   4.322  1.4018 -1.9064  1.2553
  518MOL0     H68343  10.607   1.218   4.458  2.1591  0.7281 -0.0995
  518MOL0     H68344  10.649   1.262   4.171  0.8656 -0.3740  0.5920
  518MOL0     H68345  10.731   1.146   4.261 -2.1336 -1.5147 -0.5368
  518MOL0     H68346  10.738   1.448   4.339 -1.8159 -0.6234 -4.4098
  518MOL0     H68347  10.849   1.386   4.238  0.2059 -1.7427 -1.1712
  518MOL0     H68348  10.853   1.326   4.522  2.0971  0.4333  1.0576
  518MOL0     H68349  10.887   1.187   4.416 -5.3080 -0.3356 -0.0845
  518MOL0     H68350  11.080   1.322   4.489 -0.1048  0.3305  0.4829
  518MOL0     H68351  11.018   1.468   4.399  2.2907  0.4779 -0.2076
  518MOL0     H68352  11.035   1.309   4.197  0.2699 -2.6323  0.5027
  518MOL0     H68353  11.166   1.237   4.302  0.2229 -0.0392 -1.4755
  518MOL0     H68354  11.143   1.529   4.244 -4.8707 -2.7054 -1.8790
  518MOL0     H68355  11.274   1.455   4.326 -1.1071  3.3715 -0.0303
  518MOL0     H68356  11.330   1.330   4.097  3.7711  1.9123 -1.0513
  518MOL0     H68357  11.351   1.498   4.110  0.0101 -0.0266 -2.2050
  518MOL0     H68358  10.365   1.100   4.461  2.2675  1.3064  1.4832
  518MOL0     H68359  10.156   1.114   4.599  0.9474 -1.2014 -1.0788
  518MOL0     H68360   9.677   1.070   4.592  1.8957  0.6323 -0.8209
  518MOL0     H68361   9.437   1.128   4.552  0.0504 -0.2634  0.9383
  518MOL0     H68362   7.391   0.581   4.845  0.7641  2.2091 -0.5191
  518MOL0     H68363   7.186   0.541   4.976 -0.2853 -0.0445  0.7819
  518MOL0     H68364   6.854   0.877   5.224 -0.8833  0.2113 -4.0120
  518MOL0     H68365   6.616   0.815   5.242  1.2186  1.0033  1.1184
  518MOL0     H68366   6.485   0.471   5.086  3.2869 -2.2120  3.2543
  518MOL0     H68367   6.523   0.633   5.078  0.7502 -1.6983 -0.1742
  518MOL0     H68368   6.272   0.517   5.215  0.7980 -0.0504  1.4377
  518MOL0     H68369   6.315   0.690   5.220 -2.2754 -0.8630  1.0826
  518MOL0     H68370   6.244   0.512   5.001  0.0227 -0.0341  0.9334
  518MOL0     H68371   6.335   0.677   4.972  0.1597  1.1493  1.3772
  518MOL0     H68372   6.141   0.786   5.084  1.1488  0.6100  0.1057
  518MOL0     H68373   6.113   0.709   4.927 -0.3619  1.9467  0.3478
  518MOL0     H68374   5.860   0.478   5.165  1.7300 -1.2173  0.4134
  518MOL0     H68375   6.727   0.406   5.335 -1.1281  0.4610 -0.0088
  518MOL0     H68376   6.961   0.462   5.279 -3.5220 -1.9938 -0.9729
  519MOL0     O68377   8.286   7.244   1.806 -0.1318  0.5589 -0.3606
  519MOL0     C68378   8.287   7.356   1.766  0.0787 -1.1587  0.6024
  519MOL0     O68379   8.190   7.447   1.784  0.2436  0.1505  0.1797
  519MOL0     C68380   8.069   7.401   1.842 -1.0506  0.0608  0.8183
  519MOL0     C68381   7.956   7.406   1.764  0.4062  0.3135 -0.3850
  519MOL0     C68382   7.845   7.339   1.805  0.8845  0.1713  0.4111
  519MOL0     C68383   7.828   7.301   1.937  0.2697 -1.3515 -0.2970
  519MOL0     O68384   7.698   7.266   1.982 -0.3287 -0.2448 -0.1225
  519MOL0     C68385   7.651   7.354   2.080  0.1748  0.4216  0.0251
  519MOL0     C68386   7.578   7.280   2.192 -0.2210 -0.3671 -0.3421
  519MOL0     C68387   7.460   7.195   2.136 -0.6358 -1.4445 -0.6035
  519MOL0     C68388   7.340   7.282   2.122 -0.5617 -0.5783 -0.6134
  519MOL0     C68389   7.201   7.215   2.102 -0.2460  0.5936 -0.2542
  519MOL0     C68390   7.192   7.130   1.979 -0.3621  0.3937 -0.4512
  519MOL0     C68391   7.044   7.076   1.984 -0.1616 -0.7509  0.2017
  519MOL0     C68392   7.002   6.986   1.865 -1.3514  1.0744  0.6937
  519MOL0     N68393   7.029   7.053   1.740  0.1183  0.5728 -0.2921
  519MOL0     C68394   7.119   7.020   1.643 -0.4984 -0.3122 -1.0576
  519MOL0     C68395   7.102   7.124   1.557 -0.3140  0.6401  1.2175
  519MOL0     C68396   7.181   7.167   1.441 -0.1004 -0.4387  0.6042
  519MOL0     C68397   7.209   7.056   1.338 -0.1902 -1.2642  0.7069
  519MOL0     C68398   7.089   7.006   1.257 -0.6636  0.2772  0.1857
  519MOL0     C68399   7.041   7.120   1.168  0.9920  0.8486 -0.1961
  519MOL0     O68400   6.911   7.086   1.115  0.6631  0.1824 -0.0949
  519MOL0     C68401   6.793   7.105   1.190  0.1401 -0.0252 -1.0203
  519MOL0     C68402   6.785   7.141   1.325  0.2492  0.5181  0.1980
  519MOL0     C68403   6.657   7.168   1.388  0.2539 -0.1800 -0.8477
  519MOL0     C68404   6.540   7.151   1.316  0.7821 -0.0853  0.9695
  519MOL0     C68405   6.414   7.158   1.380  0.1845 -0.9165  0.3917
  519MOL0     O68406   6.310   7.141   1.291 -0.0053 -0.1392  0.2275
  519MOL0     C68407   6.172   7.156   1.302  0.1448  0.1280 -0.5808
  519MOL0     C68408   6.110   7.224   1.418  0.0483 -0.4370 -0.3756
  519MOL0     C68409   5.969   7.223   1.429 -0.7469  0.6648 -0.9124
  519MOL0     C68410   5.897   7.179   1.326  0.4936 -0.3066  0.2081
  519MOL0     O68411   5.762   7.182   1.352  0.6305 -0.1937 -0.5287
  519MOL0     C68412   5.679   7.113   1.260  0.9114  0.3020  0.7503
  519MOL0     C68413   5.532   7.146   1.294  1.7346 -0.3214 -0.1580
  519MOL0     C68414   5.436   7.071   1.204 -0.9863 -0.1614 -0.9627
  519MOL0     C68415   5.289   7.098   1.243  1.2398 -0.5030  0.7402
  519MOL0     C68416   5.251   7.005   1.361 -0.0828 -0.2337 -0.8078
  519MOL0     C68417   5.109   7.037   1.389 -0.4204  0.4522 -0.5792
  519MOL0     C68418   5.047   6.946   1.503 -0.4386 -0.0838  0.6668
  519MOL0     C68419   5.063   6.788   1.474  0.0253 -1.4632  0.3767
  519MOL0    Cl68420   5.021   6.747   1.299 -0.0712 -0.1726 -0.1530
  519MOL0     C68421   5.954   7.110   1.218 -0.0880  0.3793  0.4923
  519MOL0     C68422   6.091   7.092   1.207  0.3558 -0.2891  0.2231
  519MOL0     O68423   6.410   7.174   1.502 -0.1480 -0.7227  0.4032
  519MOL0     C68424   6.552   7.117   1.183 -0.1983  0.6754  0.2285
  519MOL0     C68425   6.676   7.104   1.129  0.1436 -0.1274  0.1059
  519MOL0     N68426   7.001   7.205   1.594  0.2828 -0.1599  0.7244
  519MOL0     N68427   6.954   7.155   1.700 -0.0286  0.0231  0.2040
  519MOL0     C68428   7.942   7.300   2.019 -0.0866  0.6847  0.3465
  519MOL0     C68429   8.059   7.347   1.969 -0.1414 -0.7303 -0.0131
  519MOL0     C68430   8.419   7.409   1.714  0.2244 -0.2701  0.6273
  519MOL0     C68431   8.538   7.331   1.707  0.0871  0.0719  0.1038
  519MOL0     C68432   8.649   7.386   1.638  0.1593  1.2167  0.6159
  519MOL0     C68433   8.654   7.517   1.597  0.0365  0.3299  0.5304
  519MOL0     O68434   8.762   7.564   1.523  0.0310  0.1330 -0.1466
  519MOL0     C68435   8.881   7.578   1.599 -0.5461  0.4943 -0.3802
  519MOL0     C68436   8.967   7.672   1.513  0.4299  0.5207 -0.8396
  519MOL0     C68437   8.925   7.825   1.523  0.1193  0.1095  0.1078
  519MOL0     C68438   8.921   7.896   1.387 -0.4427  0.1628 -0.0928
  519MOL0     C68439   9.060   7.902   1.328  0.5200  0.5356 -0.6243
  519MOL0     C68440   9.172   7.912   1.281  0.3347 -1.4539 -0.1766
  519MOL0     C68441   8.542   7.597   1.608 -0.3255  0.2036  0.1161
  519MOL0     C68442   8.424   7.539   1.668  0.3471  0.4182  0.7145
  519MOL0     H68443   7.956   7.460   1.669 -1.7297 -0.6721 -1.0213
  519MOL0     H68444   7.752   7.348   1.748 -0.5595  0.7504  2.7267
  519MOL0     H68445   7.569   7.418   2.046 -1.8698 -1.7137  0.5957
  519MOL0     H68446   7.731   7.416   2.120  0.2197  1.1405 -1.1430
  519MOL0     H68447   7.543   7.353   2.267  1.4679  1.3400 -1.1237
  519MOL0     H68448   7.641   7.208   2.244 -1.4627 -1.6076 -0.5038
  519MOL0     H68449   7.447   7.120   2.215  1.5115  0.1109  1.3560
  519MOL0     H68450   7.497   7.151   2.043 -0.0265  0.2874 -1.2140
  519MOL0     H68451   7.342   7.337   2.216  1.0996  2.3169 -2.2127
  519MOL0     H68452   7.353   7.362   2.049 -0.8201 -0.3850 -0.4515
  519MOL0     H68453   7.119   7.286   2.116 -0.2770  0.4986  0.0696
  519MOL0     H68454   7.197   7.141   2.182  0.6239  1.2237  0.3973
  519MOL0     H68455   7.249   7.038   1.983 -1.2133 -0.1370 -0.2865
  519MOL0     H68456   7.202   7.193   1.890  3.5214 -1.7594 -1.7773
  519MOL0     H68457   7.021   7.025   2.079  3.5522 -0.5299  1.3860
  519MOL0     H68458   6.975   7.161   1.994 -0.1908 -0.9437  1.8999
  519MOL0     H68459   6.895   6.969   1.877 -1.2490 -1.1833 -1.0428
  519MOL0     H68460   7.061   6.894   1.862 -3.4023 -0.3356  1.8244
  519MOL0     H68461   7.195   6.942   1.639  0.3083  0.2163  1.6310
  519MOL0     H68462   7.278   7.202   1.478  1.4432 -3.8347  0.1232
  519MOL0     H68463   7.133   7.254   1.395  0.2335 -0.6586 -0.1767
  519MOL0     H68464   7.262   6.974   1.388  2.5091  0.8205  1.5478
  519MOL0     H68465   7.282   7.098   1.267  2.6272 -1.6418  3.1839
  519MOL0     H68466   7.114   6.913   1.206  2.3279  1.3299 -0.4595
  519MOL0     H68467   7.025   6.979   1.341 -1.7139  0.5241 -0.5130
  519MOL0     H68468   7.110   7.133   1.085 -0.9011  2.0686 -1.6408
  519MOL0     H68469   7.033   7.210   1.230 -2.3527  1.3356 -1.1564
  519MOL0     H68470   6.874   7.149   1.386 -0.2155 -0.8610  1.1103
  519MOL0     H68471   6.648   7.194   1.493 -2.1589 -0.5405 -0.9108
  519MOL0     H68472   6.168   7.282   1.489 -0.6488  0.8335 -0.7972
  519MOL0     H68473   5.919   7.264   1.516  0.7851  3.3094 -1.1740
  519MOL0     H68474   5.690   7.005   1.268 -1.2889  0.1486  2.8981
  519MOL0     H68475   5.695   7.156   1.160 -0.6168  1.6022  1.0149
  519MOL0     H68476   5.510   7.253   1.290  1.0570 -0.3732  1.4965
  519MOL0     H68477   5.504   7.122   1.397 -3.1593  0.6781 -0.9812
  519MOL0     H68478   5.445   6.963   1.216  0.1549  0.0369  0.1082
  519MOL0     H68479   5.452   7.105   1.101  0.0099  0.2752 -0.6694
  519MOL0     H68480   5.269   7.202   1.269 -0.4151  0.1090 -2.4139
  519MOL0     H68481   5.225   7.069   1.159  3.6706 -1.9655 -0.7498
  519MOL0     H68482   5.323   7.031   1.439 -0.7667  3.0967 -1.1292
  519MOL0     H68483   5.261   6.906   1.317 -3.6396 -0.5066 -1.3008
  519MOL0     H68484   5.047   7.037   1.300  1.5322 -0.0008 -2.0146
  519MOL0     H68485   5.100   7.140   1.423 -1.0430  0.3893 -0.5426
  519MOL0     H68486   5.100   6.972   1.595  1.9708 -2.0662 -0.0505
  519MOL0     H68487   4.940   6.966   1.511  0.0630  2.1877  3.2470
  519MOL0     H68488   4.992   6.729   1.532 -4.5319  2.9506 -0.0244
  519MOL0     H68489   5.169   6.764   1.491  0.5738 -1.3032 -2.4449
  519MOL0     H68490   5.899   7.072   1.133 -1.0985  0.9591  0.8729
  519MOL0     H68491   6.146   7.046   1.125  0.0345 -0.4277  0.0873
  519MOL0     H68492   6.475   7.103   1.108  0.6029  1.1865 -0.7111
  519MOL0     H68493   6.667   7.086   1.022  1.9708  0.7283 -0.2313
  519MOL0     H68494   7.941   7.249   2.114 -1.8204 -0.8706 -0.4502
  519MOL0     H68495   8.145   7.324   2.031 -1.8089 -1.0867  2.3043
  519MOL0     H68496   8.546   7.230   1.743  2.1400  0.4670  0.8776
  519MOL0     H68497   8.733   7.318   1.632 -3.0731 -3.0507 -1.4481
  519MOL0     H68498   8.929   7.481   1.613 -0.9524  0.5672  2.1822
  519MOL0     H68499   8.859   7.623   1.697 -1.3259 -1.5867  0.4627
  519MOL0     H68500   9.074   7.661   1.534  0.7608  1.0509 -2.1639
  519MOL0     H68501   8.962   7.634   1.411  1.5152  0.0724 -0.7431
  519MOL0     H68502   8.993   7.881   1.587  0.2522 -1.0110  0.9802
  519MOL0     H68503   8.832   7.835   1.580 -0.9639 -2.9615 -0.9159
  519MOL0     H68504   8.854   7.842   1.320  0.2246 -0.5676 -0.1881
  519MOL0     H68505   8.895   8.002   1.396  2.7634  0.9340  1.7206
  519MOL0     H68506   9.265   7.924   1.230 -0.8579 -2.0860 -2.6545
  519MOL0     H68507   8.545   7.699   1.571  0.1341  0.7982  1.7164
  519MOL0     H68508   8.339   7.607   1.665  1.5180  1.9210 -0.1746
  520MOL0     O68509   4.402   2.464   6.511  0.0822  0.3679  0.1514
  520MOL0     C68510   4.522   2.501   6.511  0.0528 -0.4401  0.1211
  520MOL0     O68511   4.564   2.627   6.499  0.1765  0.3158  0.7869
  520MOL0     C68512   4.474   2.721   6.450 -0.8396  0.2634  0.2448
  520MOL0     C68513   4.390   2.691   6.343  0.1621  0.1535 -0.6972
  520MOL0     C68514   4.300   2.788   6.308 -0.5297  0.6455  0.4891
  520MOL0     C68515   4.287   2.902   6.386 -0.3513 -0.0026 -0.2453
  520MOL0     O68516   4.177   2.982   6.347 -0.4555  0.7175 -0.4723
  520MOL0     C68517   4.175   3.106   6.403 -0.1114  0.0662  0.0072
  520MOL0     C68518   4.070   3.173   6.326 -0.1158 -0.5433 -0.1800
  520MOL0     C68519   4.066   3.327   6.363 -0.8428 -0.3851  0.5534
  520MOL0     C68520   3.956   3.397   6.276 -0.6127 -0.4855 -0.2431
  520MOL0     C68521   3.810   3.368   6.310  0.3476  0.3225 -0.3790
  520MOL0     C68522   3.781   3.398   6.461 -0.2621 -0.5194  0.1153
  520MOL0     C68523   3.636   3.385   6.498  0.4352 -0.1158 -0.2171
  520MOL0     C68524   3.570   3.247   6.488 -0.2447  0.2295  0.1789
  520MOL0     N68525   3.454   3.234   6.573  0.6390  0.6198  0.7758
  520MOL0     C68526   3.331   3.249   6.532  0.6918 -0.8489 -0.8482
  520MOL0     C68527   3.247   3.180   6.618 -0.5012  0.4384 -0.2370
  520MOL0     C68528   3.093   3.163   6.629  0.3156  0.0542  0.0984
  520MOL0     C68529   3.036   3.174   6.773 -0.6095 -0.7318 -0.3676
  520MOL0     C68530   2.995   3.042   6.838 -0.4367  0.3077 -0.4434
  520MOL0     C68531   3.093   2.924   6.859 -0.3167  0.4260  0.1453
  520MOL0     O68532   3.027   2.797   6.891 -0.6007 -0.3829  0.1987
  520MOL0     C68533   2.968   2.731   6.786  0.6293  0.0611  0.4776
  520MOL0     C68534   2.913   2.611   6.813 -0.3151  1.2434  0.5654
  520MOL0     C68535   2.849   2.516   6.734  1.3928 -0.0398  0.9290
  520MOL0     C68536   2.821   2.569   6.606  0.0040 -0.0845  0.2413
  520MOL0     C68537   2.735   2.501   6.511  0.3489 -0.5192  0.6058
  520MOL0     O68538   2.694   2.569   6.401  0.1369 -0.3159 -0.0538
  520MOL0     C68539   2.622   2.517   6.300 -0.1741  0.0949  0.5260
  520MOL0     C68540   2.498   2.578   6.279  0.1230  0.1189  0.2347
  520MOL0     C68541   2.417   2.520   6.181  0.6425  0.6925  0.6794
  520MOL0     C68542   2.458   2.411   6.103 -0.0658  0.8717  0.0247
  520MOL0     O68543   2.387   2.360   5.998  1.1615 -0.2456  0.5117
  520MOL0     C68544   2.269   2.427   5.945  0.6195 -0.6324  0.0928
  520MOL0     C68545   2.144   2.402   6.030 -0.3240 -0.6586 -0.2093
  520MOL0     C68546   2.032   2.497   5.989 -0.0637  1.2173  0.5936
  520MOL0     C68547   1.909   2.471   6.069 -0.9253  0.3280  0.5707
  520MOL0     C68548   1.845   2.337   6.060 -0.5245  0.1025 -0.3750
  520MOL0     C68549   1.831   2.292   5.914  0.2834  1.1683  0.6010
  520MOL0     C68550   1.767   2.157   5.895 -0.1258  0.0265 -0.7825
  520MOL0     C68551   1.688   2.161   5.766 -0.8364  0.8198  0.3286
  520MOL0    Cl68552   1.531   2.258   5.771 -0.3962  0.0162  0.0959
  520MOL0     C68553   2.579   2.350   6.132 -0.1780  0.7225 -0.1161
  520MOL0     C68554   2.657   2.402   6.234  0.6666 -0.1697 -0.6265
  520MOL0     O68555   2.718   2.377   6.532  0.6865  0.3657  0.3846
  520MOL0     C68556   2.893   2.689   6.564  0.6888  0.2562  0.7116
  520MOL0     C68557   2.964   2.768   6.650  0.5753  0.0132 -0.1201
  520MOL0     N68558   3.332   3.129   6.714  0.0266 -0.0988 -0.3762
  520MOL0     N68559   3.449   3.145   6.682  1.3993 -0.1805 -0.4627
  520MOL0     C68560   4.383   2.936   6.489  0.1428 -0.3398 -1.1305
  520MOL0     C68561   4.476   2.838   6.522  0.2138 -0.8799  0.4270
  520MOL0     C68562   4.633   2.401   6.528  0.2384  0.1628 -0.2016
  520MOL0     C68563   4.592   2.261   6.545  0.4266 -0.8250 -0.1094
  520MOL0     C68564   4.689   2.160   6.550 -0.2693 -0.1431 -0.0290
  520MOL0     C68565   4.824   2.198   6.528 -0.9446  0.3352  0.2149
  520MOL0     O68566   4.916   2.090   6.548  0.6845 -0.0733  0.3157
  520MOL0     C68567   5.062   2.106   6.533 -0.5161  0.3115  0.1000
  520MOL0     C68568   5.099   1.967   6.508  0.2621  0.9200 -0.5206
  520MOL0     C68569   5.245   1.937   6.472  0.1957 -0.1043 -0.5914
  520MOL0     C68570   5.351   2.006   6.557  0.0449 -0.4690  0.7102
  520MOL0     C68571   5.481   1.942   6.565  1.0502 -0.2677  0.6906
  520MOL0     C68572   5.592   1.888   6.569  0.5775  0.4899  0.9086
  520MOL0     C68573   4.861   2.328   6.494 -0.1111 -0.1745  0.7576
  520MOL0     C68574   4.770   2.432   6.504 -0.4696  0.5577 -0.0548
  520MOL0     H68575   4.408   2.607   6.277  1.3588  1.0291 -1.5428
  520MOL0     H68576   4.237   2.763   6.224  2.9487  3.2738 -3.3312
  520MOL0     H68577   4.265   3.164   6.380 -1.5617  1.6848 -1.9025
  520MOL0     H68578   4.145   3.114   6.508  0.5497 -0.3824  0.2387
  520MOL0     H68579   3.970   3.133   6.347  1.1415 -3.2240  1.0958
  520MOL0     H68580   4.094   3.168   6.219 -2.2355  0.3836 -0.7614
  520MOL0     H68581   4.155   3.384   6.338 -3.1223  2.9364 -0.7701
  520MOL0     H68582   4.059   3.341   6.471  1.2274 -3.2663  1.1702
  520MOL0     H68583   3.978   3.504   6.270 -0.4656 -0.5607 -1.4898
  520MOL0     H68584   3.979   3.367   6.173  0.8486 -1.7002  0.4028
  520MOL0     H68585   3.792   3.262   6.289  4.5007 -0.0605 -3.3593
  520MOL0     H68586   3.741   3.425   6.247 -0.7157 -1.8979 -1.3464
  520MOL0     H68587   3.807   3.497   6.500 -2.0216 -0.6373  1.7457
  520MOL0     H68588   3.844   3.335   6.525  1.0975  3.6781  3.4545
  520MOL0     H68589   3.646   3.430   6.597  0.0660  3.5763 -1.7077
  520MOL0     H68590   3.568   3.446   6.438 -2.3994 -0.2246  2.6458
  520MOL0     H68591   3.642   3.171   6.520 -4.1116 -4.5562 -1.3163
  520MOL0     H68592   3.544   3.233   6.383  0.6180  1.1079 -0.1695
  520MOL0     H68593   3.305   3.307   6.444 -0.0238  2.5929  1.4730
  520MOL0     H68594   3.066   3.067   6.584 -1.4435  2.0639 -3.5460
  520MOL0     H68595   3.047   3.235   6.561 -0.5036  0.6249  1.2319
  520MOL0     H68596   2.961   3.254   6.773  0.9097  0.7383  0.2681
  520MOL0     H68597   3.114   3.223   6.830 -2.3748  0.7012  0.9084
  520MOL0     H68598   2.951   3.055   6.937 -1.7368 -0.8429 -0.8329
  520MOL0     H68599   2.907   3.009   6.781  0.9409 -4.4956 -0.2155
  520MOL0     H68600   3.162   2.946   6.941  1.9544 -0.5213 -1.3938
  520MOL0     H68601   3.144   2.908   6.763 -3.1645  0.4364 -1.4566
  520MOL0     H68602   2.921   2.579   6.916 -1.9866 -3.2069 -0.4679
  520MOL0     H68603   2.790   2.432   6.770 -3.3633  2.3882 -0.3370
  520MOL0     H68604   2.478   2.658   6.348 -1.9972 -0.5034  0.4245
  520MOL0     H68605   2.326   2.574   6.158  1.8404  2.7420  0.5503
  520MOL0     H68606   2.248   2.395   5.842  2.7450  0.2239 -0.6501
  520MOL0     H68607   2.288   2.534   5.949 -2.1758 -0.0775  0.5287
  520MOL0     H68608   2.177   2.411   6.134 -0.7292  1.3284 -0.2038
  520MOL0     H68609   2.118   2.297   6.016 -1.3189 -0.3413 -0.8884
  520MOL0     H68610   2.018   2.485   5.881  2.1882  0.2465  0.3362
  520MOL0     H68611   2.061   2.602   5.995 -1.0742  1.7563 -2.3993
  520MOL0     H68612   1.937   2.502   6.170  1.4981  3.3801 -0.8571
  520MOL0     H68613   1.829   2.540   6.039  1.1471  3.0387  0.8714
  520MOL0     H68614   1.746   2.346   6.104 -0.3368  3.1101 -0.3273
  520MOL0     H68615   1.908   2.265   6.113  1.1569  1.6404 -0.1845
  520MOL0     H68616   1.928   2.287   5.864 -1.6247  0.0415 -3.3822
  520MOL0     H68617   1.770   2.369   5.864 -1.1367 -0.5274 -0.3890
  520MOL0     H68618   1.837   2.074   5.899  0.6582  0.7091 -0.0312
  520MOL0     H68619   1.698   2.147   5.979  2.0660  2.7835  1.5266
  520MOL0     H68620   1.659   2.059   5.740  1.8247  0.5185 -2.0045
  520MOL0     H68621   1.753   2.194   5.684 -0.0085 -1.7034 -0.1168
  520MOL0     H68622   2.596   2.256   6.081 -1.9094  0.6068 -0.5448
  520MOL0     H68623   2.741   2.347   6.273  0.6410  2.4178  3.5907
  520MOL0     H68624   2.887   2.730   6.464  1.5756  0.3108  0.6724
  520MOL0     H68625   3.024   2.846   6.604 -0.8579 -0.1890 -2.4854
  520MOL0     H68626   4.379   3.020   6.558 -0.6709 -0.8299 -0.5672
  520MOL0     H68627   4.535   2.864   6.609 -0.4351  0.8997  0.3743
  520MOL0     H68628   4.489   2.230   6.554  0.1638  0.5047  2.2572
  520MOL0     H68629   4.659   2.056   6.557 -1.7344  0.3339  4.8864
  520MOL0     H68630   5.111   2.150   6.620 -1.4498 -2.1592  1.9777
  520MOL0     H68631   5.089   2.153   6.437 -1.6992 -0.6784 -0.7537
  520MOL0     H68632   5.070   1.909   6.596  2.9601 -2.0800 -1.4271
  520MOL0     H68633   5.034   1.932   6.427 -0.4569  1.2304 -0.0907
  520MOL0     H68634   5.261   1.960   6.367 -1.6790 -1.3567 -1.2014
  520MOL0     H68635   5.265   1.830   6.475  4.0731  0.3997 -2.5864
  520MOL0     H68636   5.363   2.100   6.503  0.4666 -1.4523 -0.9794
  520MOL0     H68637   5.318   2.036   6.657 -1.2089 -0.4595  0.3147
  520MOL0     H68638   5.684   1.836   6.586 -0.8605 -2.9064 -0.5937
  520MOL0     H68639   4.965   2.347   6.469 -0.1614 -0.6451  0.1602
  520MOL0     H68640   4.812   2.531   6.492 -1.2839  0.7245 -1.8710
  521MOL0     O68641  10.344   9.972   1.792  0.1306  0.0593 -0.1748
  521MOL0     C68642  10.298  10.077   1.763  0.0319  0.3470  1.0137
  521MOL0     O68643  10.189  10.134   1.820 -0.4521 -0.4881 -0.7119
  521MOL0     C68644  10.132  10.081   1.930 -0.2138  0.2552  0.3668
  521MOL0     C68645  10.190  10.036   2.050  0.2496  0.0251 -0.1674
  521MOL0     C68646  10.103  10.007   2.152 -0.9123  0.4411 -0.0324
  521MOL0     C68647   9.962  10.003   2.144  0.4623  0.3047 -0.1645
  521MOL0     O68648   9.906   9.963   2.265 -0.0950  0.5745  0.1049
  521MOL0     C68649   9.776   9.997   2.286  0.0003 -0.5561  0.0898
  521MOL0     C68650   9.723   9.937   2.420 -1.3757  0.7167 -0.1711
  521MOL0     C68651   9.583   9.984   2.431 -0.1983  0.2520  0.2670
  521MOL0     C68652   9.578  10.130   2.491 -0.3638  0.0053 -0.4140
  521MOL0     C68653   9.433  10.180   2.533  0.0869  0.0209 -0.2769
  521MOL0     C68654   9.377  10.113   2.655  0.6404  0.7616  1.2159
  521MOL0     C68655   9.267  10.186   2.724  0.0631  0.4854  0.9179
  521MOL0     C68656   9.203  10.098   2.836 -0.2127 -1.0682  0.3601
  521MOL0     N68657   9.287  10.056   2.949  1.8492 -0.3008  0.3556
  521MOL0     C68658   9.384   9.954   2.948  0.5635  0.0779  0.7653
  521MOL0     C68659   9.412   9.932   3.081 -0.4055 -0.3315 -0.0182
  521MOL0     C68660   9.503   9.840   3.152 -0.0468  0.9178  0.3813
  521MOL0     C68661   9.641   9.838   3.092 -0.6924 -0.3323 -0.5740
  521MOL0     C68662   9.761   9.803   3.185 -0.5375  0.3296  0.8857
  521MOL0     C68663   9.886   9.786   3.096 -0.7953  0.2306  1.1741
  521MOL0     O68664   9.995   9.818   3.181 -0.0873  0.1302 -0.5002
  521MOL0     C68665  10.118   9.814   3.125 -1.3818  0.1798  1.1441
  521MOL0     C68666  10.214   9.705   3.138  0.9473  0.4844 -0.6873
  521MOL0     C68667  10.343   9.705   3.094  0.8669 -0.2665 -0.3464
  521MOL0     C68668  10.389   9.819   3.025  0.7067 -0.6875  0.2843
  521MOL0     C68669  10.533   9.826   2.996 -1.0319 -0.4474  0.3851
  521MOL0     O68670  10.545   9.900   2.884  0.0908 -0.4961  0.9299
  521MOL0     C68671  10.674   9.930   2.847 -0.2940  0.4888  0.2049
  521MOL0     C68672  10.728  10.056   2.870 -0.3358  0.0109  0.0450
  521MOL0     C68673  10.858  10.087   2.826  1.4927 -0.5986  0.2063
  521MOL0     C68674  10.939   9.992   2.766  0.0534 -0.0350 -0.1512
  521MOL0     O68675  11.067  10.026   2.738  0.1898  0.1749  0.2417
  521MOL0     C68676  11.144   9.936   2.669 -1.0246 -0.5371 -0.8375
  521MOL0     C68677  11.273   9.998   2.641 -0.5575  0.3124  0.8471
  521MOL0     C68678  11.276  10.090   2.520 -0.0033  0.4175  0.4718
  521MOL0     C68679  11.325  10.018   2.395  0.1976  0.5770 -0.9304
  521MOL0     C68680  11.329  10.105   2.272 -0.5085  1.1715  0.1768
  521MOL0     C68681  11.421  10.222   2.278  0.5346 -0.6575 -0.0769
  521MOL0     C68682  11.568  10.202   2.310  0.3451  0.2221 -0.5161
  521MOL0     C68683  11.663  10.318   2.298  0.7451  0.7621  0.2542
  521MOL0    Cl68684  11.637  10.423   2.156 -0.0061  0.4745  0.0755
  521MOL0     C68685  10.893   9.862   2.745 -0.2830  0.6001 -0.0386
  521MOL0     C68686  10.755   9.832   2.781  0.4292 -0.7798  0.2614
  521MOL0     O68687  10.618   9.780   3.072  0.0816 -0.0036 -0.1068
  521MOL0     C68688  10.296   9.927   3.005  0.3283 -0.6431  0.1573
  521MOL0     C68689  10.163   9.927   3.053  0.4707 -0.5338  0.4894
  521MOL0     N68690   9.328  10.019   3.162 -0.4355  1.4885  0.4720
  521MOL0     N68691   9.261  10.093   3.078 -0.0580  0.5491 -0.4339
  521MOL0     C68692   9.899  10.036   2.019 -0.6445 -0.1151 -0.1241
  521MOL0     C68693   9.989  10.074   1.917 -0.2397 -0.8593 -0.4693
  521MOL0     C68694  10.357  10.137   1.648  0.0912 -0.4268 -0.0602
  521MOL0     C68695  10.322  10.267   1.617  0.5435 -0.9307  0.1067
  521MOL0     C68696  10.397  10.340   1.525 -0.0888  1.0365  0.3983
  521MOL0     C68697  10.485  10.273   1.436 -1.0839 -0.0269  0.3096
  521MOL0     O68698  10.538  10.361   1.343  0.4822  0.7271  0.2289
  521MOL0     C68699  10.605  10.304   1.229 -0.4459  0.2551 -0.4701
  521MOL0     C68700  10.659  10.418   1.139 -0.4279 -0.4379 -0.2557
  521MOL0     C68701  10.550  10.521   1.095  0.4505  0.9788  0.1970
  521MOL0     C68702  10.516  10.631   1.191 -0.4492 -0.5368  0.1001
  521MOL0     C68703  10.630  10.717   1.183 -0.2435 -0.3487 -0.7301
  521MOL0     C68704  10.728  10.783   1.194 -1.0073  1.0300  0.0831
  521MOL0     C68705  10.515  10.141   1.452  0.2704 -0.3483 -0.0785
  521MOL0     C68706  10.456  10.080   1.564 -0.1908 -0.1821 -0.1158
  521MOL0     H68707  10.298  10.033   2.059  0.2251  2.4663  2.7346
  521MOL0     H68708  10.149   9.983   2.248  0.7610  1.8147 -0.4317
  521MOL0     H68709   9.720   9.956   2.202 -0.2634 -1.3644  0.6495
  521MOL0     H68710   9.768  10.106   2.285  0.3213 -0.5355 -0.4404
  521MOL0     H68711   9.781   9.972   2.506 -3.0592  3.0167  0.1273
  521MOL0     H68712   9.739   9.829   2.420  1.8088  1.0397 -2.4305
  521MOL0     H68713   9.538   9.924   2.510 -0.0226 -0.9388 -0.5101
  521MOL0     H68714   9.529   9.961   2.339 -0.9292  0.3874  0.6612
  521MOL0     H68715   9.643  10.124   2.579  0.2050 -4.3485 -0.9043
  521MOL0     H68716   9.613  10.207   2.422  1.5652  2.5107  3.0797
  521MOL0     H68717   9.360  10.168   2.452 -1.7378 -0.9482  1.4122
  521MOL0     H68718   9.438  10.288   2.551 -1.7930  0.1327 -0.1937
  521MOL0     H68719   9.448  10.101   2.737  0.8215  0.1928  0.9839
  521MOL0     H68720   9.341  10.018   2.616 -0.5197  2.4690 -2.2491
  521MOL0     H68721   9.301  10.285   2.758  1.1255  0.6636 -0.6052
  521MOL0     H68722   9.195  10.213   2.646  0.7116 -1.3647 -0.3620
  521MOL0     H68723   9.149  10.008   2.804  0.7767 -0.6202 -2.9953
  521MOL0     H68724   9.125  10.162   2.877  1.0925  0.8808 -0.0772
  521MOL0     H68725   9.429   9.893   2.871 -0.9807  2.1666 -1.9713
  521MOL0     H68726   9.471   9.735   3.160  1.1437  0.4669 -0.5118
  521MOL0     H68727   9.510   9.882   3.253  0.5082  3.7378 -0.7345
  521MOL0     H68728   9.658   9.933   3.039 -2.3788 -1.7605 -3.9712
  521MOL0     H68729   9.631   9.761   3.015 -1.1267  0.1809 -1.0413
  521MOL0     H68730   9.782   9.884   3.256 -0.0588  2.8418 -1.9129
  521MOL0     H68731   9.746   9.707   3.235 -0.7664  0.1712  0.5169
  521MOL0     H68732   9.872   9.862   3.018  1.5578  2.7725  3.0700
  521MOL0     H68733   9.898   9.686   3.054 -3.3792  0.0353  0.6998
  521MOL0     H68734  10.176   9.622   3.196 -1.0341  1.0060 -1.1702
  521MOL0     H68735  10.400   9.613   3.086 -2.2957 -2.3856 -0.3324
  521MOL0     H68736  10.663  10.134   2.908 -0.6701 -0.3650  0.2588
  521MOL0     H68737  10.880  10.190   2.851 -5.7154  0.6447  4.2498
  521MOL0     H68738  11.101   9.914   2.571 -1.1106  1.5303 -1.3121
  521MOL0     H68739  11.154   9.846   2.730  1.7336  0.9859  1.1649
  521MOL0     H68740  11.345   9.919   2.618 -2.0699 -0.1558 -3.1326
  521MOL0     H68741  11.309  10.037   2.736  1.4397 -1.2523  0.7786
  521MOL0     H68742  11.342  10.175   2.542  2.3837  0.4419 -5.1246
  521MOL0     H68743  11.175  10.127   2.499 -0.2992 -0.9110 -0.5646
  521MOL0     H68744  11.422   9.972   2.411 -0.7157 -1.8503 -1.8569
  521MOL0     H68745  11.257   9.935   2.370 -0.4037  0.9931 -0.7107
  521MOL0     H68746  11.228  10.136   2.243 -0.0565  1.8960 -0.6969
  521MOL0     H68747  11.359  10.044   2.186 -3.1630  2.1935 -1.6469
  521MOL0     H68748  11.379  10.290   2.352 -2.7929 -0.7257 -1.6916
  521MOL0     H68749  11.413  10.268   2.179 -2.6823 -1.0485 -0.1216
  521MOL0     H68750  11.584  10.140   2.399  2.1101 -0.2707 -1.1350
  521MOL0     H68751  11.592  10.130   2.231  2.2245  0.3805 -0.1249
  521MOL0     H68752  11.765  10.278   2.297  0.5142  0.1773 -1.0113
  521MOL0     H68753  11.647  10.387   2.382 -4.1144  0.1683  0.1274
  521MOL0     H68754  10.960   9.784   2.710 -0.7651 -0.9827  2.3050
  521MOL0     H68755  10.716   9.735   2.751 -1.5182  0.7093 -2.5189
  521MOL0     H68756  10.326  10.021   2.961  0.3436 -0.7424 -0.0434
  521MOL0     H68757  10.095  10.012   3.053 -0.3038 -1.1102  2.0611
  521MOL0     H68758   9.792  10.037   2.000 -0.5882  3.2055 -0.9082
  521MOL0     H68759   9.945  10.089   1.819  1.1170  1.7362 -0.7791
  521MOL0     H68760  10.256  10.330   1.675  1.5340  2.3181 -2.0013
  521MOL0     H68761  10.393  10.448   1.512 -1.3874  0.7576 -2.1509
  521MOL0     H68762  10.536  10.239   1.175 -1.9515  0.2301  1.3754
  521MOL0     H68763  10.687  10.249   1.276 -0.3874  2.9234  2.9173
  521MOL0     H68764  10.745  10.463   1.190  0.3808 -2.0922 -0.0900
  521MOL0     H68765  10.698  10.374   1.046 -0.9477 -0.4884 -0.4518
  521MOL0     H68766  10.460  10.460   1.084 -0.9160  2.8196  0.6939
  521MOL0     H68767  10.567  10.559   0.994  3.6424 -1.5830 -0.3727
  521MOL0     H68768  10.431  10.683   1.146  1.7025  3.2105  0.0102
  521MOL0     H68769  10.499  10.594   1.292  1.3232 -0.5162  0.4227
  521MOL0     H68770  10.814  10.847   1.190  1.0519 -1.4584  1.7239
  521MOL0     H68771  10.594  10.100   1.391  2.2106  5.6818 -2.3363
  521MOL0     H68772  10.485   9.976   1.577  0.7852  0.1576  0.5584
  522MOL0     O68773   2.142  11.018  10.234 -0.1784 -0.1476 -0.0306
  522MOL0     C68774   2.240  11.072  10.182  0.2035  0.4893  0.0212
  522MOL0     O68775   2.233  11.176  10.105  0.0350 -0.0935 -0.0726
  522MOL0     C68776   2.107  11.231  10.086 -0.1787  0.8803 -0.0125
  522MOL0     C68777   2.047  11.311  10.187  0.6297  1.3182  0.0334
  522MOL0     C68778   1.927  11.386  10.153 -0.7565 -0.8639  1.1731
  522MOL0     C68779   1.868  11.381  10.025 -0.4380  0.3473 -0.4880
  522MOL0     O68780   1.759  11.453   9.995 -0.2369 -0.4436  0.4901
  522MOL0     C68781   1.652  11.394  10.067  0.7168  0.1234  0.7484
  522MOL0     C68782   1.521  11.467  10.022 -0.8319 -0.1510  0.3629
  522MOL0     C68783   1.407  11.372  10.054  0.1457  0.7070 -0.2698
  522MOL0     C68784   1.268  11.439  10.028 -0.3632  0.0125  0.2148
  522MOL0     C68785   1.162  11.341  10.033  0.0126  0.9707 -0.0484
  522MOL0     C68786   1.115  11.310  10.180  0.6890  0.0275 -0.3072
  522MOL0     C68787   0.995  11.216  10.182 -0.6054 -0.2790  0.0422
  522MOL0     C68788   0.961  11.176  10.328 -0.1756  1.0481 -1.1053
  522MOL0     N68789   0.881  11.056  10.326  0.3108 -0.7864  0.1836
  522MOL0     C68790   0.777  11.036  10.232  0.3118  0.1813  0.4709
  522MOL0     C68791   0.736  10.914  10.260  0.4969 -0.1929 -0.5371
  522MOL0     C68792   0.639  10.837  10.171  0.2750 -0.3555 -0.9933
  522MOL0     C68793   0.689  10.765  10.046  0.3943 -0.8858  0.8022
  522MOL0     C68794   0.717  10.871   9.936 -0.9088 -0.4568 -0.8067
  522MOL0     C68795   0.778  10.800   9.811  1.0669 -0.6471 -0.0750
  522MOL0     O68796   0.675  10.766   9.715 -0.1454 -0.6076  1.1173
  522MOL0     C68797   0.654  10.836   9.601  0.7071 -0.9807  0.3265
  522MOL0     C68798   0.676  10.975   9.601  0.5483 -0.1453  0.2871
  522MOL0     C68799   0.656  11.037   9.473 -0.4482  0.5986 -0.0445
  522MOL0     C68800   0.613  10.965   9.356  0.8648  1.1064  0.6243
  522MOL0     C68801   0.594  11.034   9.228  0.4159 -0.2952 -0.1487
  522MOL0     O68802   0.506  10.990   9.142  0.9888  1.2188 -0.2083
  522MOL0     C68803   0.528  11.002   9.007 -0.7836 -0.2371  0.2885
  522MOL0     C68804   0.432  10.942   8.928  0.3330  0.3723  0.6195
  522MOL0     C68805   0.438  10.953   8.788 -0.2716 -1.2800 -0.4719
  522MOL0     C68806   0.537  11.017   8.719 -0.4907  0.0883  0.0776
  522MOL0     O68807   0.530  11.008   8.583 -0.3982 -0.6014 -0.0887
  522MOL0     C68808   0.654  10.997   8.513  0.0854  0.0689  0.8664
  522MOL0     C68809   0.654  11.088   8.383  0.0762  0.0663 -0.4505
  522MOL0     C68810   0.562  11.027   8.286  0.2446  0.6688 -0.5387
  522MOL0     C68811   0.575  11.086   8.148 -0.1232 -0.0225 -0.6388
  522MOL0     C68812   0.705  11.026   8.090 -0.6688 -0.5232 -0.2386
  522MOL0     C68813   0.730  11.077   7.953 -0.1847  0.1058 -0.3227
  522MOL0     C68814   0.784  11.224   7.966 -0.6062  0.7348  1.1333
  522MOL0     C68815   0.792  11.272   7.821 -0.0074 -0.7094  0.6025
  522MOL0    Cl68816   0.640  11.261   7.725 -0.0827 -0.1036 -0.1040
  522MOL0     C68817   0.647  11.065   8.786  0.2475  0.1998  0.1637
  522MOL0     C68818   0.636  11.062   8.932  0.6998 -0.8931  0.3888
  522MOL0     O68819   0.646  11.141   9.220 -0.2883 -0.7168 -0.5661
  522MOL0     C68820   0.594  10.823   9.372  0.3800  0.3571  0.2986
  522MOL0     C68821   0.616  10.765   9.494 -0.3834  0.8095 -0.1401
  522MOL0     N68822   0.811  10.861  10.368  0.2767  0.8570  0.4087
  522MOL0     N68823   0.892  10.955  10.411 -0.2418  0.3955  0.1096
  522MOL0     C68824   1.937  11.317   9.925  0.3330 -0.3015 -0.5568
  522MOL0     C68825   2.049  11.239   9.958 -0.3645  0.0065 -0.0572
  522MOL0     C68826   2.369  11.006  10.183  0.7089  0.2177  0.0123
  522MOL0     C68827   2.456  11.018  10.083  0.9575 -0.4996  1.2866
  522MOL0     C68828   2.571  10.947  10.077  0.4324  0.4860  0.1626
  522MOL0     C68829   2.598  10.862  10.185 -1.0660  0.0911  0.6750
  522MOL0     O68830   2.703  10.780  10.182  0.4678 -0.3062  0.8710
  522MOL0     C68831   2.816  10.826  10.255 -0.6871  0.2333  0.0753
  522MOL0     C68832   2.941  10.766  10.186 -0.3833 -0.2523  0.2380
  522MOL0     C68833   2.971  10.862  10.071 -0.3998  0.0444  0.2311
  522MOL0     C68834   3.115  10.842  10.016 -0.8286 -0.3386 -1.1801
  522MOL0     C68835   3.131  10.732   9.924  0.1327 -0.5540  0.2098
  522MOL0     C68836   3.143  10.666   9.819  0.1857 -0.7753 -0.6305
  522MOL0     C68837   2.518  10.850  10.290 -0.3900 -0.5366  1.1206
  522MOL0     C68838   2.399  10.925  10.292  0.6312 -0.7163 -0.2346
  522MOL0     H68839   2.077  11.315  10.291 -2.8021 -1.1682  1.3042
  522MOL0     H68840   1.877  11.458  10.217 -0.4718  1.1158 -0.7049
  522MOL0     H68841   1.662  11.400  10.175 -3.0698 -1.4688  1.3417
  522MOL0     H68842   1.635  11.289  10.043 -0.5161  0.5041 -0.1571
  522MOL0     H68843   1.523  11.508   9.921 -0.6324 -3.1117 -0.9069
  522MOL0     H68844   1.512  11.560  10.080 -1.5731  1.6461 -2.4148
  522MOL0     H68845   1.424  11.337  10.156  1.8930 -2.8300 -1.6197
  522MOL0     H68846   1.416  11.277  10.001 -0.1931  0.1321  0.6881
  522MOL0     H68847   1.252  11.519  10.101 -2.2717  0.1636 -0.3169
  522MOL0     H68848   1.271  11.483   9.928 -0.8024  1.3667  0.7758
  522MOL0     H68849   1.205  11.261   9.972  2.3624  1.2876  1.0775
  522MOL0     H68850   1.073  11.373   9.978 -0.6477 -0.0528  0.3927
  522MOL0     H68851   1.083  11.400  10.234  1.0228 -0.6819  1.1223
  522MOL0     H68852   1.196  11.264  10.237  2.2622  2.8759 -0.0561
  522MOL0     H68853   0.911  11.272  10.140 -0.7894  1.2950  2.3084
  522MOL0     H68854   1.023  11.134  10.116  2.4048 -1.1968  2.2578
  522MOL0     H68855   0.905  11.257  10.376  0.7796  1.2851 -0.3676
  522MOL0     H68856   1.045  11.151  10.393 -1.4780  2.2151  1.1633
  522MOL0     H68857   0.739  11.103  10.156 -0.5702 -0.2313  0.5399
  522MOL0     H68858   0.542  10.885  10.155 -1.2556 -2.4911  1.2362
  522MOL0     H68859   0.610  10.748  10.228  0.2718 -1.3677 -2.4959
  522MOL0     H68860   0.619  10.697   9.996  2.6815 -1.0776 -2.4964
  522MOL0     H68861   0.783  10.713  10.069 -0.7911 -2.4221  2.4061
  522MOL0     H68862   0.627  10.923   9.902 -3.7091 -2.4525  2.7889
  522MOL0     H68863   0.795  10.939   9.971 -1.3398 -1.1815  1.7787
  522MOL0     H68864   0.832  10.711   9.845 -2.9071 -2.5797  1.7362
  522MOL0     H68865   0.851  10.872   9.772  1.1415 -0.5593  0.2208
  522MOL0     H68866   0.699  11.039   9.686  2.0403  0.8693 -0.8215
  522MOL0     H68867   0.682  11.142   9.463 -0.8700  0.5647 -1.7336
  522MOL0     H68868   0.336  10.901   8.957 -0.3553  2.2750  1.1907
  522MOL0     H68869   0.349  10.914   8.739 -0.1582 -1.2399 -0.7133
  522MOL0     H68870   0.660  10.892   8.485  2.6358  0.6541 -1.1929
  522MOL0     H68871   0.751  11.012   8.562  0.1742 -2.0185  1.4298
  522MOL0     H68872   0.760  11.092   8.358 -0.2680  1.9642 -1.8203
  522MOL0     H68873   0.615  11.188   8.405 -1.7731 -0.2611 -1.9829
  522MOL0     H68874   0.455  11.031   8.310 -0.0119  2.1848 -1.8061
  522MOL0     H68875   0.594  10.923   8.271  2.0062  1.1814 -0.5320
  522MOL0     H68876   0.494  11.053   8.083 -0.8782  1.2885 -0.4033
  522MOL0     H68877   0.572  11.194   8.165 -0.7093 -0.3477  1.7554
  522MOL0     H68878   0.690  10.918   8.085  2.0908 -1.0940  1.4294
  522MOL0     H68879   0.796  11.044   8.149 -0.5497  1.2578 -0.8980
  522MOL0     H68880   0.629  11.082   7.911 -0.7659 -1.4237  0.8184
  522MOL0     H68881   0.794  11.015   7.890 -2.3652  1.3935 -4.1851
  522MOL0     H68882   0.718  11.289   8.024 -2.4905  0.2668 -0.4189
  522MOL0     H68883   0.887  11.234   8.003 -0.4457 -1.1733  1.3213
  522MOL0     H68884   0.876  11.227   7.767  3.1294  1.9681  2.8738
  522MOL0     H68885   0.821  11.375   7.842 -0.2806 -0.1223 -1.5746
  522MOL0     H68886   0.742  11.099   8.747  1.5527 -4.3307 -1.1328
  522MOL0     H68887   0.714  11.110   8.991  1.1744  0.9814 -1.6288
  522MOL0     H68888   0.568  10.766   9.283  0.4670 -0.9926  1.1217
  522MOL0     H68889   0.604  10.657   9.490  0.3679  0.7459 -2.0411
  522MOL0     H68890   1.897  11.320   9.824  0.8771  0.1232 -0.7600
  522MOL0     H68891   2.096  11.186   9.875 -0.4850  0.7972 -0.6329
  522MOL0     H68892   2.434  11.076   9.993  0.4765 -1.1465  0.9829
  522MOL0     H68893   2.652  10.947  10.005  1.7581 -1.5032  1.5406
  522MOL0     H68894   2.806  10.791  10.358 -1.2126 -2.5623 -0.8485
  522MOL0     H68895   2.826  10.933  10.275  1.8947 -0.0325  0.5530
  522MOL0     H68896   3.027  10.762  10.254  0.0365 -2.1739 -0.3386
  522MOL0     H68897   2.918  10.668  10.144  1.5790 -0.3943 -0.6305
  522MOL0     H68898   2.975  10.964  10.112  2.0393  0.2054 -0.2146
  522MOL0     H68899   2.896  10.858   9.992 -0.1389  1.0451 -0.0765
  522MOL0     H68900   3.153  10.932   9.966  2.4533 -1.7817 -1.5211
  522MOL0     H68901   3.188  10.826  10.095  1.5963 -2.5777 -3.6673
  522MOL0     H68902   3.157  10.618   9.724 -2.8503  2.2462 -2.8364
  522MOL0     H68903   2.560  10.802  10.378  1.1507 -0.3887  0.4874
  522MOL0     H68904   2.321  10.913  10.367 -3.1882  1.0675 -3.5484
  523MOL0     O68905   6.680  10.044   5.377  0.3553 -0.4853  0.3028
  523MOL0     C68906   6.688  10.027   5.497  0.2891  0.0580  0.1173
  523MOL0     O68907   6.622  10.090   5.598 -0.4816  0.3194  0.2441
  523MOL0     C68908   6.543  10.201   5.568 -0.4771 -0.4545  0.4687
  523MOL0     C68909   6.593  10.313   5.513 -0.4494 -0.6100 -0.1620
  523MOL0     C68910   6.512  10.423   5.495 -0.1031 -0.1455  1.0396
  523MOL0     C68911   6.374  10.420   5.507  0.0045 -1.2638  0.6763
  523MOL0     O68912   6.305  10.531   5.475  0.4218  0.1975  0.1091
  523MOL0     C68913   6.176  10.499   5.405 -0.0720 -0.0956  0.1961
  523MOL0     C68914   6.144  10.621   5.322 -0.3457  0.0205 -0.6379
  523MOL0     C68915   6.020  10.626   5.237  0.1208 -0.4577  0.0735
  523MOL0     C68916   6.024  10.738   5.129 -0.6379 -0.6531 -0.1450
  523MOL0     C68917   5.904  10.741   5.033  0.4168  0.6735  0.5709
  523MOL0     C68918   5.939  10.792   4.895 -0.7582  0.2470 -0.0808
  523MOL0     C68919   5.943  10.948   4.886 -0.6949 -1.0175 -0.3389
  523MOL0     C68920   6.027  11.015   4.770  0.5144  0.5952 -0.4596
  523MOL0     N68921   6.179  11.001   4.792 -0.0920 -0.7243 -0.2727
  523MOL0     C68922   6.254  11.037   4.904 -0.3892  0.0326  0.3045
  523MOL0     C68923   6.385  11.034   4.873 -0.0128 -0.4606  0.4726
  523MOL0     C68924   6.497  11.059   4.970 -0.4846 -0.1786 -0.4369
  523MOL0     C68925   6.588  10.937   4.994  0.0748  0.5675  0.3813
  523MOL0     C68926   6.505  10.811   5.049 -0.3804  0.8421  0.8023
  523MOL0     C68927   6.468  10.835   5.194 -0.4857 -0.7312  0.1939
  523MOL0     O68928   6.351  10.918   5.205 -0.4916 -0.4369  0.1799
  523MOL0     C68929   6.325  10.979   5.329 -0.2539  1.0426  0.6426
  523MOL0     C68930   6.379  10.923   5.443  0.0275 -0.3335  0.9211
  523MOL0     C68931   6.342  10.964   5.569 -0.4491  0.3790 -0.2085
  523MOL0     C68932   6.267  11.071   5.586  1.3814  0.4819  0.9911
  523MOL0     C68933   6.210  11.104   5.715  0.5130 -1.1160  0.3371
  523MOL0     O68934   6.227  11.017   5.816 -0.5362 -0.1947 -0.4045
  523MOL0     C68935   6.150  11.008   5.929  0.4295  0.0445  0.0256
  523MOL0     C68936   6.206  10.955   6.049 -0.0204  1.1942  0.8544
  523MOL0     C68937   6.130  10.928   6.158 -0.7216 -0.7052  0.8023
  523MOL0     C68938   5.995  10.932   6.154  0.4401 -1.1299 -0.1509
  523MOL0     O68939   5.929  10.884   6.270 -0.0550 -0.0420  0.3952
  523MOL0     C68940   5.783  10.911   6.272  0.6287  0.1780 -0.0985
  523MOL0     C68941   5.708  10.783   6.220 -0.9079 -0.2516  0.1764
  523MOL0     C68942   5.660  10.696   6.338 -0.1993 -0.8859  0.5127
  523MOL0     C68943   5.628  10.555   6.297 -0.5665  0.6886 -0.3738
  523MOL0     C68944   5.636  10.447   6.418 -1.3533 -0.1766 -1.0760
  523MOL0     C68945   5.508  10.476   6.505  0.2442 -0.4674  0.4496
  523MOL0     C68946   5.484  10.387   6.629 -0.9739  0.4329 -0.4625
  523MOL0     C68947   5.539  10.445   6.761 -0.4703 -0.2678 -0.5509
  523MOL0    Cl68948   5.711  10.504   6.756 -0.3332  0.3477 -0.2647
  523MOL0     C68949   5.935  10.980   6.030  0.5915 -0.0634  0.3367
  523MOL0     C68950   6.015  11.030   5.929  0.8732  0.6865 -0.6829
  523MOL0     O68951   6.145  11.214   5.720 -0.1244  0.6584 -0.0450
  523MOL0     C68952   6.219  11.134   5.471 -0.4714 -0.0818 -0.0430
  523MOL0     C68953   6.239  11.077   5.341  0.2850 -0.0085 -0.2045
  523MOL0     N68954   6.398  11.001   4.742  0.3377 -0.5147 -0.3161
  523MOL0     N68955   6.277  10.990   4.697  0.4656  0.4163 -0.2890
  523MOL0     C68956   6.323  10.301   5.558  0.5257 -0.7032 -0.2705
  523MOL0     C68957   6.406  10.193   5.588  0.3189 -0.2172  0.1921
  523MOL0     C68958   6.755   9.899   5.542 -0.3680  0.7663  0.1355
  523MOL0     C68959   6.732   9.837   5.666  0.0748 -0.3136  0.9418
  523MOL0     C68960   6.823   9.743   5.712 -0.2124 -0.8369 -0.5900
  523MOL0     C68961   6.944   9.714   5.651  0.1865 -0.3687 -0.3573
  523MOL0     O68962   7.051   9.658   5.731  1.1116 -0.1504 -0.3320
  523MOL0     C68963   7.191   9.664   5.695 -0.5632  0.8184  0.4219
  523MOL0     C68964   7.283   9.609   5.795 -0.7886  0.1319 -0.3821
  523MOL0     C68965   7.254   9.462   5.828 -0.3727  0.0183  0.8979
  523MOL0     C68966   7.360   9.398   5.931 -0.2648 -0.1987  0.3163
  523MOL0     C68967   7.352   9.473   6.064 -0.6318 -0.1842  0.2425
  523MOL0     C68968   7.307   9.531   6.163 -0.3514  0.2126 -0.7027
  523MOL0     C68969   6.958   9.768   5.519 -0.8327 -0.0966  0.6109
  523MOL0     C68970   6.865   9.859   5.467 -0.8416 -0.1609  0.1227
  523MOL0     H68971   6.697  10.313   5.483 -0.7933  1.6725 -1.6635
  523MOL0     H68972   6.558  10.519   5.475 -0.7497 -0.3985 -2.2157
  523MOL0     H68973   6.102  10.473   5.482  1.9857 -0.9170  1.9734
  523MOL0     H68974   6.194  10.419   5.334  4.6667  1.4893 -0.7276
  523MOL0     H68975   6.227  10.631   5.253  0.9400  0.6624  0.9380
  523MOL0     H68976   6.137  10.700   5.397  2.3149 -0.5272  0.2839
  523MOL0     H68977   5.931  10.638   5.298 -0.3761  0.1145 -0.7478
  523MOL0     H68978   6.001  10.527   5.195 -0.1088 -0.3982  0.0345
  523MOL0     H68979   6.022  10.837   5.174 -0.8240  0.4953 -2.5294
  523MOL0     H68980   6.118  10.726   5.074 -0.1940 -0.8743  0.6505
  523MOL0     H68981   5.818  10.801   5.065 -0.0437 -0.1354  0.8868
  523MOL0     H68982   5.879  10.635   5.018  2.5390  0.5876 -3.9382
  523MOL0     H68983   5.870  10.761   4.815  2.1006  0.4914 -2.8312
  523MOL0     H68984   6.035  10.759   4.855  2.2334  5.6864  1.6513
  523MOL0     H68985   5.844  10.990   4.864  0.7822  0.8436 -4.1675
  523MOL0     H68986   5.966  10.994   4.983  0.7629 -4.1265  0.9251
  523MOL0     H68987   5.996  11.120   4.759 -0.6884  0.2716 -0.2340
  523MOL0     H68988   6.000  10.972   4.673  1.4251  0.9847 -0.9059
  523MOL0     H68989   6.230  11.066   5.006  0.8303  1.9842  0.0959
  523MOL0     H68990   6.457  11.087   5.068  0.7446  0.8163 -0.1971
  523MOL0     H68991   6.559  11.135   4.921 -2.5907 -1.4794 -5.8355
  523MOL0     H68992   6.663  10.957   5.072 -0.0490  3.6417 -0.1633
  523MOL0     H68993   6.643  10.915   4.902 -0.7659  0.1616 -0.0347
  523MOL0     H68994   6.415  10.788   4.992 -0.3928  0.2403  1.0625
  523MOL0     H68995   6.560  10.717   5.039 -1.8120 -0.1302  1.6972
  523MOL0     H68996   6.553  10.882   5.245 -1.2540  1.4498 -0.4260
  523MOL0     H68997   6.446  10.744   5.250 -2.0246 -0.0342  0.7917
  523MOL0     H68998   6.432  10.829   5.434  2.0874  0.9150 -1.7679
  523MOL0     H68999   6.374  10.891   5.642  0.2932 -1.9660 -2.7021
  523MOL0     H69000   6.311  10.930   6.059 -0.0009  0.4990 -0.8803
  523MOL0     H69001   6.178  10.882   6.243 -0.8462  1.7853  2.3140
  523MOL0     H69002   5.749  10.995   6.210 -0.9154 -0.0934  0.3444
  523MOL0     H69003   5.747  10.934   6.373  2.5402  0.9577  0.4626
  523MOL0     H69004   5.784  10.733   6.160 -2.0287 -2.2231  0.3160
  523MOL0     H69005   5.625  10.817   6.156 -0.5799  2.5481  1.0832
  523MOL0     H69006   5.574  10.745   6.384 -2.1323 -0.4395 -3.1429
  523MOL0     H69007   5.746  10.701   6.405 -0.0804 -2.0981  0.4628
  523MOL0     H69008   5.521  10.564   6.275 -1.1111  0.5037  1.9817
  523MOL0     H69009   5.687  10.528   6.208  0.1234  2.3488 -0.4562
  523MOL0     H69010   5.733  10.458   6.467 -1.9129  2.5012 -0.4454
  523MOL0     H69011   5.632  10.347   6.374 -1.2515 -2.8428  4.1948
  523MOL0     H69012   5.424  10.454   6.438  2.1856 -1.1988 -1.8822
  523MOL0     H69013   5.514  10.583   6.527  4.6386 -0.1254 -1.5120
  523MOL0     H69014   5.379  10.365   6.650 -0.7280 -0.6016 -0.2452
  523MOL0     H69015   5.531  10.292   6.600 -0.3204  0.1005  1.5299
  523MOL0     H69016   5.527  10.363   6.833 -0.4535 -0.3539 -0.6463
  523MOL0     H69017   5.465  10.521   6.785 -2.2124 -1.7568 -0.9398
  523MOL0     H69018   5.830  10.960   6.014  0.6978 -2.2442  1.9784
  523MOL0     H69019   5.964  11.061   5.838  0.8589 -2.7710 -1.9725
  523MOL0     H69020   6.151  11.218   5.482 -2.9048 -1.8876 -0.3723
  523MOL0     H69021   6.192  11.110   5.249  1.0303 -2.4164 -1.5334
  523MOL0     H69022   6.217  10.284   5.571  0.3768  1.3170  1.5404
  523MOL0     H69023   6.355  10.099   5.607 -1.0799  0.2117 -1.2255
  523MOL0     H69024   6.652   9.873   5.730 -0.1183 -1.1152  1.1691
  523MOL0     H69025   6.817   9.707   5.814  0.7486  0.7989  0.0851
  523MOL0     H69026   7.207   9.772   5.679  0.1110  0.7485  0.6197
  523MOL0     H69027   7.204   9.619   5.596  1.1625  2.7298 -0.3067
  523MOL0     H69028   7.383   9.632   5.756 -1.3669 -2.4096 -3.7780
  523MOL0     H69029   7.264   9.658   5.891  0.1861  0.2206 -0.2253
  523MOL0     H69030   7.239   9.396   5.742 -1.0624  0.3407  0.7569
  523MOL0     H69031   7.154   9.453   5.872 -0.8741  0.3489 -0.1254
  523MOL0     H69032   7.332   9.293   5.937  0.5585 -0.6220 -1.9766
  523MOL0     H69033   7.460   9.399   5.887 -1.3997  0.8657 -2.4561
  523MOL0     H69034   7.274   9.575   6.255  0.4111 -2.7188  1.1175
  523MOL0     H69035   7.052   9.753   5.466 -0.2470  0.4497  1.4814
  523MOL0     H69036   6.900   9.917   5.382 -1.2922  0.1734  0.1654
  524MOL0     O69037   1.701   8.987   7.136  0.0146  0.2263 -0.0632
  524MOL0     C69038   1.730   9.015   7.015 -0.1746  0.5603 -0.1879
  524MOL0     O69039   1.645   8.994   6.904 -0.7402  0.2924  0.4146
  524MOL0     C69040   1.514   8.955   6.910 -0.1135 -1.0054  0.1680
  524MOL0     C69041   1.417   8.989   7.006 -0.8994  0.2245  0.8462
  524MOL0     C69042   1.287   8.961   6.976  0.0111 -0.0185  0.1755
  524MOL0     C69043   1.247   8.898   6.864  0.9411 -0.0244  0.2711
  524MOL0     O69044   1.112   8.854   6.875 -0.6060 -0.0260  0.1777
  524MOL0     C69045   1.057   8.793   6.750  0.7318  0.0860 -0.6483
  524MOL0     C69046   0.913   8.743   6.774  0.1443 -0.0243 -0.1557
  524MOL0     C69047   0.845   8.660   6.661  0.8967  0.5640  0.2331
  524MOL0     C69048   0.697   8.639   6.679  1.0302 -0.5932  0.3998
  524MOL0     C69049   0.617   8.566   6.563 -0.5623 -0.3782 -0.3230
  524MOL0     C69050   0.662   8.427   6.526 -0.8566  0.4196 -0.1452
  524MOL0     C69051   0.572   8.386   6.405 -1.2510  0.1882  0.7384
  524MOL0     C69052   0.597   8.247   6.348 -0.3026  0.5022 -0.6213
  524MOL0     N69053   0.541   8.157   6.453  1.5369  0.0419  0.4971
  524MOL0     C69054   0.615   8.081   6.543 -0.3184  0.0133  0.2997
  524MOL0     C69055   0.515   8.008   6.605  0.2137  0.4214  0.4140
  524MOL0     C69056   0.527   7.902   6.714 -0.2003 -0.9173  0.3993
  524MOL0     C69057   0.645   7.948   6.810 -0.3730 -0.8250 -0.6104
  524MOL0     C69058   0.651   7.872   6.941 -0.2730  0.3267 -0.3905
  524MOL0     C69059   0.722   7.741   6.928  0.2484 -0.7921 -0.3065
  524MOL0     O69060   0.701   7.690   7.054  0.1511  0.9627 -0.2871
  524MOL0     C69061   0.789   7.595   7.096 -0.0078  0.2406 -0.1300
  524MOL0     C69062   0.827   7.485   7.022  0.8283  0.4948 -0.8067
  524MOL0     C69063   0.914   7.391   7.080  0.0728  0.2756 -0.2778
  524MOL0     C69064   0.963   7.401   7.212  0.2231 -0.2379 -0.0299
  524MOL0     C69065   1.043   7.297   7.280  0.5301  0.1289  0.8200
  524MOL0     O69066   1.083   7.314   7.412 -0.1808  0.3935 -0.3862
  524MOL0     C69067   1.122   7.202   7.478  0.2046  0.1948  1.4850
  524MOL0     C69068   1.256   7.177   7.495  0.1090  0.7991  0.1118
  524MOL0     C69069   1.301   7.073   7.569  0.0442  0.7237 -0.8562
  524MOL0     C69070   1.217   6.981   7.635  0.0742  0.6288  0.1359
  524MOL0     O69071   1.277   6.883   7.724 -0.5449 -0.3201  0.7213
  524MOL0     C69072   1.283   6.759   7.656  0.7270  0.9212  1.1935
  524MOL0     C69073   1.413   6.740   7.584 -0.1873 -0.7696  0.7426
  524MOL0     C69074   1.535   6.730   7.677 -0.2886 -0.6180  0.0154
  524MOL0     C69075   1.663   6.741   7.607 -0.7882 -0.4034  0.3605
  524MOL0     C69076   1.781   6.718   7.699  0.0797  0.0797  0.0829
  524MOL0     C69077   1.918   6.730   7.625  1.2196  0.2919  0.9131
  524MOL0     C69078   2.031   6.738   7.720 -0.4502 -0.5100  0.2161
  524MOL0     C69079   2.171   6.727   7.651  0.0729 -0.0716 -0.2917
  524MOL0    Cl69080   2.287   6.768   7.778 -0.0829 -0.3975  0.6885
  524MOL0     C69081   1.080   7.007   7.626 -0.6062  0.2877 -0.5760
  524MOL0     C69082   1.034   7.105   7.535  0.0533 -0.6960 -0.6172
  524MOL0     O69083   1.075   7.205   7.203 -0.2035 -0.2552 -0.1020
  524MOL0     C69084   0.914   7.509   7.288  0.4031 -0.3485  1.0564
  524MOL0     C69085   0.829   7.603   7.228 -0.6182  0.3247 -0.3592
  524MOL0     N69086   0.391   8.043   6.551  0.2159  0.8065  0.3194
  524MOL0     N69087   0.407   8.134   6.464  0.4527  0.1801 -0.2840
  524MOL0     C69088   1.343   8.856   6.773 -0.6383 -0.0501  0.3903
  524MOL0     C69089   1.481   8.882   6.791  0.6521 -0.3461 -0.1434
  524MOL0     C69090   1.869   9.045   6.971  0.5022 -0.1382  0.1791
  524MOL0     C69091   1.893   9.066   6.833  0.7849  0.3888 -0.0802
  524MOL0     C69092   2.031   9.075   6.791 -0.3861 -0.0304 -0.2619
  524MOL0     C69093   2.127   9.087   6.888  0.1034 -0.0364 -0.1734
  524MOL0     O69094   2.242   9.113   6.818 -0.2886 -0.6072  0.2141
  524MOL0     C69095   2.348   9.019   6.852 -0.2561  0.1035  0.2784
  524MOL0     C69096   2.455   9.070   6.959  0.0786 -0.6847 -0.3542
  524MOL0     C69097   2.540   9.191   6.908 -0.9574 -0.8113 -0.5825
  524MOL0     C69098   2.638   9.248   7.010  0.1658  0.3019  0.3687
  524MOL0     C69099   2.708   9.136   7.075 -0.2608 -0.5672  0.2123
  524MOL0     C69100   2.781   9.051   7.128  0.4820  0.0973 -0.0367
  524MOL0     C69101   2.101   9.076   7.023 -0.2719  0.3278  0.0688
  524MOL0     C69102   1.970   9.046   7.068 -0.1666 -0.1650 -0.1846
  524MOL0     H69103   1.424   9.050   7.096  1.1711  0.8029  0.3349
  524MOL0     H69104   1.212   8.966   7.054 -0.3930  1.1714 -0.2607
  524MOL0     H69105   1.122   8.710   6.722  3.0350  1.7957 -0.6639
  524MOL0     H69106   1.035   8.863   6.669  0.4588 -1.5553 -2.0393
  524MOL0     H69107   0.858   8.831   6.807 -1.3732 -0.9652 -0.0787
  524MOL0     H69108   0.919   8.670   6.855 -1.1014  0.4298  0.3819
  524MOL0     H69109   0.889   8.560   6.652  3.6735  1.7931 -1.0854
  524MOL0     H69110   0.864   8.703   6.563  0.4030 -1.8771 -1.0128
  524MOL0     H69111   0.679   8.589   6.775 -1.2928  2.2924  1.6136
  524MOL0     H69112   0.651   8.737   6.693 -0.1086 -1.4184  3.1337
  524MOL0     H69113   0.620   8.616   6.466 -0.4666 -0.1366 -0.1964
  524MOL0     H69114   0.512   8.564   6.595 -0.3357  0.6634  0.5396
  524MOL0     H69115   0.649   8.357   6.609 -2.9012 -0.1972 -0.9253
  524MOL0     H69116   0.768   8.430   6.502 -0.4763 -0.8356  1.2508
  524MOL0     H69117   0.466   8.385   6.432 -1.8299 -2.3511 -1.1803
  524MOL0     H69118   0.584   8.469   6.335 -0.3439  2.5144  3.4685
  524MOL0     H69119   0.701   8.227   6.323 -0.8861 -0.6413 -2.3182
  524MOL0     H69120   0.531   8.242   6.261  0.1100 -0.2509 -0.8992
  524MOL0     H69121   0.723   8.083   6.547 -0.0962  4.1926 -1.8345
  524MOL0     H69122   0.561   7.808   6.669 -0.8082 -1.1264  0.3665
  524MOL0     H69123   0.431   7.896   6.765 -0.0805  1.8509  1.0695
  524MOL0     H69124   0.620   8.051   6.835 -1.9710 -0.8714 -1.8020
  524MOL0     H69125   0.742   7.937   6.759  0.8689 -2.1857  1.8846
  524MOL0     H69126   0.711   7.934   7.009 -2.8869  1.7720  0.7427
  524MOL0     H69127   0.549   7.851   6.974 -0.4873  0.7000 -0.7956
  524MOL0     H69128   0.827   7.749   6.898  0.2446 -1.2588 -0.4488
  524MOL0     H69129   0.673   7.683   6.849  0.9074 -1.0163 -0.5596
  524MOL0     H69130   0.782   7.475   6.924 -1.8073  1.8334  0.1918
  524MOL0     H69131   0.951   7.305   7.024  2.2378  1.2934 -0.5128
  524MOL0     H69132   1.324   7.241   7.439 -1.3507  0.3931 -2.2710
  524MOL0     H69133   1.407   7.054   7.579  0.2007  0.7009 -2.4548
  524MOL0     H69134   1.211   6.763   7.574  0.7015  0.6856  1.2040
  524MOL0     H69135   1.254   6.682   7.727 -1.5130  0.9450  0.3853
  524MOL0     H69136   1.429   6.821   7.513  0.9338 -0.9650  0.7607
  524MOL0     H69137   1.410   6.644   7.530  0.6190  0.4028 -1.4922
  524MOL0     H69138   1.530   6.631   7.725 -1.9790 -0.2933  0.5670
  524MOL0     H69139   1.535   6.798   7.763  1.7903 -3.1036  2.1831
  524MOL0     H69140   1.670   6.669   7.526 -0.3633  3.2334 -3.1242
  524MOL0     H69141   1.683   6.840   7.566 -2.5534  0.7054  1.9492
  524MOL0     H69142   1.776   6.625   7.757  6.4940 -0.3497  0.6352
  524MOL0     H69143   1.786   6.798   7.774  0.5107 -1.7932  2.1795
  524MOL0     H69144   1.915   6.813   7.553 -1.0681 -0.7977 -0.3743
  524MOL0     H69145   1.923   6.643   7.559  0.2988  0.8996  0.0106
  524MOL0     H69146   2.039   6.837   7.766  0.6920 -1.2824  1.7772
  524MOL0     H69147   2.019   6.659   7.794  1.3249  0.1171  1.2388
  524MOL0     H69148   2.167   6.805   7.574 -0.2452  0.4575  0.2478
  524MOL0     H69149   2.179   6.629   7.604 -3.1870 -0.4544 -0.2943
  524MOL0     H69150   1.005   6.946   7.676  1.0480  0.3551  2.1245
  524MOL0     H69151   0.928   7.118   7.515  0.4007 -1.2230 -3.0976
  524MOL0     H69152   0.932   7.519   7.395  1.3453 -0.0641  0.8782
  524MOL0     H69153   0.775   7.682   7.279 -0.6370 -0.6437  1.1735
  524MOL0     H69154   1.313   8.796   6.687  0.1890 -1.2195  0.8944
  524MOL0     H69155   1.558   8.865   6.716 -0.2338 -0.1148 -1.1216
  524MOL0     H69156   1.821   9.076   6.752  0.5681  0.4944  0.1251
  524MOL0     H69157   2.062   9.087   6.688  0.7556 -2.4902 -0.2857
  524MOL0     H69158   2.407   8.978   6.769 -0.2015 -1.9660  1.2860
  524MOL0     H69159   2.303   8.934   6.905 -2.3387  0.2946 -1.0574
  524MOL0     H69160   2.404   9.083   7.054  0.2003 -0.8451 -0.2663
  524MOL0     H69161   2.519   8.982   6.977 -1.4760 -1.9948 -0.9942
  524MOL0     H69162   2.480   9.277   6.878  0.8183  1.0273  0.8951
  524MOL0     H69163   2.590   9.158   6.816 -1.0775 -0.6057 -0.7220
  524MOL0     H69164   2.715   9.299   6.952  1.1993 -2.4740 -0.9028
  524MOL0     H69165   2.591   9.327   7.069  0.0787 -0.7069  1.7256
  524MOL0     H69166   2.844   8.980   7.178  1.7504  1.3277  0.1952
  524MOL0     H69167   2.187   9.081   7.088  2.0006  0.2585 -2.7487
  524MOL0     H69168   1.953   9.043   7.176  2.7413 -0.6557  0.3410
  525MOL0     O69169   4.911   5.491   9.454  0.0059 -0.1704  1.0096
  525MOL0     C69170   4.980   5.427   9.375  0.0603 -0.9870 -0.4754
  525MOL0     O69171   4.944   5.385   9.246 -0.0043 -0.5020 -0.3423
  525MOL0     C69172   4.814   5.393   9.209  0.9866 -1.5316 -0.4688
  525MOL0     C69173   4.710   5.322   9.264  0.5214  0.5939 -0.5879
  525MOL0     C69174   4.575   5.326   9.222 -0.5629 -0.1701 -0.2805
  525MOL0     C69175   4.534   5.422   9.127  0.0159 -0.5749 -0.8150
  525MOL0     O69176   4.401   5.423   9.100  0.5863 -0.1363  0.1744
  525MOL0     C69177   4.355   5.511   8.994 -0.4136  0.2412 -0.2428
  525MOL0     C69178   4.212   5.474   8.948  0.3427  0.2466 -0.2084
  525MOL0     C69179   4.113   5.441   9.055 -0.4606 -0.1776 -1.0338
  525MOL0     C69180   3.976   5.402   9.003 -1.5938 -0.2130 -0.3815
  525MOL0     C69181   3.958   5.257   8.987 -0.0103 -0.4004 -0.1029
  525MOL0     C69182   3.812   5.222   8.953 -0.2670 -0.0487 -0.3717
  525MOL0     C69183   3.796   5.065   8.952 -0.0292 -0.0170 -0.8277
  525MOL0     C69184   3.657   5.033   8.889 -0.6870 -0.0951 -0.3824
  525MOL0     N69185   3.540   5.097   8.966 -0.3971 -0.2178  0.5354
  525MOL0     C69186   3.417   5.114   8.901 -0.3782 -0.8738 -0.6265
  525MOL0     C69187   3.330   5.126   9.004  0.3154 -0.2311 -0.3670
  525MOL0     C69188   3.183   5.178   8.982  0.2283  0.0833  1.3780
  525MOL0     C69189   3.106   5.076   8.903  0.2934 -0.0064 -0.0313
  525MOL0     C69190   2.949   5.087   8.882 -0.1447  0.0836 -0.4185
  525MOL0     C69191   2.909   5.205   8.797 -0.0940  0.8498 -0.2449
  525MOL0     O69192   2.772   5.244   8.845 -0.7898 -0.1467  0.0290
  525MOL0     C69193   2.664   5.167   8.819  0.7150  0.3198 -0.6169
  525MOL0     C69194   2.543   5.199   8.888 -0.5183 -0.3070  0.1927
  525MOL0     C69195   2.425   5.134   8.869  0.3416 -0.4227 -0.2784
  525MOL0     C69196   2.416   5.035   8.763 -0.4341  0.3923  0.2269
  525MOL0     C69197   2.279   4.974   8.731 -0.3603 -0.6638 -1.4240
  525MOL0     O69198   2.173   5.032   8.786  0.1470  0.1156 -0.3588
  525MOL0     C69199   2.043   4.994   8.753  0.1562 -0.8654  0.2348
  525MOL0     C69200   2.003   4.931   8.633 -0.3029  1.0320 -0.0105
  525MOL0     C69201   1.874   4.924   8.596 -0.0805 -0.5556 -0.2309
  525MOL0     C69202   1.773   4.972   8.677 -0.3957  0.6273  0.0462
  525MOL0     O69203   1.637   4.967   8.654 -0.0483 -0.4261  0.2103
  525MOL0     C69204   1.584   4.839   8.646 -0.1592 -0.2188 -0.2710
  525MOL0     C69205   1.442   4.857   8.674  0.7034  0.1000  0.4060
  525MOL0     C69206   1.416   4.924   8.803 -0.2554  0.7339  0.8378
  525MOL0     C69207   1.273   4.888   8.855 -0.0986  0.7883 -0.3270
  525MOL0     C69208   1.249   4.952   8.992 -0.0734  0.6641  1.1390
  525MOL0     C69209   1.127   5.038   8.994 -0.3510  0.1188  0.4354
  525MOL0     C69210   1.001   4.941   9.007  0.3313  0.8923  0.0510
  525MOL0     C69211   0.864   5.018   9.000 -0.1022 -0.2582  0.8341
  525MOL0    Cl69212   0.868   5.165   9.096  0.4022 -0.8250 -0.5099
  525MOL0     C69213   1.814   5.031   8.795  1.0816 -0.1191 -0.3240
  525MOL0     C69214   1.946   5.042   8.839  0.6319 -0.1062 -0.1777
  525MOL0     O69215   2.284   4.873   8.670  0.6826 -0.4511 -0.4575
  525MOL0     C69216   2.537   5.005   8.696  0.3129 -0.3067  0.1698
  525MOL0     C69217   2.656   5.069   8.727  1.0266 -0.2568 -0.0702
  525MOL0     N69218   3.391   5.111   9.124 -0.8713 -0.8350 -0.1190
  525MOL0     N69219   3.515   5.090   9.102  0.1842 -0.8757  0.0824
  525MOL0     C69220   4.639   5.502   9.070 -0.1509  0.1946  0.0250
  525MOL0     C69221   4.776   5.481   9.107 -0.3691 -0.6653 -0.3158
  525MOL0     C69222   5.118   5.413   9.423 -0.6005  0.1290  0.4503
  525MOL0     C69223   5.212   5.365   9.326  0.5656 -0.0596 -0.0268
  525MOL0     C69224   5.344   5.346   9.378  0.2555 -0.1304 -0.1970
  525MOL0     C69225   5.376   5.366   9.505 -0.5954  1.1288 -0.7189
  525MOL0     O69226   5.513   5.353   9.536  0.2510  0.2433  0.9995
  525MOL0     C69227   5.555   5.405   9.659 -0.4744  0.5439 -0.0299
  525MOL0     C69228   5.703   5.404   9.649 -0.1062  0.2087  0.0325
  525MOL0     C69229   5.756   5.496   9.536  0.2775  0.3711  0.4653
  525MOL0     C69230   5.899   5.540   9.547  0.0874 -1.3998  0.3075
  525MOL0     C69231   5.995   5.438   9.517 -0.0806 -0.4934 -0.8387
  525MOL0     C69232   6.063   5.346   9.482 -0.1700  0.3995  1.1585
  525MOL0     C69233   5.279   5.409   9.597 -0.2841 -0.6241  0.9097
  525MOL0     C69234   5.155   5.445   9.548 -0.4788  0.0980 -0.1869
  525MOL0     H69235   4.736   5.237   9.326 -2.5919 -2.3762 -2.9452
  525MOL0     H69236   4.515   5.255   9.278  1.2875 -0.3456  1.6272
  525MOL0     H69237   4.424   5.502   8.910  1.0724 -1.5517  1.0765
  525MOL0     H69238   4.355   5.605   9.051 -2.4502  0.2166 -0.1582
  525MOL0     H69239   4.221   5.390   8.879 -0.3297  0.5682 -0.6943
  525MOL0     H69240   4.179   5.550   8.877 -0.9169 -1.2789 -1.3426
  525MOL0     H69241   4.098   5.519   9.131  0.9267 -1.1237  0.2759
  525MOL0     H69242   4.158   5.362   9.117 -1.8362 -0.7228 -0.6864
  525MOL0     H69243   3.902   5.441   9.074 -2.5692 -2.2835 -0.2040
  525MOL0     H69244   3.939   5.445   8.909 -1.8934  0.3023 -0.0408
  525MOL0     H69245   3.986   5.207   9.080 -1.0476 -2.3049 -0.7592
  525MOL0     H69246   4.038   5.217   8.924  2.0187  0.9993  1.4413
  525MOL0     H69247   3.807   5.254   8.848  3.0690  1.4593 -0.1961
  525MOL0     H69248   3.750   5.265   9.032 -2.1079 -1.0638 -1.1810
  525MOL0     H69249   3.889   5.019   8.917  0.4920  0.5166 -0.1609
  525MOL0     H69250   3.796   5.025   9.054  1.5610 -1.2345 -1.2661
  525MOL0     H69251   3.646   4.925   8.905  0.3728 -0.2758 -0.8176
  525MOL0     H69252   3.656   5.056   8.782 -1.6352 -4.0523 -1.3968
  525MOL0     H69253   3.403   5.108   8.793 -0.1686  0.7624 -0.7738
  525MOL0     H69254   3.175   5.272   8.926 -3.7373  0.6858  2.6337
  525MOL0     H69255   3.143   5.179   9.084 -3.2148 -1.7564  0.2283
  525MOL0     H69256   3.110   4.984   8.962  0.0502  0.8642  1.3772
  525MOL0     H69257   3.149   5.051   8.805 -0.6908  1.1035 -0.7817
  525MOL0     H69258   2.911   4.994   8.838 -0.1602 -0.6900  1.1576
  525MOL0     H69259   2.910   5.092   8.984  1.1840 -1.6911  0.2276
  525MOL0     H69260   2.924   5.172   8.694 -3.2401  2.3649 -1.3290
  525MOL0     H69261   2.972   5.293   8.806 -0.7930  1.8054 -3.4657
  525MOL0     H69262   2.556   5.284   8.955  0.2386  0.4792 -0.9135
  525MOL0     H69263   2.340   5.168   8.927  1.5885 -1.6789  2.4248
  525MOL0     H69264   2.073   4.890   8.560 -0.4623  2.5974 -1.0943
  525MOL0     H69265   1.847   4.894   8.495  1.2092  3.4582 -1.9741
  525MOL0     H69266   1.621   4.762   8.715 -1.5626 -1.5266 -0.9016
  525MOL0     H69267   1.586   4.794   8.547 -2.4666  0.8577 -0.8566
  525MOL0     H69268   1.391   4.762   8.689  0.9293  0.1147  1.2778
  525MOL0     H69269   1.395   4.899   8.584 -0.2155 -2.7492 -0.5423
  525MOL0     H69270   1.427   5.032   8.793 -2.2040  0.9628  0.8792
  525MOL0     H69271   1.492   4.897   8.877  1.0732  4.1535  0.9033
  525MOL0     H69272   1.193   4.917   8.786  1.2002  2.3491 -1.2669
  525MOL0     H69273   1.258   4.781   8.868 -2.2563  0.7785 -2.2962
  525MOL0     H69274   1.321   5.033   9.003 -0.3387  1.4574 -1.8372
  525MOL0     H69275   1.246   4.884   9.077 -0.1716 -1.5811 -0.5775
  525MOL0     H69276   1.125   5.107   8.909  3.2906  2.5244  2.0533
  525MOL0     H69277   1.121   5.097   9.086 -1.6823 -0.2810  0.6242
  525MOL0     H69278   1.005   4.869   8.925  1.2456 -0.1445  0.9575
  525MOL0     H69279   0.998   4.887   9.103  1.3788 -1.0362 -0.9378
  525MOL0     H69280   0.771   4.965   9.023 -1.1247  0.3193 -1.6570
  525MOL0     H69281   0.843   5.054   8.899  2.9224  0.0790  0.2245
  525MOL0     H69282   1.742   5.085   8.856  2.1092 -0.8753  1.6452
  525MOL0     H69283   1.974   5.061   8.942  1.5342  1.6913 -0.7252
  525MOL0     H69284   2.545   4.922   8.627  1.0018 -0.5274  0.5109
  525MOL0     H69285   2.752   5.044   8.682  2.3084  1.1716  1.6801
  525MOL0     H69286   4.628   5.586   9.002  2.7175 -0.2315 -1.0649
  525MOL0     H69287   4.864   5.525   9.061 -0.5065  2.0305  1.7135
  525MOL0     H69288   5.183   5.351   9.222  0.6374  1.9849 -0.3750
  525MOL0     H69289   5.417   5.300   9.313  0.0574 -0.6808 -0.0389
  525MOL0     H69290   5.520   5.335   9.735 -2.5535 -3.2055 -4.0349
  525MOL0     H69291   5.528   5.511   9.671  0.8148  0.7838  1.0291
  525MOL0     H69292   5.739   5.427   9.750 -2.3102 -1.7713  1.3801
  525MOL0     H69293   5.742   5.304   9.628  3.2088  1.8691 -2.6509
  525MOL0     H69294   5.704   5.592   9.543 -1.1893 -0.2306 -1.5614
  525MOL0     H69295   5.735   5.452   9.438 -2.1382  1.2082  0.5411
  525MOL0     H69296   5.914   5.608   9.462 -0.9496 -1.1962  0.2711
  525MOL0     H69297   5.917   5.596   9.639 -0.0953  0.6764 -0.8494
  525MOL0     H69298   6.097   5.259   9.429 -0.6427  1.0258 -0.2272
  525MOL0     H69299   5.295   5.446   9.698  0.3789 -1.6093  1.1754
  525MOL0     H69300   5.102   5.509   9.616 -0.7311  0.8085 -1.0324
  526MOL0     O69301   1.813   5.031   5.058 -0.4721 -0.7235 -1.0838
  526MOL0     C69302   1.826   4.924   5.011 -0.3186 -0.4374  0.2050
  526MOL0     O69303   1.725   4.834   5.001 -0.5596 -0.4937  0.4105
  526MOL0     C69304   1.601   4.880   5.013 -0.5656 -1.0424  0.9636
  526MOL0     C69305   1.511   4.857   4.913  0.8222  0.3998 -0.3410
  526MOL0     C69306   1.375   4.899   4.912 -1.2859  0.4217 -0.4426
  526MOL0     C69307   1.338   4.985   5.020 -0.4770  0.1632  0.0199
  526MOL0     O69308   1.207   5.029   5.041  0.2823 -0.2977  0.1817
  526MOL0     C69309   1.098   4.999   4.948 -0.3520  0.0273 -0.4861
  526MOL0     C69310   0.971   5.035   5.034  0.1892 -0.3995 -0.4644
  526MOL0     C69311   0.983   5.174   5.107 -0.5748 -0.0357 -0.4493
  526MOL0     C69312   0.875   5.192   5.212 -0.0215 -0.2677  0.6043
  526MOL0     C69313   0.883   5.335   5.272  0.5965 -0.7283 -0.0863
  526MOL0     C69314   1.010   5.362   5.366  0.8006  1.1570  0.2674
  526MOL0     C69315   0.990   5.491   5.446 -0.1830  0.1168  0.4274
  526MOL0     C69316   0.949   5.627   5.371  0.3505  0.1735  0.0533
  526MOL0     N69317   1.054   5.650   5.277 -0.8004  0.5897  0.1144
  526MOL0     C69318   1.158   5.736   5.285 -0.3286 -0.4221  0.0556
  526MOL0     C69319   1.214   5.751   5.173 -0.4670  0.3649  0.0974
  526MOL0     C69320   1.331   5.843   5.140 -0.6215 -0.2104  0.4486
  526MOL0     C69321   1.462   5.825   5.230 -0.3545  0.6975 -0.6146
  526MOL0     C69322   1.581   5.749   5.166 -0.0367 -0.7687  0.8305
  526MOL0     C69323   1.639   5.800   5.021  0.4633 -0.0982  0.8721
  526MOL0     O69324   1.767   5.865   5.041 -0.5504 -0.4591 -0.2954
  526MOL0     C69325   1.881   5.798   5.051  0.3552  0.1074 -1.2435
  526MOL0     C69326   1.884   5.666   5.084 -0.4559 -0.4300 -0.5371
  526MOL0     C69327   1.996   5.585   5.094  0.1125 -0.5081 -0.8280
  526MOL0     C69328   2.117   5.640   5.063 -0.3350  0.1379 -0.0570
  526MOL0     C69329   2.243   5.558   5.045 -1.0580  0.1557 -0.2449
  526MOL0     O69330   2.245   5.429   5.073 -0.9441  0.0464 -0.0889
  526MOL0     C69331   2.362   5.354   5.080  0.2959  0.4023 -0.6137
  526MOL0     C69332   2.397   5.263   4.971  0.0103  0.4723 -0.1633
  526MOL0     C69333   2.515   5.190   4.979  0.1041 -0.0760 -0.1645
  526MOL0     C69334   2.605   5.206   5.082  0.0097 -0.4199 -0.8336
  526MOL0     O69335   2.724   5.143   5.088 -0.1010  0.1258  0.0129
  526MOL0     C69336   2.816   5.155   4.973 -0.1915  1.2094  0.7944
  526MOL0     C69337   2.861   5.294   4.943 -0.2886 -0.4746  0.6397
  526MOL0     C69338   2.960   5.302   4.819  0.4941  0.3029 -0.6562
  526MOL0     C69339   3.099   5.254   4.859  0.5353 -0.1105  0.5644
  526MOL0     C69340   3.186   5.265   4.740 -0.6718  0.8520  0.4473
  526MOL0     C69341   3.308   5.168   4.720  0.7380  0.3257 -0.1445
  526MOL0     C69342   3.430   5.224   4.800 -0.0953 -0.3733 -0.0292
  526MOL0     C69343   3.529   5.110   4.831  0.2098 -0.5158 -0.2264
  526MOL0    Cl69344   3.585   5.020   4.692 -0.2640  0.2329 -0.3255
  526MOL0     C69345   2.564   5.285   5.192 -1.1673 -1.1588  0.4105
  526MOL0     C69346   2.445   5.355   5.188  0.6139 -0.1536 -0.3704
  526MOL0     O69347   2.342   5.625   5.006  0.5643 -0.4777  0.5230
  526MOL0     C69348   2.122   5.780   5.052  0.0835 -0.6996 -0.4168
  526MOL0     C69349   2.007   5.856   5.048 -0.4438 -0.2437 -0.2662
  526MOL0     N69350   1.158   5.668   5.082 -0.3357 -0.2117 -0.2191
  526MOL0     N69351   1.059   5.607   5.146  0.1036  0.2616 -0.1986
  526MOL0     C69352   1.432   5.013   5.122 -0.7724 -0.1690 -0.1597
  526MOL0     C69353   1.559   4.952   5.115  0.9026  0.8436  0.0177
  526MOL0     C69354   1.961   4.884   4.955  0.0216 -0.1729 -0.4930
  526MOL0     C69355   1.983   4.751   4.925 -0.1452 -0.5008  0.1490
  526MOL0     C69356   2.111   4.721   4.861  0.8973 -0.6978  0.8708
  526MOL0     C69357   2.205   4.817   4.832  0.4479 -0.0505  0.1655
  526MOL0     O69358   2.318   4.794   4.761  0.5371  0.9924 -0.3799
  526MOL0     C69359   2.385   4.664   4.773  0.3517 -0.2257  0.0496
  526MOL0     C69360   2.526   4.657   4.718 -0.5292 -1.3006  0.2185
  526MOL0     C69361   2.611   4.766   4.779 -0.7254 -0.5694  0.6194
  526MOL0     C69362   2.742   4.785   4.693  0.2870  0.0910 -0.3114
  526MOL0     C69363   2.761   4.926   4.648  0.7268 -0.3777  0.5806
  526MOL0     C69364   2.774   5.034   4.609 -0.5778  0.4895 -1.0176
  526MOL0     C69365   2.190   4.942   4.887  1.5887  0.6476 -0.3269
  526MOL0     C69366   2.067   4.982   4.943 -0.1102  0.4019  0.3704
  526MOL0     H69367   1.541   4.795   4.829  3.1606  1.7557 -0.5867
  526MOL0     H69368   1.303   4.848   4.849 -1.3208 -1.4850  1.0484
  526MOL0     H69369   1.102   4.896   4.913  0.5723 -0.0565 -0.1716
  526MOL0     H69370   1.103   5.075   4.869  0.0644  0.7634  0.2311
  526MOL0     H69371   0.962   4.966   5.119  3.2346  2.1391  2.1830
  526MOL0     H69372   0.875   5.021   4.983 -0.9005 -2.3659  1.8933
  526MOL0     H69373   0.979   5.260   5.040 -0.6997  0.7524  0.5485
  526MOL0     H69374   1.084   5.179   5.149  0.7269  0.0789 -3.3099
  526MOL0     H69375   0.776   5.185   5.166  0.4093  0.2328 -0.4447
  526MOL0     H69376   0.892   5.114   5.287  1.5746 -0.4894  0.0464
  526MOL0     H69377   0.810   5.346   5.353  1.9163 -1.3591  1.2409
  526MOL0     H69378   0.882   5.413   5.195  2.9342 -1.1111 -0.5918
  526MOL0     H69379   1.091   5.375   5.293 -2.2522  0.2986 -3.6617
  526MOL0     H69380   1.037   5.284   5.437  3.3065  2.8071  1.2267
  526MOL0     H69381   0.908   5.472   5.515 -2.2266  0.5652 -1.7695
  526MOL0     H69382   1.087   5.498   5.497 -0.7063 -2.5644  1.9826
  526MOL0     H69383   0.934   5.717   5.431 -0.2220  0.8399 -1.0402
  526MOL0     H69384   0.854   5.605   5.321 -0.8472  1.2769  1.7407
  526MOL0     H69385   1.175   5.793   5.375  3.1758 -2.0529  0.6013
  526MOL0     H69386   1.305   5.949   5.156  1.0253  0.4633 -0.9957
  526MOL0     H69387   1.365   5.842   5.036  2.6485 -1.9212  1.4039
  526MOL0     H69388   1.442   5.772   5.324  0.7608  0.1989 -0.6512
  526MOL0     H69389   1.492   5.927   5.257 -1.4920  0.7793  0.4654
  526MOL0     H69390   1.666   5.772   5.231  0.3289 -1.4525  0.6017
  526MOL0     H69391   1.558   5.642   5.165 -1.7346 -0.4318 -0.0998
  526MOL0     H69392   1.581   5.879   4.973  0.6992  0.1166  0.9382
  526MOL0     H69393   1.661   5.713   4.959  6.9649  2.0796 -0.6551
  526MOL0     H69394   1.796   5.605   5.101  1.5075 -2.8734  1.5524
  526MOL0     H69395   1.997   5.486   5.139  0.0415  0.1669  0.7138
  526MOL0     H69396   2.329   5.248   4.888  0.6924  2.8644 -1.2409
  526MOL0     H69397   2.547   5.130   4.895  0.4227  0.5095 -0.4608
  526MOL0     H69398   2.778   5.107   4.882  4.8207  0.4336 -1.2225
  526MOL0     H69399   2.903   5.091   4.994 -0.1752  1.3747  1.2340
  526MOL0     H69400   2.902   5.348   5.028 -0.4239  1.7848 -0.6519
  526MOL0     H69401   2.767   5.345   4.918 -0.6340 -1.7590 -0.9466
  526MOL0     H69402   2.966   5.407   4.789  0.1670  0.8254  1.0178
  526MOL0     H69403   2.920   5.237   4.741 -0.3331  0.0629 -0.0486
  526MOL0     H69404   3.145   5.311   4.940 -0.2695  0.1401  0.8487
  526MOL0     H69405   3.096   5.149   4.889 -0.2807 -0.2550  0.0016
  526MOL0     H69406   3.232   5.364   4.740  3.7491 -0.9089  1.3091
  526MOL0     H69407   3.124   5.255   4.651 -2.1284 -2.5667  1.6780
  526MOL0     H69408   3.331   5.169   4.613 -0.9626  0.4034 -0.5291
  526MOL0     H69409   3.281   5.065   4.745  3.1695 -0.3181  0.0678
  526MOL0     H69410   3.471   5.302   4.735 -1.8054 -1.1101 -2.1176
  526MOL0     H69411   3.402   5.275   4.893  3.5401  0.0025  1.0426
  526MOL0     H69412   3.471   5.030   4.878  1.1635 -2.7412 -2.6173
  526MOL0     H69413   3.600   5.151   4.904 -0.1015 -2.4054  1.2212
  526MOL0     H69414   2.636   5.307   5.270 -0.0623  0.3791 -0.9841
  526MOL0     H69415   2.397   5.417   5.263 -1.3656  0.3457 -1.9319
  526MOL0     H69416   2.215   5.826   5.021 -0.2461  2.1505  2.3184
  526MOL0     H69417   2.006   5.962   5.023  1.3754 -0.3707 -0.9837
  526MOL0     H69418   1.404   5.076   5.206  2.3481 -1.3707  1.9797
  526MOL0     H69419   1.627   4.965   5.199  0.5829  1.7425  0.1546
  526MOL0     H69420   1.910   4.672   4.941 -0.8947  0.3648  1.2104
  526MOL0     H69421   2.125   4.617   4.835 -0.0433 -0.8148  0.8038
  526MOL0     H69422   2.328   4.587   4.719  1.1557 -1.4175  0.8589
  526MOL0     H69423   2.384   4.630   4.877 -0.9295 -0.9021 -0.1609
  526MOL0     H69424   2.570   4.561   4.747  3.3736  0.2181 -0.0586
  526MOL0     H69425   2.517   4.662   4.609  0.6855 -0.4087  0.1476
  526MOL0     H69426   2.634   4.742   4.883  0.7975  2.0129  0.9579
  526MOL0     H69427   2.547   4.855   4.787  2.6379  2.0473  0.4046
  526MOL0     H69428   2.829   4.749   4.749 -0.2033  0.5325  0.7572
  526MOL0     H69429   2.733   4.715   4.609  1.1459 -1.2733  0.6948
  526MOL0     H69430   2.800   5.135   4.583  2.6393  0.8609  2.7129
  526MOL0     H69431   2.263   5.021   4.888  1.3449  0.8785  0.3776
  526MOL0     H69432   2.046   5.084   4.973  2.3296  0.6014  1.6266
  527MOL0     O69433   7.658   5.027   9.017 -0.8402 -0.3615 -0.7359
  527MOL0     C69434   7.560   4.968   9.055  0.4047  0.8163 -0.3862
  527MOL0     O69435   7.557   4.836   9.089 -0.1694  0.3533 -0.1695
  527MOL0     C69436   7.672   4.767   9.088 -0.3790  0.5613 -0.8277
  527MOL0     C69437   7.801   4.800   9.153  0.7135 -0.2191 -0.2250
  527MOL0     C69438   7.903   4.717   9.144  0.7039 -0.5808  0.7282
  527MOL0     C69439   7.890   4.593   9.093 -0.3767 -0.1368 -0.3040
  527MOL0     O69440   8.004   4.517   9.098  0.6334  0.2144  0.3982
  527MOL0     C69441   8.003   4.375   9.116  0.2880  0.1139  0.5469
  527MOL0     C69442   8.147   4.337   9.131  0.7160  0.2203 -0.0498
  527MOL0     C69443   8.152   4.187   9.121 -0.7073 -0.1960  0.4869
  527MOL0     C69444   8.297   4.141   9.105  0.2722 -0.5077 -0.2953
  527MOL0     C69445   8.312   3.999   9.108  0.1561 -0.2668 -0.2159
  527MOL0     C69446   8.458   3.965   9.102  0.3258  0.2561 -1.3771
  527MOL0     C69447   8.476   3.819   9.130  0.4526  0.3113  0.0515
  527MOL0     C69448   8.622   3.788   9.185 -0.0627  0.1018 -0.2077
  527MOL0     N69449   8.629   3.664   9.270  0.4618 -0.0110 -0.2497
  527MOL0     C69450   8.629   3.664   9.414  0.1749 -0.1641  0.6884
  527MOL0     C69451   8.674   3.538   9.434  0.4703 -0.1103 -0.5286
  527MOL0     C69452   8.718   3.495   9.577 -0.0062  0.8165 -0.1820
  527MOL0     C69453   8.874   3.501   9.603 -0.0877 -0.3118  0.1302
  527MOL0     C69454   8.898   3.554   9.746 -0.3983  0.1234 -0.2900
  527MOL0     C69455   9.040   3.547   9.794 -0.3849  0.3707  0.4692
  527MOL0     O69456   9.059   3.648   9.882  0.8473 -0.5404 -0.0068
  527MOL0     C69457   9.166   3.641   9.956 -0.6574 -0.2262 -0.1578
  527MOL0     C69458   9.211   3.525  10.021 -0.7788  0.0465  0.2914
  527MOL0     C69459   9.337   3.521  10.079  0.0645 -0.4750  0.2826
  527MOL0     C69460   9.424   3.637  10.085  1.4692  0.2376 -0.5047
  527MOL0     C69461   9.565   3.625  10.139  0.0524 -0.4285 -0.2532
  527MOL0     O69462   9.646   3.728  10.105 -0.0489  0.6454 -0.7029
  527MOL0     C69463   9.771   3.726  10.158 -0.3643  0.0200 -0.8206
  527MOL0     C69464   9.816   3.819  10.259  0.3935 -0.3673  0.1232
  527MOL0     C69465   9.947   3.817  10.309 -0.3050 -0.0243 -0.3646
  527MOL0     C69466  10.033   3.718  10.272 -0.6741  0.4978  0.5915
  527MOL0     O69467  10.159   3.727  10.322  0.5157  0.1808  0.5662
  527MOL0     C69468  10.234   3.597  10.314  0.7696 -0.0511  0.0175
  527MOL0     C69469  10.348   3.590  10.410  0.3778 -0.0262  0.7498
  527MOL0     C69470  10.448   3.707  10.406 -0.9620 -0.0897  0.7315
  527MOL0     C69471  10.496   3.740  10.261  0.2456  0.0142 -0.5216
  527MOL0     C69472  10.564   3.628  10.189  0.3906  0.6470  0.6158
  527MOL0     C69473  10.691   3.567  10.236 -0.3916 -0.1673  0.1601
  527MOL0     C69474  10.808   3.662  10.223 -0.1089 -0.8730 -0.3716
  527MOL0     C69475  10.943   3.621  10.269 -0.8962  0.4098 -0.1752
  527MOL0    Cl69476  10.990   3.474  10.173  0.4152  0.4426  0.5265
  527MOL0     C69477   9.995   3.620  10.175 -0.4996  0.3928 -0.1795
  527MOL0     C69478   9.866   3.632  10.114 -0.6670  0.0127 -0.2730
  527MOL0     O69479   9.599   3.522  10.199  0.2213  0.5667 -0.2366
  527MOL0     C69480   9.372   3.744  10.019 -0.9209 -1.0498 -0.2599
  527MOL0     C69481   9.248   3.747   9.958 -0.1671 -0.4528  0.6115
  527MOL0     N69482   8.691   3.459   9.321 -1.1880 -0.5074 -0.3454
  527MOL0     N69483   8.666   3.539   9.221  0.0840 -0.3598  0.6303
  527MOL0     C69484   7.765   4.557   9.034 -0.9966  0.4224 -0.2172
  527MOL0     C69485   7.650   4.640   9.036 -0.0955 -1.0196  0.2686
  527MOL0     C69486   7.441   5.046   9.093  0.0487 -0.6055 -1.2208
  527MOL0     C69487   7.425   5.188   9.062 -0.2207  0.0782  0.7489
  527MOL0     C69488   7.309   5.259   9.089  0.8879 -0.3109  0.4179
  527MOL0     C69489   7.205   5.194   9.164 -0.9354 -0.6934 -0.1526
  527MOL0     O69490   7.095   5.269   9.198  0.3284 -0.0433 -1.2217
  527MOL0     C69491   6.985   5.212   9.273  1.2580 -0.0101  0.1444
  527MOL0     C69492   6.860   5.296   9.301 -0.3215  0.4917 -0.2119
  527MOL0     C69493   6.885   5.419   9.384  0.1150 -0.0730  0.2726
  527MOL0     C69494   6.805   5.546   9.354 -0.1251 -0.3597  0.5651
  527MOL0     C69495   6.661   5.513   9.368  0.2496 -0.5376 -0.2218
  527MOL0     C69496   6.540   5.491   9.370 -0.5901 -0.2780  0.1042
  527MOL0     C69497   7.223   5.054   9.197  0.1658 -0.2701  0.7155
  527MOL0     C69498   7.334   4.984   9.164 -0.0511  0.3538  0.1216
  527MOL0     H69499   7.821   4.888   9.213  0.0244  0.0775 -0.4204
  527MOL0     H69500   8.001   4.742   9.183  1.0143 -0.5252 -0.0688
  527MOL0     H69501   7.946   4.321   9.039 -0.5997 -1.7554  2.3987
  527MOL0     H69502   7.943   4.342   9.202 -0.7644  1.0549  0.2110
  527MOL0     H69503   8.189   4.357   9.230 -3.2888  0.8638  1.7068
  527MOL0     H69504   8.208   4.368   9.045  2.3592  0.0444  0.9959
  527MOL0     H69505   8.093   4.151   9.036  0.8649  1.2775 -1.3119
  527MOL0     H69506   8.121   4.145   9.217  3.1092  0.4535  2.1778
  527MOL0     H69507   8.330   4.170   9.004  2.8103 -2.2836 -0.0627
  527MOL0     H69508   8.355   4.201   9.175  2.0853 -1.7743 -0.6432
  527MOL0     H69509   8.250   3.958   9.027  0.8814  0.2405 -1.0392
  527MOL0     H69510   8.268   3.967   9.203 -2.5606 -0.3578 -1.4027
  527MOL0     H69511   8.515   4.025   9.172 -2.1113  2.4881 -1.1438
  527MOL0     H69512   8.494   3.992   9.002  0.9069 -1.1928 -1.5900
  527MOL0     H69513   8.415   3.794   9.217 -0.6812 -0.7843 -1.0289
  527MOL0     H69514   8.445   3.754   9.048 -0.6398 -0.1404  0.7949
  527MOL0     H69515   8.646   3.873   9.249  2.2000  1.0440 -2.1556
  527MOL0     H69516   8.703   3.786   9.112  0.0683  2.0609 -0.1628
  527MOL0     H69517   8.617   3.741   9.489  0.3552 -2.0235  2.7293
  527MOL0     H69518   8.672   3.401   9.607  0.5863  0.9487  1.2544
  527MOL0     H69519   8.674   3.573   9.641 -1.0095  1.5800 -1.7583
  527MOL0     H69520   8.929   3.567   9.536 -0.4091  1.0242  1.1454
  527MOL0     H69521   8.918   3.402   9.585  0.4286  0.1030 -0.9461
  527MOL0     H69522   8.867   3.659   9.739  2.8000  1.0834 -2.7773
  527MOL0     H69523   8.829   3.502   9.813 -0.7456  0.6413 -0.2397
  527MOL0     H69524   9.101   3.562   9.705  0.7157  0.7756  1.2760
  527MOL0     H69525   9.050   3.446   9.833  1.7875  0.1453 -0.5629
  527MOL0     H69526   9.154   3.433  10.017  0.7134 -0.9216  0.6572
  527MOL0     H69527   9.367   3.431  10.132 -5.3580 -0.9099  3.3382
  527MOL0     H69528   9.729   3.875  10.290 -1.0933 -1.0899 -2.3963
  527MOL0     H69529   9.976   3.881  10.393  3.4496 -2.5037  0.4290
  527MOL0     H69530  10.280   3.579  10.216 -1.3717  1.6501 -1.3823
  527MOL0     H69531  10.163   3.516  10.334 -0.0559  1.4240  4.1127
  527MOL0     H69532  10.404   3.499  10.386  3.7878  2.1740 -0.2696
  527MOL0     H69533  10.301   3.567  10.506 -1.3971 -1.7549 -0.4381
  527MOL0     H69534  10.531   3.676  10.470  1.0563 -1.9435 -2.5098
  527MOL0     H69535  10.409   3.802  10.443  0.9254  2.4961 -3.1980
  527MOL0     H69536  10.407   3.769  10.203 -0.3368 -0.8009 -0.0516
  527MOL0     H69537  10.561   3.828  10.260  0.3218 -0.0230 -2.3422
  527MOL0     H69538  10.594   3.666  10.091  4.1866 -2.4991  0.2826
  527MOL0     H69539  10.488   3.550  10.177  0.4165  0.5739  0.9226
  527MOL0     H69540  10.701   3.470  10.187  1.0266 -0.1137  0.3252
  527MOL0     H69541  10.688   3.543  10.343 -0.0552  1.3736  0.5417
  527MOL0     H69542  10.803   3.690  10.117  1.5872  0.8246 -0.0541
  527MOL0     H69543  10.788   3.756  10.276 -2.2094 -1.4111 -0.1090
  527MOL0     H69544  10.962   3.601  10.375  6.7738  2.7066 -0.4690
  527MOL0     H69545  11.015   3.696  10.235 -0.6257  0.9813  1.5754
  527MOL0     H69546  10.057   3.543  10.130 -0.9045  0.4641 -0.8657
  527MOL0     H69547   9.838   3.569  10.029 -2.1260  0.0863  0.1379
  527MOL0     H69548   9.441   3.828  10.013  1.0646 -2.6833 -4.0704
  527MOL0     H69549   9.218   3.831   9.895  0.1305 -0.7496  0.0702
  527MOL0     H69550   7.755   4.467   8.974  0.4808 -0.1978  0.4272
  527MOL0     H69551   7.557   4.604   8.995 -1.0906 -0.1804  1.7009
  527MOL0     H69552   7.509   5.224   9.004  0.0996 -0.3102  0.9697
  527MOL0     H69553   7.295   5.358   9.045  3.2487 -1.0026 -2.2375
  527MOL0     H69554   7.014   5.161   9.366 -3.2850 -0.6041  1.4767
  527MOL0     H69555   6.950   5.131   9.208  0.7325  0.5223 -0.2444
  527MOL0     H69556   6.830   5.333   9.203  3.4857 -0.4228 -1.9084
  527MOL0     H69557   6.782   5.235   9.346 -1.5178  0.6121 -2.0271
  527MOL0     H69558   6.990   5.444   9.373 -0.2664  1.8599  0.5778
  527MOL0     H69559   6.862   5.390   9.487  2.6345  0.1720  0.9706
  527MOL0     H69560   6.841   5.620   9.427  2.1253  1.1545 -1.8985
  527MOL0     H69561   6.816   5.583   9.252 -2.5053 -1.7259 -0.2573
  527MOL0     H69562   6.436   5.479   9.392 -0.2917  1.6695  3.0139
  527MOL0     H69563   7.145   4.999   9.248  0.1753  0.1209  1.1619
  527MOL0     H69564   7.322   4.880   9.193 -2.7429  1.0103  1.6561
  528MOL0     O69565   0.549   9.184   0.666 -0.1387 -0.9383 -0.3559
  528MOL0     C69566   0.587   9.121   0.571  0.1537  0.0379 -0.1491
  528MOL0     O69567   0.514   9.024   0.513  0.3115 -0.8974 -0.2815
  528MOL0     C69568   0.379   8.992   0.539  0.5437 -1.3620  0.0369
  528MOL0     C69569   0.281   9.089   0.549 -0.5555  0.2752  0.4661
  528MOL0     C69570   0.144   9.054   0.569 -0.7315  0.4270 -0.3778
  528MOL0     C69571   0.110   8.917   0.579 -0.1523  0.6196  0.7210
  528MOL0     O69572  -0.026   8.873   0.596 -0.3803 -0.0245 -0.6037
  528MOL0     C69573  -0.111   8.956   0.680 -0.4801 -0.5453 -1.1056
  528MOL0     C69574  -0.088   8.919   0.826 -1.3650 -0.0459 -0.7077
  528MOL0     C69575  -0.130   8.784   0.878  0.2110  0.8899  0.6926
  528MOL0     C69576  -0.091   8.773   1.025  0.8154  0.0500 -0.0984
  528MOL0     C69577  -0.113   8.632   1.081  0.6416  0.3898 -0.3956
  528MOL0     C69578  -0.093   8.623   1.234 -0.9678  0.9253  0.0326
  528MOL0     C69579  -0.104   8.485   1.287  0.6022 -0.2974 -1.3204
  528MOL0     C69580  -0.254   8.430   1.311  0.1132  0.3183 -0.8121
  528MOL0     N69581  -0.260   8.283   1.312 -0.3478  0.2409  0.0190
  528MOL0     C69582  -0.352   8.199   1.246 -0.3479  0.5281  0.2622
  528MOL0     C69583  -0.347   8.089   1.323 -0.0299  1.4436  0.4112
  528MOL0     C69584  -0.433   7.962   1.314 -0.8049 -0.4927  0.6512
  528MOL0     C69585  -0.494   7.926   1.449  0.5422 -0.3260  0.2620
  528MOL0     C69586  -0.607   7.824   1.451 -0.2953  1.1041 -0.1318
  528MOL0     C69587  -0.746   7.885   1.417 -0.3511  0.3108 -0.0921
  528MOL0     O69588  -0.852   7.824   1.493 -0.7358  0.1300  0.2306
  528MOL0     C69589  -0.975   7.886   1.494  0.1929  0.8354  1.1635
  528MOL0     C69590  -1.057   7.843   1.595  0.3063 -0.4203  0.0664
  528MOL0     C69591  -1.182   7.901   1.632 -0.5597  0.6617 -0.3098
  528MOL0     C69592  -1.244   7.991   1.532  0.5848  0.4769  0.2114
  528MOL0     C69593  -1.384   8.041   1.539 -0.5601 -0.3290 -0.6495
  528MOL0     O69594  -1.425   8.104   1.429 -0.4408 -0.0060 -0.9123
  528MOL0     C69595  -1.560   8.111   1.412  0.0298  0.2411 -0.0540
  528MOL0     C69596  -1.636   8.006   1.357 -0.0083 -0.3203 -0.2066
  528MOL0     C69597  -1.775   8.007   1.363  0.4440 -0.4440  0.7444
  528MOL0     C69598  -1.842   8.113   1.429 -0.2690 -0.1535  0.4222
  528MOL0     O69599  -1.982   8.119   1.437 -0.6558 -0.5921 -0.3922
  528MOL0     C69600  -2.040   8.028   1.540 -1.3989 -0.4716  0.5275
  528MOL0     C69601  -2.004   8.080   1.682 -0.0870  0.3034 -0.6058
  528MOL0     C69602  -2.088   7.997   1.774 -0.2010  0.0758 -0.0587
  528MOL0     C69603  -2.030   8.005   1.919  0.0506 -0.9588 -0.0011
  528MOL0     C69604  -2.093   7.912   2.015  0.3615  0.6228 -0.0381
  528MOL0     C69605  -2.119   7.762   1.972 -0.5858  0.6690  0.5051
  528MOL0     C69606  -1.989   7.692   1.930  0.5920 -0.1563  0.5818
  528MOL0     C69607  -2.009   7.555   1.858 -0.2847 -0.7847  1.1596
  528MOL0    Cl69608  -2.075   7.583   1.677 -0.3854  0.0890 -0.0582
  528MOL0     C69609  -1.771   8.227   1.473  0.6975  1.1401  1.0762
  528MOL0     C69610  -1.624   8.227   1.464  0.9718  0.9723  0.1345
  528MOL0     O69611  -1.457   8.017   1.637  0.1524 -0.0728  0.1013
  528MOL0     C69612  -1.171   8.029   1.421 -0.6342  0.3208  0.4818
  528MOL0     C69613  -1.038   7.975   1.397 -0.2458  0.2128  0.9870
  528MOL0     N69614  -0.248   8.097   1.419  0.2112 -0.4300  0.7002
  528MOL0     N69615  -0.204   8.221   1.421  0.3089  0.1211  0.8769
  528MOL0     C69616   0.208   8.821   0.578  0.2590  0.1774 -0.6604
  528MOL0     C69617   0.337   8.861   0.544  0.1713  0.2754  0.2270
  528MOL0     C69618   0.715   9.162   0.508 -0.7532 -0.3072  0.0883
  528MOL0     C69619   0.755   9.122   0.373 -0.5287  0.0778 -0.0245
  528MOL0     C69620   0.875   9.165   0.321  0.7615  0.4117 -0.1515
  528MOL0     C69621   0.969   9.235   0.395 -0.7879  0.1563 -0.2161
  528MOL0     O69622   1.092   9.257   0.336  0.3182 -0.6612 -0.1753
  528MOL0     C69623   1.203   9.322   0.418 -0.3984 -0.0830 -0.3932
  528MOL0     C69624   1.333   9.321   0.345 -0.2118  0.6904  0.3009
  528MOL0     C69625   1.442   9.399   0.422 -0.2197  0.4718 -0.4455
  528MOL0     C69626   1.576   9.345   0.386 -0.3097 -0.3286 -0.3059
  528MOL0     C69627   1.598   9.209   0.435  0.5525  0.1174  1.1043
  528MOL0     C69628   1.608   9.093   0.469 -0.4705  0.4825 -0.4527
  528MOL0     C69629   0.935   9.267   0.520  0.0703 -0.0652 -0.3998
  528MOL0     C69630   0.807   9.236   0.574 -0.3365  0.1387  0.1060
  528MOL0     H69631   0.305   9.195   0.556 -0.0217  0.3974 -2.1840
  528MOL0     H69632   0.071   9.135   0.573 -0.0812  0.9828  0.9354
  528MOL0     H69633  -0.215   8.965   0.647 -0.3138 -0.0432 -1.5128
  528MOL0     H69634  -0.066   9.056   0.687  0.0660 -0.8100  6.2446
  528MOL0     H69635  -0.155   8.993   0.873 -3.5599 -1.0485 -2.0703
  528MOL0     H69636   0.017   8.937   0.849 -1.5375  0.8333 -0.5445
  528MOL0     H69637  -0.080   8.699   0.830  1.5878  1.5601  0.9069
  528MOL0     H69638  -0.237   8.766   0.859  0.6388 -2.0661  0.6000
  528MOL0     H69639   0.008   8.813   1.049  0.4124 -0.6053  3.0703
  528MOL0     H69640  -0.150   8.840   1.088  1.8918  0.0712  0.9270
  528MOL0     H69641  -0.045   8.568   1.024 -2.2466 -0.9559 -2.5315
  528MOL0     H69642  -0.217   8.604   1.064  0.5994  1.1914 -1.6552
  528MOL0     H69643  -0.163   8.690   1.286 -2.5806 -3.3155  4.0498
  528MOL0     H69644   0.008   8.654   1.263 -0.6042 -0.6372  0.5221
  528MOL0     H69645  -0.043   8.415   1.230  0.6912 -1.3715  0.0510
  528MOL0     H69646  -0.053   8.475   1.383  4.0803 -0.6675 -3.0748
  528MOL0     H69647  -0.311   8.473   1.229  0.2697  1.6546 -0.2437
  528MOL0     H69648  -0.298   8.473   1.402 -0.7417  2.2733 -2.0798
  528MOL0     H69649  -0.419   8.222   1.164 -0.5777 -1.0485 -0.0121
  528MOL0     H69650  -0.369   7.878   1.286 -0.6349  0.3428 -1.6655
  528MOL0     H69651  -0.517   7.980   1.245 -3.9709  0.6868  4.4290
  528MOL0     H69652  -0.527   8.016   1.502  1.9310  0.4286 -0.1057
  528MOL0     H69653  -0.404   7.890   1.500  3.1664 -0.2417 -3.8756
  528MOL0     H69654  -0.589   7.750   1.373 -3.1169 -2.1898  2.0594
  528MOL0     H69655  -0.611   7.783   1.552  0.7352  0.8350 -0.1871
  528MOL0     H69656  -0.774   7.876   1.311  0.9191 -0.4369 -0.3812
  528MOL0     H69657  -0.750   7.992   1.443  0.3072  0.6188 -1.2097
  528MOL0     H69658  -1.010   7.776   1.667  0.1985  1.0649  1.5746
  528MOL0     H69659  -1.243   7.860   1.712 -0.1072 -3.8566 -1.9849
  528MOL0     H69660  -1.591   7.922   1.305  1.9771  1.5117 -1.5902
  528MOL0     H69661  -1.826   7.924   1.315  1.9813 -0.2970 -1.3057
  528MOL0     H69662  -1.990   7.932   1.529  3.5535  1.8513  0.2428
  528MOL0     H69663  -2.147   8.018   1.522 -0.8975 -1.1123 -2.4929
  528MOL0     H69664  -2.034   8.183   1.704 -0.3921 -0.0231  0.5736
  528MOL0     H69665  -1.899   8.065   1.708 -0.0276 -0.1666 -1.0897
  528MOL0     H69666  -2.081   7.893   1.739  1.7153  0.8579 -2.2669
  528MOL0     H69667  -2.196   8.013   1.771 -0.3042 -0.6416 -0.5000
  528MOL0     H69668  -1.923   7.985   1.923 -0.2240 -2.3548  1.7056
  528MOL0     H69669  -2.038   8.104   1.965  1.4551  0.4554 -2.6052
  528MOL0     H69670  -2.195   7.945   2.037 -0.7082 -1.7063 -1.1891
  528MOL0     H69671  -2.022   7.900   2.097  1.3921  1.3973 -0.7887
  528MOL0     H69672  -2.185   7.753   1.885  0.2324 -0.0127 -0.0591
  528MOL0     H69673  -2.149   7.715   2.066  2.6178  1.9625  2.3289
  528MOL0     H69674  -1.928   7.746   1.857 -0.2949 -0.1662 -0.1838
  528MOL0     H69675  -1.910   7.676   2.005  1.5559 -0.6305 -0.5045
  528MOL0     H69676  -2.089   7.498   1.906 -0.0253 -1.3609  0.9199
  528MOL0     H69677  -1.916   7.497   1.854 -0.1305 -0.5454  1.2836
  528MOL0     H69678  -1.820   8.322   1.495  1.2782  1.8429 -0.5451
  528MOL0     H69679  -1.565   8.315   1.486 -1.1002  1.9979  2.0242
  528MOL0     H69680  -1.203   8.094   1.341  0.7713  1.2451  0.6395
  528MOL0     H69681  -0.978   7.998   1.310 -0.6665  1.8286  1.0753
  528MOL0     H69682   0.184   8.716   0.589  2.4895 -0.2158  1.1353
  528MOL0     H69683   0.400   8.777   0.519  1.1052  0.8950  0.4612
  528MOL0     H69684   0.690   9.055   0.318  0.0274 -1.6124  1.2819
  528MOL0     H69685   0.908   9.142   0.220 -2.6138 -1.1163 -1.0327
  528MOL0     H69686   1.215   9.266   0.511 -0.4548 -0.2938 -0.5120
  528MOL0     H69687   1.172   9.423   0.448  0.1459 -0.2401  0.7488
  528MOL0     H69688   1.372   9.223   0.318 -0.0715  1.4176 -2.4640
  528MOL0     H69689   1.314   9.379   0.253 -0.2384  1.3519  0.7124
  528MOL0     H69690   1.423   9.387   0.529 -2.1821  1.6659 -0.6182
  528MOL0     H69691   1.431   9.502   0.388 -2.9945  0.0056 -1.2930
  528MOL0     H69692   1.593   9.335   0.278  1.6838  1.4001 -0.2220
  528MOL0     H69693   1.649   9.413   0.432  0.6915 -2.8952  2.2007
  528MOL0     H69694   1.633   8.992   0.491  2.5332  1.3752  0.7428
  528MOL0     H69695   0.993   9.326   0.591  1.1194 -1.7264  0.1795
  528MOL0     H69696   0.801   9.262   0.680 -0.2448 -4.8979  1.5870
  529MOL0     O69697   0.613   9.045   8.316 -0.5674  0.2833  0.4903
  529MOL0     C69698   0.684   9.102   8.238 -1.6408  0.3604 -0.0810
  529MOL0     O69699   0.654   9.205   8.173  0.1163  0.3842  0.1228
  529MOL0     C69700   0.530   9.226   8.122 -0.7154  0.2766  1.0454
  529MOL0     C69701   0.455   9.350   8.130 -0.9442  0.4135 -0.0908
  529MOL0     C69702   0.324   9.364   8.085 -0.0307  0.3856  0.0182
  529MOL0     C69703   0.250   9.249   8.044 -0.0484 -0.1883  0.5554
  529MOL0     O69704   0.119   9.249   7.992 -0.0878 -0.1741 -0.3597
  529MOL0     C69705   0.051   9.375   7.973 -0.1099 -0.8984  1.0478
  529MOL0     C69706  -0.093   9.343   7.916  0.2316 -0.0319  0.0535
  529MOL0     C69707  -0.183   9.250   8.007  2.1534 -0.0629 -0.7641
  529MOL0     C69708  -0.326   9.250   7.952  0.9752  0.6257  0.7395
  529MOL0     C69709  -0.431   9.183   8.040 -0.4437  0.2841  0.5337
  529MOL0     C69710  -0.560   9.156   7.964  0.3172 -1.1707 -0.0261
  529MOL0     C69711  -0.664   9.101   8.078 -0.0964  0.5162 -0.3897
  529MOL0     C69712  -0.789   9.074   8.024 -0.2015  1.4464  0.2181
  529MOL0     N69713  -0.887   9.050   8.133 -0.1827 -0.5822  0.0671
  529MOL0     C69714  -0.962   8.936   8.147  0.4606  0.2447  0.0867
  529MOL0     C69715  -1.013   8.962   8.271  1.0981  0.5307  0.0108
  529MOL0     C69716  -1.089   8.851   8.354  0.2659 -1.1912 -0.4778
  529MOL0     C69717  -1.070   8.710   8.305 -0.0352  0.6295 -0.1493
  529MOL0     C69718  -1.177   8.673   8.204 -0.2061  0.1445 -0.0082
  529MOL0     C69719  -1.173   8.530   8.136  0.1771 -0.1302  0.6303
  529MOL0     O69720  -1.292   8.530   8.057 -0.1731 -0.1598  0.2509
  529MOL0     C69721  -1.403   8.455   8.102  0.3655 -0.2416  0.0981
  529MOL0     C69722  -1.419   8.425   8.236 -0.5990  0.0262 -0.1889
  529MOL0     C69723  -1.524   8.338   8.280 -0.3059  0.2358 -0.6928
  529MOL0     C69724  -1.616   8.286   8.199  0.8807 -0.5810  0.1268
  529MOL0     C69725  -1.735   8.207   8.240 -0.2253 -0.0391 -0.1765
  529MOL0     O69726  -1.849   8.218   8.157  0.2982 -0.3444  0.5627
  529MOL0     C69727  -1.960   8.137   8.169 -0.0493 -0.8527 -0.0785
  529MOL0     C69728  -1.955   7.998   8.177 -0.4288 -1.0468 -1.0874
  529MOL0     C69729  -2.075   7.919   8.176  0.2136  0.0697  0.5444
  529MOL0     C69730  -2.207   7.989   8.176  0.0242  0.2302  0.1010
  529MOL0     O69731  -2.315   7.907   8.175  0.5966 -0.0827 -0.0069
  529MOL0     C69732  -2.444   7.973   8.176  1.2916 -1.0235 -0.7170
  529MOL0     C69733  -2.560   7.874   8.189 -0.3425 -0.5151  0.1594
  529MOL0     C69734  -2.566   7.798   8.321  0.6932 -0.3314  0.5575
  529MOL0     C69735  -2.674   7.692   8.298  0.1043 -0.5971  0.4111
  529MOL0     C69736  -2.750   7.684   8.422  0.0145 -0.8102 -0.0788
  529MOL0     C69737  -2.855   7.574   8.411  0.8372  0.7966 -0.0173
  529MOL0     C69738  -2.798   7.434   8.436 -0.1609  0.1163  0.7974
  529MOL0     C69739  -2.902   7.330   8.390 -0.1214  0.1719  0.2208
  529MOL0    Cl69740  -3.046   7.335   8.510  0.1331  0.4094 -0.4824
  529MOL0     C69741  -2.209   8.129   8.167  0.5602 -0.3836  0.0255
  529MOL0     C69742  -2.082   8.197   8.152  1.1669  0.5143  0.4647
  529MOL0     O69743  -1.723   8.122   8.333 -0.1969  0.4657 -0.9210
  529MOL0     C69744  -1.594   8.316   8.063  0.1906  0.2878 -0.1205
  529MOL0     C69745  -1.486   8.395   8.012 -1.3038  1.2439  0.1492
  529MOL0     N69746  -0.959   9.072   8.337  1.3680  0.2075  0.2210
  529MOL0     N69747  -0.882   9.122   8.257 -0.1542  0.0702  0.2542
  529MOL0     C69748   0.329   9.134   8.023  0.1460  0.2917  0.1929
  529MOL0     C69749   0.463   9.122   8.053  0.0412  0.1107  0.7138
  529MOL0     C69750   0.832   9.075   8.253  0.0414  0.4408  0.0554
  529MOL0     C69751   0.885   8.996   8.366  0.5873 -0.3930  0.7113
  529MOL0     C69752   1.023   8.996   8.379 -0.4481  0.9891 -0.6177
  529MOL0     C69753   1.107   9.057   8.291 -0.0132 -1.0580  0.3910
  529MOL0     O69754   1.235   9.027   8.315  0.5558  0.4660  0.0582
  529MOL0     C69755   1.337   9.112   8.256 -0.2374 -0.1698 -0.0472
  529MOL0     C69756   1.336   9.249   8.318 -0.0929 -0.7059 -0.4288
  529MOL0     C69757   1.406   9.351   8.216  0.1693  0.7932 -1.4818
  529MOL0     C69758   1.551   9.316   8.194 -0.5156  0.1435  0.1461
  529MOL0     C69759   1.613   9.398   8.089 -0.0915 -0.0540  0.3632
  529MOL0     C69760   1.675   9.473   8.007  0.3349 -0.2214 -0.9663
  529MOL0     C69761   1.058   9.119   8.188  0.5325  0.0184  0.7968
  529MOL0     C69762   0.919   9.132   8.164 -0.6857  0.3443  0.5634
  529MOL0     H69763   0.511   9.436   8.165  2.5822 -1.4869 -0.6125
  529MOL0     H69764   0.282   9.464   8.086 -3.0234 -0.7491  0.4651
  529MOL0     H69765   0.103   9.448   7.911  0.8839  2.1307  5.0452
  529MOL0     H69766   0.034   9.426   8.068  1.8597  0.8132  0.5537
  529MOL0     H69767  -0.082   9.289   7.822  3.0240  0.2714  0.1260
  529MOL0     H69768  -0.139   9.440   7.893  4.3890  1.3674 -3.6289
  529MOL0     H69769  -0.189   9.290   8.109  2.2154  1.9704 -1.5189
  529MOL0     H69770  -0.150   9.145   8.002 -3.3043 -2.1976  0.9021
  529MOL0     H69771  -0.351   9.357   7.956 -2.0155  0.0604 -0.8494
  529MOL0     H69772  -0.334   9.204   7.853 -3.2643  1.3914  0.5651
  529MOL0     H69773  -0.451   9.238   8.133 -0.0784 -1.1625  1.5051
  529MOL0     H69774  -0.391   9.085   8.069 -0.0788  0.2996  0.0891
  529MOL0     H69775  -0.545   9.074   7.893  2.2496 -1.0579  0.2193
  529MOL0     H69776  -0.603   9.238   7.905  1.6569 -1.1930 -1.0907
  529MOL0     H69777  -0.618   9.009   8.114 -2.6540  0.6546  3.7939
  529MOL0     H69778  -0.676   9.172   8.160 -1.0335 -0.3131  0.2162
  529MOL0     H69779  -0.786   8.991   7.952  0.5868 -1.4234  3.3121
  529MOL0     H69780  -0.812   9.159   7.960  0.4621  1.7261  0.3391
  529MOL0     H69781  -0.985   8.856   8.077 -0.1099 -2.5615  3.2519
  529MOL0     H69782  -1.193   8.875   8.374  1.3931  2.8460  1.6109
  529MOL0     H69783  -1.035   8.860   8.448  0.6343  3.7848 -0.8558
  529MOL0     H69784  -1.081   8.635   8.384  1.7108  0.1486 -0.3386
  529MOL0     H69785  -0.973   8.709   8.256 -0.9522  1.6604 -2.1018
  529MOL0     H69786  -1.277   8.693   8.244 -0.8076  1.1932 -1.9157
  529MOL0     H69787  -1.165   8.737   8.117 -3.1047 -1.4624 -1.7396
  529MOL0     H69788  -1.164   8.450   8.210 -3.0089  0.3197  1.6197
  529MOL0     H69789  -1.096   8.527   8.058  1.5739  2.3373  1.7964
  529MOL0     H69790  -1.344   8.464   8.304 -1.3182  0.6258  0.2879
  529MOL0     H69791  -1.540   8.319   8.386 -1.5033 -3.6522 -1.4376
  529MOL0     H69792  -1.863   7.940   8.185  1.8256  2.4776  1.5387
  529MOL0     H69793  -2.067   7.812   8.188  1.1616  0.2805  2.1235
  529MOL0     H69794  -2.448   8.019   8.077 -1.9071  0.9084  0.1876
  529MOL0     H69795  -2.448   8.045   8.258  0.1823 -3.2331  1.2980
  529MOL0     H69796  -2.536   7.808   8.104  1.5849  1.4398 -0.9182
  529MOL0     H69797  -2.657   7.922   8.170 -0.6100 -0.7372  0.9473
  529MOL0     H69798  -2.583   7.863   8.408 -2.6414 -1.8116  1.1884
  529MOL0     H69799  -2.474   7.741   8.337 -0.4189 -1.6519  2.7445
  529MOL0     H69800  -2.744   7.726   8.221  0.5312 -0.0592  0.2507
  529MOL0     H69801  -2.632   7.599   8.259 -0.5106 -0.1083 -1.5532
  529MOL0     H69802  -2.801   7.779   8.439  2.7310  0.4484  1.7664
  529MOL0     H69803  -2.690   7.666   8.512  0.5386  0.2889 -0.1874
  529MOL0     H69804  -2.914   7.579   8.319 -0.7555 -3.1318  0.6074
  529MOL0     H69805  -2.925   7.595   8.493 -2.6840 -0.6720 -2.4025
  529MOL0     H69806  -2.708   7.422   8.375 -2.6781 -0.4859 -3.1730
  529MOL0     H69807  -2.790   7.424   8.545 -5.2681  0.6788  1.5016
  529MOL0     H69808  -2.856   7.231   8.385  2.5144  1.2947  0.1192
  529MOL0     H69809  -2.930   7.356   8.288 -0.7052  0.7595  0.5185
  529MOL0     H69810  -2.295   8.195   8.166  1.8761  1.4580  0.7736
  529MOL0     H69811  -2.104   8.302   8.140  0.1804  0.2895  0.1935
  529MOL0     H69812  -1.664   8.282   7.987 -0.5437  0.4625  0.4761
  529MOL0     H69813  -1.474   8.415   7.906  1.0457  2.5407  0.5933
  529MOL0     H69814   0.280   9.040   7.997  2.4430 -0.8232 -0.4468
  529MOL0     H69815   0.505   9.022   8.043 -2.1964 -0.8638  0.6378
  529MOL0     H69816   0.807   8.956   8.431 -1.5175  0.8221 -0.9196
  529MOL0     H69817   1.057   8.947   8.470 -2.4172 -0.6884 -0.7139
  529MOL0     H69818   1.313   9.131   8.150  3.7241  1.4298 -0.8242
  529MOL0     H69819   1.432   9.064   8.280  1.3829  2.9128  0.1867
  529MOL0     H69820   1.239   9.298   8.330  0.4445  0.3958 -0.4701
  529MOL0     H69821   1.385   9.237   8.415 -0.3988  0.9949 -0.0379
  529MOL0     H69822   1.407   9.451   8.261  2.2142  1.0519 -2.0227
  529MOL0     H69823   1.355   9.356   8.119  3.3217  2.5553 -3.2244
  529MOL0     H69824   1.607   9.322   8.288  4.7225 -2.2954 -2.3852
  529MOL0     H69825   1.556   9.211   8.164  4.1642 -0.2899  1.5338
  529MOL0     H69826   1.738   9.535   7.946  1.2543  0.4885  0.6285
  529MOL0     H69827   1.122   9.181   8.126 -1.2753 -1.4994 -2.8844
  529MOL0     H69828   0.882   9.191   8.081  2.7037  0.1686 -1.2350
  530MOL0     O69829   1.789  10.392   6.811  0.3629 -0.6224  0.0283
  530MOL0     C69830   1.679  10.357   6.846  0.5710 -0.5606 -0.3023
  530MOL0     O69831   1.615  10.246   6.809  1.1364  0.4661  0.6038
  530MOL0     C69832   1.662  10.160   6.718  0.0564  0.0548  0.6583
  530MOL0     C69833   1.712  10.209   6.598  0.7842 -0.1889  0.8385
  530MOL0     C69834   1.751  10.124   6.490  0.3390 -0.1084  0.8914
  530MOL0     C69835   1.733   9.986   6.515 -0.7110 -0.6305  0.0131
  530MOL0     O69836   1.743   9.889   6.421 -0.4793  0.5227 -0.7176
  530MOL0     C69837   1.782   9.926   6.287  0.1065 -0.1457  0.1123
  530MOL0     C69838   1.687  10.002   6.204  0.2029  0.4419 -0.0278
  530MOL0     C69839   1.549   9.927   6.177  0.2388 -0.0216  0.4612
  530MOL0     C69840   1.570   9.788   6.121 -0.0530  0.3368 -0.0735
  530MOL0     C69841   1.440   9.727   6.094 -0.6039 -0.3591 -0.1099
  530MOL0     C69842   1.377   9.667   6.211 -0.0751  0.2097 -0.5857
  530MOL0     C69843   1.262   9.585   6.170 -0.7166 -0.7215 -1.0350
  530MOL0     C69844   1.227   9.483   6.283 -0.6902  0.5666 -0.0748
  530MOL0     N69845   1.109   9.396   6.260 -0.1575 -0.5939  0.3529
  530MOL0     C69846   1.070   9.319   6.154 -0.3309 -0.6701  1.1770
  530MOL0     C69847   0.958   9.248   6.185 -0.0749  0.0219 -0.1650
  530MOL0     C69848   0.868   9.167   6.099  0.5129  0.5019 -0.3737
  530MOL0     C69849   0.811   9.044   6.164 -0.0742  1.0845 -0.3767
  530MOL0     C69850   0.715   8.969   6.071  0.2435  0.9957 -0.1487
  530MOL0     C69851   0.728   8.811   6.076 -0.0747 -1.1128 -0.3372
  530MOL0     O69852   0.624   8.752   5.998 -0.1043 -1.5899  0.0821
  530MOL0     C69853   0.612   8.614   6.010 -0.1788 -0.0957  0.0829
  530MOL0     C69854   0.718   8.525   6.048  0.1786  0.4676 -0.0675
  530MOL0     C69855   0.704   8.388   6.043 -0.0503  0.6514 -0.0441
  530MOL0     C69856   0.588   8.334   5.995  0.2673 -0.6557  0.5578
  530MOL0     C69857   0.572   8.186   5.989 -0.0255 -0.0745  0.0316
  530MOL0     O69858   0.450   8.145   5.944  0.1690  0.2797  0.5623
  530MOL0     C69859   0.399   8.027   5.984  0.5239 -0.1515 -0.3120
  530MOL0     C69860   0.305   7.969   5.899 -0.7359  0.8639 -0.9624
  530MOL0     C69861   0.234   7.853   5.937 -0.7111 -0.0864 -0.4949
  530MOL0     C69862   0.263   7.786   6.062  1.1025 -0.0569 -0.0277
  530MOL0     O69863   0.196   7.677   6.109  0.9438  0.2656  0.6395
  530MOL0     C69864   0.087   7.617   6.030  0.1477  0.6329  0.0504
  530MOL0     C69865  -0.052   7.665   6.064  0.3091 -0.7154 -0.1866
  530MOL0     C69866  -0.157   7.558   6.015  0.0872 -0.0024 -0.2701
  530MOL0     C69867  -0.304   7.606   6.022 -0.1359 -0.6082 -0.7666
  530MOL0     C69868  -0.408   7.487   6.043  0.4290  0.4600 -0.0199
  530MOL0     C69869  -0.377   7.367   5.964  0.2398 -0.3373  0.2303
  530MOL0     C69870  -0.401   7.391   5.813 -0.3020  0.1020  0.4147
  530MOL0     C69871  -0.288   7.350   5.717  0.2402 -0.6261  0.4356
  530MOL0    Cl69872  -0.253   7.181   5.742 -0.4586 -0.6076  0.2256
  530MOL0     C69873   0.355   7.841   6.151  0.5567  0.0512  0.3316
  530MOL0     C69874   0.419   7.963   6.113  0.5083  0.6847  0.4643
  530MOL0     O69875   0.666   8.118   6.021 -0.6241 -0.6505 -0.0150
  530MOL0     C69876   0.488   8.415   5.949 -0.8866 -0.0424  0.4266
  530MOL0     C69877   0.499   8.552   5.963  0.4458  0.0480  0.0535
  530MOL0     N69878   0.941   9.274   6.320  1.0228  0.7216 -0.0484
  530MOL0     N69879   1.020   9.359   6.364 -0.1119 -0.1376  0.9075
  530MOL0     C69880   1.689   9.940   6.636  1.0534  0.9476 -0.1781
  530MOL0     C69881   1.657  10.021   6.740  0.3017  0.0243 -0.6704
  530MOL0     C69882   1.616  10.446   6.950 -0.0094  0.6302 -0.2553
  530MOL0     C69883   1.694  10.540   7.026  0.1489  0.0842  0.0727
  530MOL0     C69884   1.637  10.625   7.124 -0.2440 -0.7460  0.9358
  530MOL0     C69885   1.497  10.604   7.157  0.4154 -0.0023 -0.2351
  530MOL0     O69886   1.428  10.680   7.245 -0.6315 -0.6440 -1.0982
  530MOL0     C69887   1.475  10.809   7.288  0.8271 -0.3732  0.5184
  530MOL0     C69888   1.456  10.914   7.171 -0.0021  0.5879 -0.6287
  530MOL0     C69889   1.301  10.940   7.161 -0.1485  0.0224 -0.2097
  530MOL0     C69890   1.275  11.066   7.069 -0.5645 -0.2834  0.1022
  530MOL0     C69891   1.131  11.079   7.047 -0.8421 -0.1977 -0.1650
  530MOL0     C69892   1.012  11.088   7.048 -0.2088 -1.1628 -0.2873
  530MOL0     C69893   1.421  10.499   7.098  0.5729 -0.5902  0.2661
  530MOL0     C69894   1.483  10.427   6.991  0.3776  0.4462 -0.3207
  530MOL0     H69895   1.726  10.315   6.580 -0.2797 -0.0259  0.9512
  530MOL0     H69896   1.802  10.168   6.405  1.5166  0.6889  1.9902
  530MOL0     H69897   1.805   9.833   6.234 -0.4680 -1.3007  1.8442
  530MOL0     H69898   1.884   9.966   6.284  1.0836 -2.4854 -0.6883
  530MOL0     H69899   1.736  10.027   6.110  1.5487 -0.0376  0.5187
  530MOL0     H69900   1.678  10.096   6.259  2.5729 -1.8328  4.9628
  530MOL0     H69901   1.489   9.971   6.097  1.6539  0.8979 -0.1385
  530MOL0     H69902   1.488   9.928   6.267 -0.1084  1.9450  0.2426
  530MOL0     H69903   1.621   9.798   6.025 -3.1363  1.4230 -1.7324
  530MOL0     H69904   1.628   9.722   6.186  1.2122  1.5322  0.0823
  530MOL0     H69905   1.461   9.645   6.025 -0.4837  0.3111 -0.8848
  530MOL0     H69906   1.375   9.795   6.038  0.3199  1.3923  0.8568
  530MOL0     H69907   1.340   9.742   6.281 -2.4351 -2.4282  1.2020
  530MOL0     H69908   1.456   9.615   6.266 -1.7631 -2.6880 -0.7052
  530MOL0     H69909   1.183   9.657   6.145  1.0326  1.2521 -1.1580
  530MOL0     H69910   1.295   9.530   6.082  3.4128 -3.0467  1.6458
  530MOL0     H69911   1.208   9.532   6.379  0.7146 -1.5238  1.3501
  530MOL0     H69912   1.317   9.424   6.305 -2.3188 -1.3566  1.8615
  530MOL0     H69913   1.110   9.325   6.053 -0.6338 -0.1021  1.0870
  530MOL0     H69914   0.922   9.150   6.006  1.4300 -1.0614  0.3979
  530MOL0     H69915   0.782   9.227   6.069 -0.9881 -2.0609 -1.4963
  530MOL0     H69916   0.770   9.071   6.262  0.6237  0.4659  0.0965
  530MOL0     H69917   0.894   8.975   6.181  0.9877  0.2610 -6.5975
  530MOL0     H69918   0.621   9.000   6.118 -0.9030 -0.7080 -1.2000
  530MOL0     H69919   0.713   9.000   5.966 -1.7678 -0.3158 -0.5726
  530MOL0     H69920   0.724   8.778   6.181  1.9168  2.3491  0.9613
  530MOL0     H69921   0.831   8.782   6.054  1.2801  3.7119 -1.5495
  530MOL0     H69922   0.821   8.552   6.070 -0.1037 -0.1884  2.3970
  530MOL0     H69923   0.791   8.328   6.067 -0.0904  1.3029  1.8663
  530MOL0     H69924   0.292   8.025   5.807 -0.7559  1.7393 -0.4357
  530MOL0     H69925   0.169   7.802   5.867 -0.1425 -4.2722  1.7247
  530MOL0     H69926   0.095   7.510   6.051  0.8535  0.6950  0.1258
  530MOL0     H69927   0.116   7.628   5.925  2.4210 -1.5816  0.3619
  530MOL0     H69928  -0.066   7.759   6.010 -3.2043 -1.7485 -1.3977
  530MOL0     H69929  -0.071   7.674   6.171 -3.8107  0.2087 -0.8382
  530MOL0     H69930  -0.149   7.468   6.076  1.6183  1.2998  1.5778
  530MOL0     H69931  -0.133   7.539   5.910  0.5692 -0.9305 -0.0036
  530MOL0     H69932  -0.316   7.673   6.108 -2.2105  1.9822 -2.9056
  530MOL0     H69933  -0.331   7.666   5.934  0.8987 -1.0851 -1.4223
  530MOL0     H69934  -0.512   7.509   6.019  0.1217 -2.4048 -1.7635
  530MOL0     H69935  -0.406   7.470   6.151 -1.0238  3.4977  0.6085
  530MOL0     H69936  -0.443   7.291   6.005  0.1251 -0.9944 -1.0960
  530MOL0     H69937  -0.274   7.340   5.988  1.1595  2.3462 -0.2664
  530MOL0     H69938  -0.493   7.339   5.782  0.6859  0.3636 -3.4858
  530MOL0     H69939  -0.425   7.497   5.794 -5.0077 -0.9489 -0.8000
  530MOL0     H69940  -0.198   7.412   5.725  0.3797 -1.0202  2.3224
  530MOL0     H69941  -0.330   7.354   5.616  2.8522 -3.9010 -1.0025
  530MOL0     H69942   0.372   7.803   6.252 -0.8856  3.3853  1.9627
  530MOL0     H69943   0.477   8.014   6.190 -2.2490 -1.1248  4.0132
  530MOL0     H69944   0.392   8.383   5.907 -0.0390 -1.4121 -0.5577
  530MOL0     H69945   0.411   8.611   5.939  1.0852  2.1286  2.4873
  530MOL0     H69946   1.682   9.833   6.650 -0.7561  1.1852  1.2517
  530MOL0     H69947   1.614   9.966   6.823  0.0602 -0.4473 -1.1038
  530MOL0     H69948   1.796  10.571   7.006 -0.1165  0.8457 -0.1422
  530MOL0     H69949   1.675  10.705   7.185  1.0471  0.6302 -1.5112
  530MOL0     H69950   1.573  10.825   7.335  2.1347 -1.6742 -1.6280
  530MOL0     H69951   1.411  10.838   7.373  0.8446  5.0294 -0.9089
  530MOL0     H69952   1.510  11.008   7.187 -4.0620  2.9162  1.0046
  530MOL0     H69953   1.488  10.864   7.079  0.1763  0.2126 -0.3655
  530MOL0     H69954   1.250  10.960   7.255 -0.5231  3.1206 -0.9484
  530MOL0     H69955   1.254  10.858   7.106 -0.9358  0.8915 -0.8791
  530MOL0     H69956   1.314  11.152   7.125 -1.1474  1.4327 -1.9767
  530MOL0     H69957   1.329  11.066   6.974 -2.1460 -2.7383 -0.9098
  530MOL0     H69958   0.906  11.103   7.048 -0.0945 -0.2395  0.4048
  530MOL0     H69959   1.324  10.470   7.138  0.6444 -1.8857 -0.4352
  530MOL0     H69960   1.416  10.363   6.935  0.7289 -1.3904  1.2433
  531MOL0     O69961   6.334   7.251   7.787 -0.0085 -0.2422  0.5208
  531MOL0     C69962   6.342   7.377   7.780  0.7466  1.0220 -0.1316
  531MOL0     O69963   6.433   7.446   7.711  0.3871  0.2076 -0.0373
  531MOL0     C69964   6.528   7.374   7.655 -0.1198 -0.7766 -0.6888
  531MOL0     C69965   6.507   7.315   7.527 -0.0325 -0.5862  0.5442
  531MOL0     C69966   6.615   7.257   7.458  0.1037 -0.6479  0.1306
  531MOL0     C69967   6.737   7.254   7.519  0.7348  0.1972 -0.8640
  531MOL0     O69968   6.850   7.185   7.477  0.6976  0.6576  0.0926
  531MOL0     C69969   6.841   7.117   7.342  0.0737 -0.2530 -0.7633
  531MOL0     C69970   6.970   7.040   7.322  0.7271  0.2430  0.8059
  531MOL0     C69971   6.981   6.976   7.181 -0.5239  0.3113 -0.5543
  531MOL0     C69972   6.977   7.074   7.066 -0.3138  0.1387 -0.0616
  531MOL0     C69973   7.054   7.035   6.933 -0.5950 -0.2155  0.2421
  531MOL0     C69974   6.951   6.985   6.821 -0.1721 -0.2953  0.1238
  531MOL0     C69975   7.021   6.893   6.718  0.9266  0.2196  0.3272
  531MOL0     C69976   7.024   6.743   6.763 -0.0632 -0.1103  0.0976
  531MOL0     N69977   7.099   6.709   6.876 -0.1269  0.6543 -0.9846
  531MOL0     C69978   7.034   6.686   6.996 -0.7769  0.3108 -1.1917
  531MOL0     C69979   7.137   6.669   7.085 -0.4639  0.6254  0.9159
  531MOL0     C69980   7.125   6.637   7.222  0.1752 -0.4701 -0.4976
  531MOL0     C69981   6.984   6.596   7.268 -0.2346  0.4290 -0.1164
  531MOL0     C69982   6.967   6.605   7.419 -0.5255  0.1286 -0.1130
  531MOL0     C69983   6.824   6.620   7.458  0.2537  0.5639 -0.4750
  531MOL0     O69984   6.809   6.561   7.592 -0.2206 -0.0754  1.1490
  531MOL0     C69985   6.700   6.591   7.671 -0.4452 -0.1467  0.2695
  531MOL0     C69986   6.703   6.551   7.803  0.0112 -0.0049 -0.7801
  531MOL0     C69987   6.600   6.596   7.886 -0.0972 -0.4463  0.1054
  531MOL0     C69988   6.484   6.664   7.845  0.2516  0.5560 -0.7640
  531MOL0     C69989   6.387   6.712   7.942  0.1897 -0.4848  0.6669
  531MOL0     O69990   6.400   6.684   8.072  0.8977 -0.1179 -0.2374
  531MOL0     C69991   6.311   6.750   8.159  0.7388  0.7696 -0.3348
  531MOL0     C69992   6.274   6.893   8.143  1.4267 -0.1888 -0.0671
  531MOL0     C69993   6.200   6.957   8.247 -0.0992  0.3318  0.6599
  531MOL0     C69994   6.167   6.890   8.366  1.5901  0.1915  0.3425
  531MOL0     O69995   6.088   6.965   8.455 -0.4121 -0.3235  0.4061
  531MOL0     C69996   5.993   6.886   8.536 -0.2434  0.2822  0.0961
  531MOL0     C69997   5.901   6.974   8.607  0.2998  0.0984  0.6325
  531MOL0     C69998   5.793   6.894   8.678  0.0840 -1.2151 -0.1687
  531MOL0     C69999   5.856   6.772   8.757  0.0152  0.4706 -0.2881
  531MOL0     C70000   5.802   6.728   8.885  0.3675 -0.0676  0.3039
  531MOL0     C70001   5.646   6.715   8.872  0.4889  0.4284 -0.1894
  531MOL0     C70002   5.599   6.621   8.765 -0.4054 -0.3827  0.3724
  531MOL0     C70003   5.459   6.587   8.789 -1.2648  0.1624  0.5359
  531MOL0    Cl70004   5.406   6.468   8.665 -0.1671  0.2675 -0.1126
  531MOL0     C70005   6.210   6.763   8.380  0.0495 -0.3214  0.0256
  531MOL0     C70006   6.279   6.689   8.280 -0.1276  1.1029 -0.0974
  531MOL0     O70007   6.294   6.761   7.882  0.8522 -0.1089  0.6663
  531MOL0     C70008   6.480   6.692   7.711  0.7482  0.2466  0.4662
  531MOL0     C70009   6.582   6.653   7.625 -1.2221  0.1845 -0.0951
  531MOL0     N70010   7.259   6.693   7.022 -0.5599  0.1884 -0.2765
  531MOL0     N70011   7.238   6.697   6.892  1.5415  0.0348  0.2650
  531MOL0     C70012   6.758   7.323   7.634  0.0388  0.3242 -0.0949
  531MOL0     C70013   6.653   7.392   7.698  0.2194  0.1718  0.4125
  531MOL0     C70014   6.241   7.456   7.863  0.1510 -0.1776  0.5169
  531MOL0     C70015   6.162   7.388   7.955 -0.8507  0.8462 -0.5832
  531MOL0     C70016   6.084   7.457   8.056 -0.2776 -0.2088 -0.7401
  531MOL0     C70017   6.073   7.594   8.050 -0.3991 -0.0858  0.3547
  531MOL0     O70018   5.984   7.672   8.118 -0.7954 -0.6631  0.1645
  531MOL0     C70019   5.978   7.675   8.258  0.7095  0.3284  0.8329
  531MOL0     C70020   5.924   7.547   8.331 -0.0689  0.1059 -0.4021
  531MOL0     C70021   5.785   7.509   8.278 -0.1124  0.0752  0.3610
  531MOL0     C70022   5.720   7.407   8.379 -0.0114 -0.1517 -0.0408
  531MOL0     C70023   5.622   7.313   8.314 -0.3564 -0.7621  0.4016
  531MOL0     C70024   5.550   7.244   8.244 -0.1990 -0.2168  0.6869
  531MOL0     C70025   6.143   7.659   7.945  0.0591  1.0376 -0.0666
  531MOL0     C70026   6.228   7.600   7.851 -0.0478  1.4873 -0.4873
  531MOL0     H70027   6.402   7.316   7.497  0.1175  0.5073  0.0216
  531MOL0     H70028   6.598   7.206   7.364 -1.1672 -0.8397  0.4471
  531MOL0     H70029   6.834   7.185   7.257  0.2249 -0.3966 -0.8938
  531MOL0     H70030   6.761   7.043   7.354 -0.1574  0.3663  2.0330
  531MOL0     H70031   6.965   6.960   7.396  0.7968 -1.4430 -0.9325
  531MOL0     H70032   7.058   7.103   7.343 -0.4641  1.7865  1.3444
  531MOL0     H70033   6.913   6.895   7.152 -0.8378 -0.1526  1.3750
  531MOL0     H70034   7.076   6.923   7.187 -0.0798  0.5685 -3.6866
  531MOL0     H70035   6.872   7.093   7.038 -0.0696 -0.0094 -1.1453
  531MOL0     H70036   7.018   7.168   7.103 -2.1900  1.0834 -0.2301
  531MOL0     H70037   7.133   6.965   6.962 -0.5030  1.3174  4.3143
  531MOL0     H70038   7.112   7.117   6.890 -0.3776  0.1528  1.2197
  531MOL0     H70039   6.907   7.076   6.778  1.0150 -1.0783 -3.0323
  531MOL0     H70040   6.870   6.930   6.868 -0.3155  0.7000  1.0767
  531MOL0     H70041   6.952   6.888   6.633  1.6730  1.5850 -0.3999
  531MOL0     H70042   7.120   6.931   6.690  2.3497 -2.8489  0.8000
  531MOL0     H70043   7.067   6.689   6.678  2.5334  3.3636 -1.0366
  531MOL0     H70044   6.917   6.720   6.775 -0.1175 -1.3835 -2.2073
  531MOL0     H70045   6.926   6.684   7.009 -0.7916 -0.3843 -1.4067
  531MOL0     H70046   7.156   6.726   7.277  0.9698  0.8250 -2.8807
  531MOL0     H70047   7.186   6.547   7.234 -1.0481 -1.1900  0.5879
  531MOL0     H70048   6.963   6.496   7.231  0.4506  1.0423 -2.3073
  531MOL0     H70049   6.904   6.649   7.215 -0.7418  0.2413  0.4554
  531MOL0     H70050   7.018   6.522   7.470  0.6237  1.1827  0.5183
  531MOL0     H70051   7.017   6.696   7.454  1.4637 -1.7427  2.4262
  531MOL0     H70052   6.770   6.563   7.381 -0.9508  1.6245 -0.4518
  531MOL0     H70053   6.795   6.725   7.461  1.7339  0.9802  0.0262
  531MOL0     H70054   6.791   6.507   7.850  0.3722  0.5011 -0.9684
  531MOL0     H70055   6.605   6.575   7.993  0.4555 -0.5263  0.0661
  531MOL0     H70056   6.295   6.948   8.052  4.4043 -0.8105  0.1360
  531MOL0     H70057   6.152   7.054   8.238  0.3090  0.5951  1.2320
  531MOL0     H70058   6.051   6.828   8.609 -0.8973 -2.2523 -1.3203
  531MOL0     H70059   5.951   6.813   8.467  5.1701 -2.5925 -0.6816
  531MOL0     H70060   5.862   7.050   8.540  0.0806  1.0409  1.7922
  531MOL0     H70061   5.942   7.049   8.675 -3.1588  0.7363  2.2508
  531MOL0     H70062   5.699   6.881   8.624  0.5064  0.2254 -1.3327
  531MOL0     H70063   5.756   6.959   8.758 -2.9281 -1.9106 -0.8557
  531MOL0     H70064   5.871   6.701   8.675  1.2369 -0.1602  0.4451
  531MOL0     H70065   5.957   6.794   8.794 -0.9969  1.6662  1.9409
  531MOL0     H70066   5.840   6.798   8.961 -0.2706  4.2536 -2.9929
  531MOL0     H70067   5.839   6.628   8.908 -1.7672 -0.5093  2.2554
  531MOL0     H70068   5.606   6.815   8.854  0.7482  0.3695 -1.1961
  531MOL0     H70069   5.611   6.677   8.968 -0.0596  0.5766 -0.3286
  531MOL0     H70070   5.611   6.668   8.668  1.4182 -3.8321 -1.2817
  531MOL0     H70071   5.669   6.537   8.754 -2.1199 -1.8131 -0.0238
  531MOL0     H70072   5.402   6.674   8.756 -1.9893 -0.9412 -1.3232
  531MOL0     H70073   5.429   6.553   8.889 -0.5079 -1.3201  0.2938
  531MOL0     H70074   6.185   6.720   8.476 -1.7801 -2.8150 -1.4484
  531MOL0     H70075   6.309   6.585   8.287 -1.0404  0.9071  1.2833
  531MOL0     H70076   6.406   6.761   7.674 -0.8871 -1.3248  0.6873
  531MOL0     H70077   6.569   6.688   7.524 -1.3450  1.1535  0.2488
  531MOL0     H70078   6.851   7.341   7.687 -0.3689 -0.0860  0.7953
  531MOL0     H70079   6.668   7.452   7.788  2.1474 -1.4059  1.2227
  531MOL0     H70080   6.152   7.281   7.970 -0.0106  0.7151 -0.9112
  531MOL0     H70081   6.023   7.400   8.125  1.2099 -0.0138  0.7986
  531MOL0     H70082   5.901   7.750   8.279  0.7330  0.6094 -0.0769
  531MOL0     H70083   6.072   7.705   8.305  0.8209  0.5285  0.4797
  531MOL0     H70084   5.986   7.458   8.317  0.8151  0.2219  2.2786
  531MOL0     H70085   5.919   7.568   8.438 -1.0521 -2.2204  0.0745
  531MOL0     H70086   5.800   7.463   8.180 -0.1987  1.2249 -0.2107
  531MOL0     H70087   5.733   7.604   8.266  0.1929  0.0354 -1.5262
  531MOL0     H70088   5.804   7.353   8.425  0.4034  0.2140 -0.3620
  531MOL0     H70089   5.666   7.463   8.456 -2.1407 -0.8383 -0.9566
  531MOL0     H70090   5.484   7.186   8.183  1.6662 -3.4330  1.5078
  531MOL0     H70091   6.142   7.767   7.939  0.4066  1.2527  2.6963
  531MOL0     H70092   6.293   7.640   7.773 -0.0589  2.2968 -0.0941
  532MOL0     O70093   2.318   7.572  10.522  0.0556 -0.3126 -0.2967
  532MOL0     C70094   2.240   7.662  10.473  0.4898 -0.2923  1.0255
  532MOL0     O70095   2.268   7.721  10.353  0.3886 -0.1235 -0.7219
  532MOL0     C70096   2.396   7.698  10.298  0.6297  0.8833 -0.1163
  532MOL0     C70097   2.410   7.623  10.173 -0.5642 -0.4961  0.0084
  532MOL0     C70098   2.529   7.643  10.103  0.8780 -0.3738 -0.5366
  532MOL0     C70099   2.636   7.710  10.157 -0.3224 -0.9496  0.4415
  532MOL0     O70100   2.745   7.739  10.086  0.0150  0.5459  0.3585
  532MOL0     C70101   2.772   7.663   9.966  0.2690  0.1662  0.3175
  532MOL0     C70102   2.820   7.518   9.996 -0.4190 -0.1486 -0.1335
  532MOL0     C70103   2.900   7.449   9.884  0.3719 -0.1350  0.1470
  532MOL0     C70104   2.805   7.429   9.763 -0.2784  0.3075 -0.4695
  532MOL0     C70105   2.878   7.368   9.641 -1.1228  0.2805 -0.9002
  532MOL0     C70106   2.923   7.225   9.670 -0.4634  0.5438 -0.8460
  532MOL0     C70107   2.968   7.153   9.558 -0.6962  0.6738 -0.1981
  532MOL0     C70108   3.104   7.200   9.502 -1.5258  0.4071 -0.9732
  532MOL0     N70109   3.224   7.173   9.584 -0.0759 -0.3841 -0.2951
  532MOL0     C70110   3.298   7.275   9.642 -0.5868  0.3172  0.1732
  532MOL0     C70111   3.413   7.219   9.688  1.1133  0.7059 -0.0625
  532MOL0     C70112   3.524   7.278   9.755 -0.3324 -0.5109 -0.0828
  532MOL0     C70113   3.653   7.267   9.672 -0.4997  0.5209  0.0961
  532MOL0     C70114   3.651   7.355   9.548 -0.3244  0.0181  0.0224
  532MOL0     C70115   3.760   7.340   9.446 -0.2267  0.9863  0.3642
  532MOL0     O70116   3.718   7.400   9.320  0.3518 -1.1693  0.7477
  532MOL0     C70117   3.831   7.421   9.244  0.0699 -2.1495  0.7008
  532MOL0     C70118   3.926   7.522   9.286  0.1259  0.1732  0.2885
  532MOL0     C70119   4.048   7.530   9.216  0.1465  0.4466 -0.3405
  532MOL0     C70120   4.089   7.441   9.123  0.1159  0.3381 -0.2040
  532MOL0     C70121   4.221   7.456   9.053  0.2231 -0.1521  0.3984
  532MOL0     O70122   4.303   7.546   9.102 -0.5285  0.2924  0.4398
  532MOL0     C70123   4.428   7.563   9.049 -0.4646  0.0652 -0.3813
  532MOL0     C70124   4.434   7.623   8.919 -0.5691  0.4515 -0.2478
  532MOL0     C70125   4.564   7.654   8.865  0.0438  0.2238  0.5597
  532MOL0     C70126   4.680   7.630   8.939  1.0664  0.0114 -0.5091
  532MOL0     O70127   4.796   7.655   8.883 -0.3405 -0.6374 -0.8895
  532MOL0     C70128   4.840   7.604   8.760  0.1456  0.2995 -0.0357
  532MOL0     C70129   4.872   7.458   8.765 -0.0611  0.4047 -0.6158
  532MOL0     C70130   5.000   7.419   8.848  0.0462 -0.0425 -0.2047
  532MOL0     C70131   4.969   7.292   8.929  0.5654  0.4689 -0.4136
  532MOL0     C70132   5.071   7.241   9.029  0.5731 -0.5603 -0.1668
  532MOL0     C70133   5.144   7.119   8.965 -0.4447 -0.0753 -0.4998
  532MOL0     C70134   5.204   7.030   9.083 -0.2898 -0.4964  0.4950
  532MOL0     C70135   5.274   6.904   9.037  0.7666  0.1217  0.5646
  532MOL0    Cl70136   5.161   6.791   8.961 -0.0705 -0.4571 -0.1729
  532MOL0     C70137   4.672   7.573   9.066  0.2368  0.1068  1.0512
  532MOL0     C70138   4.547   7.537   9.130 -0.1818  0.2532  0.2707
  532MOL0     O70139   4.250   7.368   8.973  0.4026  0.5291  0.5649
  532MOL0     C70140   3.991   7.342   9.088  0.7343  0.1082  1.2709
  532MOL0     C70141   3.857   7.343   9.135  0.5065  0.5413  0.6176
  532MOL0     N70142   3.406   7.085   9.649  0.0766  1.2502  0.6277
  532MOL0     N70143   3.287   7.056   9.602 -0.3828 -0.5972 -0.1941
  532MOL0     C70144   2.626   7.763  10.286 -0.3826 -0.1791  0.1294
  532MOL0     C70145   2.501   7.761  10.352 -0.9742 -0.7627  0.3669
  532MOL0     C70146   2.120   7.686  10.543  0.4873  1.1528 -0.5420
  532MOL0     C70147   2.032   7.784  10.507  0.0752 -0.4595  0.2898
  532MOL0     C70148   1.905   7.801  10.556  0.4805  0.1197 -0.3483
  532MOL0     C70149   1.870   7.726  10.673  0.1684 -1.2205 -0.0299
  532MOL0     O70150   1.741   7.743  10.710 -0.6509  0.8781  0.3048
  532MOL0     C70151   1.689   7.699  10.838 -0.8499  0.0543 -0.2197
  532MOL0     C70152   1.706   7.801  10.958 -0.6872  0.7147 -0.7616
  532MOL0     C70153   1.859   7.816  11.016  0.1751 -0.7174  0.0045
  532MOL0     C70154   1.866   7.909  11.141 -0.8909 -0.3848 -0.5482
  532MOL0     C70155   2.008   7.949  11.166 -0.7073  0.0615  0.2969
  532MOL0     C70156   2.105   7.989  11.222 -0.1131 -1.0826 -0.6107
  532MOL0     C70157   1.957   7.636  10.723 -0.4070 -0.1629  0.0484
  532MOL0     C70158   2.078   7.609  10.655 -0.2126  0.0216  1.1571
  532MOL0     H70159   2.323   7.580  10.123 -2.2945  2.5766  0.1436
  532MOL0     H70160   2.522   7.597  10.005 -1.0633 -2.4674  0.4840
  532MOL0     H70161   2.851   7.718   9.913  0.7571 -1.6615 -0.9659
  532MOL0     H70162   2.688   7.673   9.897  0.1910  2.4378  0.6511
  532MOL0     H70163   2.729   7.458  10.010 -0.7894 -0.8435 -4.1894
  532MOL0     H70164   2.877   7.539  10.087 -2.2675  2.3698  0.5671
  532MOL0     H70165   2.936   7.349   9.906 -0.3017 -1.4011 -3.7646
  532MOL0     H70166   2.977   7.519   9.850  0.3533  0.8566  2.0102
  532MOL0     H70167   2.729   7.354   9.784 -0.0657 -0.5123 -2.4869
  532MOL0     H70168   2.767   7.526   9.730  1.6625  0.8054 -1.3831
  532MOL0     H70169   2.975   7.413   9.620 -1.2742  1.2420  0.3684
  532MOL0     H70170   2.809   7.394   9.560 -0.5889  2.9502 -0.6017
  532MOL0     H70171   2.835   7.175   9.712 -0.2002 -1.4039 -2.4598
  532MOL0     H70172   3.009   7.230   9.737  0.2153 -1.5058 -1.4826
  532MOL0     H70173   2.976   7.046   9.579 -1.0571  0.2778 -1.9296
  532MOL0     H70174   2.897   7.172   9.477 -1.2489  1.6589  0.5028
  532MOL0     H70175   3.105   7.309   9.487 -0.0314  0.7419  1.1025
  532MOL0     H70176   3.121   7.139   9.414  0.2582 -0.8990  0.2091
  532MOL0     H70177   3.269   7.380   9.639 -0.4639  0.3290 -0.6284
  532MOL0     H70178   3.546   7.238   9.854  2.4962 -0.2471 -0.4998
  532MOL0     H70179   3.510   7.383   9.783  0.4492 -0.6822  0.9898
  532MOL0     H70180   3.656   7.160   9.649 -1.4820  0.2905  0.9440
  532MOL0     H70181   3.743   7.288   9.729  1.0650  2.9019 -2.9844
  532MOL0     H70182   3.560   7.324   9.495 -0.6672 -2.8022  2.0335
  532MOL0     H70183   3.649   7.460   9.578 -0.3557  0.5157 -1.5988
  532MOL0     H70184   3.781   7.234   9.438  0.1442  0.9926  1.2470
  532MOL0     H70185   3.855   7.380   9.482 -0.7096  1.2749  1.3625
  532MOL0     H70186   3.910   7.594   9.365 -0.6603  2.4938 -1.8292
  532MOL0     H70187   4.111   7.615   9.242 -0.6741  0.6315  1.1031
  532MOL0     H70188   4.344   7.658   8.870  0.6016  1.9276 -1.4449
  532MOL0     H70189   4.566   7.695   8.764  0.2155 -0.1377  0.4138
  532MOL0     H70190   4.926   7.658   8.720 -1.1059  0.5461 -2.5495
  532MOL0     H70191   4.762   7.603   8.683 -0.9646 -0.4408  1.0520
  532MOL0     H70192   4.882   7.422   8.663 -1.6836 -1.2553 -0.2554
  532MOL0     H70193   4.784   7.408   8.808 -1.7368  2.1938 -1.7560
  532MOL0     H70194   5.026   7.503   8.913  1.8565 -0.8982  0.2550
  532MOL0     H70195   5.079   7.407   8.774 -2.0024 -2.3352 -2.2048
  532MOL0     H70196   4.873   7.303   8.982 -0.4812 -0.5682 -2.0135
  532MOL0     H70197   4.945   7.216   8.854  0.6667 -1.3570  1.3227
  532MOL0     H70198   5.026   7.213   9.125 -0.1809  1.2470  0.0329
  532MOL0     H70199   5.151   7.309   9.059  1.2708 -1.3673 -0.1394
  532MOL0     H70200   5.223   7.149   8.896  2.0141 -2.6012  1.0243
  532MOL0     H70201   5.070   7.048   8.926 -0.4886 -0.2408 -0.1185
  532MOL0     H70202   5.260   7.090   9.155  0.9594 -0.1850 -0.6964
  532MOL0     H70203   5.117   7.002   9.144 -0.4029  0.3574  0.7330
  532MOL0     H70204   5.320   6.837   9.110 -1.0365 -1.5398  0.2454
  532MOL0     H70205   5.353   6.947   8.975 -1.1908  0.6653 -1.6638
  532MOL0     H70206   4.758   7.538   9.124  1.1807 -0.7837 -0.7898
  532MOL0     H70207   4.539   7.490   9.227  2.9015  0.2086  0.6142
  532MOL0     H70208   4.022   7.282   9.003  2.3230  0.3246  1.6496
  532MOL0     H70209   3.788   7.267   9.099  0.1849  1.3014 -0.3939
  532MOL0     H70210   2.699   7.826  10.336 -1.9151  2.2771 -0.4985
  532MOL0     H70211   2.475   7.811  10.445 -2.0980  2.0338 -1.3360
  532MOL0     H70212   2.055   7.859  10.431 -1.9134  2.2918  2.2158
  532MOL0     H70213   1.833   7.869  10.512  0.4653 -0.8649 -1.9094
  532MOL0     H70214   1.735   7.605  10.871  1.6154  1.1321 -0.3372
  532MOL0     H70215   1.582   7.680  10.832 -1.0504  1.1172 -0.0733
  532MOL0     H70216   1.668   7.901  10.935  0.5354  1.2291 -0.6072
  532MOL0     H70217   1.634   7.773  11.035 -2.0059 -1.0381 -2.5347
  532MOL0     H70218   1.925   7.855  10.938 -0.0181  3.4037  1.6616
  532MOL0     H70219   1.901   7.721  11.050 -0.1009 -0.3542  1.4099
  532MOL0     H70220   1.808   7.999  11.120  0.9195  0.4346 -2.3247
  532MOL0     H70221   1.830   7.854  11.228  4.0451  0.3899  2.3719
  532MOL0     H70222   2.179   8.022  11.292 -0.7348 -0.7746 -0.0836
  532MOL0     H70223   1.938   7.576  10.812 -1.2710 -1.1074 -0.7487
  532MOL0     H70224   2.139   7.525  10.685  1.2918  1.1042  1.3070
  533MOL0     O70225   6.770   6.756  11.045 -0.1616 -0.5676 -0.5896
  533MOL0     C70226   6.710   6.862  11.079 -0.2573  0.1816 -0.0462
  533MOL0     O70227   6.599   6.867  11.150  0.5763  0.3082  0.2824
  533MOL0     C70228   6.534   6.752  11.200  0.1639 -0.1700  0.5191
  533MOL0     C70229   6.391   6.748  11.221  0.2542 -0.2168  0.7982
  533MOL0     C70230   6.325   6.640  11.279 -0.8567  0.3275  0.0566
  533MOL0     C70231   6.391   6.526  11.335 -0.1659 -0.9496 -1.2299
  533MOL0     O70232   6.340   6.433  11.413 -0.0230 -0.4018 -0.2056
  533MOL0     C70233   6.203   6.445  11.458  0.2109  0.5507 -0.2272
  533MOL0     C70234   6.144   6.315  11.527 -0.4583 -0.9604  0.3309
  533MOL0     C70235   6.108   6.216  11.420  0.4693  0.1536 -0.0835
  533MOL0     C70236   6.074   6.079  11.472 -0.1116  0.3652 -0.8350
  533MOL0     C70237   6.087   5.969  11.363 -0.3657  0.4045 -0.5214
  533MOL0     C70238   6.035   5.841  11.425  0.1119 -0.1990  0.0551
  533MOL0     C70239   5.884   5.831  11.429  0.2807 -0.4871  0.3801
  533MOL0     C70240   5.822   5.704  11.487 -0.5784 -0.4441 -0.1338
  533MOL0     N70241   5.712   5.654  11.404 -0.6286  0.1724  0.6910
  533MOL0     C70242   5.592   5.613  11.446 -0.9561  0.0293 -0.7853
  533MOL0     C70243   5.531   5.561  11.335 -1.0441 -0.2591 -0.6800
  533MOL0     C70244   5.406   5.480  11.314  0.0405 -0.8789 -0.3770
  533MOL0     C70245   5.289   5.572  11.263 -0.1969  0.5260  0.4908
  533MOL0     C70246   5.252   5.693  11.352  0.0429  0.2202 -0.8997
  533MOL0     C70247   5.120   5.757  11.320  0.4195  0.0351  0.4544
  533MOL0     O70248   5.011   5.664  11.314 -0.0199  0.1497  0.0746
  533MOL0     C70249   4.902   5.707  11.254  0.2001 -0.1916 -0.2857
  533MOL0     C70250   4.880   5.691  11.120  0.3560 -0.9601 -0.1959
  533MOL0     C70251   4.776   5.751  11.048 -0.7453 -0.1224 -0.3747
  533MOL0     C70252   4.676   5.827  11.117 -0.2916  0.2322 -0.0858
  533MOL0     C70253   4.569   5.906  11.040 -0.3368  0.3968  0.1421
  533MOL0     O70254   4.470   5.964  11.110  0.1346  0.5391  0.1635
  533MOL0     C70255   4.378   6.030  11.033 -0.6387 -0.9394  1.0203
  533MOL0     C70256   4.412   6.154  10.977 -0.2840 -1.2681 -0.4593
  533MOL0     C70257   4.322   6.232  10.900 -0.2398 -0.0177 -0.0083
  533MOL0     C70258   4.186   6.198  10.887 -0.2035  0.3346  0.6990
  533MOL0     O70259   4.093   6.273  10.823  0.6752  0.0988  0.0522
  533MOL0     C70260   3.959   6.225  10.846  0.8028  0.5868  0.5160
  533MOL0     C70261   3.862   6.335  10.799 -0.0211  1.2082 -0.1257
  533MOL0     C70262   3.718   6.292  10.827  0.9889 -0.0998 -0.7056
  533MOL0     C70263   3.617   6.387  10.752  0.2879  0.4019 -0.6266
  533MOL0     C70264   3.469   6.350  10.784  0.4208 -0.6596 -0.2289
  533MOL0     C70265   3.377   6.398  10.672 -0.2633 -0.4828 -0.3731
  533MOL0     C70266   3.227   6.362  10.686 -0.1765  0.1436 -0.3476
  533MOL0     C70267   3.204   6.206  10.654 -0.3701 -0.3472  0.3132
  533MOL0    Cl70268   3.217   6.106  10.799 -0.2172  0.4169 -0.2269
  533MOL0     C70269   4.150   6.065  10.935 -0.7219  0.4747  0.4951
  533MOL0     C70270   4.250   5.979  11.003  0.1502 -0.2101  0.1063
  533MOL0     O70271   4.575   5.890  10.922 -1.3069 -0.1910 -0.2385
  533MOL0     C70272   4.695   5.840  11.254  0.4716 -0.5601 -0.7461
  533MOL0     C70273   4.809   5.787  11.324  0.2202  0.8352 -0.3625
  533MOL0     N70274   5.616   5.580  11.230  0.9971 -0.1278  0.0516
  533MOL0     N70275   5.726   5.629  11.268  0.6988  0.3938 -0.1390
  533MOL0     C70276   6.530   6.528  11.315  0.4009 -0.6184  0.7216
  533MOL0     C70277   6.597   6.638  11.244  0.4685  0.6747  0.4183
  533MOL0     C70278   6.781   6.984  11.048  0.0801  0.1602  0.0224
  533MOL0     C70279   6.755   7.116  11.108  0.1008  0.5931 -0.1267
  533MOL0     C70280   6.840   7.225  11.073 -0.9365 -0.0223 -0.4187
  533MOL0     C70281   6.936   7.214  10.970  0.7562  0.0960 -0.5568
  533MOL0     O70282   6.996   7.328  10.925  0.4208  0.1911 -0.1971
  533MOL0     C70283   7.134   7.333  10.913  0.7610 -0.1561 -0.1227
  533MOL0     C70284   7.203   7.360  11.048 -0.3497  0.2801  0.5744
  533MOL0     C70285   7.356   7.399  11.016  0.8238  0.2028 -0.4361
  533MOL0     C70286   7.461   7.313  11.082  0.2823 -0.5600  0.3089
  533MOL0     C70287   7.419   7.284  11.213 -0.6462  0.6582  0.1198
  533MOL0     C70288   7.367   7.259  11.318  0.0147  0.0779 -0.4599
  533MOL0     C70289   6.964   7.088  10.920  0.7841 -0.1345 -0.3424
  533MOL0     C70290   6.889   6.979  10.955 -0.7077 -0.6836  0.4751
  533MOL0     H70291   6.336   6.838  11.195 -0.9417 -0.6078  1.8995
  533MOL0     H70292   6.217   6.651  11.283 -0.7045  1.5365  1.6836
  533MOL0     H70293   6.137   6.477  11.376  1.0618 -0.0929 -1.1815
  533MOL0     H70294   6.195   6.531  11.526 -5.5912 -0.7941  1.3702
  533MOL0     H70295   6.050   6.330  11.582 -0.7969 -1.7568 -0.0209
  533MOL0     H70296   6.225   6.285  11.594 -0.4614  0.7350  1.1600
  533MOL0     H70297   6.201   6.196  11.366  1.2151  1.5472  0.6185
  533MOL0     H70298   6.039   6.245  11.341  4.0011 -0.7865 -3.8628
  533MOL0     H70299   6.144   6.060  11.554 -0.4965  2.7102  0.1168
  533MOL0     H70300   5.976   6.082  11.520  0.1316  0.1191 -0.3138
  533MOL0     H70301   6.193   5.945  11.347 -0.8272 -1.4522 -1.0084
  533MOL0     H70302   6.027   6.000  11.278 -4.3125  0.1402  1.9348
  533MOL0     H70303   6.081   5.831  11.524  3.3835 -0.0560 -1.3004
  533MOL0     H70304   6.058   5.749  11.369  1.5472  0.1658  0.0105
  533MOL0     H70305   5.837   5.919  11.474 -0.8272  0.3459 -2.2111
  533MOL0     H70306   5.846   5.831  11.327 -3.2994 -1.6787  1.5623
  533MOL0     H70307   5.776   5.719  11.585  0.3389 -0.1017  0.2513
  533MOL0     H70308   5.903   5.636  11.516 -0.3038 -0.3429 -0.6598
  533MOL0     H70309   5.543   5.588  11.540  2.0587 -0.9839  0.6494
  533MOL0     H70310   5.377   5.441  11.412 -1.7383  0.3867 -0.3314
  533MOL0     H70311   5.429   5.394  11.252 -1.2111 -4.0620  3.1844
  533MOL0     H70312   5.203   5.506  11.252 -0.1831  0.6272 -0.3379
  533MOL0     H70313   5.321   5.606  11.163  0.9635 -1.2325  0.2244
  533MOL0     H70314   5.234   5.671  11.458 -3.4824  1.9602 -0.9911
  533MOL0     H70315   5.337   5.760  11.347  0.0990  0.2950  0.5452
  533MOL0     H70316   5.115   5.818  11.229 -0.4267 -0.0662  0.4307
  533MOL0     H70317   5.101   5.826  11.402  0.7139  0.5722  0.0780
  533MOL0     H70318   4.959   5.633  11.072  0.4043 -0.6726 -0.4657
  533MOL0     H70319   4.790   5.745  10.941  1.0675 -2.7699 -0.0828
  533MOL0     H70320   4.515   6.180  10.996 -0.9324  0.0837  1.5696
  533MOL0     H70321   4.348   6.326  10.852 -1.0214  0.0457 -0.3191
  533MOL0     H70322   3.936   6.204  10.952 -1.1345  1.3006  0.2749
  533MOL0     H70323   3.953   6.132  10.790 -0.7142  0.8619  0.1702
  533MOL0     H70324   3.889   6.347  10.694  0.8864 -0.6696 -0.1524
  533MOL0     H70325   3.892   6.427  10.848 -1.0664  1.0561  0.8455
  533MOL0     H70326   3.697   6.293  10.934  1.0406  3.0617 -0.6319
  533MOL0     H70327   3.690   6.191  10.797  1.3908 -0.5664  0.4645
  533MOL0     H70328   3.630   6.484  10.799  1.5887 -0.1024  0.1012
  533MOL0     H70329   3.640   6.389  10.645  1.9666 -2.4275 -0.4135
  533MOL0     H70330   3.435   6.399  10.876 -1.2104 -2.8437  0.4224
  533MOL0     H70331   3.469   6.241  10.797  0.7239 -0.5895  0.3924
  533MOL0     H70332   3.421   6.367  10.577  3.2252  1.4853  0.4324
  533MOL0     H70333   3.380   6.507  10.682 -0.9084 -0.4280 -0.7077
  533MOL0     H70334   3.211   6.376  10.793  3.0806 -1.4807  0.5046
  533MOL0     H70335   3.159   6.416  10.619 -0.4679  0.6777  0.3698
  533MOL0     H70336   3.264   6.172  10.569 -2.1919  0.5929 -1.4344
  533MOL0     H70337   3.099   6.193  10.624  0.7070 -2.1346 -3.2982
  533MOL0     H70338   4.056   6.015  10.913 -1.1435  0.3164  2.4805
  533MOL0     H70339   4.228   5.879  11.041 -3.7189  1.0535  1.7523
  533MOL0     H70340   4.628   5.904  11.311  1.4120  0.6074 -0.9159
  533MOL0     H70341   4.829   5.792  11.431 -0.2993 -3.0157  0.0846
  533MOL0     H70342   6.597   6.450  11.348  0.3444 -1.1924 -0.4665
  533MOL0     H70343   6.705   6.644  11.245  0.6452 -1.5667  2.0864
  533MOL0     H70344   6.675   7.129  11.181  0.0468 -1.4117  0.2194
  533MOL0     H70345   6.817   7.323  11.113  2.5098 -0.4085  3.0564
  533MOL0     H70346   7.155   7.403  10.831 -1.6513  0.7969 -0.0121
  533MOL0     H70347   7.164   7.231  10.887 -0.0112 -1.0733  2.3324
  533MOL0     H70348   7.162   7.453  11.090 -0.7261  1.5926 -2.4561
  533MOL0     H70349   7.191   7.276  11.118  0.1027  2.1189  2.9746
  533MOL0     H70350   7.374   7.505  11.038  0.3291  0.8132 -2.6805
  533MOL0     H70351   7.373   7.399  10.908  0.1827  3.7908 -0.6649
  533MOL0     H70352   7.472   7.222  11.022 -0.4071 -0.8266  0.5829
  533MOL0     H70353   7.554   7.369  11.096 -0.3868  1.3013 -1.9411
  533MOL0     H70354   7.328   7.213  11.406 -2.5221 -0.7573 -1.9299
  533MOL0     H70355   7.040   7.065  10.845 -0.8509  0.9192 -2.4263
  533MOL0     H70356   6.922   6.884  10.915  1.6987 -0.8998  2.7101
  534MOL0     O70357   8.539   9.929  10.559  0.0792  0.2733 -0.4086
  534MOL0     C70358   8.548   9.929  10.437  0.0032 -0.6281  0.9265
  534MOL0     O70359   8.446   9.924  10.343  0.3280  0.5796  0.4996
  534MOL0     C70360   8.333   9.973  10.400  0.5478  0.8547 -0.2324
  534MOL0     C70361   8.320  10.112  10.428  0.6707  0.7870  0.1786
  534MOL0     C70362   8.202  10.159  10.493 -0.5884  0.2111  1.9342
  534MOL0     C70363   8.089  10.075  10.508  0.3030 -0.5764 -0.8166
  534MOL0     O70364   7.974  10.130  10.569  0.0567 -0.1556 -0.1811
  534MOL0     C70365   7.851  10.049  10.570 -0.3916 -0.2533 -0.0201
  534MOL0     C70366   7.827   9.986  10.700  0.5336 -0.4862 -0.0687
  534MOL0     C70367   7.681   9.953  10.732  0.4625  0.2137 -0.1100
  534MOL0     C70368   7.661   9.951  10.881  0.6058 -0.1923 -0.5369
  534MOL0     C70369   7.527   9.881  10.908  0.4816 -0.7951  0.2197
  534MOL0     C70370   7.497   9.862  11.059  0.2076  0.0094  0.0242
  534MOL0     C70371   7.617   9.832  11.151  0.6196  0.3264 -0.1892
  534MOL0     C70372   7.565   9.783  11.291 -0.2225 -0.4452 -1.1203
  534MOL0     N70373   7.490   9.897  11.359 -0.4260  0.7287  0.0971
  534MOL0     C70374   7.366   9.902  11.419 -1.7956 -0.2080 -0.1268
  534MOL0     C70375   7.342  10.033  11.443  0.8580 -0.6776  1.3516
  534MOL0     C70376   7.212  10.085  11.515 -0.8065  0.1881 -0.1510
  534MOL0     C70377   7.153  10.209  11.439  0.6843  0.0469 -0.0345
  534MOL0     C70378   7.109  10.174  11.299  0.0217  0.5603 -0.5077
  534MOL0     C70379   7.052  10.294  11.229 -0.3594 -1.5620  0.2386
  534MOL0     O70380   6.933  10.265  11.140  0.4301  0.2508  0.5942
  534MOL0     C70381   6.817  10.251  11.208 -0.3863 -0.0585 -0.2530
  534MOL0     C70382   6.765  10.358  11.289 -0.1531  0.6110 -0.8266
  534MOL0     C70383   6.635  10.339  11.339 -0.4694  0.1338 -0.1786
  534MOL0     C70384   6.554  10.221  11.315 -0.1952 -0.2242  0.2110
  534MOL0     C70385   6.418  10.188  11.370 -0.6131 -0.5411 -0.2850
  534MOL0     O70386   6.364  10.065  11.340 -0.2475  0.4322 -0.1654
  534MOL0     C70387   6.243  10.040  11.402 -0.4004 -1.1141  0.1974
  534MOL0     C70388   6.230   9.937  11.498  0.2896 -0.2238  0.0107
  534MOL0     C70389   6.107   9.902  11.557 -0.9902  0.0157  0.3948
  534MOL0     C70390   5.986   9.972  11.520 -0.7290  0.0687  0.1124
  534MOL0     O70391   5.867   9.928  11.553 -0.5116  0.6245  0.1894
  534MOL0     C70392   5.857   9.780  11.559 -0.4837 -0.6607  0.1234
  534MOL0     C70393   5.710   9.731  11.538 -0.0231  0.1360  0.4249
  534MOL0     C70394   5.640   9.803  11.417  0.1650  0.1539  0.3870
  534MOL0     C70395   5.512   9.728  11.376 -0.4199 -0.2190  0.0120
  534MOL0     C70396   5.416   9.811  11.280 -0.0001  0.6690 -0.5221
  534MOL0     C70397   5.370   9.945  11.344  0.1131 -0.2419 -0.0601
  534MOL0     C70398   5.311   9.919  11.491 -0.2273 -0.2094  0.7378
  534MOL0     C70399   5.228  10.030  11.529 -0.1381 -0.8469  0.2872
  534MOL0    Cl70400   5.116   9.991  11.660 -0.0043  0.4429  0.0264
  534MOL0     C70401   6.003  10.074  11.425  0.2553 -0.0784 -0.8490
  534MOL0     C70402   6.130  10.120  11.371  1.0126  0.1065 -0.6424
  534MOL0     O70403   6.370  10.267  11.455  0.9848  0.7356 -0.0209
  534MOL0     C70404   6.605  10.137  11.219 -0.4032  0.5706  0.0832
  534MOL0     C70405   6.736  10.148  11.172 -0.4540  0.3562  0.2837
  534MOL0     N70406   7.458  10.095  11.418 -0.8248  0.2931 -0.1297
  534MOL0     N70407   7.539  10.016  11.367  0.6526 -0.0621  0.3341
  534MOL0     C70408   8.107   9.940  10.466 -0.7217  1.5784 -0.1397
  534MOL0     C70409   8.224   9.884  10.425  1.9350 -0.3236  0.2480
  534MOL0     C70410   8.687   9.926  10.384  0.3217 -0.7113 -0.3222
  534MOL0     C70411   8.799   9.900  10.457 -0.0565  0.7865  0.3384
  534MOL0     C70412   8.926   9.907  10.402 -0.5273  0.5422  0.7902
  534MOL0     C70413   8.944   9.914  10.262 -0.1720 -0.6362  0.6332
  534MOL0     O70414   9.058   9.903  10.187  0.6836 -0.0601 -0.0457
  534MOL0     C70415   9.184   9.881  10.253 -0.1448 -0.0440 -0.3565
  534MOL0     C70416   9.295   9.829  10.152 -0.2280  0.3231  0.1251
  534MOL0     C70417   9.358   9.954  10.085  0.5780 -0.4394 -0.0876
  534MOL0     C70418   9.438   9.926   9.965  0.6318 -0.1167  0.1484
  534MOL0     C70419   9.496  10.050   9.913 -0.9826  0.5314 -1.1856
  534MOL0     C70420   9.538  10.148   9.864  0.0526  0.5325  0.6598
  534MOL0     C70421   8.829   9.932  10.194  0.0628  0.1695  1.0103
  534MOL0     C70422   8.706   9.936  10.248 -0.4068  0.2541  0.1840
  534MOL0     H70423   8.396  10.189  10.419 -3.2042  4.8331 -1.4122
  534MOL0     H70424   8.198  10.262  10.528  0.3577  0.5939  0.9666
  534MOL0     H70425   7.857   9.964  10.502 -0.1324  0.1790 -0.5405
  534MOL0     H70426   7.778  10.122  10.535  4.2879  4.6380 -0.8919
  534MOL0     H70427   7.872  10.054  10.773  0.2201 -0.3895  0.0366
  534MOL0     H70428   7.890   9.897  10.688  1.4151  0.1381 -0.1982
  534MOL0     H70429   7.653   9.855  10.692  2.1419 -0.6296  0.6718
  534MOL0     H70430   7.611  10.025  10.687  1.5133 -0.7172 -3.5218
  534MOL0     H70431   7.740   9.888  10.923 -0.7213 -3.2379 -2.2923
  534MOL0     H70432   7.651  10.054  10.916 -1.0514 -0.9008  1.2233
  534MOL0     H70433   7.529   9.777  10.872  0.4055 -0.2549 -1.3818
  534MOL0     H70434   7.434   9.924  10.870  0.5542  0.3998  1.3424
  534MOL0     H70435   7.425   9.780  11.062 -0.0216  0.1377 -1.3263
  534MOL0     H70436   7.445   9.953  11.089 -2.4651 -1.4890  0.2392
  534MOL0     H70437   7.686   9.764  11.100  0.9093  1.1717 -0.9526
  534MOL0     H70438   7.678   9.919  11.180  1.9717 -0.8738  0.7246
  534MOL0     H70439   7.649   9.764  11.359 -0.2190  1.4826 -0.5178
  534MOL0     H70440   7.503   9.695  11.273 -0.1780 -0.0382 -3.5450
  534MOL0     H70441   7.295   9.822  11.439 -2.5928  0.8552  1.6010
  534MOL0     H70442   7.255  10.124  11.607  1.1983  1.8817 -1.7127
  534MOL0     H70443   7.146  10.000  11.537 -0.3236 -0.7932 -2.2322
  534MOL0     H70444   7.233  10.283  11.440  1.3257 -0.4985 -2.7237
  534MOL0     H70445   7.075  10.239  11.510  1.7886 -1.3031  1.8412
  534MOL0     H70446   7.189  10.129  11.239  3.6778  3.0310  2.1456
  534MOL0     H70447   7.035  10.093  11.309  1.7860 -1.0378  0.1213
  534MOL0     H70448   7.126  10.336  11.160  1.1423 -0.9660  2.1479
  534MOL0     H70449   7.034  10.370  11.305  0.2247 -1.1841  0.0125
  534MOL0     H70450   6.815  10.452  11.310  1.1232 -0.6107  2.2645
  534MOL0     H70451   6.592  10.403  11.415 -1.4672  0.5397 -1.0616
  534MOL0     H70452   6.322   9.886  11.521  0.7079  1.5900  2.7783
  534MOL0     H70453   6.106   9.814  11.621  0.6917  1.4686  2.5660
  534MOL0     H70454   5.896   9.749  11.656  0.2575  5.0650  2.0064
  534MOL0     H70455   5.908   9.723  11.481 -3.2433  0.0462 -2.4116
  534MOL0     H70456   5.640   9.743  11.621 -2.4911  0.0096 -1.5172
  534MOL0     H70457   5.724   9.623  11.537 -0.5737  0.0625 -0.7193
  534MOL0     H70458   5.708   9.805  11.331 -0.6451  2.7342 -0.2717
  534MOL0     H70459   5.624   9.906  11.449  1.1089  0.3768  0.1899
  534MOL0     H70460   5.532   9.629  11.335  2.5549  0.4379 -0.3140
  534MOL0     H70461   5.459   9.710  11.470  1.2258 -3.0118  0.5119
  534MOL0     H70462   5.334   9.740  11.270 -0.4592  1.1860 -0.5150
  534MOL0     H70463   5.461   9.845  11.186  1.0382 -1.7963 -0.9811
  534MOL0     H70464   5.305   9.988  11.267  3.1952  2.7154 -1.2213
  534MOL0     H70465   5.455  10.011  11.361 -1.1850  1.6059 -0.3361
  534MOL0     H70466   5.253   9.826  11.493 -2.5772  1.1599  0.0196
  534MOL0     H70467   5.394   9.909  11.561  1.7599  3.0600 -0.8957
  534MOL0     H70468   5.161  10.048  11.444 -0.8660 -3.4638  0.2035
  534MOL0     H70469   5.281  10.122  11.553 -1.3968  0.0123 -0.1330
  534MOL0     H70470   5.906  10.115  11.403  1.0159  1.5492 -1.2952
  534MOL0     H70471   6.136  10.203  11.301  0.6590  1.0492  0.4209
  534MOL0     H70472   6.551  10.046  11.193  0.3042  0.6779 -1.9962
  534MOL0     H70473   6.779  10.065  11.117  0.0199  1.2280 -0.6982
  534MOL0     H70474   8.032   9.861  10.467  0.4855  0.1958 -3.7708
  534MOL0     H70475   8.226   9.776  10.410  0.1392 -0.3104 -0.2572
  534MOL0     H70476   8.781   9.889  10.563 -1.3916  0.9565  0.1489
  534MOL0     H70477   9.019   9.886  10.455  0.1219  2.1222  0.3295
  534MOL0     H70478   9.178   9.794  10.319 -2.1615 -1.9889 -2.9128
  534MOL0     H70479   9.212   9.970  10.310 -0.5154 -0.5952  0.7196
  534MOL0     H70480   9.364   9.778  10.221 -3.1261 -1.5286  1.8995
  534MOL0     H70481   9.243   9.754  10.091 -0.8283  1.0934 -0.3205
  534MOL0     H70482   9.423   9.991  10.165  1.3795 -4.5486  1.3893
  534MOL0     H70483   9.278  10.025  10.062  1.0621 -0.0310 -0.5366
  534MOL0     H70484   9.526   9.864   9.985  1.2471  0.5554 -0.4133
  534MOL0     H70485   9.383   9.888   9.879 -0.1840 -0.0360  0.6264
  534MOL0     H70486   9.580  10.240   9.828  2.1862 -0.6162  0.0104
  534MOL0     H70487   8.830   9.934  10.086  2.2081  0.4945  0.9935
  534MOL0     H70488   8.624   9.923  10.178  0.1810  2.3553 -0.9957
  535MOL0     O70489   8.998   1.993   1.575 -0.3483  0.1227  0.1702
  535MOL0     C70490   9.079   1.906   1.595 -0.2270  0.2005 -0.2064
  535MOL0     O70491   9.057   1.782   1.654 -0.2047 -0.1734 -0.1197
  535MOL0     C70492   8.932   1.755   1.713 -0.2189 -0.7868  0.7862
  535MOL0     C70493   8.877   1.854   1.790  0.0797 -0.3561 -0.2993
  535MOL0     C70494   8.751   1.839   1.845 -0.4599  0.4251  0.8349
  535MOL0     C70495   8.684   1.717   1.830  0.3462  0.2944  0.2599
  535MOL0     O70496   8.554   1.694   1.870 -0.2264  0.1545  0.0161
  535MOL0     C70497   8.503   1.782   1.963  0.7461 -0.1358 -0.4894
  535MOL0     C70498   8.372   1.735   2.026  0.6515 -0.4031 -0.3097
  535MOL0     C70499   8.404   1.645   2.137  0.0049  0.1246  0.3861
  535MOL0     C70500   8.296   1.586   2.220  0.7648 -0.5144  0.1130
  535MOL0     C70501   8.243   1.676   2.326 -0.0108 -0.5953 -0.1546
  535MOL0     C70502   8.178   1.585   2.432  0.2878  0.2312 -0.2923
  535MOL0     C70503   8.128   1.657   2.562  0.2803  0.1744 -0.4527
  535MOL0     C70504   8.127   1.561   2.675 -0.8525  0.4035  0.1480
  535MOL0     N70505   8.035   1.606   2.779  0.3822  0.0604  1.1412
  535MOL0     C70506   7.900   1.580   2.772  0.3978  0.7366 -0.6342
  535MOL0     C70507   7.853   1.601   2.895  0.0640  0.1840 -0.5626
  535MOL0     C70508   7.712   1.605   2.939  0.4303  0.1837 -0.3548
  535MOL0     C70509   7.675   1.481   3.016 -1.0794 -0.4900  1.3952
  535MOL0     C70510   7.528   1.505   3.045 -0.5516 -0.1183 -0.1421
  535MOL0     C70511   7.449   1.391   3.104  0.0129  0.3413  0.1134
  535MOL0     O70512   7.318   1.442   3.136  0.2022 -0.2700 -1.0257
  535MOL0     C70513   7.253   1.353   3.217 -0.0026  0.7031 -0.2653
  535MOL0     C70514   7.263   1.374   3.364 -0.1477  0.7644  0.7220
  535MOL0     C70515   7.200   1.289   3.449  0.0955  0.3976 -1.0251
  535MOL0     C70516   7.121   1.180   3.408  0.9833 -0.0300  0.2664
  535MOL0     C70517   7.057   1.089   3.513 -0.1967 -0.0299 -0.0892
  535MOL0     O70518   7.084   1.124   3.641  0.5269  0.1972 -0.7767
  535MOL0     C70519   7.018   1.061   3.742 -0.1215  0.0789 -0.1623
  535MOL0     C70520   6.979   1.146   3.845  0.3590 -0.2921  0.0369
  535MOL0     C70521   6.918   1.093   3.956 -0.6787  0.0441 -0.3916
  535MOL0     C70522   6.897   0.953   3.963  0.0939 -1.0692 -0.4974
  535MOL0     O70523   6.829   0.898   4.064 -0.2252 -0.5735 -0.5454
  535MOL0     C70524   6.706   0.955   4.120 -0.3555 -0.2835 -0.1739
  535MOL0     C70525   6.589   0.907   4.047 -0.5576  0.3029 -0.3228
  535MOL0     C70526   6.577   0.753   4.030 -0.7012 -0.2658 -0.2520
  535MOL0     C70527   6.513   0.723   3.900  0.2083 -0.6972  1.0101
  535MOL0     C70528   6.475   0.580   3.879  0.5958 -1.0132  1.1444
  535MOL0     C70529   6.398   0.585   3.750  0.3775 -0.2128 -0.1436
  535MOL0     C70530   6.322   0.447   3.738 -0.6051 -0.5808 -0.4853
  535MOL0     C70531   6.197   0.457   3.818  0.6726  0.4344 -0.2890
  535MOL0    Cl70532   6.092   0.314   3.790 -0.1532 -0.6187 -0.1944
  535MOL0     C70533   6.924   0.866   3.863 -0.6116  0.2511  0.1755
  535MOL0     C70534   6.985   0.918   3.748 -0.3220  0.2367 -0.2806
  535MOL0     O70535   6.983   1.000   3.472  0.0378 -0.2169  0.2484
  535MOL0     C70536   7.100   1.153   3.270  0.4826 -0.4645 -0.1540
  535MOL0     C70537   7.173   1.240   3.180 -0.3899 -0.6025 -0.6382
  535MOL0     N70538   7.957   1.647   2.972 -0.1760 -0.7301 -0.4795
  535MOL0     N70539   8.071   1.650   2.902  0.6393  0.2960 -0.8967
  535MOL0     C70540   8.746   1.615   1.745  0.3782  0.2031  0.2372
  535MOL0     C70541   8.867   1.641   1.687 -0.6416  0.1932 -0.0799
  535MOL0     C70542   9.220   1.936   1.545  0.7348 -0.9967 -0.4825
  535MOL0     C70543   9.245   2.030   1.435  0.3965 -0.5995 -0.6132
  535MOL0     C70544   9.373   2.065   1.396  0.7372  0.3137 -0.0273
  535MOL0     C70545   9.479   2.007   1.467 -0.7290  0.5685 -0.1944
  535MOL0     O70546   9.603   2.051   1.434 -0.2326  0.9575  0.4412
  535MOL0     C70547   9.722   2.007   1.517  0.3146  0.5890 -1.2260
  535MOL0     C70548   9.839   2.095   1.464  0.8162  0.2088  0.4792
  535MOL0     C70549   9.967   2.092   1.543 -0.0376  0.1210 -0.2759
  535MOL0     C70550  10.078   2.181   1.488 -0.8107 -0.5482  0.5300
  535MOL0     C70551  10.188   2.200   1.585 -0.1549 -0.5328  0.5405
  535MOL0     C70552  10.267   2.210   1.670 -0.5069 -0.3891  0.6315
  535MOL0     C70553   9.458   1.908   1.560  0.7121 -0.4983  0.1962
  535MOL0     C70554   9.332   1.871   1.601  0.3880 -0.2805 -0.4752
  535MOL0     H70555   8.936   1.939   1.821 -1.1264  0.0678  0.9669
  535MOL0     H70556   8.704   1.917   1.904 -2.9867 -1.3700  1.3933
  535MOL0     H70557   8.473   1.868   1.901 -2.9473 -1.0967 -0.2712
  535MOL0     H70558   8.572   1.823   2.037  0.7527 -1.8974  0.5266
  535MOL0     H70559   8.306   1.693   1.950  0.1134  0.2333 -0.1992
  535MOL0     H70560   8.327   1.826   2.066  0.9567 -0.1414 -0.5481
  535MOL0     H70561   8.471   1.704   2.201 -0.3995  0.3755  0.5765
  535MOL0     H70562   8.468   1.568   2.092  0.6926  1.4740 -1.0376
  535MOL0     H70563   8.218   1.553   2.151  0.7856 -0.7186  0.1861
  535MOL0     H70564   8.333   1.491   2.260  2.9227 -0.2402 -1.0744
  535MOL0     H70565   8.168   1.747   2.290  0.4837  0.4587  0.8446
  535MOL0     H70566   8.322   1.737   2.371  1.5418  0.0956 -3.4721
  535MOL0     H70567   8.247   1.502   2.450  0.0730  0.0882 -0.1295
  535MOL0     H70568   8.089   1.536   2.392 -0.1083 -0.1028  0.9514
  535MOL0     H70569   8.203   1.732   2.588 -0.8396  1.9042 -1.9704
  535MOL0     H70570   8.033   1.692   2.521 -1.4715 -2.0512  1.3915
  535MOL0     H70571   8.227   1.551   2.719  0.3350  0.5152 -2.3595
  535MOL0     H70572   8.093   1.462   2.641 -1.5355  0.1290  1.5584
  535MOL0     H70573   7.826   1.551   2.699 -0.1773 -1.8508  0.8340
  535MOL0     H70574   7.655   1.623   2.848  1.2174  2.0982 -0.5202
  535MOL0     H70575   7.698   1.699   2.994  1.1960 -0.3933  0.8876
  535MOL0     H70576   7.737   1.477   3.106  1.2358  0.7928 -0.0371
  535MOL0     H70577   7.692   1.395   2.951  5.1115 -1.3279  3.4746
  535MOL0     H70578   7.512   1.596   3.105 -1.3569 -1.4329  1.7418
  535MOL0     H70579   7.474   1.527   2.952  3.0903 -0.0378 -2.3989
  535MOL0     H70580   7.499   1.365   3.197  0.1762 -1.4679 -0.4563
  535MOL0     H70581   7.437   1.310   3.032  1.1746  2.5425 -2.7668
  535MOL0     H70582   7.329   1.447   3.409 -0.4863  0.4578  1.7355
  535MOL0     H70583   7.216   1.314   3.553 -2.7781  0.3548 -0.4859
  535MOL0     H70584   6.998   1.253   3.842 -1.9181  0.4324  4.1534
  535MOL0     H70585   6.881   1.161   4.032 -0.9456  1.1228 -1.4519
  535MOL0     H70586   6.714   1.064   4.125  0.1377 -0.3879  2.8170
  535MOL0     H70587   6.714   0.929   4.225  1.3449  0.0790 -0.1796
  535MOL0     H70588   6.601   0.959   3.951 -0.4864  3.0381  1.0721
  535MOL0     H70589   6.497   0.943   4.095  0.7017  2.6146  0.4964
  535MOL0     H70590   6.516   0.705   4.106  1.3708 -1.3475  0.8116
  535MOL0     H70591   6.674   0.701   4.030 -1.7156 -2.2762  1.2921
  535MOL0     H70592   6.427   0.791   3.900  0.0100 -0.9446  1.6001
  535MOL0     H70593   6.582   0.762   3.824 -0.9707  1.5444  1.0272
  535MOL0     H70594   6.414   0.553   3.966 -0.0408 -0.6469  0.8203
  535MOL0     H70595   6.560   0.512   3.868 -0.9566 -2.6432 -2.2862
  535MOL0     H70596   6.465   0.584   3.663  1.4553  2.6081  0.5538
  535MOL0     H70597   6.330   0.671   3.743 -1.9339 -2.0738 -3.4749
  535MOL0     H70598   6.301   0.420   3.634  0.0448  0.1326 -0.8133
  535MOL0     H70599   6.393   0.368   3.764  1.7976  1.5177 -0.3278
  535MOL0     H70600   6.139   0.546   3.792 -1.9809 -1.0913  0.0406
  535MOL0     H70601   6.228   0.463   3.923 -0.2607  1.4698 -0.0524
  535MOL0     H70602   6.887   0.765   3.873  0.6576 -0.2258  0.2602
  535MOL0     H70603   7.013   0.858   3.662  0.0871  1.4631 -1.0305
  535MOL0     H70604   7.048   1.069   3.225  0.4145 -0.9994  0.8828
  535MOL0     H70605   7.145   1.238   3.075 -1.3438  2.0404 -0.4978
  535MOL0     H70606   8.707   1.515   1.736 -0.1416  0.5881 -5.0653
  535MOL0     H70607   8.916   1.568   1.624  1.4134 -0.0161  1.6745
  535MOL0     H70608   9.160   2.081   1.391 -0.9728  0.1387  2.5651
  535MOL0     H70609   9.397   2.140   1.321  1.9490  0.6853  0.7152
  535MOL0     H70610   9.743   1.902   1.493 -0.4399  0.0436  0.3325
  535MOL0     H70611   9.712   2.004   1.626  2.2911 -0.3488 -1.0186
  535MOL0     H70612   9.852   2.079   1.357 -1.6919  1.5403 -0.1080
  535MOL0     H70613   9.811   2.201   1.474 -1.8545 -0.3873 -0.0041
  535MOL0     H70614  10.012   1.992   1.548 -1.2972 -0.4333  0.5275
  535MOL0     H70615   9.938   2.109   1.647 -1.1637 -3.4974  0.1764
  535MOL0     H70616  10.121   2.127   1.403 -1.1136 -0.6357  0.4327
  535MOL0     H70617  10.045   2.280   1.455 -0.5921  0.2952  2.6809
  535MOL0     H70618  10.338   2.216   1.750 -0.1855 -0.0866  0.3290
  535MOL0     H70619   9.539   1.857   1.611  0.1049 -0.4179  1.2675
  535MOL0     H70620   9.322   1.784   1.666 -1.3087 -0.6680 -1.1817
  536MOL0     O70621  10.709   6.023   1.298  0.1941 -0.5753  0.0769
  536MOL0     C70622  10.642   6.017   1.197 -0.4356 -0.2420 -0.0531
  536MOL0     O70623  10.515   6.071   1.180  1.0343 -0.0344 -0.4549
  536MOL0     C70624  10.452   6.157   1.277 -0.1309  0.5772  0.8754
  536MOL0     C70625  10.321   6.176   1.245 -0.3710  0.2515 -1.2383
  536MOL0     C70626  10.239   6.238   1.343 -0.4514  1.0539  0.5105
  536MOL0     C70627  10.285   6.298   1.459 -0.2619 -0.2113 -0.4184
  536MOL0     O70628  10.212   6.369   1.546  0.0923 -0.5307 -0.1031
  536MOL0     C70629  10.089   6.421   1.500  0.4536 -0.7444 -1.3959
  536MOL0     C70630  10.056   6.530   1.601  0.1375 -0.6259 -0.9058
  536MOL0     C70631  10.005   6.476   1.737 -0.7661  0.2390 -0.1710
  536MOL0     C70632   9.958   6.593   1.821 -0.0123 -0.3618 -0.5349
  536MOL0     C70633   9.906   6.548   1.963 -0.0429 -0.9681 -0.4848
  536MOL0     C70634   9.788   6.463   1.975  0.3536 -0.0458 -0.6938
  536MOL0     C70635   9.661   6.531   2.010  0.7452 -0.3168 -1.1071
  536MOL0     C70636   9.548   6.432   1.983 -0.0063  0.7050 -0.0950
  536MOL0     N70637   9.409   6.486   1.977 -0.4500 -1.2281  1.1691
  536MOL0     C70638   9.293   6.419   2.010 -0.7821  0.4709 -0.4713
  536MOL0     C70639   9.194   6.506   1.976 -0.0743 -0.1292 -0.3476
  536MOL0     C70640   9.050   6.471   1.991  0.4138 -0.5091 -0.2972
  536MOL0     C70641   9.026   6.362   1.882  0.1229  0.6061 -0.1362
  536MOL0     C70642   9.086   6.384   1.739 -1.1455  1.1687  0.0058
  536MOL0     C70643   9.039   6.508   1.669  0.3800  0.1744 -0.4113
  536MOL0     O70644   8.895   6.528   1.671  0.5786 -0.1340 -0.0778
  536MOL0     C70645   8.817   6.453   1.585 -0.4090  0.0548  0.4004
  536MOL0     C70646   8.679   6.453   1.607  0.0952  1.3554  0.1746
  536MOL0     C70647   8.592   6.354   1.559 -0.3426 -0.5613  0.2829
  536MOL0     C70648   8.642   6.259   1.469  0.0988  0.7761  0.0151
  536MOL0     C70649   8.551   6.149   1.415 -0.9961  0.0853  0.1852
  536MOL0     O70650   8.611   6.038   1.353 -0.0868  0.1209 -1.2481
  536MOL0     C70651   8.528   5.944   1.291 -0.1321  0.0771 -1.8491
  536MOL0     C70652   8.477   5.836   1.371  0.0422 -0.7443 -0.6708
  536MOL0     C70653   8.384   5.741   1.332 -0.1395 -0.6420 -0.5875
  536MOL0     C70654   8.324   5.757   1.201 -0.4881 -0.0338 -0.4787
  536MOL0     O70655   8.229   5.668   1.142 -0.5350 -0.1062  0.0564
  536MOL0     C70656   8.266   5.612   1.016  0.2840  1.3599  0.0705
  536MOL0     C70657   8.206   5.459   1.021  0.0682 -0.2194  0.2235
  536MOL0     C70658   8.261   5.377   1.132  0.4082  0.6227  0.1382
  536MOL0     C70659   8.187   5.251   1.142  0.4632 -0.4385 -0.0345
  536MOL0     C70660   8.226   5.170   1.265 -0.5524  0.0229 -0.4809
  536MOL0     C70661   8.349   5.073   1.246 -0.8480 -1.3825 -0.1311
  536MOL0     C70662   8.388   4.986   1.368  0.1746  0.0894  0.5907
  536MOL0     C70663   8.513   4.904   1.334  0.7834 -1.0417 -0.2079
  536MOL0    Cl70664   8.655   5.009   1.308 -0.2909 -0.2894 -0.0501
  536MOL0     C70665   8.369   5.868   1.123  0.7375  0.0279 -0.5077
  536MOL0     C70666   8.477   5.958   1.161  0.2905 -0.0290 -0.4173
  536MOL0     O70667   8.429   6.168   1.419 -0.3786  0.3496 -0.0587
  536MOL0     C70668   8.776   6.265   1.443 -0.1028 -0.3072  0.0611
  536MOL0     C70669   8.864   6.359   1.498  0.4982  0.8193 -0.5416
  536MOL0     N70670   9.253   6.623   1.933 -0.1047 -0.6949  0.1427
  536MOL0     N70671   9.379   6.613   1.939  0.1654 -0.7745 -0.0360
  536MOL0     C70672  10.416   6.276   1.492 -0.0917 -1.1097 -0.5163
  536MOL0     C70673  10.504   6.204   1.401  0.1920 -0.4177  0.4381
  536MOL0     C70674  10.692   5.942   1.079 -0.5812  0.7194 -1.0005
  536MOL0     C70675  10.616   5.904   0.961 -0.1900 -0.0424 -0.3560
  536MOL0     C70676  10.673   5.829   0.859 -0.4836  0.9690  0.0328
  536MOL0     C70677  10.809   5.793   0.864  0.2357  0.0601 -0.7035
  536MOL0     O70678  10.861   5.728   0.753  1.0784  0.0373  0.2264
  536MOL0     C70679  10.801   5.605   0.711  0.3602 -0.0820 -0.1608
  536MOL0     C70680  10.890   5.520   0.609 -1.1600 -0.0889  0.1782
  536MOL0     C70681  11.033   5.497   0.666  0.2913  0.5782 -0.2035
  536MOL0     C70682  11.098   5.380   0.594 -0.0014 -0.9704 -0.8667
  536MOL0     C70683  11.239   5.388   0.621  0.1221  0.1719 -0.0878
  536MOL0     C70684  11.354   5.410   0.660  0.9052 -0.0944 -0.3264
  536MOL0     C70685  10.879   5.827   0.978 -0.3746  0.3018  0.8357
  536MOL0     C70686  10.831   5.907   1.085  0.0680  0.9795  0.7995
  536MOL0     H70687  10.271   6.127   1.162  0.4364 -3.0337  0.0420
  536MOL0     H70688  10.132   6.227   1.324 -0.7858 -0.1035  2.7560
  536MOL0     H70689  10.017   6.340   1.507  0.8173 -0.9459  2.8459
  536MOL0     H70690  10.089   6.466   1.401 -3.5499  3.7085  0.2548
  536MOL0     H70691   9.978   6.593   1.557  1.4169  0.7046 -1.3296
  536MOL0     H70692  10.150   6.585   1.604 -0.3311  0.2161 -1.1838
  536MOL0     H70693  10.089   6.432   1.790  1.5037 -0.7227 -4.1577
  536MOL0     H70694   9.933   6.396   1.719  2.6314 -3.2269  0.4330
  536MOL0     H70695  10.042   6.657   1.846  0.1993 -1.1256  0.8224
  536MOL0     H70696   9.882   6.653   1.771 -1.2507 -0.1744  1.4649
  536MOL0     H70697   9.883   6.641   2.016 -1.5889 -0.9461 -1.1231
  536MOL0     H70698   9.984   6.498   2.021 -0.3952 -0.7026  0.2427
  536MOL0     H70699   9.810   6.378   2.041  0.8970  0.7347  0.1472
  536MOL0     H70700   9.765   6.412   1.881 -1.2997  0.7875 -0.7747
  536MOL0     H70701   9.651   6.555   2.116  0.1675  1.3161 -1.5056
  536MOL0     H70702   9.654   6.620   1.947  0.6424  1.5330  1.3683
  536MOL0     H70703   9.546   6.354   2.060 -0.4515  3.1303  2.5371
  536MOL0     H70704   9.569   6.389   1.885  1.6887  2.5780 -0.6235
  536MOL0     H70705   9.285   6.319   2.052 -0.3304  0.4327 -0.4740
  536MOL0     H70706   8.975   6.549   1.975  1.0123  0.0388 -0.4099
  536MOL0     H70707   9.014   6.429   2.086  1.2181 -0.2699  0.1186
  536MOL0     H70708   8.917   6.354   1.882 -0.0933  2.7138  1.0038
  536MOL0     H70709   9.044   6.258   1.909 -0.6853  0.1301 -1.3297
  536MOL0     H70710   9.195   6.390   1.748 -1.2243  0.4102  2.2849
  536MOL0     H70711   9.071   6.290   1.685  2.9380 -0.4629  1.3136
  536MOL0     H70712   9.074   6.498   1.566  1.0865 -1.9631 -0.0123
  536MOL0     H70713   9.088   6.589   1.724 -2.3096 -0.8814  4.0103
  536MOL0     H70714   8.639   6.533   1.668  1.7456  0.6613  2.3060
  536MOL0     H70715   8.485   6.359   1.579 -0.2655 -0.1603  0.5992
  536MOL0     H70716   8.489   5.839   1.479  0.5338  0.6168 -0.7419
  536MOL0     H70717   8.354   5.667   1.406  0.6920 -1.6512 -1.2281
  536MOL0     H70718   8.375   5.608   1.013  0.3416  0.1817  2.0474
  536MOL0     H70719   8.223   5.670   0.933 -1.5516  0.1936  0.1420
  536MOL0     H70720   8.217   5.405   0.926  2.6989 -1.1858  0.9876
  536MOL0     H70721   8.097   5.470   1.026 -0.4694 -1.6552 -3.9966
  536MOL0     H70722   8.248   5.417   1.234 -1.3786  2.8649 -0.8649
  536MOL0     H70723   8.364   5.347   1.114  0.6449 -0.7026  3.0747
  536MOL0     H70724   8.082   5.282   1.147  0.8478  0.8793  0.3831
  536MOL0     H70725   8.204   5.190   1.053 -0.6083 -2.1427  0.8801
  536MOL0     H70726   8.142   5.103   1.284 -0.4538  0.0997  0.2535
  536MOL0     H70727   8.239   5.237   1.351 -3.0299  0.5769 -0.4663
  536MOL0     H70728   8.435   5.138   1.226 -2.2742  1.2978  1.6444
  536MOL0     H70729   8.340   5.008   1.159  1.3574  0.5052 -1.9088
  536MOL0     H70730   8.413   5.043   1.458  2.2717 -0.1485  0.2239
  536MOL0     H70731   8.306   4.916   1.387  1.6753 -2.0581 -0.4415
  536MOL0     H70732   8.484   4.838   1.251 -2.6533 -0.5681  0.4566
  536MOL0     H70733   8.541   4.846   1.422  0.7159  0.4411  0.8407
  536MOL0     H70734   8.337   5.877   1.019  1.2102 -1.8391 -0.8464
  536MOL0     H70735   8.496   6.038   1.091 -1.5649  2.2257  1.4861
  536MOL0     H70736   8.828   6.182   1.396  0.6041  0.4616 -0.5381
  536MOL0     H70737   8.968   6.329   1.489  0.3660  0.0687  0.2631
  536MOL0     H70738  10.451   6.321   1.585  0.6293 -0.5384 -1.0508
  536MOL0     H70739  10.608   6.189   1.429  0.9218 -0.9707 -2.3089
  536MOL0     H70740  10.517   5.946   0.948 -1.7185 -2.9328  0.9682
  536MOL0     H70741  10.613   5.793   0.777  0.5827 -0.8552 -0.0270
  536MOL0     H70742  10.700   5.627   0.675 -1.0128 -0.9065  2.8566
  536MOL0     H70743  10.781   5.540   0.797 -0.0273  0.9900  0.5889
  536MOL0     H70744  10.836   5.428   0.586 -1.7709  0.8366 -2.4641
  536MOL0     H70745  10.903   5.574   0.515 -0.5125 -1.2576 -0.4360
  536MOL0     H70746  11.031   5.470   0.772 -0.4437 -3.3490 -1.0853
  536MOL0     H70747  11.089   5.590   0.649  1.7555 -0.3190 -0.4684
  536MOL0     H70748  11.062   5.286   0.635  3.9620 -1.0071  3.3250
  536MOL0     H70749  11.081   5.404   0.488  1.8419 -0.4003 -1.0730
  536MOL0     H70750  11.451   5.422   0.702  0.1964  1.5555  0.9428
  536MOL0     H70751  10.980   5.790   0.988 -0.0209  0.3684 -1.8441
  536MOL0     H70752  10.882   5.937   1.176  1.1332  1.0781  0.1869
  537MOL0     O70753   8.509   2.964   4.714  0.1334  0.5633 -0.0618
  537MOL0     C70754   8.548   3.070   4.656  0.2816 -0.2783 -0.6964
  537MOL0     O70755   8.678   3.105   4.632 -0.2723 -0.4645  0.1038
  537MOL0     C70756   8.763   3.008   4.675 -1.1457 -0.6621 -0.2918
  537MOL0     C70757   8.775   2.881   4.610 -0.1518  0.6077 -0.4992
  537MOL0     C70758   8.870   2.783   4.657 -0.7702  0.2835  1.7628
  537MOL0     C70759   8.948   2.807   4.769 -0.1362 -0.4790 -1.0126
  537MOL0     O70760   9.022   2.697   4.818  0.6322 -0.3155 -0.6290
  537MOL0     C70761   9.108   2.705   4.932 -0.0919 -0.5738 -0.3446
  537MOL0     C70762   9.148   2.565   4.978  1.2943 -0.4873 -0.2953
  537MOL0     C70763   9.194   2.573   5.126  0.1985 -0.2033  0.5291
  537MOL0     C70764   9.256   2.449   5.174  0.9488 -0.4662  0.1039
  537MOL0     C70765   9.347   2.472   5.295 -0.1880 -0.2888  0.2035
  537MOL0     C70766   9.296   2.386   5.411  0.0043 -0.5275  0.4607
  537MOL0     C70767   9.165   2.450   5.478 -0.0653 -0.4639  0.0872
  537MOL0     C70768   9.149   2.396   5.621  0.9236 -0.1030 -0.1828
  537MOL0     N70769   9.209   2.493   5.712  0.0984  0.0884 -0.3659
  537MOL0     C70770   9.126   2.592   5.770  0.1618  0.2148 -0.5176
  537MOL0     C70771   9.171   2.605   5.897 -0.4937  0.6505  0.2539
  537MOL0     C70772   9.111   2.711   5.992  0.2461  0.3625 -0.2396
  537MOL0     C70773   9.211   2.762   6.104 -0.6301  1.2805  0.3350
  537MOL0     C70774   9.314   2.862   6.064  0.9686  0.2018 -0.5917
  537MOL0     C70775   9.260   2.995   5.999 -0.2290  0.5405  0.4804
  537MOL0     O70776   9.156   3.048   6.085  0.5687  0.0217 -0.9251
  537MOL0     C70777   9.033   3.076   6.050  0.3491 -1.0986  0.2537
  537MOL0     C70778   8.926   3.073   6.142  0.2303  0.1010  0.4163
  537MOL0     C70779   8.795   3.098   6.114  0.2302 -0.0522 -0.8982
  537MOL0     C70780   8.757   3.128   5.980 -0.7834  0.9488  0.6447
  537MOL0     C70781   8.612   3.152   5.942  0.2964 -0.3882  0.7989
  537MOL0     O70782   8.512   3.101   6.017 -0.1746  0.4203  1.0520
  537MOL0     C70783   8.386   3.136   5.974 -1.3449 -0.4210  0.1257
  537MOL0     C70784   8.319   3.228   6.046  0.5840  0.7686 -0.5364
  537MOL0     C70785   8.188   3.267   6.020  0.7070 -1.1053  0.4574
  537MOL0     C70786   8.132   3.219   5.899 -0.4711 -0.5481 -0.3923
  537MOL0     O70787   8.005   3.253   5.868 -0.5167  0.5480 -0.3844
  537MOL0     C70788   7.926   3.188   5.774 -0.2191  0.4283  0.6514
  537MOL0     C70789   7.794   3.250   5.756 -0.4619 -0.3042  0.1408
  537MOL0     C70790   7.722   3.164   5.642  0.4579  0.6426 -0.4735
  537MOL0     C70791   7.613   3.243   5.567 -0.3624  0.1863  0.4486
  537MOL0     C70792   7.525   3.139   5.488 -0.0290 -0.0617  0.0313
  537MOL0     C70793   7.381   3.190   5.446 -0.6279  0.0693  0.4163
  537MOL0     C70794   7.300   3.223   5.562 -0.2175 -0.0679 -0.6084
  537MOL0     C70795   7.155   3.228   5.521  0.1592  0.0096  0.0451
  537MOL0    Cl70796   7.111   3.333   5.399  0.0775 -0.6015  0.3407
  537MOL0     C70797   8.194   3.125   5.828 -0.1217  0.5806  0.3819
  537MOL0     C70798   8.317   3.076   5.866 -0.3302 -0.5260 -0.2702
  537MOL0     O70799   8.595   3.217   5.837 -1.0318 -0.0670 -0.1272
  537MOL0     C70800   8.862   3.129   5.887 -0.4802  0.1650 -0.1981
  537MOL0     C70801   8.994   3.107   5.919 -0.0146 -1.0617 -0.6587
  537MOL0     N70802   9.292   2.526   5.908 -0.6645  0.2574 -0.5555
  537MOL0     N70803   9.310   2.466   5.794 -0.3554 -0.9245 -0.0872
  537MOL0     C70804   8.939   2.930   4.828 -1.0001 -0.1337 -0.0181
  537MOL0     C70805   8.845   3.025   4.788  0.2519 -0.3891  0.3962
  537MOL0     C70806   8.442   3.169   4.636 -0.8734 -0.5824 -0.2432
  537MOL0     C70807   8.467   3.299   4.577  0.2338 -0.3825 -0.7198
  537MOL0     C70808   8.366   3.392   4.567  0.0055 -0.1947  0.6203
  537MOL0     C70809   8.233   3.364   4.601  0.5546  0.3089  0.2709
  537MOL0     O70810   8.132   3.457   4.588  0.1820 -0.6768  0.1291
  537MOL0     C70811   8.142   3.584   4.519  0.8461  0.6880  0.3391
  537MOL0     C70812   8.177   3.581   4.366 -0.5004  0.2327  0.6343
  537MOL0     C70813   8.080   3.485   4.296  0.5318 -0.2847 -1.1404
  537MOL0     C70814   7.949   3.549   4.249 -0.0227  0.6885  0.3365
  537MOL0     C70815   7.976   3.639   4.138  0.3479 -0.1859 -1.2748
  537MOL0     C70816   8.014   3.702   4.037 -0.1573  0.4077 -0.3005
  537MOL0     C70817   8.206   3.236   4.644  0.5893 -1.4546 -0.9309
  537MOL0     C70818   8.310   3.139   4.661  0.4621 -0.6408  0.9478
  537MOL0     H70819   8.705   2.862   4.529  1.1774 -1.4654 -1.2371
  537MOL0     H70820   8.896   2.690   4.607  1.0091  0.8587  1.5356
  537MOL0     H70821   9.068   2.765   5.013  1.7324  0.7629 -0.3618
  537MOL0     H70822   9.197   2.762   4.904  1.4633 -1.4107  2.5295
  537MOL0     H70823   9.227   2.524   4.914 -1.1752 -0.7144 -3.4718
  537MOL0     H70824   9.068   2.491   4.971 -0.3709  1.3453 -1.9482
  537MOL0     H70825   9.111   2.594   5.193  1.5657  0.4187  2.0977
  537MOL0     H70826   9.269   2.652   5.118 -1.5765  1.7110  1.8258
  537MOL0     H70827   9.165   2.390   5.193 -2.4812  4.0175 -0.7452
  537MOL0     H70828   9.312   2.395   5.097  1.9226  1.2658 -0.4555
  537MOL0     H70829   9.364   2.576   5.325  0.1489 -0.9423  2.5071
  537MOL0     H70830   9.445   2.426   5.274  0.4731  1.0645  0.2377
  537MOL0     H70831   9.373   2.369   5.486 -0.8407  3.1729  2.4316
  537MOL0     H70832   9.275   2.285   5.374  0.7398 -1.4879  2.5386
  537MOL0     H70833   9.162   2.560   5.481 -1.9656 -0.2346 -3.8112
  537MOL0     H70834   9.076   2.432   5.417 -0.3617  1.2042 -0.0379
  537MOL0     H70835   9.211   2.305   5.624 -0.2544 -1.2223 -3.8821
  537MOL0     H70836   9.043   2.375   5.636  1.0407  0.0151  0.8531
  537MOL0     H70837   9.042   2.642   5.722  1.4875  2.2850 -0.8455
  537MOL0     H70838   9.029   2.663   6.047  3.9926 -0.6372  5.4575
  537MOL0     H70839   9.083   2.794   5.928  0.0274 -0.2502 -0.9534
  537MOL0     H70840   9.277   2.679   6.130 -0.9031  1.1102  0.4960
  537MOL0     H70841   9.163   2.790   6.199 -3.4003  1.1465 -0.9322
  537MOL0     H70842   9.375   2.883   6.152 -0.7087 -0.2148  0.7335
  537MOL0     H70843   9.383   2.813   5.994  0.3361 -1.1234 -0.3252
  537MOL0     H70844   9.222   2.970   5.900 -1.6618 -2.7259  1.7073
  537MOL0     H70845   9.331   3.077   5.990  0.2756  0.0458 -0.1123
  537MOL0     H70846   8.956   3.069   6.246 -2.7399 -0.0056  1.3717
  537MOL0     H70847   8.726   3.101   6.198  2.0515  2.9859  0.6985
  537MOL0     H70848   8.365   3.279   6.130 -0.8826  0.2776  0.6154
  537MOL0     H70849   8.134   3.337   6.084 -1.0072 -1.3630 -0.6439
  537MOL0     H70850   7.916   3.083   5.804  1.4151  0.0988  0.1858
  537MOL0     H70851   7.967   3.189   5.672 -0.5576  2.0604  0.5091
  537MOL0     H70852   7.821   3.350   5.721  1.3408 -0.3439  1.2745
  537MOL0     H70853   7.746   3.263   5.853  0.8886 -0.0256  0.7961
  537MOL0     H70854   7.684   3.070   5.682  2.2975  0.9032  2.1053
  537MOL0     H70855   7.788   3.131   5.562 -0.3990  3.0046 -2.2745
  537MOL0     H70856   7.547   3.298   5.635 -1.2858  2.5709 -2.1888
  537MOL0     H70857   7.654   3.325   5.508 -1.8171  0.1366 -0.6945
  537MOL0     H70858   7.512   3.045   5.542  0.7524  0.3533  0.9690
  537MOL0     H70859   7.579   3.115   5.396  0.2617 -1.8879  0.6443
  537MOL0     H70860   7.329   3.108   5.395 -1.2320  1.7469 -1.8576
  537MOL0     H70861   7.396   3.267   5.369  0.6444  1.6270  2.1385
  537MOL0     H70862   7.312   3.141   5.633 -0.8983  2.0560  2.1621
  537MOL0     H70863   7.326   3.321   5.605 -1.8220  0.2183 -0.2278
  537MOL0     H70864   7.098   3.236   5.614 -3.5055  0.0463 -2.0069
  537MOL0     H70865   7.129   3.127   5.490 -1.0175  0.7841 -1.6861
  537MOL0     H70866   8.161   3.082   5.734  0.4004 -2.0876  1.3180
  537MOL0     H70867   8.368   2.991   5.821  2.1222  1.9908 -2.6693
  537MOL0     H70868   8.842   3.158   5.784 -0.3712  3.5280  0.6046
  537MOL0     H70869   9.072   3.127   5.846 -0.5302 -1.7280 -1.4068
  537MOL0     H70870   8.980   2.954   4.926 -0.6994 -2.8855  0.6269
  537MOL0     H70871   8.845   3.118   4.845  1.5729  0.2896 -0.6549
  537MOL0     H70872   8.565   3.325   4.539  0.4918 -3.8626 -2.7483
  537MOL0     H70873   8.385   3.489   4.520 -1.6730  0.7822  1.8641
  537MOL0     H70874   8.210   3.652   4.572  1.4770 -1.0721  1.9222
  537MOL0     H70875   8.049   3.639   4.535  0.3417 -0.3228  0.9347
  537MOL0     H70876   8.166   3.680   4.321  0.5168  0.4983  0.9303
  537MOL0     H70877   8.281   3.552   4.344 -2.1275 -4.3964 -2.4041
  537MOL0     H70878   8.058   3.411   4.374  2.2843  2.6415  2.4681
  537MOL0     H70879   8.122   3.412   4.227 -4.4462 -3.7829 -1.0314
  537MOL0     H70880   7.888   3.465   4.215  0.9453  0.7412 -1.7312
  537MOL0     H70881   7.898   3.609   4.325 -0.2475  0.0588  0.6846
  537MOL0     H70882   8.065   3.747   3.954 -0.2058  1.6620  0.3276
  537MOL0     H70883   8.108   3.202   4.673  0.6793  0.1375  1.5696
  537MOL0     H70884   8.278   3.039   4.691 -1.9928  0.4697  2.3933
  538MOL0     O70885   3.178   2.206   0.657 -0.4613 -0.1741 -0.3812
  538MOL0     C70886   3.154   2.126   0.746  0.4455 -0.3296  0.1859
  538MOL0     O70887   3.240   2.058   0.834 -0.6912  0.2228  0.0873
  538MOL0     C70888   3.364   2.106   0.880 -0.5417  0.0469  0.3205
  538MOL0     C70889   3.417   2.077   1.000  0.6447  0.6578  0.1790
  538MOL0     C70890   3.541   2.125   1.042 -0.6290 -0.2374  0.9217
  538MOL0     C70891   3.627   2.193   0.949 -0.4724  0.4673  0.9133
  538MOL0     O70892   3.739   2.244   1.007 -0.8773 -0.2618 -0.2113
  538MOL0     C70893   3.765   2.381   0.959  0.3341  0.4323  0.7326
  538MOL0     C70894   3.885   2.444   1.027 -0.1403 -1.1943 -0.3691
  538MOL0     C70895   3.872   2.450   1.182 -0.2481  0.0675 -0.7323
  538MOL0     C70896   3.756   2.552   1.219  1.0517  0.0139  0.8594
  538MOL0     C70897   3.659   2.509   1.336 -0.4481 -0.6119  0.3222
  538MOL0     C70898   3.560   2.389   1.312 -0.0399  0.1338  0.0304
  538MOL0     C70899   3.446   2.392   1.422  0.0763 -0.2646  0.1502
  538MOL0     C70900   3.344   2.500   1.393 -0.7037 -0.2440 -0.3073
  538MOL0     N70901   3.269   2.448   1.280 -0.4964 -0.3313  0.0309
  538MOL0     C70902   3.259   2.522   1.165 -0.5094 -0.5131 -0.1809
  538MOL0     C70903   3.190   2.440   1.092 -0.1625  0.0240  0.1422
  538MOL0     C70904   3.149   2.464   0.934  0.2419 -0.2846 -0.5045
  538MOL0     C70905   3.267   2.482   0.839 -0.7681  0.2093 -0.6816
  538MOL0     C70906   3.233   2.512   0.686  0.1509 -0.2261 -0.0660
  538MOL0     C70907   3.363   2.501   0.603 -0.8836  0.4981  1.1009
  538MOL0     O70908   3.468   2.574   0.670 -0.4125 -0.2407  0.7118
  538MOL0     C70909   3.596   2.544   0.624  0.0708  0.1980 -1.4850
  538MOL0     C70910   3.626   2.483   0.507  0.5448 -0.0071 -0.3891
  538MOL0     C70911   3.753   2.483   0.461 -0.1322  0.7517  0.1181
  538MOL0     C70912   3.857   2.508   0.540 -1.0117 -0.3684 -0.3024
  538MOL0     C70913   3.996   2.489   0.495  0.4644 -0.8782  0.8041
  538MOL0     O70914   4.086   2.551   0.575 -0.0476 -0.7753 -0.1843
  538MOL0     C70915   4.220   2.534   0.548 -0.1287 -0.6526 -0.7496
  538MOL0     C70916   4.281   2.407   0.540 -0.0169  0.1142  0.2006
  538MOL0     C70917   4.417   2.384   0.514 -0.3958  0.2062 -2.2267
  538MOL0     C70918   4.500   2.490   0.497 -0.7822  0.2148 -0.5131
  538MOL0     O70919   4.633   2.485   0.458 -0.4149 -1.0025 -0.3234
  538MOL0     C70920   4.690   2.358   0.418  0.5863  0.0911 -0.6312
  538MOL0     C70921   4.826   2.370   0.353 -0.2917  0.0624 -0.0670
  538MOL0     C70922   4.820   2.429   0.206 -0.6242  0.3150  0.1670
  538MOL0     C70923   4.743   2.340   0.115 -0.4508  0.0575 -0.8942
  538MOL0     C70924   4.779   2.370  -0.027 -0.3802  0.0737  0.3381
  538MOL0     C70925   4.760   2.519  -0.082 -0.1395  0.0385  0.1073
  538MOL0     C70926   4.613   2.550  -0.064 -0.5703 -1.0739 -0.3634
  538MOL0     C70927   4.567   2.686  -0.107  0.1718 -0.8259  0.0532
  538MOL0    Cl70928   4.544   2.681  -0.285  0.1857 -0.2742 -0.5110
  538MOL0     C70929   4.440   2.612   0.492  0.8262 -0.2878 -1.2829
  538MOL0     C70930   4.306   2.639   0.527  0.8605  0.4958 -0.5663
  538MOL0     O70931   4.014   2.411   0.399  0.1142 -0.5721 -0.3391
  538MOL0     C70932   3.827   2.557   0.674 -0.4654  0.0576  0.5826
  538MOL0     C70933   3.700   2.588   0.706  0.0927 -0.1867  0.5599
  538MOL0     N70934   3.158   2.318   1.151 -0.2095 -0.3161 -1.0671
  538MOL0     N70935   3.197   2.329   1.277 -0.2199  0.0574 -0.1032
  538MOL0     C70936   3.578   2.209   0.818  0.3808  0.1663  0.4084
  538MOL0     C70937   3.454   2.170   0.792 -0.2153  0.2602 -0.5383
  538MOL0     C70938   3.010   2.100   0.755 -0.6168 -0.2932  0.3474
  538MOL0     C70939   2.965   1.985   0.832 -0.3323  0.0974  0.2268
  538MOL0     C70940   2.832   1.951   0.828  0.2354 -0.2149 -0.1793
  538MOL0     C70941   2.742   2.044   0.779 -0.3396  0.0029  0.6948
  538MOL0     O70942   2.611   2.007   0.789  0.6116 -0.3923  0.1104
  538MOL0     C70943   2.508   2.097   0.744 -0.0935 -0.7742 -0.3103
  538MOL0     C70944   2.372   2.028   0.742 -0.2741 -0.7541 -0.5734
  538MOL0     C70945   2.256   2.119   0.681 -0.0855  0.2669  0.7078
  538MOL0     C70946   2.150   2.038   0.603  0.3638 -0.4237  0.4000
  538MOL0     C70947   2.198   1.947   0.505  0.5021  0.1024  1.1881
  538MOL0     C70948   2.242   1.882   0.417 -0.2644  0.4710  1.4296
  538MOL0     C70949   2.784   2.159   0.720  0.7572  0.2666  0.8986
  538MOL0     C70950   2.917   2.188   0.700  0.1863  0.9888 -0.3542
  538MOL0     H70951   3.371   2.010   1.073 -2.1151  0.0846 -1.9183
  538MOL0     H70952   3.576   2.106   1.143  0.3951 -1.9529  0.2808
  538MOL0     H70953   3.676   2.444   0.968 -0.8977 -1.1718  0.2201
  538MOL0     H70954   3.791   2.370   0.854  0.4382 -3.3114  1.0180
  538MOL0     H70955   3.900   2.546   0.990  1.1276 -2.2695 -3.0912
  538MOL0     H70956   3.977   2.389   1.005  0.2804 -1.4209  1.7407
  538MOL0     H70957   3.966   2.492   1.217  1.2442  0.1491 -4.3696
  538MOL0     H70958   3.857   2.346   1.214  0.9076  0.2930  0.6286
  538MOL0     H70959   3.798   2.650   1.243 -0.3984  0.4430  1.7242
  538MOL0     H70960   3.697   2.576   1.131 -0.8835 -1.6749  1.6197
  538MOL0     H70961   3.613   2.602   1.370  3.1441  0.4931  2.7928
  538MOL0     H70962   3.717   2.475   1.423  3.0807  2.4455 -0.5803
  538MOL0     H70963   3.626   2.305   1.337 -0.0736  0.2001  0.3469
  538MOL0     H70964   3.509   2.376   1.216 -0.2461 -2.6238  0.4442
  538MOL0     H70965   3.397   2.294   1.429 -1.0368  0.3328  1.0310
  538MOL0     H70966   3.488   2.412   1.521 -1.3862  2.6340  0.2710
  538MOL0     H70967   3.392   2.598   1.393  0.0552 -0.5857  1.1423
  538MOL0     H70968   3.269   2.497   1.473  0.8537 -0.4082  1.2030
  538MOL0     H70969   3.311   2.610   1.128 -3.2497  1.6191  0.7186
  538MOL0     H70970   3.079   2.548   0.927 -1.6299 -1.9018 -3.3155
  538MOL0     H70971   3.096   2.372   0.906  1.5710 -1.7735  1.5625
  538MOL0     H70972   3.318   2.385   0.848 -1.1057 -0.0240 -1.2113
  538MOL0     H70973   3.329   2.563   0.879  2.3210 -1.9605 -0.6794
  538MOL0     H70974   3.151   2.444   0.662 -1.9555  0.9207  3.1860
  538MOL0     H70975   3.192   2.612   0.668  1.4811  0.2556 -0.5493
  538MOL0     H70976   3.336   2.531   0.502  2.4521 -0.3196 -0.1660
  538MOL0     H70977   3.385   2.395   0.590  3.0090  1.0073  2.3167
  538MOL0     H70978   3.547   2.441   0.445  0.3427 -0.2024 -0.0000
  538MOL0     H70979   3.774   2.457   0.357  3.3597 -0.1597  0.9351
  538MOL0     H70980   4.209   2.326   0.548 -4.1578  3.4080 -0.2151
  538MOL0     H70981   4.454   2.282   0.525  0.2728  0.6271 -0.1941
  538MOL0     H70982   4.625   2.293   0.358  0.7491 -1.5303  0.8481
  538MOL0     H70983   4.684   2.300   0.510 -1.5378  2.3922  0.8025
  538MOL0     H70984   4.882   2.276   0.345  1.2423  1.0362 -1.3478
  538MOL0     H70985   4.890   2.433   0.415 -2.8230  0.6038  2.1852
  538MOL0     H70986   4.921   2.446   0.168 -1.0305 -1.7323 -2.0977
  538MOL0     H70987   4.778   2.529   0.220 -0.3782  0.2889  1.1591
  538MOL0     H70988   4.766   2.234   0.127 -1.7098 -0.1870 -0.4941
  538MOL0     H70989   4.636   2.359   0.127 -0.0880  0.9816  1.2286
  538MOL0     H70990   4.711   2.300  -0.076 -0.5163  0.4201  0.0272
  538MOL0     H70991   4.882   2.333  -0.033 -0.0544  1.0230 -0.1623
  538MOL0     H70992   4.793   2.540  -0.184 -3.7982  1.8685 -0.8504
  538MOL0     H70993   4.806   2.591  -0.014  1.5964 -1.1818  0.2900
  538MOL0     H70994   4.555   2.475  -0.119  0.1474 -2.6742  0.9767
  538MOL0     H70995   4.575   2.537   0.037 -0.9933 -3.0295 -0.7284
  538MOL0     H70996   4.634   2.764  -0.071 -1.9655  0.1723  2.1418
  538MOL0     H70997   4.474   2.708  -0.055  0.3221  0.9337 -0.3531
  538MOL0     H70998   4.508   2.695   0.474  1.6534 -0.3336  1.2363
  538MOL0     H70999   4.274   2.742   0.534 -2.3418 -0.4517  1.5199
  538MOL0     H71000   3.904   2.593   0.742  2.1442 -0.8050 -1.7132
  538MOL0     H71001   3.679   2.644   0.796 -1.8687  2.2030 -1.2186
  538MOL0     H71002   3.637   2.237   0.731 -1.9065  0.1664 -1.2287
  538MOL0     H71003   3.408   2.180   0.694  2.4023  0.9269 -1.7816
  538MOL0     H71004   3.036   1.916   0.875 -0.7389  0.0930  0.9074
  538MOL0     H71005   2.798   1.861   0.877  0.0422  1.7797  3.7809
  538MOL0     H71006   2.529   2.126   0.641 -0.1653 -1.7960 -0.6226
  538MOL0     H71007   2.506   2.182   0.813 -4.1021 -0.2638 -0.8066
  538MOL0     H71008   2.375   1.946   0.670 -0.5925  0.4411 -1.9894
  538MOL0     H71009   2.364   1.987   0.843 -0.6912 -4.0758 -1.8249
  538MOL0     H71010   2.310   2.195   0.623 -0.5701  1.0012  1.2050
  538MOL0     H71011   2.218   2.175   0.767 -2.7691  4.1347 -2.5711
  538MOL0     H71012   2.090   1.981   0.675 -3.4994  2.0966 -0.4556
  538MOL0     H71013   2.100   2.119   0.548  3.2370  1.8000  0.8024
  538MOL0     H71014   2.288   1.835   0.332 -1.5595  3.0218 -0.8357
  538MOL0     H71015   2.718   2.237   0.684  0.3729  0.3106  1.6903
  538MOL0     H71016   2.933   2.281   0.646 -0.4760  1.7330  0.7049
  539MOL0     O71017  10.321   9.801   5.887 -0.4526  0.0698  0.7042
  539MOL0     C71018  10.310   9.866   5.995  0.2050 -0.4095 -0.3943
  539MOL0     O71019  10.339   9.995   6.008 -0.0052  0.0822  0.3393
  539MOL0     C71020  10.420  10.049   5.911  0.8113  0.5404 -0.6045
  539MOL0     C71021  10.373  10.106   5.795  0.5290  0.4208 -0.5130
  539MOL0     C71022  10.469  10.152   5.701  0.0116  0.0359 -0.7852
  539MOL0     C71023  10.604  10.133   5.720  0.1119 -0.5941  0.3954
  539MOL0     O71024  10.678  10.186   5.620 -0.3299 -0.2048 -0.2932
  539MOL0     C71025  10.818  10.157   5.612 -0.3829 -0.7999  0.0399
  539MOL0     C71026  10.872  10.145   5.469  0.8192 -0.9378 -0.1107
  539MOL0     C71027  11.019  10.204   5.451  0.1805  0.0426  0.3004
  539MOL0     C71028  11.050  10.188   5.297  0.8193 -0.2098  0.3295
  539MOL0     C71029  11.189  10.239   5.258 -0.1597  0.5825 -0.0241
  539MOL0     C71030  11.188  10.263   5.112 -0.6923 -0.3331 -0.7003
  539MOL0     C71031  11.327  10.279   5.051  0.4074  0.2828 -0.2135
  539MOL0     C71032  11.325  10.311   4.900  1.0080 -0.5095  0.2899
  539MOL0     N71033  11.456  10.339   4.842 -0.2093 -0.9019 -0.4025
  539MOL0     C71034  11.577  10.386   4.895  0.0417  0.0563 -0.7719
  539MOL0     C71035  11.671  10.345   4.808  0.2150  0.9569 -0.0447
  539MOL0     C71036  11.819  10.358   4.814 -0.0195 -0.8460  0.7163
  539MOL0     C71037  11.876  10.498   4.752 -0.2923 -0.1724 -0.3433
  539MOL0     C71038  12.029  10.522   4.801  0.5159  0.3183 -0.2296
  539MOL0     C71039  12.101  10.619   4.706 -0.0288 -0.6139  0.0618
  539MOL0     O71040  12.246  10.609   4.748 -0.2987 -0.4118 -0.1272
  539MOL0     C71041  12.328  10.676   4.654 -0.1880  0.1506 -0.8148
  539MOL0     C71042  12.296  10.744   4.543  0.3842  0.1123  1.0594
  539MOL0     C71043  12.395  10.815   4.458 -1.0790  0.3843 -0.6196
  539MOL0     C71044  12.528  10.814   4.503 -0.4042  0.1898  0.4924
  539MOL0     C71045  12.630  10.894   4.428  0.2450  0.5150 -0.1032
  539MOL0     O71046  12.592  10.968   4.326 -0.2653  0.3304  0.2687
  539MOL0     C71047  12.684  11.054   4.261  0.1348  1.7379  0.7461
  539MOL0     C71048  12.774  10.990   4.176 -0.8932  0.2299  0.3385
  539MOL0     C71049  12.894  11.057   4.133  0.3840  0.7904 -0.5755
  539MOL0     C71050  12.901  11.197   4.150 -0.5093 -0.2697  0.0236
  539MOL0     O71051  13.004  11.277   4.103  0.4878 -0.1376  0.6921
  539MOL0     C71052  13.079  11.231   3.988  0.0602  0.7906  0.3283
  539MOL0     C71053  13.222  11.283   3.984  0.1318  0.6885 -0.1832
  539MOL0     C71054  13.288  11.228   3.849  0.7093 -0.1620 -0.2640
  539MOL0     C71055  13.433  11.273   3.838 -0.6211 -0.0623 -0.2365
  539MOL0     C71056  13.470  11.274   3.691 -0.5508  0.2171 -0.1208
  539MOL0     C71057  13.620  11.319   3.682  0.2777 -0.0557 -0.7294
  539MOL0     C71058  13.681  11.266   3.541 -0.8510 -0.3158 -0.4182
  539MOL0     C71059  13.834  11.300   3.545  0.0061 -0.3360 -0.4134
  539MOL0    Cl71060  13.926  11.203   3.664  0.4588  0.0625 -0.4502
  539MOL0     C71061  12.810  11.260   4.235 -0.3096 -0.0197  0.0933
  539MOL0     C71062  12.708  11.185   4.292  0.3899 -0.7411 -0.2119
  539MOL0     O71063  12.751  10.883   4.467 -0.1484 -0.0049  0.3821
  539MOL0     C71064  12.572  10.745   4.612  0.7054  0.2880  0.6932
  539MOL0     C71065  12.471  10.663   4.683 -0.7147 -0.7066  0.6239
  539MOL0     N71066  11.614  10.272   4.701 -0.1010  0.5327  0.0329
  539MOL0     N71067  11.485  10.281   4.726 -0.3422  0.3967 -0.2539
  539MOL0     C71068  10.651  10.069   5.836  0.3234 -0.7923 -0.4966
  539MOL0     C71069  10.560  10.024   5.928  1.1335  0.2554  0.1786
  539MOL0     C71070  10.227   9.810   6.104  0.0568 -0.3868 -0.2364
  539MOL0     C71071  10.224   9.887   6.219 -0.7442 -0.1142 -0.1324
  539MOL0     C71072  10.160   9.832   6.334 -0.0294  0.9472 -0.1172
  539MOL0     C71073  10.079   9.716   6.330  0.5012  0.8417 -0.8393
  539MOL0     O71074  10.015   9.659   6.445 -0.2020 -0.5529  0.6810
  539MOL0     C71075   9.904   9.727   6.511  0.0162  0.7131  0.3809
  539MOL0     C71076   9.796   9.758   6.405 -0.3760  0.0466  0.7554
  539MOL0     C71077   9.730   9.621   6.353  0.3177 -0.2549  0.5982
  539MOL0     C71078   9.664   9.659   6.216 -0.1619  0.0391  0.2139
  539MOL0     C71079   9.547   9.755   6.218 -0.4342 -0.4331  0.1602
  539MOL0     C71080   9.466   9.850   6.202 -0.0393  0.5690 -0.8253
  539MOL0     C71081  10.072   9.650   6.208 -0.4177 -0.1532  0.4693
  539MOL0     C71082  10.147   9.695   6.097 -0.3341 -0.4058  1.1813
  539MOL0     H71083  10.269  10.131   5.780 -0.0774 -0.2667  2.0793
  539MOL0     H71084  10.429  10.214   5.621 -0.0710  1.4692  0.3211
  539MOL0     H71085  10.832  10.060   5.661  1.0721 -1.4897 -1.6357
  539MOL0     H71086  10.887  10.233   5.649 -1.6334  0.9691 -1.1364
  539MOL0     H71087  10.805  10.201   5.403  1.6107  0.4396  0.2211
  539MOL0     H71088  10.869  10.044   5.426  3.2128 -1.8949  1.7436
  539MOL0     H71089  11.096  10.148   5.504  1.7293  0.3024 -1.5755
  539MOL0     H71090  11.015  10.308   5.483 -1.1861  1.0135 -2.6982
  539MOL0     H71091  11.026  10.086   5.263 -0.6491  0.7801 -1.8261
  539MOL0     H71092  10.978  10.255   5.250  2.7936  0.8943 -1.2652
  539MOL0     H71093  11.262  10.163   5.289 -1.8721 -2.3947 -2.7496
  539MOL0     H71094  11.206  10.333   5.311  1.6100 -1.5314  3.5800
  539MOL0     H71095  11.125  10.353   5.111  1.4001  1.2052 -0.5995
  539MOL0     H71096  11.124  10.190   5.062 -1.6105  0.6063 -0.9296
  539MOL0     H71097  11.384  10.355   5.105  2.3149 -0.0466 -1.6533
  539MOL0     H71098  11.387  10.188   5.067 -0.4953 -0.4031 -0.6718
  539MOL0     H71099  11.251  10.384   4.868  2.7686  0.3383 -2.2008
  539MOL0     H71100  11.281  10.226   4.848 -1.0122  0.9094 -0.4273
  539MOL0     H71101  11.601  10.444   4.984  1.7279  0.2691 -1.3246
  539MOL0     H71102  11.867  10.262   4.793 -1.2550 -1.5939  1.1736
  539MOL0     H71103  11.836  10.363   4.922  1.1818 -5.0775  0.9035
  539MOL0     H71104  11.820  10.583   4.792 -2.1922 -1.6677  0.3119
  539MOL0     H71105  11.869  10.497   4.643 -0.4330 -1.1600 -0.3305
  539MOL0     H71106  12.038  10.575   4.897  4.3192 -0.2701 -0.1183
  539MOL0     H71107  12.082  10.427   4.804  0.0908  0.0918  1.6008
  539MOL0     H71108  12.063  10.718   4.732  1.0284  0.0502 -0.8683
  539MOL0     H71109  12.098  10.592   4.600  4.0771  2.1843 -1.0145
  539MOL0     H71110  12.196  10.750   4.500  0.7467 -1.7596 -0.1513
  539MOL0     H71111  12.369  10.870   4.368  3.6574  1.2247 -1.7543
  539MOL0     H71112  12.757  10.886   4.152  0.8174 -0.7514  2.9088
  539MOL0     H71113  12.951  10.978   4.086 -3.1911 -2.2167 -0.3142
  539MOL0     H71114  13.016  11.247   3.900 -2.2537 -0.2608  1.6987
  539MOL0     H71115  13.089  11.122   3.986  1.3103  0.8835  0.6878
  539MOL0     H71116  13.276  11.240   4.069 -1.7382 -0.3769  0.5026
  539MOL0     H71117  13.221  11.392   3.983 -0.9652  0.6863 -0.1331
  539MOL0     H71118  13.235  11.267   3.761 -0.4626  0.1326  0.5531
  539MOL0     H71119  13.293  11.120   3.830 -1.2472 -0.5186  0.9182
  539MOL0     H71120  13.459  11.367   3.888  0.8166 -1.1742  1.2105
  539MOL0     H71121  13.493  11.207   3.901 -1.1529 -0.6208 -0.3057
  539MOL0     H71122  13.404  11.331   3.624  1.3484  2.5675 -0.1378
  539MOL0     H71123  13.467  11.172   3.653 -1.1535  0.3537 -0.4616
  539MOL0     H71124  13.684  11.287   3.764  0.8290 -0.8175 -1.4392
  539MOL0     H71125  13.613  11.428   3.688 -4.2943 -0.0919 -1.7170
  539MOL0     H71126  13.667  11.159   3.520 -0.9430 -0.1459 -1.2788
  539MOL0     H71127  13.631  11.320   3.460 -0.2187  1.1512  0.1334
  539MOL0     H71128  13.841  11.409   3.558  1.7681 -0.2798 -1.5434
  539MOL0     H71129  13.873  11.271   3.447 -2.0234 -2.9543 -0.5599
  539MOL0     H71130  12.826  11.359   4.275 -5.0411  0.4969  1.3157
  539MOL0     H71131  12.648  11.227   4.372 -1.3182 -0.3085 -1.6258
  539MOL0     H71132  12.674  10.748   4.648  1.3256 -2.0863 -0.6412
  539MOL0     H71133  12.508  10.607   4.768 -0.2930 -3.0217 -0.9791
  539MOL0     H71134  10.758  10.069   5.857  0.5624 -0.6185 -1.6481
  539MOL0     H71135  10.599   9.980   6.020  1.7636  2.1931  0.8710
  539MOL0     H71136  10.278   9.980   6.232  0.9585 -1.2374  1.3324
  539MOL0     H71137  10.155   9.896   6.421 -1.5678  1.3585 -0.4834
  539MOL0     H71138   9.946   9.819   6.554  2.2079 -0.3678  0.6622
  539MOL0     H71139   9.879   9.657   6.592  1.2663 -1.3930 -0.9628
  539MOL0     H71140   9.706   9.810   6.438  1.6445  5.1514 -0.8504
  539MOL0     H71141   9.831   9.829   6.330 -3.8545  2.2713  1.0316
  539MOL0     H71142   9.660   9.586   6.429  0.0833 -0.4913  0.2723
  539MOL0     H71143   9.799   9.543   6.321  0.8082  0.7851 -1.0076
  539MOL0     H71144   9.747   9.705   6.163 -1.4406  2.2132 -0.0179
  539MOL0     H71145   9.628   9.572   6.159  1.5075 -0.5795  0.0468
  539MOL0     H71146   9.414   9.943   6.199  0.8674  1.0805 -0.7691
  539MOL0     H71147  10.000   9.569   6.204 -0.7774  0.1957 -2.3572
  539MOL0     H71148  10.149   9.628   6.012  3.2162  0.0762  0.7245
  540MOL0     O71149   9.340   6.171   6.493 -0.4800  0.4503  0.2304
  540MOL0     C71150   9.435   6.162   6.573  0.8185 -0.3608 -0.9437
  540MOL0     O71151   9.547   6.222   6.564 -0.5348 -0.0681 -0.3007
  540MOL0     C71152   9.579   6.307   6.462 -0.7403  0.3627  0.3668
  540MOL0     C71153   9.653   6.268   6.355 -0.5798  0.4529 -0.1116
  540MOL0     C71154   9.685   6.368   6.247  0.0699 -0.7264 -0.2111
  540MOL0     C71155   9.644   6.499   6.256  0.0345  0.0795 -0.7015
  540MOL0     O71156   9.654   6.595   6.155 -0.1922  0.5118 -0.3689
  540MOL0     C71157   9.593   6.546   6.032  0.0630  0.5497 -0.1610
  540MOL0     C71158   9.538   6.672   5.950  0.9190 -0.2962  0.0531
  540MOL0     C71159   9.643   6.768   5.909 -0.2053  0.4395  0.2598
  540MOL0     C71160   9.590   6.901   5.855  0.1867  0.2452  0.5549
  540MOL0     C71161   9.700   7.012   5.873  1.2378  0.1311  0.4987
  540MOL0     C71162   9.679   7.090   6.003  0.0579 -0.9434  0.5118
  540MOL0     C71163   9.815   7.161   6.040 -1.5896  0.1308  0.7975
  540MOL0     C71164   9.829   7.294   5.955 -0.7849 -0.4340 -0.1324
  540MOL0     N71165   9.950   7.367   6.001 -0.2482 -0.4091 -0.2514
  540MOL0     C71166   9.961   7.453   6.106 -0.3598 -0.3601 -0.3412
  540MOL0     C71167  10.090   7.500   6.086  1.0412  1.0608  0.1655
  540MOL0     C71168  10.148   7.599   6.174 -0.6955 -0.6043  0.0313
  540MOL0     C71169  10.171   7.555   6.320 -0.2309  0.2666 -1.2017
  540MOL0     C71170  10.222   7.674   6.410 -0.3770 -0.3133 -0.0011
  540MOL0     C71171  10.251   7.624   6.557 -0.1979  1.0216  0.1087
  540MOL0     O71172  10.265   7.735   6.652 -0.0046  0.5334  0.6558
  540MOL0     C71173  10.367   7.729   6.736 -0.6446 -0.2517 -0.4875
  540MOL0     C71174  10.424   7.613   6.800 -0.5005  0.1326  0.2447
  540MOL0     C71175  10.537   7.615   6.875 -0.7253  0.3304 -0.5328
  540MOL0     C71176  10.607   7.740   6.889 -0.1326  0.1453  0.5089
  540MOL0     C71177  10.747   7.740   6.952  0.2577  0.4814 -0.2033
  540MOL0     O71178  10.821   7.627   6.943  0.0244  0.6849 -0.6731
  540MOL0     C71179  10.945   7.609   7.007 -0.0940 -0.1990  0.0456
  540MOL0     C71180  11.002   7.483   6.986 -0.9493 -0.1329  0.3460
  540MOL0     C71181  11.115   7.447   7.050 -0.1317  0.0987  0.4237
  540MOL0     C71182  11.190   7.540   7.129 -0.3158  0.6249  0.0885
  540MOL0     O71183  11.312   7.508   7.191 -0.4340  0.2665 -0.5918
  540MOL0     C71184  11.418   7.446   7.121 -0.0881 -0.6025 -0.5397
  540MOL0     C71185  11.543   7.442   7.215  0.2057  0.0044  0.0151
  540MOL0     C71186  11.654   7.392   7.139  0.6229 -0.2154 -0.1811
  540MOL0     C71187  11.776   7.376   7.237  0.9842 -0.4860 -0.1155
  540MOL0     C71188  11.899   7.356   7.158 -0.8384 -0.0258 -0.6937
  540MOL0     C71189  11.942   7.220   7.101  0.1304  0.5325  0.9017
  540MOL0     C71190  12.018   7.122   7.203  0.3459  0.1706  0.2804
  540MOL0     C71191  12.097   7.030   7.116  0.4939  0.6362 -0.0075
  540MOL0    Cl71192  11.992   6.931   7.018 -0.4856  0.3197  0.2194
  540MOL0     C71193  11.125   7.662   7.160 -0.1898 -0.6561 -0.5411
  540MOL0     C71194  11.006   7.699   7.104 -0.5549 -0.7992 -0.2601
  540MOL0     O71195  10.771   7.846   7.011 -0.0614  0.4683  0.0448
  540MOL0     C71196  10.559   7.849   6.831  1.4159 -0.1370  0.1638
  540MOL0     C71197  10.438   7.850   6.750 -0.1785  0.0589  0.4670
  540MOL0     N71198  10.156   7.429   5.987 -0.0096  0.1288  0.1054
  540MOL0     N71199  10.074   7.347   5.946  0.0597  0.0588 -0.3192
  540MOL0     C71200   9.597   6.544   6.377  0.1632  0.1914  0.1591
  540MOL0     C71201   9.556   6.449   6.477 -0.0577  0.1494  0.2494
  540MOL0     C71202   9.417   6.069   6.682  0.8364 -0.6045 -0.3719
  540MOL0     C71203   9.484   6.085   6.807 -0.9564  0.2356  0.3537
  540MOL0     C71204   9.468   5.999   6.914 -0.6359 -0.1703  0.3065
  540MOL0     C71205   9.366   5.899   6.913  0.7638 -0.2770  0.7895
  540MOL0     O71206   9.337   5.821   7.020  1.0033  0.1783 -0.7341
  540MOL0     C71207   9.306   5.885   7.143 -0.5729 -0.2837  0.6018
  540MOL0     C71208   9.290   5.793   7.257 -0.2591  0.1286  0.2450
  540MOL0     C71209   9.199   5.667   7.224  0.0420 -0.4766  0.0476
  540MOL0     C71210   9.049   5.710   7.194 -0.1458  0.0562 -0.9569
  540MOL0     C71211   8.986   5.796   7.299  0.5875 -0.1222  0.6254
  540MOL0     C71212   8.932   5.855   7.386 -0.3736  0.1864 -0.9503
  540MOL0     C71213   9.289   5.893   6.793  0.9853  0.9360 -0.6027
  540MOL0     C71214   9.325   5.963   6.674 -0.8222 -0.2297 -0.9526
  540MOL0     H71215   9.693   6.168   6.340  0.9367  0.9927  0.2839
  540MOL0     H71216   9.731   6.324   6.159 -1.2452 -0.8775 -0.8422
  540MOL0     H71217   9.517   6.471   6.053  0.3460 -0.1162 -1.3949
  540MOL0     H71218   9.665   6.490   5.971 -0.0752 -2.2353  2.0749
  540MOL0     H71219   9.468   6.723   6.016  1.2130 -2.1926  1.9576
  540MOL0     H71220   9.490   6.627   5.862  0.4926 -1.7624  1.0048
  540MOL0     H71221   9.698   6.719   5.828  0.4380  0.5067  0.6415
  540MOL0     H71222   9.714   6.782   5.992 -0.1563  0.3492  0.2339
  540MOL0     H71223   9.577   6.891   5.747  0.0505  0.7176  0.5274
  540MOL0     H71224   9.495   6.928   5.901  0.5094 -0.1682  1.5024
  540MOL0     H71225   9.690   7.083   5.790 -1.5992 -1.5800 -0.7414
  540MOL0     H71226   9.802   6.973   5.863  1.1341 -0.2858  1.0161
  540MOL0     H71227   9.635   7.029   6.082 -1.0703 -2.9083 -1.5485
  540MOL0     H71228   9.599   7.159   5.974  2.5143  2.3749  0.9386
  540MOL0     H71229   9.812   7.180   6.148  0.8307 -0.8463  1.0922
  540MOL0     H71230   9.902   7.097   6.026 -2.4311 -1.0818  0.9393
  540MOL0     H71231   9.741   7.354   5.982  0.6666  2.0208 -0.5745
  540MOL0     H71232   9.837   7.264   5.850  0.3008 -3.0608  0.6048
  540MOL0     H71233   9.884   7.490   6.173 -1.5547  1.7353 -2.7350
  540MOL0     H71234  10.086   7.687   6.193 -0.9449 -0.8218  0.2413
  540MOL0     H71235  10.239   7.632   6.125 -1.2972  1.7404  0.3902
  540MOL0     H71236  10.243   7.474   6.308 -1.0320 -0.6602  0.0662
  540MOL0     H71237  10.078   7.524   6.369  0.4635  1.7074  1.1874
  540MOL0     H71238  10.311   7.721   6.366 -2.1798  1.8108 -1.6144
  540MOL0     H71239  10.140   7.747   6.410  1.0427  1.3712  0.5739
  540MOL0     H71240  10.341   7.562   6.546 -1.1150  0.0840 -4.9127
  540MOL0     H71241  10.170   7.562   6.593  0.5457 -1.9113 -2.8124
  540MOL0     H71242  10.366   7.522   6.810 -1.7063  1.1461  3.7804
  540MOL0     H71243  10.576   7.521   6.913 -0.7822 -0.5951 -2.6099
  540MOL0     H71244  10.958   7.407   6.922 -2.4190  0.4164  0.6487
  540MOL0     H71245  11.146   7.345   7.031 -0.7651 -0.0832  0.3423
  540MOL0     H71246  11.442   7.503   7.031 -1.8319  2.9047  1.0194
  540MOL0     H71247  11.396   7.340   7.106  3.1129 -1.2378 -1.5826
  540MOL0     H71248  11.530   7.364   7.290  1.0115  1.9117  2.2294
  540MOL0     H71249  11.541   7.542   7.259 -3.6530  1.5918 -3.0540
  540MOL0     H71250  11.689   7.458   7.059  0.9453 -0.3336 -0.1416
  540MOL0     H71251  11.624   7.292   7.105  1.2949 -0.2216 -0.7874
  540MOL0     H71252  11.789   7.474   7.285  0.3466 -0.8159  0.7654
  540MOL0     H71253  11.749   7.307   7.318 -3.6425  0.6014 -0.4456
  540MOL0     H71254  11.986   7.392   7.213  1.1150 -0.7573 -3.0823
  540MOL0     H71255  11.891   7.417   7.067  0.4982 -1.0622 -1.5590
  540MOL0     H71256  11.996   7.236   7.007  2.5326  1.2734  2.2953
  540MOL0     H71257  11.859   7.158   7.066  1.0930 -1.4760  1.9950
  540MOL0     H71258  12.093   7.181   7.255  0.9809  0.5046 -0.9869
  540MOL0     H71259  11.954   7.062   7.268  2.4025 -3.1116 -0.4920
  540MOL0     H71260  12.149   6.954   7.176  0.1438 -1.3354 -2.0431
  540MOL0     H71261  12.164   7.087   7.050 -0.6745  2.1780  0.0985
  540MOL0     H71262  11.182   7.725   7.228 -2.1552 -0.9877  1.5220
  540MOL0     H71263  10.969   7.795   7.139  4.2129  1.2334 -0.0045
  540MOL0     H71264  10.595   7.951   6.838 -2.9154  1.5449  0.9872
  540MOL0     H71265  10.413   7.942   6.697  0.7581 -1.0646 -2.1105
  540MOL0     H71266   9.594   6.652   6.384  0.4780  0.2354 -0.3521
  540MOL0     H71267   9.522   6.496   6.568  2.1213  4.3042 -0.8217
  540MOL0     H71268   9.552   6.170   6.806 -1.3036  0.5908 -2.6015
  540MOL0     H71269   9.544   5.999   6.991 -2.1221  2.7334  1.9570
  540MOL0     H71270   9.209   5.928   7.116 -0.3561 -0.1681 -0.0093
  540MOL0     H71271   9.376   5.967   7.158  0.4815 -0.8817 -0.8215
  540MOL0     H71272   9.387   5.759   7.295 -0.3357 -2.3016 -1.5192
  540MOL0     H71273   9.244   5.857   7.333  0.8165  1.9624 -0.5883
  540MOL0     H71274   9.202   5.599   7.311  3.6437  0.8250  1.1400
  540MOL0     H71275   9.238   5.618   7.134  1.8787  0.6153  0.1970
  540MOL0     H71276   9.032   5.760   7.099 -2.6212 -0.8405 -1.0547
  540MOL0     H71277   9.003   5.611   7.187 -0.2311  0.0044  0.1030
  540MOL0     H71278   8.893   5.906   7.472  0.1270  2.5791 -2.0669
  540MOL0     H71279   9.203   5.827   6.784  1.8303 -0.2613 -0.1622
  540MOL0     H71280   9.267   5.949   6.584 -0.4343 -1.7834 -0.9801
  541MOL0     O71281   2.366   6.393   5.147 -1.3546  0.0446  0.4074
  541MOL0     C71282   2.246   6.426   5.158  0.2851 -0.1483  0.1630
  541MOL0     O71283   2.181   6.436   5.275  0.4133 -0.0809  0.5454
  541MOL0     C71284   2.266   6.442   5.378 -0.4129 -0.4101  0.0230
  541MOL0     C71285   2.283   6.330   5.463 -0.1103  0.8829  0.7393
  541MOL0     C71286   2.376   6.337   5.573  0.9756 -0.4437 -0.3996
  541MOL0     C71287   2.458   6.442   5.585 -0.7593  0.3057 -0.5414
  541MOL0     O71288   2.541   6.451   5.694  0.2594  0.3568 -0.5492
  541MOL0     C71289   2.637   6.347   5.708  0.7886 -0.6710 -0.2752
  541MOL0     C71290   2.767   6.400   5.741 -0.0774  0.1411 -0.2682
  541MOL0     C71291   2.888   6.300   5.713  1.0188 -0.2216 -0.5353
  541MOL0     C71292   2.898   6.181   5.810 -0.0122 -0.0885  0.1234
  541MOL0     C71293   3.029   6.111   5.774  0.4118 -0.2333 -0.6570
  541MOL0     C71294   3.127   6.116   5.886 -1.1232  0.0115  0.6143
  541MOL0     C71295   3.075   6.075   6.028 -0.1903  0.3204  0.0271
  541MOL0     C71296   3.186   6.018   6.121  0.6327 -1.0991  0.4182
  541MOL0     N71297   3.275   5.923   6.060  0.0670 -0.0819 -1.4000
  541MOL0     C71298   3.399   5.964   6.023 -0.4864 -0.5832  0.4053
  541MOL0     C71299   3.461   5.850   5.969 -0.1293  0.1383 -0.2344
  541MOL0     C71300   3.592   5.847   5.894 -0.5033 -0.6402 -0.5877
  541MOL0     C71301   3.711   5.819   5.986  0.8221 -0.8992  0.6252
  541MOL0     C71302   3.831   5.871   5.924  0.4017 -0.5657  0.1883
  541MOL0     C71303   3.937   5.869   6.023 -0.1403 -0.2894  0.6104
  541MOL0     O71304   4.059   5.890   5.954 -0.1564 -0.0442 -0.0646
  541MOL0     C71305   4.175   5.853   6.015 -0.7455  0.3722  0.3498
  541MOL0     C71306   4.287   5.910   5.951  0.1667 -0.2590  0.3546
  541MOL0     C71307   4.415   5.889   5.999  0.4103 -0.0271 -0.3798
  541MOL0     C71308   4.440   5.787   6.101 -0.8830 -0.0526 -0.4071
  541MOL0     C71309   4.585   5.748   6.141  0.5593  0.0403 -0.5539
  541MOL0     O71310   4.607   5.648   6.229  0.0745  0.0691 -0.0091
  541MOL0     C71311   4.734   5.644   6.279  0.5736  0.5337  0.0906
  541MOL0     C71312   4.769   5.707   6.398 -0.2389  0.5779  0.1888
  541MOL0     C71313   4.901   5.716   6.444 -0.0267  0.5318 -0.0289
  541MOL0     C71314   4.994   5.662   6.360 -0.1723 -1.0390 -0.7803
  541MOL0     O71315   5.131   5.695   6.387  0.9747 -0.0678 -0.7492
  541MOL0     C71316   5.223   5.668   6.288  0.1856  0.1717 -1.2415
  541MOL0     C71317   5.361   5.731   6.317 -1.3401  1.0908  1.1141
  541MOL0     C71318   5.457   5.616   6.377  0.7856  0.2969  0.0260
  541MOL0     C71319   5.400   5.551   6.505  0.3220 -0.4979 -0.1033
  541MOL0     C71320   5.520   5.468   6.569  0.2804  0.3179  0.5799
  541MOL0     C71321   5.485   5.439   6.719  0.3706 -0.3686  0.3463
  541MOL0     C71322   5.519   5.548   6.830  0.9312  0.2249  0.9619
  541MOL0     C71323   5.512   5.481   6.969  0.7192 -0.1823 -0.0801
  541MOL0    Cl71324   5.585   5.603   7.089 -0.1980 -0.2704 -0.1465
  541MOL0     C71325   4.960   5.582   6.246  0.1186  1.0649  0.7556
  541MOL0     C71326   4.827   5.579   6.202  1.2351 -0.2435  0.3575
  541MOL0     O71327   4.670   5.816   6.090  0.2572 -0.2327  0.0795
  541MOL0     C71328   4.324   5.739   6.163 -0.6974  0.8006 -0.0818
  541MOL0     C71329   4.193   5.761   6.120 -0.3349 -0.5884 -0.0887
  541MOL0     N71330   3.364   5.752   5.972  0.5064  0.1702 -0.5059
  541MOL0     N71331   3.250   5.793   6.020  0.0186  0.0725  0.0308
  541MOL0     C71332   2.445   6.553   5.506 -0.3418 -0.3767 -0.2067
  541MOL0     C71333   2.347   6.550   5.398 -0.2150 -0.4941 -0.6642
  541MOL0     C71334   2.174   6.452   5.037  0.4174 -0.3136 -0.0904
  541MOL0     C71335   2.048   6.509   5.044  0.2867  0.1564 -0.0934
  541MOL0     C71336   1.980   6.538   4.929 -0.2992  0.4114 -0.0151
  541MOL0     C71337   2.044   6.533   4.804  0.0003 -0.2105 -0.1372
  541MOL0     O71338   1.971   6.583   4.693 -0.4686 -0.1654 -0.6943
  541MOL0     C71339   1.897   6.488   4.619  0.0584  0.6018  0.3364
  541MOL0     C71340   1.765   6.552   4.586 -0.3791  0.4088 -0.7548
  541MOL0     C71341   1.678   6.585   4.708  0.1205  0.2525 -0.1521
  541MOL0     C71342   1.547   6.658   4.657 -0.5439  0.7085  0.7297
  541MOL0     C71343   1.476   6.720   4.771 -0.1580  0.0771  0.2691
  541MOL0     C71344   1.435   6.759   4.872  0.1010 -0.1198 -1.0116
  541MOL0     C71345   2.172   6.485   4.793  0.5166 -0.2983  0.1770
  541MOL0     C71346   2.238   6.448   4.911 -0.0516 -0.8388  0.0449
  541MOL0     H71347   2.225   6.241   5.439  0.3096  0.7901  0.0479
  541MOL0     H71348   2.371   6.262   5.652 -2.4200 -0.5295 -0.5357
  541MOL0     H71349   2.645   6.290   5.615 -1.0542 -2.8988  0.8509
  541MOL0     H71350   2.605   6.274   5.782 -4.4185  1.3122 -0.1236
  541MOL0     H71351   2.767   6.430   5.846 -1.6819  1.3059 -0.5524
  541MOL0     H71352   2.777   6.481   5.668  1.0862 -0.8241 -1.2319
  541MOL0     H71353   2.979   6.361   5.722  1.1972 -0.4340 -0.8463
  541MOL0     H71354   2.873   6.275   5.607  1.0498  2.0203 -1.1232
  541MOL0     H71355   2.902   6.225   5.910  0.2201  2.1658 -0.8109
  541MOL0     H71356   2.818   6.109   5.789  2.1149 -2.2039 -1.3028
  541MOL0     H71357   3.078   6.149   5.684  2.0269 -0.2472  0.1807
  541MOL0     H71358   3.007   6.006   5.751  5.5904 -1.5455 -1.0564
  541MOL0     H71359   3.165   6.218   5.892 -2.5352  0.4726  3.5925
  541MOL0     H71360   3.209   6.046   5.864 -0.9994  0.0084  1.0722
  541MOL0     H71361   3.016   6.156   6.073 -0.2443  0.5369 -0.4271
  541MOL0     H71362   3.003   5.993   6.015 -0.6712  1.0717 -2.8119
  541MOL0     H71363   3.155   5.973   6.215  2.0337 -3.7127 -0.2828
  541MOL0     H71364   3.246   6.104   6.153 -2.2745  1.9228 -1.5588
  541MOL0     H71365   3.433   6.067   6.035 -1.9154  0.0640 -0.7598
  541MOL0     H71366   3.608   5.946   5.849 -0.7328 -0.9573 -1.3985
  541MOL0     H71367   3.582   5.769   5.817 -1.7002  0.0316 -1.1567
  541MOL0     H71368   3.715   5.714   6.018 -2.0995 -0.7132  1.9498
  541MOL0     H71369   3.679   5.877   6.073 -0.8519 -0.9504  0.0705
  541MOL0     H71370   3.854   5.796   5.848  2.4744  1.0399 -0.8893
  541MOL0     H71371   3.828   5.967   5.870 -0.5735 -0.8758 -0.3267
  541MOL0     H71372   3.946   5.781   6.086  3.0923  0.3469  1.2144
  541MOL0     H71373   3.918   5.953   6.090 -2.6993 -2.0635  2.2747
  541MOL0     H71374   4.269   5.976   5.866 -0.3717 -0.1642  0.5382
  541MOL0     H71375   4.483   5.947   5.938  1.7129  1.1156  2.0732
  541MOL0     H71376   4.685   5.756   6.446 -0.7256 -0.4281  0.3909
  541MOL0     H71377   4.928   5.777   6.529 -3.1718  0.4810  1.1356
  541MOL0     H71378   5.187   5.713   6.196 -1.1475  2.0694  0.1328
  541MOL0     H71379   5.236   5.560   6.276 -3.2710 -0.3528 -1.2581
  541MOL0     H71380   5.361   5.823   6.377  0.0211  1.1427  1.0529
  541MOL0     H71381   5.396   5.757   6.217 -2.0260 -0.5296  0.4246
  541MOL0     H71382   5.546   5.669   6.411  1.2944  1.2781 -2.6366
  541MOL0     H71383   5.486   5.551   6.295  0.5101  1.6923 -1.2182
  541MOL0     H71384   5.375   5.627   6.579  0.0696 -1.0169  0.3525
  541MOL0     H71385   5.316   5.483   6.485  1.1976 -1.5702 -0.2082
  541MOL0     H71386   5.613   5.526   6.570  1.3740 -1.2707 -1.6217
  541MOL0     H71387   5.544   5.377   6.514  1.7410  1.1893 -0.3029
  541MOL0     H71388   5.534   5.344   6.740  2.1463  0.0934 -1.3836
  541MOL0     H71389   5.382   5.403   6.732 -0.1200  0.6259 -0.6063
  541MOL0     H71390   5.621   5.583   6.811  0.3834  1.1509 -0.4442
  541MOL0     H71391   5.453   5.634   6.813 -1.4566 -1.5491  0.7440
  541MOL0     H71392   5.580   5.396   6.976 -1.7355 -2.1598  1.5170
  541MOL0     H71393   5.408   5.458   6.997  1.5888 -1.6550  2.2398
  541MOL0     H71394   5.032   5.526   6.188  0.3318  1.4167  0.6760
  541MOL0     H71395   4.791   5.526   6.114  3.8970 -0.0941 -0.9275
  541MOL0     H71396   4.344   5.670   6.245  0.5359 -0.6540 -1.5381
  541MOL0     H71397   4.114   5.700   6.161  1.1688 -2.6065 -0.0560
  541MOL0     H71398   2.513   6.635   5.523 -0.5183 -0.6971  2.5345
  541MOL0     H71399   2.338   6.644   5.345  0.3637  1.1605  1.9555
  541MOL0     H71400   2.000   6.519   5.141  0.6940  2.3523 -0.0697
  541MOL0     H71401   1.876   6.569   4.923 -0.2553  0.7667  0.8607
  541MOL0     H71402   1.896   6.392   4.669  5.5874 -0.3079 -0.6261
  541MOL0     H71403   1.958   6.470   4.530 -0.6217 -3.2288  0.4887
  541MOL0     H71404   1.792   6.648   4.541  2.7023  3.2851  5.8148
  541MOL0     H71405   1.710   6.484   4.520 -0.2684  0.2862 -0.7221
  541MOL0     H71406   1.734   6.653   4.772 -0.6319 -0.2358  1.0518
  541MOL0     H71407   1.641   6.501   4.768 -0.2173  0.3252 -0.2540
  541MOL0     H71408   1.572   6.734   4.583  0.7476 -1.3868 -1.0796
  541MOL0     H71409   1.478   6.584   4.615  0.7436  1.7217 -3.6433
  541MOL0     H71410   1.386   6.782   4.965  1.5402 -1.0873  0.0274
  541MOL0     H71411   2.220   6.488   4.696  0.7372  0.1365  0.2964
  541MOL0     H71412   2.334   6.408   4.880  0.7282  2.2732 -2.0370
  542MOL0     O71413   3.512   2.806   2.277  0.0709  0.5780  0.4214
  542MOL0     C71414   3.503   2.909   2.208  0.3197  1.1584 -0.0289
  542MOL0     O71415   3.405   2.998   2.209 -0.2777  0.2345  0.4844
  542MOL0     C71416   3.330   3.010   2.321  0.1280  0.7512  0.5282
  542MOL0     C71417   3.365   2.996   2.453  0.4864 -0.3918  0.3085
  542MOL0     C71418   3.257   2.997   2.548 -0.7438  0.9822 -0.6544
  542MOL0     C71419   3.126   3.031   2.515  0.8739  0.2109 -0.4478
  542MOL0     O71420   3.037   3.038   2.623 -0.3147  0.3567  0.8101
  542MOL0     C71421   2.922   3.110   2.598 -0.2306 -0.4426  0.4008
  542MOL0     C71422   2.849   3.126   2.726  0.4768 -0.2698  0.8218
  542MOL0     C71423   2.826   3.001   2.813 -0.5104  0.0835 -0.2974
  542MOL0     C71424   2.735   3.013   2.934 -0.2293  1.5655  0.3535
  542MOL0     C71425   2.594   3.067   2.908  0.6430  0.7894  0.6408
  542MOL0     C71426   2.519   3.080   3.038 -0.3010  0.1714 -0.8735
  542MOL0     C71427   2.408   3.175   3.013  0.7079  0.8280 -0.6110
  542MOL0     C71428   2.298   3.170   3.123  0.4508  0.3776 -0.1038
  542MOL0     N71429   2.359   3.196   3.254  1.0385 -0.3841  0.1508
  542MOL0     C71430   2.443   3.106   3.324 -0.6744 -0.8363  0.7456
  542MOL0     C71431   2.447   3.163   3.445 -0.2937 -0.2996 -0.0599
  542MOL0     C71432   2.500   3.089   3.558 -0.0619 -0.3931 -0.0966
  542MOL0     C71433   2.654   3.055   3.522 -0.5813  0.1419 -0.5393
  542MOL0     C71434   2.743   3.018   3.644 -0.7451 -0.1093  0.5014
  542MOL0     C71435   2.670   2.928   3.742 -0.2035 -0.8575  0.4736
  542MOL0     O71436   2.601   3.008   3.837  0.0704 -0.2331 -0.1443
  542MOL0     C71437   2.543   2.953   3.937  0.4762 -0.3485  0.2079
  542MOL0     C71438   2.425   2.876   3.942  1.0098 -1.3928  0.3637
  542MOL0     C71439   2.383   2.825   4.064 -0.5988 -0.8068 -1.0416
  542MOL0     C71440   2.459   2.846   4.182 -0.0654  0.4954 -0.1800
  542MOL0     C71441   2.419   2.782   4.310 -0.5163 -0.9792 -0.2657
  542MOL0     O71442   2.506   2.782   4.416  0.4204 -0.3371  0.1294
  542MOL0     C71443   2.460   2.722   4.529  0.8660  0.6368 -0.1921
  542MOL0     C71444   2.478   2.583   4.541  0.9325 -0.3394  0.1939
  542MOL0     C71445   2.433   2.519   4.656  0.2412  0.4596  0.8097
  542MOL0     C71446   2.382   2.587   4.766 -0.1526 -0.7061 -0.0209
  542MOL0     O71447   2.353   2.541   4.888  0.6718 -1.0079 -0.4740
  542MOL0     C71448   2.414   2.425   4.934  0.5751  0.8717  0.4231
  542MOL0     C71449   2.559   2.456   4.962 -0.3567  0.5950  0.1569
  542MOL0     C71450   2.645   2.324   4.993 -0.1928 -0.3601  1.3255
  542MOL0     C71451   2.803   2.354   4.999 -0.3621 -0.5171  0.3215
  542MOL0     C71452   2.886   2.233   5.053  0.1253 -0.0083 -0.3870
  542MOL0     C71453   3.029   2.278   5.089  0.1818 -0.0102 -0.8166
  542MOL0     C71454   3.096   2.187   5.196  0.0567  0.4478 -0.5102
  542MOL0     C71455   3.091   2.040   5.156 -0.0875 -0.0341 -0.2841
  542MOL0    Cl71456   2.956   1.947   5.249 -0.0245 -0.4219  0.1749
  542MOL0     C71457   2.362   2.725   4.755  0.0712 -0.1439 -0.4278
  542MOL0     C71458   2.410   2.790   4.642 -0.6155  0.2624 -0.6318
  542MOL0     O71459   2.301   2.747   4.310 -0.1255 -0.0440 -0.2513
  542MOL0     C71460   2.561   2.949   4.179  0.0395 -0.5413  0.0577
  542MOL0     C71461   2.599   2.999   4.057 -0.0762 -0.2987  0.9016
  542MOL0     N71462   2.370   3.279   3.436 -0.6564 -0.5097 -0.7013
  542MOL0     N71463   2.311   3.301   3.327  0.0427 -0.8017  1.0038
  542MOL0     C71464   3.095   3.054   2.376 -0.1811 -0.5644 -0.1335
  542MOL0     C71465   3.202   3.041   2.286  0.5705  0.7228 -0.3390
  542MOL0     C71466   3.614   2.919   2.114 -0.2333  0.5312  0.7850
  542MOL0     C71467   3.615   3.041   2.025 -0.6809  0.5934 -0.7141
  542MOL0     C71468   3.733   3.066   1.953  0.5455 -0.7404  0.0370
  542MOL0     C71469   3.844   2.981   1.950  0.1271 -0.5674 -0.4798
  542MOL0     O71470   3.955   3.000   1.864 -0.3363 -0.7551  0.3659
  542MOL0     C71471   3.958   3.114   1.780  0.3387 -0.3998  0.1675
  542MOL0     C71472   4.102   3.111   1.730  0.7280  0.2747 -0.2662
  542MOL0     C71473   4.162   3.239   1.679  0.1552  0.4341 -0.3803
  542MOL0     C71474   4.303   3.214   1.633  0.2556 -0.9175 -1.1140
  542MOL0     C71475   4.362   3.335   1.564  0.1330 -0.2663 -0.6152
  542MOL0     C71476   4.407   3.431   1.518 -0.7622 -0.8935  0.3105
  542MOL0     C71477   3.841   2.866   2.031  0.8615 -0.6330  0.3460
  542MOL0     C71478   3.727   2.832   2.108 -0.1358 -0.2202 -0.3703
  542MOL0     H71479   3.464   2.972   2.491  1.3173  0.0725 -1.4756
  542MOL0     H71480   3.286   2.992   2.652  0.3572 -0.6973 -0.9984
  542MOL0     H71481   2.868   3.047   2.527  2.9243 -3.1219  0.1726
  542MOL0     H71482   2.950   3.196   2.535  0.7565 -3.6163 -3.9584
  542MOL0     H71483   2.748   3.156   2.694  0.2156  0.7389  2.5034
  542MOL0     H71484   2.903   3.195   2.791  1.3087 -1.8868  1.9116
  542MOL0     H71485   2.927   2.976   2.846 -1.2737 -0.5227  1.8062
  542MOL0     H71486   2.781   2.929   2.744 -2.1825  0.5881  0.2024
  542MOL0     H71487   2.740   2.910   2.971 -0.6730  1.3908 -0.0614
  542MOL0     H71488   2.782   3.064   3.019  2.7339  0.8514 -0.7223
  542MOL0     H71489   2.544   3.001   2.837  0.2981 -0.2985  1.8380
  542MOL0     H71490   2.610   3.169   2.872 -0.1069  1.0563  1.0446
  542MOL0     H71491   2.595   3.123   3.104  1.0013 -1.2694 -1.3651
  542MOL0     H71492   2.483   2.981   3.070 -0.5219  0.5833  0.2146
  542MOL0     H71493   2.451   3.274   2.993  2.1638  0.6519  1.3696
  542MOL0     H71494   2.364   3.156   2.915 -1.0706  0.7851  0.1561
  542MOL0     H71495   2.245   3.074   3.120  1.2808 -0.1525 -4.3908
  542MOL0     H71496   2.226   3.249   3.100  1.3233  0.4890 -2.8416
  542MOL0     H71497   2.491   3.017   3.284  0.4340 -0.2115  0.6268
  542MOL0     H71498   2.444   2.995   3.559  1.0030 -1.0749 -1.2742
  542MOL0     H71499   2.494   3.144   3.653  1.1090  0.1494 -0.3192
  542MOL0     H71500   2.702   3.136   3.467 -1.2641  0.2665 -0.9708
  542MOL0     H71501   2.658   2.973   3.450 -2.2153 -1.3263  0.9340
  542MOL0     H71502   2.829   2.973   3.595  0.5305  3.2559 -0.6614
  542MOL0     H71503   2.781   3.098   3.709  1.2952 -1.4910  1.0929
  542MOL0     H71504   2.748   2.873   3.798 -1.0999 -0.1545  2.5272
  542MOL0     H71505   2.612   2.857   3.683  1.8702 -1.8540 -0.4958
  542MOL0     H71506   2.368   2.873   3.849  2.0619 -0.6579 -0.3307
  542MOL0     H71507   2.299   2.757   4.065  0.8877 -2.7630  0.6829
  542MOL0     H71508   2.522   2.515   4.469  0.0011 -1.8519  1.0153
  542MOL0     H71509   2.454   2.412   4.648  0.4071  0.5770 -0.6555
  542MOL0     H71510   2.409   2.345   4.859  0.0020 -2.2534  3.4811
  542MOL0     H71511   2.358   2.382   5.018  1.3048 -1.9147 -0.4126
  542MOL0     H71512   2.562   2.514   5.054  4.3064 -1.4600  1.6104
  542MOL0     H71513   2.607   2.501   4.875 -0.8479 -0.1295 -0.5061
  542MOL0     H71514   2.625   2.245   4.920 -1.8712  1.2231 -0.0477
  542MOL0     H71515   2.614   2.281   5.089 -0.1743 -1.0369  1.0376
  542MOL0     H71516   2.843   2.379   4.900 -2.7241 -0.1922 -0.6368
  542MOL0     H71517   2.814   2.445   5.058 -1.6930  1.3327 -2.0507
  542MOL0     H71518   2.892   2.142   4.993  0.3592 -1.0790  1.2299
  542MOL0     H71519   2.830   2.204   5.142 -0.5930 -0.0788 -0.8531
  542MOL0     H71520   3.024   2.382   5.121  0.5439  0.1032 -1.1278
  542MOL0     H71521   3.089   2.266   4.999 -1.4616  1.3785 -2.1468
  542MOL0     H71522   3.203   2.207   5.195  1.1577 -4.2794 -0.1177
  542MOL0     H71523   3.061   2.210   5.297  0.6809  0.4520 -0.2937
  542MOL0     H71524   3.192   2.007   5.184  0.1895  0.6488 -0.4684
  542MOL0     H71525   3.075   2.028   5.049  2.1469 -1.2529 -0.5385
  542MOL0     H71526   2.329   2.784   4.839 -1.0543  0.1160 -1.0360
  542MOL0     H71527   2.407   2.898   4.633  1.0418  0.2768 -1.5720
  542MOL0     H71528   2.611   2.989   4.267  0.9176 -1.1282 -0.1619
  542MOL0     H71529   2.664   3.086   4.059 -3.2021  2.3198 -0.6411
  542MOL0     H71530   2.992   3.068   2.344 -0.2753 -0.3921  0.2383
  542MOL0     H71531   3.178   3.055   2.181  1.3892 -2.3597 -1.0376
  542MOL0     H71532   3.533   3.112   2.017 -0.6084  1.2276  2.7710
  542MOL0     H71533   3.721   3.153   1.889 -2.6430 -1.5680 -0.6909
  542MOL0     H71534   3.957   3.209   1.834 -0.8021  0.1221 -0.7123
  542MOL0     H71535   3.877   3.111   1.706 -0.2094 -1.9027  0.7920
  542MOL0     H71536   4.166   3.100   1.818  2.5919  0.3561 -1.5564
  542MOL0     H71537   4.111   3.024   1.665 -0.0472 -0.1948  0.2305
  542MOL0     H71538   4.152   3.313   1.758 -0.8920  0.8235 -0.8655
  542MOL0     H71539   4.110   3.274   1.590 -0.5472  0.0292 -0.1429
  542MOL0     H71540   4.358   3.197   1.726 -1.1885  0.9272  0.1480
  542MOL0     H71541   4.298   3.123   1.573  0.3534 -0.1021 -2.4036
  542MOL0     H71542   4.427   3.529   1.480 -1.0701 -1.1051 -0.4189
  542MOL0     H71543   3.922   2.794   2.029 -0.1794 -1.8366  0.3821
  542MOL0     H71544   3.740   2.745   2.172 -1.5938 -0.6229 -0.5973
  543MOL0     O71545   5.633   3.810   4.565 -0.5250  0.3707 -1.2306
  543MOL0     C71546   5.603   3.932   4.568 -0.3874  0.3925  0.2226
  543MOL0     O71547   5.694   4.038   4.558  1.0998 -0.2541  0.5330
  543MOL0     C71548   5.816   4.035   4.499 -0.8905 -0.5340  0.5980
  543MOL0     C71549   5.854   4.136   4.418  0.9512 -0.0456 -0.7016
  543MOL0     C71550   5.979   4.134   4.363  0.1271 -0.0203  0.0706
  543MOL0     C71551   6.066   4.028   4.389  0.1254  0.3995 -0.7410
  543MOL0     O71552   6.185   4.009   4.329  0.1169 -0.2533  0.2857
  543MOL0     C71553   6.206   4.049   4.193  0.5508  0.6532 -0.0541
  543MOL0     C71554   6.114   3.969   4.105 -0.1266  1.7206  0.0331
  543MOL0     C71555   6.175   3.824   4.107  0.7578 -0.4839  0.1798
  543MOL0     C71556   6.136   3.738   3.988 -0.2195 -0.1341 -0.1209
  543MOL0     C71557   6.194   3.601   4.011 -0.1732 -0.5791  0.0105
  543MOL0     C71558   6.183   3.524   3.876  0.8366  0.6086 -0.6028
  543MOL0     C71559   6.057   3.438   3.862 -0.0449  0.5000  0.8704
  543MOL0     C71560   6.061   3.349   3.738 -0.0582 -0.0417 -0.6060
  543MOL0     N71561   5.923   3.309   3.702 -0.2110  0.3005  1.0484
  543MOL0     C71562   5.857   3.194   3.728 -0.2628 -0.6421 -1.3397
  543MOL0     C71563   5.741   3.195   3.658 -0.2969 -0.2534 -0.1581
  543MOL0     C71564   5.638   3.087   3.663 -0.0280  0.4436 -0.1336
  543MOL0     C71565   5.522   3.140   3.742  0.2079 -0.3518 -0.0335
  543MOL0     C71566   5.412   3.031   3.766  0.0499  0.0141  0.1814
  543MOL0     C71567   5.274   3.086   3.785  0.3723 -0.4262  0.2639
  543MOL0     O71568   5.175   2.985   3.774  0.3314  0.2376  0.7254
  543MOL0     C71569   5.043   3.019   3.807 -0.4092  0.4076 -0.2166
  543MOL0     C71570   5.005   3.148   3.848 -0.3731  0.5464  0.1076
  543MOL0     C71571   4.870   3.169   3.882  1.1527 -0.1766 -0.3672
  543MOL0     C71572   4.768   3.075   3.876 -0.1400 -0.1654 -0.1516
  543MOL0     C71573   4.622   3.104   3.900 -0.2501 -0.2456 -0.1706
  543MOL0     O71574   4.595   3.229   3.943  0.2511  0.3262  0.7227
  543MOL0     C71575   4.458   3.252   3.945 -0.5205 -0.3516 -0.1462
  543MOL0     C71576   4.392   3.270   3.825 -0.2016  0.0764  0.5957
  543MOL0     C71577   4.259   3.300   3.815  0.8354  0.2735 -0.4693
  543MOL0     C71578   4.181   3.314   3.933 -0.0451  0.3133  0.1638
  543MOL0     O71579   4.046   3.350   3.929  0.4211 -0.5845 -0.7713
  543MOL0     C71580   3.950   3.261   3.877  1.0577  0.5405 -0.0153
  543MOL0     C71581   3.806   3.304   3.917  0.1004 -1.2038  0.7553
  543MOL0     C71582   3.780   3.306   4.069 -0.0184  0.4007  1.1084
  543MOL0     C71583   3.640   3.358   4.107 -0.1036  0.7560 -0.4705
  543MOL0     C71584   3.599   3.320   4.255 -1.0488  0.5298  0.1294
  543MOL0     C71585   3.441   3.317   4.271  0.7581 -0.1599 -0.1255
  543MOL0     C71586   3.354   3.449   4.276 -0.7613 -0.5086  0.4311
  543MOL0     C71587   3.324   3.503   4.135 -0.1840  1.0718  0.4203
  543MOL0    Cl71588   3.222   3.386   4.039  0.0941 -0.1292 -1.0626
  543MOL0     C71589   4.247   3.294   4.060 -0.7429  0.3907  0.2581
  543MOL0     C71590   4.384   3.260   4.065  1.0232  1.2131  0.0195
  543MOL0     O71591   4.542   3.012   3.889  0.0138  0.2522  0.6041
  543MOL0     C71592   4.811   2.954   3.830 -1.4680  0.2898 -0.5633
  543MOL0     C71593   4.940   2.919   3.795 -0.2152  1.4130 -1.9007
  543MOL0     N71594   5.751   3.309   3.575  0.1785  1.3171  0.1466
  543MOL0     N71595   5.864   3.363   3.599  0.6708  0.6855  0.3486
  543MOL0     C71596   6.036   3.936   4.491 -0.0286 -0.0920 -0.6260
  543MOL0     C71597   5.901   3.919   4.530  0.8284 -0.9270  0.2164
  543MOL0     C71598   5.453   3.966   4.578 -0.5868  0.0244 -0.0873
  543MOL0     C71599   5.404   4.092   4.600  0.7367 -0.3966  1.3399
  543MOL0     C71600   5.264   4.115   4.598  0.8155  0.6067 -0.8148
  543MOL0     C71601   5.166   4.017   4.587  0.1561 -1.1294  0.0436
  543MOL0     O71602   5.039   4.050   4.621  0.2418 -0.4358  0.4132
  543MOL0     C71603   4.962   3.938   4.664  0.6252 -0.0667  0.2228
  543MOL0     C71604   4.837   3.974   4.738 -0.9879  0.7801 -0.0382
  543MOL0     C71605   4.723   3.887   4.695  0.5465  0.1398  1.1403
  543MOL0     C71606   4.719   3.742   4.746 -0.3520  0.4009 -0.8330
  543MOL0     C71607   4.781   3.665   4.642 -0.4333  0.7323 -0.3964
  543MOL0     C71608   4.852   3.600   4.572 -0.0720 -0.9058 -0.0328
  543MOL0     C71609   5.220   3.889   4.569  0.0589  0.1667  0.2036
  543MOL0     C71610   5.353   3.862   4.557 -0.7105 -0.1568 -0.4916
  543MOL0     H71611   5.783   4.210   4.382  2.2484  1.7976  0.3504
  543MOL0     H71612   6.001   4.203   4.283  1.3751  0.3755  0.7319
  543MOL0     H71613   6.312   4.033   4.170  0.7352 -1.8680  1.9648
  543MOL0     H71614   6.195   4.154   4.167  1.6743  0.5299 -1.1386
  543MOL0     H71615   6.115   4.022   4.009  0.3962  3.3338  0.8921
  543MOL0     H71616   6.008   3.954   4.125 -0.1704 -2.9610 -2.3454
  543MOL0     H71617   6.139   3.768   4.194 -2.8335 -0.9550 -1.4363
  543MOL0     H71618   6.284   3.822   4.097  0.5304 -2.1337 -2.8192
  543MOL0     H71619   6.027   3.734   3.978 -0.6289  2.9088  1.6772
  543MOL0     H71620   6.179   3.784   3.899  1.2794 -1.4564 -0.1341
  543MOL0     H71621   6.150   3.545   4.094  3.0325 -1.6732  1.1306
  543MOL0     H71622   6.299   3.604   4.041  0.2024  0.4013 -1.2988
  543MOL0     H71623   6.273   3.462   3.879 -0.1139 -0.8333 -0.8853
  543MOL0     H71624   6.181   3.596   3.794  1.2945  1.1457 -0.1543
  543MOL0     H71625   6.032   3.368   3.942  0.8994 -1.9050 -0.8174
  543MOL0     H71626   5.970   3.503   3.843 -0.0339  0.9694  2.3508
  543MOL0     H71627   6.125   3.262   3.753  0.8325  0.2176 -2.6197
  543MOL0     H71628   6.105   3.402   3.653 -1.8703 -0.5375 -1.9202
  543MOL0     H71629   5.892   3.107   3.784  0.4231  0.0570 -0.6511
  543MOL0     H71630   5.674   2.996   3.711 -1.1077 -1.0073 -1.9192
  543MOL0     H71631   5.616   3.063   3.559  0.7353 -0.5989 -0.0633
  543MOL0     H71632   5.492   3.235   3.697 -1.1627 -0.9636 -0.4849
  543MOL0     H71633   5.562   3.162   3.842  3.0787 -1.7207 -0.7642
  543MOL0     H71634   5.400   2.959   3.684 -0.2789 -1.1041  1.1734
  543MOL0     H71635   5.435   2.976   3.858  1.1595 -0.0844 -0.1462
  543MOL0     H71636   5.254   3.156   3.704 -0.1259 -1.2012 -0.3020
  543MOL0     H71637   5.265   3.134   3.883  0.4800  6.8193 -2.6365
  543MOL0     H71638   5.066   3.235   3.830 -0.0590  0.5511  1.1057
  543MOL0     H71639   4.829   3.268   3.901 -2.3208 -1.7208  0.9803
  543MOL0     H71640   4.433   3.271   3.724 -0.5431  1.0420  0.4587
  543MOL0     H71641   4.211   3.320   3.719  0.4273 -2.7479 -1.0028
  543MOL0     H71642   3.982   3.162   3.912  0.7208  1.7056  4.1494
  543MOL0     H71643   3.954   3.265   3.768 -1.9893 -0.6026 -0.2731
  543MOL0     H71644   3.720   3.250   3.876 -0.5578  0.0550  0.4044
  543MOL0     H71645   3.799   3.406   3.877  0.0561  0.7972  5.2730
  543MOL0     H71646   3.858   3.365   4.118  0.5959 -1.5559  2.6094
  543MOL0     H71647   3.786   3.201   4.099 -2.0151 -0.5010 -1.3109
  543MOL0     H71648   3.637   3.465   4.085 -2.2569  0.7870 -0.2100
  543MOL0     H71649   3.570   3.314   4.035  1.0404  0.8244 -1.6650
  543MOL0     H71650   3.661   3.382   4.321 -0.6230  0.3381 -0.0872
  543MOL0     H71651   3.621   3.219   4.290 -2.4509  0.9444  2.3921
  543MOL0     H71652   3.420   3.263   4.364 -3.1221  2.5482  0.8184
  543MOL0     H71653   3.388   3.252   4.200 -3.0611 -2.1587  4.0405
  543MOL0     H71654   3.257   3.430   4.322 -2.1155  1.6768 -1.3018
  543MOL0     H71655   3.402   3.526   4.338 -2.5021  4.4131 -3.6262
  543MOL0     H71656   3.415   3.534   4.082 -0.6506  0.5384 -0.7261
  543MOL0     H71657   3.272   3.598   4.150  0.8218  1.3773  2.2190
  543MOL0     H71658   4.197   3.308   4.156 -2.3479  1.6551 -0.7127
  543MOL0     H71659   4.435   3.235   4.157 -0.8431  1.1179  1.0980
  543MOL0     H71660   4.738   2.876   3.813  1.7738 -2.9768 -0.6826
  543MOL0     H71661   4.991   2.828   3.766  0.4581  0.7279  1.1009
  543MOL0     H71662   6.105   3.852   4.494 -1.4020 -1.2267 -0.1620
  543MOL0     H71663   5.876   3.838   4.597  2.2269  0.8957  3.1753
  543MOL0     H71664   5.475   4.172   4.620  1.2697 -1.0770  2.2476
  543MOL0     H71665   5.227   4.217   4.602 -0.2039  0.2020  0.6369
  543MOL0     H71666   5.018   3.874   4.733 -2.3124 -1.2611  1.6570
  543MOL0     H71667   4.939   3.874   4.579 -2.4447 -1.5413  2.0061
  543MOL0     H71668   4.854   3.972   4.846  4.3853 -0.3069 -0.6425
  543MOL0     H71669   4.820   4.077   4.704  2.0318  2.1111  2.0181
  543MOL0     H71670   4.709   3.882   4.587  2.3308  2.6775  0.6919
  543MOL0     H71671   4.631   3.942   4.719  0.6142  0.8816 -0.1901
  543MOL0     H71672   4.764   3.736   4.845 -2.2409 -0.8342 -0.0089
  543MOL0     H71673   4.617   3.702   4.748 -0.3047  0.2712  1.4732
  543MOL0     H71674   4.904   3.544   4.497  3.3015 -0.7168  1.9310
  543MOL0     H71675   5.145   3.815   4.544 -1.8559  1.6538  1.2540
  543MOL0     H71676   5.389   3.762   4.540  1.8489  0.1544  2.3117
  544MOL0     O71677   7.914   3.870   5.244  0.1767  0.1263 -0.4258
  544MOL0     C71678   7.888   3.939   5.342  0.0563 -0.1947 -1.1606
  544MOL0     O71679   7.972   3.975   5.445  0.1174 -0.1639 -0.3482
  544MOL0     C71680   8.107   3.953   5.431 -0.3506  1.0941  0.9536
  544MOL0     C71681   8.192   4.049   5.486  0.1359 -0.4560 -0.6582
  544MOL0     C71682   8.322   4.033   5.510 -0.4568 -0.2549  0.0707
  544MOL0     C71683   8.386   3.916   5.466  0.4759 -0.7057 -0.1938
  544MOL0     O71684   8.519   3.911   5.476  0.1406  0.5297 -0.0135
  544MOL0     C71685   8.573   3.831   5.587 -0.5486  0.0451 -0.4341
  544MOL0     C71686   8.702   3.907   5.630 -0.0432  0.5971  0.5612
  544MOL0     C71687   8.816   3.919   5.527  0.0035  0.6214  0.0281
  544MOL0     C71688   8.958   3.881   5.583 -0.2421  0.5937  0.7235
  544MOL0     C71689   9.010   3.996   5.666 -0.6860 -0.5443  0.1425
  544MOL0     C71690   9.138   3.957   5.748 -0.5143  1.3670 -0.1317
  544MOL0     C71691   9.189   4.060   5.841  1.3893  1.1075  0.3310
  544MOL0     C71692   9.337   4.040   5.877  0.0893 -0.2935  0.1769
  544MOL0     N71693   9.422   4.094   5.770 -0.8497  0.2950 -0.5467
  544MOL0     C71694   9.471   4.228   5.745  0.2114  0.1946  0.2830
  544MOL0     C71695   9.548   4.217   5.633  0.3799 -0.1634  0.0398
  544MOL0     C71696   9.595   4.314   5.528 -0.2329 -0.8583 -0.8291
  544MOL0     C71697   9.734   4.276   5.474 -0.4691  1.0939  0.0758
  544MOL0     C71698   9.797   4.364   5.371  0.1020  0.4924  0.6763
  544MOL0     C71699   9.946   4.321   5.338  1.3841 -0.3550  0.0338
  544MOL0     O71700  10.032   4.353   5.447  0.4223 -0.5577  0.5648
  544MOL0     C71701  10.162   4.324   5.434 -0.5182 -0.8257 -0.1752
  544MOL0     C71702  10.235   4.329   5.557  0.1900  0.7917  0.1431
  544MOL0     C71703  10.374   4.322   5.550 -1.0580  0.3122 -0.0803
  544MOL0     C71704  10.438   4.286   5.427 -0.4420 -0.6456 -0.3252
  544MOL0     C71705  10.580   4.269   5.424  0.6417 -0.0956 -0.6484
  544MOL0     O71706  10.653   4.316   5.525  1.0704  0.8775 -0.6239
  544MOL0     C71707  10.786   4.310   5.518 -0.5931 -0.0056  0.8120
  544MOL0     C71708  10.861   4.403   5.442  1.1199 -0.5513  0.1861
  544MOL0     C71709  11.006   4.403   5.448  0.2180 -0.0192 -0.3837
  544MOL0     C71710  11.069   4.308   5.531  1.2136 -0.0395  0.8752
  544MOL0     O71711  11.200   4.304   5.534 -0.0398 -0.0238 -0.0924
  544MOL0     C71712  11.268   4.202   5.603  0.7541 -0.2304 -0.1386
  544MOL0     C71713  11.412   4.200   5.556 -0.0050 -0.4452  0.7282
  544MOL0     C71714  11.408   4.173   5.402  0.2694 -0.4373 -1.1249
  544MOL0     C71715  11.553   4.144   5.361 -0.4011 -0.4343  0.3451
  544MOL0     C71716  11.664   4.247   5.395 -0.6942  0.1982  0.0783
  544MOL0     C71717  11.637   4.389   5.334 -0.4439 -0.6234 -0.0155
  544MOL0     C71718  11.764   4.473   5.321  0.0447 -1.6970 -0.4017
  544MOL0     C71719  11.876   4.413   5.237 -0.8749  1.2501 -0.5931
  544MOL0    Cl71720  11.969   4.549   5.179 -0.1965 -0.1114 -0.7255
  544MOL0     C71721  10.988   4.225   5.611  0.1452 -0.2798  0.6886
  544MOL0     C71722  10.850   4.231   5.607  0.8447 -0.0839  0.1667
  544MOL0     O71723  10.626   4.191   5.336 -0.1518 -0.1341 -0.3092
  544MOL0     C71724  10.357   4.271   5.309 -0.0253 -0.1559 -0.6074
  544MOL0     C71725  10.219   4.293   5.304  0.4793  0.4200 -1.2104
  544MOL0     N71726   9.560   4.078   5.618 -0.3111 -0.2892 -0.4472
  544MOL0     N71727   9.482   4.006   5.693 -0.6003 -0.1096 -1.0892
  544MOL0     C71728   8.306   3.822   5.400  0.5017 -0.6456 -0.2431
  544MOL0     C71729   8.172   3.837   5.379  0.5934  0.3218  0.3746
  544MOL0     C71730   7.746   3.989   5.358  0.9658  0.1408  0.3002
  544MOL0     C71731   7.658   3.979   5.254  1.0371 -0.4781  0.2970
  544MOL0     C71732   7.520   4.011   5.268 -0.4583 -0.2864 -0.3955
  544MOL0     C71733   7.468   4.068   5.384 -0.1882  0.4998  0.6073
  544MOL0     O71734   7.338   4.097   5.403  0.0913  0.0558  0.2126
  544MOL0     C71735   7.286   4.206   5.332 -0.3051  0.0714  1.1603
  544MOL0     C71736   7.302   4.349   5.398 -0.5913 -0.4013 -0.5062
  544MOL0     C71737   7.199   4.371   5.509  0.6501 -0.6381  0.1062
  544MOL0     C71738   7.178   4.526   5.544 -0.1503 -0.0384 -0.1594
  544MOL0     C71739   7.111   4.546   5.669  0.3838  0.3331  0.4998
  544MOL0     C71740   7.057   4.559   5.779 -1.4034 -0.3353  0.0708
  544MOL0     C71741   7.557   4.076   5.493  0.3732  1.1310  0.3600
  544MOL0     C71742   7.690   4.029   5.483  0.3150  0.8878  0.4060
  544MOL0     H71743   8.136   4.136   5.519 -1.3549 -0.9982 -1.6340
  544MOL0     H71744   8.379   4.104   5.570 -1.4881 -1.2867  2.3782
  544MOL0     H71745   8.600   3.731   5.551 -0.0488 -0.4885  1.3264
  544MOL0     H71746   8.503   3.824   5.671  0.7524  0.7201  0.7601
  544MOL0     H71747   8.725   3.871   5.731 -2.4283  3.1610  2.1640
  544MOL0     H71748   8.671   4.012   5.643 -0.5869  0.5697 -0.3722
  544MOL0     H71749   8.815   4.016   5.476 -1.4890 -0.5144 -2.2646
  544MOL0     H71750   8.791   3.855   5.442 -3.2694  2.9646 -0.9445
  544MOL0     H71751   8.942   3.782   5.627  0.4513 -1.0594 -2.4259
  544MOL0     H71752   9.026   3.863   5.499  0.9863  2.5780  1.2152
  544MOL0     H71753   8.930   4.027   5.734 -1.0470 -1.7823  0.3214
  544MOL0     H71754   9.047   4.082   5.610  3.6533 -2.7140 -0.7458
  544MOL0     H71755   9.217   3.945   5.673 -2.6325 -1.3488 -2.1234
  544MOL0     H71756   9.125   3.870   5.813  3.7321  0.4772 -0.1504
  544MOL0     H71757   9.176   4.156   5.789 -0.5661 -0.1539 -1.6881
  544MOL0     H71758   9.125   4.043   5.928 -0.3591  1.1457 -0.8959
  544MOL0     H71759   9.354   3.932   5.888 -0.4572 -0.5312 -1.1179
  544MOL0     H71760   9.355   4.072   5.980 -0.4578 -2.8414  1.1601
  544MOL0     H71761   9.438   4.321   5.792 -1.2556  0.0042 -0.2957
  544MOL0     H71762   9.616   4.407   5.582  2.2064 -2.6275  1.5335
  544MOL0     H71763   9.524   4.329   5.446 -0.5569 -0.2706 -0.4564
  544MOL0     H71764   9.746   4.168   5.457 -0.2710  0.5984  2.8950
  544MOL0     H71765   9.791   4.300   5.564  1.1929 -1.9812 -0.0080
  544MOL0     H71766   9.746   4.355   5.275 -1.0731 -0.9051  1.3974
  544MOL0     H71767   9.797   4.468   5.407  0.3602  0.4753  0.7292
  544MOL0     H71768   9.961   4.369   5.241 -0.1213  0.3044  0.0956
  544MOL0     H71769   9.942   4.213   5.321  1.2334 -0.2646 -0.5074
  544MOL0     H71770  10.176   4.343   5.647 -0.7991 -2.4174  0.1030
  544MOL0     H71771  10.431   4.349   5.638 -0.2732  0.2910 -0.5792
  544MOL0     H71772  10.812   4.476   5.378  2.0092  0.2093  0.3587
  544MOL0     H71773  11.062   4.469   5.382  1.0033  1.3201  1.5253
  544MOL0     H71774  11.215   4.108   5.580 -1.6710  0.5710  1.7517
  544MOL0     H71775  11.272   4.227   5.709  0.4187 -0.8917  0.0400
  544MOL0     H71776  11.461   4.120   5.613 -2.1890 -2.5212 -0.1198
  544MOL0     H71777  11.450   4.301   5.573 -1.3277  0.1165  0.4649
  544MOL0     H71778  11.366   4.256   5.345 -1.1841  0.3664  1.0039
  544MOL0     H71779  11.345   4.087   5.380 -0.5988 -0.6399  1.7477
  544MOL0     H71780  11.581   4.043   5.394 -1.2989 -0.8348 -0.0799
  544MOL0     H71781  11.555   4.144   5.252  0.7808 -0.9291  0.3550
  544MOL0     H71782  11.757   4.195   5.368 -0.5945  1.4088 -2.1732
  544MOL0     H71783  11.657   4.264   5.503 -1.5717 -1.8433  0.3909
  544MOL0     H71784  11.571   4.442   5.404 -1.2937 -2.8169  0.9676
  544MOL0     H71785  11.591   4.378   5.236  0.4567 -1.8968 -0.3133
  544MOL0     H71786  11.712   4.561   5.283 -2.2865 -1.8004  2.2681
  544MOL0     H71787  11.790   4.488   5.426  1.7996 -2.0739 -0.7483
  544MOL0     H71788  11.845   4.346   5.156  4.2947 -1.0434 -1.0270
  544MOL0     H71789  11.919   4.345   5.311 -2.7604 -1.2115 -1.5969
  544MOL0     H71790  11.036   4.147   5.669  1.7729 -2.2526 -2.9863
  544MOL0     H71791  10.791   4.168   5.672 -0.6244  0.5645 -0.4956
  544MOL0     H71792  10.408   4.248   5.216  0.2935 -0.2143 -0.4187
  544MOL0     H71793  10.157   4.297   5.215 -0.2576  0.8671 -0.6911
  544MOL0     H71794   8.360   3.739   5.356 -0.1905 -0.8284 -0.7633
  544MOL0     H71795   8.122   3.754   5.330 -0.3075  2.0963 -1.9392
  544MOL0     H71796   7.694   3.940   5.159 -1.3581  1.0761 -1.3503
  544MOL0     H71797   7.464   4.013   5.175 -1.4478  0.8231  0.2069
  544MOL0     H71798   7.179   4.190   5.317 -0.1006 -0.5754  0.3619
  544MOL0     H71799   7.338   4.221   5.237 -2.1153  2.3629  0.4562
  544MOL0     H71800   7.404   4.358   5.436 -0.9975  1.0910  0.3230
  544MOL0     H71801   7.286   4.427   5.322 -1.4779  1.2400  1.2766
  544MOL0     H71802   7.227   4.313   5.597 -1.3309 -1.5279  0.2035
  544MOL0     H71803   7.110   4.326   5.464  1.3823 -0.3456 -1.7284
  544MOL0     H71804   7.274   4.577   5.555 -0.3291  0.0186  1.4161
  544MOL0     H71805   7.116   4.570   5.465 -1.2325 -1.1851  0.0157
  544MOL0     H71806   7.017   4.593   5.873  1.2862  2.6822  0.2957
  544MOL0     H71807   7.506   4.105   5.584  1.0251 -3.2622  2.3777
  544MOL0     H71808   7.742   4.044   5.577  1.4161 -2.9725  0.6101
  545MOL0     O71809  10.716  10.618   4.236 -0.3604 -0.2097 -0.4147
  545MOL0     C71810  10.639  10.708   4.266 -0.0154 -0.4068 -0.5124
  545MOL0     O71811  10.509  10.694   4.305  0.2436  0.7725 -0.5691
  545MOL0     C71812  10.454  10.573   4.291  0.7644  0.0611  0.4725
  545MOL0     C71813  10.459  10.485   4.179  0.4051 -0.1618 -0.1108
  545MOL0     C71814  10.384  10.370   4.177 -0.4324  0.5706  0.8764
  545MOL0     C71815  10.309  10.325   4.287 -0.2987  0.1180  0.2226
  545MOL0     O71816  10.233  10.219   4.281  0.7462 -0.4375 -0.1087
  545MOL0     C71817  10.144  10.195   4.162 -0.5962 -0.5400  0.2833
  545MOL0     C71818  10.173  10.053   4.124  0.5458 -0.3421 -0.4484
  545MOL0     C71819  10.143   9.946   4.229 -0.1326 -0.4033 -0.0298
  545MOL0     C71820  10.004   9.958   4.298 -0.8465  0.3498 -0.3124
  545MOL0     C71821   9.990   9.878   4.436  0.3388  0.2821  0.5157
  545MOL0     C71822   9.852   9.891   4.500 -0.3759 -0.1324  0.4860
  545MOL0     C71823   9.854   9.846   4.640  0.3928 -0.7604  0.7303
  545MOL0     C71824   9.890   9.695   4.665  0.2414 -0.5730  0.9167
  545MOL0     N71825   9.816   9.592   4.584 -0.7383 -0.1003 -0.5871
  545MOL0     C71826   9.693   9.538   4.620  0.0947  0.0588 -0.2749
  545MOL0     C71827   9.691   9.430   4.544 -0.6969  0.5173 -0.5019
  545MOL0     C71828   9.577   9.334   4.534  0.6001 -0.6142 -0.1123
  545MOL0     C71829   9.600   9.217   4.622 -0.3934 -0.2682  0.3453
  545MOL0     C71830   9.548   9.094   4.553  0.6136  1.0211 -0.2407
  545MOL0     C71831   9.610   8.970   4.615  0.5029  0.7390  0.2436
  545MOL0     O71832   9.603   8.961   4.759  0.0051 -0.2027  0.1892
  545MOL0     C71833   9.494   8.912   4.829 -0.0226 -0.2888 -0.2020
  545MOL0     C71834   9.480   8.947   4.962 -0.7192  0.5703  0.6080
  545MOL0     C71835   9.364   8.904   5.031 -0.6281 -1.0187  0.4381
  545MOL0     C71836   9.266   8.830   4.978 -0.1015  0.8143  0.1650
  545MOL0     C71837   9.134   8.804   5.037 -0.6643 -0.7443  0.3481
  545MOL0     O71838   9.084   8.886   5.142 -0.1934 -0.0062  0.5413
  545MOL0     C71839   8.963   8.853   5.197 -0.2118  0.3119  0.7944
  545MOL0     C71840   8.951   8.756   5.295 -0.0417  0.0642 -0.4122
  545MOL0     C71841   8.825   8.725   5.348 -0.0501 -0.2277  0.1631
  545MOL0     C71842   8.712   8.791   5.314  0.5845  0.5046  0.4106
  545MOL0     O71843   8.596   8.759   5.382 -0.1334 -0.3113  0.7552
  545MOL0     C71844   8.481   8.835   5.341 -0.8596 -0.3291 -0.0151
  545MOL0     C71845   8.372   8.775   5.418  0.1575  0.2409 -1.1855
  545MOL0     C71846   8.348   8.626   5.386  0.7866 -0.6891 -0.3410
  545MOL0     C71847   8.210   8.586   5.451 -0.5255 -0.5701  0.9660
  545MOL0     C71848   8.191   8.432   5.452 -0.1313 -0.5301  1.0507
  545MOL0     C71849   8.048   8.389   5.493 -0.0231 -0.2093 -0.7388
  545MOL0     C71850   8.046   8.450   5.646 -0.0804  0.4584  0.3131
  545MOL0     C71851   7.925   8.384   5.728 -0.6018  0.0224 -0.7990
  545MOL0    Cl71852   7.773   8.390   5.640  0.0387 -0.2382 -0.1482
  545MOL0     C71853   8.728   8.903   5.223 -0.4303  0.0041 -0.5687
  545MOL0     C71854   8.851   8.928   5.163  0.3276  1.0948 -0.6821
  545MOL0     O71855   9.078   8.701   5.003 -0.6428 -0.4378 -0.2049
  545MOL0     C71856   9.298   8.771   4.860  0.8613  0.3798  0.3843
  545MOL0     C71857   9.410   8.814   4.784  0.0162 -0.0123  0.5578
  545MOL0     N71858   9.804   9.417   4.476 -0.9373 -0.3464 -0.2355
  545MOL0     N71859   9.872   9.527   4.491  0.5841  0.6629  0.7531
  545MOL0     C71860  10.298  10.410   4.397 -0.0530  0.5996  0.2516
  545MOL0     C71861  10.370  10.533   4.392 -0.3249  1.2953 -0.7699
  545MOL0     C71862  10.691  10.852   4.261  0.0243 -0.6865  0.6377
  545MOL0     C71863  10.830  10.876   4.242  0.8611  0.3155 -0.3600
  545MOL0     C71864  10.874  11.006   4.229  0.0599  0.0072  0.0780
  545MOL0     C71865  10.789  11.115   4.251 -0.4244 -1.0589 -0.1417
  545MOL0     O71866  10.840  11.247   4.260 -0.2418 -0.5047  0.6097
  545MOL0     C71867  10.983  11.270   4.285  0.6613  0.4415  0.5039
  545MOL0     C71868  10.981  11.408   4.355 -1.3379 -0.5233 -0.7253
  545MOL0     C71869  11.114  11.448   4.417 -0.8069  1.1549  0.4119
  545MOL0     C71870  11.218  11.496   4.309  0.9805  0.2085 -0.5052
  545MOL0     C71871  11.283  11.383   4.245 -0.3322  0.2997 -0.4168
  545MOL0     C71872  11.318  11.286   4.179  0.0921  0.7859 -0.2959
  545MOL0     C71873  10.650  11.091   4.252  0.3530  0.0206  0.4311
  545MOL0     C71874  10.603  10.960   4.254  0.8303  0.0399 -0.6413
  545MOL0     H71875  10.520  10.514   4.094  3.9918 -1.7892  1.6843
  545MOL0     H71876  10.391  10.308   4.088 -1.4090  0.9785  0.5061
  545MOL0     H71877  10.165  10.262   4.078  3.7580 -2.4690 -0.4740
  545MOL0     H71878  10.038  10.217   4.177 -0.2355  1.2894  0.4113
  545MOL0     H71879  10.279  10.051   4.098  0.7367 -0.0062  0.2973
  545MOL0     H71880  10.112  10.041   4.033  1.5343  0.7008 -1.2787
  545MOL0     H71881  10.217   9.966   4.307 -0.1011 -0.1588 -0.1213
  545MOL0     H71882  10.171   9.845   4.197 -0.3947 -0.0812 -1.3376
  545MOL0     H71883   9.976  10.061   4.321 -2.1379 -0.4046  1.8330
  545MOL0     H71884   9.935   9.897   4.239 -1.0060 -1.0250  1.2132
  545MOL0     H71885  10.070   9.921   4.497  1.3707 -0.7161 -0.1028
  545MOL0     H71886  10.016   9.773   4.421  0.1342  0.2993  0.0046
  545MOL0     H71887   9.770   9.834   4.456 -1.5382  0.2050  2.1540
  545MOL0     H71888   9.823   9.996   4.494  0.8222  0.1473 -1.4392
  545MOL0     H71889   9.913   9.918   4.698  1.2347  1.0615 -2.2093
  545MOL0     H71890   9.759   9.879   4.684  0.3593  4.0614 -2.2849
  545MOL0     H71891   9.877   9.673   4.771 -1.3915  0.2321  0.9222
  545MOL0     H71892   9.996   9.687   4.638 -0.5498  0.9127 -3.4716
  545MOL0     H71893   9.615   9.575   4.685 -1.6567  0.0424 -2.2327
  545MOL0     H71894   9.575   9.308   4.428  3.3884  2.9043 -1.2551
  545MOL0     H71895   9.491   9.391   4.570  1.3987  1.6654 -1.5636
  545MOL0     H71896   9.560   9.231   4.723  2.8557 -1.8951  2.0229
  545MOL0     H71897   9.707   9.198   4.636 -0.8054 -1.5318  2.0664
  545MOL0     H71898   9.439   9.087   4.548  0.6189  1.3249 -0.7714
  545MOL0     H71899   9.571   9.102   4.447 -0.1052  0.6222 -0.4311
  545MOL0     H71900   9.717   8.980   4.593  1.0892  1.2112  2.8943
  545MOL0     H71901   9.572   8.881   4.564 -0.7754  0.1519  2.1115
  545MOL0     H71902   9.556   9.003   5.016  0.3922  1.5534 -1.8049
  545MOL0     H71903   9.347   8.942   5.131  1.3196  1.5485 -0.0874
  545MOL0     H71904   9.031   8.688   5.324 -2.2146 -3.6641 -2.4223
  545MOL0     H71905   8.818   8.634   5.407  0.1151 -0.4988 -0.2272
  545MOL0     H71906   8.464   8.834   5.233  1.4848  0.2906 -0.4516
  545MOL0     H71907   8.500   8.941   5.363 -2.0668 -0.3723  1.3816
  545MOL0     H71908   8.288   8.835   5.382  1.6451  2.3556 -1.2942
  545MOL0     H71909   8.380   8.795   5.525 -0.0241  0.6816 -1.2503
  545MOL0     H71910   8.427   8.561   5.425 -2.2917 -4.0136  0.9395
  545MOL0     H71911   8.343   8.611   5.278 -1.3993  4.1908 -1.2033
  545MOL0     H71912   8.196   8.624   5.552  1.5656 -0.6112  1.3102
  545MOL0     H71913   8.130   8.632   5.391  1.1300  2.1657  0.6876
  545MOL0     H71914   8.267   8.393   5.520  0.6618 -0.7492  0.0776
  545MOL0     H71915   8.207   8.396   5.349  0.2735  0.1050  0.8871
  545MOL0     H71916   8.030   8.282   5.505 -2.9212  0.0349 -1.9818
  545MOL0     H71917   7.970   8.423   5.425 -1.5905 -1.0018  0.5775
  545MOL0     H71918   8.145   8.432   5.690  0.5196  2.6496 -0.0072
  545MOL0     H71919   8.014   8.554   5.652 -3.0311 -0.3922  0.7846
  545MOL0     H71920   7.921   8.438   5.824 -0.7611 -2.9664  0.9930
  545MOL0     H71921   7.952   8.282   5.755 -1.6810 -0.1150 -0.1907
  545MOL0     H71922   8.643   8.970   5.217 -1.9461 -1.3538  2.9482
  545MOL0     H71923   8.864   9.006   5.089  1.3438  0.7551 -0.8714
  545MOL0     H71924   9.238   8.698   4.807  1.8410  0.6451 -1.1527
  545MOL0     H71925   9.439   8.767   4.690  2.6023  1.1603  0.6700
  545MOL0     H71926  10.219  10.381   4.467 -1.7149  0.5029 -1.5942
  545MOL0     H71927  10.359  10.588   4.485  1.3394  0.2377  0.1048
  545MOL0     H71928  10.912  10.805   4.247  0.9671  0.1434 -3.0727
  545MOL0     H71929  10.980  11.026   4.216 -0.5286  3.0493 -0.9574
  545MOL0     H71930  11.035  11.272   4.189 -1.2054 -1.7925 -0.6463
  545MOL0     H71931  11.043  11.200   4.345  0.0025 -1.5482 -1.0550
  545MOL0     H71932  10.944  11.488   4.291  2.6231  2.1522 -0.0372
  545MOL0     H71933  10.921  11.400   4.446  0.4422  1.9226  0.7881
  545MOL0     H71934  11.147  11.350   4.454  0.5944  1.8566  1.1113
  545MOL0     H71935  11.106  11.522   4.497  0.4037 -0.1949  1.8403
  545MOL0     H71936  11.161  11.562   4.243  0.7233  0.6944  0.1878
  545MOL0     H71937  11.297  11.556   4.356  0.5793 -0.4863  1.1397
  545MOL0     H71938  11.359  11.196   4.136 -1.3057  1.3131 -2.9431
  545MOL0     H71939  10.578  11.172   4.251  0.5637  0.2129 -0.3027
  545MOL0     H71940  10.496  10.946   4.251  0.8942 -0.3080 -1.7179
  546MOL0     O71941   9.393   8.529   1.529 -0.0180 -0.7477 -0.8579
  546MOL0     C71942   9.420   8.645   1.515  0.0085 -0.4708 -0.1489
  546MOL0     O71943   9.333   8.742   1.538  0.2373  0.3455  0.2565
  546MOL0     C71944   9.192   8.716   1.543  1.0451 -0.1678  0.2580
  546MOL0     C71945   9.112   8.789   1.630 -0.0876  0.2463 -0.5366
  546MOL0     C71946   8.970   8.772   1.638 -0.4059  0.5010  0.3517
  546MOL0     C71947   8.912   8.679   1.555  0.8168 -0.2151  0.1302
  546MOL0     O71948   8.774   8.682   1.552  0.3178  0.5186 -0.0919
  546MOL0     C71949   8.704   8.613   1.443 -0.9532 -0.3964 -0.8317
  546MOL0     C71950   8.561   8.650   1.472 -0.1593 -0.7532  0.6751
  546MOL0     C71951   8.460   8.590   1.372 -0.5141  1.1572  0.5431
  546MOL0     C71952   8.426   8.432   1.397 -0.1431 -0.6488  0.0995
  546MOL0     C71953   8.305   8.382   1.314  0.1819 -0.4363  0.3326
  546MOL0     C71954   8.326   8.365   1.157  0.6911 -0.0574 -0.3339
  546MOL0     C71955   8.199   8.307   1.089 -0.2662 -0.1085  0.0178
  546MOL0     C71956   8.070   8.388   1.103  0.0477 -0.3768 -0.8690
  546MOL0     N71957   7.958   8.317   1.045 -0.3581 -1.1316 -0.4510
  546MOL0     C71958   7.901   8.193   1.069  0.1143 -0.0685 -0.4632
  546MOL0     C71959   7.805   8.170   0.971  0.0414 -0.1169 -0.4694
  546MOL0     C71960   7.741   8.037   0.953 -0.0647  0.5158  1.0101
  546MOL0     C71961   7.625   8.023   1.052  0.8505  0.2185 -0.6294
  546MOL0     C71962   7.561   7.889   1.052 -0.1409 -0.6243 -0.1492
  546MOL0     C71963   7.443   7.878   1.144  0.3047 -0.2564  0.0802
  546MOL0     O71964   7.447   7.976   1.245  0.2278  1.2809  0.1355
  546MOL0     C71965   7.323   8.009   1.298  0.6083  0.4365  0.0155
  546MOL0     C71966   7.232   7.909   1.341  0.3361 -0.8072 -0.6210
  546MOL0     C71967   7.107   7.949   1.388 -0.1250  0.9913 -0.2779
  546MOL0     C71968   7.067   8.085   1.405  0.3550  0.3474  0.9391
  546MOL0     C71969   6.936   8.125   1.461 -0.8754  0.4119  0.9328
  546MOL0     O71970   6.853   8.032   1.501 -0.2091  0.1873 -0.2353
  546MOL0     C71971   6.729   8.085   1.534 -1.0077 -0.2847  0.7415
  546MOL0     C71972   6.645   8.123   1.436 -0.2895  0.0605  1.0276
  546MOL0     C71973   6.517   8.163   1.463 -0.3603  0.8697 -0.4487
  546MOL0     C71974   6.466   8.167   1.595  0.1556 -0.0456 -0.8186
  546MOL0     O71975   6.332   8.184   1.604 -0.0193 -0.4152  0.6020
  546MOL0     C71976   6.256   8.101   1.700 -0.0210 -0.0492  0.6571
  546MOL0     C71977   6.099   8.108   1.696 -0.9010  0.7864  0.0191
  546MOL0     C71978   6.038   8.217   1.781 -0.0169 -0.3468  0.3063
  546MOL0     C71979   6.089   8.221   1.928  0.6954 -0.6072 -1.3236
  546MOL0     C71980   6.001   8.326   2.005  0.0488 -0.3729 -0.5831
  546MOL0     C71981   5.858   8.279   2.015 -0.1424  0.7915 -0.0930
  546MOL0     C71982   5.778   8.355   2.112  0.7447  0.1862 -0.9269
  546MOL0     C71983   5.623   8.336   2.110  0.3620  0.0168  0.5735
  546MOL0    Cl71984   5.569   8.361   2.276 -0.8135  0.5118  0.3724
  546MOL0     C71985   6.554   8.137   1.702 -0.0587 -0.8572 -0.1758
  546MOL0     C71986   6.679   8.097   1.666 -0.0953  0.3469 -0.7864
  546MOL0     O71987   6.912   8.244   1.447  0.0370 -0.1272 -0.6954
  546MOL0     C71988   7.153   8.183   1.370  0.5806  1.1589 -0.0074
  546MOL0     C71989   7.279   8.146   1.315  0.5572 -0.6972 -0.3861
  546MOL0     N71990   7.816   8.275   0.891 -0.5990 -0.2495  0.0957
  546MOL0     N71991   7.902   8.363   0.935  0.2358 -0.8769 -0.2009
  546MOL0     C71992   8.989   8.601   1.468 -0.5114 -0.8221  0.3499
  546MOL0     C71993   9.124   8.617   1.463  0.1437  0.0789 -1.0104
  546MOL0     C71994   9.569   8.678   1.512  0.2333 -0.2384  0.8333
  546MOL0     C71995   9.608   8.805   1.549  0.2794  0.0595  0.3219
  546MOL0     C71996   9.747   8.822   1.549 -0.4562 -0.1290 -0.4302
  546MOL0     C71997   9.842   8.733   1.490  0.3880  0.2115  0.0195
  546MOL0     O71998   9.971   8.765   1.467 -0.6216 -0.0496  0.4848
  546MOL0     C71999  10.037   8.870   1.534  0.4251 -0.4375 -0.9456
  546MOL0     C72000  10.037   8.846   1.688 -0.1272 -0.5755 -0.7477
  546MOL0     C72001  10.153   8.891   1.772 -0.4672 -0.5495 -0.3752
  546MOL0     C72002  10.170   9.042   1.796  0.0778 -0.4797 -0.0221
  546MOL0     C72003  10.223   9.111   1.672  0.5345  0.5417 -0.3989
  546MOL0     C72004  10.249   9.181   1.577  0.3083  0.3350 -0.0335
  546MOL0     C72005   9.792   8.615   1.436  1.0907  0.4026  0.1444
  546MOL0     C72006   9.659   8.578   1.464  0.3755  0.0134  1.2513
  546MOL0     H72007   9.166   8.868   1.682  0.3697 -0.0508 -0.5459
  546MOL0     H72008   8.906   8.832   1.702 -1.3355  1.2502 -1.2066
  546MOL0     H72009   8.710   8.505   1.455 -2.6374 -0.6121 -1.6432
  546MOL0     H72010   8.745   8.634   1.343  3.4045 -0.0049  0.8373
  546MOL0     H72011   8.560   8.758   1.460  1.5879 -0.6851  0.8777
  546MOL0     H72012   8.529   8.627   1.574 -2.6511 -3.2431 -0.5126
  546MOL0     H72013   8.496   8.600   1.270 -0.6685  1.5029  0.5214
  546MOL0     H72014   8.362   8.634   1.393  0.3155  1.7422  3.7414
  546MOL0     H72015   8.508   8.374   1.356 -1.0481 -3.0652  1.5094
  546MOL0     H72016   8.399   8.416   1.502  0.8900 -0.7850  0.3469
  546MOL0     H72017   8.224   8.451   1.339 -0.1644  0.6202 -3.1754
  546MOL0     H72018   8.266   8.285   1.347  3.0912 -1.6519  0.4535
  546MOL0     H72019   8.417   8.306   1.141  1.1131  0.4369  0.2320
  546MOL0     H72020   8.339   8.465   1.116 -3.6196  0.4438 -1.0255
  546MOL0     H72021   8.228   8.308   0.984  2.6072  0.5994  0.7036
  546MOL0     H72022   8.178   8.207   1.127 -2.2201  1.3806  3.2768
  546MOL0     H72023   8.077   8.487   1.056  2.7547  1.2247  2.4726
  546MOL0     H72024   8.046   8.407   1.208  0.2746 -0.7355 -0.7510
  546MOL0     H72025   7.909   8.117   1.146  3.0544 -0.3589 -0.9260
  546MOL0     H72026   7.810   7.953   0.965  0.9835  1.2436  0.2128
  546MOL0     H72027   7.702   8.016   0.853  3.0464  0.6262 -0.3501
  546MOL0     H72028   7.553   8.102   1.028  0.6303  0.5612  1.0477
  546MOL0     H72029   7.655   8.037   1.156  0.4902 -2.9144 -0.0044
  546MOL0     H72030   7.522   7.871   0.951 -2.5244 -2.2639  0.9617
  546MOL0     H72031   7.634   7.813   1.082  2.4543  1.9156  0.4286
  546MOL0     H72032   7.427   7.777   1.183 -0.9357 -0.2482 -0.3841
  546MOL0     H72033   7.354   7.889   1.082 -2.0423 -3.9791  2.4294
  546MOL0     H72034   7.266   7.807   1.324  0.9906 -0.5013 -1.2114
  546MOL0     H72035   7.035   7.876   1.424  2.4403  0.3267  4.2478
  546MOL0     H72036   6.676   8.134   1.333 -2.2299  0.3251  0.4369
  546MOL0     H72037   6.447   8.180   1.382 -2.6488 -1.8114  0.8213
  546MOL0     H72038   6.292   8.140   1.795 -0.6540  1.3115  0.3658
  546MOL0     H72039   6.283   7.996   1.680  0.7430  0.3314 -0.4444
  546MOL0     H72040   6.057   8.027   1.756  0.7012  0.3108  0.5546
  546MOL0     H72041   6.069   8.124   1.592  1.0896  4.2415 -0.1872
  546MOL0     H72042   5.929   8.216   1.779 -0.1905  3.3501  0.3116
  546MOL0     H72043   6.067   8.312   1.734 -1.4739  0.0193  0.1088
  546MOL0     H72044   6.087   8.119   1.968  0.7076 -0.5771 -1.2458
  546MOL0     H72045   6.191   8.251   1.950  0.3293 -1.5468  2.2364
  546MOL0     H72046   6.024   8.421   1.955  6.1234 -1.8175 -1.3398
  546MOL0     H72047   6.048   8.334   2.104  1.3901 -1.6595 -1.0762
  546MOL0     H72048   5.868   8.178   2.055  2.7897 -0.2042 -2.9015
  546MOL0     H72049   5.808   8.272   1.918  1.2043 -1.4090 -0.7020
  546MOL0     H72050   5.816   8.345   2.214 -3.3847  0.8030  0.9243
  546MOL0     H72051   5.800   8.459   2.086 -2.6864  0.3081 -4.1295
  546MOL0     H72052   5.595   8.238   2.071  0.7440  1.2144 -3.1066
  546MOL0     H72053   5.594   8.410   2.034 -0.3315  0.5334  1.3235
  546MOL0     H72054   6.524   8.139   1.806 -1.8296 -2.2220 -0.6272
  546MOL0     H72055   6.735   8.067   1.754 -0.0424 -0.6300 -1.1390
  546MOL0     H72056   7.147   8.290   1.387  0.9965  0.7649  3.3570
  546MOL0     H72057   7.347   8.226   1.287 -0.2566 -0.7379 -2.7241
  546MOL0     H72058   8.931   8.531   1.408 -3.0660 -1.4612  3.2892
  546MOL0     H72059   9.185   8.560   1.394 -0.9742 -0.5934 -1.4687
  546MOL0     H72060   9.538   8.887   1.562  1.1417  0.7214  0.9446
  546MOL0     H72061   9.790   8.919   1.570  1.5093 -1.3505  1.6977
  546MOL0     H72062   9.982   8.961   1.510  0.4140  0.6198  2.5575
  546MOL0     H72063  10.140   8.877   1.499  1.1983  0.9305  1.3734
  546MOL0     H72064   9.952   8.901   1.728 -2.9694 -3.4137 -2.4110
  546MOL0     H72065  10.013   8.742   1.714 -1.5234  0.5178  2.9489
  546MOL0     H72066  10.243   8.842   1.734 -1.8288 -3.8281  0.2455
  546MOL0     H72067  10.135   8.855   1.874  0.8544 -0.9497 -0.2726
  546MOL0     H72068  10.065   9.071   1.806 -0.3442 -0.8195 -2.7572
  546MOL0     H72069  10.242   9.050   1.878  2.2002 -0.8568 -1.7625
  546MOL0     H72070  10.259   9.238   1.486  0.2073 -2.1226 -1.6793
  546MOL0     H72071   9.854   8.548   1.376  1.4673 -0.2063  1.1901
  546MOL0     H72072   9.618   8.486   1.425 -1.3833  0.2763  2.3947
  547MOL0     O72073  11.084   9.870   9.204  0.0359 -0.0172  0.5227
  547MOL0     C72074  11.178   9.803   9.157 -0.7689  0.6507  0.4949
  547MOL0     O72075  11.184   9.674   9.117  0.8037  0.5891  1.1854
  547MOL0     C72076  11.061   9.609   9.121 -0.8097 -0.5091  0.5489
  547MOL0     C72077  10.963   9.635   9.027  0.0612 -0.1690 -0.6536
  547MOL0     C72078  10.844   9.560   9.019 -0.8824  0.8873  0.2510
  547MOL0     C72079  10.829   9.453   9.111  0.0152 -0.0603  0.6601
  547MOL0     O72080  10.734   9.361   9.117  0.5599  0.0067  0.1434
  547MOL0     C72081  10.705   9.296   8.995  0.8028  0.6103  0.2077
  547MOL0     C72082  10.607   9.369   8.901 -0.4936 -0.6474  0.3381
  547MOL0     C72083  10.490   9.429   8.972 -0.2230 -0.8936 -0.3541
  547MOL0     C72084  10.398   9.324   9.017  0.4853  0.6023 -0.3632
  547MOL0     C72085  10.288   9.387   9.111 -0.6452 -0.0346  0.5237
  547MOL0     C72086  10.168   9.293   9.119 -0.9742 -1.1784 -0.0703
  547MOL0     C72087  10.191   9.161   9.186 -0.9189  0.3442 -0.8435
  547MOL0     C72088  10.207   9.147   9.333 -0.0372  0.8346 -0.3013
  547MOL0     N72089  10.108   9.227   9.409  0.0221 -0.9605  0.8285
  547MOL0     C72090   9.975   9.237   9.377  0.2029 -0.1372 -0.3344
  547MOL0     C72091   9.920   9.334   9.456 -0.5909 -0.3369 -0.2321
  547MOL0     C72092   9.785   9.372   9.428  0.5282 -0.2102  0.5475
  547MOL0     C72093   9.693   9.334   9.544 -0.0884  0.3274 -0.3103
  547MOL0     C72094   9.553   9.296   9.490  0.2051 -0.5331  0.2491
  547MOL0     C72095   9.458   9.282   9.612  0.3641  0.0314  0.2953
  547MOL0     O72096   9.328   9.250   9.567 -0.7708  0.4642 -0.7477
  547MOL0     C72097   9.226   9.238   9.657 -0.7608 -0.4530 -0.0451
  547MOL0     C72098   9.105   9.240   9.598  0.1818 -0.2119 -0.2376
  547MOL0     C72099   8.985   9.232   9.671  0.2164 -0.2041  0.1180
  547MOL0     C72100   8.989   9.242   9.811 -0.2492  0.3570  0.8744
  547MOL0     C72101   8.868   9.251   9.896 -0.5709 -0.4105  0.4768
  547MOL0     O72102   8.742   9.253   9.826  0.5406 -0.0886  0.1026
  547MOL0     C72103   8.621   9.290   9.887 -0.1770 -0.2354  0.4869
  547MOL0     C72104   8.583   9.271  10.014 -0.3753  0.1396 -0.6787
  547MOL0     C72105   8.461   9.294  10.058  0.5455 -0.0726 -0.1183
  547MOL0     C72106   8.366   9.332   9.964  0.4504  0.2619  0.4424
  547MOL0     O72107   8.236   9.349  10.000  0.5160  0.3325  0.2858
  547MOL0     C72108   8.138   9.272   9.935 -1.0563 -0.3524 -0.0046
  547MOL0     C72109   8.012   9.263  10.017 -0.1088  0.3503 -0.6940
  547MOL0     C72110   7.884   9.244   9.934  0.1011  0.2467  0.2657
  547MOL0     C72111   7.760   9.242  10.033  0.5419 -0.3510  0.4140
  547MOL0     C72112   7.624   9.250   9.959  0.7230  0.4144  0.2324
  547MOL0     C72113   7.608   9.388   9.904 -0.5418 -0.0130  0.0811
  547MOL0     C72114   7.457   9.399   9.891 -0.2679 -0.0379 -0.0124
  547MOL0     C72115   7.405   9.535   9.844  0.6104  0.0437  0.6946
  547MOL0    Cl72116   7.463   9.581   9.684  0.0113  0.2670  0.1033
  547MOL0     C72117   8.400   9.343   9.828  0.3372  0.1638 -0.0856
  547MOL0     C72118   8.531   9.319   9.792  0.1241  1.1462 -0.3842
  547MOL0     O72119   8.884   9.269  10.011  0.1597 -0.1096 -0.8370
  547MOL0     C72120   9.118   9.248   9.873 -0.3426 -0.2025 -0.0542
  547MOL0     C72121   9.241   9.251   9.795 -0.1819  0.6350  1.0722
  547MOL0     N72122  10.022   9.396   9.532  0.8016 -0.0286  1.2901
  547MOL0     N72123  10.126   9.319   9.508  0.5087  0.7627  0.6230
  547MOL0     C72124  10.930   9.424   9.203  0.1089 -0.1298  0.1949
  547MOL0     C72125  11.043   9.500   9.210  0.4855 -1.0077  0.1449
  547MOL0     C72126  11.311   9.863   9.166 -0.5640 -1.2137 -0.1767
  547MOL0     C72127  11.341   9.958   9.256 -0.0855 -0.1091 -0.6626
  547MOL0     C72128  11.473  10.003   9.262 -1.3361 -0.6956 -0.8706
  547MOL0     C72129  11.573   9.973   9.171  0.5830 -0.5206 -0.2362
  547MOL0     O72130  11.706  10.001   9.197 -0.2540  0.1750  0.7606
  547MOL0     C72131  11.778  10.052   9.087  0.0377  1.0464 -0.0135
  547MOL0     C72132  11.772  10.207   9.100  0.5592  0.9785  0.2913
  547MOL0     C72133  11.678  10.274   8.997  0.5005 -0.1643 -0.3940
  547MOL0     C72134  11.710  10.417   8.965 -0.1227  0.1474  0.2913
  547MOL0     C72135  11.727  10.501   9.084 -0.6475 -0.1691 -0.1569
  547MOL0     C72136  11.733  10.563   9.186 -0.0786  0.6374 -0.4621
  547MOL0     C72137  11.538   9.870   9.076 -1.0963 -0.2435  0.4305
  547MOL0     C72138  11.412   9.816   9.072 -0.0467  0.4827  1.1124
  547MOL0     H72139  10.980   9.707   8.948  2.2326  0.9001  0.6707
  547MOL0     H72140  10.785   9.582   8.931 -2.1227 -1.0054  0.5585
  547MOL0     H72141  10.659   9.200   9.019 -0.6057  1.8568  2.9498
  547MOL0     H72142  10.797   9.275   8.940 -0.1096 -1.7216 -0.5594
  547MOL0     H72143  10.573   9.294   8.829  1.5134 -1.9278  0.6279
  547MOL0     H72144  10.668   9.439   8.843  0.1542 -0.6386  1.0139
  547MOL0     H72145  10.428   9.491   8.906 -1.1685 -1.2402  0.1879
  547MOL0     H72146  10.531   9.496   9.049  1.4138 -0.0566 -1.8921
  547MOL0     H72147  10.351   9.276   8.931 -0.0063  0.8911 -0.2586
  547MOL0     H72148  10.458   9.253   9.075  0.3399  1.9363  1.5412
  547MOL0     H72149  10.267   9.486   9.070  3.4318  1.0055  0.5527
  547MOL0     H72150  10.311   9.409   9.216  0.1523 -2.5268  0.9490
  547MOL0     H72151  10.133   9.273   9.016  1.1653 -1.8783 -0.7054
  547MOL0     H72152  10.103   9.345   9.190 -1.1870  0.2194 -1.2254
  547MOL0     H72153  10.111   9.093   9.156  1.7994 -2.3032 -2.7350
  547MOL0     H72154  10.270   9.103   9.138 -0.9918  0.6164 -1.2933
  547MOL0     H72155  10.308   9.179   9.361 -0.0104  1.8587 -1.4728
  547MOL0     H72156  10.195   9.044   9.365  2.4375  1.4565  3.1710
  547MOL0     H72157   9.922   9.175   9.306  3.1364 -3.8364  0.4239
  547MOL0     H72158   9.752   9.329   9.333 -3.9678  3.2095  0.2099
  547MOL0     H72159   9.751   9.475   9.415 -0.0685 -0.6018 -1.2565
  547MOL0     H72160   9.692   9.413   9.619  2.2094 -2.8422  3.4825
  547MOL0     H72161   9.738   9.244   9.589 -0.8370  1.0796  2.0933
  547MOL0     H72162   9.515   9.379   9.429 -2.0684 -0.6416  1.4266
  547MOL0     H72163   9.533   9.199   9.443 -2.7028 -0.4707  1.1593
  547MOL0     H72164   9.450   9.383   9.655  4.3447  1.1661 -1.1531
  547MOL0     H72165   9.500   9.219   9.692 -1.5343 -1.4987  0.1518
  547MOL0     H72166   9.104   9.255   9.491  2.5504  2.2789 -0.0152
  547MOL0     H72167   8.896   9.235   9.609  0.0321 -1.1141  0.3268
  547MOL0     H72168   8.659   9.253  10.090 -0.5681  1.2252 -0.2067
  547MOL0     H72169   8.428   9.279  10.160 -1.4698 -0.5973 -0.7889
  547MOL0     H72170   8.172   9.168   9.930  3.8185  0.9276  1.4102
  547MOL0     H72171   8.125   9.305   9.832 -1.7674 -1.3886 -0.2680
  547MOL0     H72172   7.999   9.358  10.069 -1.6774  0.7800 -1.7904
  547MOL0     H72173   8.019   9.178  10.086  1.2047  2.2574  1.6926
  547MOL0     H72174   7.907   9.157   9.872  2.6136  0.8541  0.2159
  547MOL0     H72175   7.894   9.332   9.870  2.2461 -1.9639 -2.7326
  547MOL0     H72176   7.749   9.150  10.090 -4.4180  1.5295  3.1209
  547MOL0     H72177   7.780   9.322  10.106 -2.6069 -1.4977  2.7408
  547MOL0     H72178   7.550   9.219  10.033 -0.5257  0.4467 -0.9767
  547MOL0     H72179   7.604   9.178   9.879 -0.9758  0.5871  0.4708
  547MOL0     H72180   7.653   9.398   9.804  0.5378  0.3800  0.5915
  547MOL0     H72181   7.643   9.473   9.962 -5.1529  2.0155  0.3346
  547MOL0     H72182   7.428   9.329   9.812 -2.5530  0.4301  0.3592
  547MOL0     H72183   7.403   9.374   9.983 -1.4964 -0.0251 -0.7168
  547MOL0     H72184   7.437   9.605   9.922 -1.7261  0.6007  1.2571
  547MOL0     H72185   7.295   9.537   9.851  0.6569 -0.5845  1.8849
  547MOL0     H72186   8.341   9.362   9.739  2.5020 -2.6327 -2.3263
  547MOL0     H72187   8.581   9.323   9.695  1.8348 -0.0637  0.4060
  547MOL0     H72188   9.135   9.271   9.978  1.4903 -2.0155  0.0965
  547MOL0     H72189   9.336   9.257   9.848  1.5138 -3.7458 -1.0260
  547MOL0     H72190  10.930   9.335   9.265  2.6235  0.9426  1.9007
  547MOL0     H72191  11.131   9.487   9.271  0.0613 -0.4640  0.8852
  547MOL0     H72192  11.285   9.999   9.339  1.8080  0.4427  0.4129
  547MOL0     H72193  11.498  10.068   9.346  0.0523 -0.7657 -1.2030
  547MOL0     H72194  11.746  10.006   8.994 -1.9076 -1.5211  1.7744
  547MOL0     H72195  11.885  10.028   9.083  0.0158  1.0215 -0.4276
  547MOL0     H72196  11.740  10.216   9.204  0.9897  2.1940  0.3331
  547MOL0     H72197  11.874  10.245   9.097  0.9320  0.8183  4.4659
  547MOL0     H72198  11.576  10.272   9.036  0.2874 -3.7279 -0.8322
  547MOL0     H72199  11.685  10.218   8.904  0.2212  0.8846 -1.0638
  547MOL0     H72200  11.804  10.409   8.912  0.6511 -1.1444  1.7795
  547MOL0     H72201  11.629  10.461   8.906 -0.9758 -0.7615  0.7549
  547MOL0     H72202  11.731  10.620   9.277  1.9752  1.9208 -1.1315
  547MOL0     H72203  11.613   9.837   9.004  0.1358  0.0396  1.5387
  547MOL0     H72204  11.392   9.735   9.002  3.0693 -0.7461  1.5037
  548MOL0     O72205   8.664   0.013   0.817  0.2437  0.3393 -0.8962
  548MOL0     C72206   8.707  -0.073   0.905  0.0812  0.3790  0.6246
  548MOL0     O72207   8.834  -0.138   0.896 -0.2250 -1.0512 -0.2858
  548MOL0     C72208   8.893  -0.107   0.781 -1.1334 -0.9031  0.4098
  548MOL0     C72209   8.875  -0.176   0.662 -0.4148 -0.4463  0.6612
  548MOL0     C72210   8.937  -0.129   0.546  0.4281  1.0442 -0.6737
  548MOL0     C72211   9.023  -0.021   0.552  0.1297 -0.5686  0.4913
  548MOL0     O72212   9.086   0.025   0.442  0.1728  0.2932 -0.4456
  548MOL0     C72213   9.229   0.052   0.454  0.2298 -0.6185  0.4040
  548MOL0     C72214   9.318   0.024   0.326  0.1696  0.4114  0.4515
  548MOL0     C72215   9.461   0.086   0.329  0.3376  0.6254  0.7206
  548MOL0     C72216   9.537   0.046   0.201  0.2094  0.2925 -0.7825
  548MOL0     C72217   9.468   0.074   0.070  0.6179  0.8408 -0.6178
  548MOL0     C72218   9.486   0.212   0.007 -0.6196 -0.1311  0.7426
  548MOL0     C72219   9.412   0.325   0.090  0.1763 -0.9089  0.0476
  548MOL0     C72220   9.325   0.425   0.005  0.1720  0.8526  0.0563
  548MOL0     N72221   9.202   0.339  -0.023 -0.8562 -1.1260 -0.2623
  548MOL0     C72222   9.090   0.347   0.047 -0.2176 -0.2236 -0.4369
  548MOL0     C72223   9.003   0.256  -0.006 -1.0386  0.2932  1.0230
  548MOL0     C72224   8.858   0.235   0.022  0.1511  0.6992 -0.6613
  548MOL0     C72225   8.822   0.141   0.151 -0.2523 -0.2757  0.5149
  548MOL0     C72226   8.814   0.208   0.282  0.6581 -1.0711 -0.3959
  548MOL0     C72227   8.718   0.140   0.382  0.2069  0.7863  0.2163
  548MOL0     O72228   8.589   0.197   0.372 -0.6233  0.5560 -0.9413
  548MOL0     C72229   8.488   0.165   0.459  0.6977  0.7997 -0.1909
  548MOL0     C72230   8.492   0.070   0.557  0.7527 -0.2298  0.9131
  548MOL0     C72231   8.374   0.050   0.643  0.1021  1.3693  0.0784
  548MOL0     C72232   8.261   0.119   0.618 -0.2225  0.1604 -0.0352
  548MOL0     C72233   8.140   0.116   0.701  0.7098 -0.3829 -0.1063
  548MOL0     O72234   8.150   0.062   0.829  0.6943  0.2518  0.3460
  548MOL0     C72235   8.036   0.095   0.911 -0.5267  0.3232  0.0159
  548MOL0     C72236   8.033   0.225   0.969  1.0300  0.7188  0.0144
  548MOL0     C72237   7.927   0.254   1.066  0.4367  0.3735  0.3736
  548MOL0     C72238   7.846   0.147   1.115 -0.3709 -0.3249  0.1864
  548MOL0     O72239   7.750   0.180   1.208  0.9141 -0.5189  0.8339
  548MOL0     C72240   7.735   0.071   1.298 -0.6331  0.1423  0.7104
  548MOL0     C72241   7.651   0.113   1.425 -0.1153  0.0263  0.8998
  548MOL0     C72242   7.721   0.211   1.526 -1.0440  0.2106 -0.7585
  548MOL0     C72243   7.844   0.144   1.596  0.4983 -0.3347 -0.3346
  548MOL0     C72244   7.894   0.220   1.726  0.0068  1.0140  0.9891
  548MOL0     C72245   7.942   0.367   1.687 -0.2284  0.4926 -0.7703
  548MOL0     C72246   8.056   0.415   1.783  0.2445  0.2097 -0.5037
  548MOL0     C72247   8.186   0.397   1.705 -0.5957 -0.0310 -0.0469
  548MOL0    Cl72248   8.193   0.528   1.590  0.1015  0.1580 -0.4650
  548MOL0     C72249   7.851   0.022   1.054  0.1866  0.5606  1.2838
  548MOL0     C72250   7.945  -0.002   0.944 -0.0415 -0.2642  0.2714
  548MOL0     O72251   8.039   0.160   0.647  0.4846 -0.4077  0.2309
  548MOL0     C72252   8.268   0.207   0.509 -0.3069 -0.7763  0.1541
  548MOL0     C72253   8.379   0.232   0.436 -0.3635  0.4433  0.6513
  548MOL0     N72254   9.070   0.206  -0.126 -0.1205 -1.1121 -0.6161
  548MOL0     N72255   9.182   0.262  -0.131  0.3161  0.1988 -0.5142
  548MOL0     C72256   9.061   0.032   0.675  0.1152 -0.5505 -0.1853
  548MOL0     C72257   9.000  -0.011   0.791  0.6543  1.1661  0.7698
  548MOL0     C72258   8.615  -0.122   1.004  0.0066 -0.3400 -0.6912
  548MOL0     C72259   8.486  -0.071   1.036  0.1676  0.7716 -0.2233
  548MOL0     C72260   8.409  -0.147   1.129  0.1651  0.3298  0.7174
  548MOL0     C72261   8.460  -0.257   1.203  0.0243 -1.5680  0.0655
  548MOL0     O72262   8.388  -0.310   1.309  0.5991 -0.3966 -0.3930
  548MOL0     C72263   8.461  -0.335   1.424 -0.2273 -0.0075  0.6661
  548MOL0     C72264   8.373  -0.300   1.541  0.3108  0.3794 -0.2345
  548MOL0     C72265   8.378  -0.148   1.567  0.5071  0.0980  0.7865
  548MOL0     C72266   8.261  -0.100   1.658  1.0398 -0.7260 -0.1908
  548MOL0     C72267   8.307   0.011   1.739  0.3947 -1.0930 -1.3112
  548MOL0     C72268   8.379   0.098   1.785 -0.2903  0.8246 -0.4449
  548MOL0     C72269   8.579  -0.304   1.164 -0.4948  0.0104 -0.0294
  548MOL0     C72270   8.660  -0.241   1.075 -0.2399  0.4480  0.0629
  548MOL0     H72271   8.808  -0.262   0.659 -1.1979  0.0512  2.5685
  548MOL0     H72272   8.902  -0.178   0.455 -2.7812  2.4757 -0.3474
  548MOL0     H72273   9.279  -0.001   0.536  0.7055  2.3115  2.1581
  548MOL0     H72274   9.239   0.160   0.470 -2.9815 -0.3372  1.3504
  548MOL0     H72275   9.253   0.067   0.249  0.2705 -1.2041 -0.5790
  548MOL0     H72276   9.336  -0.083   0.312  0.5159 -0.0128  3.5813
  548MOL0     H72277   9.504   0.051   0.423 -1.1831  2.4585  2.1765
  548MOL0     H72278   9.454   0.195   0.328 -1.3293  0.5574  1.7160
  548MOL0     H72279   9.636   0.092   0.189 -0.1216  0.8940 -1.2649
  548MOL0     H72280   9.561  -0.060   0.212 -0.7697  0.2728  2.2673
  548MOL0     H72281   9.360   0.058   0.076  0.8063 -0.7364 -0.8919
  548MOL0     H72282   9.506  -0.005   0.004 -0.4876  0.0467 -0.3250
  548MOL0     H72283   9.442   0.213  -0.093 -0.2892  3.9058  0.4667
  548MOL0     H72284   9.592   0.237  -0.004 -0.2811 -2.3855 -2.8318
  548MOL0     H72285   9.354   0.291   0.176 -4.4936  2.2884 -1.4495
  548MOL0     H72286   9.486   0.380   0.149  0.6941 -2.1569  0.5931
  548MOL0     H72287   9.380   0.458  -0.084  1.5060  1.2973  1.0190
  548MOL0     H72288   9.291   0.506   0.070 -3.3409  0.2007 -0.7487
  548MOL0     H72289   9.073   0.407   0.136 -2.7022 -1.7514  0.1976
  548MOL0     H72290   8.817   0.184  -0.066 -0.3128 -4.5491  2.2165
  548MOL0     H72291   8.804   0.327   0.047 -0.2742  0.2123  0.2395
  548MOL0     H72292   8.889   0.055   0.160  1.4972  0.9054 -0.7510
  548MOL0     H72293   8.723   0.096   0.138 -0.8667  1.6990 -2.9963
  548MOL0     H72294   8.904   0.218   0.343 -3.3639  2.1619  6.0717
  548MOL0     H72295   8.776   0.311   0.285 -3.2554 -2.3623  0.3838
  548MOL0     H72296   8.757   0.140   0.484  1.4003 -1.8376 -0.1525
  548MOL0     H72297   8.713   0.034   0.354  0.2587  0.1102  2.5518
  548MOL0     H72298   8.582   0.016   0.583  0.3927 -0.5649  1.4828
  548MOL0     H72299   8.384  -0.020   0.725 -2.4965  1.5190  0.6154
  548MOL0     H72300   8.109   0.302   0.954  4.1272 -2.3143 -1.0512
  548MOL0     H72301   7.927   0.347   1.123  2.2383  1.6932 -1.6152
  548MOL0     H72302   7.823   0.015   1.333 -1.4532 -1.8121 -0.2015
  548MOL0     H72303   7.683  -0.011   1.249 -0.2834 -0.4016  1.2269
  548MOL0     H72304   7.612   0.024   1.476 -0.8937 -0.9104 -1.1985
  548MOL0     H72305   7.561   0.151   1.377 -1.0719 -2.5151  0.5064
  548MOL0     H72306   7.641   0.243   1.593  1.8184  1.0891  2.4724
  548MOL0     H72307   7.750   0.289   1.455  2.3885 -0.8900 -0.7173
  548MOL0     H72308   7.815   0.040   1.616  1.7452 -0.6978 -0.3123
  548MOL0     H72309   7.925   0.153   1.523 -1.6501 -1.7814 -3.1111
  548MOL0     H72310   7.970   0.161   1.778 -1.0167  0.9188  2.4496
  548MOL0     H72311   7.820   0.228   1.807 -1.3583 -2.9667  0.3482
  548MOL0     H72312   7.856   0.432   1.706  0.7994  2.6786 -3.0119
  548MOL0     H72313   7.981   0.376   1.585 -0.0777  1.2618 -0.6464
  548MOL0     H72314   8.033   0.514   1.823 -1.2529 -1.0454  2.0006
  548MOL0     H72315   8.058   0.344   1.866 -0.6880 -0.9878 -1.4748
  548MOL0     H72316   8.202   0.303   1.652 -0.2269 -0.8653  1.4902
  548MOL0     H72317   8.265   0.401   1.782 -1.6487 -2.7116  1.2911
  548MOL0     H72318   7.767  -0.046   1.058 -1.2383  1.7346 -2.9921
  548MOL0     H72319   7.973  -0.103   0.915 -0.6382 -1.1565  2.6085
  548MOL0     H72320   8.176   0.252   0.475  1.8059  1.7157 -2.9197
  548MOL0     H72321   8.372   0.309   0.360 -0.1831 -1.4052 -1.3144
  548MOL0     H72322   9.140   0.106   0.687 -0.3764 -0.3900  2.8045
  548MOL0     H72323   9.029   0.040   0.882  0.9365  1.9378  0.2610
  548MOL0     H72324   8.456   0.000   0.960  1.9563  1.6051 -0.2084
  548MOL0     H72325   8.303  -0.127   1.141 -0.4190 -0.0120 -2.6688
  548MOL0     H72326   8.553  -0.276   1.433  1.1373 -2.0461  0.8026
  548MOL0     H72327   8.494  -0.439   1.435 -3.1582 -1.2709 -1.4088
  548MOL0     H72328   8.270  -0.330   1.519  0.2452  1.0087 -0.7924
  548MOL0     H72329   8.408  -0.353   1.630 -1.2847  0.4053  0.4436
  548MOL0     H72330   8.364  -0.094   1.473 -0.1006  0.3357  1.0029
  548MOL0     H72331   8.469  -0.115   1.616 -0.0322  0.2610  1.7041
  548MOL0     H72332   8.171  -0.084   1.597  2.4119 -0.8571 -2.3512
  548MOL0     H72333   8.232  -0.180   1.727 -2.2313  0.0646 -0.4669
  548MOL0     H72334   8.438   0.182   1.817  0.4493  0.4467 -0.8111
  548MOL0     H72335   8.608  -0.401   1.205 -2.6411  0.2016  2.2055
  548MOL0     H72336   8.744  -0.296   1.034 -3.4875 -3.0716 -2.6575
  549MOL0     O72337   8.343   6.318   7.729 -0.6470  0.1196 -0.1901
  549MOL0     C72338   8.357   6.201   7.761 -0.2588  0.5815 -0.4827
  549MOL0     O72339   8.283   6.093   7.715  0.1389 -0.1232 -0.8178
  549MOL0     C72340   8.175   6.123   7.635 -0.7483  1.1332 -0.1202
  549MOL0     C72341   8.043   6.133   7.690 -0.0737  0.5558  0.0032
  549MOL0     C72342   7.934   6.169   7.612  0.4197  0.3456 -0.2313
  549MOL0     C72343   7.951   6.181   7.475  0.2754  0.0375  0.1475
  549MOL0     O72344   7.859   6.217   7.378  0.4413 -0.0553 -0.0685
  549MOL0     C72345   7.751   6.299   7.429 -0.4143 -0.0750  0.1003
  549MOL0     C72346   7.634   6.207   7.455 -0.6344 -0.3663 -0.1376
  549MOL0     C72347   7.520   6.278   7.518  0.5649  0.5483  0.0783
  549MOL0     C72348   7.392   6.194   7.537  0.2041  0.1396 -0.1894
  549MOL0     C72349   7.300   6.144   7.419 -0.8957  0.5047 -1.2102
  549MOL0     C72350   7.219   6.261   7.370  0.3762 -0.1227 -0.1646
  549MOL0     C72351   7.116   6.229   7.260  0.0679 -0.3033  0.3170
  549MOL0     C72352   6.987   6.212   7.341 -0.3916 -0.4655 -0.1490
  549MOL0     N72353   6.874   6.195   7.261 -0.3233  0.5883  0.7304
  549MOL0     C72354   6.869   6.110   7.155 -0.0907 -0.6000  0.2822
  549MOL0     C72355   6.748   6.127   7.099 -0.1160 -0.3239 -1.1446
  549MOL0     C72356   6.685   6.048   6.994 -0.6045  0.0068  0.4479
  549MOL0     C72357   6.592   5.947   7.060  1.2120 -0.0622 -0.5615
  549MOL0     C72358   6.479   5.912   6.965 -1.1959  0.2054 -0.0416
  549MOL0     C72359   6.428   5.771   6.967  0.5694  0.1106 -0.4803
  549MOL0     O72360   6.513   5.681   6.892 -0.4387  0.0588  0.2459
  549MOL0     C72361   6.559   5.562   6.944 -0.9879 -0.4970 -0.3013
  549MOL0     C72362   6.633   5.478   6.865  0.8870 -0.9782 -0.7238
  549MOL0     C72363   6.723   5.381   6.911 -0.2244 -0.6680  0.3362
  549MOL0     C72364   6.724   5.356   7.048 -0.1435 -0.2323  1.1766
  549MOL0     C72365   6.823   5.248   7.088  0.6218 -1.0334 -1.2790
  549MOL0     O72366   6.843   5.233   7.231  0.5353 -0.6751  0.2818
  549MOL0     C72367   6.919   5.128   7.263 -0.4853 -0.5898 -0.2708
  549MOL0     C72368   6.883   4.995   7.249  0.1895 -0.2295  0.3973
  549MOL0     C72369   6.982   4.899   7.256  0.5394  0.1227 -0.7221
  549MOL0     C72370   7.114   4.930   7.302  0.6073  0.2747  0.3163
  549MOL0     O72371   7.186   4.833   7.367  0.6409  0.6627 -0.1716
  549MOL0     C72372   7.326   4.845   7.367 -0.7102  0.2106 -0.9660
  549MOL0     C72373   7.379   4.707   7.409  0.8152 -0.3648  0.2135
  549MOL0     C72374   7.530   4.690   7.349  0.1005 -0.8559  0.5985
  549MOL0     C72375   7.627   4.772   7.431 -0.6047  0.0307  0.4279
  549MOL0     C72376   7.766   4.732   7.404 -1.3470 -0.3351  1.0500
  549MOL0     C72377   7.817   4.757   7.265 -0.0689  0.7997  0.8259
  549MOL0     C72378   7.971   4.741   7.239 -0.3745 -0.0576 -0.0610
  549MOL0     C72379   8.034   4.836   7.133 -0.2651 -0.7644  0.3810
  549MOL0    Cl72380   8.015   5.005   7.203  0.1162  0.2067 -0.0232
  549MOL0     C72381   7.144   5.064   7.325 -0.3612 -0.5484 -0.2676
  549MOL0     C72382   7.043   5.157   7.301  0.2457  0.1811 -0.5527
  549MOL0     O72383   6.888   5.194   6.996  1.3485  0.4089 -0.1964
  549MOL0     C72384   6.646   5.435   7.134  0.1083  0.3377 -0.4670
  549MOL0     C72385   6.568   5.535   7.082  0.6618 -1.0047 -0.0282
  549MOL0     N72386   6.692   6.248   7.150  0.6086  0.1624 -0.0447
  549MOL0     N72387   6.770   6.283   7.252  0.3188  0.1004  0.6290
  549MOL0     C72388   8.079   6.159   7.420  1.5232  0.2087  0.8424
  549MOL0     C72389   8.189   6.128   7.496 -0.9181  0.2677 -0.3227
  549MOL0     C72390   8.472   6.152   7.844 -0.4589 -1.0995  0.4701
  549MOL0     C72391   8.477   6.021   7.892 -0.7514 -0.5573 -0.7505
  549MOL0     C72392   8.591   5.967   7.948  0.4954 -0.2066  0.3555
  549MOL0     C72393   8.700   6.047   7.981 -0.1996  0.6776 -0.3814
  549MOL0     O72394   8.813   5.987   8.038  0.1538  0.0249  0.4636
  549MOL0     C72395   8.920   6.070   8.082  0.0494 -0.1805 -0.9172
  549MOL0     C72396   9.008   5.976   8.165 -0.6849  0.5316  1.2412
  549MOL0     C72397   9.120   6.054   8.239 -0.9394  0.0432 -0.6028
  549MOL0     C72398   9.136   6.008   8.375 -0.2108  0.4946 -1.1642
  549MOL0     C72399   9.250   6.069   8.445 -0.4908 -0.3614  0.2665
  549MOL0     C72400   9.346   6.124   8.499 -0.0593  0.2443  0.3894
  549MOL0     C72401   8.686   6.186   7.946  0.9088  0.3063 -0.3154
  549MOL0     C72402   8.571   6.239   7.887  0.1871 -0.4379 -0.0645
  549MOL0     H72403   8.033   6.123   7.797 -1.9634  2.7492  0.1133
  549MOL0     H72404   7.831   6.175   7.647  0.7377  0.8936  0.6286
  549MOL0     H72405   7.716   6.377   7.360 -5.6812  0.4118  2.8152
  549MOL0     H72406   7.788   6.354   7.515  1.4732  1.4828 -1.6086
  549MOL0     H72407   7.666   6.126   7.521  1.3642 -0.4715 -1.1581
  549MOL0     H72408   7.598   6.158   7.364 -0.8654 -0.9327  0.2581
  549MOL0     H72409   7.506   6.355   7.441  4.3958  0.0298 -1.3755
  549MOL0     H72410   7.545   6.332   7.609  2.0639  2.7993 -1.5417
  549MOL0     H72411   7.439   6.114   7.597 -1.6581 -0.7412  0.1625
  549MOL0     H72412   7.321   6.245   7.602 -1.4544 -0.9246 -1.0769
  549MOL0     H72413   7.244   6.057   7.456 -2.9789  1.4824 -1.8860
  549MOL0     H72414   7.356   6.115   7.329 -0.9228  1.6037 -1.5980
  549MOL0     H72415   7.284   6.335   7.323 -0.7457 -0.5093 -2.4521
  549MOL0     H72416   7.178   6.310   7.459 -1.9795 -1.3571 -0.4837
  549MOL0     H72417   7.102   6.320   7.201 -1.1665 -1.2128 -0.8462
  549MOL0     H72418   7.151   6.151   7.192 -1.6845 -0.9229  0.0885
  549MOL0     H72419   6.975   6.301   7.403 -3.6749 -1.7725  1.2804
  549MOL0     H72420   7.018   6.123   7.395  0.7771  1.9477  3.5285
  549MOL0     H72421   6.944   6.034   7.135 -1.0840 -1.3730 -0.6521
  549MOL0     H72422   6.754   5.998   6.925 -2.1826 -1.4269 -0.1604
  549MOL0     H72423   6.638   6.120   6.927 -1.4483 -3.3488 -2.8983
  549MOL0     H72424   6.555   5.988   7.154 -0.4501 -1.6834 -0.4575
  549MOL0     H72425   6.650   5.857   7.083  1.4956 -0.4504 -2.5706
  549MOL0     H72426   6.395   5.977   6.993  1.3437  2.5511  2.8960
  549MOL0     H72427   6.512   5.925   6.862 -3.6332  0.5279 -0.8410
  549MOL0     H72428   6.324   5.758   6.936  0.6957  1.8938 -1.8692
  549MOL0     H72429   6.416   5.755   7.074  0.8908 -0.6400 -0.5483
  549MOL0     H72430   6.620   5.490   6.758 -1.0547 -2.6417 -0.7291
  549MOL0     H72431   6.776   5.331   6.830 -2.4604 -0.6700 -1.2124
  549MOL0     H72432   6.783   4.965   7.219  0.3974  0.0753 -0.6446
  549MOL0     H72433   6.950   4.797   7.243 -1.1046  0.3278  1.2152
  549MOL0     H72434   7.355   4.922   7.439 -4.5302  1.0252 -0.1057
  549MOL0     H72435   7.367   4.869   7.269  1.7963 -0.9791 -0.3032
  549MOL0     H72436   7.325   4.625   7.360  0.3213  0.1487 -0.1229
  549MOL0     H72437   7.370   4.692   7.517 -3.5596 -0.8287 -0.0511
  549MOL0     H72438   7.529   4.715   7.242 -0.8719  3.6784  1.4407
  549MOL0     H72439   7.548   4.583   7.358 -1.4583 -1.5648 -2.9083
  549MOL0     H72440   7.607   4.878   7.417  1.0375  0.1561 -1.3291
  549MOL0     H72441   7.617   4.743   7.537 -1.6150  1.3775  0.7270
  549MOL0     H72442   7.786   4.625   7.417  1.6545  0.0659  0.3804
  549MOL0     H72443   7.824   4.786   7.479 -0.7256  1.8092 -0.8614
  549MOL0     H72444   7.796   4.862   7.242  1.4863  0.5284 -2.3968
  549MOL0     H72445   7.761   4.696   7.194  1.7719  1.7956 -1.6805
  549MOL0     H72446   8.029   4.752   7.331 -0.1501 -2.5152  0.1685
  549MOL0     H72447   7.982   4.639   7.201  1.1076 -0.9546  2.5432
  549MOL0     H72448   7.996   4.833   7.030 -3.1948  1.4934  1.2602
  549MOL0     H72449   8.141   4.811   7.133  1.4463  4.9544  0.7743
  549MOL0     H72450   7.238   5.103   7.363  1.0022 -2.9134 -0.9810
  549MOL0     H72451   7.057   5.263   7.318  0.0101  0.2523 -0.7955
  549MOL0     H72452   6.651   5.413   7.241  3.1654 -1.3459 -0.8431
  549MOL0     H72453   6.504   5.592   7.149 -0.7418  0.1561 -2.2133
  549MOL0     H72454   8.081   6.168   7.312  0.2258  1.1908  0.8712
  549MOL0     H72455   8.287   6.118   7.451 -0.2752  3.7519  0.0230
  549MOL0     H72456   8.412   5.937   7.866  0.2044 -1.8620  0.8660
  549MOL0     H72457   8.599   5.862   7.973  1.8730  0.1262  1.4156
  549MOL0     H72458   8.886   6.155   8.144 -0.9143 -2.2170  1.5329
  549MOL0     H72459   8.960   6.106   7.987  2.5002  2.0552  0.7942
  549MOL0     H72460   8.930   5.944   8.235 -2.6962 -1.1103 -1.5448
  549MOL0     H72461   9.062   5.905   8.102 -0.5902  1.1598  0.5990
  549MOL0     H72462   9.103   6.162   8.244 -1.0466 -0.0453  1.4380
  549MOL0     H72463   9.213   6.038   8.184 -1.8953  0.4403 -2.4544
  549MOL0     H72464   9.053   6.032   8.441  1.1572  0.5717  0.6061
  549MOL0     H72465   9.148   5.900   8.359  1.0750  0.6202 -1.1734
  549MOL0     H72466   9.428   6.152   8.562  0.0826  0.4873  0.1012
  549MOL0     H72467   8.765   6.259   7.958  0.5162  0.4080  1.9547
  549MOL0     H72468   8.586   6.342   7.856  3.0154 -1.1099 -1.3135
  550MOL0     O72469   9.173   1.432  10.260 -0.1267  0.5736 -0.3003
  550MOL0     C72470   9.239   1.375  10.347 -0.1929  0.1207 -0.3352
  550MOL0     O72471   9.192   1.260  10.412  0.2605  0.4065 -0.6865
  550MOL0     C72472   9.083   1.201  10.354  0.2969 -0.7034 -0.0283
  550MOL0     C72473   8.970   1.183  10.444  0.3856  0.3034  0.1491
  550MOL0     C72474   8.850   1.124  10.389 -0.4378  1.1287 -0.5596
  550MOL0     C72475   8.848   1.074  10.258 -0.3171  0.7462 -0.0508
  550MOL0     O72476   8.734   1.012  10.204 -0.6906 -0.6115  0.1288
  550MOL0     C72477   8.607   1.009  10.285 -0.7051  0.3297 -0.3102
  550MOL0     C72478   8.495   0.947  10.207 -0.3865 -0.7991  0.0482
  550MOL0     C72479   8.364   0.977  10.267 -0.2182  0.2133 -1.1774
  550MOL0     C72480   8.336   0.901  10.394 -0.3130 -0.8211  1.0469
  550MOL0     C72481   8.195   0.913  10.441 -0.9727 -0.5621  0.5252
  550MOL0     C72482   8.174   0.820  10.553  0.1874  0.7558  1.2653
  550MOL0     C72483   8.032   0.837  10.616 -0.6058  0.0461 -0.0521
  550MOL0     C72484   7.928   0.753  10.544 -0.2141  0.4395  0.2135
  550MOL0     N72485   7.795   0.786  10.607 -0.2359 -0.3546  0.7043
  550MOL0     C72486   7.759   0.710  10.713  0.1068 -0.0337 -0.4599
  550MOL0     C72487   7.688   0.795  10.786  0.0645  0.8373  0.1927
  550MOL0     C72488   7.616   0.761  10.907 -0.4157  0.7190  0.0584
  550MOL0     C72489   7.703   0.690  11.012 -0.1258 -0.5767 -0.2038
  550MOL0     C72490   7.650   0.707  11.153  0.6864  0.4623 -0.7708
  550MOL0     C72491   7.752   0.658  11.253 -0.2783 -0.9884  0.3547
  550MOL0     O72492   7.790   0.527  11.233 -0.0024  0.4718 -0.6463
  550MOL0     C72493   7.694   0.433  11.275 -1.8526 -0.5876 -0.3233
  550MOL0     C72494   7.714   0.387  11.399 -0.1548  0.3030 -0.6846
  550MOL0     C72495   7.638   0.275  11.446 -0.3876  0.2160  0.2957
  550MOL0     C72496   7.537   0.226  11.361  0.0769 -0.3750  0.7334
  550MOL0     C72497   7.451   0.112  11.403 -0.2988  0.1690  0.5681
  550MOL0     O72498   7.482   0.055  11.525  0.2076  0.0866 -0.0207
  550MOL0     C72499   7.384  -0.032  11.572 -1.0670 -0.2120  0.2126
  550MOL0     C72500   7.410  -0.164  11.559  1.0651 -1.0482 -0.5214
  550MOL0     C72501   7.313  -0.251  11.593 -0.6082  0.4121 -0.5555
  550MOL0     C72502   7.184  -0.221  11.638  0.0807 -0.5877 -1.6595
  550MOL0     O72503   7.093  -0.319  11.648  0.1890  0.0064 -0.8494
  550MOL0     C72504   6.960  -0.305  11.708  1.4496  0.8073  0.4422
  550MOL0     C72505   6.851  -0.309  11.594  0.2402  0.1237 -0.7069
  550MOL0     C72506   6.712  -0.355  11.654  0.1426 -0.8978  1.8793
  550MOL0     C72507   6.655  -0.269  11.765 -0.1259 -0.0083 -0.1743
  550MOL0     C72508   6.541  -0.337  11.853  0.1603 -0.6510 -0.1968
  550MOL0     C72509   6.404  -0.309  11.791  0.3650  0.0261  0.3716
  550MOL0     C72510   6.295  -0.387  11.864 -1.1538 -0.5591 -0.6625
  550MOL0     C72511   6.151  -0.384  11.812  0.1687  0.3949 -0.2532
  550MOL0    Cl72512   6.124  -0.510  11.688  0.1666  0.1747 -0.0148
  550MOL0     C72513   7.169  -0.088  11.661  0.4368 -0.1841 -0.2153
  550MOL0     C72514   7.261   0.011  11.625 -0.1218 -0.1797 -0.2507
  550MOL0     O72515   7.361   0.080  11.332  0.1251 -0.5452 -0.6766
  550MOL0     C72516   7.503   0.286  11.230  0.2580  1.6009 -0.0581
  550MOL0     C72517   7.584   0.390  11.198  0.0287 -0.3361  0.1998
  550MOL0     N72518   7.674   0.920  10.726  0.1033  0.2092  0.4256
  550MOL0     N72519   7.746   0.914  10.622  0.1177 -0.8557  0.8525
  550MOL0     C72520   8.968   1.083  10.183 -0.2894 -0.5353 -0.2765
  550MOL0     C72521   9.080   1.150  10.229 -0.2711  0.1917 -0.2257
  550MOL0     C72522   9.353   1.435  10.406 -1.2221  0.1120 -0.7761
  550MOL0     C72523   9.399   1.386  10.531  0.1053 -0.7334 -0.6393
  550MOL0     C72524   9.514   1.452  10.588 -0.0857 -0.1074 -0.2941
  550MOL0     C72525   9.583   1.547  10.515 -0.4064  0.4261  0.5576
  550MOL0     O72526   9.707   1.582  10.564  0.0033 -0.4707 -0.1121
  550MOL0     C72527   9.785   1.678  10.494  0.3143  0.1763  0.0525
  550MOL0     C72528   9.924   1.702  10.564  0.0780 -0.8442  0.2095
  550MOL0     C72529   9.919   1.725  10.718 -0.3761 -0.1188  0.3662
  550MOL0     C72530   9.901   1.605  10.817  0.1451 -0.2494  0.8537
  550MOL0     C72531  10.018   1.517  10.795  0.5475  0.1917 -0.5424
  550MOL0     C72532  10.122   1.450  10.775  0.5221 -0.4513  0.7111
  550MOL0     C72533   9.536   1.593  10.395 -0.6219 -0.4549  0.5212
  550MOL0     C72534   9.419   1.538  10.338  0.0389  0.0706 -0.1500
  550MOL0     H72535   8.971   1.222  10.545  0.0310 -1.2883  0.7959
  550MOL0     H72536   8.765   1.107  10.454 -1.7109  2.0988 -1.9097
  550MOL0     H72537   8.573   1.111  10.304 -1.2099 -0.1512  1.5596
  550MOL0     H72538   8.620   0.957  10.380  0.6486 -1.0738 -1.1997
  550MOL0     H72539   8.504   0.838  10.197 -2.8972 -1.1089  0.5468
  550MOL0     H72540   8.500   0.982  10.104  3.3560 -1.4926 -0.1590
  550MOL0     H72541   8.287   0.945  10.196 -1.1392 -0.6651  0.1939
  550MOL0     H72542   8.351   1.083  10.288  0.5817  0.1573 -0.3452
  550MOL0     H72543   8.364   0.796  10.380  0.2780 -0.6370  0.8043
  550MOL0     H72544   8.406   0.942  10.468  1.0934  1.1687 -1.2195
  550MOL0     H72545   8.124   0.887  10.362 -3.8226  2.8742  1.7325
  550MOL0     H72546   8.184   1.019  10.462  1.9334 -0.2596  0.9665
  550MOL0     H72547   8.256   0.851  10.618  4.0827 -2.4770 -1.5896
  550MOL0     H72548   8.186   0.714  10.528 -0.9910  0.9089 -0.0754
  550MOL0     H72549   8.048   0.814  10.721  0.4521 -0.7716 -0.3643
  550MOL0     H72550   8.009   0.944  10.611  1.3882  0.5828  1.1342
  550MOL0     H72551   7.938   0.644  10.546  2.2149  0.6085  0.2230
  550MOL0     H72552   7.913   0.777  10.439  0.2396  1.5303  0.3892
  550MOL0     H72553   7.768   0.604  10.734 -0.6587  0.2696  1.6304
  550MOL0     H72554   7.532   0.697  10.875 -0.1461  0.2872  0.2039
  550MOL0     H72555   7.574   0.857  10.939  0.2913  1.0986 -0.1499
  550MOL0     H72556   7.800   0.738  11.019 -0.8154  0.7433  0.7669
  550MOL0     H72557   7.697   0.583  10.990 -3.3348 -0.5984  0.2543
  550MOL0     H72558   7.610   0.808  11.164 -2.0326 -0.3210 -2.4574
  550MOL0     H72559   7.569   0.634  11.150  2.1941 -1.3118 -0.5633
  550MOL0     H72560   7.716   0.674  11.355  2.4661 -1.1196  1.4207
  550MOL0     H72561   7.840   0.722  11.252 -0.0213 -1.3251  0.9447
  550MOL0     H72562   7.799   0.428  11.452 -3.1163  2.7010  2.6933
  550MOL0     H72563   7.659   0.233  11.543 -0.3980  2.9155  1.5789
  550MOL0     H72564   7.505  -0.201  11.523  2.4108  0.8334  0.9371
  550MOL0     H72565   7.333  -0.355  11.571  1.3217  1.0780 -2.2193
  550MOL0     H72566   6.935  -0.214  11.761 -0.3678  0.6848 -0.1282
  550MOL0     H72567   6.936  -0.389  11.774 -3.1941  0.6180 -1.0962
  550MOL0     H72568   6.886  -0.387  11.526 -2.2748 -0.2906 -1.6386
  550MOL0     H72569   6.843  -0.212  11.544 -0.5083  0.7617  0.6092
  550MOL0     H72570   6.729  -0.455  11.693  0.5718 -1.5966  0.0137
  550MOL0     H72571   6.643  -0.376  11.571 -1.4432  0.2281  2.8675
  550MOL0     H72572   6.733  -0.256  11.841 -0.6676 -5.6288  1.8295
  550MOL0     H72573   6.624  -0.169  11.732 -0.1522  0.1502  0.3240
  550MOL0     H72574   6.535  -0.290  11.952  0.1128  0.7054 -0.8197
  550MOL0     H72575   6.558  -0.444  11.867  0.8102 -0.4702  0.4367
  550MOL0     H72576   6.396  -0.339  11.687 -1.0179  0.1504  0.4234
  550MOL0     H72577   6.396  -0.201  11.805  0.8239  0.5311 -2.6289
  550MOL0     H72578   6.321  -0.493  11.871  0.4436 -0.2617 -1.6533
  550MOL0     H72579   6.298  -0.348  11.966  1.2499 -1.5235 -0.2824
  550MOL0     H72580   6.117  -0.285  11.781 -1.1571 -0.1775 -0.7143
  550MOL0     H72581   6.072  -0.404  11.884 -0.4969 -0.4313 -1.1792
  550MOL0     H72582   7.073  -0.043  11.684  1.0698  1.0732  0.0895
  550MOL0     H72583   7.241   0.118  11.627  2.4562  0.5518 -3.9997
  550MOL0     H72584   7.425   0.247  11.165  1.6005 -0.0559 -0.7410
  550MOL0     H72585   7.587   0.438  11.101  6.3389  1.4255  0.8175
  550MOL0     H72586   8.963   1.062  10.077 -0.3012 -2.5470  0.0778
  550MOL0     H72587   9.159   1.179  10.161  0.5299  0.8273  0.9492
  550MOL0     H72588   9.343   1.306  10.579 -0.8830  2.0401  3.3742
  550MOL0     H72589   9.565   1.425  10.681  0.6867  0.9203 -0.3913
  550MOL0     H72590   9.732   1.774  10.487  1.4185  0.8453  0.5780
  550MOL0     H72591   9.807   1.643  10.392  2.3048  1.6699 -0.0908
  550MOL0     H72592   9.987   1.615  10.543 -0.4972 -1.4583  0.9861
  550MOL0     H72593   9.975   1.788  10.519  0.1313 -1.3229 -0.6781
  550MOL0     H72594   9.832   1.790  10.733 -1.7151 -0.9042 -3.0632
  550MOL0     H72595  10.005   1.789  10.740 -1.0791  1.3355 -0.8932
  550MOL0     H72596   9.898   1.641  10.920 -1.7427  0.0777  0.7191
  550MOL0     H72597   9.801   1.564  10.806  0.0291 -0.3337  2.0783
  550MOL0     H72598  10.211   1.391  10.772 -0.3654 -1.8005 -0.8073
  550MOL0     H72599   9.571   1.674  10.332 -0.9241  1.3495  2.5250
  550MOL0     H72600   9.382   1.586  10.248 -1.2709 -1.0715 -0.2505
  551MOL0     O72601   6.685   0.068  11.232  0.0202 -0.5774  0.6475
  551MOL0     C72602   6.640   0.051  11.340  0.7051  1.0508  0.4521
  551MOL0     O72603   6.712   0.059  11.455  0.9746 -0.5604  0.5082
  551MOL0     C72604   6.817   0.144  11.450  0.1503 -0.8885  0.1143
  551MOL0     C72605   6.800   0.253  11.534 -0.5542 -0.0920 -0.5861
  551MOL0     C72606   6.905   0.346  11.549 -0.0364  0.7912 -0.0358
  551MOL0     C72607   7.027   0.322  11.490  0.8806 -0.2458  0.0155
  551MOL0     O72608   7.110   0.423  11.508  0.1461 -0.6023  0.5087
  551MOL0     C72609   7.259   0.395  11.497  1.6356 -0.5391 -0.1426
  551MOL0     C72610   7.343   0.523  11.513 -0.0019 -0.7517  0.3564
  551MOL0     C72611   7.291   0.634  11.417 -1.1115 -0.2673  0.2374
  551MOL0     C72612   7.374   0.762  11.425  0.1886  0.9929  0.2871
  551MOL0     C72613   7.329   0.857  11.309 -0.3979  0.0005 -0.0206
  551MOL0     C72614   7.207   0.930  11.363 -0.3472 -0.1015  0.4537
  551MOL0     C72615   7.221   1.072  11.310 -0.1108 -0.2966 -0.1485
  551MOL0     C72616   7.119   1.168  11.381 -0.5815 -0.9795  0.0218
  551MOL0     N72617   6.981   1.111  11.385  0.8556 -0.5094 -0.3972
  551MOL0     C72618   6.936   1.024  11.480 -0.0276  0.0695  0.2912
  551MOL0     C72619   6.829   0.966  11.418  0.4139 -0.3439  0.0727
  551MOL0     C72620   6.750   0.853  11.483 -0.3134 -1.2618 -0.1085
  551MOL0     C72621   6.599   0.871  11.464  0.0146  0.5242  0.0357
  551MOL0     C72622   6.524   0.788  11.571 -0.7688 -0.8361 -1.1808
  551MOL0     C72623   6.382   0.777  11.517 -0.6827 -0.1788 -0.1304
  551MOL0     O72624   6.300   0.714  11.621 -0.0708 -0.3175 -0.1460
  551MOL0     C72625   6.166   0.731  11.626  0.1750  0.8140 -0.2349
  551MOL0     C72626   6.098   0.673  11.725  0.9329  0.2133  0.5368
  551MOL0     C72627   5.958   0.683  11.744 -0.2251 -0.2360  0.1467
  551MOL0     C72628   5.883   0.748  11.650  0.6026  0.4879 -0.2331
  551MOL0     C72629   5.727   0.748  11.653  0.0019 -0.3600  0.1045
  551MOL0     O72630   5.672   0.692  11.756 -0.1143  0.6515  0.0885
  551MOL0     C72631   5.538   0.682  11.763 -0.8917 -0.9060 -0.8766
  551MOL0     C72632   5.478   0.562  11.739 -0.3118  0.2355  0.7151
  551MOL0     C72633   5.336   0.542  11.755 -0.1439  0.1097  0.0093
  551MOL0     C72634   5.253   0.647  11.787  1.2264 -0.0421 -1.1814
  551MOL0     O72635   5.121   0.631  11.815 -0.3560 -0.1727  0.3120
  551MOL0     C72636   5.071   0.500  11.856 -0.2084 -1.1405 -0.8227
  551MOL0     C72637   4.951   0.524  11.937  0.6838  0.6004 -0.1693
  551MOL0     C72638   4.850   0.602  11.853  0.5307 -0.6779 -0.1432
  551MOL0     C72639   4.711   0.611  11.912 -0.6551  0.3338 -0.7901
  551MOL0     C72640   4.623   0.670  11.804  0.7221  0.3246  0.5777
  551MOL0     C72641   4.472   0.659  11.839  0.2215 -0.2823 -0.0875
  551MOL0     C72642   4.381   0.680  11.714  0.3439  1.5272  0.0791
  551MOL0     C72643   4.239   0.718  11.751 -0.2792  0.2581 -0.4318
  551MOL0    Cl72644   4.179   0.638  11.886 -0.0807  0.3188  0.1173
  551MOL0     C72645   5.314   0.774  11.806 -0.2182  0.7244 -0.4033
  551MOL0     C72646   5.456   0.791  11.805  0.8070  0.1934  0.2670
  551MOL0     O72647   5.674   0.819  11.568  0.4826  0.2611  0.2195
  551MOL0     C72648   5.949   0.814  11.548 -0.6249 -0.2523 -0.3304
  551MOL0     C72649   6.087   0.798  11.527 -0.1314 -0.7690  0.2650
  551MOL0     N72650   6.802   1.027  11.302 -0.8498  0.2704 -0.8067
  551MOL0     N72651   6.896   1.119  11.273 -0.2454  1.1510 -0.7268
  551MOL0     C72652   7.051   0.216  11.403 -1.1463 -0.0450 -1.1303
  551MOL0     C72653   6.942   0.130  11.373 -0.1341 -0.0452 -0.7101
  551MOL0     C72654   6.501   0.006  11.341 -0.8990  0.0695 -0.0191
  551MOL0     C72655   6.430   0.007  11.218  1.2033  0.4643  0.1422
  551MOL0     C72656   6.298  -0.043  11.219  0.6828  0.1143  0.5849
  551MOL0     C72657   6.242  -0.094  11.338 -0.1995  0.6097 -0.2673
  551MOL0     O72658   6.112  -0.134  11.332 -0.7946 -0.4721 -0.0797
  551MOL0     C72659   6.062  -0.224  11.430 -0.8352 -0.6436 -0.1483
  551MOL0     C72660   5.913  -0.224  11.419  0.1604  0.3537 -0.2951
  551MOL0     C72661   5.850  -0.341  11.506 -0.5017  0.1380 -0.0076
  551MOL0     C72662   5.706  -0.370  11.475  0.0226  0.0725 -1.3843
  551MOL0     C72663   5.661  -0.480  11.560  0.6091  0.8170  0.7561
  551MOL0     C72664   5.616  -0.572  11.632 -0.7375 -0.4130 -0.6364
  551MOL0     C72665   6.317  -0.091  11.463  0.4997 -0.3900 -0.4498
  551MOL0     C72666   6.448  -0.043  11.464  0.1952 -0.1515 -0.4419
  551MOL0     H72667   6.710   0.256  11.595 -0.6182  0.1052 -0.6892
  551MOL0     H72668   6.891   0.439  11.602  0.2009  0.0418  1.3781
  551MOL0     H72669   7.281   0.357  11.396  0.4578 -0.0177 -0.6150
  551MOL0     H72670   7.284   0.324  11.575 -0.9510 -4.2092 -2.3386
  551MOL0     H72671   7.449   0.503  11.491  1.2110  5.2496 -1.2812
  551MOL0     H72672   7.345   0.549  11.619 -0.4725  2.1385 -0.2601
  551MOL0     H72673   7.192   0.677  11.436  0.2215  3.3267 -0.1593
  551MOL0     H72674   7.302   0.587  11.319 -1.6379 -0.5873  0.3285
  551MOL0     H72675   7.388   0.807  11.524  0.8738  2.0497 -0.2697
  551MOL0     H72676   7.475   0.730  11.400 -0.9163 -1.3558 -1.6317
  551MOL0     H72677   7.298   0.788  11.230 -1.5682  0.0369  0.3834
  551MOL0     H72678   7.416   0.915  11.275 -0.0972 -0.9393 -0.9080
  551MOL0     H72679   7.206   0.927  11.473  1.4307  1.5514  0.5705
  551MOL0     H72680   7.120   0.881  11.319 -0.4780  0.1966  0.3782
  551MOL0     H72681   7.321   1.116  11.302 -0.8550  1.4589 -0.3523
  551MOL0     H72682   7.190   1.065  11.205 -2.6678  0.9011  0.4362
  551MOL0     H72683   7.123   1.257  11.317 -2.6612  0.7489  2.1202
  551MOL0     H72684   7.146   1.194  11.484  0.4640 -0.7916 -0.2950
  551MOL0     H72685   6.987   1.002  11.573 -0.7588 -0.7505  0.5140
  551MOL0     H72686   6.754   0.849  11.592 -0.2740  0.4381 -0.0102
  551MOL0     H72687   6.784   0.754  11.452  1.8495 -0.7391  0.4594
  551MOL0     H72688   6.571   0.825  11.370  1.1653  1.6740 -0.9149
  551MOL0     H72689   6.580   0.979  11.474  2.6687  1.0107  0.7273
  551MOL0     H72690   6.565   0.686  11.577 -0.1680 -0.5405 -0.1581
  551MOL0     H72691   6.523   0.831  11.671  0.5513 -0.6205 -1.2490
  551MOL0     H72692   6.390   0.725  11.421 -1.8309 -3.1067  1.2158
  551MOL0     H72693   6.346   0.879  11.504  0.5866  0.2059 -0.7459
  551MOL0     H72694   6.161   0.614  11.791  1.0284  0.0822  0.3266
  551MOL0     H72695   5.917   0.651  11.839  2.4794 -1.0460  1.1539
  551MOL0     H72696   5.539   0.481  11.699  1.5995  3.3590 -3.3829
  551MOL0     H72697   5.301   0.446  11.718  0.6898  0.3984 -1.6278
  551MOL0     H72698   5.136   0.449  11.928 -2.0763 -0.9945  1.0639
  551MOL0     H72699   5.061   0.431  11.772  1.3566 -4.7862  1.6838
  551MOL0     H72700   4.975   0.584  12.025  4.6842  3.3531 -2.7965
  551MOL0     H72701   4.912   0.425  11.962  0.1233  0.2504 -2.2340
  551MOL0     H72702   4.844   0.567  11.750 -1.8525 -0.7353 -0.0521
  551MOL0     H72703   4.877   0.707  11.846  1.0638 -0.7022  1.1343
  551MOL0     H72704   4.682   0.505  11.915 -0.2057  0.2232 -0.1018
  551MOL0     H72705   4.699   0.642  12.016 -0.9190 -3.0937  0.3477
  551MOL0     H72706   4.643   0.616  11.711 -2.0393  0.9388 -0.4782
  551MOL0     H72707   4.643   0.776  11.787 -0.1540  0.5900  1.1423
  551MOL0     H72708   4.449   0.735  11.914  5.2112  0.9315  0.5835
  551MOL0     H72709   4.445   0.566  11.890 -2.2716  1.3487  1.7659
  551MOL0     H72710   4.431   0.748  11.644  3.0263 -1.5603 -1.2582
  551MOL0     H72711   4.381   0.585  11.660  3.9617 -0.2568  2.7904
  551MOL0     H72712   4.172   0.706  11.666 -2.6816 -2.1731  1.6153
  551MOL0     H72713   4.240   0.825  11.775 -1.9120  0.4729 -1.1577
  551MOL0     H72714   5.266   0.868  11.829  2.1258  2.7698 -3.1029
  551MOL0     H72715   5.496   0.888  11.834  0.9369  0.4668 -0.8040
  551MOL0     H72716   5.901   0.859  11.462  0.0827 -0.5361 -0.8831
  551MOL0     H72717   6.128   0.827  11.431 -0.8618 -1.6185 -0.3211
  551MOL0     H72718   7.150   0.189  11.366 -1.5422 -1.5280 -1.1869
  551MOL0     H72719   6.938   0.047  11.303 -0.0949 -1.6264  1.0812
  551MOL0     H72720   6.482   0.036  11.127  4.4448 -1.7206  1.1037
  551MOL0     H72721   6.248  -0.059  11.124  4.0529  2.1912 -1.7400
  551MOL0     H72722   6.091  -0.191  11.530  3.4554 -0.1115 -1.3558
  551MOL0     H72723   6.106  -0.322  11.410  0.3389 -0.8199  2.8154
  551MOL0     H72724   5.874  -0.127  11.450  0.3452  0.3722 -0.1163
  551MOL0     H72725   5.887  -0.238  11.314  0.3839 -1.4351 -0.1416
  551MOL0     H72726   5.860  -0.318  11.613 -2.2436 -1.2298  0.5074
  551MOL0     H72727   5.908  -0.431  11.483  1.6258  1.1636  1.0978
  551MOL0     H72728   5.652  -0.279  11.501 -0.4057 -0.2375 -1.1770
  551MOL0     H72729   5.688  -0.394  11.369 -0.4279  2.8384 -1.9994
  551MOL0     H72730   5.567  -0.640  11.699 -2.9461 -0.2832 -1.9941
  551MOL0     H72731   6.280  -0.116  11.562  1.3723 -0.7782 -0.2221
  551MOL0     H72732   6.508  -0.038  11.555  0.9321  2.2344 -0.9832
  552MOL0     O72733  11.054   0.964   5.859  0.1774  0.1212 -0.2189
  552MOL0     C72734  11.009   0.896   5.947  0.0420  0.2654  0.0233
  552MOL0     O72735  10.874   0.881   5.972 -0.5812 -0.6441 -0.4120
  552MOL0     C72736  10.790   0.964   5.901 -0.9309 -0.1049 -0.6539
  552MOL0     C72737  10.766   1.093   5.938 -0.3929 -0.3781 -1.3011
  552MOL0     C72738  10.668   1.161   5.864  0.4076  0.2393  0.3301
  552MOL0     C72739  10.612   1.113   5.741  0.5720 -1.3482 -0.5039
  552MOL0     O72740  10.525   1.184   5.661  0.5650 -0.4299 -0.0789
  552MOL0     C72741  10.506   1.326   5.693  0.5104 -0.5700 -0.2530
  552MOL0     C72742  10.434   1.394   5.579  0.0866 -0.5722 -0.1349
  552MOL0     C72743  10.305   1.317   5.547  0.4010  0.1343 -0.1693
  552MOL0     C72744  10.251   1.376   5.415  0.3982  0.3865 -0.4977
  552MOL0     C72745  10.160   1.269   5.350 -0.3879 -0.3315  0.3998
  552MOL0     C72746  10.140   1.296   5.202 -0.3443  0.5592  0.9306
  552MOL0     C72747  10.066   1.177   5.128  0.0642  0.4956 -0.5504
  552MOL0     C72748  10.034   1.214   4.975 -0.6192 -0.3964 -0.1055
  552MOL0     N72749  10.162   1.231   4.905 -0.0518  0.2603 -0.0449
  552MOL0     C72750  10.228   1.343   4.864 -1.4968  0.1511  0.5287
  552MOL0     C72751  10.350   1.282   4.845  0.3711 -0.0504  0.0788
  552MOL0     C72752  10.462   1.369   4.800  0.8158 -0.7690  0.5130
  552MOL0     C72753  10.593   1.303   4.845  0.1073 -0.0276 -0.5782
  552MOL0     C72754  10.726   1.359   4.786  0.5017 -0.2486  0.6262
  552MOL0     C72755  10.838   1.282   4.824  0.0898  0.6225  1.0282
  552MOL0     O72756  10.883   1.318   4.952  0.1307 -0.8924  1.0344
  552MOL0     C72757  11.019   1.290   4.984  0.2079  0.4781 -1.0003
  552MOL0     C72758  11.090   1.388   5.054  0.3289  0.1307  0.5073
  552MOL0     C72759  11.214   1.349   5.107  0.8672 -0.6835  0.3358
  552MOL0     C72760  11.278   1.223   5.084 -0.2267 -0.9198 -0.8790
  552MOL0     C72761  11.415   1.194   5.132 -0.3910 -0.3402  1.1968
  552MOL0     O72762  11.470   1.084   5.095 -0.2443  0.4811 -0.2812
  552MOL0     C72763  11.603   1.070   5.122 -0.3151  0.0348  0.2194
  552MOL0     C72764  11.695   1.125   5.029 -0.2706  0.1697  0.6489
  552MOL0     C72765  11.828   1.122   5.057 -0.2799  1.1419 -0.2081
  552MOL0     C72766  11.880   1.067   5.180 -0.4861  0.1277  0.0692
  552MOL0     O72767  12.023   1.079   5.183  0.5054  0.8991 -0.2124
  552MOL0     C72768  12.106   1.003   5.277 -1.1898 -0.0283 -0.4414
  552MOL0     C72769  12.252   1.044   5.270 -0.9868 -0.5780  0.0214
  552MOL0     C72770  12.340   0.984   5.161 -0.3934 -0.8034  0.2687
  552MOL0     C72771  12.386   0.847   5.199 -0.5730  0.0139  0.4768
  552MOL0     C72772  12.474   0.779   5.086  0.3143  0.7050 -0.2410
  552MOL0     C72773  12.536   0.645   5.123 -0.2769  0.2951  0.1744
  552MOL0     C72774  12.639   0.587   5.017  0.7213 -0.0177 -0.2803
  552MOL0     C72775  12.573   0.554   4.878 -0.0369  0.4476  0.4106
  552MOL0    Cl72776  12.426   0.442   4.891  0.0702  0.3860  0.5128
  552MOL0     C72777  11.789   1.008   5.274 -0.8574 -0.5051 -0.0738
  552MOL0     C72778  11.651   1.013   5.249 -0.1990 -0.3272  0.4815
  552MOL0     O72779  11.470   1.280   5.195  0.4969 -0.7074 -0.2009
  552MOL0     C72780  11.208   1.120   5.018  0.6776 -0.4923 -0.4363
  552MOL0     C72781  11.083   1.163   4.960  0.1118 -1.3419  0.1827
  552MOL0     N72782  10.348   1.143   4.850 -0.4685 -0.2644  0.0916
  552MOL0     N72783  10.229   1.117   4.883  0.2761 -0.9954  0.3888
  552MOL0     C72784  10.644   0.981   5.714 -0.0272 -0.1374  0.6747
  552MOL0     C72785  10.731   0.912   5.792  0.1739 -0.7054  1.2051
  552MOL0     C72786  11.104   0.809   6.023  0.4590 -0.4721 -0.0876
  552MOL0     C72787  11.060   0.750   6.136 -0.7347 -0.2301 -0.5410
  552MOL0     C72788  11.132   0.671   6.220 -0.3048  0.0821 -0.4268
  552MOL0     C72789  11.273   0.657   6.189 -0.1023 -0.3883  0.8562
  552MOL0     O72790  11.362   0.578   6.254 -0.2726  0.0551 -0.7202
  552MOL0     C72791  11.322   0.456   6.325  0.1830  0.6545 -0.3593
  552MOL0     C72792  11.443   0.399   6.389 -0.5718 -0.2529 -0.2743
  552MOL0     C72793  11.485   0.495   6.505 -0.0586  0.1881 -0.3125
  552MOL0     C72794  11.575   0.424   6.609  0.5678  0.9806  1.0369
  552MOL0     C72795  11.498   0.318   6.673  0.4015 -0.4190  1.7927
  552MOL0     C72796  11.425   0.233   6.734  0.5727  0.0317  0.7388
  552MOL0     C72797  11.327   0.712   6.067 -0.4970  0.3231  0.7324
  552MOL0     C72798  11.240   0.799   5.986  0.0553  0.2856  0.1932
  552MOL0     H72799  10.818   1.132   6.025 -1.2284 -0.0003 -0.9580
  552MOL0     H72800  10.661   1.264   5.895  1.0644  0.6417 -0.8032
  552MOL0     H72801  10.595   1.383   5.721 -0.7505  0.7267  1.3073
  552MOL0     H72802  10.439   1.335   5.779  0.6600 -2.8710  0.1650
  552MOL0     H72803  10.495   1.391   5.489 -0.7409 -0.0221 -0.7263
  552MOL0     H72804  10.409   1.498   5.602 -0.3745 -0.6740 -0.1698
  552MOL0     H72805  10.241   1.340   5.633  3.5339  2.9661  1.6348
  552MOL0     H72806  10.308   1.208   5.536 -2.0470 -0.1452  1.2220
  552MOL0     H72807  10.185   1.463   5.423  1.4347  1.1753 -0.2230
  552MOL0     H72808  10.335   1.405   5.351  2.1668  1.9157  2.3084
  552MOL0     H72809  10.073   1.278   5.416  0.1773  0.7620  1.0241
  552MOL0     H72810  10.200   1.168   5.368 -0.5673 -0.3529  0.6915
  552MOL0     H72811  10.237   1.313   5.154  0.3379  2.8356  2.9379
  552MOL0     H72812  10.083   1.388   5.189 -0.5102  0.5240  1.4205
  552MOL0     H72813  10.130   1.089   5.134  3.1096  2.6154  4.2086
  552MOL0     H72814   9.975   1.150   5.182  1.3785 -2.4737  0.3771
  552MOL0     H72815   9.992   1.315   4.981  0.0467  0.0295 -1.8938
  552MOL0     H72816   9.968   1.140   4.928  0.3113 -0.7671 -0.8595
  552MOL0     H72817  10.210   1.450   4.857  1.5710  0.7189  0.0537
  552MOL0     H72818  10.455   1.471   4.839 -3.4828 -0.7080  0.0915
  552MOL0     H72819  10.438   1.391   4.695 -2.7840 -0.0226  1.3654
  552MOL0     H72820  10.593   1.201   4.805  1.1296 -1.8254  3.4665
  552MOL0     H72821  10.598   1.290   4.953  2.3471  1.2302 -0.4779
  552MOL0     H72822  10.724   1.368   4.677 -0.3064  0.4348  0.6850
  552MOL0     H72823  10.731   1.460   4.826 -4.8838  0.6210 -0.1933
  552MOL0     H72824  10.923   1.299   4.758 -0.3098  0.1150  0.3751
  552MOL0     H72825  10.827   1.173   4.817  3.0703  0.3353 -0.7878
  552MOL0     H72826  11.041   1.483   5.070 -0.3831 -0.0070 -0.6905
  552MOL0     H72827  11.268   1.424   5.165  1.1711 -0.4866 -0.1992
  552MOL0     H72828  11.655   1.172   4.940 -0.2038  1.9198  1.5008
  552MOL0     H72829  11.898   1.162   4.985  0.0770  1.1502  0.1401
  552MOL0     H72830  12.102   0.894   5.271 -2.9297 -0.3207  3.3208
  552MOL0     H72831  12.058   1.021   5.373 -2.2517  1.7181 -1.2484
  552MOL0     H72832  12.302   1.021   5.365  2.2681 -1.0360 -1.6824
  552MOL0     H72833  12.249   1.153   5.256  1.7611 -0.4074  0.1701
  552MOL0     H72834  12.427   1.047   5.146 -1.7864  0.9039 -1.0204
  552MOL0     H72835  12.277   0.975   5.072  1.0741  2.6586 -1.2719
  552MOL0     H72836  12.439   0.859   5.295  1.1315 -0.2016 -0.3905
  552MOL0     H72837  12.301   0.779   5.208 -1.1538  0.7474  0.6363
  552MOL0     H72838  12.558   0.845   5.062  2.0859 -1.5433 -0.5727
  552MOL0     H72839  12.412   0.768   4.997 -1.6576 -0.0089  1.1320
  552MOL0     H72840  12.458   0.568   5.126  1.3588 -1.8390 -4.3029
  552MOL0     H72841  12.585   0.651   5.221  0.6767  1.4537 -0.3571
  552MOL0     H72842  12.721   0.659   5.005 -1.3764  2.3884 -0.9561
  552MOL0     H72843  12.667   0.488   5.056 -0.6893 -0.4263 -0.2581
  552MOL0     H72844  12.641   0.490   4.821 -0.6361  0.2281 -0.0817
  552MOL0     H72845  12.540   0.644   4.825  0.9262  0.1454 -0.7358
  552MOL0     H72846  11.830   0.973   5.368  0.0339 -0.6521 -0.5111
  552MOL0     H72847  11.576   0.968   5.313 -1.1100 -0.3846 -0.6010
  552MOL0     H72848  11.242   1.021   4.989 -0.1034 -0.1386 -2.7200
  552MOL0     H72849  11.027   1.092   4.900 -1.1702  0.1055 -0.4057
  552MOL0     H72850  10.603   0.933   5.625  0.7703  1.8618 -0.8318
  552MOL0     H72851  10.762   0.812   5.764  4.6500  0.9295 -0.5591
  552MOL0     H72852  10.957   0.778   6.159 -0.7604  0.8223 -1.8443
  552MOL0     H72853  11.093   0.623   6.310 -0.5946 -3.5703 -2.3385
  552MOL0     H72854  11.291   0.390   6.244  3.5355  1.1698 -2.2358
  552MOL0     H72855  11.250   0.474   6.406  0.5332  3.0693 -0.5077
  552MOL0     H72856  11.418   0.296   6.415  1.0988 -1.4537 -2.9920
  552MOL0     H72857  11.525   0.396   6.317  0.0200  0.4965  0.3479
  552MOL0     H72858  11.392   0.532   6.551 -0.8572 -2.4454  0.3890
  552MOL0     H72859  11.537   0.585   6.472 -1.3368  1.3260  0.6496
  552MOL0     H72860  11.664   0.389   6.557  0.4220  3.4567 -1.0428
  552MOL0     H72861  11.595   0.497   6.688 -0.1280 -0.5454  2.6880
  552MOL0     H72862  11.375   0.152   6.783 -1.2128  1.1374  0.8392
  552MOL0     H72863  11.434   0.697   6.054 -0.8337 -5.8086  2.0516
  552MOL0     H72864  11.288   0.855   5.906  0.4782  0.8115  0.8067
  553MOL0     O72865   2.295   9.046   9.445 -0.0533 -0.9925  0.9251
  553MOL0     C72866   2.277   9.093   9.329 -0.0334  1.0227  0.2417
  553MOL0     O72867   2.303   9.029   9.209 -0.0396  0.3353 -0.4738
  553MOL0     C72868   2.331   8.899   9.226 -0.2136 -0.2521  0.2384
  553MOL0     C72869   2.251   8.815   9.305 -0.4878 -0.7261  0.0240
  553MOL0     C72870   2.294   8.678   9.322 -0.2283  0.6800  0.7550
  553MOL0     C72871   2.416   8.630   9.267  0.3383  0.7058  0.0361
  553MOL0     O72872   2.448   8.491   9.276 -0.3589 -0.2892 -0.0734
  553MOL0     C72873   2.570   8.435   9.221 -0.2714  1.0596  0.4604
  553MOL0     C72874   2.583   8.284   9.237  0.2529  0.1445 -0.0721
  553MOL0     C72875   2.724   8.239   9.202  0.9152 -0.9947  0.4711
  553MOL0     C72876   2.771   8.112   9.270  0.4503 -0.2174  0.0891
  553MOL0     C72877   2.898   8.067   9.198 -0.5734 -0.2812  0.0030
  553MOL0     C72878   2.965   7.942   9.266 -0.8645  0.0942 -0.7178
  553MOL0     C72879   2.988   7.837   9.152  0.1916  0.1597 -0.8719
  553MOL0     C72880   3.129   7.867   9.093 -1.1662  0.4680 -0.6472
  553MOL0     N72881   3.138   7.975   8.994  0.4115 -0.0987  0.5358
  553MOL0     C72882   3.091   7.966   8.864  0.8234 -0.1906  0.1872
  553MOL0     C72883   3.139   8.084   8.813  0.1938  0.7297 -0.1727
  553MOL0     C72884   3.111   8.131   8.674  1.0542  0.1169  0.1648
  553MOL0     C72885   3.094   8.284   8.675 -0.8384  0.7235  0.6948
  553MOL0     C72886   3.083   8.339   8.529  0.9031  0.5667  0.1376
  553MOL0     C72887   2.989   8.453   8.520 -0.0156  0.3425  0.2161
  553MOL0     O72888   2.850   8.415   8.493 -0.5214 -0.1995  0.6600
  553MOL0     C72889   2.746   8.506   8.466  0.1195 -0.4333 -0.5083
  553MOL0     C72890   2.754   8.644   8.438  0.1596  0.6695  0.0781
  553MOL0     C72891   2.639   8.722   8.409 -0.3037 -0.3722  0.1176
  553MOL0     C72892   2.510   8.659   8.425  0.6243 -0.2899  0.3599
  553MOL0     C72893   2.392   8.736   8.429 -0.4672  0.4098  0.3455
  553MOL0     O72894   2.271   8.674   8.421  0.0277  0.0459  0.1806
  553MOL0     C72895   2.161   8.751   8.415  0.3159  0.4876 -0.0041
  553MOL0     C72896   2.096   8.778   8.531  0.7641 -0.1072 -0.9313
  553MOL0     C72897   2.002   8.877   8.538 -0.7582  0.8827  1.0111
  553MOL0     C72898   1.952   8.943   8.415 -0.0772 -0.0786  0.1084
  553MOL0     O72899   1.857   9.040   8.417  0.3268 -0.5498 -0.0136
  553MOL0     C72900   1.745   9.031   8.513  0.4076 -0.2692 -0.4285
  553MOL0     C72901   1.690   9.170   8.559  0.7860 -0.5556  0.1613
  553MOL0     C72902   1.581   9.158   8.655  0.1237 -0.0347  0.2515
  553MOL0     C72903   1.531   9.300   8.693 -0.3583 -0.9037  0.3116
  553MOL0     C72904   1.398   9.287   8.748 -0.0396 -0.6552  0.2326
  553MOL0     C72905   1.365   9.404   8.846 -0.3372  0.4445 -0.4263
  553MOL0     C72906   1.372   9.544   8.780 -0.0578 -0.3106  0.0829
  553MOL0     C72907   1.309   9.564   8.642  0.1018 -1.5426  1.2091
  553MOL0    Cl72908   1.344   9.735   8.588  0.0081 -0.5238  0.1936
  553MOL0     C72909   2.000   8.889   8.296 -0.1293  0.1188 -0.3418
  553MOL0     C72910   2.107   8.798   8.295 -0.2088 -0.5062  0.2486
  553MOL0     O72911   2.408   8.850   8.466  0.2063 -0.0329  0.0791
  553MOL0     C72912   2.501   8.523   8.464  0.1052  0.3753 -0.9682
  553MOL0     C72913   2.619   8.444   8.488 -0.1732  0.9820 -0.3335
  553MOL0     N72914   3.193   8.161   8.913  0.6354  0.4914 -0.0397
  553MOL0     N72915   3.175   8.100   9.022 -0.3595 -0.6238  0.2667
  553MOL0     C72916   2.494   8.721   9.197 -0.3501 -0.7596 -0.4601
  553MOL0     C72917   2.460   8.852   9.177 -0.3480 -0.1205 -0.0447
  553MOL0     C72918   2.216   9.229   9.315  0.8179 -0.7883 -1.0674
  553MOL0     C72919   2.213   9.289   9.187 -0.1524  0.7260 -0.6522
  553MOL0     C72920   2.173   9.418   9.179 -0.7760 -0.0623  0.4721
  553MOL0     C72921   2.129   9.487   9.296  0.2469 -0.3166  0.8174
  553MOL0     O72922   2.092   9.616   9.295  0.3316  0.4647 -0.0053
  553MOL0     C72923   2.104   9.694   9.179  0.3532 -0.2963 -0.5144
  553MOL0     C72924   2.053   9.831   9.216  0.0503  0.0463  1.0976
  553MOL0     C72925   1.911   9.823   9.257  0.1481  0.3845 -0.5357
  553MOL0     C72926   1.830   9.940   9.214 -0.5861 -0.5195  0.7655
  553MOL0     C72927   1.835  10.052   9.301 -0.1468  0.4524 -0.0742
  553MOL0     C72928   1.846  10.140   9.380 -0.7335 -0.3819 -0.4122
  553MOL0     C72929   2.122   9.424   9.416  0.0089 -0.4075  0.2017
  553MOL0     C72930   2.168   9.296   9.429 -0.5156  0.0798 -0.4345
  553MOL0     H72931   2.169   8.850   9.367  3.3876  3.5462  3.4170
  553MOL0     H72932   2.234   8.620   9.391  0.1381 -0.5755  0.0595
  553MOL0     H72933   2.655   8.487   9.266 -1.6580  3.3044  0.6615
  553MOL0     H72934   2.571   8.449   9.113  1.5146 -3.2352 -0.2535
  553MOL0     H72935   2.521   8.237   9.160 -1.4523  1.1786  0.6211
  553MOL0     H72936   2.544   8.254   9.335  1.0057 -2.8065 -0.5576
  553MOL0     H72937   2.793   8.314   9.242  0.5666 -1.3932  1.8953
  553MOL0     H72938   2.736   8.245   9.094 -0.6126  0.0731  0.3295
  553MOL0     H72939   2.779   8.133   9.377  1.4521  2.0553 -0.3756
  553MOL0     H72940   2.699   8.031   9.257  0.2319 -0.1167  0.6254
  553MOL0     H72941   2.969   8.147   9.221  1.0056 -1.9746  1.2966
  553MOL0     H72942   2.888   8.048   9.091  1.0980 -2.4208  0.1726
  553MOL0     H72943   2.892   7.901   9.337  0.5035 -1.6576 -0.2573
  553MOL0     H72944   3.050   7.967   9.330  0.4807  2.4402 -3.2081
  553MOL0     H72945   2.987   7.743   9.207  2.7363  0.9557  0.7160
  553MOL0     H72946   2.906   7.837   9.080  0.5320  1.7571 -1.3027
  553MOL0     H72947   3.159   7.772   9.047 -1.5960 -1.5682  2.9257
  553MOL0     H72948   3.196   7.889   9.176 -0.7872  0.3524 -0.9202
  553MOL0     H72949   3.040   7.888   8.808 -2.0825 -0.6568  3.1816
  553MOL0     H72950   3.030   8.077   8.623  0.6110  0.4840  0.4744
  553MOL0     H72951   3.199   8.112   8.612  0.7208 -1.1721  0.0752
  553MOL0     H72952   3.184   8.324   8.723 -0.1629  2.2724 -1.6900
  553MOL0     H72953   3.009   8.310   8.739  0.7403  0.6878  2.9335
  553MOL0     H72954   3.181   8.366   8.489  0.5778 -0.0462 -1.1134
  553MOL0     H72955   3.043   8.261   8.464 -0.0021 -0.8459  2.3019
  553MOL0     H72956   3.018   8.513   8.433  2.8869 -0.0878  0.8028
  553MOL0     H72957   2.996   8.510   8.613  2.5042  1.8937 -0.8218
  553MOL0     H72958   2.850   8.691   8.419  0.7884 -1.7456 -4.0241
  553MOL0     H72959   2.657   8.828   8.392  1.7060 -0.7789 -0.6182
  553MOL0     H72960   2.137   8.745   8.626 -1.4040  1.6377  0.7460
  553MOL0     H72961   1.974   8.907   8.638 -1.2790 -1.8414  1.7766
  553MOL0     H72962   1.779   8.975   8.601  1.3411  1.6987  0.5239
  553MOL0     H72963   1.660   8.977   8.470 -0.8646 -0.1523  1.7994
  553MOL0     H72964   1.664   9.224   8.468 -0.3333 -0.6349  0.4177
  553MOL0     H72965   1.771   9.219   8.613  0.0878 -0.7880  1.4592
  553MOL0     H72966   1.616   9.112   8.748 -0.0239 -1.2694 -0.2821
  553MOL0     H72967   1.499   9.100   8.613 -0.9511  1.1966  0.5952
  553MOL0     H72968   1.599   9.339   8.769 -2.5964 -0.1696  2.0322
  553MOL0     H72969   1.529   9.357   8.600 -0.9542 -1.0198  0.2463
  553MOL0     H72970   1.390   9.193   8.805  0.3962 -1.7299 -1.3962
  553MOL0     H72971   1.328   9.279   8.665 -1.8995 -2.5507  1.8496
  553MOL0     H72972   1.431   9.406   8.934 -0.1384  0.8742 -0.5843
  553MOL0     H72973   1.268   9.386   8.894 -0.2859 -0.6610 -0.7143
  553MOL0     H72974   1.334   9.623   8.845 -0.1968  2.1395 -2.7451
  553MOL0     H72975   1.478   9.572   8.771 -0.1157  0.0605  0.5177
  553MOL0     H72976   1.202   9.552   8.662 -1.0549  2.0566 -1.6701
  553MOL0     H72977   1.338   9.490   8.567 -1.7278 -0.8095 -0.3170
  553MOL0     H72978   1.952   8.925   8.206 -2.9650 -0.8997  0.6558
  553MOL0     H72979   2.137   8.774   8.193 -1.5206  1.2970 -0.6219
  553MOL0     H72980   2.405   8.473   8.477  0.3351 -0.6284 -2.7495
  553MOL0     H72981   2.612   8.342   8.524 -2.7517  1.3705  0.4705
  553MOL0     H72982   2.588   8.704   9.144 -1.1277  0.5755 -2.3765
  553MOL0     H72983   2.514   8.926   9.120 -2.4804  1.4959 -0.0684
  553MOL0     H72984   2.254   9.232   9.105  1.3708  1.8532 -0.7115
  553MOL0     H72985   2.151   9.447   9.077  0.1622 -1.9828 -0.3251
  553MOL0     H72986   2.034   9.664   9.101  1.5103  2.1320 -2.6282
  553MOL0     H72987   2.203   9.703   9.134 -0.1024  0.2446 -1.4443
  553MOL0     H72988   2.123   9.891   9.276  3.5702 -0.8956 -1.6889
  553MOL0     H72989   2.062   9.876   9.117  1.2158 -1.6087  0.4180
  553MOL0     H72990   1.892   9.798   9.362 -0.4769  1.2418 -0.4257
  553MOL0     H72991   1.865   9.746   9.195  2.5779 -1.7914  0.1867
  553MOL0     H72992   1.866   9.969   9.115 -1.8713  0.7747  0.6491
  553MOL0     H72993   1.729   9.903   9.193 -0.6698 -1.0232  1.9966
  553MOL0     H72994   1.872  10.215   9.453  0.7100 -0.4045 -0.8749
  553MOL0     H72995   2.074   9.482   9.494 -0.1379 -0.3553  0.0740
  553MOL0     H72996   2.161   9.239   9.521 -0.2285  0.7612  0.0166
  554MOL0     O72997   3.332   9.029   3.040  0.3672  0.3564  0.1819
  554MOL0     C72998   3.437   8.971   3.025  0.1260  0.3891  0.8822
  554MOL0     O72999   3.455   8.836   3.068 -0.7227 -0.4909  0.6752
  554MOL0     C73000   3.338   8.770   3.100 -0.8206  0.3458  0.0280
  554MOL0     C73001   3.268   8.702   3.006 -0.5611 -0.5342  0.4223
  554MOL0     C73002   3.167   8.621   3.042  0.1341  0.2634 -0.4267
  554MOL0     C73003   3.115   8.616   3.172 -0.3863  0.5528 -0.4025
  554MOL0     O73004   3.000   8.548   3.217  0.2609  0.7970  0.3439
  554MOL0     C73005   2.902   8.525   3.115 -0.1529  0.7621 -0.1795
  554MOL0     C73006   2.772   8.488   3.185 -0.9220  0.2155  0.1382
  554MOL0     C73007   2.742   8.584   3.297  0.1795 -0.7265 -0.0883
  554MOL0     C73008   2.608   8.561   3.373 -0.6520 -0.4736 -0.0016
  554MOL0     C73009   2.630   8.587   3.523 -0.6062  0.2230  0.0379
  554MOL0     C73010   2.667   8.730   3.571  0.3055 -0.2529 -0.6544
  554MOL0     C73011   2.564   8.837   3.538 -0.4439  1.2524 -0.0510
  554MOL0     C73012   2.550   8.960   3.634 -0.5189  0.0132 -0.0624
  554MOL0     N73013   2.431   9.036   3.600  1.5475  0.4148  0.9448
  554MOL0     C73014   2.378   9.063   3.473  0.3708 -0.1852 -0.8849
  554MOL0     C73015   2.263   9.133   3.503 -0.7067 -0.0521  0.9938
  554MOL0     C73016   2.166   9.167   3.391 -0.4228  0.0781 -0.7199
  554MOL0     C73017   2.227   9.275   3.302  0.2026  0.1272  1.0746
  554MOL0     C73018   2.258   9.399   3.373  0.3303  0.3742  0.2032
  554MOL0     C73019   2.132   9.465   3.428  1.0359  0.3062  0.2464
  554MOL0     O73020   2.022   9.471   3.338  0.1306  0.0728  0.5237
  554MOL0     C73021   1.903   9.501   3.399  0.5720 -1.4032  0.1737
  554MOL0     C73022   1.797   9.478   3.308  0.4533 -0.3996  0.2535
  554MOL0     C73023   1.662   9.497   3.358 -0.3957 -0.7936  0.2802
  554MOL0     C73024   1.645   9.541   3.487 -0.4262 -0.9847 -0.7192
  554MOL0     C73025   1.507   9.533   3.550 -0.9798 -0.1325 -0.0543
  554MOL0     O73026   1.485   9.599   3.667 -0.0804 -0.3438  0.7486
  554MOL0     C73027   1.361   9.598   3.723  0.5777 -0.6511  0.6950
  554MOL0     C73028   1.256   9.675   3.671  0.0067 -0.2758 -0.3419
  554MOL0     C73029   1.133   9.685   3.741  0.2041  0.3256  0.3138
  554MOL0     C73030   1.102   9.600   3.846  0.5910 -0.5701  0.0375
  554MOL0     O73031   0.985   9.594   3.914  0.2838 -0.5551 -0.2741
  554MOL0     C73032   0.873   9.667   3.865  0.2605 -0.0476  0.5222
  554MOL0     C73033   0.765   9.667   3.975  0.3427  0.1308  0.1802
  554MOL0     C73034   0.671   9.541   3.968 -0.3251  0.0677  1.0908
  554MOL0     C73035   0.574   9.522   4.085 -0.5596  0.2461  0.8083
  554MOL0     C73036   0.459   9.425   4.038  0.5143  0.6618 -0.9689
  554MOL0     C73037   0.337   9.390   4.129 -0.2412 -0.5661  0.5730
  554MOL0     C73038   0.230   9.304   4.057  0.0013  0.2697  0.2324
  554MOL0     C73039   0.125   9.255   4.152  0.8784 -0.0596 -0.1263
  554MOL0    Cl73040   0.002   9.150   4.067  0.2116  0.4961  0.2395
  554MOL0     C73041   1.213   9.528   3.902  0.9676  0.5081  0.2648
  554MOL0     C73042   1.340   9.526   3.845 -0.2964 -1.4420 -0.2320
  554MOL0     O73043   1.422   9.478   3.483  0.4650 -0.2845 -0.5081
  554MOL0     C73044   1.754   9.578   3.572 -0.3648 -0.3765  0.6511
  554MOL0     C73045   1.885   9.562   3.525  1.2148 -0.6303  0.4703
  554MOL0     N73046   2.258   9.162   3.637  0.4791 -0.0201  0.3234
  554MOL0     N73047   2.357   9.107   3.692  0.2175  0.4656  0.3717
  554MOL0     C73048   3.199   8.678   3.262  0.5004 -0.4119  0.2590
  554MOL0     C73049   3.309   8.755   3.227 -0.5005  0.4135 -1.3049
  554MOL0     C73050   3.556   9.050   2.994 -0.2958 -0.1506 -0.3135
  554MOL0     C73051   3.548   9.172   2.918  0.5106 -0.9188  0.3121
  554MOL0     C73052   3.665   9.245   2.886 -0.0055  0.7586 -0.1124
  554MOL0     C73053   3.791   9.191   2.909  0.0973 -0.2226  0.1748
  554MOL0     O73054   3.907   9.258   2.882  0.4971 -0.3271  0.3674
  554MOL0     C73055   3.911   9.393   2.931  0.4817  0.0708  0.9299
  554MOL0     C73056   3.907   9.408   3.088  0.1096  0.7279 -0.1194
  554MOL0     C73057   4.037   9.342   3.157 -0.0090  0.5787  0.5802
  554MOL0     C73058   4.013   9.285   3.297 -0.1612 -0.8301  0.6353
  554MOL0     C73059   4.147   9.256   3.360  0.0098 -0.4739  0.2111
  554MOL0     C73060   4.245   9.219   3.416 -1.1664  0.1674 -0.2353
  554MOL0     C73061   3.799   9.063   2.971 -0.2960 -0.6637 -0.7349
  554MOL0     C73062   3.691   8.996   3.016  1.1705 -0.2461 -0.2170
  554MOL0     H73063   3.291   8.727   2.903  0.8297 -0.2597  0.7885
  554MOL0     H73064   3.107   8.577   2.963 -0.8752 -1.3765  1.2095
  554MOL0     H73065   2.936   8.437   3.059  2.3648  2.3573 -1.3571
  554MOL0     H73066   2.879   8.608   3.048 -1.3241  0.6483  0.0700
  554MOL0     H73067   2.767   8.387   3.225  0.1251  0.7822  1.7765
  554MOL0     H73068   2.699   8.499   3.103 -2.5605  0.1232  1.5272
  554MOL0     H73069   2.743   8.688   3.262 -2.5260 -1.6496 -3.4128
  554MOL0     H73070   2.815   8.583   3.379 -2.0111  4.1330  2.3936
  554MOL0     H73071   2.522   8.621   3.339 -0.2981 -0.3387 -0.6916
  554MOL0     H73072   2.582   8.455   3.370  0.7441 -0.8134 -1.9137
  554MOL0     H73073   2.697   8.510   3.561 -0.5001  0.6355  0.7138
  554MOL0     H73074   2.531   8.570   3.566 -0.5701  0.0958  0.0693
  554MOL0     H73075   2.774   8.742   3.549  0.9088 -0.7884  1.7537
  554MOL0     H73076   2.663   8.727   3.680 -1.6845 -3.1669 -0.6961
  554MOL0     H73077   2.573   8.883   3.439 -2.7811 -0.0887 -0.9472
  554MOL0     H73078   2.465   8.792   3.541 -1.2731  3.0257  0.6314
  554MOL0     H73079   2.635   9.028   3.624 -0.2103 -0.2063  0.9459
  554MOL0     H73080   2.548   8.929   3.738  1.9046  0.7057  0.2493
  554MOL0     H73081   2.415   9.028   3.377 -1.5438 -2.3281 -0.9290
  554MOL0     H73082   2.069   9.196   3.432 -0.2046  1.8057 -1.3393
  554MOL0     H73083   2.152   9.075   3.334 -2.1590  0.2057 -0.5426
  554MOL0     H73084   2.165   9.290   3.212  1.3326  0.6045  0.3548
  554MOL0     H73085   2.322   9.236   3.265  0.0942  0.4952  0.3905
  554MOL0     H73086   2.343   9.390   3.441  1.2293  2.2418 -0.5889
  554MOL0     H73087   2.297   9.457   3.288  0.8919 -3.0445 -2.0919
  554MOL0     H73088   2.167   9.564   3.458  0.5653  0.7502 -0.5979
  554MOL0     H73089   2.108   9.410   3.519 -1.9957 -0.8447 -1.0800
  554MOL0     H73090   1.815   9.435   3.210  3.6891 -3.7871  2.0422
  554MOL0     H73091   1.574   9.491   3.295  0.1110  1.2632 -0.7349
  554MOL0     H73092   1.269   9.724   3.575 -2.1572  1.5202  0.1839
  554MOL0     H73093   1.056   9.747   3.697  0.3499  1.4371  1.5592
  554MOL0     H73094   0.826   9.622   3.778  1.2547 -0.1030 -0.0043
  554MOL0     H73095   0.898   9.773   3.854  2.8850 -0.5484  1.0034
  554MOL0     H73096   0.708   9.758   3.955 -1.3777 -1.3933 -2.2244
  554MOL0     H73097   0.809   9.678   4.075 -1.7527  0.2985  1.1307
  554MOL0     H73098   0.731   9.449   3.959 -1.4131 -0.6257  0.7030
  554MOL0     H73099   0.612   9.543   3.877 -1.4408 -2.8765  1.6254
  554MOL0     H73100   0.622   9.471   4.169 -1.1700 -1.6494  0.0504
  554MOL0     H73101   0.539   9.621   4.116 -0.1197  0.1759  1.5425
  554MOL0     H73102   0.511   9.332   4.016  0.0885 -0.5769  2.6594
  554MOL0     H73103   0.398   9.457   3.952 -0.5870  0.5922 -0.2404
  554MOL0     H73104   0.295   9.484   4.166  1.8154  1.1315 -1.1447
  554MOL0     H73105   0.371   9.342   4.222  0.5860  1.1206  1.1857
  554MOL0     H73106   0.185   9.356   3.972 -1.7187 -2.0383 -0.3791
  554MOL0     H73107   0.271   9.214   4.008 -2.4224 -2.1426  2.3161
  554MOL0     H73108   0.071   9.347   4.178  0.6928  0.3846 -1.9742
  554MOL0     H73109   0.163   9.199   4.239 -1.7990  0.0082  1.1800
  554MOL0     H73110   1.191   9.469   3.990  0.6319  3.2266  2.1208
  554MOL0     H73111   1.432   9.483   3.884 -0.2539  1.1037  2.8695
  554MOL0     H73112   1.735   9.606   3.675 -1.5229  1.7829 -0.0926
  554MOL0     H73113   1.963   9.601   3.590 -0.3449 -0.9450  2.6614
  554MOL0     H73114   3.171   8.672   3.367 -2.0247  1.5295 -0.2020
  554MOL0     H73115   3.381   8.795   3.299  2.2190 -2.4467 -2.2094
  554MOL0     H73116   3.457   9.230   2.906  0.5076 -1.2532 -1.7265
  554MOL0     H73117   3.658   9.341   2.834 -1.0576 -1.1325 -3.8166
  554MOL0     H73118   3.838   9.454   2.877  2.2867  0.2751 -1.4367
  554MOL0     H73119   4.004   9.439   2.895  0.2045 -0.7167 -0.9399
  554MOL0     H73120   3.907   9.513   3.117  3.5237 -0.0077  3.4575
  554MOL0     H73121   3.826   9.354   3.137  2.6908 -0.8592  2.7270
  554MOL0     H73122   4.124   9.408   3.158  2.0198 -1.8348  4.2044
  554MOL0     H73123   4.064   9.249   3.106 -1.2268  1.5124 -1.9522
  554MOL0     H73124   3.953   9.353   3.358 -0.4070 -0.3687 -0.1044
  554MOL0     H73125   3.950   9.196   3.286  1.0063 -1.6328  0.1241
  554MOL0     H73126   4.341   9.195   3.458 -0.9261  0.3802 -0.6511
  554MOL0     H73127   3.891   9.007   2.985 -0.1710 -1.3746 -3.8096
  554MOL0     H73128   3.702   8.895   3.054  0.1117 -0.9472 -1.6630
  555MOL0     O73129   7.572   3.062   7.390  0.7346 -0.0918 -0.6450
  555MOL0     C73130   7.665   3.081   7.315  0.2980  0.0384  0.3317
  555MOL0     O73131   7.667   3.031   7.191  0.7679  0.5882 -0.2601
  555MOL0     C73132   7.550   2.977   7.143  0.4968  0.2128 -0.0370
  555MOL0     C73133   7.454   3.061   7.079 -0.9227  0.0191  0.6307
  555MOL0     C73134   7.335   3.009   7.022 -0.2153 -0.0241 -0.2435
  555MOL0     C73135   7.303   2.876   7.040  0.8658  0.0718  0.1468
  555MOL0     O73136   7.174   2.841   7.011 -0.0131  0.7733  0.6922
  555MOL0     C73137   7.153   2.714   6.945 -1.0412 -1.0730  0.0370
  555MOL0     C73138   7.007   2.688   6.920  0.6370  0.5287  0.3013
  555MOL0     C73139   6.955   2.747   6.791  0.5957  0.2102 -1.4021
  555MOL0     C73140   6.809   2.711   6.772  0.3497 -0.1136  0.9263
  555MOL0     C73141   6.780   2.737   6.618  1.6545 -0.2265 -0.4550
  555MOL0     C73142   6.734   2.874   6.578 -0.5444  0.0233  0.7311
  555MOL0     C73143   6.666   2.886   6.444 -0.7120  0.1694 -0.5386
  555MOL0     C73144   6.689   3.023   6.382 -0.4666 -0.6204 -0.6842
  555MOL0     N73145   6.612   3.027   6.255  0.0412 -0.4198  0.3740
  555MOL0     C73146   6.649   2.950   6.144  0.0662  1.4372  0.3424
  555MOL0     C73147   6.571   3.007   6.048  0.3658 -0.5756 -0.0610
  555MOL0     C73148   6.588   2.978   5.900 -0.2730  0.0493 -0.7723
  555MOL0     C73149   6.456   3.010   5.829 -0.6463 -0.1377  0.6871
  555MOL0     C73150   6.353   2.892   5.845  0.1650 -0.6214  0.2549
  555MOL0     C73151   6.223   2.945   5.781 -0.4220 -0.8743 -0.3001
  555MOL0     O73152   6.114   2.847   5.802  0.5162 -0.2256  0.1858
  555MOL0     C73153   5.990   2.890   5.791 -0.5918 -0.2355 -0.0409
  555MOL0     C73154   5.960   3.003   5.714 -0.5745 -0.3933 -0.1577
  555MOL0     C73155   5.832   3.058   5.728 -0.3326  0.3715  0.2891
  555MOL0     C73156   5.730   2.995   5.799 -0.2317 -0.6164  0.1509
  555MOL0     C73157   5.595   3.051   5.805  0.0474 -0.6969 -0.0578
  555MOL0     O73158   5.572   3.177   5.759  0.6713 -0.3605  0.5398
  555MOL0     C73159   5.448   3.225   5.776 -0.5916  1.1989  0.2450
  555MOL0     C73160   5.348   3.192   5.681 -1.0255  0.3050 -0.6362
  555MOL0     C73161   5.221   3.259   5.691 -0.4984  0.1168  0.4921
  555MOL0     C73162   5.191   3.358   5.785 -0.3016 -0.3178 -0.7476
  555MOL0     O73163   5.066   3.405   5.770  0.3152 -0.4920  0.4741
  555MOL0     C73164   5.014   3.476   5.878 -0.1966 -0.3239  0.3602
  555MOL0     C73165   4.857   3.503   5.857 -0.7709  0.1470  0.2630
  555MOL0     C73166   4.830   3.602   5.738  0.1123  0.1327 -0.2900
  555MOL0     C73167   4.681   3.600   5.699 -1.7346 -0.0438  0.1633
  555MOL0     C73168   4.652   3.699   5.581  0.1612  0.6518  0.4059
  555MOL0     C73169   4.654   3.845   5.618 -0.1418 -0.6605  0.3144
  555MOL0     C73170   4.600   3.923   5.498 -0.5189 -0.5851  0.0642
  555MOL0     C73171   4.574   4.066   5.540  0.0142  0.3350  0.1655
  555MOL0    Cl73172   4.747   4.129   5.550 -0.0981 -0.4772  0.3484
  555MOL0     C73173   5.292   3.394   5.870 -0.2235 -0.4036 -0.6822
  555MOL0     C73174   5.414   3.333   5.872  0.3802 -0.0462  0.5564
  555MOL0     O73175   5.506   2.974   5.841 -0.1789 -0.3740 -0.1621
  555MOL0     C73176   5.764   2.871   5.861  0.7796 -0.1364  0.2364
  555MOL0     C73177   5.889   2.824   5.865  0.0076  0.6046  0.0948
  555MOL0     N73178   6.489   3.112   6.100 -0.7942 -0.4461 -0.4379
  555MOL0     N73179   6.514   3.113   6.220  0.7732  0.4552  0.6420
  555MOL0     C73180   7.404   2.788   7.090  0.1856 -0.4612 -0.1364
  555MOL0     C73181   7.526   2.837   7.149  0.1985  0.8046  0.0171
  555MOL0     C73182   7.779   3.160   7.355 -0.7963  1.0718  0.8697
  555MOL0     C73183   7.795   3.202   7.492 -0.7044  0.0948  0.8136
  555MOL0     C73184   7.914   3.269   7.532  0.6886  0.1057 -0.3187
  555MOL0     C73185   8.008   3.298   7.439 -0.3384 -0.2769  0.9011
  555MOL0     O73186   8.113   3.368   7.498 -0.2227  0.0367  0.3170
  555MOL0     C73187   8.225   3.401   7.420 -0.7457  0.7056  0.8351
  555MOL0     C73188   8.324   3.477   7.509 -0.5317  1.3849  0.5150
  555MOL0     C73189   8.430   3.533   7.406 -0.1726  0.4109  0.4327
  555MOL0     C73190   8.522   3.627   7.470 -0.4859 -0.3229 -0.3583
  555MOL0     C73191   8.624   3.560   7.544 -0.0783  0.6422 -0.7200
  555MOL0     C73192   8.684   3.494   7.627 -0.1018 -0.1023  0.4107
  555MOL0     C73193   8.000   3.268   7.306 -0.3891  0.4359 -0.2090
  555MOL0     C73194   7.886   3.196   7.268 -0.1878 -0.3906  0.6277
  555MOL0     H73195   7.481   3.166   7.077 -2.1889  0.3521  0.5465
  555MOL0     H73196   7.263   3.074   6.974  0.0753  1.7201  1.5224
  555MOL0     H73197   7.193   2.632   7.005 -0.0575 -1.0243 -0.5315
  555MOL0     H73198   7.209   2.717   6.851  2.3452  0.8379  1.8912
  555MOL0     H73199   6.942   2.726   7.000 -2.4577  0.5848 -2.0655
  555MOL0     H73200   6.992   2.579   6.914  1.5129  0.4691 -1.0742
  555MOL0     H73201   7.012   2.715   6.703  0.3740 -1.1589 -1.0732
  555MOL0     H73202   6.974   2.853   6.812  1.6938  0.0113 -1.3291
  555MOL0     H73203   6.791   2.607   6.803 -0.5406 -0.7074 -1.3508
  555MOL0     H73204   6.740   2.769   6.835  1.1789 -0.6027  2.3348
  555MOL0     H73205   6.689   2.677   6.611  0.9733  0.7454 -0.1987
  555MOL0     H73206   6.857   2.693   6.555  1.0292  0.2231 -1.5727
  555MOL0     H73207   6.831   2.922   6.558 -1.4277  1.5177 -0.1719
  555MOL0     H73208   6.687   2.926   6.661 -3.3364 -3.2131  1.4034
  555MOL0     H73209   6.719   2.818   6.377  0.5158 -2.7733  3.0538
  555MOL0     H73210   6.561   2.862   6.461 -0.4975 -0.4646 -0.0727
  555MOL0     H73211   6.794   3.046   6.360 -0.0654 -0.7000  1.0141
  555MOL0     H73212   6.654   3.102   6.448 -0.2515 -2.2800  1.5196
  555MOL0     H73213   6.731   2.879   6.143 -1.7240 -0.7438  0.0880
  555MOL0     H73214   6.612   2.873   5.878 -3.9274 -1.2445  0.5981
  555MOL0     H73215   6.670   3.040   5.864 -1.5540  0.7771 -2.5785
  555MOL0     H73216   6.470   3.022   5.721 -0.5069  1.8816  0.9079
  555MOL0     H73217   6.412   3.106   5.858 -1.0504 -0.6519  1.8512
  555MOL0     H73218   6.379   2.806   5.782  0.1673 -2.2634  2.4029
  555MOL0     H73219   6.324   2.880   5.950 -3.5494  3.1152 -0.1214
  555MOL0     H73220   6.245   2.951   5.674  2.7968 -2.4084  0.1610
  555MOL0     H73221   6.202   3.041   5.829  0.5825 -0.7799 -0.0392
  555MOL0     H73222   6.028   3.051   5.644 -0.9793 -0.4452 -0.5907
  555MOL0     H73223   5.810   3.151   5.677 -1.2279 -0.7805 -1.5598
  555MOL0     H73224   5.379   3.118   5.608  1.3373  0.9590 -0.3981
  555MOL0     H73225   5.155   3.227   5.612  1.2152  1.1559 -1.4560
  555MOL0     H73226   5.070   3.569   5.884 -0.8859  0.5132 -3.5388
  555MOL0     H73227   5.013   3.419   5.971  0.4230 -0.6744  0.1571
  555MOL0     H73228   4.830   3.550   5.951 -0.3625 -0.1910  0.5542
  555MOL0     H73229   4.810   3.404   5.851 -0.5143  0.0372 -0.0024
  555MOL0     H73230   4.879   3.567   5.647 -1.0704 -0.7842 -0.5954
  555MOL0     H73231   4.849   3.704   5.774  2.3815  0.1467 -1.3208
  555MOL0     H73232   4.670   3.493   5.678  2.6864 -0.7413  0.4140
  555MOL0     H73233   4.616   3.624   5.784 -0.5370  3.2860  0.2863
  555MOL0     H73234   4.554   3.659   5.556  1.0402 -0.0158 -2.3229
  555MOL0     H73235   4.721   3.688   5.496 -0.4289 -1.2117  0.1200
  555MOL0     H73236   4.754   3.876   5.648 -0.3369 -1.6889  2.2205
  555MOL0     H73237   4.580   3.864   5.697 -2.3716 -2.9285 -1.0919
  555MOL0     H73238   4.671   3.898   5.419  0.4463  0.1108  0.6898
  555MOL0     H73239   4.503   3.882   5.467  0.8832 -2.2600 -2.5033
  555MOL0     H73240   4.530   4.073   5.640 -0.9183  1.5190 -0.3101
  555MOL0     H73241   4.502   4.111   5.471  2.0646 -0.3651 -2.6120
  555MOL0     H73242   5.280   3.481   5.935  0.2232 -2.0387  1.6982
  555MOL0     H73243   5.491   3.360   5.944  1.7859 -0.6955 -0.6384
  555MOL0     H73244   5.682   2.816   5.906  0.5619 -0.9858 -1.1660
  555MOL0     H73245   5.917   2.731   5.913  0.4623  1.4216  1.4427
  555MOL0     H73246   7.369   2.687   7.104  1.0017 -0.9065 -1.2289
  555MOL0     H73247   7.598   2.779   7.206  0.3927  0.2250 -0.8110
  555MOL0     H73248   7.738   3.171   7.579  3.6127 -5.5535  2.2451
  555MOL0     H73249   7.936   3.291   7.636  2.6464  1.0523 -0.8731
  555MOL0     H73250   8.208   3.465   7.333  0.6665  1.8456  1.3558
  555MOL0     H73251   8.278   3.310   7.390 -1.0062  1.6223 -2.8647
  555MOL0     H73252   8.270   3.560   7.556 -0.9936  0.7153  1.1868
  555MOL0     H73253   8.375   3.397   7.563  2.9757 -1.6412 -6.1300
  555MOL0     H73254   8.381   3.592   7.328  1.3835  1.9200  0.5516
  555MOL0     H73255   8.485   3.450   7.360  0.0568  1.3177 -0.9952
  555MOL0     H73256   8.567   3.689   7.392 -0.3393  1.1165  0.8262
  555MOL0     H73257   8.475   3.686   7.549 -1.9752 -1.6616 -0.2093
  555MOL0     H73258   8.721   3.435   7.709 -4.1621 -0.2182  2.4596
  555MOL0     H73259   8.068   3.293   7.226  1.0913  3.3481  1.8000
  555MOL0     H73260   7.875   3.176   7.162 -1.4516  2.9332  0.0006
  556MOL0     O73261   9.534   3.757   1.090  0.1853  0.9306  0.0917
  556MOL0     C73262   9.578   3.867   1.057  0.0140  0.0617  0.4264
  556MOL0     O73263   9.521   3.952   0.970  0.7223 -0.6453  0.1820
  556MOL0     C73264   9.395   3.918   0.923  0.1052  0.0433  0.1333
  556MOL0     C73265   9.373   3.823   0.823  0.9028  0.1124 -0.0994
  556MOL0     C73266   9.241   3.782   0.799  0.6699  0.4022  0.7310
  556MOL0     C73267   9.130   3.840   0.855 -0.1239 -0.2150  0.7145
  556MOL0     O73268   8.996   3.807   0.820 -0.2728  0.8646 -0.3432
  556MOL0     C73269   8.983   3.677   0.754 -0.2855 -0.0272 -1.1237
  556MOL0     C73270   8.976   3.544   0.830 -0.3052 -0.0205 -0.2962
  556MOL0     C73271   8.840   3.542   0.896 -0.3713 -0.0385  0.2168
  556MOL0     C73272   8.822   3.400   0.961 -1.1159 -0.5373  0.4632
  556MOL0     C73273   8.684   3.384   1.018  0.5093  0.2733  0.1056
  556MOL0     C73274   8.562   3.356   0.918  0.5773  1.0788 -0.4251
  556MOL0     C73275   8.432   3.326   0.995 -0.4331 -0.4262  0.2002
  556MOL0     C73276   8.324   3.266   0.900  0.5857 -0.1693 -0.3061
  556MOL0     N73277   8.265   3.150   0.970 -0.4506  1.6880 -0.4382
  556MOL0     C73278   8.196   3.154   1.091  0.2530 -0.3061  1.2351
  556MOL0     C73279   8.151   3.024   1.104  0.0120  0.1101  1.0598
  556MOL0     C73280   8.064   2.983   1.221  0.3178 -0.6720  0.3924
  556MOL0     C73281   7.919   3.041   1.183  0.5455 -0.0075  0.0381
  556MOL0     C73282   7.814   3.020   1.298 -0.6372 -0.3672 -0.0596
  556MOL0     C73283   7.698   3.120   1.279  0.2143  0.6792  0.0689
  556MOL0     O73284   7.585   3.057   1.343 -0.0243  0.6791  0.3296
  556MOL0     C73285   7.469   3.116   1.339 -0.5526  0.3947 -0.4511
  556MOL0     C73286   7.449   3.254   1.311  0.8604 -0.1899  0.0239
  556MOL0     C73287   7.323   3.312   1.326  0.6811 -0.3686 -0.4125
  556MOL0     C73288   7.220   3.239   1.392 -0.4791  0.5633  0.4968
  556MOL0     C73289   7.081   3.289   1.432 -0.2521  0.2441 -0.6992
  556MOL0     O73290   7.006   3.210   1.523  0.3696  0.7111  0.1099
  556MOL0     C73291   6.870   3.233   1.527  0.9160  0.5952  0.2984
  556MOL0     C73292   6.815   3.315   1.635 -0.4795 -1.1037  0.5735
  556MOL0     C73293   6.676   3.338   1.637 -0.2481 -1.0131 -1.3914
  556MOL0     C73294   6.593   3.259   1.559 -0.2866  0.5827  0.2926
  556MOL0     O73295   6.461   3.257   1.580  1.1393  0.1932 -0.5429
  556MOL0     C73296   6.399   3.357   1.655 -0.3013 -0.0355 -0.3279
  556MOL0     C73297   6.247   3.329   1.664  1.1104 -0.5629  0.1311
  556MOL0     C73298   6.161   3.355   1.540 -0.0939 -0.6027 -0.0334
  556MOL0     C73299   6.022   3.293   1.542  0.3078 -0.1041  0.6003
  556MOL0     C73300   6.007   3.147   1.503 -0.3202  0.3244  0.4091
  556MOL0     C73301   6.103   3.104   1.394  0.6743 -0.3722 -0.0396
  556MOL0     C73302   6.087   2.952   1.353 -0.0637  0.1859 -0.2101
  556MOL0     C73303   6.086   2.847   1.464  0.6127 -0.2860  0.5557
  556MOL0    Cl73304   5.938   2.852   1.564  0.4296  0.1355 -0.5836
  556MOL0     C73305   6.643   3.178   1.458 -0.1714  0.1297 -0.2990
  556MOL0     C73306   6.779   3.159   1.443 -0.0566  0.5434 -0.4319
  556MOL0     O73307   7.038   3.396   1.388 -0.4072  0.4545  0.4159
  556MOL0     C73308   7.251   3.110   1.443 -0.0285 -0.5730  0.1959
  556MOL0     C73309   7.372   3.055   1.414  0.3643 -0.6466 -0.7028
  556MOL0     N73310   8.193   2.947   0.994 -0.5093 -0.0966  0.4165
  556MOL0     N73311   8.262   3.026   0.916  0.0230 -0.5234  0.4712
  556MOL0     C73312   9.154   3.923   0.963 -0.1137  0.1461 -0.4307
  556MOL0     C73313   9.279   3.965   0.999  1.1010  0.4423  1.4626
  556MOL0     C73314   9.714   3.903   1.111 -0.7936 -0.5481  0.4405
  556MOL0     C73315   9.810   3.974   1.042 -0.1046  0.6138  0.9354
  556MOL0     C73316   9.935   3.991   1.094  0.0833  0.6686  0.2837
  556MOL0     C73317   9.970   3.960   1.226 -0.5365 -0.2242 -0.6714
  556MOL0     O73318  10.095   4.005   1.271 -0.2716 -0.2134 -0.1283
  556MOL0     C73319  10.095   4.154   1.290  0.1108  0.2801  0.2172
  556MOL0     C73320  10.233   4.211   1.315  0.0938 -0.1049  0.7529
  556MOL0     C73321  10.295   4.162   1.443 -0.6616  0.3247  0.5123
  556MOL0     C73322  10.435   4.211   1.457  0.4109 -0.6976  0.3863
  556MOL0     C73323  10.536   4.128   1.378  1.0336 -0.4959 -0.2994
  556MOL0     C73324  10.614   4.057   1.317 -0.1244  0.2081 -0.7856
  556MOL0     C73325   9.878   3.893   1.299  0.1287 -0.2344  0.0247
  556MOL0     C73326   9.750   3.865   1.238 -0.1830  0.3233  0.0474
  556MOL0     H73327   9.458   3.771   0.780 -0.5437 -0.7303 -2.1272
  556MOL0     H73328   9.234   3.715   0.714 -1.4167  1.3598  0.0692
  556MOL0     H73329   9.050   3.677   0.668 -0.4072  1.4917 -1.2574
  556MOL0     H73330   8.887   3.684   0.702 -1.3175  0.8906  0.7819
  556MOL0     H73331   9.058   3.553   0.902  0.1407  0.1053 -0.8086
  556MOL0     H73332   8.990   3.459   0.763  2.0745 -1.3474  1.7228
  556MOL0     H73333   8.769   3.549   0.813  1.7084  1.7165 -1.5588
  556MOL0     H73334   8.824   3.629   0.960 -1.0126  0.2762 -0.3610
  556MOL0     H73335   8.835   3.307   0.905  3.9285  0.6502 -0.8631
  556MOL0     H73336   8.903   3.385   1.033  0.4464 -3.1997 -1.6872
  556MOL0     H73337   8.665   3.460   1.094 -1.5493  0.3657 -0.4357
  556MOL0     H73338   8.685   3.298   1.084 -0.4374  0.5990  0.5648
  556MOL0     H73339   8.586   3.280   0.843 -0.8099  0.2479 -0.0821
  556MOL0     H73340   8.550   3.446   0.857 -1.2870 -0.8814 -3.2091
  556MOL0     H73341   8.463   3.247   1.063  3.7666  0.2528 -0.6508
  556MOL0     H73342   8.388   3.415   1.043 -1.8772 -0.5040 -0.9218
  556MOL0     H73343   8.358   3.262   0.796  1.7300  1.2922 -0.0355
  556MOL0     H73344   8.243   3.340   0.895 -3.0786 -3.6361  2.0988
  556MOL0     H73345   8.182   3.238   1.159 -1.1847  1.2602 -0.8821
  556MOL0     H73346   8.098   3.026   1.315  0.3675 -2.0907  1.0558
  556MOL0     H73347   8.057   2.874   1.234  0.0625 -0.4860  2.0152
  556MOL0     H73348   7.879   2.982   1.101 -1.4400  0.5271  0.5626
  556MOL0     H73349   7.932   3.147   1.160  1.2306  0.1967  1.2395
  556MOL0     H73350   7.781   2.916   1.312  1.6963 -0.8710  2.6696
  556MOL0     H73351   7.869   3.039   1.391 -0.9605 -3.4063  0.8862
  556MOL0     H73352   7.672   3.117   1.173  1.8566 -3.1544 -0.3869
  556MOL0     H73353   7.722   3.223   1.310  1.7888  0.0004  1.2588
  556MOL0     H73354   7.522   3.331   1.286 -3.5134  4.7159  0.5787
  556MOL0     H73355   7.312   3.417   1.300  0.3806 -0.1477  0.5723
  556MOL0     H73356   6.884   3.369   1.698 -0.5856 -0.2594 -0.0227
  556MOL0     H73357   6.646   3.412   1.711  1.1054 -0.4094 -1.4151
  556MOL0     H73358   6.421   3.454   1.608 -2.5505  2.2535  2.8740
  556MOL0     H73359   6.451   3.356   1.751  0.6922  0.7342 -0.8375
  556MOL0     H73360   6.205   3.402   1.734 -1.6514 -3.0848  1.3608
  556MOL0     H73361   6.226   3.234   1.714 -2.0008  0.2874  0.6976
  556MOL0     H73362   6.224   3.325   1.456  1.7955 -0.3106  1.2175
  556MOL0     H73363   6.156   3.463   1.526  0.0768 -0.6994 -0.8905
  556MOL0     H73364   5.972   3.295   1.640 -1.2005  0.9617 -0.1344
  556MOL0     H73365   5.955   3.341   1.470 -0.3317 -2.7603 -0.6674
  556MOL0     H73366   5.906   3.119   1.471 -1.9485  5.1731  0.5425
  556MOL0     H73367   6.030   3.097   1.598 -0.9132  1.8416  1.3903
  556MOL0     H73368   6.209   3.130   1.405  0.1466  0.8335  3.8176
  556MOL0     H73369   6.070   3.148   1.299  0.6593 -0.8351 -0.2493
  556MOL0     H73370   6.009   2.934   1.279 -1.3943 -0.1241  1.2129
  556MOL0     H73371   6.176   2.915   1.301 -0.6214 -1.9407  0.2624
  556MOL0     H73372   6.168   2.865   1.534  0.0737  1.8801  0.6898
  556MOL0     H73373   6.102   2.751   1.412 -3.3089 -0.3019 -0.9262
  556MOL0     H73374   6.577   3.132   1.384 -1.1435 -1.8249  1.6601
  556MOL0     H73375   6.828   3.105   1.362 -1.6022 -3.3474  0.9450
  556MOL0     H73376   7.172   3.054   1.491 -1.5545  2.2428  1.2050
  556MOL0     H73377   7.384   2.964   1.473 -1.4991  0.6838  1.9872
  556MOL0     H73378   9.073   3.969   1.019  2.1586  0.5275  2.8682
  556MOL0     H73379   9.298   4.030   1.084 -0.3431  1.2043  1.2231
  556MOL0     H73380   9.782   4.009   0.943 -2.0017 -3.3997 -0.1517
  556MOL0     H73381  10.006   4.041   1.029 -1.9221  1.4035 -1.4510
  556MOL0     H73382  10.021   4.185   1.365  0.9220 -2.0673  2.1308
  556MOL0     H73383  10.061   4.197   1.195  3.5499 -2.0951 -2.3184
  556MOL0     H73384  10.300   4.193   1.230  1.8984  3.3017  1.2650
  556MOL0     H73385  10.230   4.320   1.328 -0.3460 -0.1671  1.1603
  556MOL0     H73386  10.307   4.053   1.436  0.6852  0.4682  0.3040
  556MOL0     H73387  10.225   4.187   1.523 -0.4490 -0.1308  0.8410
  556MOL0     H73388  10.449   4.315   1.427  1.1314  0.1484  3.3271
  556MOL0     H73389  10.460   4.202   1.563 -0.4251 -1.7572  0.5185
  556MOL0     H73390  10.676   3.975   1.283 -3.7390 -2.1244 -2.3634
  556MOL0     H73391   9.920   3.852   1.390  2.6702 -5.7281 -3.0702
  556MOL0     H73392   9.671   3.807   1.284 -1.1657  2.9250  1.9464
  557MOL0     O73393   7.833   6.140   6.865 -0.0386  0.3825  0.3519
  557MOL0     C73394   7.900   6.126   6.766 -0.2289 -0.0020  0.1193
  557MOL0     O73395   8.012   6.071   6.768  0.6741  0.4979  0.4759
  557MOL0     C73396   8.037   5.984   6.870  0.3997  0.1932 -1.3737
  557MOL0     C73397   7.995   5.842   6.855  0.2420 -0.6112 -0.0201
  557MOL0     C73398   8.026   5.746   6.952 -0.1590 -0.1990 -0.3915
  557MOL0     C73399   8.108   5.779   7.061  0.8234 -1.2923  0.0409
  557MOL0     O73400   8.125   5.697   7.164  0.5086 -0.4103  1.2746
  557MOL0     C73401   8.169   5.566   7.141  0.6560 -0.4126  0.2228
  557MOL0     C73402   8.140   5.474   7.267 -0.1340 -0.4255  0.5603
  557MOL0     C73403   8.231   5.348   7.259  1.3876  0.3174  0.4412
  557MOL0     C73404   8.236   5.270   7.392 -0.1005  0.1117 -0.5148
  557MOL0     C73405   8.360   5.184   7.415 -0.2146  0.8989  0.5522
  557MOL0     C73406   8.406   5.106   7.296  0.1322 -1.1911 -0.0371
  557MOL0     C73407   8.526   5.022   7.309 -0.6989 -0.6303 -0.6111
  557MOL0     C73408   8.541   4.934   7.174 -1.1345 -0.6418 -0.2743
  557MOL0     N73409   8.668   4.982   7.102  0.0276 -0.3309  0.2893
  557MOL0     C73410   8.791   5.007   7.152 -0.0330 -0.3717  0.0518
  557MOL0     C73411   8.865   5.067   7.051  0.1855 -0.8995 -0.4338
  557MOL0     C73412   8.999   5.136   7.070  0.3730  0.6553 -0.9007
  557MOL0     C73413   9.110   5.030   7.069  1.1059 -0.1970  0.1976
  557MOL0     C73414   9.124   4.945   7.197 -0.3752  0.3552 -0.2728
  557MOL0     C73415   9.251   4.863   7.205 -0.5012  0.0869  0.2219
  557MOL0     O73416   9.241   4.798   7.327 -0.2342  0.0209 -0.7560
  557MOL0     C73417   9.359   4.734   7.358  0.7098  0.4209 -0.8475
  557MOL0     C73418   9.369   4.598   7.334 -0.9265 -0.3657 -0.0034
  557MOL0     C73419   9.485   4.521   7.364 -0.6366  0.8930 -0.4904
  557MOL0     C73420   9.594   4.582   7.423  0.6590  0.3682  0.4801
  557MOL0     C73421   9.711   4.505   7.470 -0.1071 -0.8090  0.8524
  557MOL0     O73422   9.709   4.368   7.470 -0.4165  0.7518  0.5985
  557MOL0     C73423   9.818   4.293   7.510 -0.2317 -0.8988  1.1108
  557MOL0     C73424   9.952   4.340   7.493  0.5663 -0.9731  0.3841
  557MOL0     C73425  10.059   4.283   7.549  0.0635  0.1772 -0.5397
  557MOL0     C73426  10.039   4.166   7.625  0.0952  0.1713  0.7427
  557MOL0     O73427  10.150   4.098   7.687  0.3932  0.9513  0.0008
  557MOL0     C73428  10.285   4.132   7.657  0.3792 -0.4910  0.8802
  557MOL0     C73429  10.339   4.239   7.748 -1.1204  0.2766 -0.6139
  557MOL0     C73430  10.390   4.191   7.887 -0.4873 -1.1792  0.4776
  557MOL0     C73431  10.425   4.306   7.981  1.0169 -0.3289  0.2448
  557MOL0     C73432  10.500   4.244   8.100  0.3515 -0.5544 -0.0089
  557MOL0     C73433  10.653   4.245   8.082 -0.0987 -0.8207 -0.3879
  557MOL0     C73434  10.717   4.189   8.219 -0.1090 -0.1778 -0.5115
  557MOL0     C73435  10.871   4.194   8.229  0.0062  0.9054  0.0577
  557MOL0    Cl73436  10.929   4.343   8.152  0.1697 -0.3012 -0.3710
  557MOL0     C73437   9.906   4.101   7.630  0.4303  0.0310 -1.3830
  557MOL0     C73438   9.803   4.169   7.571  0.9024 -0.4248 -0.1119
  557MOL0     O73439   9.795   4.569   7.530  0.7979  0.0844 -0.6721
  557MOL0     C73440   9.589   4.722   7.429 -0.2888 -0.3621  1.3887
  557MOL0     C73441   9.471   4.796   7.409  0.7821 -0.6291  0.3003
  557MOL0     N73442   8.792   5.069   6.932 -0.4674  0.4755 -0.3524
  557MOL0     N73443   8.672   5.037   6.970  0.3701  0.3562  0.4345
  557MOL0     C73444   8.148   5.907   7.082  0.3674  0.4107  0.2243
  557MOL0     C73445   8.116   6.006   6.987 -0.3868 -0.5915  0.1483
  557MOL0     C73446   7.876   6.202   6.646  0.4271  0.0664  1.1769
  557MOL0     C73447   7.951   6.175   6.533 -0.0839  0.3246 -1.1036
  557MOL0     C73448   7.927   6.244   6.409  0.2742 -0.6841 -0.8592
  557MOL0     C73449   7.820   6.338   6.398 -0.2233  0.3428  0.6359
  557MOL0     O73450   7.795   6.407   6.278  0.2645  0.2483  1.1840
  557MOL0     C73451   7.757   6.552   6.285  0.0113  0.3342 -0.0181
  557MOL0     C73452   7.841   6.640   6.368 -0.4218 -0.3190 -0.2048
  557MOL0     C73453   7.790   6.775   6.372 -0.1937  0.3641  1.0521
  557MOL0     C73454   7.880   6.875   6.434  0.5742 -0.4858 -1.4072
  557MOL0     C73455   7.998   6.911   6.363 -0.8655 -0.4422  0.4044
  557MOL0     C73456   8.113   6.947   6.327  0.1225  0.2203  0.4697
  557MOL0     C73457   7.740   6.359   6.515  0.1369  0.2930  0.8733
  557MOL0     C73458   7.768   6.295   6.633 -0.1268 -0.2690  0.3932
  557MOL0     H73459   7.938   5.813   6.767 -1.0934 -0.3467  0.7163
  557MOL0     H73460   7.979   5.648   6.953  0.3858 -0.6347 -4.0808
  557MOL0     H73461   8.274   5.561   7.111 -0.0961 -1.0879 -2.5688
  557MOL0     H73462   8.111   5.527   7.057  1.2593  1.1365 -0.9539
  557MOL0     H73463   8.031   5.461   7.268 -0.2058  0.1614  1.2449
  557MOL0     H73464   8.174   5.532   7.353  1.2406  1.8443 -1.3828
  557MOL0     H73465   8.336   5.378   7.243  1.4504 -0.1952 -0.1484
  557MOL0     H73466   8.196   5.284   7.178 -1.6703  0.3485  1.6466
  557MOL0     H73467   8.225   5.337   7.478  1.1467  1.6389 -1.4755
  557MOL0     H73468   8.160   5.192   7.392  0.1389 -0.3065 -4.1731
  557MOL0     H73469   8.337   5.108   7.490  2.8771 -0.6910  0.0643
  557MOL0     H73470   8.445   5.248   7.442  1.0013  0.2589 -1.5571
  557MOL0     H73471   8.431   5.180   7.220 -1.4368  1.5376  1.8935
  557MOL0     H73472   8.327   5.038   7.262 -0.6115 -0.1227 -0.5227
  557MOL0     H73473   8.615   5.077   7.340  0.1247 -2.9314  1.4196
  557MOL0     H73474   8.499   4.947   7.383 -0.1718 -0.5622 -0.3492
  557MOL0     H73475   8.459   4.967   7.109 -2.0732  0.5007  1.4088
  557MOL0     H73476   8.527   4.826   7.186 -1.6268 -0.7722 -1.7794
  557MOL0     H73477   8.832   4.976   7.247 -3.5446 -2.7235  0.9882
  557MOL0     H73478   8.995   5.175   7.172  0.9288  0.4485 -0.7968
  557MOL0     H73479   9.029   5.215   7.001  0.1295 -1.0132 -2.9966
  557MOL0     H73480   9.208   5.078   7.068  1.3840 -0.7264  0.8588
  557MOL0     H73481   9.092   4.970   6.979 -2.1223  2.0707 -0.8519
  557MOL0     H73482   9.117   5.022   7.275 -1.9204 -0.6740  0.6579
  557MOL0     H73483   9.033   4.888   7.218 -1.1127  1.9813  1.2794
  557MOL0     H73484   9.337   4.930   7.211 -1.2770  0.9794  4.0441
  557MOL0     H73485   9.248   4.803   7.114  3.3905  0.5455 -0.3551
  557MOL0     H73486   9.292   4.545   7.278  1.6232 -1.5736 -2.6429
  557MOL0     H73487   9.476   4.415   7.341 -0.4742  0.7645  0.0403
  557MOL0     H73488   9.987   4.434   7.451  2.4456 -1.4454  0.8158
  557MOL0     H73489  10.149   4.339   7.523 -0.9690  1.7163 -0.9137
  557MOL0     H73490  10.295   4.165   7.553  2.9879  0.9779  1.5132
  557MOL0     H73491  10.352   4.046   7.665  1.1913  0.1491  0.9836
  557MOL0     H73492  10.261   4.315   7.762 -1.0498  0.1727  0.4271
  557MOL0     H73493  10.417   4.289   7.691 -0.4944 -0.5155 -0.4640
  557MOL0     H73494  10.483   4.137   7.871 -0.6208 -1.3150  0.1568
  557MOL0     H73495  10.311   4.130   7.932  0.6639 -1.6067  2.0228
  557MOL0     H73496  10.490   4.375   7.927  0.3339 -0.0035 -0.1749
  557MOL0     H73497  10.340   4.368   8.013  1.9189  1.1342 -0.1026
  557MOL0     H73498  10.480   4.137   8.098 -3.6520  0.0180 -3.0942
  557MOL0     H73499  10.458   4.280   8.195  0.7210 -1.1019  0.3661
  557MOL0     H73500  10.676   4.351   8.070  2.2432 -1.1714  0.5244
  557MOL0     H73501  10.691   4.182   8.001 -0.2486 -2.0894  0.4919
  557MOL0     H73502  10.678   4.258   8.295 -0.5653  0.7128 -1.5231
  557MOL0     H73503  10.684   4.086   8.232  1.2186 -0.7578 -1.4574
  557MOL0     H73504  10.910   4.110   8.170 -0.2821  0.7285  0.1156
  557MOL0     H73505  10.901   4.182   8.333  1.3029  1.8674 -0.1742
  557MOL0     H73506   9.902   4.001   7.671  0.4183  1.6243  2.9994
  557MOL0     H73507   9.703   4.127   7.574  0.2214  1.1898  0.5549
  557MOL0     H73508   9.670   4.774   7.480  0.0360 -0.2950  0.8063
  557MOL0     H73509   9.478   4.901   7.437 -0.0315 -0.4928  0.0406
  557MOL0     H73510   8.206   5.923   7.172  1.6908 -0.8655 -0.3735
  557MOL0     H73511   8.164   6.103   6.984 -0.0573 -0.7674 -1.2673
  557MOL0     H73512   8.024   6.095   6.527 -0.3853  0.0090 -0.6536
  557MOL0     H73513   7.998   6.220   6.331  1.0978 -1.2051  0.0194
  557MOL0     H73514   7.655   6.555   6.325 -0.7763 -0.2437 -1.8847
  557MOL0     H73515   7.751   6.587   6.182 -1.0032 -0.3327 -0.2031
  557MOL0     H73516   7.873   6.601   6.465  1.7406  0.7221 -0.4314
  557MOL0     H73517   7.935   6.639   6.311 -1.2630 -2.3264 -1.6510
  557MOL0     H73518   7.702   6.786   6.435 -1.9592 -1.4678 -0.9038
  557MOL0     H73519   7.765   6.804   6.269  1.9177  0.1091  0.4236
  557MOL0     H73520   7.819   6.960   6.467  3.1792  1.2917 -0.8950
  557MOL0     H73521   7.911   6.832   6.530  2.8112 -0.8341 -2.2387
  557MOL0     H73522   8.211   6.976   6.293 -0.0187 -1.2080 -1.2710
  557MOL0     H73523   7.647   6.415   6.511  1.1536  1.9819 -1.2152
  557MOL0     H73524   7.709   6.312   6.722 -1.4580  1.2851 -0.7185
  558MOL0     O73525  10.386   8.839   5.279  0.1360  0.9129  0.2843
  558MOL0     C73526  10.392   8.944   5.214  0.1232 -0.0462  0.1582
  558MOL0     O73527  10.305   9.044   5.219 -0.1880  0.0810 -0.0071
  558MOL0     C73528  10.187   9.024   5.288 -0.7158  0.3195 -0.7612
  558MOL0     C73529  10.082   8.947   5.241 -0.7463  1.0372 -0.0921
  558MOL0     C73530   9.963   8.935   5.312  0.2284 -0.1428  0.0386
  558MOL0     C73531   9.945   9.021   5.421 -0.2851  0.3625  0.1316
  558MOL0     O73532   9.840   9.015   5.502  0.1080  0.0736 -0.2851
  558MOL0     C73533   9.718   8.964   5.450 -0.1970  0.0277  1.0834
  558MOL0     C73534   9.619   9.014   5.550  0.4086  0.3718  0.5732
  558MOL0     C73535   9.470   8.960   5.505 -1.2679 -0.3909  0.2708
  558MOL0     C73536   9.356   9.025   5.587 -0.1094  0.1667  0.2644
  558MOL0     C73537   9.221   8.987   5.510  0.2411  1.1134 -0.1201
  558MOL0     C73538   9.101   9.049   5.586 -0.3430  0.0697  1.0953
  558MOL0     C73539   8.963   8.995   5.551 -0.9640  0.3866  0.2082
  558MOL0     C73540   8.878   9.023   5.677  0.6011 -0.5001  0.5887
  558MOL0     N73541   8.862   9.164   5.713  0.0711 -0.5093 -0.9067
  558MOL0     C73542   8.856   9.272   5.629 -0.0175  0.0525 -0.3578
  558MOL0     C73543   8.876   9.382   5.707 -0.0117 -0.9098 -0.3575
  558MOL0     C73544   8.867   9.522   5.657 -0.4213  0.0826 -0.2875
  558MOL0     C73545   8.886   9.549   5.508 -0.0799 -0.7459  0.9845
  558MOL0     C73546   8.869   9.690   5.462 -0.2813 -1.2316 -0.6789
  558MOL0     C73547   8.937   9.714   5.325  0.6814  0.8086  0.0028
  558MOL0     O73548   9.076   9.684   5.317 -0.1817  1.2216  0.2816
  558MOL0     C73549   9.146   9.728   5.212 -0.4994 -0.1147 -0.0768
  558MOL0     C73550   9.265   9.661   5.186 -0.1338  0.0352 -0.2547
  558MOL0     C73551   9.347   9.684   5.074 -0.8459 -0.3907 -0.5948
  558MOL0     C73552   9.309   9.773   4.978  0.2278 -0.0736  0.0728
  558MOL0     C73553   9.392   9.802   4.852  0.4148  0.1621  0.6787
  558MOL0     O73554   9.327   9.858   4.746 -0.1746  0.1144  0.7800
  558MOL0     C73555   9.404   9.936   4.656 -0.6456  0.3038  0.2968
  558MOL0     C73556   9.383  10.075   4.656 -0.3541  0.0822 -0.4781
  558MOL0     C73557   9.456  10.158   4.570 -0.6485  1.0384 -0.5325
  558MOL0     C73558   9.524  10.101   4.468  0.3217  0.3957 -0.7100
  558MOL0     O73559   9.596  10.171   4.382 -0.6996 -0.2906  0.3690
  558MOL0     C73560   9.675  10.273   4.456 -0.4075  0.5547 -0.6149
  558MOL0     C73561   9.772  10.336   4.364  0.4863 -0.4383  0.0354
  558MOL0     C73562   9.869  10.416   4.453 -0.1359  0.1904 -0.4186
  558MOL0     C73563   9.908  10.553   4.409 -0.5174 -0.6654  0.5987
  558MOL0     C73564   9.999  10.614   4.513  0.4207 -0.7882 -0.5469
  558MOL0     C73565  10.032  10.752   4.464  0.0306  0.1259 -0.1021
  558MOL0     C73566  10.134  10.833   4.534 -0.4126 -0.1406 -0.5723
  558MOL0     C73567  10.156  10.963   4.455  0.0064 -0.6109  0.1393
  558MOL0    Cl73568  10.276  10.951   4.325  0.6264 -0.2054 -0.5021
  558MOL0     C73569   9.533   9.959   4.460  0.5963 -0.8507 -1.2286
  558MOL0     C73570   9.478   9.874   4.555 -0.6703  0.1166 -0.5017
  558MOL0     O73571   9.504   9.761   4.845  0.0891  0.3927  0.0041
  558MOL0     C73572   9.198   9.851   5.001  0.2258  1.0423  0.4669
  558MOL0     C73573   9.114   9.823   5.110 -0.1563  0.3524 -0.9919
  558MOL0     N73574   8.887   9.342   5.840  0.9851 -0.6791  0.1486
  558MOL0     N73575   8.879   9.218   5.842 -0.0684  1.0101  0.3448
  558MOL0     C73576  10.044   9.108   5.459  0.4249  0.9819  0.2816
  558MOL0     C73577  10.174   9.103   5.400  0.8469 -1.0080 -1.0433
  558MOL0     C73578  10.511   8.962   5.129 -1.6475  0.4013 -0.4058
  558MOL0     C73579  10.614   8.864   5.132  1.2795  0.3578 -0.0392
  558MOL0     C73580  10.736   8.883   5.061 -0.4627  0.2531  0.5069
  558MOL0     C73581  10.746   9.000   4.971 -1.0555 -0.1068  0.4594
  558MOL0     O73582  10.850   9.027   4.887 -0.3058  1.0705 -0.2113
  558MOL0     C73583  10.968   8.955   4.895 -0.1482  0.0261  0.5040
  558MOL0     C73584  11.083   8.999   4.805 -0.6453 -1.4742  0.1018
  558MOL0     C73585  11.164   9.103   4.881  0.2505  1.3364 -0.4664
  558MOL0     C73586  11.294   9.134   4.820 -0.7170 -0.3138  0.8448
  558MOL0     C73587  11.415   9.055   4.861  0.8050  0.2669  0.1731
  558MOL0     C73588  11.506   8.993   4.906 -0.2362  0.1639  0.4139
  558MOL0     C73589  10.648   9.097   4.979  0.5837  0.6620 -0.4262
  558MOL0     C73590  10.529   9.079   5.054  0.0614  0.3730  0.8370
  558MOL0     H73591  10.088   8.887   5.151 -2.4474 -2.2558  1.8150
  558MOL0     H73592   9.886   8.865   5.282  0.8234 -1.6670  1.8456
  558MOL0     H73593   9.726   8.856   5.436  0.9445  0.0638  1.3507
  558MOL0     H73594   9.687   8.999   5.351 -1.2555 -1.7285  0.7607
  558MOL0     H73595   9.607   9.122   5.542 -0.3764  0.2954  0.6641
  558MOL0     H73596   9.647   8.985   5.652  2.6147 -0.3977 -0.1959
  558MOL0     H73597   9.459   8.854   5.529 -1.1703  0.0082  2.2386
  558MOL0     H73598   9.457   8.973   5.397 -1.8592 -0.7127  0.2993
  558MOL0     H73599   9.346   8.986   5.689 -1.5902 -0.3437 -0.0412
  558MOL0     H73600   9.374   9.132   5.590  0.0462  0.2970 -2.5043
  558MOL0     H73601   9.196   8.881   5.522  1.2004  0.7130 -1.4783
  558MOL0     H73602   9.222   9.009   5.403  2.2636 -1.1768 -0.6619
  558MOL0     H73603   9.103   9.154   5.558 -0.3159 -1.0292 -4.0016
  558MOL0     H73604   9.127   9.037   5.691  4.1210  0.3485  0.2023
  558MOL0     H73605   8.924   9.038   5.459 -1.4665 -1.8227 -0.6601
  558MOL0     H73606   8.975   8.887   5.534 -1.7964  0.5941 -2.0067
  558MOL0     H73607   8.911   8.956   5.757 -1.1748 -1.6582  0.3969
  558MOL0     H73608   8.779   8.985   5.649 -0.8211  2.4311  1.2682
  558MOL0     H73609   8.834   9.259   5.524 -2.5151  1.2157 -0.0407
  558MOL0     H73610   8.946   9.582   5.704  1.1592  0.1248 -2.7885
  558MOL0     H73611   8.764   9.544   5.685 -0.4870 -1.7597  1.0703
  558MOL0     H73612   8.817   9.486   5.452  0.9674  0.7606 -2.2474
  558MOL0     H73613   8.987   9.513   5.483  0.0875 -0.4737  1.2627
  558MOL0     H73614   8.762   9.705   5.444 -1.1294 -4.1106  1.2734
  558MOL0     H73615   8.901   9.765   5.534 -1.6878  0.8503 -2.1105
  558MOL0     H73616   8.921   9.817   5.292 -3.2746  0.0752 -0.8823
  558MOL0     H73617   8.881   9.647   5.260  0.9513  1.6930 -1.1883
  558MOL0     H73618   9.285   9.575   5.248  2.5776  0.6784 -0.1139
  558MOL0     H73619   9.437   9.625   5.060 -0.0020  0.4117  1.0749
  558MOL0     H73620   9.319  10.116   4.734 -0.4602 -2.7471  1.0540
  558MOL0     H73621   9.445  10.266   4.572 -3.1245  0.9608 -3.2678
  558MOL0     H73622   9.722  10.208   4.531 -0.4841 -1.2340 -2.0266
  558MOL0     H73623   9.608  10.340   4.510 -2.0901 -1.0939 -0.5448
  558MOL0     H73624   9.708  10.407   4.312 -2.5666 -0.0406  3.8102
  558MOL0     H73625   9.815  10.264   4.294 -2.2560 -3.2515  0.9616
  558MOL0     H73626   9.958  10.354   4.460  0.8570  1.5446 -0.6805
  558MOL0     H73627   9.834  10.424   4.557 -0.2476  6.5423 -0.5356
  558MOL0     H73628   9.959  10.560   4.312  1.1921  0.9167  1.5505
  558MOL0     H73629   9.819  10.617   4.411  1.1920  1.8631  1.1491
  558MOL0     H73630  10.085  10.550   4.536 -0.6410 -1.1513  3.0754
  558MOL0     H73631   9.954  10.614   4.613  2.4042  0.1065  0.4132
  558MOL0     H73632   9.936  10.805   4.468 -0.0101  0.0638 -0.2690
  558MOL0     H73633  10.066  10.753   4.360  0.2600  0.2537 -0.0270
  558MOL0     H73634  10.115  10.857   4.639  1.2765 -1.6290  0.1291
  558MOL0     H73635  10.221  10.769   4.552 -0.7880 -0.3855  0.4227
  558MOL0     H73636  10.200  11.047   4.509 -1.3919  0.4909 -0.3485
  558MOL0     H73637  10.059  11.000   4.419  0.8385  2.5653  0.8989
  558MOL0     H73638   9.586   9.924   4.372  3.1922 -2.0714  0.6826
  558MOL0     H73639   9.516   9.773   4.549  0.6774  0.5924 -0.3205
  558MOL0     H73640   9.168   9.921   4.924 -0.4267 -1.6930 -1.9724
  558MOL0     H73641   9.028   9.887   5.128  1.7509  2.1503  3.0879
  558MOL0     H73642  10.031   9.170   5.547  1.4975  2.0652 -0.3020
  558MOL0     H73643  10.249   9.172   5.440 -0.5625  0.2719 -0.5107
  558MOL0     H73644  10.618   8.778   5.198  0.7719  2.2077  2.6006
  558MOL0     H73645  10.812   8.806   5.064 -0.7702 -0.1572 -1.1785
  558MOL0     H73646  10.945   8.850   4.876 -1.2152 -0.0411  2.0026
  558MOL0     H73647  11.006   8.948   4.997  3.3673 -1.0652 -0.7156
  558MOL0     H73648  11.154   8.922   4.773  0.2392 -0.5415 -0.2377
  558MOL0     H73649  11.037   9.039   4.714  2.9177  2.2776 -0.3346
  558MOL0     H73650  11.185   9.072   4.984  0.8145  1.0510 -0.6631
  558MOL0     H73651  11.101   9.193   4.876 -1.2136  0.2673 -2.8676
  558MOL0     H73652  11.291   9.134   4.710  2.9824  2.2860  0.5151
  558MOL0     H73653  11.318   9.237   4.850 -1.3929 -0.7752  3.1672
  558MOL0     H73654  11.594   8.944   4.943 -0.0703  1.8644  2.4557
  558MOL0     H73655  10.643   9.188   4.920  0.1576  0.7575 -0.2386
  558MOL0     H73656  10.451   9.150   5.028  0.2221  0.4296  0.5143
  559MOL0     O73657   2.332   1.509   7.652 -0.0941 -0.0275 -0.2713
  559MOL0     C73658   2.297   1.618   7.690 -0.0942  0.7806  0.0356
  559MOL0     O73659   2.328   1.665   7.817  0.8626 -0.5288 -0.7041
  559MOL0     C73660   2.426   1.607   7.887 -0.0653  0.7537 -0.7510
  559MOL0     C73661   2.397   1.565   8.015 -0.2789  0.1328  0.4238
  559MOL0     C73662   2.494   1.507   8.097 -0.4944  0.2284  1.0841
  559MOL0     C73663   2.625   1.486   8.045 -0.3037  0.6692  0.5234
  559MOL0     O73664   2.719   1.429   8.125  0.1556 -0.3552  0.0886
  559MOL0     C73665   2.671   1.354   8.234 -0.0675  0.0258  0.3884
  559MOL0     C73666   2.778   1.271   8.287 -0.4276 -0.1305  0.6803
  559MOL0     C73667   2.898   1.356   8.302 -0.3353 -0.8310 -0.4941
  559MOL0     C73668   3.002   1.267   8.373 -0.3465  0.6252  0.2792
  559MOL0     C73669   3.139   1.336   8.407 -0.4108 -0.0343 -0.5139
  559MOL0     C73670   3.225   1.367   8.281  0.6198  0.3917 -0.5099
  559MOL0     C73671   3.344   1.457   8.311  0.5024 -0.2426  0.2515
  559MOL0     C73672   3.283   1.601   8.299 -0.0907  0.2242  0.3122
  559MOL0     N73673   3.364   1.701   8.364 -0.0247  0.2768  0.1300
  559MOL0     C73674   3.322   1.832   8.396  0.3217 -0.1683  0.5793
  559MOL0     C73675   3.429   1.901   8.432  0.5015 -1.3124 -0.2340
  559MOL0     C73676   3.437   2.044   8.481  0.5396  0.4119  0.2270
  559MOL0     C73677   3.391   2.151   8.378  0.6595  0.1041  0.1408
  559MOL0     C73678   3.494   2.175   8.267 -0.3961  0.1893  0.4433
  559MOL0     C73679   3.515   2.050   8.171 -0.3709  0.2263  0.4900
  559MOL0     O73680   3.599   2.091   8.060 -0.9958  0.9047 -0.2691
  559MOL0     C73681   3.742   2.082   8.078 -0.8841  0.5929  0.5774
  559MOL0     C73682   3.816   2.040   8.187  0.9253  0.5183  0.5246
  559MOL0     C73683   3.951   2.010   8.167  0.5825  0.5206  0.8527
  559MOL0     C73684   4.023   2.057   8.054  0.8600  0.3173  0.5829
  559MOL0     C73685   4.165   2.047   8.027 -0.0307  0.1584 -0.0873
  559MOL0     O73686   4.221   1.960   8.104  0.0881 -0.2298  0.3395
  559MOL0     C73687   4.336   1.903   8.083 -0.0139 -0.7259 -0.3835
  559MOL0     C73688   4.388   1.873   7.952  0.3496 -0.1878  0.9396
  559MOL0     C73689   4.512   1.819   7.925  0.0457 -0.6707 -0.2670
  559MOL0     C73690   4.588   1.784   8.035  0.2516 -0.2040 -0.4057
  559MOL0     O73691   4.707   1.726   8.027  0.6259  0.2189  0.6226
  559MOL0     C73692   4.696   1.592   7.989 -0.7863  0.8463  0.3084
  559MOL0     C73693   4.835   1.544   7.936  0.4764  0.2268 -0.8683
  559MOL0     C73694   4.956   1.571   8.027 -0.2404  0.6189 -0.7914
  559MOL0     C73695   5.080   1.493   7.982  0.1334 -0.6436 -0.4181
  559MOL0     C73696   5.176   1.497   8.088 -0.0062 -0.8461  0.4739
  559MOL0     C73697   5.314   1.454   8.046  0.4956  0.1876  1.0626
  559MOL0     C73698   5.320   1.308   8.011 -0.0892  0.1870 -0.4801
  559MOL0     C73699   5.315   1.215   8.135 -0.3278  0.1848  0.4886
  559MOL0    Cl73700   5.389   1.044   8.101 -0.1551 -0.0609 -0.4177
  559MOL0     C73701   4.543   1.808   8.169 -0.1873 -0.0287  0.1181
  559MOL0     C73702   4.429   1.880   8.191 -0.5579 -0.3357  0.9820
  559MOL0     O73703   4.222   2.126   7.959  0.2566 -0.2769  0.0701
  559MOL0     C73704   3.950   2.118   7.957 -0.3096 -0.3563  0.0873
  559MOL0     C73705   3.812   2.119   7.963 -0.1299  0.4543 -0.0934
  559MOL0     N73706   3.535   1.811   8.444 -0.7075  0.1774 -0.8662
  559MOL0     N73707   3.494   1.693   8.409  0.3935 -1.0097  1.0192
  559MOL0     C73708   2.655   1.527   7.918  0.0928 -1.2837 -0.0070
  559MOL0     C73709   2.562   1.602   7.848 -0.5271 -0.1984  0.4735
  559MOL0     C73710   2.209   1.708   7.615 -0.2083 -0.3350  0.1035
  559MOL0     C73711   2.161   1.825   7.663 -0.7296 -0.7340 -0.3403
  559MOL0     C73712   2.076   1.910   7.592  0.2446  0.6727  0.1268
  559MOL0     C73713   2.042   1.881   7.460 -0.0299 -0.6492 -0.5291
  559MOL0     O73714   1.967   1.976   7.394 -0.0846 -0.0018  0.1181
  559MOL0     C73715   1.937   1.953   7.250 -0.3926  0.0725  0.0265
  559MOL0     C73716   1.866   2.086   7.191  0.6747  0.4202  0.2884
  559MOL0     C73717   1.751   2.127   7.286  0.4600  0.0534 -0.1756
  559MOL0     C73718   1.656   2.014   7.329  0.3325  0.4434 -0.0610
  559MOL0     C73719   1.530   2.057   7.401  0.0889 -0.1429  0.2480
  559MOL0     C73720   1.436   2.104   7.469  0.2079  0.7778 -1.4835
  559MOL0     C73721   2.089   1.764   7.405 -0.0144  0.6059 -0.4532
  559MOL0     C73722   2.169   1.680   7.481  0.0417  0.2652 -0.7610
  559MOL0     H73723   2.293   1.570   8.047  0.8001  0.9860  4.4976
  559MOL0     H73724   2.453   1.479   8.194 -2.7076  2.1489  0.8165
  559MOL0     H73725   2.588   1.284   8.222 -0.0874  0.1386 -0.1577
  559MOL0     H73726   2.637   1.432   8.302  0.4352 -2.0413  3.1572
  559MOL0     H73727   2.807   1.183   8.229  3.8914  0.6016  1.3891
  559MOL0     H73728   2.740   1.230   8.381 -2.1537 -0.8006 -0.2768
  559MOL0     H73729   2.884   1.453   8.351 -0.4182 -0.8319 -0.5145
  559MOL0     H73730   2.937   1.380   8.203  0.2815  0.5812  0.0720
  559MOL0     H73731   2.953   1.231   8.464 -1.4172  0.9417 -0.1545
  559MOL0     H73732   3.021   1.181   8.308 -2.7665 -0.4562  0.8648
  559MOL0     H73733   3.206   1.286   8.478  0.4783  0.3908 -1.0306
  559MOL0     H73734   3.108   1.434   8.446  0.3432  1.3750 -3.1786
  559MOL0     H73735   3.168   1.411   8.198 -0.4005 -0.6724 -0.3828
  559MOL0     H73736   3.269   1.275   8.243  0.2899  0.3198 -0.7213
  559MOL0     H73737   3.388   1.436   8.409  1.4342 -2.3177 -0.5750
  559MOL0     H73738   3.427   1.447   8.241  1.5250 -1.2329  1.5551
  559MOL0     H73739   3.183   1.598   8.344  1.4130 -4.7724  4.3179
  559MOL0     H73740   3.282   1.623   8.192 -1.5765  0.4497  0.3534
  559MOL0     H73741   3.226   1.881   8.384  1.4952  1.9472 -0.8022
  559MOL0     H73742   3.532   2.070   8.528  0.3829 -0.4165  1.0159
  559MOL0     H73743   3.370   2.048   8.568  2.8977  1.1427  2.1204
  559MOL0     H73744   3.367   2.246   8.426 -4.1139 -0.6921 -0.1733
  559MOL0     H73745   3.298   2.129   8.325  1.4212  0.3505 -1.3486
  559MOL0     H73746   3.463   2.256   8.201 -1.4125 -1.1703 -0.8337
  559MOL0     H73747   3.590   2.209   8.306  0.6835 -2.6509  0.5469
  559MOL0     H73748   3.425   2.021   8.117  1.6016 -1.0801 -2.2938
  559MOL0     H73749   3.551   1.962   8.225  1.5017  0.4122 -0.3932
  559MOL0     H73750   3.775   2.000   8.279 -3.4699 -2.3321 -2.2983
  559MOL0     H73751   4.006   1.954   8.242 -2.7652 -1.5939  1.9755
  559MOL0     H73752   4.323   1.881   7.866 -1.3749 -0.1498  2.2130
  559MOL0     H73753   4.559   1.817   7.827  0.6174  2.6727 -0.1810
  559MOL0     H73754   4.619   1.584   7.912 -0.9495 -0.7983  0.6152
  559MOL0     H73755   4.677   1.534   8.080 -1.4131 -0.8158 -0.8283
  559MOL0     H73756   4.855   1.602   7.845  2.2570 -0.6832 -1.1004
  559MOL0     H73757   4.831   1.438   7.911 -2.3610  0.9492 -4.2730
  559MOL0     H73758   4.928   1.540   8.128  0.6861 -1.0432 -1.0090
  559MOL0     H73759   4.989   1.675   8.035  3.6836 -0.5793  0.5017
  559MOL0     H73760   5.059   1.388   7.961 -2.1809 -0.8099  2.1188
  559MOL0     H73761   5.128   1.546   7.900  1.1276 -0.3790  0.3071
  559MOL0     H73762   5.122   1.433   8.158 -1.6065 -0.2174 -0.1289
  559MOL0     H73763   5.195   1.592   8.139 -1.6294  0.3174 -0.9747
  559MOL0     H73764   5.396   1.486   8.111  0.4625 -1.4707  1.9668
  559MOL0     H73765   5.338   1.504   7.951 -0.9359  0.6198  0.9000
  559MOL0     H73766   5.243   1.273   7.941 -0.9101  0.0213  0.4731
  559MOL0     H73767   5.415   1.296   7.959 -1.5488 -3.2241 -2.7408
  559MOL0     H73768   5.214   1.194   8.171 -0.2249 -0.9954  0.1174
  559MOL0     H73769   5.366   1.261   8.220 -3.0785  1.4521  1.5743
  559MOL0     H73770   4.603   1.780   8.255 -1.0962  0.4328  0.9229
  559MOL0     H73771   4.402   1.916   8.289  0.0347  0.4907  0.8457
  559MOL0     H73772   4.004   2.149   7.869 -2.4825  0.6047 -0.9900
  559MOL0     H73773   3.746   2.155   7.885 -0.8637 -0.0565  0.2876
  559MOL0     H73774   2.753   1.499   7.878  0.4900 -0.0623  0.0598
  559MOL0     H73775   2.575   1.631   7.744 -2.0497 -1.0266  0.0167
  559MOL0     H73776   2.179   1.865   7.763 -0.0942  0.4588 -0.9153
  559MOL0     H73777   2.041   2.006   7.629 -1.7850  0.0108  0.0271
  559MOL0     H73778   1.873   1.865   7.242 -0.4364  0.2348 -1.8579
  559MOL0     H73779   2.030   1.944   7.193 -1.6667 -2.6753 -1.8584
  559MOL0     H73780   1.941   2.166   7.189  2.2150 -0.8999 -3.7164
  559MOL0     H73781   1.836   2.067   7.088  0.2375  0.2525  0.4431
  559MOL0     H73782   1.691   2.205   7.238  1.7397  0.6939 -0.7774
  559MOL0     H73783   1.779   2.171   7.382 -0.4127 -0.7197  0.4544
  559MOL0     H73784   1.626   1.949   7.247 -3.6189  1.4383  0.3922
  559MOL0     H73785   1.712   1.955   7.402 -0.5561  0.2021  0.4445
  559MOL0     H73786   1.361   2.153   7.529  1.4275  0.1937  0.6000
  559MOL0     H73787   2.073   1.725   7.305 -0.5456 -2.6164  0.7664
  559MOL0     H73788   2.194   1.585   7.435 -3.0670 -0.9777 -0.1677
  560MOL0     O73789  10.684   9.836   5.387 -0.2893 -0.5215 -0.1588
  560MOL0     C73790  10.614   9.925   5.341 -0.2404 -0.3481 -0.5815
  560MOL0     O73791  10.651  10.009   5.245  0.6197  0.0759  0.2403
  560MOL0     C73792  10.728   9.968   5.133  0.9405 -0.0183  0.1967
  560MOL0     C73793  10.801  10.071   5.084  0.3172 -0.3534 -0.1240
  560MOL0     C73794  10.897  10.047   4.975 -0.1848  0.5556  1.0925
  560MOL0     C73795  10.911   9.918   4.923  1.1639 -0.2748  0.4842
  560MOL0     O73796  10.974   9.894   4.803 -0.0681  0.5406  0.4226
  560MOL0     C73797  10.997  10.007   4.704  0.5602  0.0665  0.4873
  560MOL0     C73798  11.035   9.941   4.576  0.1834 -0.2922 -0.3840
  560MOL0     C73799  11.170   9.852   4.585  0.0983 -0.1685 -0.7670
  560MOL0     C73800  11.212   9.803   4.452 -0.5462  0.2789  0.5630
  560MOL0     C73801  11.351   9.739   4.430 -0.9206  0.1511 -0.2255
  560MOL0     C73802  11.469   9.830   4.456 -0.6725  0.7427  0.6308
  560MOL0     C73803  11.605   9.773   4.406 -0.6920  0.0701 -0.3093
  560MOL0     C73804  11.736   9.846   4.455  1.4402 -0.1268 -0.3848
  560MOL0     N73805  11.866   9.815   4.398 -0.7327 -0.4328 -0.0770
  560MOL0     C73806  11.945   9.721   4.451  0.2106 -0.2986 -0.0803
  560MOL0     C73807  12.070   9.728   4.400 -0.0099  0.0586  0.0612
  560MOL0     C73808  12.174   9.646   4.449 -0.6311 -0.3634  0.7345
  560MOL0     C73809  12.148   9.492   4.445  0.2444 -0.1361 -0.0910
  560MOL0     C73810  12.267   9.426   4.506  0.1191 -0.3304 -0.0344
  560MOL0     C73811  12.400   9.438   4.434  0.6745  0.0663 -1.5197
  560MOL0     O73812  12.485   9.552   4.469 -0.6257 -0.4056  0.7629
  560MOL0     C73813  12.606   9.556   4.387  1.1723  0.3341 -0.5645
  560MOL0     C73814  12.668   9.440   4.351 -1.1233 -0.3374 -0.2283
  560MOL0     C73815  12.773   9.439   4.270 -0.2310 -0.0428 -0.2683
  560MOL0     C73816  12.828   9.555   4.215  0.2037 -0.1973  0.2765
  560MOL0     C73817  12.957   9.550   4.154 -0.8307  0.0468  0.2233
  560MOL0     O73818  12.995   9.659   4.091  0.2097  0.8550 -0.4611
  560MOL0     C73819  13.124   9.671   4.049 -0.0663 -0.1093 -0.1814
  560MOL0     C73820  13.169   9.580   3.954  0.3068  1.0204 -0.5699
  560MOL0     C73821  13.303   9.578   3.914  0.7994  0.1514 -1.1820
  560MOL0     C73822  13.393   9.666   3.973 -0.0684  0.0955  0.6485
  560MOL0     O73823  13.515   9.679   3.910  0.2031 -0.2877 -0.1215
  560MOL0     C73824  13.577   9.555   3.861  1.0329  0.6305  0.7257
  560MOL0     C73825  13.730   9.577   3.850 -0.4890 -1.1714 -0.1759
  560MOL0     C73826  13.789   9.456   3.785 -0.2720 -0.2245  0.3793
  560MOL0     C73827  13.941   9.456   3.776  0.0805  0.2669 -0.1095
  560MOL0     C73828  13.994   9.338   3.698 -0.1043 -0.0051  0.3865
  560MOL0     C73829  14.146   9.347   3.691  0.1360 -0.6481 -0.4018
  560MOL0     C73830  14.200   9.471   3.613 -0.5713  0.2091 -0.3407
  560MOL0     C73831  14.336   9.439   3.546 -0.1936  0.6135 -0.2885
  560MOL0    Cl73832  14.324   9.330   3.404  0.1705 -0.2253 -0.0538
  560MOL0     C73833  13.348   9.759   4.071 -0.0446  0.2397  0.1065
  560MOL0     C73834  13.215   9.762   4.101  0.1535  0.3797 -0.6718
  560MOL0     O73835  13.011   9.443   4.162  0.5059 -0.4301  0.5130
  560MOL0     C73836  12.765   9.678   4.251  0.0696 -0.6605 -0.3448
  560MOL0     C73837  12.650   9.670   4.336 -0.3235  0.2857 -0.0079
  560MOL0     N73838  12.056   9.831   4.308  0.4737  0.0033  0.2399
  560MOL0     N73839  11.938   9.877   4.305  0.2487  0.1523 -0.0609
  560MOL0     C73840  10.839   9.815   4.982  0.0977 -0.3106  0.2564
  560MOL0     C73841  10.745   9.836   5.085 -0.0588  0.7519 -0.1392
  560MOL0     C73842  10.465   9.925   5.387 -0.8442 -0.6840  0.3042
  560MOL0     C73843  10.421   9.849   5.496  0.1241 -0.1912  0.3491
  560MOL0     C73844  10.306   9.862   5.561  0.1574 -0.5872  0.9728
  560MOL0     C73845  10.218   9.955   5.512  0.2962 -0.2190  0.0577
  560MOL0     O73846  10.095   9.977   5.572  0.5478  0.5653  0.0902
  560MOL0     C73847  10.053   9.916   5.699  0.8308  0.4151 -0.3479
  560MOL0     C73848   9.929   9.980   5.749  1.1053  0.2231 -0.2165
  560MOL0     C73849   9.883   9.937   5.895  0.3070 -0.1283  0.7230
  560MOL0     C73850   9.743   9.980   5.937  0.2526 -0.9110 -0.3555
  560MOL0     C73851   9.742  10.127   5.946  0.3282 -0.8158  0.6769
  560MOL0     C73852   9.761  10.252   5.951  0.9274  0.2589  0.1433
  560MOL0     C73853  10.251  10.028   5.402  0.0968  0.1218 -0.2777
  560MOL0     C73854  10.375  10.020   5.337 -0.7962 -0.5732 -0.2248
  560MOL0     H73855  10.794  10.168   5.132 -0.3755  0.5568 -1.9968
  560MOL0     H73856  10.948  10.122   4.916 -0.6844  0.9956  1.2136
  560MOL0     H73857  11.079  10.072   4.738  0.2047  1.1983 -0.7420
  560MOL0     H73858  10.907  10.070   4.699  1.3305  1.2192  0.5865
  560MOL0     H73859  11.039  10.018   4.498 -5.1474  1.1348  0.3939
  560MOL0     H73860  10.946   9.883   4.553 -0.7652  1.4475 -1.3256
  560MOL0     H73861  11.150   9.762   4.645 -0.7344 -0.4362 -1.4300
  560MOL0     H73862  11.251   9.900   4.640 -0.1759 -0.5805  0.0137
  560MOL0     H73863  11.148   9.718   4.424  1.6428 -1.3947  0.3227
  560MOL0     H73864  11.194   9.884   4.381  1.4807 -1.7016 -2.4536
  560MOL0     H73865  11.349   9.716   4.323 -1.6800 -0.3668 -0.1118
  560MOL0     H73866  11.366   9.644   4.483  1.5102 -0.3677 -1.6870
  560MOL0     H73867  11.469   9.860   4.562 -2.4864  3.6479 -0.0670
  560MOL0     H73868  11.449   9.919   4.396 -2.0173  1.7060  2.3944
  560MOL0     H73869  11.614   9.671   4.443 -1.8945  1.0884  3.3244
  560MOL0     H73870  11.608   9.787   4.298  0.5351  1.3003 -0.1511
  560MOL0     H73871  11.740   9.832   4.564 -0.0855  2.0511  0.0447
  560MOL0     H73872  11.730   9.955   4.444  0.6460  0.2262  2.6513
  560MOL0     H73873  11.910   9.651   4.527 -0.6688 -1.4884 -1.5143
  560MOL0     H73874  12.203   9.665   4.553 -3.1885 -0.8531  1.6156
  560MOL0     H73875  12.259   9.658   4.381 -0.5201  1.1532  1.1102
  560MOL0     H73876  12.133   9.453   4.344  2.9553  0.7371 -0.9253
  560MOL0     H73877  12.057   9.464   4.498 -0.7161 -1.2998 -2.2485
  560MOL0     H73878  12.273   9.468   4.607 -1.4471 -1.2790  0.4886
  560MOL0     H73879  12.243   9.321   4.522  0.8396 -0.7310 -1.4401
  560MOL0     H73880  12.384   9.439   4.326 -1.3728  5.6834 -1.4860
  560MOL0     H73881  12.448   9.342   4.458  0.6382  0.4412  0.1743
  560MOL0     H73882  12.636   9.337   4.367  0.0382 -1.2473 -3.0122
  560MOL0     H73883  12.820   9.347   4.235  0.9553 -0.3881  1.9988
  560MOL0     H73884  13.103   9.509   3.905  0.8058  2.0649 -2.8781
  560MOL0     H73885  13.312   9.514   3.826 -2.5469 -2.0568 -0.0994
  560MOL0     H73886  13.537   9.547   3.760 -1.6199 -1.6115  1.8249
  560MOL0     H73887  13.554   9.456   3.902 -2.4735 -0.9167 -4.1100
  560MOL0     H73888  13.766   9.579   3.953  0.4573  1.9811 -0.4880
  560MOL0     H73889  13.751   9.673   3.803  0.8582 -1.6470 -0.5811
  560MOL0     H73890  13.755   9.448   3.681  1.7763  0.6077 -0.3892
  560MOL0     H73891  13.754   9.373   3.847 -1.0420 -0.8301 -0.7992
  560MOL0     H73892  13.978   9.550   3.735  3.5933 -0.7915  0.2912
  560MOL0     H73893  13.990   9.440   3.873  0.3286 -1.2600 -0.4637
  560MOL0     H73894  13.951   9.328   3.598 -0.6455 -2.2008  0.7913
  560MOL0     H73895  13.975   9.242   3.746 -2.2358  0.0459 -0.2467
  560MOL0     H73896  14.177   9.270   3.619 -4.8418 -2.9065 -0.5313
  560MOL0     H73897  14.191   9.336   3.790  0.4545  0.4024 -0.4168
  560MOL0     H73898  14.123   9.496   3.540 -0.8155  0.1693 -0.0987
  560MOL0     H73899  14.217   9.563   3.670 -1.4205  1.0504 -1.4170
  560MOL0     H73900  14.392   9.388   3.625 -0.3994 -2.2332 -1.8347
  560MOL0     H73901  14.385   9.532   3.517 -2.5484  1.2615 -2.5956
  560MOL0     H73902  13.416   9.823   4.127 -1.0300  0.8943  0.5701
  560MOL0     H73903  13.179   9.847   4.158 -0.3382  0.3215 -0.8827
  560MOL0     H73904  12.816   9.771   4.228 -1.8662  1.0157  1.5605
  560MOL0     H73905  12.615   9.766   4.372  1.4301  0.5657  1.1251
  560MOL0     H73906  10.867   9.714   4.951  3.0508  0.3166  0.5802
  560MOL0     H73907  10.685   9.754   5.125 -3.5396  1.5481 -3.2080
  560MOL0     H73908  10.498   9.786   5.539  3.1635  0.2939 -3.7947
  560MOL0     H73909  10.282   9.805   5.651  0.2979  1.4205  2.3478
  560MOL0     H73910  10.132   9.928   5.774  1.3660  3.6737 -1.3082
  560MOL0     H73911  10.040   9.807   5.689  1.4983  0.0676  2.0652
  560MOL0     H73912   9.956  10.085   5.733  2.5522 -0.2554 -1.1418
  560MOL0     H73913   9.843   9.959   5.686  0.0561  0.9416  0.9273
  560MOL0     H73914   9.965   9.972   5.957  0.2108  0.5543  0.4797
  560MOL0     H73915   9.887   9.831   5.870 -1.3149  0.0985 -0.7490
  560MOL0     H73916   9.672   9.956   5.857  0.7713  3.3079 -2.3508
  560MOL0     H73917   9.708   9.941   6.033 -2.3181  0.0904 -0.7938
  560MOL0     H73918   9.782  10.356   5.940  5.1181 -0.2374  1.3781
  560MOL0     H73919  10.187  10.104   5.358 -0.7972 -1.0747 -1.0959
  560MOL0     H73920  10.393  10.081   5.250  0.0933  0.9971  1.0027
  561MOL0     O73921   8.261   8.754   6.578 -0.1525 -0.0645 -0.0449
  561MOL0     C73922   8.358   8.710   6.635  0.6198  0.5263 -0.5021
  561MOL0     O73923   8.356   8.586   6.707  0.5459  0.2006  0.0172
  561MOL0     C73924   8.228   8.527   6.712 -0.6052 -0.3176  0.5199
  561MOL0     C73925   8.118   8.596   6.758  0.1669  0.1160 -0.8213
  561MOL0     C73926   7.996   8.529   6.767 -0.2016  0.1748 -0.2466
  561MOL0     C73927   7.977   8.401   6.719 -0.1605 -0.5582 -0.4041
  561MOL0     O73928   7.854   8.345   6.765 -0.1224 -0.3720  0.7166
  561MOL0     C73929   7.852   8.213   6.817 -0.4937  0.9440 -0.4552
  561MOL0     C73930   7.707   8.188   6.858  0.4404 -0.0027 -0.6146
  561MOL0     C73931   7.658   8.045   6.822  0.2321  0.6418  1.0393
  561MOL0     C73932   7.751   7.937   6.882  0.4277  0.4695 -0.1306
  561MOL0     C73933   7.736   7.798   6.812 -0.3020 -0.1852  0.3962
  561MOL0     C73934   7.827   7.703   6.894  0.0515 -0.6183  0.3847
  561MOL0     C73935   7.866   7.572   6.822 -0.4887  0.7657  0.1130
  561MOL0     C73936   7.930   7.461   6.917  1.1704  0.2542  0.5701
  561MOL0     N73937   7.956   7.345   6.831 -0.0495  0.2734 -0.0096
  561MOL0     C73938   8.075   7.327   6.762  0.1077 -0.1879 -0.1370
  561MOL0     C73939   8.060   7.201   6.707  0.2510 -0.2863  0.2433
  561MOL0     C73940   8.171   7.127   6.622 -0.2156  0.9958 -1.0837
  561MOL0     C73941   8.185   6.982   6.670 -0.9086  0.3464 -0.0113
  561MOL0     C73942   8.228   6.982   6.813  0.7519  0.2257 -0.4780
  561MOL0     C73943   8.300   6.849   6.857 -0.3454 -0.5341 -0.2611
  561MOL0     O73944   8.322   6.865   7.001 -0.3990 -0.8965  0.4293
  561MOL0     C73945   8.413   6.952   7.054  0.0132 -0.1175 -0.5005
  561MOL0     C73946   8.382   7.017   7.182  0.0016  0.8108 -0.8379
  561MOL0     C73947   8.469   7.110   7.246  0.1297  0.7614 -0.3094
  561MOL0     C73948   8.592   7.144   7.192  0.4732  0.7697 -0.0207
  561MOL0     C73949   8.686   7.232   7.260  0.3451 -0.6878 -1.4740
  561MOL0     O73950   8.792   7.290   7.193 -0.3619  0.2051 -0.0005
  561MOL0     C73951   8.897   7.359   7.253  0.3682  0.1395 -0.3254
  561MOL0     C73952   8.968   7.448   7.169 -0.7194 -0.1768  0.2758
  561MOL0     C73953   9.076   7.518   7.222  0.3346 -0.7557 -0.1586
  561MOL0     C73954   9.133   7.474   7.340 -0.4143 -0.0802  0.2179
  561MOL0     O73955   9.257   7.519   7.392  0.0732 -0.2434  0.0303
  561MOL0     C73956   9.261   7.667   7.387 -0.1549  0.4184 -0.4781
  561MOL0     C73957   9.348   7.713   7.505  0.0131  0.2624 -0.0524
  561MOL0     C73958   9.305   7.692   7.645  0.2683 -0.4160  0.9090
  561MOL0     C73959   9.170   7.751   7.698 -0.0167  0.1103  0.4866
  561MOL0     C73960   9.090   7.674   7.806  0.2972 -0.4289 -0.6292
  561MOL0     C73961   9.017   7.558   7.774  0.2146 -0.0770  0.3081
  561MOL0     C73962   8.894   7.591   7.680 -0.4298  0.3139 -0.0578
  561MOL0     C73963   8.772   7.520   7.740  0.2993  0.3799  0.1600
  561MOL0    Cl73964   8.814   7.339   7.755  0.6048  0.5239 -0.2947
  561MOL0     C73965   9.068   7.382   7.417 -0.7533 -0.6391 -0.5575
  561MOL0     C73966   8.953   7.319   7.377 -0.6860  0.3826  0.8392
  561MOL0     O73967   8.658   7.261   7.377  0.0660  0.0285 -0.0414
  561MOL0     C73968   8.625   7.082   7.073 -1.1685  0.6760  0.6959
  561MOL0     C73969   8.547   6.984   7.002  0.0055 -1.3687  0.4630
  561MOL0     N73970   7.933   7.157   6.725 -0.1047 -0.0498 -0.3781
  561MOL0     N73971   7.878   7.238   6.811  0.2900  0.4485  1.2220
  561MOL0     C73972   8.082   8.336   6.663  0.3720 -0.5265  0.2928
  561MOL0     C73973   8.209   8.396   6.660  0.1370 -0.2940 -0.6057
  561MOL0     C73974   8.491   8.784   6.629 -0.2029  0.1392 -0.0943
  561MOL0     C73975   8.499   8.923   6.596  0.2267 -0.1146 -0.4373
  561MOL0     C73976   8.627   8.987   6.586  0.4471 -0.8876 -0.6121
  561MOL0     C73977   8.754   8.924   6.625  0.0315  0.0633 -0.0685
  561MOL0     O73978   8.868   9.003   6.640 -0.6611 -0.1469  0.4623
  561MOL0     C73979   8.990   8.940   6.685  0.5818  0.9129 -0.7743
  561MOL0     C73980   9.093   9.059   6.681 -0.7727  0.7160  0.5620
  561MOL0     C73981   9.118   9.109   6.534 -0.8393 -0.6054  0.1188
  561MOL0     C73982   9.236   9.199   6.515  0.6425  0.3270  0.3672
  561MOL0     C73983   9.221   9.289   6.402  0.3498 -0.2967  0.3047
  561MOL0     C73984   9.231   9.361   6.308  0.0062  1.1575  0.4287
  561MOL0     C73985   8.735   8.790   6.680 -0.3804  0.8211 -1.3022
  561MOL0     C73986   8.617   8.723   6.665 -0.4508 -0.3610 -0.3515
  561MOL0     H73987   8.131   8.693   6.806  0.8928 -0.5136  0.2792
  561MOL0     H73988   7.917   8.575   6.825  1.6186  1.6032  1.2434
  561MOL0     H73989   7.914   8.196   6.905 -0.6721 -1.0080 -0.6676
  561MOL0     H73990   7.882   8.149   6.734 -0.1804  0.5536 -0.0435
  561MOL0     H73991   7.653   8.257   6.794  0.0722 -0.9655 -1.3687
  561MOL0     H73992   7.691   8.195   6.966  1.9568 -3.5831 -0.0145
  561MOL0     H73993   7.642   8.035   6.714 -2.3678 -0.0720  1.4307
  561MOL0     H73994   7.561   8.028   6.870 -0.4003  6.2145  2.3765
  561MOL0     H73995   7.856   7.967   6.882 -0.0549  2.3343  0.6961
  561MOL0     H73996   7.735   7.925   6.990  0.1815  0.8540 -0.1224
  561MOL0     H73997   7.774   7.810   6.710 -4.2996  3.4253 -0.9536
  561MOL0     H73998   7.628   7.781   6.812 -1.1033  3.7033 -2.1421
  561MOL0     H73999   7.775   7.672   6.985 -6.0441  3.0802 -1.2513
  561MOL0     H74000   7.917   7.759   6.920 -0.2319  0.2205 -0.4017
  561MOL0     H74001   7.786   7.529   6.760 -0.4145  0.4244  0.2483
  561MOL0     H74002   7.941   7.599   6.747 -0.1372 -0.6389 -0.0744
  561MOL0     H74003   7.859   7.424   6.991  2.0015 -2.7801 -0.0036
  561MOL0     H74004   8.018   7.502   6.968  2.0396  0.5528 -1.0698
  561MOL0     H74005   8.161   7.393   6.756 -0.0773  0.0246 -0.5490
  561MOL0     H74006   8.269   7.170   6.645  1.2825 -2.9420  0.7821
  561MOL0     H74007   8.163   7.138   6.513 -1.4771 -0.1978 -1.1338
  561MOL0     H74008   8.257   6.926   6.611 -2.4300 -1.9488  0.1773
  561MOL0     H74009   8.090   6.932   6.648  0.8773 -2.7903 -1.0787
  561MOL0     H74010   8.288   7.070   6.840  1.0146 -0.1549  0.1887
  561MOL0     H74011   8.140   6.979   6.877  1.6690 -1.5408  0.7540
  561MOL0     H74012   8.388   6.842   6.793 -0.1060  0.7522 -0.1005
  561MOL0     H74013   8.234   6.766   6.831  1.4838 -1.9103 -0.7016
  561MOL0     H74014   8.282   7.005   7.222  0.1641  0.7428 -0.4508
  561MOL0     H74015   8.431   7.163   7.333 -2.4760 -0.5765 -0.5233
  561MOL0     H74016   8.920   7.482   7.077  0.4105  0.6025 -0.0490
  561MOL0     H74017   9.105   7.597   7.154 -0.1216 -1.8363 -1.6620
  561MOL0     H74018   9.169   7.725   7.398  0.0482  0.7052 -0.2881
  561MOL0     H74019   9.306   7.700   7.293  0.7618  0.6928  0.0450
  561MOL0     H74020   9.370   7.819   7.491  2.1354 -0.0720  0.3583
  561MOL0     H74021   9.445   7.667   7.483 -1.9032 -2.8132 -3.0689
  561MOL0     H74022   9.384   7.724   7.713  1.3233 -0.4763 -0.2554
  561MOL0     H74023   9.318   7.585   7.663 -2.3742 -0.4011  3.8247
  561MOL0     H74024   9.191   7.853   7.732 -2.8551  2.1571 -3.2214
  561MOL0     H74025   9.101   7.749   7.613  0.8190 -2.8836 -0.2490
  561MOL0     H74026   9.020   7.748   7.844  0.6980  0.5057 -1.6524
  561MOL0     H74027   9.165   7.644   7.880 -1.0411 -0.9472  0.5544
  561MOL0     H74028   8.981   7.528   7.873  1.6752 -0.3363  0.7850
  561MOL0     H74029   9.083   7.481   7.732 -0.4761  0.7543 -2.4916
  561MOL0     H74030   8.878   7.699   7.689  1.3946  0.4777  2.0355
  561MOL0     H74031   8.904   7.546   7.581 -1.4584  0.1589 -0.1074
  561MOL0     H74032   8.684   7.533   7.675  0.3122 -0.9402 -0.1537
  561MOL0     H74033   8.753   7.555   7.842  3.4377  0.3538  0.8288
  561MOL0     H74034   9.115   7.355   7.511  0.0730  1.4923 -0.3066
  561MOL0     H74035   8.913   7.236   7.435  1.2029 -0.7566  0.5866
  561MOL0     H74036   8.724   7.098   7.030 -2.6773  3.2223 -2.2269
  561MOL0     H74037   8.581   6.943   6.907  3.3043  3.0199 -0.5445
  561MOL0     H74038   8.088   8.234   6.626  0.0217 -0.5069  0.1776
  561MOL0     H74039   8.294   8.337   6.628  0.7004 -0.1502  0.5876
  561MOL0     H74040   8.405   8.973   6.579 -0.4471 -0.7199  1.3674
  561MOL0     H74041   8.631   9.090   6.552 -1.5334  0.4362  2.6080
  561MOL0     H74042   9.020   8.853   6.626 -3.3574 -0.4863 -1.0444
  561MOL0     H74043   8.975   8.902   6.786  1.7793  2.5593  0.0541
  561MOL0     H74044   9.065   9.150   6.734 -0.4551  0.0880  1.8486
  561MOL0     H74045   9.188   9.016   6.715  0.7365 -1.3186 -5.1015
  561MOL0     H74046   9.028   9.165   6.507 -1.1154 -0.6079  0.9879
  561MOL0     H74047   9.121   9.024   6.465 -0.9781 -1.4744  1.1607
  561MOL0     H74048   9.256   9.265   6.600  1.1297  0.9857 -0.2559
  561MOL0     H74049   9.322   9.132   6.503  1.0554  0.7154  1.1083
  561MOL0     H74050   9.253   9.446   6.246  1.3675  1.4183  1.2358
  561MOL0     H74051   8.806   8.742   6.747 -1.0136  1.3153 -0.2498
  561MOL0     H74052   8.613   8.630   6.720  0.5464 -0.2508 -0.0581
  562MOL0     O74053   5.877   1.286   9.866 -0.1730 -0.1136  0.1476
  562MOL0     C74054   5.760   1.275   9.843 -0.4479 -0.6996 -0.7077
  562MOL0     O74055   5.701   1.197   9.745 -0.2608 -0.4377  0.4393
  562MOL0     C74056   5.780   1.149   9.641  0.4413  0.1315  0.2561
  562MOL0     C74057   5.742   1.023   9.595  0.0723  0.2465  0.1531
  562MOL0     C74058   5.816   0.978   9.484 -0.3799  0.5245  0.9489
  562MOL0     C74059   5.932   1.044   9.433 -0.0995  0.1713  0.5290
  562MOL0     O74060   6.000   0.994   9.327 -0.1872  0.1214  0.7464
  562MOL0     C74061   6.013   1.085   9.216  0.3176  0.5238  0.5361
  562MOL0     C74062   6.160   1.126   9.207 -0.7221 -0.0396 -0.5812
  562MOL0     C74063   6.165   1.257   9.139  0.0110 -0.0320 -0.3458
  562MOL0     C74064   6.313   1.303   9.102  1.2490  0.2392  0.2273
  562MOL0     C74065   6.348   1.449   9.094 -0.1815  0.0396 -0.3255
  562MOL0     C74066   6.489   1.462   9.060 -0.8013  0.0553 -0.5204
  562MOL0     C74067   6.549   1.610   9.084 -0.0070 -0.1384 -0.1241
  562MOL0     C74068   6.698   1.601   9.070 -0.9682 -0.3433  0.2593
  562MOL0     N74069   6.740   1.640   8.938 -0.1050 -0.4184  0.0133
  562MOL0     C74070   6.723   1.571   8.822  0.3159 -0.6762  0.7886
  562MOL0     C74071   6.773   1.657   8.730  1.4170  0.4595  0.3400
  562MOL0     C74072   6.736   1.672   8.586 -0.4587  0.7018  0.6237
  562MOL0     C74073   6.813   1.549   8.526 -0.9529  0.6332  1.1525
  562MOL0     C74074   6.796   1.551   8.374  0.4816 -0.2966  0.0069
  562MOL0     C74075   6.649   1.567   8.332 -0.7469  0.7840 -0.1374
  562MOL0     O74076   6.632   1.528   8.189 -0.1022  0.1810  0.1035
  562MOL0     C74077   6.504   1.523   8.142 -0.0043  0.0514  0.3424
  562MOL0     C74078   6.393   1.576   8.210 -0.3879  0.1825  0.3117
  562MOL0     C74079   6.263   1.563   8.175  1.1992 -0.2504 -0.0271
  562MOL0     C74080   6.234   1.529   8.041 -0.9689  0.6572  0.2799
  562MOL0     C74081   6.104   1.538   7.988 -0.1281  0.8903  0.7390
  562MOL0     O74082   6.079   1.477   7.866  0.5207  0.0071 -0.5319
  562MOL0     C74083   5.949   1.470   7.822  0.2330  0.0370  0.8714
  562MOL0     C74084   5.894   1.595   7.791  0.2622  0.8185  0.3352
  562MOL0     C74085   5.756   1.597   7.754  0.3773 -0.8320  1.2238
  562MOL0     C74086   5.677   1.477   7.746 -0.0259  0.4360 -0.5537
  562MOL0     O74087   5.560   1.495   7.686  0.7938 -0.7249  0.5948
  562MOL0     C74088   5.499   1.381   7.616 -0.3909  0.3379 -0.4820
  562MOL0     C74089   5.354   1.407   7.616  0.9625  1.0405 -0.0003
  562MOL0     C74090   5.314   1.524   7.523 -0.2524  0.7313  0.0812
  562MOL0     C74091   5.171   1.566   7.568  0.0606  0.1553 -0.4410
  562MOL0     C74092   5.095   1.611   7.439  0.3828 -0.2215 -0.3095
  562MOL0     C74093   4.944   1.639   7.470 -0.0371 -0.3147  1.0574
  562MOL0     C74094   4.932   1.765   7.543 -0.0130 -0.7177  0.7477
  562MOL0     C74095   4.784   1.777   7.586 -0.5821  0.2292  0.6428
  562MOL0    Cl74096   4.671   1.766   7.449 -0.3442 -0.2733  0.0730
  562MOL0     C74097   5.739   1.358   7.769 -0.4412 -0.6547 -0.8263
  562MOL0     C74098   5.875   1.355   7.810  0.5342  0.1608 -0.1377
  562MOL0     O74099   6.023   1.607   8.054 -0.3003 -0.6832  0.4665
  562MOL0     C74100   6.345   1.475   7.971  0.0679 -0.1827 -0.2722
  562MOL0     C74101   6.475   1.463   8.020 -0.2670  0.3446  0.3169
  562MOL0     N74102   6.842   1.763   8.792  0.4239  0.6600  0.1952
  562MOL0     N74103   6.815   1.754   8.914 -0.3683  0.2527  0.2435
  562MOL0     C74104   5.962   1.170   9.479 -0.2984  0.1083  0.1403
  562MOL0     C74105   5.888   1.227   9.584  0.0684  0.5721  0.1952
  562MOL0     C74106   5.659   1.364   9.922 -0.0792  0.3465  0.5561
  562MOL0     C74107   5.692   1.447  10.028 -0.5080 -0.1303 -0.2766
  562MOL0     C74108   5.582   1.510  10.103 -0.2817 -0.2889  0.7425
  562MOL0     C74109   5.445   1.494  10.070 -0.1456 -0.1807  0.2090
  562MOL0     O74110   5.351   1.572  10.137 -0.2879  0.4429 -1.0544
  562MOL0     C74111   5.249   1.638  10.063 -0.0574  0.9794  0.7679
  562MOL0     C74112   5.216   1.771  10.132 -0.6875  1.7876 -1.0180
  562MOL0     C74113   5.103   1.857  10.062  0.2313 -0.1933 -0.3465
  562MOL0     C74114   5.119   2.012  10.085  0.3339  0.0330 -0.2266
  562MOL0     C74115   5.235   2.062  10.008  0.1538  0.4040 -0.3010
  562MOL0     C74116   5.323   2.109   9.942  0.1680 -0.2473  0.5313
  562MOL0     C74117   5.409   1.415   9.955 -0.3795 -0.0330 -0.8131
  562MOL0     C74118   5.514   1.351   9.891 -1.2648 -0.0099  0.5059
  562MOL0     H74119   5.662   0.970   9.646 -2.8531  1.0110 -3.2402
  562MOL0     H74120   5.780   0.903   9.414 -0.3179  3.8641 -3.1029
  562MOL0     H74121   5.941   1.166   9.229  1.1483  0.8982  3.3749
  562MOL0     H74122   5.990   1.040   9.118  5.0901  2.8793 -1.9912
  562MOL0     H74123   6.216   1.046   9.157  0.0453  0.8307 -1.1552
  562MOL0     H74124   6.207   1.143   9.304 -1.5642  1.6087 -0.4386
  562MOL0     H74125   6.132   1.339   9.204  0.4016  0.4648 -0.7580
  562MOL0     H74126   6.096   1.266   9.055 -0.7346 -2.6111 -0.0942
  562MOL0     H74127   6.371   1.277   9.191  0.2752  1.0284  1.1218
  562MOL0     H74128   6.338   1.240   9.016  4.5324  1.1644  0.3918
  562MOL0     H74129   6.314   1.494   9.188 -2.3373 -1.2709 -0.4058
  562MOL0     H74130   6.288   1.502   9.019  0.2081  2.9526  1.2447
  562MOL0     H74131   6.511   1.447   8.954  0.3997 -2.0394 -0.0398
  562MOL0     H74132   6.546   1.384   9.112 -1.4210 -1.7442 -2.3809
  562MOL0     H74133   6.513   1.677   9.005  2.9449  0.9009 -0.7116
  562MOL0     H74134   6.524   1.654   9.181 -0.3921 -0.5800 -0.0192
  562MOL0     H74135   6.732   1.499   9.092  0.8061 -0.0705 -1.0324
  562MOL0     H74136   6.724   1.682   9.138 -0.6185  0.2482 -0.5696
  562MOL0     H74137   6.660   1.484   8.805 -0.5849  0.0468  0.2903
  562MOL0     H74138   6.770   1.771   8.554  0.4515  0.5426  1.0809
  562MOL0     H74139   6.627   1.667   8.577 -0.5038  2.4217  0.0180
  562MOL0     H74140   6.767   1.455   8.558 -0.2859 -0.0494  0.1787
  562MOL0     H74141   6.917   1.545   8.562 -0.9464 -0.3712  1.0646
  562MOL0     H74142   6.851   1.634   8.331 -1.1031  0.1830 -1.1881
  562MOL0     H74143   6.840   1.463   8.326  0.1597 -0.3615 -0.1755
  562MOL0     H74144   6.613   1.668   8.353 -1.2701  0.5785 -0.0275
  562MOL0     H74145   6.600   1.496   8.399  0.6498  1.7946  2.0465
  562MOL0     H74146   6.417   1.614   8.309  1.6083 -1.2224  0.4316
  562MOL0     H74147   6.186   1.594   8.245  5.2641  0.3107  4.8612
  562MOL0     H74148   5.946   1.688   7.810 -3.5402  2.5506  4.2022
  562MOL0     H74149   5.711   1.692   7.730  2.7098  0.4902  1.7521
  562MOL0     H74150   5.505   1.289   7.675 -2.9123  1.7338  2.2705
  562MOL0     H74151   5.545   1.359   7.519  1.3395 -0.3541  0.4486
  562MOL0     H74152   5.321   1.415   7.720 -2.7597 -1.1164 -0.8440
  562MOL0     H74153   5.302   1.323   7.569 -0.7231  1.2282  1.4205
  562MOL0     H74154   5.310   1.495   7.417 -3.4453 -0.6712  0.4807
  562MOL0     H74155   5.381   1.610   7.529 -2.5604  2.5497  1.5297
  562MOL0     H74156   5.131   1.475   7.614 -0.2979 -0.0484 -1.1423
  562MOL0     H74157   5.163   1.652   7.635 -2.2721 -1.7649  1.9414
  562MOL0     H74158   5.099   1.517   7.383 -2.3221 -0.5106 -0.1567
  562MOL0     H74159   5.143   1.694   7.387  3.6410 -0.6982  1.6495
  562MOL0     H74160   4.905   1.554   7.526 -0.4979 -0.7368  0.1172
  562MOL0     H74161   4.890   1.637   7.375  0.8961 -1.9034  0.5128
  562MOL0     H74162   4.987   1.782   7.635 -0.3372  2.7611  0.4347
  562MOL0     H74163   4.955   1.852   7.481  1.0365 -0.4786  1.4510
  562MOL0     H74164   4.779   1.875   7.633 -0.8512 -0.7831  2.8771
  562MOL0     H74165   4.767   1.697   7.659  0.4244 -0.9114 -0.3359
  562MOL0     H74166   5.690   1.264   7.747  0.3274 -1.3593  0.2980
  562MOL0     H74167   5.932   1.264   7.824  0.6016  0.3125  0.6068
  562MOL0     H74168   6.329   1.429   7.874  1.7639 -2.1064  0.2805
  562MOL0     H74169   6.563   1.427   7.969 -1.4557  0.5814 -2.0531
  562MOL0     H74170   6.049   1.230   9.451  1.5403 -1.8988  1.2608
  562MOL0     H74171   5.907   1.324   9.627  0.3743 -0.5609  2.7859
  562MOL0     H74172   5.796   1.449  10.060 -0.7091 -0.8593  0.4814
  562MOL0     H74173   5.597   1.559  10.198 -3.6713 -0.0930  1.3139
  562MOL0     H74174   5.160   1.574  10.070  0.7767 -0.1509  1.4519
  562MOL0     H74175   5.273   1.673   9.962 -1.9353  1.4193  0.4391
  562MOL0     H74176   5.181   1.742  10.232  1.2427 -1.9100 -1.2481
  562MOL0     H74177   5.303   1.835  10.149 -0.8006  1.8514 -0.6727
  562MOL0     H74178   5.011   1.833  10.116  0.5124 -1.1162 -0.2629
  562MOL0     H74179   5.081   1.832   9.958 -1.5001  1.7942 -0.5282
  562MOL0     H74180   5.028   2.055  10.040  1.9234  1.2278 -2.5049
  562MOL0     H74181   5.121   2.051  10.187  0.1511  1.7910 -0.8733
  562MOL0     H74182   5.414   2.155   9.909  0.5930 -0.9089  0.7554
  562MOL0     H74183   5.309   1.396   9.918 -0.9134 -0.4975  0.7940
  562MOL0     H74184   5.491   1.287   9.807 -1.5600  0.1980  0.4249
  563MOL0     O74185   7.827   4.610   0.181  0.9568  0.3039 -0.1380
  563MOL0     C74186   7.828   4.498   0.129 -0.6814  0.5531 -0.7639
  563MOL0     O74187   7.940   4.430   0.097  0.4878  0.3080 -0.4405
  563MOL0     C74188   8.060   4.497   0.082  0.7460 -0.0148 -0.7953
  563MOL0     C74189   8.073   4.612   0.000  0.6907 -0.1438 -0.3565
  563MOL0     C74190   8.197   4.676  -0.019 -0.9132  1.2522  0.7632
  563MOL0     C74191   8.312   4.614   0.031  0.2691 -0.7697 -0.0469
  563MOL0     O74192   8.439   4.649  -0.001 -0.2075  0.1070 -0.7424
  563MOL0     C74193   8.451   4.771  -0.066  0.2105  0.2981  0.6751
  563MOL0     C74194   8.593   4.795  -0.108 -0.6166 -0.0585 -0.4935
  563MOL0     C74195   8.674   4.864  -0.001  0.1391 -0.2758  0.3665
  563MOL0     C74196   8.826   4.892  -0.029 -0.0675 -0.1017  0.7325
  563MOL0     C74197   8.896   4.994   0.064  0.2703  0.5710 -1.1751
  563MOL0     C74198   8.931   4.945   0.196  0.1217 -0.0036 -0.4976
  563MOL0     C74199   8.886   5.037   0.308  0.0904 -0.1623  0.3881
  563MOL0     C74200   8.944   5.185   0.303 -0.2906 -0.4615 -0.3379
  563MOL0     N74201   9.087   5.183   0.344  0.3015  0.3614  0.6736
  563MOL0     C74202   9.149   5.304   0.335  0.1328  0.5741  0.2281
  563MOL0     C74203   9.278   5.273   0.382  0.7739 -0.1604 -0.4113
  563MOL0     C74204   9.381   5.377   0.411  0.1461 -0.7729  0.5491
  563MOL0     C74205   9.525   5.343   0.373 -0.9908 -0.1248 -0.9376
  563MOL0     C74206   9.612   5.463   0.377  0.6026  0.6618  0.2377
  563MOL0     C74207   9.653   5.506   0.238  0.1022  0.0117  0.1249
  563MOL0     O74208   9.544   5.548   0.154 -0.2922  0.4471 -1.5191
  563MOL0     C74209   9.587   5.570   0.024  0.1649 -0.2351 -0.8248
  563MOL0     C74210   9.613   5.701   0.000 -0.3075 -0.0325 -0.5378
  563MOL0     C74211   9.666   5.744  -0.123 -0.4511 -0.2376 -0.3036
  563MOL0     C74212   9.700   5.656  -0.219 -1.6310 -0.7090  0.5769
  563MOL0     C74213   9.762   5.709  -0.339  0.8433  0.5003 -0.3198
  563MOL0     O74214   9.751   5.616  -0.440  0.7281 -0.1218  0.0373
  563MOL0     C74215   9.784   5.643  -0.577 -0.2737  0.2807  0.6339
  563MOL0     C74216   9.730   5.754  -0.643  0.2542  0.3851  1.6522
  563MOL0     C74217   9.781   5.789  -0.774 -0.2563  0.0274 -0.4907
  563MOL0     C74218   9.876   5.701  -0.836 -0.7896 -1.1331 -0.1485
  563MOL0     O74219   9.944   5.726  -0.957  0.1513 -0.1037  0.1745
  563MOL0     C74220   9.976   5.864  -0.994  0.3149  0.3972 -0.4027
  563MOL0     C74221  10.034   5.846  -1.134  0.1613  0.0964  0.7038
  563MOL0     C74222  10.181   5.796  -1.120  0.0904 -0.8434  0.3556
  563MOL0     C74223  10.235   5.785  -1.265 -0.6988  0.8644  0.6877
  563MOL0     C74224  10.387   5.768  -1.263 -0.4137 -0.4046  0.4988
  563MOL0     C74225  10.441   5.646  -1.196 -0.6182 -0.2020 -0.0879
  563MOL0     C74226  10.570   5.591  -1.266 -1.6369  0.0839 -0.8881
  563MOL0     C74227  10.683   5.699  -1.274 -0.2541  0.3682 -0.7713
  563MOL0    Cl74228  10.846   5.641  -1.328 -0.0568 -0.3205 -0.0288
  563MOL0     C74229   9.913   5.585  -0.766  0.2444  0.1206  0.3682
  563MOL0     C74230   9.866   5.551  -0.648 -0.5546 -0.3636 -0.4855
  563MOL0     O74231   9.795   5.826  -0.346  1.0351 -0.5641 -0.3613
  563MOL0     C74232   9.648   5.523  -0.208 -0.2101 -0.9723 -0.0857
  563MOL0     C74233   9.609   5.477  -0.084  0.9550 -0.6381 -0.0655
  563MOL0     N74234   9.280   5.136   0.407  0.0258  0.4922 -0.9525
  563MOL0     N74235   9.163   5.090   0.393  0.2894  0.1176 -0.9185
  563MOL0     C74236   8.300   4.499   0.108  0.1359 -0.2466  0.0578
  563MOL0     C74237   8.175   4.447   0.139 -0.2044 -0.0409 -0.8706
  563MOL0     C74238   7.695   4.429   0.119  0.1081 -0.2321 -1.0444
  563MOL0     C74239   7.576   4.497   0.114  0.3722 -0.6318 -0.2714
  563MOL0     C74240   7.441   4.439   0.110 -0.0549 -0.2068  0.7367
  563MOL0     C74241   7.443   4.302   0.111 -0.3839  0.0974 -0.4353
  563MOL0     O74242   7.318   4.246   0.114  0.2779  0.7166  0.5042
  563MOL0     C74243   7.321   4.107   0.068 -0.3922 -0.5049  0.0411
  563MOL0     C74244   7.176   4.061   0.035 -0.7768  0.2102 -0.6980
  563MOL0     C74245   7.168   3.905   0.034 -0.0261  0.0958 -0.4839
  563MOL0     C74246   7.032   3.852  -0.007  0.4274 -0.9152  0.0692
  563MOL0     C74247   7.040   3.709   0.004 -0.6031  0.3720  0.1537
  563MOL0     C74248   7.055   3.586   0.036  0.3014 -0.0488  1.0537
  563MOL0     C74249   7.568   4.223   0.102  0.8139  0.2340 -0.2619
  563MOL0     C74250   7.691   4.288   0.092  0.0194  0.2014 -0.2583
  563MOL0     H74251   7.982   4.655  -0.039  2.7590  3.1244 -2.1094
  563MOL0     H74252   8.211   4.769  -0.072 -1.6450  0.5935 -0.6278
  563MOL0     H74253   8.408   4.853  -0.007 -0.8815  2.2803 -2.5819
  563MOL0     H74254   8.396   4.770  -0.161  1.3012 -0.8494  0.0372
  563MOL0     H74255   8.583   4.850  -0.202  0.3368  1.0523  0.0334
  563MOL0     H74256   8.650   4.702  -0.120 -1.1549 -1.1820  3.8811
  563MOL0     H74257   8.674   4.810   0.094  1.3879  0.5124  0.8513
  563MOL0     H74258   8.615   4.956   0.008  0.4875  0.0164 -0.2030
  563MOL0     H74259   8.893   4.806  -0.034 -1.3141 -1.2460  2.5451
  563MOL0     H74260   8.825   4.946  -0.124 -2.6788 -0.2817  0.5933
  563MOL0     H74261   8.826   5.077   0.080 -0.1036  0.7797 -3.6097
  563MOL0     H74262   8.982   5.043   0.018  0.8571  0.3772 -0.3016
  563MOL0     H74263   9.040   4.936   0.208 -0.1010 -1.8573  0.5673
  563MOL0     H74264   8.885   4.848   0.217 -2.1504  0.9326 -0.8842
  563MOL0     H74265   8.778   5.045   0.293  0.2992  3.7715 -0.0614
  563MOL0     H74266   8.905   5.003   0.410 -1.4456 -1.0863  0.3972
  563MOL0     H74267   8.896   5.251   0.376  1.5818  2.7805 -1.8277
  563MOL0     H74268   8.934   5.214   0.198 -0.5058 -5.7933 -2.1176
  563MOL0     H74269   9.094   5.388   0.295  0.8408  1.0843  0.3046
  563MOL0     H74270   9.374   5.409   0.516  0.3498  3.5911 -0.5704
  563MOL0     H74271   9.350   5.463   0.352  0.7011 -1.7598 -1.2564
  563MOL0     H74272   9.523   5.302   0.271  2.4618  2.7034 -2.3602
  563MOL0     H74273   9.563   5.268   0.443  1.9160  1.8037 -0.2821
  563MOL0     H74274   9.565   5.539   0.440 -1.0422  1.2971 -1.6309
  563MOL0     H74275   9.705   5.439   0.428 -0.8250 -1.2671  2.0868
  563MOL0     H74276   9.713   5.422   0.203 -1.5057 -1.6392  1.1658
  563MOL0     H74277   9.723   5.590   0.238  2.4702 -1.8434 -0.0201
  563MOL0     H74278   9.577   5.769   0.077 -1.4420 -2.5746  1.3226
  563MOL0     H74279   9.670   5.851  -0.137 -0.5078  0.1876  2.4081
  563MOL0     H74280   9.656   5.816  -0.594 -1.8515  0.0163 -0.8719
  563MOL0     H74281   9.763   5.885  -0.822  0.5043  0.2999 -0.2377
  563MOL0     H74282  10.049   5.899  -0.920  1.0569  2.7242 -2.1342
  563MOL0     H74283   9.883   5.921  -0.990 -2.5897 -3.6947  4.8765
  563MOL0     H74284  10.032   5.944  -1.183  2.5465  0.0875  0.4796
  563MOL0     H74285   9.967   5.784  -1.195 -4.5407  4.6295  0.5214
  563MOL0     H74286  10.193   5.698  -1.073  3.8294 -1.5140 -1.5726
  563MOL0     H74287  10.235   5.872  -1.062 -1.5242 -0.5719  1.5516
  563MOL0     H74288  10.194   5.695  -1.311  3.8825 -0.7738 -0.6904
  563MOL0     H74289  10.198   5.873  -1.320 -0.8400  0.1936 -0.3145
  563MOL0     H74290  10.433   5.857  -1.220 -0.1449 -0.9544  1.3678
  563MOL0     H74291  10.410   5.773  -1.370  1.1206 -1.8899  0.7084
  563MOL0     H74292  10.369   5.565  -1.204 -0.1699 -0.6999  0.7526
  563MOL0     H74293  10.453   5.656  -1.088 -1.3209 -1.6194  0.1328
  563MOL0     H74294  10.608   5.500  -1.219 -1.1002  0.8884  0.3029
  563MOL0     H74295  10.543   5.555  -1.366  0.2732 -2.9029 -0.4232
  563MOL0     H74296  10.702   5.727  -1.170  2.1952 -2.2092 -0.4193
  563MOL0     H74297  10.656   5.786  -1.335 -0.6137 -0.4604 -1.8087
  563MOL0     H74298   9.991   5.526  -0.813 -0.1316 -0.2120  0.1578
  563MOL0     H74299   9.918   5.466  -0.605 -1.6742 -2.2860 -2.7438
  563MOL0     H74300   9.664   5.451  -0.287 -2.1186 -1.4901 -0.0468
  563MOL0     H74301   9.592   5.370  -0.086  0.6953 -0.6141  0.5768
  563MOL0     H74302   8.392   4.453   0.143  0.1361  1.1011  1.9941
  563MOL0     H74303   8.163   4.357   0.198  1.8197  1.5098  2.1640
  563MOL0     H74304   7.587   4.603   0.133 -2.7101  0.0646 -1.7935
  563MOL0     H74305   7.353   4.502   0.095  0.1210  0.2851  1.6710
  563MOL0     H74306   7.353   4.038   0.147  1.4286 -0.8280 -0.9256
  563MOL0     H74307   7.388   4.097  -0.018 -2.9063 -1.6608 -1.9039
  563MOL0     H74308   7.109   4.101   0.111  0.9961  0.2431  0.9430
  563MOL0     H74309   7.164   4.112  -0.061 -1.7449  0.2219 -0.5729
  563MOL0     H74310   7.185   3.864   0.134  1.4811  0.2877 -0.6505
  563MOL0     H74311   7.241   3.858  -0.033  0.1921 -0.5699  0.2030
  563MOL0     H74312   6.949   3.884   0.056  0.4628  1.3436 -0.9124
  563MOL0     H74313   6.995   3.886  -0.104  0.0677 -0.7580  0.2568
  563MOL0     H74314   7.053   3.481   0.056 -2.0255 -0.0824  0.8613
  563MOL0     H74315   7.572   4.114   0.096 -1.4685  0.0482  0.5132
  563MOL0     H74316   7.777   4.224   0.079 -1.0195 -0.9545 -1.7788
  564MOL0     O74317   7.846   2.552   2.193  0.3567  0.5969 -0.5308
  564MOL0     C74318   7.960   2.505   2.200  0.1007 -0.6495  0.1732
  564MOL0     O74319   7.992   2.385   2.244 -0.2038  0.4725  0.2656
  564MOL0     C74320   7.885   2.315   2.297  0.0596  0.0974  0.0132
  564MOL0     C74321   7.849   2.332   2.427  0.1115  0.1467 -0.8421
  564MOL0     C74322   7.747   2.256   2.478  0.6874 -0.3143 -0.1618
  564MOL0     C74323   7.670   2.169   2.410  0.0202 -0.5457  0.1830
  564MOL0     O74324   7.565   2.094   2.456 -0.9682 -0.6373 -0.6263
  564MOL0     C74325   7.475   2.170   2.543 -0.8799  0.8903  0.4494
  564MOL0     C74326   7.429   2.312   2.497 -0.4123  0.3515  0.1463
  564MOL0     C74327   7.296   2.357   2.556 -0.4128  0.3438  0.7702
  564MOL0     C74328   7.287   2.367   2.699 -0.7307 -0.4923 -0.2010
  564MOL0     C74329   7.153   2.432   2.741 -0.1031 -0.8812 -0.7504
  564MOL0     C74330   7.151   2.475   2.886 -0.1256 -0.0595 -0.4486
  564MOL0     C74331   7.260   2.577   2.930 -0.0818  0.1607  0.1662
  564MOL0     C74332   7.253   2.698   2.838  0.2902 -1.2795  0.1246
  564MOL0     N74333   7.348   2.804   2.885 -0.1643  0.3325  0.3408
  564MOL0     C74334   7.301   2.903   2.964  0.1160 -0.2482  0.1943
  564MOL0     C74335   7.400   2.983   2.985 -0.2634  0.1122 -0.1237
  564MOL0     C74336   7.406   3.117   3.052 -0.6490 -0.8778 -0.5393
  564MOL0     C74337   7.369   3.084   3.195  0.3546 -0.0698  0.4158
  564MOL0     C74338   7.385   3.214   3.289 -0.3065 -0.0228  0.5203
  564MOL0     C74339   7.403   3.195   3.436  0.7630 -0.7650 -0.2700
  564MOL0     O74340   7.336   3.296   3.501  0.3333 -1.0183 -0.5447
  564MOL0     C74341   7.317   3.273   3.638 -0.6316 -0.3135 -0.4554
  564MOL0     C74342   7.232   3.364   3.705  0.2279 -0.0926  0.8067
  564MOL0     C74343   7.210   3.355   3.846  0.0982  0.1754  0.0446
  564MOL0     C74344   7.285   3.271   3.921 -0.3128  0.4720 -0.8166
  564MOL0     C74345   7.263   3.266   4.069 -0.3584  0.6253  0.4313
  564MOL0     O74346   7.196   3.365   4.125  0.8840  0.6067  0.3512
  564MOL0     C74347   7.150   3.333   4.250  0.2762 -0.5870  0.3835
  564MOL0     C74348   7.213   3.369   4.370  0.7401  0.4180  0.1443
  564MOL0     C74349   7.182   3.303   4.490  0.6043 -0.3220  0.1026
  564MOL0     C74350   7.066   3.226   4.498  0.2235 -0.3551  0.5304
  564MOL0     O74351   7.013   3.174   4.614  0.1919 -0.1509  0.0711
  564MOL0     C74352   7.083   3.075   4.687 -0.3483 -0.5394  0.1346
  564MOL0     C74353   6.972   2.993   4.747  0.0062  0.1595  0.5838
  564MOL0     C74354   6.912   2.871   4.660 -0.4073  0.5914  0.2064
  564MOL0     C74355   7.010   2.786   4.586  0.9817  1.5278 -0.8851
  564MOL0     C74356   7.090   2.700   4.690  0.4340  0.9524 -0.4998
  564MOL0     C74357   7.005   2.605   4.773  0.1894  0.4060 -0.6376
  564MOL0     C74358   7.094   2.495   4.831 -0.0374  0.6302  0.0565
  564MOL0     C74359   7.026   2.411   4.941  0.3034 -0.1981  0.8543
  564MOL0    Cl74360   6.947   2.504   5.064  0.3994 -0.2059 -0.2016
  564MOL0     C74361   6.994   3.205   4.380 -0.8113  0.0097  0.8140
  564MOL0     C74362   7.040   3.254   4.253  0.1922 -0.2652 -0.1153
  564MOL0     O74363   7.309   3.169   4.127  0.0247  0.0101  0.0117
  564MOL0     C74364   7.378   3.192   3.859  0.0838 -0.2320  0.6279
  564MOL0     C74365   7.394   3.191   3.721 -0.2899 -0.3473 -0.3291
  564MOL0     N74366   7.504   2.938   2.914 -0.2708 -0.7317 -0.1901
  564MOL0     N74367   7.479   2.834   2.846  0.0348  0.2073 -0.1669
  564MOL0     C74368   7.707   2.152   2.269 -0.8673  0.0602  0.3866
  564MOL0     C74369   7.808   2.230   2.217 -0.5220  0.0869 -0.1966
  564MOL0     C74370   8.070   2.597   2.159 -0.9388 -0.5237  0.7223
  564MOL0     C74371   8.202   2.541   2.157 -0.7826  0.2932 -0.3106
  564MOL0     C74372   8.308   2.614   2.103  0.3861  0.0166  0.3785
  564MOL0     C74373   8.286   2.740   2.043 -1.0079 -0.3348  0.8855
  564MOL0     O74374   8.386   2.807   1.970  0.1807 -0.0725  0.9526
  564MOL0     C74375   8.523   2.759   1.981 -0.3825 -0.0212  0.9330
  564MOL0     C74376   8.613   2.857   1.909  0.3628  0.4987 -0.6476
  564MOL0     C74377   8.602   3.004   1.947 -0.8517 -0.0874  0.5650
  564MOL0     C74378   8.708   3.084   1.881 -0.1774  0.1047  0.3277
  564MOL0     C74379   8.850   3.056   1.926  0.1651  0.7973 -0.1717
  564MOL0     C74380   8.968   3.018   1.933 -0.6391 -0.5481  0.1158
  564MOL0     C74381   8.154   2.796   2.050 -0.4000  0.8102 -0.4789
  564MOL0     C74382   8.049   2.727   2.110  0.3738 -0.8807  0.2745
  564MOL0     H74383   7.899   2.403   2.491 -3.3369  0.9572  1.1699
  564MOL0     H74384   7.731   2.262   2.585  1.2658 -2.2250  0.0704
  564MOL0     H74385   7.518   2.182   2.643 -1.1521 -1.4948  0.9105
  564MOL0     H74386   7.386   2.108   2.556  0.3187 -0.8338  0.7713
  564MOL0     H74387   7.411   2.311   2.389  0.4073 -0.3158 -0.0023
  564MOL0     H74388   7.517   2.371   2.526  0.4120 -0.5605 -0.4369
  564MOL0     H74389   7.220   2.287   2.520  0.1038 -1.7459  3.4154
  564MOL0     H74390   7.271   2.456   2.517 -0.0550  0.1491  0.0281
  564MOL0     H74391   7.303   2.266   2.739  1.5035  0.3246  1.1439
  564MOL0     H74392   7.374   2.426   2.728 -0.5754 -0.5302 -0.5861
  564MOL0     H74393   7.069   2.365   2.719 -1.9558  1.0099  0.2071
  564MOL0     H74394   7.130   2.527   2.692  0.3945  0.3629  1.3099
  564MOL0     H74395   7.147   2.384   2.947  0.3224 -1.0991 -1.9028
  564MOL0     H74396   7.052   2.521   2.885 -0.3621 -0.4940  0.8673
  564MOL0     H74397   7.243   2.608   3.033 -2.0784  0.3351 -0.1889
  564MOL0     H74398   7.355   2.522   2.929 -0.1272  0.0491  1.0970
  564MOL0     H74399   7.152   2.739   2.829  0.0996 -1.8543 -0.3979
  564MOL0     H74400   7.278   2.675   2.735 -0.8591  1.0751 -0.7547
  564MOL0     H74401   7.205   2.907   3.015 -0.0469 -1.1894 -0.0195
  564MOL0     H74402   7.342   3.200   3.018 -3.5211 -3.3176 -1.5569
  564MOL0     H74403   7.507   3.159   3.045 -1.7544  2.4376  1.0868
  564MOL0     H74404   7.426   3.006   3.246 -0.4947 -1.6502 -0.9663
  564MOL0     H74405   7.266   3.049   3.196  0.0611  0.5898 -1.6200
  564MOL0     H74406   7.473   3.270   3.253 -0.2514 -1.4814 -1.8645
  564MOL0     H74407   7.298   3.274   3.259 -1.6675 -1.9711  0.4387
  564MOL0     H74408   7.510   3.184   3.455  0.6755 -1.0670  0.0716
  564MOL0     H74409   7.359   3.102   3.474  0.4284 -0.0032  1.3107
  564MOL0     H74410   7.180   3.431   3.638  1.0753  0.6266  0.8586
  564MOL0     H74411   7.136   3.421   3.890 -0.9645 -0.9374 -0.0086
  564MOL0     H74412   7.297   3.435   4.354  0.9074 -0.3664 -2.9440
  564MOL0     H74413   7.241   3.309   4.581  2.3853 -2.1753 -0.8288
  564MOL0     H74414   7.132   3.118   4.775  0.0514  0.1521 -0.4175
  564MOL0     H74415   7.146   3.014   4.622  0.5042  1.7388 -1.2783
  564MOL0     H74416   6.884   3.057   4.758 -0.3291 -0.0806 -0.5579
  564MOL0     H74417   7.016   2.945   4.834  0.9144  1.3378  0.7941
  564MOL0     H74418   6.861   2.923   4.578  0.8221  1.1792 -0.2011
  564MOL0     H74419   6.837   2.814   4.716 -0.1800  0.0232 -0.0679
  564MOL0     H74420   6.951   2.729   4.513  1.9312  0.2428 -0.6839
  564MOL0     H74421   7.069   2.853   4.523  0.4575  2.8989  0.0344
  564MOL0     H74422   7.158   2.766   4.747  1.9186 -0.9227  0.0177
  564MOL0     H74423   7.162   2.637   4.637  0.8437  0.5384  0.5109
  564MOL0     H74424   6.926   2.557   4.716 -1.6729  2.5174  0.0257
  564MOL0     H74425   6.960   2.662   4.855  2.0279  1.2670 -0.1654
  564MOL0     H74426   7.124   2.425   4.752  0.6332  0.3039  0.5933
  564MOL0     H74427   7.183   2.535   4.881 -0.2683 -1.8412  2.6894
  564MOL0     H74428   7.099   2.348   4.993 -1.6677 -3.5215 -0.0766
  564MOL0     H74429   6.948   2.346   4.900 -1.3279  1.7257  0.7439
  564MOL0     H74430   6.911   3.137   4.390  0.2121 -1.1473  1.6464
  564MOL0     H74431   6.985   3.225   4.163 -1.2900  2.5854 -0.2511
  564MOL0     H74432   7.440   3.118   3.909 -1.0216 -3.0190 -1.8162
  564MOL0     H74433   7.473   3.131   3.677  2.5272  0.8696  2.6139
  564MOL0     H74434   7.654   2.081   2.207  0.9369  0.2020 -1.4448
  564MOL0     H74435   7.832   2.213   2.113 -0.7112 -1.6742  0.0123
  564MOL0     H74436   8.207   2.444   2.205  0.3677 -0.2448 -1.4464
  564MOL0     H74437   8.409   2.572   2.105  1.2137  1.9143  1.6699
  564MOL0     H74438   8.544   2.666   1.927  0.5962  0.7777 -0.1197
  564MOL0     H74439   8.553   2.757   2.086 -3.2990 -0.1087  1.8445
  564MOL0     H74440   8.716   2.822   1.913  0.0325 -0.5282 -0.7375
  564MOL0     H74441   8.588   2.865   1.803  0.4163 -0.3596 -0.7353
  564MOL0     H74442   8.609   3.017   2.055 -1.0470 -1.0874  0.7104
  564MOL0     H74443   8.499   3.029   1.919 -1.2629 -2.9606 -0.9570
  564MOL0     H74444   8.707   3.048   1.778 -1.3858  1.7525 -0.2791
  564MOL0     H74445   8.692   3.193   1.880 -1.1302 -0.0102  1.3635
  564MOL0     H74446   9.065   2.974   1.920 -0.0722  1.4255 -4.2030
  564MOL0     H74447   8.146   2.895   2.005  0.1686  0.2085 -1.9893
  564MOL0     H74448   7.950   2.768   2.128  0.4311 -0.5754 -0.0864
  565MOL0     O74449   0.970   0.661   7.272  0.1462 -0.2474 -0.0168
  565MOL0     C74450   1.048   0.752   7.303  0.5547 -0.9839 -0.7799
  565MOL0     O74451   1.017   0.881   7.310  0.4134 -0.4556  1.1957
  565MOL0     C74452   0.901   0.936   7.256 -0.3802  0.0437  0.6592
  565MOL0     C74453   0.915   1.074   7.242 -0.4621  0.3616  0.4592
  565MOL0     C74454   0.821   1.145   7.175 -0.8806 -0.2568  0.6056
  565MOL0     C74455   0.704   1.083   7.138 -0.0671  0.3203 -0.3747
  565MOL0     O74456   0.605   1.151   7.066 -0.1350  0.4622  0.3196
  565MOL0     C74457   0.650   1.223   6.955  0.6052 -0.1273  0.6877
  565MOL0     C74458   0.532   1.293   6.881 -0.5125  0.1229  0.4395
  565MOL0     C74459   0.442   1.369   6.979  0.2945 -0.1819  0.3564
  565MOL0     C74460   0.449   1.522   6.959  0.0280 -0.8080 -0.1394
  565MOL0     C74461   0.396   1.606   7.071  0.4057  0.0037  0.8182
  565MOL0     C74462   0.245   1.632   7.055  0.6165  0.5378 -0.0393
  565MOL0     C74463   0.186   1.722   7.161  0.4829 -0.8562 -0.1669
  565MOL0     C74464   0.045   1.767   7.128 -0.6309  0.2852 -0.3366
  565MOL0     N74465  -0.019   1.853   7.236 -0.1484  0.2353  0.3905
  565MOL0     C74466  -0.129   1.826   7.305  0.0524  0.0807 -1.0274
  565MOL0     C74467  -0.110   1.894   7.425 -0.1219 -0.6301  0.2941
  565MOL0     C74468  -0.204   1.907   7.532  0.0242 -0.3002  0.3508
  565MOL0     C74469  -0.277   1.777   7.566  0.8944  0.4729 -0.4332
  565MOL0     C74470  -0.351   1.805   7.696 -0.1362 -0.1402  0.0158
  565MOL0     C74471  -0.438   1.693   7.745  0.4484 -0.0880  0.2642
  565MOL0     O74472  -0.553   1.676   7.660  0.3231  0.0822  0.1305
  565MOL0     C74473  -0.669   1.607   7.704 -0.0039  0.3526 -1.1789
  565MOL0     C74474  -0.684   1.533   7.826 -0.0670  0.0996  1.4188
  565MOL0     C74475  -0.798   1.470   7.856 -0.6809 -0.7976  0.7103
  565MOL0     C74476  -0.905   1.468   7.770  0.1168  0.3649 -0.2168
  565MOL0     C74477  -1.022   1.384   7.782 -0.8156  0.9032 -0.0340
  565MOL0     O74478  -1.113   1.379   7.685 -0.6428  0.2442  0.1958
  565MOL0     C74479  -1.232   1.309   7.707 -1.2149 -0.9596  0.3625
  565MOL0     C74480  -1.230   1.174   7.750 -0.5393 -0.6443  0.0725
  565MOL0     C74481  -1.352   1.096   7.745  0.1477 -0.5734  0.0783
  565MOL0     C74482  -1.475   1.156   7.707 -0.3187  0.0882  0.2701
  565MOL0     O74483  -1.600   1.083   7.711 -1.0125  0.5653  0.2077
  565MOL0     C74484  -1.719   1.158   7.715  0.4875  0.7640 -0.3806
  565MOL0     C74485  -1.833   1.055   7.731  0.3523 -0.3143 -0.0445
  565MOL0     C74486  -1.955   1.139   7.718  0.3169  0.3767  0.0130
  565MOL0     C74487  -2.068   1.040   7.731  0.0667  0.5054 -0.0432
  565MOL0     C74488  -2.207   1.103   7.708 -0.5246  0.0676 -0.6241
  565MOL0     C74489  -2.303   0.994   7.747 -0.5638 -0.0499 -0.0409
  565MOL0     C74490  -2.446   1.039   7.765 -0.2191 -0.6879 -0.0177
  565MOL0     C74491  -2.457   1.123   7.887  0.7125  0.1408  0.3423
  565MOL0    Cl74492  -2.639   1.118   7.936 -0.6620  0.5794  0.0515
  565MOL0     C74493  -1.471   1.287   7.665 -0.3582  0.9244 -0.7183
  565MOL0     C74494  -1.352   1.361   7.658 -0.3218 -0.2120 -0.1847
  565MOL0     O74495  -1.047   1.350   7.903 -0.1182  0.3649  0.2837
  565MOL0     C74496  -0.897   1.552   7.655  1.3051  0.3614 -0.7307
  565MOL0     C74497  -0.783   1.621   7.625  0.4533 -0.5405 -0.8186
  565MOL0     N74498   0.015   1.966   7.418  0.2316 -0.1125 -0.4327
  565MOL0     N74499   0.060   1.947   7.302 -0.0219 -0.3825 -0.6017
  565MOL0     C74500   0.671   0.951   7.162 -0.9858  0.0095 -0.3737
  565MOL0     C74501   0.779   0.877   7.225  0.0112  0.6421 -0.3012
  565MOL0     C74502   1.182   0.713   7.345  0.4126 -0.3164  0.6317
  565MOL0     C74503   1.274   0.796   7.406  0.3164 -0.4991 -0.2152
  565MOL0     C74504   1.395   0.753   7.440 -0.3980  0.1814  0.3320
  565MOL0     C74505   1.433   0.617   7.426  0.1304 -0.5643 -0.0790
  565MOL0     O74506   1.549   0.571   7.483  0.7677 -0.5549 -0.0600
  565MOL0     C74507   1.605   0.446   7.438 -0.4863 -0.6115 -0.3137
  565MOL0     C74508   1.652   0.455   7.296  0.2436  0.6200  0.9672
  565MOL0     C74509   1.704   0.318   7.255 -0.2540  0.3814  0.1698
  565MOL0     C74510   1.768   0.288   7.123 -0.1138  0.6467 -0.1804
  565MOL0     C74511   1.865   0.382   7.067  0.2349 -0.1939  0.5352
  565MOL0     C74512   1.929   0.468   7.013 -0.1410  0.5617  0.9360
  565MOL0     C74513   1.344   0.534   7.358  0.3462 -0.2498  0.0364
  565MOL0     C74514   1.227   0.582   7.319 -0.8992 -0.2457  0.1420
  565MOL0     H74515   1.008   1.125   7.267 -1.0000  0.4439  2.3775
  565MOL0     H74516   0.834   1.252   7.163  3.6202 -0.8418 -1.8452
  565MOL0     H74517   0.718   1.158   6.898 -0.2342  0.1300 -0.6382
  565MOL0     H74518   0.716   1.302   6.993 -1.2281  0.4036  2.9586
  565MOL0     H74519   0.489   1.210   6.823  1.9420 -0.1882 -1.0411
  565MOL0     H74520   0.579   1.348   6.800  0.7524 -0.4678  0.7459
  565MOL0     H74521   0.467   1.362   7.085  0.3117  0.0919  0.3712
  565MOL0     H74522   0.340   1.334   6.963  0.2021  0.6569 -1.0348
  565MOL0     H74523   0.556   1.542   6.957 -0.1085  0.0823  0.6661
  565MOL0     H74524   0.404   1.546   6.863 -1.0337  0.4745  0.6488
  565MOL0     H74525   0.442   1.704   7.063 -3.5801  1.9436 -1.8495
  565MOL0     H74526   0.426   1.550   7.160  1.8917  1.1089  1.0399
  565MOL0     H74527   0.195   1.537   7.077  1.7552  0.1779  1.1710
  565MOL0     H74528   0.227   1.675   6.957  0.8126  2.3540  0.6863
  565MOL0     H74529   0.186   1.672   7.259  1.2959 -1.4746 -0.4718
  565MOL0     H74530   0.246   1.813   7.172  3.4177 -2.9462  3.9210
  565MOL0     H74531  -0.006   1.671   7.118 -0.2528 -0.1221  1.2993
  565MOL0     H74532   0.061   1.810   7.029 -1.2189 -2.0209 -1.4844
  565MOL0     H74533  -0.212   1.759   7.283  0.4910 -1.8602  2.4751
  565MOL0     H74534  -0.275   1.980   7.492  1.1114 -0.1000 -1.2957
  565MOL0     H74535  -0.151   1.944   7.620 -0.0325 -0.5439  0.4875
  565MOL0     H74536  -0.210   1.699   7.602 -0.7566  0.4279  2.9024
  565MOL0     H74537  -0.335   1.730   7.486  0.8846  0.2966 -0.3228
  565MOL0     H74538  -0.294   1.843   7.782 -1.4428  4.6163 -0.9363
  565MOL0     H74539  -0.414   1.892   7.674 -2.2396 -1.6228 -0.0782
  565MOL0     H74540  -0.472   1.717   7.846 -0.1130 -0.7413  0.2422
  565MOL0     H74541  -0.386   1.597   7.758 -1.4103 -1.1012  0.6647
  565MOL0     H74542  -0.604   1.531   7.898 -1.0801 -1.6171  2.5521
  565MOL0     H74543  -0.792   1.403   7.941  2.5242  1.5366  2.5184
  565MOL0     H74544  -1.135   1.128   7.777 -0.4925 -1.2361 -1.0456
  565MOL0     H74545  -1.352   0.993   7.780  0.6073 -0.9925 -1.1152
  565MOL0     H74546  -1.752   1.229   7.639 -2.7806 -0.6872 -0.5245
  565MOL0     H74547  -1.720   1.213   7.810  2.8857 -0.2181  0.2880
  565MOL0     H74548  -1.826   1.016   7.832  1.0551 -0.2627 -0.0743
  565MOL0     H74549  -1.837   0.979   7.652 -0.5396 -2.4502  1.9542
  565MOL0     H74550  -1.942   1.187   7.621 -2.8032 -0.8953 -1.1605
  565MOL0     H74551  -1.957   1.213   7.798  1.2918 -0.6273  1.0011
  565MOL0     H74552  -2.056   0.950   7.669  0.0756 -2.9617  4.4281
  565MOL0     H74553  -2.068   0.995   7.831 -3.6455 -1.0818 -0.5690
  565MOL0     H74554  -2.228   1.139   7.607 -0.9105  1.2190 -0.1505
  565MOL0     H74555  -2.221   1.175   7.788 -1.3779 -2.8361  2.0333
  565MOL0     H74556  -2.281   0.937   7.837 -3.9006  0.4561  1.2477
  565MOL0     H74557  -2.290   0.923   7.665  2.3284 -0.2115  0.4445
  565MOL0     H74558  -2.486   1.089   7.677 -0.0204  1.3173  0.9858
  565MOL0     H74559  -2.507   0.949   7.773 -2.0394  0.5798  1.0075
  565MOL0     H74560  -2.426   1.225   7.864 -0.3631  0.4760  0.2824
  565MOL0     H74561  -2.399   1.075   7.967  0.3225 -0.2245  0.4119
  565MOL0     H74562  -1.559   1.328   7.615 -1.0928 -0.6935 -0.8094
  565MOL0     H74563  -1.346   1.462   7.619  1.0106 -0.6086 -1.0722
  565MOL0     H74564  -0.984   1.561   7.590 -2.2656 -0.4180  3.4795
  565MOL0     H74565  -0.771   1.692   7.544  0.2291  3.3154  2.2302
  565MOL0     H74566   0.568   0.923   7.144 -1.7874  2.1421  0.6401
  565MOL0     H74567   0.755   0.778   7.263 -0.6503  1.3524  1.2113
  565MOL0     H74568   1.232   0.894   7.426 -0.3171 -0.6260 -0.9227
  565MOL0     H74569   1.470   0.821   7.480 -0.1219  0.8267 -1.1860
  565MOL0     H74570   1.542   0.358   7.455 -0.1658 -0.5325  1.5439
  565MOL0     H74571   1.694   0.424   7.498 -0.1185  1.2728 -0.1050
  565MOL0     H74572   1.569   0.476   7.228  0.3443  0.9479  0.9446
  565MOL0     H74573   1.734   0.524   7.274  0.7837 -0.9504 -2.6114
  565MOL0     H74574   1.624   0.246   7.274  1.2269 -1.0965  1.0604
  565MOL0     H74575   1.770   0.295   7.340 -0.5126  0.6572  0.4503
  565MOL0     H74576   1.807   0.186   7.115  0.1171  0.6614  0.6970
  565MOL0     H74577   1.692   0.299   7.045 -0.6130 -1.3253 -0.0115
  565MOL0     H74578   1.982   0.540   6.954 -0.3866  0.0852  0.1234
  565MOL0     H74579   1.359   0.431   7.327 -1.0770 -0.2110 -0.8549
  565MOL0     H74580   1.159   0.514   7.269 -2.1154  1.0254  0.0048
  566MOL0     O74581   2.515   5.993   1.652  0.2888  0.1326 -0.1732
  566MOL0     C74582   2.415   5.973   1.587  0.0463  0.1270  0.1211
  566MOL0     O74583   2.293   5.979   1.642  0.3837  0.5442  0.0306
  566MOL0     C74584   2.264   5.983   1.774  0.0576 -0.5720 -0.4279
  566MOL0     C74585   2.211   6.094   1.845 -0.0626 -0.1319  0.4396
  566MOL0     C74586   2.169   6.088   1.973  0.4022  0.9150 -0.5235
  566MOL0     C74587   2.171   5.971   2.045  0.3595 -0.2337  0.1833
  566MOL0     O74588   2.097   5.976   2.159  0.3066 -0.0615  0.0451
  566MOL0     C74589   2.032   5.854   2.202  0.4910 -0.4566  0.3146
  566MOL0     C74590   1.950   5.876   2.326 -0.9138 -0.5174 -0.0335
  566MOL0     C74591   1.863   5.753   2.361  0.2811 -0.5084 -0.0381
  566MOL0     C74592   1.950   5.629   2.401  0.2507 -0.2041  0.4462
  566MOL0     C74593   1.869   5.501   2.412  0.5684 -0.1407  0.7778
  566MOL0     C74594   1.952   5.373   2.418 -0.7694 -0.3314  0.2474
  566MOL0     C74595   2.013   5.334   2.273 -0.8592 -0.0323 -0.4344
  566MOL0     C74596   2.137   5.248   2.293  0.3225 -0.2956  0.0927
  566MOL0     N74597   2.242   5.249   2.185  0.3665  0.4136 -0.7317
  566MOL0     C74598   2.374   5.264   2.213  0.7360 -0.9651  0.3091
  566MOL0     C74599   2.435   5.241   2.089  0.1288 -0.6057 -0.3128
  566MOL0     C74600   2.585   5.254   2.069 -0.2147 -0.1099 -0.0264
  566MOL0     C74601   2.616   5.388   2.009 -0.4699  0.6726  0.0659
  566MOL0     C74602   2.583   5.397   1.858 -0.7012  0.4019 -0.5448
  566MOL0     C74603   2.577   5.546   1.820 -0.4056  0.5110 -0.2324
  566MOL0     O74604   2.588   5.564   1.674  0.1821 -0.3178 -0.0402
  566MOL0     C74605   2.707   5.603   1.626 -0.6946  1.3668  0.3979
  566MOL0     C74606   2.783   5.522   1.536 -0.7099  0.3007 -0.5103
  566MOL0     C74607   2.906   5.563   1.495 -0.4592 -0.3567 -0.1053
  566MOL0     C74608   2.972   5.678   1.541  0.3160 -0.0641 -0.8584
  566MOL0     C74609   3.105   5.718   1.490  0.5227 -0.0518  0.4104
  566MOL0     O74610   3.144   5.847   1.496  0.6488 -0.2469  0.3588
  566MOL0     C74611   3.270   5.895   1.456 -0.2023 -0.2296  0.8285
  566MOL0     C74612   3.382   5.821   1.465 -0.1830  0.5849 -0.0997
  566MOL0     C74613   3.506   5.875   1.433  0.3186  0.4353  1.0525
  566MOL0     C74614   3.515   6.007   1.371 -0.3256  0.1312 -0.1710
  566MOL0     O74615   3.624   6.085   1.334 -0.1716 -0.4894  0.1746
  566MOL0     C74616   3.744   6.063   1.412  0.0229 -0.5224  0.0733
  566MOL0     C74617   3.854   6.170   1.396  0.1635  0.0094  0.7976
  566MOL0     C74618   3.810   6.291   1.473  0.3221  0.3148  0.1596
  566MOL0     C74619   3.904   6.414   1.471  0.0752  0.1924  0.3078
  566MOL0     C74620   3.865   6.522   1.583  0.5600 -0.0517  0.6572
  566MOL0     C74621   3.720   6.586   1.552  0.1514  0.5845 -0.0164
  566MOL0     C74622   3.665   6.686   1.653  0.7499 -0.0523 -0.4577
  566MOL0     C74623   3.655   6.823   1.586  0.1886  1.5764  0.6366
  566MOL0    Cl74624   3.814   6.884   1.533 -1.2633 -0.8150 -0.4567
  566MOL0     C74625   3.395   6.080   1.348  0.1076  0.4310  0.1287
  566MOL0     C74626   3.274   6.023   1.394 -0.0900 -0.0374 -0.4929
  566MOL0     O74627   3.178   5.626   1.451  0.0374  0.0778 -0.6370
  566MOL0     C74628   2.891   5.760   1.624 -0.3721  0.6579 -0.0577
  566MOL0     C74629   2.767   5.721   1.674 -0.3800  0.6869 -0.1438
  566MOL0     N74630   2.328   5.196   1.998 -1.3825 -1.8891  0.6330
  566MOL0     N74631   2.217   5.204   2.061 -0.1453  0.0223 -0.5711
  566MOL0     C74632   2.230   5.855   1.978 -0.0777  0.6727 -0.4496
  566MOL0     C74633   2.280   5.859   1.840  0.2782  0.2147 -0.3980
  566MOL0     C74634   2.425   5.947   1.439 -0.5546 -0.0355  0.0025
  566MOL0     C74635   2.314   5.923   1.359  0.7823 -0.6206  0.5346
  566MOL0     C74636   2.329   5.915   1.212 -0.2574 -0.2295 -0.5508
  566MOL0     C74637   2.456   5.934   1.154 -0.6192  0.0860  0.2832
  566MOL0     O74638   2.484   5.928   1.020  0.8112  0.0607  0.0489
  566MOL0     C74639   2.369   5.946   0.933  0.3350 -0.2532  0.1063
  566MOL0     C74640   2.314   6.088   0.941 -0.7849  0.1490 -0.6546
  566MOL0     C74641   2.388   6.169   0.833  0.8476 -0.8653  0.0871
  566MOL0     C74642   2.325   6.315   0.831 -1.0402  0.1653 -0.7908
  566MOL0     C74643   2.352   6.394   0.715  0.8195 -0.1714 -0.2736
  566MOL0     C74644   2.373   6.460   0.617  0.1785 -0.6330 -0.0711
  566MOL0     C74645   2.561   5.943   1.238 -0.7372 -0.3888  0.7713
  566MOL0     C74646   2.552   5.944   1.376  0.1526 -0.4382 -0.9277
  566MOL0     H74647   2.185   6.187   1.795 -2.7884 -0.7347  0.5727
  566MOL0     H74648   2.107   6.172   2.004  0.7129  0.6746  0.8235
  566MOL0     H74649   2.107   5.775   2.199 -0.4729 -1.4371 -3.0712
  566MOL0     H74650   1.955   5.845   2.124 -0.1370  1.3554  0.6714
  566MOL0     H74651   1.875   5.954   2.313  0.3331  0.5497 -1.1217
  566MOL0     H74652   2.020   5.894   2.409  0.6877 -2.5029 -0.8599
  566MOL0     H74653   1.815   5.737   2.264 -0.5865  4.1761 -0.6218
  566MOL0     H74654   1.787   5.773   2.436 -0.2961 -1.2701 -0.4151
  566MOL0     H74655   2.032   5.619   2.329  0.5319 -0.1896  0.7597
  566MOL0     H74656   1.987   5.645   2.503  0.1080  0.2295  0.4312
  566MOL0     H74657   1.807   5.492   2.322 -0.7667 -2.9135  1.8604
  566MOL0     H74658   1.816   5.508   2.507  1.1185  1.3093  1.0129
  566MOL0     H74659   1.898   5.283   2.450  0.5426 -1.9729 -1.9041
  566MOL0     H74660   2.027   5.402   2.492  0.2845  0.9033 -1.2207
  566MOL0     H74661   1.941   5.263   2.229 -0.8018 -1.6938  1.9268
  566MOL0     H74662   2.041   5.418   2.210 -0.2364  2.3894  2.8329
  566MOL0     H74663   2.110   5.143   2.306  0.0648 -0.0074  2.3311
  566MOL0     H74664   2.179   5.275   2.391  3.3301 -0.7654 -0.9596
  566MOL0     H74665   2.428   5.286   2.305 -0.6035 -0.1116  0.9186
  566MOL0     H74666   2.622   5.176   2.002 -1.1399 -2.2320  1.8149
  566MOL0     H74667   2.638   5.254   2.164  0.5578 -3.6825 -0.3106
  566MOL0     H74668   2.725   5.400   2.012 -0.5145  1.5885 -1.3758
  566MOL0     H74669   2.571   5.474   2.059 -0.4609  0.4241  0.5083
  566MOL0     H74670   2.666   5.352   1.803 -0.4145  0.7703 -0.4149
  566MOL0     H74671   2.484   5.352   1.846 -0.2049 -1.7182  2.2271
  566MOL0     H74672   2.652   5.601   1.876  0.4709 -3.1940  2.6228
  566MOL0     H74673   2.481   5.583   1.858  0.4248  1.3782  1.0878
  566MOL0     H74674   2.745   5.431   1.489 -1.6282  1.3353 -1.8436
  566MOL0     H74675   2.957   5.492   1.430  1.9097  0.4000  0.8002
  566MOL0     H74676   3.385   5.718   1.498  0.7435  0.9458  1.0236
  566MOL0     H74677   3.599   5.821   1.445  0.7167  1.2420  1.7056
  566MOL0     H74678   3.788   5.969   1.380 -2.7840 -1.7514 -0.4966
  566MOL0     H74679   3.714   6.046   1.516  0.1666 -1.6644 -0.0577
  566MOL0     H74680   3.860   6.191   1.289 -1.7263 -1.3664  0.3699
  566MOL0     H74681   3.947   6.122   1.427  0.6024 -1.5002 -2.4478
  566MOL0     H74682   3.800   6.266   1.579  0.8936  0.5416  0.2679
  566MOL0     H74683   3.712   6.325   1.437  0.4533  1.5275  0.9309
  566MOL0     H74684   4.009   6.386   1.463 -0.5699 -2.1287 -0.9276
  566MOL0     H74685   3.889   6.464   1.375 -0.3219  2.6207  1.5548
  566MOL0     H74686   3.932   6.608   1.581 -0.2414  0.6479  2.3136
  566MOL0     H74687   3.867   6.464   1.676  0.1160  0.7505  1.1767
  566MOL0     H74688   3.640   6.514   1.534 -1.4730  2.3111  0.0074
  566MOL0     H74689   3.736   6.630   1.453  3.0723 -3.7034 -1.7105
  566MOL0     H74690   3.577   6.639   1.697  1.1286 -2.9684 -2.5199
  566MOL0     H74691   3.743   6.687   1.730  2.4615 -2.2820 -2.0075
  566MOL0     H74692   3.612   6.895   1.657  0.1510  1.7190  0.4695
  566MOL0     H74693   3.595   6.804   1.497 -1.5502 -0.7437  2.1708
  566MOL0     H74694   3.395   6.180   1.305 -0.3533 -0.0878 -1.1116
  566MOL0     H74695   3.177   6.070   1.378 -0.7168 -0.9190  0.5584
  566MOL0     H74696   2.930   5.854   1.662 -0.6969  0.4191  0.9079
  566MOL0     H74697   2.716   5.770   1.756  1.3124  1.2084  0.6544
  566MOL0     H74698   2.247   5.763   2.033 -0.7303 -0.4399 -1.9993
  566MOL0     H74699   2.328   5.784   1.778 -1.8325  0.9727 -3.1593
  566MOL0     H74700   2.212   5.912   1.394  0.6376 -0.3826  0.1905
  566MOL0     H74701   2.231   5.912   1.166 -0.1558 -0.2438 -0.7656
  566MOL0     H74702   2.288   5.880   0.966  1.0384 -2.0552 -1.5744
  566MOL0     H74703   2.390   5.926   0.828  1.6647  1.9845 -0.0916
  566MOL0     H74704   2.210   6.085   0.910 -0.6893 -1.0381 -0.8719
  566MOL0     H74705   2.328   6.129   1.042  1.9092 -0.2049 -0.7961
  566MOL0     H74706   2.374   6.120   0.736 -1.2801  0.0576 -0.1429
  566MOL0     H74707   2.497   6.174   0.843  0.7841 -0.9936  0.9483
  566MOL0     H74708   2.217   6.299   0.831 -0.6608 -3.1010 -1.5525
  566MOL0     H74709   2.355   6.362   0.925 -0.0985 -2.3188  0.2391
  566MOL0     H74710   2.405   6.512   0.528  2.0833  0.1997  1.0254
  566MOL0     H74711   2.665   5.931   1.211 -0.1922 -0.4622  2.7533
  566MOL0     H74712   2.633   5.926   1.446 -0.5825  1.5392  0.5322
  567MOL0     O74713   0.804   1.545   5.311  0.5381 -0.4434  0.1927
  567MOL0     C74714   0.746   1.657   5.312 -0.0865  0.0716 -0.2494
  567MOL0     O74715   0.804   1.776   5.328 -0.7063  0.1594 -0.3927
  567MOL0     C74716   0.943   1.789   5.297 -0.7998 -0.0456  0.1339
  567MOL0     C74717   1.022   1.876   5.374 -0.1209 -0.1517  0.5970
  567MOL0     C74718   1.156   1.889   5.354 -0.6950  0.2917 -0.0635
  567MOL0     C74719   1.218   1.816   5.251 -0.2405  0.5959 -1.1230
  567MOL0     O74720   1.353   1.820   5.224  0.6342  0.6188 -0.4404
  567MOL0     C74721   1.446   1.896   5.305 -0.2227  0.5245  0.6292
  567MOL0     C74722   1.565   1.915   5.212 -0.0550  0.3860  0.0102
  567MOL0     C74723   1.670   2.009   5.266  0.1854 -0.4064 -0.4771
  567MOL0     C74724   1.723   1.986   5.403 -0.1118  0.9052  0.3700
  567MOL0     C74725   1.854   2.065   5.430 -0.6958 -0.9889 -0.5200
  567MOL0     C74726   1.931   2.011   5.550  0.3422 -1.8734  0.2180
  567MOL0     C74727   2.053   2.109   5.587 -0.1264  0.9706 -0.5757
  567MOL0     C74728   2.175   2.049   5.663  0.3731  0.5505  0.3769
  567MOL0     N74729   2.153   2.039   5.807 -0.9832  0.6080  0.6125
  567MOL0     C74730   2.249   2.059   5.903  0.8318 -0.9412 -0.0669
  567MOL0     C74731   2.200   2.008   6.018  0.6529 -0.9169  0.3395
  567MOL0     C74732   2.285   1.988   6.140  0.7380  0.3025 -0.2986
  567MOL0     C74733   2.290   2.117   6.221 -0.9057  0.6223 -0.0962
  567MOL0     C74734   2.356   2.092   6.360  0.0792 -1.1640  0.4150
  567MOL0     C74735   2.373   2.241   6.423  0.5374  0.6532 -0.3578
  567MOL0     O74736   2.253   2.323   6.413 -0.4103 -0.7479 -0.3079
  567MOL0     C74737   2.241   2.433   6.493  0.7621 -0.2536 -0.5189
  567MOL0     C74738   2.110   2.485   6.486  0.3599  0.4785 -0.4248
  567MOL0     C74739   2.086   2.610   6.553 -0.5175  0.2841 -0.3128
  567MOL0     C74740   2.191   2.683   6.611  0.1705 -0.4872  0.4327
  567MOL0     C74741   2.161   2.825   6.658 -0.0276 -0.5207 -0.7047
  567MOL0     O74742   2.053   2.889   6.607  0.0413 -0.1542  0.1822
  567MOL0     C74743   1.987   3.001   6.650 -1.7160 -0.8228  0.1559
  567MOL0     C74744   1.896   3.059   6.569 -0.3773 -0.2650  0.9922
  567MOL0     C74745   1.831   3.179   6.601 -0.0689 -0.9835 -0.4561
  567MOL0     C74746   1.864   3.258   6.716  0.4164  0.7582  0.0087
  567MOL0     O74747   1.819   3.386   6.735  0.0883 -1.1309  0.8384
  567MOL0     C74748   1.897   3.489   6.802 -0.9441 -0.7739 -0.0798
  567MOL0     C74749   1.858   3.629   6.750  0.2981 -0.1057  0.7617
  567MOL0     C74750   1.908   3.747   6.841  0.6746 -0.2506 -0.4184
  567MOL0     C74751   1.852   3.885   6.782  0.4891  0.4761 -0.8672
  567MOL0     C74752   1.699   3.896   6.776 -0.3233 -0.1704  0.0335
  567MOL0     C74753   1.624   3.842   6.898 -0.1067  0.1761 -0.0359
  567MOL0     C74754   1.476   3.876   6.882 -0.4841  0.3462 -0.8497
  567MOL0     C74755   1.388   3.827   6.993  0.0941 -0.8090 -0.2182
  567MOL0    Cl74756   1.465   3.876   7.150  0.5670  0.0328  0.3342
  567MOL0     C74757   1.945   3.190   6.803  0.5850 -0.8025  1.1314
  567MOL0     C74758   2.009   3.064   6.773  0.7436  0.2271 -0.9039
  567MOL0     O74759   2.241   2.875   6.739  0.0587  0.0863 -0.0515
  567MOL0     C74760   2.318   2.625   6.624  0.0857  0.1317 -0.5417
  567MOL0     C74761   2.340   2.500   6.571  0.2682  0.6830 -0.1102
  567MOL0     N74762   2.069   1.952   5.998 -0.8843 -0.1074 -0.1180
  567MOL0     N74763   2.047   1.971   5.869  0.5748  0.9382  0.6077
  567MOL0     C74764   1.144   1.730   5.172  0.4746  1.0167 -0.6831
  567MOL0     C74765   1.004   1.714   5.195 -0.7869  0.4446  0.9741
  567MOL0     C74766   0.597   1.646   5.279 -0.4490 -0.3038 -0.8264
  567MOL0     C74767   0.543   1.513   5.248 -0.0925 -0.7205 -0.9696
  567MOL0     C74768   0.414   1.507   5.206  0.7810  0.5901 -0.5902
  567MOL0     C74769   0.326   1.612   5.201 -0.0651  0.1601 -0.1654
  567MOL0     O74770   0.202   1.581   5.155 -0.2618 -0.1716  0.3282
  567MOL0     C74771   0.120   1.678   5.089 -0.1813 -0.7684 -0.4625
  567MOL0     C74772   0.027   1.731   5.199  0.5006  0.5857  0.9190
  567MOL0     C74773  -0.088   1.810   5.135  0.2662  0.3893 -0.4133
  567MOL0     C74774  -0.038   1.940   5.070 -0.2726 -0.3859  0.8406
  567MOL0     C74775  -0.159   2.018   5.018 -0.7632 -0.6113 -0.2022
  567MOL0     C74776  -0.247   2.090   4.993  0.2611  0.0766 -0.3121
  567MOL0     C74777   0.373   1.738   5.252 -0.2980  0.0714  0.1503
  567MOL0     C74778   0.507   1.749   5.278  0.2650 -0.4593  0.7972
  567MOL0     H74779   0.987   1.949   5.446  1.4466 -0.5859  1.8726
  567MOL0     H74780   1.208   1.963   5.415  1.4467  0.2350 -1.6868
  567MOL0     H74781   1.478   1.831   5.387 -0.6443 -5.5422 -3.4037
  567MOL0     H74782   1.402   1.991   5.338 -0.9380  1.0394 -1.6625
  567MOL0     H74783   1.535   1.956   5.115  3.6535 -0.4508 -1.6577
  567MOL0     H74784   1.600   1.812   5.196 -2.7497 -0.2603 -2.8687
  567MOL0     H74785   1.623   2.108   5.262 -4.8525 -2.5533 -2.5667
  567MOL0     H74786   1.754   2.021   5.197  0.8625  3.7855  0.7441
  567MOL0     H74787   1.649   2.008   5.480 -1.4860  2.4434 -1.3047
  567MOL0     H74788   1.749   1.880   5.409 -0.7801  0.7734  1.2379
  567MOL0     H74789   1.838   2.173   5.445  0.3493 -0.6274 -1.8936
  567MOL0     H74790   1.923   2.046   5.348  0.5057 -1.0015  0.4761
  567MOL0     H74791   1.971   1.915   5.516 -2.1803 -1.8966 -3.1021
  567MOL0     H74792   1.863   1.995   5.635  2.3596 -1.1896  2.0488
  567MOL0     H74793   2.091   2.166   5.501  2.3627  1.8712  1.0180
  567MOL0     H74794   2.021   2.195   5.647  1.3013  0.8770  0.3609
  567MOL0     H74795   2.252   2.125   5.648 -0.8798  1.6668 -0.7361
  567MOL0     H74796   2.218   1.959   5.618  1.2433  1.4905 -0.7474
  567MOL0     H74797   2.348   2.096   5.879  0.4980 -1.5759 -2.6633
  567MOL0     H74798   2.382   1.964   6.095  1.3311  0.3366  0.9141
  567MOL0     H74799   2.254   1.904   6.203  0.9768  0.8315  0.5452
  567MOL0     H74800   2.189   2.155   6.238 -0.9227  1.0768 -1.1746
  567MOL0     H74801   2.353   2.187   6.164  0.7420  0.5816  1.5588
  567MOL0     H74802   2.306   2.026   6.431 -0.4906 -0.8012  0.3605
  567MOL0     H74803   2.453   2.047   6.337  0.8418  0.7327 -0.2732
  567MOL0     H74804   2.454   2.291   6.369  0.7780  0.7387  0.0819
  567MOL0     H74805   2.404   2.233   6.527  4.0950  0.5164 -1.2745
  567MOL0     H74806   2.030   2.430   6.439 -0.4295  1.8673 -0.7484
  567MOL0     H74807   1.985   2.642   6.575 -0.4879  0.4337 -0.3909
  567MOL0     H74808   1.884   3.023   6.467  1.3801  1.5031  0.0761
  567MOL0     H74809   1.760   3.224   6.532 -0.7599 -0.7543  0.3829
  567MOL0     H74810   2.005   3.473   6.796 -0.8360 -1.1090  2.0292
  567MOL0     H74811   1.865   3.479   6.906 -1.8644 -0.7328 -0.3567
  567MOL0     H74812   1.749   3.625   6.758  0.2401  1.3968  0.9948
  567MOL0     H74813   1.890   3.633   6.646  2.9254 -2.2332  1.3739
  567MOL0     H74814   2.016   3.744   6.857  0.3647 -0.2470  1.9799
  567MOL0     H74815   1.867   3.732   6.941  1.3825 -0.5246 -0.1662
  567MOL0     H74816   1.888   3.956   6.857 -2.6173 -1.6144  3.0026
  567MOL0     H74817   1.884   3.916   6.683 -0.8283  0.1940 -1.3942
  567MOL0     H74818   1.665   3.852   6.682 -3.1537  1.1473  0.3392
  567MOL0     H74819   1.685   4.004   6.784  4.3781  0.6551 -0.2592
  567MOL0     H74820   1.654   3.895   6.988 -3.1133 -0.9448  1.7817
  567MOL0     H74821   1.650   3.739   6.923 -0.0966 -0.1546 -1.3174
  567MOL0     H74822   1.465   3.984   6.900 -0.1411  0.2556 -0.0494
  567MOL0     H74823   1.436   3.845   6.785  0.3975 -1.1739 -0.7539
  567MOL0     H74824   1.388   3.717   6.997 -0.1425 -0.8125 -0.3241
  567MOL0     H74825   1.285   3.862   6.993  0.4823  0.7477  3.3256
  567MOL0     H74826   1.960   3.247   6.894 -1.0885  1.2222  0.2269
  567MOL0     H74827   2.082   3.021   6.842 -0.8415  0.5947  1.1202
  567MOL0     H74828   2.400   2.680   6.670  0.4455  0.6009 -1.7045
  567MOL0     H74829   2.437   2.451   6.575 -0.9770 -2.1182 -1.3597
  567MOL0     H74830   1.203   1.667   5.106 -1.7788  0.0358 -1.8528
  567MOL0     H74831   0.961   1.637   5.133  0.2117 -1.0829  2.0912
  567MOL0     H74832   0.615   1.432   5.250  1.8802  0.9138 -2.1163
  567MOL0     H74833   0.366   1.420   5.162 -1.2615  1.3652  0.0038
  567MOL0     H74834   0.047   1.636   5.019 -2.1779  1.8526 -0.0718
  567MOL0     H74835   0.171   1.750   5.024 -1.1160  1.2899  0.9823
  567MOL0     H74836  -0.014   1.642   5.248  2.2201 -1.0185 -0.4153
  567MOL0     H74837   0.085   1.781   5.278 -3.3232  0.6540  4.0108
  567MOL0     H74838  -0.153   1.845   5.217  2.6022  1.0742  1.2553
  567MOL0     H74839  -0.163   1.750   5.083 -0.9839  1.4655  0.0797
  567MOL0     H74840   0.017   1.999   5.144  1.1028  1.0046 -1.1784
  567MOL0     H74841   0.021   1.910   4.982  0.2741 -3.9204  2.2372
  567MOL0     H74842  -0.331   2.146   4.957  2.8785  2.3900 -3.4303
  567MOL0     H74843   0.307   1.823   5.266  0.3094  0.2902  2.0035
  567MOL0     H74844   0.547   1.848   5.296 -0.3352  0.6683 -3.1174
  568MOL0     O74845   0.699   3.622   4.155  0.8158  0.3014  0.3849
  568MOL0     C74846   0.702   3.523   4.227 -0.4237  1.3969 -0.1566
  568MOL0     O74847   0.593   3.468   4.280  0.1038 -0.2474 -0.3660
  568MOL0     C74848   0.468   3.517   4.256  0.5438  0.2305 -0.9805
  568MOL0     C74849   0.411   3.505   4.124 -0.3906  0.1842 -0.9618
  568MOL0     C74850   0.279   3.544   4.103 -0.1179 -0.6701 -0.0852
  568MOL0     C74851   0.193   3.582   4.205 -1.2838  0.0604 -0.3369
  568MOL0     O74852   0.064   3.598   4.171  0.4750  0.0922  0.3069
  568MOL0     C74853  -0.025   3.674   4.243 -0.5493 -1.0074  0.0475
  568MOL0     C74854  -0.129   3.576   4.282  0.0725  0.5172 -0.0853
  568MOL0     C74855  -0.250   3.654   4.359 -0.9880  0.2861  0.0720
  568MOL0     C74856  -0.357   3.538   4.395  0.2434 -0.4822 -0.9126
  568MOL0     C74857  -0.480   3.581   4.486  0.6121  0.1986 -1.1761
  568MOL0     C74858  -0.573   3.454   4.500  0.5548  1.1167 -0.2673
  568MOL0     C74859  -0.625   3.452   4.647  0.2421 -0.5441  0.1809
  568MOL0     C74860  -0.723   3.330   4.660 -0.3108  0.0395  0.2234
  568MOL0     N74861  -0.784   3.326   4.794 -0.6552 -0.3626  0.5530
  568MOL0     C74862  -0.725   3.294   4.916  0.1367 -0.0795  0.2068
  568MOL0     C74863  -0.801   3.340   5.018  0.0456 -0.3517 -0.4894
  568MOL0     C74864  -0.788   3.327   5.174  0.0567 -0.8023 -0.2186
  568MOL0     C74865  -0.880   3.418   5.254 -0.5751 -0.2957 -0.1485
  568MOL0     C74866  -0.830   3.568   5.232 -0.1441 -0.0137  0.1371
  568MOL0     C74867  -0.913   3.671   5.305 -0.3236 -0.9143 -0.2807
  568MOL0     O74868  -0.923   3.631   5.441 -0.4490  0.3540 -0.3866
  568MOL0     C74869  -0.993   3.720   5.519  0.3691  0.0835 -0.2739
  568MOL0     C74870  -1.017   3.859   5.498  0.3223 -0.6015 -0.5247
  568MOL0     C74871  -1.091   3.936   5.590  0.6625 -0.3094 -0.8366
  568MOL0     C74872  -1.133   3.885   5.714 -0.1278  0.2663 -0.1604
  568MOL0     C74873  -1.217   3.978   5.810 -0.6714 -0.9653  0.1134
  568MOL0     O74874  -1.320   3.929   5.876 -0.8165 -0.1405 -0.2353
  568MOL0     C74875  -1.392   4.014   5.948  0.6770 -0.0770  0.8858
  568MOL0     C74876  -1.351   4.059   6.074 -0.7360 -0.0781  0.7873
  568MOL0     C74877  -1.422   4.154   6.148 -0.0015  0.4476 -0.2314
  568MOL0     C74878  -1.542   4.199   6.099 -0.2223 -0.5909 -0.7318
  568MOL0     O74879  -1.605   4.278   6.194 -0.2609 -0.2127  0.3145
  568MOL0     C74880  -1.728   4.345   6.166  0.4369  0.5775 -0.0256
  568MOL0     C74881  -1.768   4.419   6.294 -0.1189  0.4905  1.2633
  568MOL0     C74882  -1.693   4.553   6.322  0.3284  0.0652 -0.0523
  568MOL0     C74883  -1.531   4.544   6.363  0.7047  0.4427  0.2250
  568MOL0     C74884  -1.457   4.675   6.367 -0.1241  0.3123  0.2465
  568MOL0     C74885  -1.306   4.646   6.387  0.3248 -0.2352  0.7360
  568MOL0     C74886  -1.223   4.761   6.445 -0.1424  0.0921  0.0759
  568MOL0     C74887  -1.189   4.867   6.339 -0.2001  0.0851 -0.5254
  568MOL0    Cl74888  -1.105   5.001   6.432 -0.0927  0.1387  0.0384
  568MOL0     C74889  -1.587   4.151   5.977  0.3124  0.1813  0.6822
  568MOL0     C74890  -1.512   4.057   5.900 -0.2733 -0.9381  0.1280
  568MOL0     O74891  -1.186   4.102   5.810  0.1435 -0.1416 -0.3499
  568MOL0     C74892  -1.109   3.744   5.738 -0.3818  0.0290  0.7025
  568MOL0     C74893  -1.040   3.675   5.646 -0.1167  0.3657  0.8699
  568MOL0     N74894  -0.908   3.406   4.954  1.0062 -0.8775 -0.1835
  568MOL0     N74895  -0.903   3.374   4.826 -0.3006  0.0465  0.4555
  568MOL0     C74896   0.243   3.583   4.331  0.0666  0.6484  0.3194
  568MOL0     C74897   0.379   3.546   4.361  0.1967  0.4997  0.1815
  568MOL0     C74898   0.829   3.462   4.270 -0.8897 -0.0378 -0.5520
  568MOL0     C74899   0.953   3.493   4.200  0.3472  0.4332 -0.4130
  568MOL0     C74900   1.069   3.423   4.237 -0.5905 -0.0751 -0.8106
  568MOL0     C74901   1.068   3.333   4.343 -0.2329 -0.4321  0.6465
  568MOL0     O74902   1.187   3.272   4.378  1.3095 -0.3545  0.6267
  568MOL0     C74903   1.239   3.313   4.501  0.3403 -0.7089 -0.4963
  568MOL0     C74904   1.391   3.303   4.505 -0.8933 -0.2229  1.5641
  568MOL0     C74905   1.470   3.370   4.621 -0.7263  0.1174  0.1222
  568MOL0     C74906   1.416   3.357   4.755  0.1850 -0.2004 -0.3154
  568MOL0     C74907   1.397   3.214   4.794  0.0862 -0.3493  0.8260
  568MOL0     C74908   1.367   3.102   4.838 -0.6514 -0.5085  0.2819
  568MOL0     C74909   0.949   3.298   4.403 -0.0177  0.7912 -0.8357
  568MOL0     C74910   0.829   3.363   4.370  1.0426 -0.0136 -0.4357
  568MOL0     H74911   0.465   3.481   4.033  0.5506 -0.6559 -0.2030
  568MOL0     H74912   0.231   3.538   4.006  0.6969 -0.4030 -0.5143
  568MOL0     H74913  -0.076   3.738   4.169 -0.1711  0.1770  0.7901
  568MOL0     H74914   0.011   3.744   4.319  0.4237 -0.8193 -0.5703
  568MOL0     H74915  -0.089   3.497   4.345 -0.6826 -1.1546 -1.6021
  568MOL0     H74916  -0.172   3.538   4.188 -0.7038  3.2986 -0.9707
  568MOL0     H74917  -0.303   3.729   4.299  2.0462  0.1593 -3.0058
  568MOL0     H74918  -0.211   3.700   4.450 -1.1108  0.6454 -0.0552
  568MOL0     H74919  -0.388   3.483   4.306  3.1159 -1.9554 -1.0975
  568MOL0     H74920  -0.294   3.474   4.457 -2.7826 -0.7147  2.2890
  568MOL0     H74921  -0.540   3.659   4.440 -1.0173 -0.4638 -0.2520
  568MOL0     H74922  -0.447   3.619   4.584 -2.3221 -4.3821  1.9800
  568MOL0     H74923  -0.510   3.365   4.486 -0.9980  0.1308 -1.2156
  568MOL0     H74924  -0.644   3.457   4.417  0.4806  1.3438 -0.1950
  568MOL0     H74925  -0.535   3.449   4.709 -0.5013  1.7002  1.4722
  568MOL0     H74926  -0.680   3.545   4.662  2.4921  1.5750 -3.0996
  568MOL0     H74927  -0.670   3.240   4.629 -1.0477  0.5671 -2.8917
  568MOL0     H74928  -0.801   3.347   4.585 -0.2700  1.1507  0.4147
  568MOL0     H74929  -0.638   3.232   4.938  2.3868  2.8955  0.2788
  568MOL0     H74930  -0.692   3.352   5.220 -1.0370  0.3990  1.5736
  568MOL0     H74931  -0.810   3.223   5.199 -1.5587 -0.5572 -0.5141
  568MOL0     H74932  -0.863   3.402   5.360  1.1082  0.4625 -0.2594
  568MOL0     H74933  -0.985   3.406   5.225 -0.4624  0.7503 -1.1134
  568MOL0     H74934  -0.727   3.583   5.266  0.9321  2.6859 -3.6673
  568MOL0     H74935  -0.814   3.581   5.124  1.9144 -0.5012  0.3309
  568MOL0     H74936  -1.010   3.677   5.253 -0.0578  0.5345 -0.6441
  568MOL0     H74937  -0.861   3.766   5.297  0.8709 -1.6455 -1.8091
  568MOL0     H74938  -0.980   3.914   5.412  0.9048  0.4993  0.3929
  568MOL0     H74939  -1.103   4.042   5.571  1.4863  1.1925  5.0067
  568MOL0     H74940  -1.252   4.035   6.111  0.5306 -2.7760 -3.6554
  568MOL0     H74941  -1.382   4.180   6.246  1.6850  1.1561 -1.0576
  568MOL0     H74942  -1.802   4.273   6.133  0.2299 -0.2482  2.1029
  568MOL0     H74943  -1.701   4.415   6.086  0.1435  2.7224  1.6374
  568MOL0     H74944  -1.751   4.365   6.388  0.0925  0.8196  1.4172
  568MOL0     H74945  -1.874   4.448   6.288  0.2566  1.7641  0.4967
  568MOL0     H74946  -1.749   4.601   6.403  2.6602  1.7450  0.6679
  568MOL0     H74947  -1.708   4.620   6.237 -4.5760  2.4912  2.3058
  568MOL0     H74948  -1.525   4.508   6.466 -1.6991  0.5302  0.4555
  568MOL0     H74949  -1.472   4.482   6.294  2.3646  0.1188  1.8807
  568MOL0     H74950  -1.494   4.731   6.453 -0.7381 -3.2567  2.5394
  568MOL0     H74951  -1.475   4.734   6.277  1.5860  1.5485  0.6755
  568MOL0     H74952  -1.264   4.620   6.289 -1.3239  6.2177 -2.2257
  568MOL0     H74953  -1.295   4.561   6.454 -3.1247 -0.8423  0.7207
  568MOL0     H74954  -1.279   4.826   6.512  1.1404 -1.8287  3.2673
  568MOL0     H74955  -1.137   4.717   6.497 -1.1118 -0.4700  1.2449
  568MOL0     H74956  -1.270   4.911   6.281  1.2854  1.4794 -1.6195
  568MOL0     H74957  -1.122   4.825   6.264  2.8407  2.8322  0.4202
  568MOL0     H74958  -1.680   4.184   5.930  0.4778 -0.6752 -0.2975
  568MOL0     H74959  -1.562   4.022   5.811 -2.4067  0.8795  0.5161
  568MOL0     H74960  -1.140   3.691   5.827 -0.7547 -3.5353 -1.3563
  568MOL0     H74961  -1.025   3.568   5.657  0.6280  0.5868  2.1497
  568MOL0     H74962   0.182   3.604   4.418 -2.4160  0.6476 -1.3231
  568MOL0     H74963   0.414   3.545   4.463 -0.3115 -1.5591  0.3883
  568MOL0     H74964   0.948   3.569   4.123 -1.7223 -2.7703 -3.7081
  568MOL0     H74965   1.162   3.448   4.187 -0.7753  0.4223 -0.9104
  568MOL0     H74966   1.193   3.256   4.583  0.6174  0.5356  0.5618
  568MOL0     H74967   1.214   3.417   4.522  1.0929 -0.4098 -1.0505
  568MOL0     H74968   1.430   3.201   4.490 -0.9888  0.0018 -0.5281
  568MOL0     H74969   1.427   3.342   4.409 -0.9078 -1.9536  0.8035
  568MOL0     H74970   1.485   3.474   4.589  2.2766 -0.4876 -0.7632
  568MOL0     H74971   1.572   3.331   4.630  0.4396  2.8513 -0.2659
  568MOL0     H74972   1.487   3.407   4.820 -2.5398  1.5293  1.5391
  568MOL0     H74973   1.317   3.404   4.751 -0.9541 -2.4564 -0.6144
  568MOL0     H74974   1.339   3.008   4.879  1.7671 -1.4736 -0.1100
  568MOL0     H74975   0.942   3.229   4.487  0.4840  0.4247 -1.0892
  568MOL0     H74976   0.739   3.335   4.424  1.6494  0.8417  1.0467
  569MOL0     O74977   5.000   3.632   9.419 -0.4958  0.2234  0.5566
  569MOL0     C74978   5.045   3.588   9.314 -1.2352 -0.4355  0.6394
  569MOL0     O74979   4.977   3.526   9.218 -0.1826 -0.9364  0.4664
  569MOL0     C74980   4.845   3.555   9.221  0.3633 -0.7139  0.2599
  569MOL0     C74981   4.808   3.687   9.183  0.3670  0.3530 -0.0786
  569MOL0     C74982   4.664   3.720   9.190  0.3170 -0.6545  1.4604
  569MOL0     C74983   4.569   3.620   9.220  1.1027 -0.5729  0.7347
  569MOL0     O74984   4.431   3.651   9.235 -0.1444 -0.1308 -0.3954
  569MOL0     C74985   4.370   3.695   9.113  0.9342  0.3394 -0.7648
  569MOL0     C74986   4.238   3.764   9.153 -0.5107  0.4501  0.3490
  569MOL0     C74987   4.179   3.825   9.025  1.1358 -0.3277  0.2737
  569MOL0     C74988   4.133   3.732   8.908  0.6060 -0.0242 -0.1600
  569MOL0     C74989   4.040   3.618   8.952 -0.2163 -0.8501 -1.1800
  569MOL0     C74990   3.980   3.533   8.841  0.0758  0.2596 -0.8241
  569MOL0     C74991   4.075   3.448   8.764 -0.9088  0.1044  0.5480
  569MOL0     C74992   4.123   3.320   8.827 -1.5358 -0.5410  0.4427
  569MOL0     N74993   4.268   3.334   8.874 -0.0094  0.0636 -0.7455
  569MOL0     C74994   4.382   3.366   8.800 -0.3859  0.0737 -0.6860
  569MOL0     C74995   4.485   3.347   8.886  0.2019  0.4413  0.1283
  569MOL0     C74996   4.629   3.378   8.851  0.1310  0.5936 -0.8273
  569MOL0     C74997   4.636   3.536   8.828  1.1291  0.8389  0.0509
  569MOL0     C74998   4.777   3.600   8.810  0.0149  0.1199 -0.9258
  569MOL0     C74999   4.892   3.506   8.851 -1.4286  1.2736  0.4267
  569MOL0     O75000   5.022   3.554   8.816 -0.2937 -0.1990 -0.0905
  569MOL0     C75001   5.125   3.471   8.826 -1.4930  0.1850 -0.2059
  569MOL0     C75002   5.122   3.344   8.890 -0.4361 -0.2120  0.8717
  569MOL0     C75003   5.234   3.276   8.918 -0.4636  0.6973  0.9279
  569MOL0     C75004   5.361   3.330   8.896 -0.6609  0.5952 -0.2664
  569MOL0     C75005   5.480   3.255   8.915 -0.3464  0.5176  0.3034
  569MOL0     O75006   5.592   3.334   8.959  0.0431  0.2179  0.2236
  569MOL0     C75007   5.703   3.290   9.025 -0.6398  0.3327 -0.3200
  569MOL0     C75008   5.753   3.155   9.035  0.0656 -0.2577 -0.2426
  569MOL0     C75009   5.854   3.123   9.126 -0.5400 -0.7560 -0.1551
  569MOL0     C75010   5.918   3.224   9.197 -0.7852 -0.1377 -0.3952
  569MOL0     O75011   6.025   3.201   9.286  0.2433 -0.4215 -0.2243
  569MOL0     C75012   6.098   3.078   9.294 -0.0774  0.6007 -0.7712
  569MOL0     C75013   6.177   3.040   9.173 -0.4152  0.6533 -0.1549
  569MOL0     C75014   6.220   2.893   9.191  0.1634  0.3402 -1.0135
  569MOL0     C75015   6.323   2.876   9.305 -0.0814 -0.6568  0.2066
  569MOL0     C75016   6.345   2.725   9.312  0.3794  0.3705 -1.5558
  569MOL0     C75017   6.452   2.687   9.207 -0.1321  0.2734 -0.1110
  569MOL0     C75018   6.492   2.537   9.223 -0.6429  0.2111  0.2464
  569MOL0     C75019   6.506   2.471   9.089  0.4685  0.4932  1.2332
  569MOL0    Cl75020   6.627   2.547   9.003  0.1137 -0.0228  0.2893
  569MOL0     C75021   5.873   3.351   9.177  0.0381 -0.1782 -0.2808
  569MOL0     C75022   5.767   3.384   9.093  0.4560 -0.4019  0.4860
  569MOL0     O75023   5.472   3.132   8.910  0.1422  0.3475  0.8509
  569MOL0     C75024   5.370   3.465   8.836  0.1089 -0.3075  0.4579
  569MOL0     C75025   5.248   3.533   8.808  0.7784 -0.4629 -0.3106
  569MOL0     N75026   4.430   3.303   9.000 -0.3811  0.9304  0.0880
  569MOL0     N75027   4.304   3.294   8.995 -0.0600  0.5376  0.0393
  569MOL0     C75028   4.606   3.493   9.247 -0.1981 -0.2356  1.0972
  569MOL0     C75029   4.739   3.463   9.250  0.0545 -0.3848 -0.7115
  569MOL0     C75030   5.187   3.620   9.283  0.2002  1.3698  0.1878
  569MOL0     C75031   5.276   3.622   9.392  0.5163 -0.7507 -0.5965
  569MOL0     C75032   5.407   3.674   9.377 -0.1131  0.3609 -0.3151
  569MOL0     C75033   5.448   3.712   9.254 -1.4782  0.6573 -0.1595
  569MOL0     O75034   5.580   3.761   9.252 -0.5921 -0.3034 -0.4491
  569MOL0     C75035   5.641   3.803   9.128  0.6073 -0.0144  0.6970
  569MOL0     C75036   5.618   3.948   9.096 -0.2404 -0.3833 -0.0009
  569MOL0     C75037   5.668   4.052   9.202 -0.2682  0.1262  1.5940
  569MOL0     C75038   5.634   4.190   9.170  0.0249  0.0105  0.5893
  569MOL0     C75039   5.714   4.228   9.051  0.6090 -0.7600  0.0437
  569MOL0     C75040   5.775   4.274   8.966 -0.0630  0.7030 -0.0225
  569MOL0     C75041   5.372   3.691   9.145 -0.2780  0.1067 -0.6549
  569MOL0     C75042   5.242   3.654   9.152  0.9846 -0.1521 -0.2669
  569MOL0     H75043   4.876   3.761   9.142  1.4712 -0.4774  0.2156
  569MOL0     H75044   4.632   3.816   9.150  2.3236 -0.3293  0.4979
  569MOL0     H75045   4.343   3.617   9.042 -0.8230 -0.3894  0.6288
  569MOL0     H75046   4.435   3.771   9.067  2.0492 -1.7337 -2.8019
  569MOL0     H75047   4.269   3.836   9.229 -0.2481  0.1455  0.5297
  569MOL0     H75048   4.170   3.687   9.188  0.0639  0.0845  0.6709
  569MOL0     H75049   4.242   3.908   8.992  0.0969  1.7822  3.1317
  569MOL0     H75050   4.079   3.859   9.054 -0.5502 -1.9323 -3.0841
  569MOL0     H75051   4.077   3.796   8.840 -2.8925 -0.8802  1.6348
  569MOL0     H75052   4.210   3.688   8.844 -0.5668 -2.2864 -0.1145
  569MOL0     H75053   3.956   3.657   9.010  2.6505 -0.3887  3.1595
  569MOL0     H75054   4.094   3.553   9.022  1.0190  0.6009 -0.7397
  569MOL0     H75055   3.932   3.612   8.782  2.3256  2.0648 -0.4268
  569MOL0     H75056   3.908   3.465   8.886  2.7358 -2.4486 -0.2918
  569MOL0     H75057   4.034   3.421   8.666  1.4467 -0.9308 -0.2132
  569MOL0     H75058   4.160   3.509   8.735 -1.1788 -0.4279 -1.5716
  569MOL0     H75059   4.102   3.244   8.752 -1.3598  1.2717 -1.5381
  569MOL0     H75060   4.060   3.287   8.911 -2.0580 -0.6060  0.0308
  569MOL0     H75061   4.400   3.396   8.698  1.1290  0.0190 -0.4689
  569MOL0     H75062   4.651   3.333   8.754  0.6306 -2.9246  0.7744
  569MOL0     H75063   4.701   3.332   8.919  1.3941  1.1451 -1.7485
  569MOL0     H75064   4.594   3.567   8.925  0.5542 -2.3123  0.9385
  569MOL0     H75065   4.574   3.552   8.740  2.8017 -1.2007 -1.5877
  569MOL0     H75066   4.784   3.643   8.710  1.4173  1.8312 -0.1427
  569MOL0     H75067   4.780   3.683   8.881 -3.1889  0.5563 -1.1511
  569MOL0     H75068   4.886   3.409   8.800  2.7466  0.9354  0.2484
  569MOL0     H75069   4.876   3.493   8.959 -1.9133 -2.5043  0.0537
  569MOL0     H75070   5.027   3.296   8.911  0.6151 -2.3994  0.8905
  569MOL0     H75071   5.232   3.175   8.959 -0.2383  0.2809 -0.0583
  569MOL0     H75072   5.690   3.092   8.973  0.7188  0.9232 -2.2024
  569MOL0     H75073   5.898   3.025   9.138 -1.5431 -1.0816  1.0340
  569MOL0     H75074   6.035   2.999   9.335  1.7315 -0.1467  0.7492
  569MOL0     H75075   6.171   3.090   9.375  3.9429 -3.5795 -3.3218
  569MOL0     H75076   6.269   3.098   9.164 -0.6248  0.7134 -2.2906
  569MOL0     H75077   6.130   3.054   9.076  2.0645  1.2021 -1.3528
  569MOL0     H75078   6.266   2.863   9.096 -2.3601 -2.3429 -1.5161
  569MOL0     H75079   6.125   2.841   9.199 -0.7937  2.1310 -0.1668
  569MOL0     H75080   6.416   2.931   9.289  0.6198 -1.4282  1.4286
  569MOL0     H75081   6.293   2.913   9.403  3.9252 -0.8512  1.7142
  569MOL0     H75082   6.253   2.669   9.292 -0.4388  0.0768  2.2241
  569MOL0     H75083   6.382   2.698   9.411 -1.0499 -1.0009 -1.3514
  569MOL0     H75084   6.538   2.755   9.210  0.1073 -0.0452  1.7251
  569MOL0     H75085   6.400   2.712   9.114 -3.0102  1.3713  1.6287
  569MOL0     H75086   6.591   2.521   9.268 -0.4722 -2.4947 -0.9111
  569MOL0     H75087   6.421   2.485   9.288 -2.5003  0.1113 -1.7755
  569MOL0     H75088   6.408   2.476   9.040 -0.1018 -1.3679  2.1257
  569MOL0     H75089   6.522   2.364   9.101 -1.7741  0.1655  1.7864
  569MOL0     H75090   5.909   3.432   9.240 -0.0756  1.0579 -1.7458
  569MOL0     H75091   5.723   3.482   9.103 -1.0307 -0.5475 -3.2551
  569MOL0     H75092   5.468   3.508   8.819  0.4252 -0.7618  1.0720
  569MOL0     H75093   5.236   3.633   8.767 -3.6563 -1.7356 -2.7397
  569MOL0     H75094   4.540   3.415   9.283  0.2815 -1.3444 -0.2969
  569MOL0     H75095   4.769   3.364   9.286  2.1702  0.6505  0.5973
  569MOL0     H75096   5.239   3.596   9.490 -1.7772 -0.0199 -1.2034
  569MOL0     H75097   5.475   3.673   9.462 -1.9459  2.4155  1.2968
  569MOL0     H75098   5.607   3.734   9.050 -0.0978 -1.5287  2.2710
  569MOL0     H75099   5.747   3.779   9.142  0.4642 -2.6273 -1.6694
  569MOL0     H75100   5.663   3.957   8.997  2.0847  0.6341  1.0896
  569MOL0     H75101   5.511   3.970   9.087 -0.3822 -0.4139  1.3387
  569MOL0     H75102   5.775   4.058   9.223  0.1457  1.3391 -0.6010
  569MOL0     H75103   5.627   4.030   9.301 -2.2166  0.3022  0.8722
  569MOL0     H75104   5.527   4.200   9.149  0.3146  0.7376 -0.6461
  569MOL0     H75105   5.661   4.257   9.252  3.2042 -2.0383  1.3735
  569MOL0     H75106   5.820   4.301   8.872 -1.8840  0.6013 -0.9513
  569MOL0     H75107   5.417   3.703   9.047 -1.2826 -1.5873 -1.3597
  569MOL0     H75108   5.182   3.665   9.062 -0.3726  0.8515  0.7075
  570MOL0     O75109   6.986  10.280   2.145 -0.0857  0.7640 -0.2774
  570MOL0     C75110   6.880  10.319   2.182  0.3467  0.6389  0.5802
  570MOL0     O75111   6.818  10.443   2.155  0.2426  0.4884 -0.7039
  570MOL0     C75112   6.871  10.521   2.066  0.5337  0.2215  0.4625
  570MOL0     C75113   6.912  10.652   2.101  0.5130  0.4597  0.8743
  570MOL0     C75114   6.974  10.742   2.010  0.2168 -0.1979 -0.1656
  570MOL0     C75115   6.986  10.695   1.871  0.3209 -0.6951 -0.8140
  570MOL0     O75116   7.045  10.793   1.789  0.5591 -0.0410  0.2243
  570MOL0     C75117   7.093  10.743   1.662 -0.3338  0.3078  0.2070
  570MOL0     C75118   7.165  10.859   1.572 -0.1359  0.3483  0.4680
  570MOL0     C75119   7.277  10.808   1.472  0.1915 -0.1724  0.8837
  570MOL0     C75120   7.263  10.687   1.389  0.1365  0.7174 -0.7361
  570MOL0     C75121   7.142  10.694   1.303  0.3690 -0.5038  0.8892
  570MOL0     C75122   7.122  10.570   1.220  0.6097  0.3175 -0.9282
  570MOL0     C75123   6.999  10.560   1.135 -0.1428 -0.1940  0.1442
  570MOL0     C75124   6.865  10.563   1.225 -1.2459 -0.0546  0.1949
  570MOL0     N75125   6.862  10.446   1.302 -0.2435  0.8014  0.5256
  570MOL0     C75126   6.836  10.319   1.245 -0.5207 -0.3504  0.0492
  570MOL0     C75127   6.868  10.231   1.339  0.0179 -0.2391  0.4341
  570MOL0     C75128   6.852  10.083   1.306 -0.0290  0.2702 -0.3075
  570MOL0     C75129   6.952   9.989   1.372  0.0244  0.5933 -0.0044
  570MOL0     C75130   6.984   9.853   1.303 -1.4069  0.5793  0.2039
  570MOL0     C75131   6.863   9.759   1.304 -0.5658 -0.2608  0.1499
  570MOL0     O75132   6.746   9.812   1.263  0.6096  0.2092 -0.1374
  570MOL0     C75133   6.631   9.733   1.250 -0.2345 -0.2723 -0.2155
  570MOL0     C75134   6.514   9.801   1.214 -0.3951  0.1223  0.1984
  570MOL0     C75135   6.391   9.746   1.213  0.2907  0.0425 -0.4012
  570MOL0     C75136   6.385   9.607   1.221  0.5138  0.2172  0.6213
  570MOL0     C75137   6.248   9.546   1.190 -0.2301 -0.3790  0.0523
  570MOL0     O75138   6.239   9.409   1.193  0.3435 -0.2009  0.1794
  570MOL0     C75139   6.124   9.367   1.119 -0.4920  0.6189 -0.1558
  570MOL0     C75140   6.110   9.390   0.984 -0.0279  0.1370 -0.3832
  570MOL0     C75141   6.016   9.328   0.906  0.5337 -0.4239 -0.0200
  570MOL0     C75142   5.913   9.249   0.974  0.9176  0.6995  0.4956
  570MOL0     O75143   5.807   9.210   0.898  0.1514  0.4239  0.3590
  570MOL0     C75144   5.710   9.109   0.934  0.0508 -0.7005 -0.2675
  570MOL0     C75145   5.750   8.983   0.859  0.2125 -0.2558  0.7735
  570MOL0     C75146   5.774   9.010   0.708 -0.1494  0.1198 -0.1536
  570MOL0     C75147   5.834   8.893   0.641  0.3913  0.2459 -0.3159
  570MOL0     C75148   5.855   8.925   0.480 -0.5685  0.1736 -0.7397
  570MOL0     C75149   5.961   9.028   0.456 -0.1789  0.0463  0.1427
  570MOL0     C75150   6.101   8.990   0.502 -0.2096 -0.7237 -0.4144
  570MOL0     C75151   6.179   9.106   0.549  0.4116 -0.1381  0.9125
  570MOL0    Cl75152   6.350   9.048   0.587  0.1211  0.2881 -0.1829
  570MOL0     C75153   5.932   9.214   1.110 -0.0164  0.2191 -0.0058
  570MOL0     C75154   6.034   9.272   1.184 -0.3184 -0.3981  0.1198
  570MOL0     O75155   6.143   9.616   1.172 -0.5391  0.1310 -0.5219
  570MOL0     C75156   6.503   9.528   1.235 -0.0540 -0.4079 -0.5630
  570MOL0     C75157   6.624   9.596   1.254  0.0928  0.6627 -0.5171
  570MOL0     N75158   6.906  10.302   1.451 -0.0528  0.2607  0.0669
  570MOL0     N75159   6.923  10.427   1.427 -0.4613  0.0127  0.8633
  570MOL0     C75160   6.946  10.566   1.839 -1.0801  0.7295  0.8997
  570MOL0     C75161   6.894  10.480   1.926  0.0139  0.5899 -0.3051
  570MOL0     C75162   6.791  10.230   2.271  0.5150 -0.2013 -0.5155
  570MOL0     C75163   6.845  10.114   2.336  0.6717 -0.2391  0.2568
  570MOL0     C75164   6.767  10.032   2.414  0.2766  0.2067 -0.5315
  570MOL0     C75165   6.630  10.058   2.436  0.1467 -0.2160  0.4532
  570MOL0     O75166   6.550   9.977   2.528 -0.0751 -0.3614  0.2856
  570MOL0     C75167   6.623   9.919   2.634  0.2981 -1.5291  0.3156
  570MOL0     C75168   6.540   9.852   2.739 -0.1999 -0.0381  0.0328
  570MOL0     C75169   6.477   9.718   2.697 -1.3814 -0.8183  0.0738
  570MOL0     C75170   6.403   9.659   2.811 -0.2975  0.5410 -0.6809
  570MOL0     C75171   6.319   9.549   2.757 -0.2138  0.6884 -0.1951
  570MOL0     C75172   6.245   9.455   2.723 -0.3902 -0.4552 -0.0433
  570MOL0     C75173   6.567  10.162   2.367 -0.7354 -0.4791 -0.6568
  570MOL0     C75174   6.654  10.255   2.295 -0.0610 -0.2128  0.0726
  570MOL0     H75175   6.912  10.680   2.206  1.9226  0.1456  0.9697
  570MOL0     H75176   7.003  10.840   2.046  4.0481 -0.1483 -2.6892
  570MOL0     H75177   7.011  10.702   1.601  0.4778  2.8551 -2.8561
  570MOL0     H75178   7.161  10.661   1.687 -0.1854  0.6177  0.8264
  570MOL0     H75179   7.208  10.929   1.645 -0.3902 -0.6879  1.6550
  570MOL0     H75180   7.083  10.908   1.519  0.7929 -1.6049 -3.0762
  570MOL0     H75181   7.369  10.803   1.531 -1.1793 -0.8628  3.0494
  570MOL0     H75182   7.282  10.889   1.398 -3.1386  0.9620  1.7157
  570MOL0     H75183   7.348  10.685   1.320  0.4016  2.0912 -0.4872
  570MOL0     H75184   7.272  10.591   1.440 -1.8246 -0.8865 -3.1670
  570MOL0     H75185   7.149  10.776   1.231 -3.5086  0.7978  1.7289
  570MOL0     H75186   7.055  10.722   1.364 -1.3132 -0.1074 -1.5213
  570MOL0     H75187   7.118  10.476   1.275  1.0695 -0.2355 -1.8247
  570MOL0     H75188   7.204  10.555   1.150  1.0157 -0.3075 -0.3308
  570MOL0     H75189   7.014  10.639   1.061  1.1340 -1.4955 -1.0758
  570MOL0     H75190   6.995  10.468   1.075 -0.0660  0.0054 -0.1667
  570MOL0     H75191   6.779  10.565   1.156  0.1397 -0.3938 -1.6290
  570MOL0     H75192   6.866  10.643   1.299  2.9109  1.0716 -0.8115
  570MOL0     H75193   6.801  10.283   1.148 -2.5017  0.2324  0.5057
  570MOL0     H75194   6.854  10.071   1.197 -0.2909 -2.2018 -0.0964
  570MOL0     H75195   6.755  10.062   1.352  0.4732  1.7841  1.5595
  570MOL0     H75196   6.913   9.965   1.471 -0.9570  0.5401 -0.3867
  570MOL0     H75197   7.042  10.046   1.396  0.1269 -0.0387  1.1799
  570MOL0     H75198   7.018   9.868   1.200 -0.5557 -1.4190  0.1577
  570MOL0     H75199   7.076   9.817   1.349 -0.9818  1.7001  0.2737
  570MOL0     H75200   6.854   9.726   1.408 -4.1890 -1.2554 -0.3388
  570MOL0     H75201   6.880   9.668   1.245  0.1724 -2.0249  2.8827
  570MOL0     H75202   6.528   9.905   1.189 -0.7368  1.1868  3.7901
  570MOL0     H75203   6.301   9.798   1.181  0.1867 -0.9912 -1.8851
  570MOL0     H75204   6.186   9.440   0.925  2.7423 -3.3156 -0.0803
  570MOL0     H75205   6.024   9.335   0.798  1.1794  1.3553  0.1129
  570MOL0     H75206   5.608   9.140   0.909  0.4977  1.0825  0.0026
  570MOL0     H75207   5.706   9.101   1.043 -2.9964  0.4462 -0.1937
  570MOL0     H75208   5.673   8.905   0.869 -0.9260  0.5222 -1.2215
  570MOL0     H75209   5.841   8.944   0.903  0.8965  0.9648  0.4855
  570MOL0     H75210   5.834   9.099   0.689 -1.4806  0.4841 -3.3045
  570MOL0     H75211   5.684   9.030   0.650  0.3235 -1.0704 -1.3285
  570MOL0     H75212   5.929   8.872   0.692  0.2664 -0.6013 -0.4171
  570MOL0     H75213   5.758   8.815   0.648 -0.7437  1.3035 -0.4581
  570MOL0     H75214   5.763   8.956   0.430 -1.5350 -0.0487  0.8134
  570MOL0     H75215   5.901   8.840   0.428  2.4098  0.3708  1.3294
  570MOL0     H75216   5.928   9.125   0.495 -1.7454 -0.5387  0.3312
  570MOL0     H75217   5.983   9.037   0.349 -0.2855 -1.6159 -0.0469
  570MOL0     H75218   6.097   8.920   0.586  1.4733  1.0565  1.2312
  570MOL0     H75219   6.150   8.933   0.422 -0.8590 -4.9822  1.9114
  570MOL0     H75220   6.136   9.146   0.641 -3.8681 -2.7125  0.3232
  570MOL0     H75221   6.170   9.186   0.475 -0.7992 -1.2187 -0.1679
  570MOL0     H75222   5.867   9.148   1.166  1.1021 -0.6152  0.3564
  570MOL0     H75223   6.040   9.249   1.290 -2.8711 -2.0514 -0.0247
  570MOL0     H75224   6.481   9.421   1.231 -0.5817 -0.2860 -1.0115
  570MOL0     H75225   6.719   9.546   1.268  0.9236  2.0273 -1.1600
  570MOL0     H75226   6.969  10.524   1.742 -0.6892 -4.9825  3.0784
  570MOL0     H75227   6.873  10.377   1.898  1.0602  0.1593  0.4041
  570MOL0     H75228   6.947  10.083   2.313  0.9099  2.0625 -2.2775
  570MOL0     H75229   6.814   9.943   2.456  0.3834  0.4848 -0.0571
  570MOL0     H75230   6.672  10.005   2.681 -2.0526 -0.6280  1.2265
  570MOL0     H75231   6.703   9.851   2.602  1.3965 -0.7616  1.3478
  570MOL0     H75232   6.608   9.835   2.823 -0.5277 -2.1563 -0.0883
  570MOL0     H75233   6.457   9.916   2.771 -0.6027 -1.3776  1.7541
  570MOL0     H75234   6.555   9.642   2.688  1.4980  1.9050  0.1902
  570MOL0     H75235   6.423   9.717   2.603  2.1557 -2.5092 -2.1618
  570MOL0     H75236   6.473   9.611   2.880  0.9793  0.7735 -1.7805
  570MOL0     H75237   6.332   9.725   2.861  0.2533  1.8525 -1.5788
  570MOL0     H75238   6.183   9.372   2.696  1.0350 -1.0359 -1.7008
  570MOL0     H75239   6.461  10.178   2.385 -0.3099  1.3497  0.3861
  570MOL0     H75240   6.605  10.342   2.252  0.4976  1.8006  3.1398
  571MOL0     O75241   4.759   7.827   5.539  0.4991  0.0446  0.3936
  571MOL0     C75242   4.743   7.886   5.429 -0.0206  0.4275 -0.2077
  571MOL0     O75243   4.660   7.993   5.402  0.0540  1.3441  0.0770
  571MOL0     C75244   4.561   8.042   5.485  0.3030  0.4198  0.0226
  571MOL0     C75245   4.486   7.955   5.568 -0.1964 -0.2551  0.4718
  571MOL0     C75246   4.371   8.010   5.636 -0.0392  0.1633  0.2942
  571MOL0     C75247   4.342   8.147   5.640 -0.0270  0.0886 -0.9332
  571MOL0     O75248   4.247   8.191   5.727  1.0865  0.8281 -0.0495
  571MOL0     C75249   4.192   8.326   5.718  0.6547  0.5842  0.0376
  571MOL0     C75250   4.069   8.353   5.810  0.3092 -0.1216  0.6102
  571MOL0     C75251   3.941   8.262   5.777 -1.0396  0.0276  0.4330
  571MOL0     C75252   3.871   8.327   5.659 -0.0040 -0.1942  0.8972
  571MOL0     C75253   3.738   8.256   5.631 -0.2524 -0.1527  0.5520
  571MOL0     C75254   3.664   8.341   5.528 -0.1161 -0.0573 -0.2543
  571MOL0     C75255   3.524   8.292   5.494 -0.3943  0.3479  0.1115
  571MOL0     C75256   3.497   8.224   5.360  0.2360  0.1446  0.6919
  571MOL0     N75257   3.374   8.151   5.343  0.6379  0.5369 -0.1943
  571MOL0     C75258   3.362   8.014   5.361 -0.3594 -0.2560 -0.7457
  571MOL0     C75259   3.234   7.985   5.332  0.1611  0.2025  0.1438
  571MOL0     C75260   3.181   7.842   5.339  0.9748 -0.2463  0.9461
  571MOL0     C75261   3.023   7.837   5.343 -0.4631  0.5384 -0.3127
  571MOL0     C75262   2.958   7.700   5.299 -0.5496 -0.2073  1.0810
  571MOL0     C75263   2.958   7.674   5.148 -0.4897  0.0459  0.2681
  571MOL0     O75264   3.053   7.567   5.124 -0.7527 -0.3933 -0.9824
  571MOL0     C75265   3.041   7.512   4.999 -0.5716 -0.5798 -0.4994
  571MOL0     C75266   3.118   7.403   4.978 -0.6286 -0.3906  0.2953
  571MOL0     C75267   3.111   7.330   4.852 -0.2540  0.7544 -0.5781
  571MOL0     C75268   3.008   7.367   4.760 -0.0798  0.3828 -1.0182
  571MOL0     C75269   2.972   7.294   4.636 -0.7445 -0.4483  0.2030
  571MOL0     O75270   2.851   7.308   4.582  0.0881  0.2619  1.3765
  571MOL0     C75271   2.801   7.213   4.489  1.1640 -0.5554  0.8194
  571MOL0     C75272   2.663   7.227   4.449 -1.0075 -0.7083  0.3814
  571MOL0     C75273   2.607   7.133   4.362 -0.1689 -0.2826  0.4697
  571MOL0     C75274   2.676   7.034   4.294  0.0455  0.3779  0.1902
  571MOL0     O75275   2.615   6.950   4.205  0.4685  0.2906  0.7119
  571MOL0     C75276   2.475   6.934   4.219  0.4934  0.2695 -0.2178
  571MOL0     C75277   2.425   6.846   4.098 -0.5593 -0.2064 -0.9568
  571MOL0     C75278   2.442   6.937   3.973  1.4802  0.2335  0.7741
  571MOL0     C75279   2.407   6.855   3.851 -0.1816 -0.2045 -0.3781
  571MOL0     C75280   2.458   6.934   3.727 -0.8845 -0.4754 -0.6980
  571MOL0     C75281   2.432   6.865   3.593 -0.8160  0.5672  1.0493
  571MOL0     C75282   2.516   6.733   3.569  1.9658 -0.7844 -0.8578
  571MOL0     C75283   2.515   6.685   3.433 -0.4265  0.0593  0.1990
  571MOL0    Cl75284   2.601   6.811   3.334  0.3007  0.0427 -0.2145
  571MOL0     C75285   2.815   7.024   4.326  0.0184  0.4117 -0.5574
  571MOL0     C75286   2.872   7.106   4.427  1.0841 -0.5998 -0.9886
  571MOL0     O75287   3.061   7.214   4.608 -0.2910 -0.8066  0.3223
  571MOL0     C75288   2.941   7.489   4.781 -0.0220 -0.9343 -1.3789
  571MOL0     C75289   2.959   7.559   4.898  1.0094  0.4012 -0.0646
  571MOL0     N75290   3.172   8.100   5.279  0.4837  0.1772  0.2628
  571MOL0     N75291   3.252   8.196   5.305 -0.3250 -0.2862  0.9002
  571MOL0     C75292   4.421   8.230   5.562 -0.6060 -0.9839  0.3553
  571MOL0     C75293   4.530   8.179   5.482 -0.4736 -0.3151  0.6404
  571MOL0     C75294   4.819   7.837   5.308  0.7068 -0.6521  0.1566
  571MOL0     C75295   4.920   7.740   5.323 -0.4900  0.0246 -0.5905
  571MOL0     C75296   4.995   7.699   5.209  0.3871  0.8630  0.6471
  571MOL0     C75297   4.959   7.743   5.081 -0.4860  0.8783  0.0731
  571MOL0     O75298   5.026   7.696   4.980 -0.8991 -0.1867  0.5096
  571MOL0     C75299   4.960   7.598   4.910  0.6994  0.3538 -0.3740
  571MOL0     C75300   5.046   7.563   4.780 -0.2375 -0.4549 -0.5653
  571MOL0     C75301   4.978   7.468   4.700 -0.0332 -0.1427  0.9244
  571MOL0     C75302   5.054   7.445   4.561  1.1800 -0.4845  0.2029
  571MOL0     C75303   4.964   7.399   4.458  0.2383  0.0092 -1.0954
  571MOL0     C75304   4.905   7.357   4.363 -0.3844  0.0969 -0.0289
  571MOL0     C75305   4.851   7.837   5.069 -0.0493  0.9940  0.2267
  571MOL0     C75306   4.787   7.880   5.181 -0.1184 -0.0093 -0.2760
  571MOL0     H75307   4.519   7.853   5.589 -1.9266 -1.0078 -0.2781
  571MOL0     H75308   4.312   7.947   5.702 -0.4815  0.0014 -0.2429
  571MOL0     H75309   4.161   8.345   5.614 -0.1378  0.9789  0.3380
  571MOL0     H75310   4.268   8.403   5.735  2.4308 -1.2956  0.9736
  571MOL0     H75311   4.042   8.459   5.814  2.5388  0.4940  0.9100
  571MOL0     H75312   4.089   8.324   5.914  0.8939  1.1585  0.8789
  571MOL0     H75313   3.877   8.258   5.866  1.4806  0.7987  2.4310
  571MOL0     H75314   3.982   8.163   5.757  4.0694  2.2877 -2.4366
  571MOL0     H75315   3.843   8.430   5.682 -1.2356  0.1753 -1.7853
  571MOL0     H75316   3.935   8.320   5.570  1.7531 -1.1344  2.1522
  571MOL0     H75317   3.683   8.257   5.726  1.5281 -1.2956  1.6464
  571MOL0     H75318   3.744   8.155   5.590  1.6760 -1.1039  2.9183
  571MOL0     H75319   3.726   8.329   5.439 -0.7928  0.7199 -0.8524
  571MOL0     H75320   3.666   8.446   5.560  0.9074  0.1153 -0.8549
  571MOL0     H75321   3.507   8.204   5.557 -0.5252  0.9833  0.9827
  571MOL0     H75322   3.448   8.366   5.521 -1.6236 -1.2256  1.1983
  571MOL0     H75323   3.571   8.146   5.341  0.7169  0.7532  0.0121
  571MOL0     H75324   3.521   8.292   5.277 -0.5494 -2.7498 -2.1420
  571MOL0     H75325   3.436   7.940   5.389  0.0411  0.7620  1.0475
  571MOL0     H75326   3.213   7.781   5.424  0.5836 -1.9363 -0.0792
  571MOL0     H75327   3.210   7.790   5.248 -1.2510  2.0201 -1.2034
  571MOL0     H75328   2.981   7.920   5.286  0.6725  1.5022  0.1877
  571MOL0     H75329   2.990   7.849   5.446 -1.6938  0.3546 -0.6761
  571MOL0     H75330   2.994   7.612   5.354 -0.1636 -0.0079  1.1515
  571MOL0     H75331   2.852   7.705   5.322 -0.9224  2.5785 -0.8011
  571MOL0     H75332   2.976   7.762   5.086  0.2749  0.0475  0.4820
  571MOL0     H75333   2.861   7.637   5.114  0.3631 -0.9463 -1.2707
  571MOL0     H75334   3.190   7.382   5.057 -0.1894  1.0434  0.3089
  571MOL0     H75335   3.175   7.243   4.841 -0.1844  0.9412 -1.8547
  571MOL0     H75336   2.601   7.305   4.491 -0.6166  0.1632 -0.6298
  571MOL0     H75337   2.503   7.157   4.344 -0.8083 -2.0101  1.6269
  571MOL0     H75338   2.410   7.022   4.220  1.1825  0.8348 -1.6856
  571MOL0     H75339   2.465   6.874   4.310  0.8188 -0.1570 -0.4609
  571MOL0     H75340   2.318   6.828   4.116 -2.0188  3.4035 -4.6036
  571MOL0     H75341   2.490   6.758   4.096  0.7368  0.6390  0.8242
  571MOL0     H75342   2.544   6.977   3.963  1.1179  1.0733  0.3899
  571MOL0     H75343   2.372   7.021   3.978 -0.9249 -1.2008 -3.5685
  571MOL0     H75344   2.455   6.757   3.859  1.4647  0.4945 -1.2666
  571MOL0     H75345   2.298   6.850   3.852 -0.3590  2.1497  1.5548
  571MOL0     H75346   2.567   6.940   3.734 -1.0331  1.1913  1.1303
  571MOL0     H75347   2.405   7.029   3.728  0.8826  0.6624  2.9595
  571MOL0     H75348   2.436   6.938   3.512  1.4628  0.0759  0.6508
  571MOL0     H75349   2.328   6.832   3.595 -0.8254  0.5070  0.0470
  571MOL0     H75350   2.619   6.745   3.605  1.5067  1.2202 -0.0901
  571MOL0     H75351   2.472   6.646   3.619  0.3077  2.0303  3.1332
  571MOL0     H75352   2.411   6.676   3.399 -0.7168  0.6994  0.8821
  571MOL0     H75353   2.560   6.587   3.420 -2.0386 -0.7720  0.6161
  571MOL0     H75354   2.878   6.949   4.280  1.3899  1.2500 -0.1138
  571MOL0     H75355   2.975   7.081   4.452  0.4144 -1.1945  1.5010
  571MOL0     H75356   2.900   7.539   4.694  0.0145  2.2530  0.2758
  571MOL0     H75357   2.922   7.660   4.912  1.5215  0.6667 -0.5373
  571MOL0     H75358   4.423   8.339   5.570  1.2647 -1.1067  2.4762
  571MOL0     H75359   4.586   8.246   5.417 -1.2620  0.4967  0.7718
  571MOL0     H75360   4.950   7.712   5.424  3.3061  0.9586 -1.3101
  571MOL0     H75361   5.086   7.640   5.202  0.2226  0.6998 -0.4302
  571MOL0     H75362   4.863   7.642   4.881  1.4979  2.6072  0.1480
  571MOL0     H75363   4.946   7.503   4.963 -0.6614  1.8351  2.1331
  571MOL0     H75364   5.056   7.650   4.716  1.0802 -0.7716 -0.8230
  571MOL0     H75365   5.143   7.520   4.809 -1.1400 -0.5686  2.7887
  571MOL0     H75366   4.876   7.504   4.685 -1.3416 -1.9628  4.3741
  571MOL0     H75367   4.967   7.373   4.754 -1.5570  1.0941  2.8961
  571MOL0     H75368   5.086   7.539   4.515 -1.0457  1.3934  2.2182
  571MOL0     H75369   5.136   7.375   4.574  1.1942 -0.6752 -0.8236
  571MOL0     H75370   4.844   7.318   4.285 -1.7834  0.6111  0.7688
  571MOL0     H75371   4.816   7.883   4.977 -1.0416  1.5293  0.8480
  571MOL0     H75372   4.704   7.950   5.168  0.0036  1.1655  3.8121
  572MOL0     O75373   8.772   1.766   4.892  0.6668  0.6283  0.2117
  572MOL0     C75374   8.838   1.866   4.914 -0.2049  0.4040  0.0494
  572MOL0     O75375   8.824   1.990   4.864  0.6897 -0.4662 -0.8499
  572MOL0     C75376   8.726   1.993   4.769  0.1292 -0.7202  0.4581
  572MOL0     C75377   8.740   1.918   4.655 -0.1745  0.2106 -0.8174
  572MOL0     C75378   8.645   1.915   4.556  1.2687  0.0888  0.2473
  572MOL0     C75379   8.543   2.008   4.552  0.6213 -0.2087 -0.7772
  572MOL0     O75380   8.457   2.009   4.445 -0.3391 -0.3259 -0.2761
  572MOL0     C75381   8.345   2.094   4.438 -0.1840 -1.1477  0.1473
  572MOL0     C75382   8.239   2.017   4.360  0.0424  0.0311 -0.2664
  572MOL0     C75383   8.109   2.090   4.342 -0.3794 -0.0531  1.2369
  572MOL0     C75384   8.125   2.209   4.238  0.2463  0.0374  1.1542
  572MOL0     C75385   7.986   2.261   4.224  0.1321 -0.6732  0.1530
  572MOL0     C75386   7.970   2.359   4.108 -0.3850  0.4114 -0.1015
  572MOL0     C75387   7.829   2.427   4.100  0.0073 -0.5392  0.1087
  572MOL0     C75388   7.827   2.568   4.024 -0.0453 -1.0938  0.2915
  572MOL0     N75389   7.691   2.627   4.044  0.0429  0.2233  0.9263
  572MOL0     C75390   7.663   2.729   4.124  0.6000 -0.4186 -0.6151
  572MOL0     C75391   7.524   2.725   4.132  1.4389 -0.5662 -0.2380
  572MOL0     C75392   7.436   2.816   4.214  0.4371  0.2602 -0.3001
  572MOL0     C75393   7.494   2.806   4.359  0.1909 -0.4118  0.9611
  572MOL0     C75394   7.411   2.900   4.441 -0.6859 -0.5694  0.4243
  572MOL0     C75395   7.464   2.902   4.584  0.1997 -1.3760 -0.3887
  572MOL0     O75396   7.411   2.783   4.648  0.0836  0.3023 -0.7858
  572MOL0     C75397   7.493   2.704   4.719 -0.1196  0.5418 -0.1615
  572MOL0     C75398   7.437   2.582   4.751  0.5361 -0.3602 -0.3288
  572MOL0     C75399   7.498   2.495   4.837  1.2796  1.0039  0.2827
  572MOL0     C75400   7.621   2.524   4.897 -0.2045 -0.6617  0.2186
  572MOL0     C75401   7.695   2.429   4.988  0.3387 -0.1271 -0.5963
  572MOL0     O75402   7.809   2.472   5.061  0.0155 -0.9302 -0.1953
  572MOL0     C75403   7.879   2.371   5.130 -0.2509 -0.7606 -0.1936
  572MOL0     C75404   7.945   2.408   5.249  0.7518 -0.1031 -0.1949
  572MOL0     C75405   8.024   2.317   5.316 -0.0464 -0.0597  0.7050
  572MOL0     C75406   8.039   2.180   5.278 -0.2012  0.4262 -0.1288
  572MOL0     O75407   8.128   2.083   5.330 -0.6621 -0.0698 -0.6103
  572MOL0     C75408   8.154   2.086   5.472 -0.2795 -0.2748 -0.1212
  572MOL0     C75409   8.036   2.054   5.565 -1.1915 -0.5135  0.6399
  572MOL0     C75410   8.088   2.061   5.722 -0.0289  0.4816  0.9556
  572MOL0     C75411   7.975   2.029   5.816 -0.2202  0.0987  0.1782
  572MOL0     C75412   8.022   2.038   5.964  0.7730  0.7289 -0.2996
  572MOL0     C75413   7.901   2.041   6.049  0.1280 -1.0447 -0.9742
  572MOL0     C75414   7.832   2.183   6.080 -0.7244  0.0788  0.1641
  572MOL0     C75415   7.682   2.149   6.104  0.3724 -0.1390 -0.3800
  572MOL0    Cl75416   7.604   2.310   6.112 -0.1023  0.2819  0.1817
  572MOL0     C75417   7.973   2.149   5.159  0.1156 -0.1252  0.1451
  572MOL0     C75418   7.896   2.239   5.084 -0.8452 -0.1753 -0.2006
  572MOL0     O75419   7.623   2.325   5.013 -0.3590 -0.3242  0.0473
  572MOL0     C75420   7.672   2.659   4.881  0.0814  1.0225 -0.0747
  572MOL0     C75421   7.608   2.744   4.790 -1.0684 -0.0485  0.6352
  572MOL0     N75422   7.479   2.619   4.062 -0.2759  0.6029  0.1379
  572MOL0     N75423   7.576   2.558   4.014  0.6263  0.2230  0.3782
  572MOL0     C75424   8.538   2.100   4.659  0.3591  0.1580 -0.3862
  572MOL0     C75425   8.626   2.089   4.769 -0.2179  0.1168 -0.6234
  572MOL0     C75426   8.925   1.851   5.037 -0.1488  0.3418  0.2082
  572MOL0     C75427   8.881   1.773   5.137 -0.1767  0.5876  0.1903
  572MOL0     C75428   8.968   1.766   5.255  0.1704 -0.2426  0.6320
  572MOL0     C75429   9.088   1.831   5.264 -0.6808  0.0433 -1.5379
  572MOL0     O75430   9.191   1.812   5.352  0.3118 -0.5161  0.7510
  572MOL0     C75431   9.158   1.835   5.485  0.5838 -0.2634 -0.7867
  572MOL0     C75432   9.287   1.906   5.535  0.0110 -0.4609  0.7260
  572MOL0     C75433   9.265   1.943   5.687 -0.6945 -0.8106 -0.0259
  572MOL0     C75434   9.409   1.965   5.754  0.9075 -0.1712  0.2630
  572MOL0     C75435   9.496   2.057   5.677 -0.5619 -0.1256  0.1547
  572MOL0     C75436   9.558   2.149   5.616 -0.0196  0.6808  0.5658
  572MOL0     C75437   9.109   1.928   5.166 -1.0464  0.1485  0.4263
  572MOL0     C75438   9.041   1.925   5.047 -0.3278 -0.4567  0.4255
  572MOL0     H75439   8.819   1.843   4.657 -1.6758 -1.4364  0.5779
  572MOL0     H75440   8.643   1.843   4.475  0.7460  0.5343 -0.1460
  572MOL0     H75441   8.374   2.186   4.386 -0.0714 -2.0494 -1.4534
  572MOL0     H75442   8.299   2.108   4.536 -0.1032 -1.5869  0.2494
  572MOL0     H75443   8.219   1.928   4.420  1.0381  0.4061  0.6584
  572MOL0     H75444   8.285   1.985   4.266  0.1107 -1.4540  0.2601
  572MOL0     H75445   8.060   2.117   4.436 -2.3860 -1.1965  0.5861
  572MOL0     H75446   8.031   2.024   4.303 -0.0296  0.4730 -0.4279
  572MOL0     H75447   8.199   2.275   4.283  2.0850 -0.7469 -0.5749
  572MOL0     H75448   8.159   2.181   4.138 -2.5668 -2.6934  0.8099
  572MOL0     H75449   7.952   2.304   4.319 -2.1635  2.4121 -1.8397
  572MOL0     H75450   7.904   2.189   4.216 -0.8197  0.2823  0.9761
  572MOL0     H75451   7.995   2.305   4.016  0.9975 -3.2141  2.2017
  572MOL0     H75452   8.055   2.428   4.116 -1.5879  1.8243  0.9233
  572MOL0     H75453   7.753   2.369   4.048  1.1372 -0.2493 -1.9711
  572MOL0     H75454   7.787   2.430   4.201 -0.7651  0.4274 -0.2297
  572MOL0     H75455   7.845   2.563   3.916  1.9096  2.1852  0.3456
  572MOL0     H75456   7.900   2.639   4.063 -5.0637  4.4450  0.9404
  572MOL0     H75457   7.731   2.803   4.166 -0.6131  0.5173 -0.2268
  572MOL0     H75458   7.335   2.775   4.214 -0.1504  1.1915  4.0405
  572MOL0     H75459   7.426   2.918   4.173 -0.8672  0.5123  0.5970
  572MOL0     H75460   7.600   2.830   4.361 -0.2051  1.8437 -0.6296
  572MOL0     H75461   7.501   2.709   4.409  5.2373 -0.7186  0.1449
  572MOL0     H75462   7.409   3.001   4.398 -3.3801  0.6357  2.9965
  572MOL0     H75463   7.307   2.865   4.441 -2.1167  3.0313 -2.2085
  572MOL0     H75464   7.424   2.989   4.636 -1.6552 -0.0299 -3.7313
  572MOL0     H75465   7.572   2.914   4.575 -0.1442  1.7365 -1.8814
  572MOL0     H75466   7.338   2.559   4.715 -0.2120  2.8580 -0.6395
  572MOL0     H75467   7.443   2.406   4.866  2.1647 -0.0926 -1.2567
  572MOL0     H75468   7.938   2.510   5.286 -0.8419 -1.0827  2.5176
  572MOL0     H75469   8.080   2.365   5.395  2.0101  1.0922 -1.3405
  572MOL0     H75470   8.205   2.179   5.498  1.2144 -0.9885 -0.4016
  572MOL0     H75471   8.231   2.012   5.497  2.8847  2.7328 -0.1742
  572MOL0     H75472   7.987   1.958   5.542 -0.5781 -0.3579 -1.6197
  572MOL0     H75473   7.964   2.133   5.544  0.6307  0.9457 -0.4014
  572MOL0     H75474   8.135   2.157   5.744  1.3021 -0.3056  1.7280
  572MOL0     H75475   8.171   1.988   5.725 -0.5548 -0.0991  1.8662
  572MOL0     H75476   7.901   2.107   5.796  2.4258  2.4674 -1.0315
  572MOL0     H75477   7.931   1.930   5.799  0.7918 -1.0615  3.6249
  572MOL0     H75478   8.090   2.122   5.983  0.7442  0.3265  1.8506
  572MOL0     H75479   8.066   1.943   5.995  0.4192  1.0590  1.3000
  572MOL0     H75480   7.920   1.994   6.146 -1.6114  0.6167  0.2439
  572MOL0     H75481   7.824   1.989   5.991 -0.9595  3.0125 -3.5426
  572MOL0     H75482   7.887   2.233   6.160  6.1370 -0.3145 -3.5208
  572MOL0     H75483   7.840   2.250   5.993 -2.7064  1.5292  1.0090
  572MOL0     H75484   7.672   2.080   6.189 -6.0139 -1.9026 -2.0328
  572MOL0     H75485   7.637   2.092   6.022  0.0397 -2.4549  1.3279
  572MOL0     H75486   8.004   2.048   5.133  2.0568  0.2408  0.9115
  572MOL0     H75487   7.838   2.191   5.005 -2.0222 -1.3558  1.2961
  572MOL0     H75488   7.767   2.692   4.922  0.8651 -0.0897 -0.9551
  572MOL0     H75489   7.655   2.842   4.785  1.1288 -1.0848 -1.8044
  572MOL0     H75490   8.459   2.174   4.661 -1.9378 -2.1265 -1.4914
  572MOL0     H75491   8.617   2.163   4.848  0.9483  1.5659 -1.7991
  572MOL0     H75492   8.793   1.710   5.134 -0.6574  0.9727  3.2406
  572MOL0     H75493   8.939   1.688   5.325 -6.5834 -0.5418 -1.7017
  572MOL0     H75494   9.133   1.744   5.540 -2.0220  1.0362  0.3761
  572MOL0     H75495   9.077   1.907   5.500  0.2879 -0.9047  0.9358
  572MOL0     H75496   9.381   1.852   5.521  1.0040  1.3819 -0.0408
  572MOL0     H75497   9.295   2.001   5.481  2.2963 -1.1372 -0.2166
  572MOL0     H75498   9.212   1.868   5.746 -0.2799 -1.1715 -0.1070
  572MOL0     H75499   9.215   2.040   5.693  2.6520  1.1077 -0.4103
  572MOL0     H75500   9.404   1.999   5.858  0.9224  0.3709  0.0889
  572MOL0     H75501   9.454   1.865   5.753 -2.0148 -1.5965 -1.2745
  572MOL0     H75502   9.620   2.217   5.560  0.8137 -2.2287 -2.3276
  572MOL0     H75503   9.195   1.993   5.172 -1.5772  0.9980 -0.7129
  572MOL0     H75504   9.074   1.978   4.958 -1.7610 -1.0859 -0.5166
  573MOL0     O75505   8.769  10.253   8.094 -0.1198 -0.5002 -0.2228
  573MOL0     C75506   8.872  10.245   8.027  0.2027  1.3583 -0.9952
  573MOL0     O75507   8.966  10.337   8.018  0.0207  0.3829 -0.4082
  573MOL0     C75508   8.943  10.460   8.073 -0.5499 -0.4733 -0.6264
  573MOL0     C75509   9.045  10.513   8.150 -0.1931 -0.1363  0.1616
  573MOL0     C75510   9.036  10.637   8.213  0.4284 -0.4077 -0.2328
  573MOL0     C75511   8.921  10.720   8.184 -1.1322 -0.0097 -0.6171
  573MOL0     O75512   8.899  10.845   8.231 -0.4826 -0.2270 -0.8367
  573MOL0     C75513   9.027  10.924   8.254 -0.6645 -1.9306  0.4578
  573MOL0     C75514   8.980  11.065   8.261  0.5268  0.3529  0.2921
  573MOL0     C75515   8.896  11.096   8.380 -0.9027 -0.3355 -0.2749
  573MOL0     C75516   8.961  11.065   8.509 -0.4750 -0.4727 -0.1903
  573MOL0     C75517   8.870  11.107   8.623 -0.8605  0.0482 -0.0789
  573MOL0     C75518   8.910  11.038   8.752  0.1238  0.6100  0.5749
  573MOL0     C75519   8.811  11.073   8.865  0.0448 -0.0585  1.1725
  573MOL0     C75520   8.840  10.995   8.995 -0.0720 -0.4199 -0.1427
  573MOL0     N75521   8.745  11.041   9.098  0.3246 -0.3015 -0.2597
  573MOL0     C75522   8.773  11.107   9.220 -0.1240  0.5252  0.2438
  573MOL0     C75523   8.651  11.132   9.278 -0.6666 -0.2050 -0.1665
  573MOL0     C75524   8.650  11.244   9.384 -0.6304  0.0205  0.5405
  573MOL0     C75525   8.549  11.219   9.484 -0.5955 -0.4168 -0.2851
  573MOL0     C75526   8.531  11.324   9.596  0.1593 -0.2997 -0.7341
  573MOL0     C75527   8.421  11.307   9.701  1.1000  0.3703  0.3507
  573MOL0     O75528   8.296  11.258   9.649 -0.1463  0.0623  1.0891
  573MOL0     C75529   8.178  11.279   9.720 -0.2647 -0.7940 -0.0753
  573MOL0     C75530   8.174  11.318   9.853 -0.4319  0.0826  0.3846
  573MOL0     C75531   8.051  11.355   9.915 -0.4625  0.4064 -0.2170
  573MOL0     C75532   7.934  11.364   9.836 -0.7084 -0.3695  0.5425
  573MOL0     C75533   7.804  11.399   9.896 -0.6005  0.2423  0.2836
  573MOL0     O75534   7.814  11.450  10.018 -0.4428  0.4886 -0.7236
  573MOL0     C75535   7.695  11.459  10.084 -0.0135  0.1202 -0.1579
  573MOL0     C75536   7.630  11.580  10.096 -0.6385 -0.0752 -0.3924
  573MOL0     C75537   7.500  11.598  10.149  0.3021  0.2155 -1.1609
  573MOL0     C75538   7.425  11.487  10.202  0.1758  0.4118  0.8865
  573MOL0     O75539   7.301  11.481  10.266  0.7824  0.2866  0.2696
  573MOL0     C75540   7.253  11.597  10.329 -0.1071 -0.3973 -0.2463
  573MOL0     C75541   7.119  11.553  10.386  0.3830 -0.0343 -0.1144
  573MOL0     C75542   7.041  11.667  10.434 -0.3289  0.7548  0.7400
  573MOL0     C75543   6.895  11.629  10.467  0.0248  0.6489  0.0896
  573MOL0     C75544   6.829  11.733  10.546 -0.1208  0.2392  0.1571
  573MOL0     C75545   6.784  11.848  10.447 -0.3080 -0.4110  0.6062
  573MOL0     C75546   6.680  11.937  10.494  0.5038  0.8352  0.0520
  573MOL0     C75547   6.646  12.054  10.404  0.4798  0.7825 -0.3620
  573MOL0    Cl75548   6.506  12.147  10.469 -0.4464 -0.0534  0.0144
  573MOL0     C75549   7.484  11.370  10.174  0.3395  0.2790  0.2672
  573MOL0     C75550   7.609  11.353  10.106  0.1332 -0.3533 -0.1837
  573MOL0     O75551   7.700  11.366   9.843 -0.1946 -0.1481  0.4137
  573MOL0     C75552   7.945  11.331   9.699 -0.5336  0.4577  0.8402
  573MOL0     C75553   8.067  11.285   9.643  0.6591 -0.0973  0.4811
  573MOL0     N75554   8.551  11.104   9.181 -0.7320 -0.6795  0.1435
  573MOL0     N75555   8.608  11.042   9.079 -0.2531 -0.1156  0.2102
  573MOL0     C75556   8.815  10.662   8.114  0.3295  0.3174  0.2353
  573MOL0     C75557   8.828  10.538   8.056 -0.4755  0.5341 -0.8550
  573MOL0     C75558   8.888  10.115   7.959  0.6037  0.0707 -0.8053
  573MOL0     C75559   9.014  10.078   7.898  0.7254 -0.4215 -0.4206
  573MOL0     C75560   9.041   9.945   7.869  0.8467  0.0329  0.2517
  573MOL0     C75561   8.938   9.845   7.867 -0.1873 -0.6330 -0.1529
  573MOL0     O75562   8.942   9.720   7.810  0.1817 -0.3283 -0.3848
  573MOL0     C75563   9.060   9.658   7.768  0.6299  0.0969 -0.6790
  573MOL0     C75564   9.028   9.534   7.689  0.3700  0.1315 -0.1025
  573MOL0     C75565   9.144   9.496   7.597 -0.1293 -0.9917  0.1719
  573MOL0     C75566   9.099   9.375   7.505 -0.0479  0.4318  0.3030
  573MOL0     C75567   8.982   9.402   7.417 -0.5326  0.1591  0.5740
  573MOL0     C75568   8.887   9.427   7.349 -1.0748  0.2940  0.2300
  573MOL0     C75569   8.815   9.880   7.920  0.7135 -0.9645 -0.0205
  573MOL0     C75570   8.789  10.015   7.962 -0.0085  0.8874  0.3345
  573MOL0     H75571   9.135  10.456   8.170  0.9618  0.6848 -2.3297
  573MOL0     H75572   9.124  10.658   8.274  2.4217 -2.2837 -2.2381
  573MOL0     H75573   9.096  10.928   8.169 -2.1215  0.2595 -0.6927
  573MOL0     H75574   9.098  10.913   8.337  0.6352  4.2419  0.6359
  573MOL0     H75575   8.922  11.099   8.175 -3.0187  0.4917  2.5374
  573MOL0     H75576   9.064  11.136   8.266  1.8902 -1.2659  1.4689
  573MOL0     H75577   8.806  11.036   8.366 -0.8126 -0.0134 -2.7494
  573MOL0     H75578   8.852  11.196   8.382  0.7514  0.4092  0.0553
  573MOL0     H75579   8.979  10.958   8.518  0.2708 -0.2770  0.9460
  573MOL0     H75580   9.054  11.124   8.513 -1.0000  0.3383  0.4656
  573MOL0     H75581   8.771  11.079   8.585 -0.7621 -0.5829  0.1233
  573MOL0     H75582   8.869  11.216   8.633 -2.0852  0.0421  0.0675
  573MOL0     H75583   9.007  11.073   8.787  1.4926  0.9395 -3.0720
  573MOL0     H75584   8.917  10.929   8.745 -1.9838  0.5466 -1.9332
  573MOL0     H75585   8.798  11.180   8.886  0.4870  0.0213  1.0463
  573MOL0     H75586   8.717  11.032   8.829  0.5616 -0.1318 -0.1446
  573MOL0     H75587   8.937  11.016   9.041 -0.4534  2.6992 -0.4893
  573MOL0     H75588   8.835  10.889   8.970  2.5055 -0.2866 -1.6736
  573MOL0     H75589   8.866  11.153   9.249  1.0256 -1.4764 -0.1303
  573MOL0     H75590   8.647  11.340   9.332 -0.7259 -1.3854 -2.2376
  573MOL0     H75591   8.748  11.237   9.433 -0.8125 -1.3847  0.7451
  573MOL0     H75592   8.555  11.119   9.529 -1.4315 -0.5557 -0.4660
  573MOL0     H75593   8.450  11.233   9.439 -0.8240 -0.2874  0.2463
  573MOL0     H75594   8.626  11.330   9.650 -0.0295 -2.7110 -0.0007
  573MOL0     H75595   8.510  11.426   9.562  3.5572  0.1533 -1.8379
  573MOL0     H75596   8.395  11.408   9.733 -2.2761  0.8309 -3.0216
  573MOL0     H75597   8.454  11.252   9.789  2.9638 -0.9102 -1.0784
  573MOL0     H75598   8.266  11.308   9.909 -1.6035  2.0111  2.8290
  573MOL0     H75599   8.052  11.379  10.020 -3.3952  0.2579 -0.0684
  573MOL0     H75600   7.675  11.668  10.052  1.1588  1.2776  3.5852
  573MOL0     H75601   7.465  11.698  10.172 -1.0087 -0.2887 -0.8980
  573MOL0     H75602   7.236  11.676  10.254 -1.1000 -1.1484 -0.8253
  573MOL0     H75603   7.318  11.640  10.406  0.2131  0.9693 -1.2205
  573MOL0     H75604   7.121  11.484  10.471  2.6897  2.2279  1.8299
  573MOL0     H75605   7.062  11.505  10.306 -2.0399  0.0469  1.4520
  573MOL0     H75606   7.055  11.740  10.354  0.6826 -1.1800 -0.9236
  573MOL0     H75607   7.081  11.704  10.529  0.6110  0.4440  0.4777
  573MOL0     H75608   6.844  11.626  10.370 -0.7462  1.4375  0.4599
  573MOL0     H75609   6.893  11.531  10.516  0.5618 -0.0412 -1.1968
  573MOL0     H75610   6.892  11.779  10.623  1.1190 -0.6350 -0.3156
  573MOL0     H75611   6.746  11.681  10.595 -0.3129  1.6767  1.4291
  573MOL0     H75612   6.744  11.811  10.353 -3.2206 -0.2469  1.6816
  573MOL0     H75613   6.867  11.912  10.416 -1.7565  0.3295 -1.9899
  573MOL0     H75614   6.590  11.877  10.508  0.2272  0.2598 -3.4007
  573MOL0     H75615   6.714  11.964  10.594  2.1496 -0.3731 -0.1355
  573MOL0     H75616   6.612  12.020  10.306 -0.7272  1.2903 -0.1335
  573MOL0     H75617   6.731  12.123  10.402 -0.8277  2.4466 -2.1113
  573MOL0     H75618   7.436  11.276  10.202  0.0616  0.3714  0.1062
  573MOL0     H75619   7.652  11.256  10.086  0.2313 -0.4628  0.5425
  573MOL0     H75620   7.865  11.337   9.626  0.2501 -2.2856 -0.3613
  573MOL0     H75621   8.077  11.256   9.539 -0.8582 -2.4089  0.9100
  573MOL0     H75622   8.717  10.707   8.102 -0.4176 -1.4744 -0.8799
  573MOL0     H75623   8.752  10.497   7.990 -2.1039  2.1912 -0.0867
  573MOL0     H75624   9.087  10.158   7.894  0.3335  0.0434  1.1174
  573MOL0     H75625   9.129   9.905   7.819  0.1445 -3.4971  1.5465
  573MOL0     H75626   9.139   9.652   7.843  0.2439 -1.3228 -0.3533
  573MOL0     H75627   9.099   9.729   7.695  0.6459 -0.1628 -0.9220
  573MOL0     H75628   9.017   9.459   7.768 -2.8552 -0.0572 -0.5699
  573MOL0     H75629   8.936   9.544   7.631  1.1627 -0.8291 -1.5739
  573MOL0     H75630   9.237   9.475   7.651 -0.4777  3.1833  2.8747
  573MOL0     H75631   9.173   9.582   7.536 -1.9668  0.4414  1.2090
  573MOL0     H75632   9.189   9.345   7.451  0.0051 -0.7462  1.0250
  573MOL0     H75633   9.059   9.292   7.564 -2.0956 -2.0072 -4.0502
  573MOL0     H75634   8.806   9.448   7.282 -1.6322  0.5842  0.9725
  573MOL0     H75635   8.744   9.798   7.924  1.0926 -1.3421 -0.8107
  573MOL0     H75636   8.696  10.026   8.017  0.1279 -2.9011  1.6396
  574MOL0     O75637   7.602  11.025  11.144  0.7176 -0.6662  0.5941
  574MOL0     C75638   7.536  10.942  11.066  0.3635 -0.5963  0.3123
  574MOL0     O75639   7.593  10.837  10.992 -0.6611  0.0607 -0.2806
  574MOL0     C75640   7.721  10.795  11.025 -0.0302 -0.8692  0.9685
  574MOL0     C75641   7.776  10.765  11.155  0.2867 -0.5048  0.1629
  574MOL0     C75642   7.911  10.741  11.175  0.3502 -0.4203  0.5741
  574MOL0     C75643   8.005  10.725  11.074  0.6064  0.6900  0.9427
  574MOL0     O75644   8.128  10.704  11.121  0.6329  0.3141  0.2225
  574MOL0     C75645   8.228  10.735  11.028  0.0949  0.3491  0.7163
  574MOL0     C75646   8.355  10.731  11.102  0.5531 -0.5900 -0.3742
  574MOL0     C75647   8.492  10.712  11.035  0.2415 -0.4220 -0.0379
  574MOL0     C75648   8.484  10.771  10.894  0.3707 -0.1641 -0.1049
  574MOL0     C75649   8.619  10.770  10.832 -0.4380 -0.7670 -0.1704
  574MOL0     C75650   8.667  10.627  10.788 -0.3087 -0.2370 -1.4287
  574MOL0     C75651   8.822  10.642  10.761 -0.1230 -0.7439 -0.5444
  574MOL0     C75652   8.864  10.714  10.629 -0.2714  0.2835  0.2515
  574MOL0     N75653   8.934  10.615  10.542  0.3546  0.5735  0.2281
  574MOL0     C75654   8.873  10.518  10.461 -0.0330 -0.9349 -0.0047
  574MOL0     C75655   8.974  10.449  10.416  0.3282  0.1455  0.4436
  574MOL0     C75656   8.970  10.344  10.313 -0.3595 -0.5545  0.0714
  574MOL0     C75657   9.088  10.347  10.220 -0.2945  0.2602  0.7163
  574MOL0     C75658   9.084  10.456  10.110 -0.4027  0.3812  1.2921
  574MOL0     C75659   9.209  10.451  10.023 -0.0051 -0.4114  0.6995
  574MOL0     O75660   9.198  10.569   9.940  0.0281 -0.0385  0.5425
  574MOL0     C75661   9.302  10.610   9.866 -0.2905  0.6885  0.6697
  574MOL0     C75662   9.430  10.553   9.871 -0.3485 -0.0824  0.6653
  574MOL0     C75663   9.540  10.605   9.792  0.8091  0.1614  0.3296
  574MOL0     C75664   9.526  10.718   9.717 -0.2301 -0.3410 -0.2832
  574MOL0     C75665   9.627  10.762   9.619  0.3095  0.6794  0.7277
  574MOL0     O75666   9.612  10.879   9.556 -0.3686  0.3856 -0.1760
  574MOL0     C75667   9.710  10.906   9.458  0.3006  1.1097 -1.3340
  574MOL0     C75668   9.722  10.824   9.346 -0.0295  0.2192 -0.0689
  574MOL0     C75669   9.818  10.853   9.250  1.3533  0.5694  0.2627
  574MOL0     C75670   9.913  10.954   9.277  0.2579 -0.7739 -0.0872
  574MOL0     O75671  10.009  10.982   9.182  0.6096 -0.0542 -0.3173
  574MOL0     C75672  10.101  10.880   9.155 -0.0289 -0.0459 -0.1244
  574MOL0     C75673  10.200  10.915   9.044  0.0976  0.4120 -0.2547
  574MOL0     C75674  10.154  10.957   8.897  0.4037  0.6251 -1.0582
  574MOL0     C75675  10.263  10.918   8.786  0.4207 -0.3824 -0.2725
  574MOL0     C75676  10.196  10.889   8.658  0.5836 -0.5613 -0.2886
  574MOL0     C75677  10.297  10.843   8.548  0.2307  0.3194  0.1280
  574MOL0     C75678  10.356  10.706   8.587  0.5764  0.6348 -0.2118
  574MOL0     C75679  10.425  10.630   8.472 -0.2551 -1.3311  0.2888
  574MOL0    Cl75680  10.300  10.542   8.378  0.0994  0.2032  0.0659
  574MOL0     C75681   9.890  11.044   9.389  0.2455  0.3938  0.4127
  574MOL0     C75682   9.793  11.011   9.478 -0.0303  0.0196  0.5314
  574MOL0     O75683   9.725  10.682   9.608 -0.2929  0.0616 -0.2028
  574MOL0     C75684   9.400  10.779   9.723 -0.3159  0.4464  0.7581
  574MOL0     C75685   9.295  10.730   9.797 -2.0870 -0.9515 -0.1896
  574MOL0     N75686   9.091  10.493  10.472  0.0639 -0.4408  0.2181
  574MOL0     N75687   9.073  10.599  10.541 -1.0826  0.2475 -0.4362
  574MOL0     C75688   7.952  10.736  10.947  0.5031  0.5596 -0.5339
  574MOL0     C75689   7.817  10.772  10.926  0.9262  0.1721  0.4334
  574MOL0     C75690   7.392  10.973  11.051 -0.0469 -0.1939  0.5051
  574MOL0     C75691   7.299  10.883  11.003  0.1675  0.6193  0.8305
  574MOL0     C75692   7.165  10.913  10.995  0.5286 -0.0038  0.5363
  574MOL0     C75693   7.114  11.039  11.045  0.1475  0.3000  0.6523
  574MOL0     O75694   6.992  11.086  11.026 -1.2163  0.5945 -0.3346
  574MOL0     C75695   6.887  10.993  11.070 -0.5892 -0.0095  0.3838
  574MOL0     C75696   6.816  11.068  11.183 -0.4518 -0.7238 -0.0482
  574MOL0     C75697   6.691  11.016  11.237  0.3432  0.1103 -0.0625
  574MOL0     C75698   6.577  11.015  11.133  1.0880 -0.4461 -1.3218
  574MOL0     C75699   6.461  10.947  11.204 -0.1783  0.2993  0.8562
  574MOL0     C75700   6.360  10.914  11.266  0.1481 -0.7697  1.6047
  574MOL0     C75701   7.200  11.131  11.100  0.5938  0.7151 -0.9500
  574MOL0     C75702   7.338  11.096  11.102  0.4373 -0.3359 -0.3990
  574MOL0     H75703   7.709  10.783  11.238  1.0755 -2.0216  1.1880
  574MOL0     H75704   7.943  10.740  11.279 -0.1121  1.0717  0.7526
  574MOL0     H75705   8.227  10.837  10.989 -0.1984  0.0371 -0.0997
  574MOL0     H75706   8.234  10.655  10.954  2.0629  0.8366  0.2841
  574MOL0     H75707   8.350  10.650  11.175 -0.2051 -1.5712 -1.4814
  574MOL0     H75708   8.360  10.824  11.158  1.3730 -1.1996  0.5951
  574MOL0     H75709   8.518  10.607  11.024  3.1676  0.4328 -2.6586
  574MOL0     H75710   8.575  10.756  11.092  1.8559 -1.2326 -1.6689
  574MOL0     H75711   8.411  10.715  10.834  1.3618 -0.7109 -0.8384
  574MOL0     H75712   8.444  10.872  10.896 -0.8442 -0.5812 -1.5928
  574MOL0     H75713   8.684  10.823  10.902 -0.3037  4.0568 -3.5033
  574MOL0     H75714   8.619  10.828  10.740  2.0027 -1.2373 -0.5389
  574MOL0     H75715   8.622  10.591  10.695 -1.1944 -0.8814 -0.7759
  574MOL0     H75716   8.654  10.558  10.872 -0.9015 -0.1447 -1.4352
  574MOL0     H75717   8.865  10.690  10.850 -0.9628  0.4420 -0.7568
  574MOL0     H75718   8.873  10.545  10.767  3.6342  1.1170  0.1780
  574MOL0     H75719   8.933  10.797  10.647  0.2662 -0.2739  0.7995
  574MOL0     H75720   8.773  10.757  10.587 -2.3547 -2.7289  1.3420
  574MOL0     H75721   8.774  10.508  10.418  1.0489  4.2553 -5.0334
  574MOL0     H75722   8.881  10.362  10.252 -0.3295  1.5374  0.5643
  574MOL0     H75723   8.946  10.244  10.351 -0.6814  0.6139  3.2932
  574MOL0     H75724   9.107  10.248  10.178  2.6808  1.0072  0.0946
  574MOL0     H75725   9.181  10.365  10.275  1.9208 -0.9685 -2.3818
  574MOL0     H75726   8.992  10.451  10.052 -0.5043 -1.2183  1.5635
  574MOL0     H75727   9.081  10.555  10.156 -1.5637  0.4572  1.0868
  574MOL0     H75728   9.217  10.362   9.960  1.5954 -1.9077  2.8779
  574MOL0     H75729   9.304  10.473  10.074 -0.1434  3.7862 -0.5371
  574MOL0     H75730   9.461  10.465   9.926 -0.1295  0.3680  1.2664
  574MOL0     H75731   9.632  10.547   9.789  0.8860  0.3069 -0.2129
  574MOL0     H75732   9.656  10.739   9.332 -0.6451  1.0711 -3.2015
  574MOL0     H75733   9.825  10.797   9.157  1.1161  1.8634 -0.5638
  574MOL0     H75734  10.058  10.785   9.123  0.8278  0.3294 -2.6234
  574MOL0     H75735  10.161  10.864   9.245 -0.8111 -1.3679  0.1793
  574MOL0     H75736  10.245  10.815   9.035 -0.3276  0.3235 -1.6810
  574MOL0     H75737  10.284  10.981   9.066 -0.2187  0.6138  0.3563
  574MOL0     H75738  10.129  11.064   8.887  0.9647  0.6688 -2.1333
  574MOL0     H75739  10.058  10.913   8.869 -1.4600  1.7376  2.8802
  574MOL0     H75740  10.326  11.007   8.775  0.4621 -0.2697  0.7753
  574MOL0     H75741  10.312  10.827   8.823 -1.0095 -1.2925 -0.5472
  574MOL0     H75742  10.144  10.974   8.613  0.5137  0.4508  1.6031
  574MOL0     H75743  10.125  10.809   8.674 -2.1677  1.2538 -2.5415
  574MOL0     H75744  10.381  10.911   8.533  0.8312 -0.3952  0.1850
  574MOL0     H75745  10.254  10.823   8.449  2.6707 -0.1300 -0.9009
  574MOL0     H75746  10.422  10.708   8.675 -1.4950 -0.2174  1.4551
  574MOL0     H75747  10.271  10.641   8.611  1.9005 -0.7047  1.0865
  574MOL0     H75748  10.496  10.561   8.519 -0.0777 -0.5405  1.2171
  574MOL0     H75749  10.471  10.695   8.397  0.3546  0.3573  2.0573
  574MOL0     H75750   9.941  11.139   9.403  1.0265 -0.1598  1.4937
  574MOL0     H75751   9.773  11.080   9.559 -1.0491 -0.4103  0.6462
  574MOL0     H75752   9.382  10.875   9.675  0.1432  0.6449  0.9837
  574MOL0     H75753   9.205  10.791   9.805 -0.6749  1.5791 -2.0138
  574MOL0     H75754   8.020  10.735  10.863 -0.3459  4.4433 -1.4669
  574MOL0     H75755   7.788  10.778  10.821 -1.2159 -1.5419  0.8522
  574MOL0     H75756   7.328  10.782  10.975 -4.0845 -1.0355  1.5191
  574MOL0     H75757   7.097  10.839  10.956  0.1752 -1.4446  3.6349
  574MOL0     H75758   6.929  10.896  11.097  0.3057 -0.5864 -2.7224
  574MOL0     H75759   6.822  10.984  10.982 -1.8208  2.5778  0.9333
  574MOL0     H75760   6.882  11.075  11.270 -0.9703  0.9412  0.2511
  574MOL0     H75761   6.796  11.171  11.155 -0.0170 -1.0018 -1.4239
  574MOL0     H75762   6.666  11.073  11.327  0.4900 -1.5098  1.0437
  574MOL0     H75763   6.720  10.917  11.274  2.6623 -0.1781 -2.3230
  574MOL0     H75764   6.551  11.118  11.110  0.5576 -0.2287  0.1406
  574MOL0     H75765   6.605  10.951  11.049  0.9488  0.7150 -2.2766
  574MOL0     H75766   6.275  10.879  11.320 -0.6541 -0.3156  0.6530
  574MOL0     H75767   7.154  11.219  11.143  0.1113 -0.2362  0.5284
  574MOL0     H75768   7.404  11.174  11.141 -2.1982  2.6958 -1.5628
  575MOL0     O75769   2.415   2.836  10.920 -0.0921  0.1831 -0.1355
  575MOL0     C75770   2.464   2.853  11.030  1.3038  0.0566  0.1565
  575MOL0     O75771   2.415   2.931  11.126  1.0555 -0.6623 -0.4982
  575MOL0     C75772   2.282   2.955  11.123 -0.2806  0.8608  0.1963
  575MOL0     C75773   2.191   2.870  11.198  0.2026 -0.2848 -0.3415
  575MOL0     C75774   2.061   2.897  11.199  0.1212  0.2280 -0.0958
  575MOL0     C75775   2.003   3.004  11.138 -0.7533 -1.0063  0.1351
  575MOL0     O75776   1.870   3.031  11.168  0.5291  0.6142  0.9069
  575MOL0     C75777   1.799   3.130  11.108  0.2325 -0.3686 -0.9228
  575MOL0     C75778   1.651   3.117  11.134  0.1918  0.6786  0.3006
  575MOL0     C75779   1.570   3.250  11.098 -0.5242 -0.8161 -0.7641
  575MOL0     C75780   1.418   3.213  11.118  0.3923  0.2351  0.7676
  575MOL0     C75781   1.338   3.345  11.140 -0.1195  0.2958 -0.4466
  575MOL0     C75782   1.190   3.318  11.123 -0.1074 -1.0059  0.3393
  575MOL0     C75783   1.093   3.433  11.155  0.4698 -0.0647 -0.9586
  575MOL0     C75784   0.945   3.409  11.125  0.1595 -0.4674 -0.1166
  575MOL0     N75785   0.904   3.281  11.174  0.3002 -0.1643 -0.3921
  575MOL0     C75786   0.887   3.241  11.309 -0.0136 -0.3694  0.1130
  575MOL0     C75787   0.846   3.114  11.296 -0.1384  0.2296 -0.4347
  575MOL0     C75788   0.830   3.014  11.398  0.2210  0.3808  0.1058
  575MOL0     C75789   0.684   2.965  11.405  0.1596 -0.0025 -0.1116
  575MOL0     C75790   0.606   3.059  11.496  0.3912 -0.2751  1.0619
  575MOL0     C75791   0.447   3.052  11.469  0.3712  0.5874  0.1799
  575MOL0     O75792   0.402   2.914  11.454  0.3852  0.2154 -0.3100
  575MOL0     C75793   0.266   2.890  11.428  0.4468 -0.9157 -0.1369
  575MOL0     C75794   0.162   2.994  11.420 -0.0395  0.0689  0.0795
  575MOL0     C75795   0.029   2.947  11.393 -0.2045 -0.1868  0.0202
  575MOL0     C75796   0.007   2.816  11.344  0.7027  0.0571 -0.7146
  575MOL0     C75797  -0.127   2.775  11.318 -0.3010 -0.1418 -0.2243
  575MOL0     O75798  -0.236   2.838  11.382  0.4272  0.8049 -0.6885
  575MOL0     C75799  -0.359   2.774  11.375  0.8443  0.2888  0.8128
  575MOL0     C75800  -0.421   2.738  11.250  0.8989  0.9292 -0.2848
  575MOL0     C75801  -0.544   2.671  11.238  0.3322 -0.3244 -0.3643
  575MOL0     C75802  -0.606   2.628  11.355  0.6766 -0.4641  0.6774
  575MOL0     O75803  -0.726   2.564  11.365  0.9840 -0.5877  0.4999
  575MOL0     C75804  -0.834   2.653  11.339  0.3479  0.6558  0.9165
  575MOL0     C75805  -0.925   2.591  11.245 -0.1597  0.3311 -1.4304
  575MOL0     C75806  -0.984   2.465  11.304 -0.2861 -0.6645  0.3470
  575MOL0     C75807  -1.113   2.428  11.233  0.3816 -0.6551  0.3855
  575MOL0     C75808  -1.162   2.293  11.273 -0.1054  1.3551  0.0782
  575MOL0     C75809  -1.290   2.261  11.185 -0.2773 -0.1338  0.1815
  575MOL0     C75810  -1.353   2.133  11.228  0.7211  0.4431  0.5930
  575MOL0     C75811  -1.441   2.075  11.119 -0.5674 -0.1850 -0.3051
  575MOL0    Cl75812  -1.346   2.018  10.976 -0.0826 -0.3405 -0.2808
  575MOL0     C75813  -0.541   2.658  11.477 -0.5952 -0.6247  0.2740
  575MOL0     C75814  -0.422   2.730  11.487  0.0066 -0.2166  0.4180
  575MOL0     O75815  -0.136   2.677  11.243 -0.3691  0.1512  0.2008
  575MOL0     C75816   0.115   2.725  11.349 -0.0187 -0.3740 -0.5650
  575MOL0     C75817   0.235   2.757  11.400 -0.8478  0.1464 -0.1723
  575MOL0     N75818   0.823   3.090  11.165 -0.2172 -0.0791  0.1919
  575MOL0     N75819   0.852   3.189  11.095 -0.1472  0.0761  0.0725
  575MOL0     C75820   2.088   3.094  11.066  0.1645  0.4536 -0.3888
  575MOL0     C75821   2.226   3.070  11.057 -0.0631  0.1526  0.5314
  575MOL0     C75822   2.585   2.768  11.055 -0.9470 -0.4878 -1.4652
  575MOL0     C75823   2.620   2.660  10.970  0.8341  0.1830 -1.2432
  575MOL0     C75824   2.733   2.580  11.007 -0.2223  0.0361  0.3747
  575MOL0     C75825   2.801   2.610  11.129 -0.1345  0.1848 -0.1330
  575MOL0     O75826   2.912   2.540  11.174 -0.3522 -0.2078 -0.0794
  575MOL0     C75827   2.952   2.421  11.096 -0.3823 -0.6216 -0.2232
  575MOL0     C75828   3.075   2.359  11.169 -0.6339 -0.3025  0.0228
  575MOL0     C75829   3.191   2.332  11.077  0.0484 -0.2959  0.5817
  575MOL0     C75830   3.292   2.238  11.130 -0.9760  0.2286 -0.6690
  575MOL0     C75831   3.426   2.294  11.146  0.2669 -0.0866  0.3049
  575MOL0     C75832   3.527   2.362  11.159 -1.1071  0.5200 -0.4587
  575MOL0     C75833   2.771   2.716  11.205  0.1673  0.6527 -0.3803
  575MOL0     C75834   2.669   2.799  11.165  0.0703 -1.1564  1.5181
  575MOL0     H75835   2.226   2.793  11.265  2.6308  1.5195  0.6189
  575MOL0     H75836   1.992   2.829  11.248  0.8777 -0.5903 -0.1506
  575MOL0     H75837   1.826   3.137  11.002  1.0100 -2.4132 -0.8934
  575MOL0     H75838   1.833   3.218  11.164  1.5480 -0.3113 -1.7640
  575MOL0     H75839   1.638   3.094  11.240  0.7809  1.9878  0.6837
  575MOL0     H75840   1.608   3.030  11.083  1.4997  0.9003 -1.2566
  575MOL0     H75841   1.582   3.270  10.991 -0.5273  2.0625 -0.2908
  575MOL0     H75842   1.594   3.334  11.163 -0.9722 -2.5276  1.7951
  575MOL0     H75843   1.381   3.151  11.036  3.8752  0.8189 -1.4834
  575MOL0     H75844   1.411   3.159  11.212  0.5872 -0.9955  0.0884
  575MOL0     H75845   1.372   3.430  11.080 -2.1421  1.1300 -0.4827
  575MOL0     H75846   1.331   3.366  11.247 -3.2255 -4.0515  0.4863
  575MOL0     H75847   1.167   3.232  11.186 -1.0924 -0.2402  1.0520
  575MOL0     H75848   1.184   3.287  11.018  3.9960 -3.3803  0.5690
  575MOL0     H75849   1.111   3.458  11.260  0.6972 -2.6800 -0.2982
  575MOL0     H75850   1.122   3.521  11.097  0.9322  0.6373  0.2828
  575MOL0     H75851   0.925   3.399  11.018  1.8283 -0.3855 -0.4654
  575MOL0     H75852   0.874   3.484  11.162 -1.5906 -0.6400 -2.8563
  575MOL0     H75853   0.924   3.290  11.398  0.7071  0.8864 -0.8365
  575MOL0     H75854   0.850   3.054  11.498  1.3676 -1.7831  0.8164
  575MOL0     H75855   0.901   2.932  11.382  0.6492  0.3240  2.0421
  575MOL0     H75856   0.663   2.860  11.431 -1.7566  0.1764 -0.7788
  575MOL0     H75857   0.645   2.965  11.303 -3.4959 -1.9883  1.1047
  575MOL0     H75858   0.621   3.026  11.599  0.1807  1.8608  1.8345
  575MOL0     H75859   0.645   3.161  11.490  0.2858 -0.3161 -1.7324
  575MOL0     H75860   0.419   3.101  11.376  0.8698 -2.1400 -1.5143
  575MOL0     H75861   0.391   3.108  11.545  2.1740  1.4740  0.9075
  575MOL0     H75862   0.168   3.100  11.440 -0.7900 -0.0039  0.7828
  575MOL0     H75863  -0.042   3.030  11.398  0.4530  0.5189 -1.5397
  575MOL0     H75864  -0.374   2.769  11.157  0.7341  4.4827  0.6674
  575MOL0     H75865  -0.568   2.660  11.132 -0.6783  0.1817 -0.2034
  575MOL0     H75866  -0.788   2.741  11.293  2.0518  0.0032  1.3040
  575MOL0     H75867  -0.871   2.677  11.440  1.8104 -1.5575  2.0388
  575MOL0     H75868  -0.870   2.557  11.156  0.2865 -0.5694 -0.8173
  575MOL0     H75869  -0.999   2.664  11.210 -0.8011 -0.0059 -0.7845
  575MOL0     H75870  -0.993   2.466  11.413 -2.0737 -1.3516  0.2349
  575MOL0     H75871  -0.909   2.390  11.281  0.0740  0.0211 -0.8357
  575MOL0     H75872  -1.195   2.499  11.244 -1.4794 -2.1460 -2.6717
  575MOL0     H75873  -1.091   2.419  11.126 -2.1074 -0.1075 -0.2353
  575MOL0     H75874  -1.185   2.297  11.379 -0.1995 -0.2528  0.1290
  575MOL0     H75875  -1.087   2.216  11.255 -0.7241  0.5226  1.0093
  575MOL0     H75876  -1.254   2.259  11.082  0.4525 -0.5939  0.4348
  575MOL0     H75877  -1.369   2.336  11.193  0.2728  0.3773  0.9512
  575MOL0     H75878  -1.276   2.058  11.245 -2.0753 -2.6660  0.7207
  575MOL0     H75879  -1.411   2.155  11.318  1.9782 -1.0252  1.8200
  575MOL0     H75880  -1.518   2.147  11.089 -1.9401 -0.8140  1.5524
  575MOL0     H75881  -1.497   1.989  11.156  2.3681 -2.8251 -1.5170
  575MOL0     H75882  -0.585   2.626  11.571  2.4129  0.3014  2.1430
  575MOL0     H75883  -0.378   2.753  11.583  3.3999 -0.9908 -0.8182
  575MOL0     H75884   0.105   2.620  11.322  0.7534 -1.3507  2.5696
  575MOL0     H75885   0.314   2.683  11.406 -2.7798 -1.9817  0.3379
  575MOL0     H75886   2.046   3.183  11.019 -1.3600 -0.7075 -1.3356
  575MOL0     H75887   2.284   3.142  11.000  1.8334 -2.7168 -1.5061
  575MOL0     H75888   2.566   2.656  10.876 -0.6248  0.2703 -0.4390
  575MOL0     H75889   2.743   2.493  10.942 -0.5402 -0.7100  1.2951
  575MOL0     H75890   2.976   2.459  10.996 -0.3126  1.5439  0.5723
  575MOL0     H75891   2.879   2.341  11.083  1.7440 -2.5238 -1.3537
  575MOL0     H75892   3.128   2.429  11.234  1.6777 -2.4822  0.6766
  575MOL0     H75893   3.045   2.270  11.226  1.7056 -0.5203  1.0416
  575MOL0     H75894   3.227   2.434  11.063 -1.0256  0.6285  3.5639
  575MOL0     H75895   3.151   2.290  10.984  1.1008 -0.9673  0.4197
  575MOL0     H75896   3.265   2.210  11.232 -0.4854  1.0619 -0.3057
  575MOL0     H75897   3.301   2.154  11.060 -1.0032  0.5409 -1.0545
  575MOL0     H75898   3.609   2.429  11.173  1.4736 -2.1074 -1.7576
  575MOL0     H75899   2.830   2.749  11.290 -2.2342  4.3961  0.0774
  575MOL0     H75900   2.649   2.895  11.213 -1.7049 -1.4650  1.4871
  576MOL0     O75901   7.753   8.927   0.552 -0.7531 -0.7625 -0.3985
  576MOL0     C75902   7.794   8.835   0.617  0.0296  0.3144  0.4030
  576MOL0     O75903   7.921   8.778   0.605  0.0898  0.0039  0.1171
  576MOL0     C75904   8.007   8.832   0.519 -0.0461  0.0379 -0.4455
  576MOL0     C75905   7.988   8.850   0.383  0.7605  0.0061  0.0534
  576MOL0     C75906   8.085   8.924   0.317  0.8804 -0.3856  0.1665
  576MOL0     C75907   8.207   8.954   0.370  0.3560  0.4841 -0.5616
  576MOL0     O75908   8.294   9.004   0.274 -0.2973  0.4292  0.6761
  576MOL0     C75909   8.437   9.013   0.304 -0.3554  0.5069  0.3099
  576MOL0     C75910   8.502   8.891   0.252 -0.1496 -0.3911 -0.1952
  576MOL0     C75911   8.445   8.751   0.306  0.7527  0.0899 -0.4383
  576MOL0     C75912   8.499   8.718   0.451 -0.1044 -0.1799  0.1142
  576MOL0     C75913   8.433   8.592   0.514 -0.4044  0.5662  0.6834
  576MOL0     C75914   8.271   8.572   0.514 -0.7267 -0.3958 -0.1771
  576MOL0     C75915   8.231   8.458   0.604  0.3901 -0.0468  0.0056
  576MOL0     C75916   8.338   8.340   0.628 -0.2880 -0.7850  0.3922
  576MOL0     N75917   8.273   8.231   0.711 -0.0063 -0.0505  0.2888
  576MOL0     C75918   8.154   8.170   0.680  0.0962 -0.3023  0.0945
  576MOL0     C75919   8.162   8.043   0.736 -0.0178  0.2374  0.4148
  576MOL0     C75920   8.056   7.937   0.744  0.1494 -0.4340  0.5173
  576MOL0     C75921   8.026   7.862   0.616  0.3713 -0.1365  0.3451
  576MOL0     C75922   7.876   7.810   0.625  0.2308 -0.0412 -0.1910
  576MOL0     C75923   7.837   7.750   0.488  0.3244  0.6659 -0.3202
  576MOL0     O75924   7.914   7.636   0.464  0.0325 -0.2485  0.7511
  576MOL0     C75925   7.876   7.517   0.510  0.0890  0.4202  0.3617
  576MOL0     C75926   7.752   7.455   0.485 -0.4001  0.5101  0.0720
  576MOL0     C75927   7.730   7.323   0.540 -0.1097  0.2552  0.3776
  576MOL0     C75928   7.823   7.254   0.619 -0.2356 -0.4429 -0.2532
  576MOL0     C75929   7.789   7.134   0.685 -0.2972 -0.2545  0.0914
  576MOL0     O75930   7.889   7.081   0.756  0.1232  0.0104 -0.2750
  576MOL0     C75931   7.872   6.973   0.838  0.2810  0.4934 -0.2253
  576MOL0     C75932   7.926   6.977   0.972 -0.2570  0.3813  0.2388
  576MOL0     C75933   7.914   6.866   1.057  0.0412  0.1803  1.1304
  576MOL0     C75934   7.824   6.763   1.030 -1.0074 -0.0161 -0.3075
  576MOL0     O75935   7.805   6.661   1.124  0.1781  0.8262 -0.3935
  576MOL0     C75936   7.834   6.522   1.090  0.3014 -0.6846 -0.3827
  576MOL0     C75937   7.776   6.428   1.194  0.4096 -0.8251  0.2949
  576MOL0     C75938   7.617   6.416   1.159 -0.3894  0.6354 -0.6898
  576MOL0     C75939   7.598   6.299   1.055  0.2556 -0.1452 -0.4747
  576MOL0     C75940   7.444   6.272   1.044 -0.2129 -0.9756  0.2764
  576MOL0     C75941   7.380   6.197   1.162 -0.1050 -0.2049  0.0638
  576MOL0     C75942   7.422   6.054   1.179  0.5352  0.3366 -0.6914
  576MOL0     C75943   7.407   5.966   1.052  0.3135 -0.9356 -0.0366
  576MOL0    Cl75944   7.234   5.953   0.992 -0.2266  0.4339  0.1838
  576MOL0     C75945   7.766   6.754   0.902 -0.0503 -0.4476 -0.8541
  576MOL0     C75946   7.793   6.851   0.812  0.7944 -0.5160 -0.1223
  576MOL0     O75947   7.681   7.083   0.661 -0.0482 -0.1503 -0.8723
  576MOL0     C75948   7.952   7.322   0.646 -0.4962 -0.9854 -0.2514
  576MOL0     C75949   7.968   7.448   0.595 -0.1109 -0.0167 -0.0447
  576MOL0     N75950   8.289   8.033   0.782 -0.5436  0.8348 -0.1822
  576MOL0     N75951   8.349   8.137   0.769 -0.3424  0.3649 -0.0313
  576MOL0     C75952   8.229   8.921   0.501  0.6059  0.5293 -0.8392
  576MOL0     C75953   8.120   8.879   0.577  0.5310  0.1399 -0.4458
  576MOL0     C75954   7.708   8.774   0.723  0.3434 -0.2649  0.4421
  576MOL0     C75955   7.732   8.649   0.782 -0.2185  0.1165 -0.6034
  576MOL0     C75956   7.642   8.581   0.860 -0.2886 -0.0683 -0.3527
  576MOL0     C75957   7.517   8.643   0.892 -0.1136 -0.7068 -0.1201
  576MOL0     O75958   7.418   8.589   0.974  0.2214 -0.2057 -0.3850
  576MOL0     C75959   7.460   8.454   1.028 -0.2428 -0.5162  0.6684
  576MOL0     C75960   7.553   8.485   1.150  0.1616  0.1140  0.1816
  576MOL0     C75961   7.627   8.371   1.206  0.3897  0.5604 -0.3604
  576MOL0     C75962   7.739   8.425   1.299 -0.0789  1.2729 -0.3965
  576MOL0     C75963   7.831   8.327   1.360 -0.2352  0.1373 -0.2393
  576MOL0     C75964   7.911   8.260   1.423  0.4192 -0.1861 -0.5503
  576MOL0     C75965   7.498   8.770   0.837  0.5254  0.0854 -0.4520
  576MOL0     C75966   7.583   8.835   0.756 -0.3911  0.5232 -0.0212
  576MOL0     H75967   7.886   8.841   0.346  0.7790  0.0039  0.0036
  576MOL0     H75968   8.056   8.953   0.217 -0.6337 -2.7069 -0.1268
  576MOL0     H75969   8.463   9.042   0.407 -1.2212  0.6824  0.4850
  576MOL0     H75970   8.468   9.101   0.248  2.1199  0.5657  1.5855
  576MOL0     H75971   8.608   8.889   0.279 -0.8312  1.0528  3.0194
  576MOL0     H75972   8.494   8.899   0.143  1.5584 -0.9081 -0.3888
  576MOL0     H75973   8.474   8.674   0.234  2.0161  0.4492 -0.3429
  576MOL0     H75974   8.336   8.753   0.305  0.7374  0.6550 -2.2497
  576MOL0     H75975   8.608   8.720   0.450 -0.0935  1.8179  0.6177
  576MOL0     H75976   8.471   8.799   0.519 -1.1032 -3.2284  3.6227
  576MOL0     H75977   8.465   8.593   0.619  0.3651  0.4265  0.4539
  576MOL0     H75978   8.483   8.507   0.467 -0.2442  2.0797 -2.1147
  576MOL0     H75979   8.257   8.540   0.410  1.4227 -2.7270  0.1702
  576MOL0     H75980   8.210   8.655   0.553 -0.5187 -0.0855 -0.5063
  576MOL0     H75981   8.219   8.503   0.703 -1.8101 -0.4443 -0.0334
  576MOL0     H75982   8.134   8.425   0.566  0.1846  0.9513 -0.3811
  576MOL0     H75983   8.427   8.364   0.687  1.0090 -0.3823 -1.6033
  576MOL0     H75984   8.377   8.304   0.532  5.6440  3.1602  0.7872
  576MOL0     H75985   8.073   8.217   0.625  0.6928  1.0608  0.3447
  576MOL0     H75986   7.970   7.996   0.777  1.8051  1.5794  1.5242
  576MOL0     H75987   8.096   7.862   0.814 -2.2679 -0.9621  1.4279
  576MOL0     H75988   8.088   7.776   0.591 -0.7784 -0.1182 -3.0495
  576MOL0     H75989   8.037   7.922   0.525 -0.4320  0.7919  0.8423
  576MOL0     H75990   7.867   7.735   0.704  0.8657  0.5050  0.4173
  576MOL0     H75991   7.812   7.895   0.654  1.0679  0.7151 -0.4965
  576MOL0     H75992   7.859   7.826   0.412  1.2426  2.2607  1.4734
  576MOL0     H75993   7.732   7.719   0.480 -0.3642  2.2584  1.6108
  576MOL0     H75994   7.681   7.505   0.420  0.4998 -0.2415 -1.5611
  576MOL0     H75995   7.633   7.280   0.517 -0.5847 -0.9184  3.9441
  576MOL0     H75996   7.976   7.071   0.992  2.0519 -0.5448 -0.7835
  576MOL0     H75997   7.961   6.864   1.155  0.0506  0.9505  1.1451
  576MOL0     H75998   7.942   6.504   1.083  0.1151 -1.0484 -3.6533
  576MOL0     H75999   7.783   6.504   0.996  1.5330 -0.9781 -1.0173
  576MOL0     H76000   7.788   6.466   1.296 -0.1121  0.6091 -0.1532
  576MOL0     H76001   7.819   6.330   1.169  0.4258 -0.5421 -0.8438
  576MOL0     H76002   7.579   6.507   1.111  1.4933  0.1950 -3.2873
  576MOL0     H76003   7.561   6.377   1.245 -1.3748  0.1775 -1.5151
  576MOL0     H76004   7.631   6.317   0.952 -0.2614 -0.0250 -0.6216
  576MOL0     H76005   7.662   6.213   1.080  0.0579 -0.0537  0.3924
  576MOL0     H76006   7.412   6.225   0.951  0.3121 -1.5867  0.3943
  576MOL0     H76007   7.398   6.372   1.044 -0.8498 -1.2612  0.8333
  576MOL0     H76008   7.272   6.194   1.146 -1.2173 -0.2245  5.6191
  576MOL0     H76009   7.398   6.248   1.257 -1.4221  0.1914  0.1111
  576MOL0     H76010   7.526   6.040   1.210  1.6430  0.5910 -3.9342
  576MOL0     H76011   7.358   6.010   1.256 -0.2639  2.3047 -0.1687
  576MOL0     H76012   7.443   5.868   1.082  1.7781 -0.2318  0.6242
  576MOL0     H76013   7.476   5.998   0.972  0.7144 -1.4838  0.0878
  576MOL0     H76014   7.698   6.674   0.875  0.1999 -1.5909  1.6396
  576MOL0     H76015   7.740   6.841   0.718 -0.0465  0.3953  0.2435
  576MOL0     H76016   8.039   7.269   0.683 -0.8081 -2.6887 -1.7998
  576MOL0     H76017   8.063   7.494   0.619  1.3399 -3.0668  0.5972
  576MOL0     H76018   8.322   8.955   0.545 -0.5891  1.2100  1.3170
  576MOL0     H76019   8.127   8.864   0.685 -1.1782  1.7044 -0.0698
  576MOL0     H76020   7.821   8.589   0.769  0.8775  0.9013  2.3905
  576MOL0     H76021   7.680   8.491   0.906  2.0410 -0.8195 -3.4423
  576MOL0     H76022   7.514   8.385   0.963  0.2319  1.0414 -0.6450
  576MOL0     H76023   7.380   8.390   1.065  0.5983 -0.5850  2.4892
  576MOL0     H76024   7.627   8.560   1.121 -3.0154  3.8897  0.9767
  576MOL0     H76025   7.500   8.517   1.240  1.0483 -1.7774  1.4555
  576MOL0     H76026   7.668   8.309   1.126 -0.9449  0.5480 -1.0765
  576MOL0     H76027   7.561   8.301   1.258  1.9950 -1.1555 -0.5262
  576MOL0     H76028   7.808   8.483   1.237  2.1801 -1.7623 -0.9436
  576MOL0     H76029   7.699   8.490   1.377  0.8944  0.3377  0.9354
  576MOL0     H76030   7.972   8.188   1.473 -0.4187  0.9621  2.3375
  576MOL0     H76031   7.403   8.812   0.871 -0.0615 -1.7823  0.3396
  576MOL0     H76032   7.555   8.921   0.696  0.0373 -0.7297 -2.1155
  577MOL0     O76033   1.833   2.479   8.393  0.2030 -0.1411  0.5566
  577MOL0     C76034   1.798   2.595   8.382 -0.6598 -0.4742 -0.8865
  577MOL0     O76035   1.858   2.693   8.317  0.3929  0.2610  0.9193
  577MOL0     C76036   1.989   2.671   8.284  0.3359 -0.4477  0.4486
  577MOL0     C76037   2.092   2.682   8.379  0.2669 -1.0412  0.1501
  577MOL0     C76038   2.219   2.640   8.346 -0.1739  0.0245 -0.2391
  577MOL0     C76039   2.235   2.576   8.222  0.8650  0.0311  0.4411
  577MOL0     O76040   2.359   2.526   8.201  0.2167  0.5018 -0.5231
  577MOL0     C76041   2.398   2.483   8.071 -1.1000  0.0339  0.0222
  577MOL0     C76042   2.540   2.482   8.043 -0.9950  0.5663  0.3919
  577MOL0     C76043   2.580   2.439   7.897 -0.3655 -0.1364  0.7649
  577MOL0     C76044   2.734   2.458   7.871 -0.6340  0.5773 -0.3337
  577MOL0     C76045   2.771   2.480   7.725 -0.6359  0.3229  0.4369
  577MOL0     C76046   2.927   2.480   7.726  0.5921  0.0738 -0.7200
  577MOL0     C76047   2.983   2.519   7.588 -0.0255  0.4506  0.2579
  577MOL0     C76048   2.977   2.399   7.483 -0.1305  0.6674  0.2358
  577MOL0     N76049   3.012   2.431   7.343 -0.2211  0.2767 -0.0627
  577MOL0     C76050   3.139   2.455   7.305 -0.1451 -0.3685 -0.7292
  577MOL0     C76051   3.127   2.499   7.176  0.0950 -0.2857 -0.3421
  577MOL0     C76052   3.234   2.567   7.098  0.0018  0.1947 -0.2185
  577MOL0     C76053   3.259   2.704   7.161  0.9063  0.0235 -1.0020
  577MOL0     C76054   3.353   2.789   7.075 -0.4029  0.5365  0.7695
  577MOL0     C76055   3.398   2.928   7.137  0.1465 -0.0253  0.1561
  577MOL0     O76056   3.492   2.908   7.234  0.0178  0.3920  0.2005
  577MOL0     C76057   3.522   3.012   7.319 -0.0716  0.2200 -0.0524
  577MOL0     C76058   3.625   2.992   7.405 -0.0898 -0.4715 -0.1024
  577MOL0     C76059   3.677   3.090   7.490  0.4801  0.1821 -0.7196
  577MOL0     C76060   3.611   3.218   7.496  0.1238 -0.1292 -0.1563
  577MOL0     C76061   3.668   3.334   7.565 -0.4517  0.1285 -0.3414
  577MOL0     O76062   3.728   3.295   7.678  0.2333 -1.1208 -0.0406
  577MOL0     C76063   3.807   3.371   7.764  0.2070 -0.0257  0.1044
  577MOL0     C76064   3.886   3.302   7.856  0.1580  0.6243  0.2713
  577MOL0     C76065   3.969   3.361   7.947  0.2810 -0.2640  0.3567
  577MOL0     C76066   3.977   3.500   7.956 -0.2588  0.0217  0.0484
  577MOL0     O76067   4.072   3.570   8.035 -0.5133  0.0444 -0.2212
  577MOL0     C76068   4.182   3.501   8.093 -0.8434 -0.7375 -0.1838
  577MOL0     C76069   4.291   3.593   8.139  0.6980  0.3500  0.3672
  577MOL0     C76070   4.345   3.665   8.017 -0.1590 -0.6776  0.2855
  577MOL0     C76071   4.484   3.723   8.059  0.5273 -0.5380  0.5872
  577MOL0     C76072   4.525   3.843   7.968  0.2112  0.4673 -0.1935
  577MOL0     C76073   4.674   3.876   7.976 -0.4330  0.2096 -0.2690
  577MOL0     C76074   4.772   3.768   7.907 -0.3266 -1.3576 -1.4481
  577MOL0     C76075   4.747   3.756   7.759  0.5333 -0.1382  0.3970
  577MOL0    Cl76076   4.638   3.621   7.728 -0.2611 -0.1211 -0.3840
  577MOL0     C76077   3.892   3.574   7.866 -0.7934  0.0498  0.1268
  577MOL0     C76078   3.809   3.508   7.775  0.1664  0.7583 -0.6544
  577MOL0     O76079   3.666   3.453   7.527 -1.0262  0.6384 -0.3225
  577MOL0     C76080   3.510   3.238   7.406  0.6000 -0.3723  0.1270
  577MOL0     C76081   3.467   3.139   7.319  0.0645  0.0826 -0.0810
  577MOL0     N76082   2.992   2.489   7.137 -0.5404  0.0393 -0.0748
  577MOL0     N76083   2.928   2.458   7.238 -0.1950 -0.1206  0.2735
  577MOL0     C76084   2.133   2.564   8.132  0.6001 -0.0251 -0.1923
  577MOL0     C76085   2.005   2.607   8.168 -1.5262 -0.8192 -0.1883
  577MOL0     C76086   1.666   2.626   8.445  0.3458 -0.0839  1.1584
  577MOL0     C76087   1.549   2.553   8.411  0.0145  0.0101  0.4985
  577MOL0     C76088   1.427   2.593   8.469 -0.3637 -0.5886  0.9953
  577MOL0     C76089   1.424   2.702   8.556  0.5494 -0.1893  0.7564
  577MOL0     O76090   1.293   2.725   8.601  0.6549  0.1750  0.3669
  577MOL0     C76091   1.284   2.791   8.728  0.1573 -0.6859 -0.1051
  577MOL0     C76092   1.142   2.784   8.779 -0.8343  0.1762  0.5337
  577MOL0     C76093   1.070   2.904   8.721 -0.6916 -0.1921  0.1374
  577MOL0     C76094   0.939   2.864   8.648 -0.3203  0.7901 -0.5930
  577MOL0     C76095   0.847   2.777   8.729 -0.8330 -0.5516  0.1313
  577MOL0     C76096   0.766   2.720   8.797 -0.3430  0.5030  0.7363
  577MOL0     C76097   1.542   2.767   8.592  0.0985  0.3986 -0.4051
  577MOL0     C76098   1.660   2.734   8.530  0.4207  0.5179 -1.3653
  577MOL0     H76099   2.067   2.712   8.480 -0.5879 -0.5090 -0.2058
  577MOL0     H76100   2.308   2.638   8.408  1.1208 -0.8632 -2.0438
  577MOL0     H76101   2.359   2.540   7.986 -2.8481 -0.1561  0.6623
  577MOL0     H76102   2.358   2.381   8.062  2.3813 -1.3524 -1.4803
  577MOL0     H76103   2.596   2.411   8.104 -2.5440 -1.6045 -0.6089
  577MOL0     H76104   2.579   2.583   8.058  2.3665 -0.8722  2.6345
  577MOL0     H76105   2.538   2.500   7.817  0.2039 -0.8273 -0.0834
  577MOL0     H76106   2.559   2.334   7.874 -0.7930  0.0212  0.4096
  577MOL0     H76107   2.759   2.549   7.925 -4.7171  0.8368  1.4665
  577MOL0     H76108   2.783   2.375   7.924 -1.8132 -0.1631 -0.3540
  577MOL0     H76109   2.719   2.572   7.698 -2.5501 -0.9803 -0.5550
  577MOL0     H76110   2.733   2.408   7.652 -1.0505  0.3019  0.6652
  577MOL0     H76111   2.977   2.393   7.769  1.8687  1.1402  0.0378
  577MOL0     H76112   2.947   2.555   7.803  1.2044 -1.1449  0.3412
  577MOL0     H76113   2.953   2.614   7.542  2.9558  1.4921  0.2458
  577MOL0     H76114   3.089   2.537   7.606  0.0216  0.6815 -0.2294
  577MOL0     H76115   2.876   2.357   7.477  0.4286 -0.8334  0.9279
  577MOL0     H76116   3.040   2.319   7.522 -1.1627 -0.2383  0.1104
  577MOL0     H76117   3.221   2.457   7.376 -1.4406  2.9837  0.9139
  577MOL0     H76118   3.205   2.577   6.993 -1.1652 -1.8423 -0.1425
  577MOL0     H76119   3.325   2.507   7.097 -0.6061 -0.8754  2.2229
  577MOL0     H76120   3.293   2.711   7.265 -0.7380 -2.3164 -0.2304
  577MOL0     H76121   3.173   2.770   7.149  2.2040  2.8494  2.9980
  577MOL0     H76122   3.431   2.719   7.045 -1.7906 -0.2492 -1.2523
  577MOL0     H76123   3.297   2.786   6.981 -0.2338  0.9239  0.6542
  577MOL0     H76124   3.304   2.957   7.187  0.1628  0.6571 -0.2018
  577MOL0     H76125   3.437   2.991   7.057  2.2375 -0.9141  0.4252
  577MOL0     H76126   3.665   2.893   7.423  0.6162  0.1174  1.8114
  577MOL0     H76127   3.759   3.073   7.558  1.3410  1.8667 -1.2789
  577MOL0     H76128   3.866   3.195   7.857  3.2697 -0.0463  0.3711
  577MOL0     H76129   4.021   3.292   8.012 -0.1640 -0.2398  0.7487
  577MOL0     H76130   4.229   3.438   8.016 -0.6616 -1.9752  0.8995
  577MOL0     H76131   4.154   3.434   8.175  0.2929 -0.3280  0.5616
  577MOL0     H76132   4.366   3.527   8.184 -1.9324 -4.1414 -1.1580
  577MOL0     H76133   4.258   3.673   8.206 -2.3345 -0.6370  0.2138
  577MOL0     H76134   4.279   3.746   7.985  1.2409  1.4096  2.2658
  577MOL0     H76135   4.353   3.592   7.936 -2.0508 -1.7006  0.9694
  577MOL0     H76136   4.495   3.738   8.167 -4.1648 -6.0473  2.3363
  577MOL0     H76137   4.555   3.643   8.034 -0.0764 -0.2871 -2.3178
  577MOL0     H76138   4.477   3.937   7.999  1.2427  0.4278  1.6448
  577MOL0     H76139   4.488   3.822   7.867 -1.3440 -1.8710  0.7715
  577MOL0     H76140   4.713   3.892   8.077 -1.3220 -0.3137  0.1715
  577MOL0     H76141   4.697   3.972   7.928 -2.0516  1.8178  1.9924
  577MOL0     H76142   4.875   3.799   7.924 -1.5515  1.9028  1.4232
  577MOL0     H76143   4.760   3.673   7.959 -1.9067 -0.5769 -0.3036
  577MOL0     H76144   4.839   3.744   7.700 -0.2420  1.3781 -1.2148
  577MOL0     H76145   4.707   3.852   7.727  1.8279  0.7304  1.3008
  577MOL0     H76146   3.904   3.681   7.880  0.4273  0.2489 -2.0690
  577MOL0     H76147   3.749   3.567   7.705 -0.6915  0.6783 -0.0039
  577MOL0     H76148   3.455   3.331   7.410  0.3337 -0.4928 -0.5838
  577MOL0     H76149   3.397   3.170   7.242 -0.2760 -0.1950  0.1149
  577MOL0     H76150   2.131   2.521   8.033  0.0519  0.0638 -0.2200
  577MOL0     H76151   1.912   2.609   8.111 -1.8931 -1.3249  0.3776
  577MOL0     H76152   1.535   2.475   8.336 -3.0769 -1.1499  2.1073
  577MOL0     H76153   1.332   2.553   8.434 -0.3358  1.0304 -1.0440
  577MOL0     H76154   1.328   2.890   8.714  0.7179 -0.9219 -0.0306
  577MOL0     H76155   1.356   2.733   8.786  0.1039  0.5889  1.2662
  577MOL0     H76156   1.110   2.686   8.743  2.1456 -0.8700  0.4375
  577MOL0     H76157   1.149   2.780   8.888  3.8182  1.6063  0.4910
  577MOL0     H76158   1.129   2.962   8.650  1.3731 -2.6908 -0.3677
  577MOL0     H76159   1.041   2.969   8.804 -0.0142 -0.4571  0.5915
  577MOL0     H76160   0.888   2.955   8.617 -1.0293 -0.2491 -2.6370
  577MOL0     H76161   0.962   2.815   8.553  2.9617  1.3765 -0.2134
  577MOL0     H76162   0.684   2.669   8.844  0.2065 -1.7300 -0.5734
  577MOL0     H76163   1.545   2.859   8.649 -3.2371  0.0519  0.5181
  577MOL0     H76164   1.748   2.796   8.547 -1.2868  2.5416  0.8699
  578MOL0     O76165   4.488   9.842  10.974  0.6074 -0.6240  1.1149
  578MOL0     C76166   4.397   9.764  10.969  0.7336  0.3803  0.8246
  578MOL0     O76167   4.403   9.630  10.941  0.2447  0.0773 -0.4360
  578MOL0     C76168   4.520   9.575  10.915  0.3938 -0.5701  0.4646
  578MOL0     C76169   4.528   9.503  10.799  0.6480 -0.9308 -0.1218
  578MOL0     C76170   4.638   9.427  10.767 -0.2284 -0.2461 -0.5892
  578MOL0     C76171   4.750   9.421  10.855  0.4239  0.0354  0.0079
  578MOL0     O76172   4.841   9.332  10.818 -0.8145  0.2493 -0.3620
  578MOL0     C76173   4.947   9.293  10.898  0.1381  1.2998 -0.3700
  578MOL0     C76174   5.036   9.186  10.809  0.2910 -0.5611 -0.1206
  578MOL0     C76175   5.181   9.168  10.851 -1.3126  0.0317  0.3747
  578MOL0     C76176   5.196   9.092  10.988  0.4307  0.0842  0.2357
  578MOL0     C76177   5.335   9.101  11.059  0.5710 -0.1369 -0.0593
  578MOL0     C76178   5.356   9.235  11.121  0.7079 -0.1517 -0.7194
  578MOL0     C76179   5.493   9.238  11.194  1.1652  0.5205 -0.1711
  578MOL0     C76180   5.505   9.377  11.254 -0.6612 -0.3262  0.3711
  578MOL0     N76181   5.632   9.370  11.331  1.2569 -0.0813  0.0089
  578MOL0     C76182   5.756   9.412  11.284 -0.1953  0.6000 -0.4507
  578MOL0     C76183   5.834   9.395  11.395 -0.1559  0.0673  0.0291
  578MOL0     C76184   5.980   9.416  11.407  0.1403 -0.0144  0.4927
  578MOL0     C76185   6.043   9.289  11.448 -0.6530 -0.0702 -0.1958
  578MOL0     C76186   6.201   9.287  11.426  0.0661  0.4674  0.4287
  578MOL0     C76187   6.268   9.144  11.469 -0.3695 -0.4749 -0.2618
  578MOL0     O76188   6.329   9.065  11.364  0.3081  0.0037  0.2376
  578MOL0     C76189   6.456   9.094  11.314  0.0683  0.2358 -0.5339
  578MOL0     C76190   6.505   9.008  11.217 -0.1165 -1.0156 -0.7622
  578MOL0     C76191   6.616   9.037  11.146 -0.7520 -0.9056 -0.0387
  578MOL0     C76192   6.700   9.140  11.188  0.5068  0.5422  0.0862
  578MOL0     C76193   6.822   9.176  11.115 -0.3930 -1.0247  0.0808
  578MOL0     O76194   6.834   9.142  10.985  0.0384 -0.3126 -0.2870
  578MOL0     C76195   6.921   9.219  10.906  0.0941  0.6461  0.6606
  578MOL0     C76196   6.920   9.355  10.899  0.7395 -0.2352  0.4984
  578MOL0     C76197   6.997   9.428  10.806 -0.7016  0.0696  0.0408
  578MOL0     C76198   7.091   9.357  10.727  0.9958  0.5516 -0.2803
  578MOL0     O76199   7.187   9.415  10.645 -0.1083  0.3417 -0.7872
  578MOL0     C76200   7.162   9.400  10.505 -0.5270  0.3914 -0.6195
  578MOL0     C76201   7.180   9.531  10.431 -0.2779 -0.8689  0.5372
  578MOL0     C76202   7.062   9.638  10.458 -0.3096 -0.5379 -0.9758
  578MOL0     C76203   7.098   9.784  10.464  0.5504  0.0232 -0.0434
  578MOL0     C76204   6.982   9.887  10.511 -1.2345 -0.4483 -0.1702
  578MOL0     C76205   6.881   9.898  10.403  0.3007 -0.9146  0.1149
  578MOL0     C76206   6.782  10.000  10.441  0.2919  0.6270  0.4804
  578MOL0     C76207   6.662  10.012  10.348 -0.6626 -0.1903 -0.0917
  578MOL0    Cl76208   6.604   9.851  10.294 -0.4117  0.2524  0.4370
  578MOL0     C76209   7.083   9.214  10.723 -0.2268  0.0415 -0.0815
  578MOL0     C76210   7.003   9.145  10.815 -0.0136 -0.6195 -0.2379
  578MOL0     O76211   6.899   9.250  11.174 -0.0778 -0.2514  0.4542
  578MOL0     C76212   6.662   9.221  11.295  1.2789 -0.7745 -0.0104
  578MOL0     C76213   6.534   9.195  11.360 -0.6332  0.0442  0.5934
  578MOL0     N76214   5.752   9.348  11.503 -0.3756 -0.0857  0.0729
  578MOL0     N76215   5.634   9.333  11.463  0.2444 -0.8911  0.2608
  578MOL0     C76216   4.743   9.486  10.980  0.1341  0.2987 -0.1428
  578MOL0     C76217   4.626   9.562  11.011 -0.3368  1.0796 -0.2006
  578MOL0     C76218   4.261   9.821  10.999  0.0264 -0.7588 -0.2362
  578MOL0     C76219   4.154   9.728  10.994 -0.8390 -0.0389  0.2909
  578MOL0     C76220   4.033   9.752  11.054 -0.6921 -0.6581 -0.0476
  578MOL0     C76221   4.005   9.879  11.112 -0.8908 -1.2592  0.7784
  578MOL0     O76222   3.874   9.924  11.135 -0.3931  0.1161  0.4314
  578MOL0     C76223   3.841  10.043  11.060  0.2113 -0.0758 -0.5063
  578MOL0     C76224   3.692  10.061  11.060 -0.6617  0.3903 -0.3296
  578MOL0     C76225   3.654  10.183  10.981 -0.3031 -0.1493 -0.2241
  578MOL0     C76226   3.508  10.223  11.001 -0.0846 -0.9855 -0.7799
  578MOL0     C76227   3.432  10.119  10.935  0.0656  1.1181  0.1831
  578MOL0     C76228   3.351  10.041  10.897 -0.2154  0.3092  0.9612
  578MOL0     C76229   4.108   9.975  11.099  0.4301 -0.3180  0.8146
  578MOL0     C76230   4.234   9.953  11.049  0.3859 -0.3236 -0.7760
  578MOL0     H76231   4.439   9.502  10.736  0.3868 -0.1503  0.2196
  578MOL0     H76232   4.647   9.368  10.676  4.2252 -0.0580 -0.5079
  578MOL0     H76233   4.899   9.234  10.977 -0.7184 -1.5058 -2.8182
  578MOL0     H76234   5.016   9.361  10.949 -0.3799 -0.3284  2.7827
  578MOL0     H76235   5.033   9.217  10.704  1.3766  0.2702  0.0697
  578MOL0     H76236   4.985   9.090  10.821 -2.1962  0.9647  3.0436
  578MOL0     H76237   5.216   9.271  10.855  0.4276 -0.3635 -2.1381
  578MOL0     H76238   5.240   9.122  10.771 -2.5377  0.5529 -0.8606
  578MOL0     H76239   5.124   9.129  11.062  0.9557 -0.9009  1.2626
  578MOL0     H76240   5.164   8.990  10.965  0.6208  0.0583  0.0860
  578MOL0     H76241   5.425   9.094  10.997  1.8551 -0.7430  1.7864
  578MOL0     H76242   5.331   9.016  11.127  0.6001 -1.4156 -1.6088
  578MOL0     H76243   5.270   9.273  11.176  1.6694  2.4554 -0.8791
  578MOL0     H76244   5.362   9.298  11.032 -2.8353 -2.4531 -2.8019
  578MOL0     H76245   5.494   9.167  11.277 -0.5775 -0.7057 -1.1535
  578MOL0     H76246   5.575   9.228  11.123 -0.4400 -0.1229 -2.0108
  578MOL0     H76247   5.421   9.419  11.310 -1.0455  0.7190 -0.9457
  578MOL0     H76248   5.515   9.453  11.177 -0.0036  0.3467  1.0970
  578MOL0     H76249   5.779   9.467  11.193 -0.3652  0.8417 -0.3455
  578MOL0     H76250   6.011   9.491  11.480 -2.1171  3.2688 -1.6136
  578MOL0     H76251   6.025   9.451  11.314 -0.3225  0.1285  0.3163
  578MOL0     H76252   6.005   9.205  11.389  3.8406 -2.8847  0.4673
  578MOL0     H76253   6.016   9.265  11.552 -3.5617  1.1034 -0.5726
  578MOL0     H76254   6.211   9.306  11.319 -1.8726 -1.7618 -0.2346
  578MOL0     H76255   6.240   9.375  11.479  1.1576  0.5635 -0.5043
  578MOL0     H76256   6.198   9.071  11.511 -0.6855  0.7395  1.4214
  578MOL0     H76257   6.337   9.166  11.551 -1.2838 -2.0976  1.0114
  578MOL0     H76258   6.438   8.931  11.181 -0.9893 -1.3937  1.4955
  578MOL0     H76259   6.655   8.970  11.071  0.9714 -0.0938  0.0902
  578MOL0     H76260   6.843   9.403  10.958 -2.3208 -1.7436 -1.9451
  578MOL0     H76261   6.971   9.533  10.794  0.7065  0.4258 -0.0246
  578MOL0     H76262   7.061   9.361  10.486 -0.4021 -1.1950  1.6225
  578MOL0     H76263   7.239   9.330  10.472 -2.9114 -0.7920 -4.2758
  578MOL0     H76264   7.177   9.519  10.322 -0.5600  0.7729  0.3367
  578MOL0     H76265   7.278   9.571  10.458  0.4744 -3.3906  1.8886
  578MOL0     H76266   7.011   9.618  10.553  0.5508  2.3847  0.2309
  578MOL0     H76267   6.981   9.630  10.385 -0.2205  3.5156 -1.7538
  578MOL0     H76268   7.181   9.804  10.532 -1.6885  1.3714  2.4952
  578MOL0     H76269   7.133   9.813  10.364  1.8487  0.2031  0.4442
  578MOL0     H76270   7.022   9.987  10.525  1.3339 -1.3565 -0.4934
  578MOL0     H76271   6.939   9.852  10.605  0.0084  1.0008  0.9668
  578MOL0     H76272   6.831   9.800  10.405 -1.5450 -0.0607  3.0002
  578MOL0     H76273   6.932   9.917  10.308  0.5282 -1.2627  0.1658
  578MOL0     H76274   6.742   9.980  10.541 -1.0615 -2.1486 -0.5063
  578MOL0     H76275   6.837  10.095  10.442  1.4866  0.0741  4.3887
  578MOL0     H76276   6.684  10.073  10.259  2.3501 -0.1051  0.6298
  578MOL0     H76277   6.578  10.069  10.389 -0.4092  0.3410 -0.2974
  578MOL0     H76278   7.146   9.158  10.655 -1.2982  0.9134 -1.8702
  578MOL0     H76279   7.008   9.037  10.812 -2.1363 -0.7851  0.4387
  578MOL0     H76280   6.714   9.312  11.325 -1.7875  1.5063 -1.0408
  578MOL0     H76281   6.508   9.259  11.444 -2.8099  0.3044 -0.1981
  578MOL0     H76282   4.810   9.455  11.060 -0.6329 -0.2612  0.2911
  578MOL0     H76283   4.631   9.604  11.111  2.6915  0.1332  0.1637
  578MOL0     H76284   4.174   9.631  10.950 -1.2989  0.4975 -1.1517
  578MOL0     H76285   3.948   9.684  11.054 -0.7661 -0.5991 -1.8425
  578MOL0     H76286   3.868  10.023  10.956 -2.2392 -2.5702 -0.7888
  578MOL0     H76287   3.890  10.136  11.089 -1.3190  1.0259 -1.3160
  578MOL0     H76288   3.640   9.968  11.035  0.0248  0.5238 -2.4371
  578MOL0     H76289   3.669  10.092  11.163 -1.7630 -1.1644 -0.0569
  578MOL0     H76290   3.684  10.179  10.876  4.1827 -3.2374  0.8911
  578MOL0     H76291   3.706  10.268  11.026 -0.6167  1.4405 -2.6941
  578MOL0     H76292   3.486  10.243  11.106 -2.2633  0.5686 -1.4663
  578MOL0     H76293   3.489  10.320  10.954 -4.2128 -1.7289 -0.9784
  578MOL0     H76294   3.286   9.963  10.864 -0.1964  1.4474 -2.0932
  578MOL0     H76295   4.088  10.075  11.136 -0.1855 -0.0738 -0.1307
  578MOL0     H76296   4.307  10.031  11.067  0.5631 -0.1385 -2.1952
  579MOL0     O76297   2.460   9.348   6.358 -0.6572 -0.6401  0.1360
  579MOL0     C76298   2.378   9.326   6.450 -0.2798 -0.4574 -0.3625
  579MOL0     O76299   2.287   9.224   6.450  0.3228 -0.2428  0.9691
  579MOL0     C76300   2.282   9.133   6.352  0.7354 -0.3934 -0.7342
  579MOL0     C76301   2.256   9.149   6.217  0.0226 -0.0073  0.2724
  579MOL0     C76302   2.235   9.039   6.133  0.5225  0.5444  0.0996
  579MOL0     C76303   2.242   8.916   6.185  0.6505 -0.3560 -0.6594
  579MOL0     O76304   2.200   8.803   6.122 -0.2036 -0.0934  0.7239
  579MOL0     C76305   2.298   8.746   6.038  0.2088  0.1223  0.3627
  579MOL0     C76306   2.230   8.658   5.933  0.2587  0.4098 -0.3956
  579MOL0     C76307   2.101   8.715   5.870 -0.3367 -0.0796 -0.4957
  579MOL0     C76308   2.128   8.846   5.789  0.7418  0.9757 -0.8278
  579MOL0     C76309   2.020   8.872   5.685  0.5662  0.7823 -0.0180
  579MOL0     C76310   1.880   8.918   5.740  0.2879 -0.4830  0.4620
  579MOL0     C76311   1.790   8.944   5.617 -1.0856  0.0374  0.2035
  579MOL0     C76312   1.688   8.831   5.585 -1.2131  0.1975 -0.0946
  579MOL0     N76313   1.748   8.695   5.586  0.1127 -1.0346  0.9729
  579MOL0     C76314   1.777   8.616   5.696  0.1257 -0.2682 -0.2000
  579MOL0     C76315   1.824   8.491   5.647 -0.9580 -0.9758 -0.4932
  579MOL0     C76316   1.866   8.358   5.719  0.0907  0.1975  0.6711
  579MOL0     C76317   1.752   8.268   5.710 -0.3191 -0.0385  0.7802
  579MOL0     C76318   1.694   8.243   5.571 -0.1597 -0.2238  0.3670
  579MOL0     C76319   1.583   8.136   5.560 -0.0387 -0.8131  0.4092
  579MOL0     O76320   1.628   8.012   5.598 -0.5359  0.6378 -0.1088
  579MOL0     C76321   1.539   7.911   5.625 -0.3979 -0.1312 -0.0093
  579MOL0     C76322   1.402   7.911   5.605  0.1002 -0.5108  0.5924
  579MOL0     C76323   1.328   7.797   5.649  0.0140 -0.1267 -0.3326
  579MOL0     C76324   1.388   7.689   5.718 -0.2711  0.1638 -0.0951
  579MOL0     C76325   1.312   7.567   5.759  0.8587 -0.1551  0.1764
  579MOL0     O76326   1.384   7.453   5.791  0.5024 -0.1826 -0.4625
  579MOL0     C76327   1.313   7.340   5.842 -0.3370  0.2096 -0.2578
  579MOL0     C76328   1.354   7.222   5.779  0.2787 -0.0823 -0.7946
  579MOL0     C76329   1.302   7.099   5.827  0.3392  0.3049  0.5973
  579MOL0     C76330   1.205   7.097   5.930 -0.3279  0.8297  0.0912
  579MOL0     O76331   1.129   6.982   5.964 -0.2215 -0.7224 -0.1711
  579MOL0     C76332   1.143   6.864   5.886  0.4125  0.4487 -0.2903
  579MOL0     C76333   1.079   6.746   5.972 -0.3387  0.7173 -0.3746
  579MOL0     C76334   1.120   6.615   5.907 -0.7698  0.3900 -0.2126
  579MOL0     C76335   1.037   6.590   5.776  1.0738 -0.2546  0.2865
  579MOL0     C76336   1.061   6.454   5.725 -0.2982 -0.3017  0.0674
  579MOL0     C76337   1.211   6.417   5.714  0.1232 -0.4859  0.7709
  579MOL0     C76338   1.217   6.297   5.625 -0.4377  0.8241 -0.5512
  579MOL0     C76339   1.364   6.273   5.599 -0.7157 -0.1430 -0.1532
  579MOL0    Cl76340   1.375   6.115   5.503 -0.0561  0.6158  0.1109
  579MOL0     C76341   1.181   7.212   6.004  0.1197 -0.3752  1.2276
  579MOL0     C76342   1.238   7.334   5.959 -0.0095  0.1638 -0.6505
  579MOL0     O76343   1.191   7.577   5.784 -0.0004  0.6063  0.1913
  579MOL0     C76344   1.529   7.695   5.735  0.1028  0.2405  0.4568
  579MOL0     C76345   1.604   7.804   5.693  0.5945  0.3131  0.1997
  579MOL0     N76346   1.813   8.511   5.515  0.8083 -1.0186 -0.1747
  579MOL0     N76347   1.774   8.625   5.473 -0.0895 -0.0255  0.2783
  579MOL0     C76348   2.260   8.894   6.325 -0.0405 -0.3597  0.2981
  579MOL0     C76349   2.274   9.001   6.404  0.2060  0.3405 -0.8523
  579MOL0     C76350   2.376   9.431   6.560  0.7281  0.0755  0.0906
  579MOL0     C76351   2.466   9.534   6.557  0.3601 -1.0627  0.3304
  579MOL0     C76352   2.468   9.631   6.665 -0.5878  0.3420  0.6918
  579MOL0     C76353   2.389   9.608   6.780 -0.9011  1.5665  0.2621
  579MOL0     O76354   2.389   9.690   6.893  0.1615 -0.3710 -0.0010
  579MOL0     C76355   2.488   9.793   6.905  0.9223 -0.2931  0.1235
  579MOL0     C76356   2.514   9.844   7.053 -0.3411 -0.0096 -0.0185
  579MOL0     C76357   2.419   9.784   7.158 -0.9736  0.3382 -0.5484
  579MOL0     C76358   2.451   9.836   7.299  0.3461  0.6769  0.6467
  579MOL0     C76359   2.580   9.798   7.365 -0.7805  0.5472  0.3900
  579MOL0     C76360   2.681   9.759   7.430  0.5793  0.7869  1.9860
  579MOL0     C76361   2.308   9.501   6.784 -0.7306  0.5455  0.1518
  579MOL0     C76362   2.300   9.409   6.674  0.8600 -0.6478  0.1676
  579MOL0     H76363   2.242   9.251   6.184  0.3431  0.3698  1.2624
  579MOL0     H76364   2.209   9.048   6.028 -3.0942 -1.2974  0.6950
  579MOL0     H76365   2.356   8.682   6.105 -3.0904 -1.3033  2.0831
  579MOL0     H76366   2.355   8.830   5.997 -0.5496  0.5755  0.2216
  579MOL0     H76367   2.208   8.559   5.975  1.2359  0.0874 -0.6087
  579MOL0     H76368   2.309   8.636   5.860  3.3687  1.3243  2.4343
  579MOL0     H76369   2.030   8.731   5.951  0.9896 -1.0985  0.9283
  579MOL0     H76370   2.069   8.628   5.811  1.2078 -0.6556 -0.5377
  579MOL0     H76371   2.137   8.927   5.862 -1.3538  1.4503 -1.0320
  579MOL0     H76372   2.219   8.837   5.728 -0.5069  0.4398 -2.6923
  579MOL0     H76373   2.015   8.780   5.626  0.6927  2.8570 -3.5040
  579MOL0     H76374   2.056   8.945   5.612 -2.0824  1.8069 -0.3951
  579MOL0     H76375   1.887   9.015   5.791 -0.9705  1.7794 -3.3178
  579MOL0     H76376   1.841   8.839   5.805  0.3593 -0.9447 -0.0508
  579MOL0     H76377   1.715   9.015   5.651 -1.5166 -1.3622  2.4237
  579MOL0     H76378   1.847   8.973   5.528 -1.9251 -0.9250 -0.6740
  579MOL0     H76379   1.656   8.840   5.481 -0.8832  1.0957 -0.1247
  579MOL0     H76380   1.597   8.845   5.645 -2.2480 -1.2558 -1.2385
  579MOL0     H76381   1.765   8.629   5.803 -0.5589 -3.7133  0.2738
  579MOL0     H76382   1.900   8.383   5.819  1.8887  1.3150 -0.1682
  579MOL0     H76383   1.942   8.303   5.662 -0.0489 -1.6599  2.1667
  579MOL0     H76384   1.684   8.322   5.777  1.7691  3.1885  0.4580
  579MOL0     H76385   1.788   8.177   5.760  0.8826 -0.9434 -1.5911
  579MOL0     H76386   1.643   8.330   5.528  0.8543 -0.5305 -1.5821
  579MOL0     H76387   1.775   8.219   5.501  1.5459  2.4091  1.2899
  579MOL0     H76388   1.545   8.130   5.458  0.6545  1.6041 -0.0460
  579MOL0     H76389   1.499   8.175   5.618 -0.8022 -2.8877  0.8015
  579MOL0     H76390   1.357   7.994   5.550  1.0846 -0.3777 -0.0314
  579MOL0     H76391   1.225   7.798   5.616  0.0511 -1.2585 -0.5321
  579MOL0     H76392   1.418   7.240   5.693  1.2855  0.2503  0.0124
  579MOL0     H76393   1.333   7.010   5.773  0.0872 -0.1241  1.1505
  579MOL0     H76394   1.250   6.846   5.868  1.1950 -0.6734  4.2183
  579MOL0     H76395   1.077   6.872   5.799  1.6475  3.4534 -1.0780
  579MOL0     H76396   0.970   6.747   5.977 -0.3944 -0.5733 -0.9936
  579MOL0     H76397   1.124   6.742   6.071 -0.0526 -4.8737 -0.4462
  579MOL0     H76398   1.107   6.528   5.972 -3.8958  1.8868  1.3839
  579MOL0     H76399   1.227   6.611   5.885 -1.1690 -3.2917 -2.2912
  579MOL0     H76400   0.931   6.605   5.794 -0.0801 -1.0187 -4.5820
  579MOL0     H76401   1.066   6.671   5.708 -0.4176  2.6687  2.8693
  579MOL0     H76402   1.002   6.457   5.634 -1.1848  2.2730  0.6277
  579MOL0     H76403   1.016   6.377   5.789 -0.6510  0.1008  0.3082
  579MOL0     H76404   1.253   6.390   5.812  2.6426 -0.9465 -0.3596
  579MOL0     H76405   1.278   6.497   5.683  0.8243 -1.2742  0.2187
  579MOL0     H76406   1.156   6.218   5.669  0.0097  0.5847 -0.3553
  579MOL0     H76407   1.172   6.321   5.528 -0.0070  1.9618 -0.4826
  579MOL0     H76408   1.437   6.285   5.681 -0.4402  6.0434 -0.8051
  579MOL0     H76409   1.399   6.355   5.535  4.0356 -1.1387  0.7410
  579MOL0     H76410   1.116   7.198   6.091 -0.0374 -3.1721  0.7456
  579MOL0     H76411   1.232   7.420   6.025  3.5023 -0.5236  0.8042
  579MOL0     H76412   1.563   7.612   5.796 -3.7865  0.6375  3.5176
  579MOL0     H76413   1.710   7.817   5.712  1.2788 -0.4059 -2.6854
  579MOL0     H76414   2.241   8.796   6.368 -3.2274  0.6067  1.3507
  579MOL0     H76415   2.282   8.973   6.508  3.9590 -0.9593 -1.2976
  579MOL0     H76416   2.523   9.547   6.466 -1.2225 -3.0730 -1.0304
  579MOL0     H76417   2.523   9.724   6.654  0.8101 -0.5491 -0.0890
  579MOL0     H76418   2.459   9.876   6.840  1.0912 -0.2081  0.1565
  579MOL0     H76419   2.584   9.751   6.875  3.0706  2.0152  3.1796
  579MOL0     H76420   2.615   9.819   7.085  1.4881  2.0222 -3.5721
  579MOL0     H76421   2.502   9.953   7.055  0.0889  0.0337  0.6437
  579MOL0     H76422   2.414   9.675   7.168  1.4287  0.4131  4.4578
  579MOL0     H76423   2.316   9.799   7.123 -1.7973  1.4900  2.0729
  579MOL0     H76424   2.451   9.942   7.274 -1.7034  0.1648 -2.0033
  579MOL0     H76425   2.366   9.822   7.367  2.9647 -0.9757  3.8987
  579MOL0     H76426   2.783   9.734   7.453  1.9429  3.1108 -0.8772
  579MOL0     H76427   2.249   9.464   6.868 -2.4965  0.0255 -1.2448
  579MOL0     H76428   2.236   9.323   6.692 -0.7303  0.8096  2.0392
  580MOL0     O76429   3.713   6.583   0.029 -0.5301  0.0333 -0.0046
  580MOL0     C76430   3.691   6.474  -0.019  0.9604  0.5140  0.8788
  580MOL0     O76431   3.781   6.379  -0.050 -0.0341  0.1923  0.2270
  580MOL0     C76432   3.917   6.407  -0.055 -0.6930 -0.4750 -0.3776
  580MOL0     C76433   3.981   6.397  -0.180  0.7753  0.2639 -0.5455
  580MOL0     C76434   4.112   6.432  -0.193  0.8523  0.1605  0.8616
  580MOL0     C76435   4.188   6.476  -0.086 -0.2986  0.5336 -0.1229
  580MOL0     O76436   4.315   6.520  -0.104  0.1764 -0.7098  1.1825
  580MOL0     C76437   4.423   6.435  -0.126 -0.7587  0.4042  0.0958
  580MOL0     C76438   4.537   6.544  -0.123 -0.5029  0.9730 -0.8554
  580MOL0     C76439   4.669   6.468  -0.104 -0.6953 -0.1287  0.6335
  580MOL0     C76440   4.732   6.433  -0.243  0.4225 -0.7066 -0.0919
  580MOL0     C76441   4.857   6.353  -0.231 -0.2818 -0.6774  0.1841
  580MOL0     C76442   4.832   6.205  -0.201  1.5813 -1.3887  0.1960
  580MOL0     C76443   4.961   6.114  -0.193 -0.0367 -0.4464 -0.8898
  580MOL0     C76444   5.068   6.156  -0.301 -0.1284  0.1695 -1.0550
  580MOL0     N76445   5.174   6.059  -0.288 -0.9175 -0.3955 -0.7162
  580MOL0     C76446   5.208   5.981  -0.392 -0.1916 -0.2739 -0.1907
  580MOL0     C76447   5.317   5.908  -0.359 -0.0838 -0.5931  0.2064
  580MOL0     C76448   5.409   5.840  -0.464  0.5863 -0.0635 -0.5965
  580MOL0     C76449   5.538   5.776  -0.407 -1.1448  0.1004  0.5535
  580MOL0     C76450   5.636   5.738  -0.520  0.3356  1.3006 -0.0540
  580MOL0     C76451   5.574   5.614  -0.584 -0.3713 -0.0152  0.1035
  580MOL0     O76452   5.632   5.597  -0.713 -0.7102 -0.6263 -0.5763
  580MOL0     C76453   5.755   5.524  -0.705  0.1609  0.6595  0.0165
  580MOL0     C76454   5.802   5.486  -0.823  0.2179 -0.2825  0.4317
  580MOL0     C76455   5.913   5.403  -0.835  0.5721 -0.6412  0.1132
  580MOL0     C76456   5.978   5.353  -0.730 -0.6236  0.2998 -0.1279
  580MOL0     C76457   6.095   5.272  -0.732  0.2101 -0.1428  0.1023
  580MOL0     O76458   6.173   5.248  -0.623 -0.0536 -0.0594  0.1523
  580MOL0     C76459   6.291   5.172  -0.635 -0.5088  0.4208 -0.3465
  580MOL0     C76460   6.299   5.030  -0.630  0.3528  0.9146  0.2401
  580MOL0     C76461   6.429   4.968  -0.638  0.1794  0.1283  0.5021
  580MOL0     C76462   6.545   5.043  -0.636 -0.8648  0.4552 -0.4759
  580MOL0     O76463   6.674   4.993  -0.633 -0.1685 -0.6977  0.1003
  580MOL0     C76464   6.697   4.880  -0.552  0.4217 -0.4078 -0.4200
  580MOL0     C76465   6.845   4.835  -0.562  1.0441  0.2542 -0.3190
  580MOL0     C76466   6.883   4.797  -0.709  0.9291 -0.3002 -0.0906
  580MOL0     C76467   6.826   4.667  -0.755  0.3856  0.3654 -0.3845
  580MOL0     C76468   6.882   4.592  -0.867  0.4501  0.5390  0.8012
  580MOL0     C76469   7.007   4.503  -0.850 -0.2804 -0.1934 -0.2600
  580MOL0     C76470   7.002   4.414  -0.735 -0.5775  0.7138 -0.3045
  580MOL0     C76471   7.132   4.337  -0.729  0.3758 -0.0683  0.2755
  580MOL0    Cl76472   7.139   4.226  -0.865  0.1105  0.6378  0.3326
  580MOL0     C76473   6.533   5.183  -0.642  0.9118  0.3362 -0.6633
  580MOL0     C76474   6.411   5.242  -0.650  0.2767  0.2708 -0.0734
  580MOL0     O76475   6.124   5.217  -0.844 -0.3756 -0.6584 -0.0169
  580MOL0     C76476   5.938   5.398  -0.613  0.5700  0.7409  0.1819
  580MOL0     C76477   5.827   5.480  -0.592  0.2119 -0.7084 -0.0138
  580MOL0     N76478   5.353   5.975  -0.241 -0.4369 -0.1088  0.1115
  580MOL0     N76479   5.274   6.061  -0.199  0.2527  0.1302  0.7055
  580MOL0     C76480   4.126   6.488   0.036  1.2050 -0.3896 -0.5197
  580MOL0     C76481   3.987   6.457   0.049  0.9634  1.3137  0.9006
  580MOL0     C76482   3.547   6.442  -0.044  0.6236  0.4321  0.3496
  580MOL0     C76483   3.445   6.511   0.022  0.9239 -0.2856 -0.8380
  580MOL0     C76484   3.308   6.490   0.001  0.2840 -1.0531  0.2383
  580MOL0     C76485   3.274   6.397  -0.090  0.1917 -0.4818 -0.3951
  580MOL0     O76486   3.145   6.367  -0.112  0.7369 -0.6377  0.2609
  580MOL0     C76487   3.050   6.474  -0.132 -0.2257  0.4690  0.1317
  580MOL0     C76488   2.947   6.439  -0.231  0.7653  0.4312 -0.5211
  580MOL0     C76489   3.003   6.402  -0.373 -0.4323  0.1273  0.5208
  580MOL0     C76490   2.896   6.381  -0.480  0.6966  0.9287 -0.2540
  580MOL0     C76491   2.828   6.511  -0.504 -0.9047 -0.7401 -0.6331
  580MOL0     C76492   2.752   6.601  -0.527  0.3122 -1.2894  0.3619
  580MOL0     C76493   3.373   6.330  -0.163  0.7378  0.0137  0.0716
  580MOL0     C76494   3.505   6.346  -0.135 -0.7235 -0.3745  0.6296
  580MOL0     H76495   3.926   6.369  -0.269 -1.1619  1.6512  0.1269
  580MOL0     H76496   4.158   6.407  -0.288 -1.3675 -0.7375 -0.0523
  580MOL0     H76497   4.431   6.375  -0.217  0.3510 -2.2356  1.8034
  580MOL0     H76498   4.439   6.376  -0.036  2.3764  1.8447  0.6138
  580MOL0     H76499   4.524   6.605  -0.033 -2.7596 -3.2594  1.9761
  580MOL0     H76500   4.546   6.601  -0.216  2.5919  0.9598 -0.6649
  580MOL0     H76501   4.673   6.379  -0.041  1.9542 -0.6535 -0.1422
  580MOL0     H76502   4.747   6.524  -0.053 -1.3741 -0.7800  2.4583
  580MOL0     H76503   4.655   6.381  -0.302 -1.0414  1.8024 -0.5317
  580MOL0     H76504   4.745   6.533  -0.286  2.0348  0.2192  2.3198
  580MOL0     H76505   4.932   6.388  -0.161 -2.1362 -0.0931  1.9798
  580MOL0     H76506   4.902   6.362  -0.330 -0.5980  0.9333  0.1634
  580MOL0     H76507   4.774   6.162  -0.283 -0.3597 -0.8414  1.2121
  580MOL0     H76508   4.761   6.203  -0.118  1.9331  1.0024  0.6262
  580MOL0     H76509   5.000   6.114  -0.091 -2.2346 -4.1614  0.1199
  580MOL0     H76510   4.941   6.010  -0.218  6.0957 -2.6899  1.5840
  580MOL0     H76511   5.098   6.256  -0.272 -0.3761  0.4070 -1.6015
  580MOL0     H76512   5.023   6.157  -0.401 -1.5534 -0.7343 -0.4614
  580MOL0     H76513   5.154   5.984  -0.486 -2.9723  2.0517  1.3068
  580MOL0     H76514   5.435   5.925  -0.528  0.8308 -0.1216 -0.5740
  580MOL0     H76515   5.346   5.774  -0.523 -0.9626  0.4721  0.3875
  580MOL0     H76516   5.522   5.692  -0.339 -2.0751 -2.9068 -3.0561
  580MOL0     H76517   5.584   5.858  -0.351  0.4328 -1.7238  2.0264
  580MOL0     H76518   5.645   5.818  -0.595  1.3788  2.1833  0.9577
  580MOL0     H76519   5.741   5.721  -0.496  1.0953  0.8187 -3.2799
  580MOL0     H76520   5.469   5.634  -0.609  0.3933  1.4081 -2.2624
  580MOL0     H76521   5.598   5.525  -0.525 -0.6919 -2.2924 -2.9183
  580MOL0     H76522   5.746   5.517  -0.910  0.1461  1.5423  1.0977
  580MOL0     H76523   5.953   5.380  -0.934  0.3694  0.5681 -0.2663
  580MOL0     H76524   6.207   4.973  -0.630 -0.5517  2.3107  0.6911
  580MOL0     H76525   6.431   4.860  -0.647 -0.6261  0.2032 -0.9125
  580MOL0     H76526   6.621   4.809  -0.586 -1.1523  2.1127 -2.6001
  580MOL0     H76527   6.681   4.904  -0.446 -1.1440 -1.1499 -0.4532
  580MOL0     H76528   6.847   4.752  -0.491 -3.2432 -0.1414 -0.4121
  580MOL0     H76529   6.895   4.918  -0.512 -0.7494  1.3183 -0.2189
  580MOL0     H76530   6.993   4.791  -0.705  1.5062  5.3690  2.7050
  580MOL0     H76531   6.858   4.874  -0.782 -1.6794 -1.5756 -0.6504
  580MOL0     H76532   6.816   4.603  -0.667 -1.5440 -0.9875 -1.5015
  580MOL0     H76533   6.718   4.674  -0.773  0.0209 -2.6635  0.0055
  580MOL0     H76534   6.902   4.662  -0.948 -2.9149 -0.5059 -1.1608
  580MOL0     H76535   6.811   4.519  -0.908  1.6269 -0.9914  1.4051
  580MOL0     H76536   7.087   4.576  -0.830  1.4941 -1.9735 -0.5372
  580MOL0     H76537   7.016   4.457  -0.948  0.1189 -0.1917 -0.2264
  580MOL0     H76538   6.975   4.467  -0.643 -2.8439  3.6946 -2.4698
  580MOL0     H76539   6.919   4.343  -0.745 -0.4000  0.3440  0.7652
  580MOL0     H76540   7.131   4.265  -0.646 -0.3782  0.1226  0.4417
  580MOL0     H76541   7.213   4.410  -0.722 -0.5093  0.9941 -0.1987
  580MOL0     H76542   6.625   5.240  -0.638  0.2968  1.4097 -1.2362
  580MOL0     H76543   6.405   5.351  -0.656  1.6723  0.2815 -3.2533
  580MOL0     H76544   5.988   5.350  -0.530 -1.6677 -2.4746 -0.1169
  580MOL0     H76545   5.792   5.506  -0.493 -2.9289  0.3001 -1.2611
  580MOL0     H76546   4.190   6.532   0.112 -0.0722 -0.0820  0.4119
  580MOL0     H76547   3.917   6.473   0.130 -0.6293  1.0993 -0.3800
  580MOL0     H76548   3.471   6.580   0.102  0.4052 -0.6582 -0.3378
  580MOL0     H76549   3.231   6.533   0.064 -0.9833 -0.5162 -1.5838
  580MOL0     H76550   3.101   6.566  -0.164  0.0070  1.0851  2.1102
  580MOL0     H76551   3.004   6.497  -0.035 -0.8890 -2.6772  0.6445
  580MOL0     H76552   2.897   6.346  -0.202  1.3508  0.0878 -0.5891
  580MOL0     H76553   2.874   6.520  -0.230 -0.3451 -0.5620  0.2946
  580MOL0     H76554   3.065   6.312  -0.364  0.4642  0.9311  3.7357
  580MOL0     H76555   3.074   6.482  -0.397  0.0671  1.2278  4.9381
  580MOL0     H76556   2.936   6.354  -0.578  0.4445 -1.5617  0.2686
  580MOL0     H76557   2.822   6.307  -0.448  2.7042 -0.3030  1.8230
  580MOL0     H76558   2.687   6.685  -0.534 -1.8923 -2.4578  4.1999
  580MOL0     H76559   3.349   6.255  -0.238 -1.6657 -0.1857  0.9435
  580MOL0     H76560   3.584   6.286  -0.179 -0.2955  0.8843 -0.3880
  581MOL0     O76561   4.273   4.581   9.321 -0.0386 -0.0610  0.5205
  581MOL0     C76562   4.368   4.543   9.396  1.4519 -0.0570  1.1568
  581MOL0     O76563   4.499   4.553   9.362 -0.1297  0.7144 -0.3782
  581MOL0     C76564   4.557   4.642   9.276  0.0010 -0.2073  0.1294
  581MOL0     C76565   4.514   4.655   9.141  0.1660 -1.3117 -0.2753
  581MOL0     C76566   4.586   4.727   9.047 -0.4927  0.1763  0.3217
  581MOL0     C76567   4.695   4.801   9.093  0.2399  0.0403 -0.4604
  581MOL0     O76568   4.766   4.877   9.004  0.5487 -0.7167  0.6645
  581MOL0     C76569   4.726   5.012   9.011  0.5179 -0.1567 -0.0714
  581MOL0     C76570   4.819   5.102   8.931 -0.0618 -0.8088  0.0816
  581MOL0     C76571   4.805   5.080   8.779 -0.8325 -0.0601 -0.0343
  581MOL0     C76572   4.911   5.147   8.691  0.6806 -0.0741  0.0972
  581MOL0     C76573   4.864   5.125   8.544 -0.6756  0.5773 -1.0340
  581MOL0     C76574   4.755   5.228   8.507 -0.4748  1.0109 -0.0995
  581MOL0     C76575   4.794   5.354   8.424 -0.4323  0.1683 -0.6909
  581MOL0     C76576   4.855   5.468   8.500 -0.5158  0.1147 -0.8760
  581MOL0     N76577   4.749   5.543   8.566 -0.1122  0.1439 -0.1517
  581MOL0     C76578   4.678   5.647   8.509 -0.5010  1.0257 -0.4694
  581MOL0     C76579   4.591   5.672   8.607 -0.3741 -0.0293 -0.5091
  581MOL0     C76580   4.504   5.791   8.612  0.0405  0.6155 -0.0532
  581MOL0     C76581   4.394   5.791   8.510 -0.0943  0.5792  0.0980
  581MOL0     C76582   4.261   5.734   8.568  0.2026 -0.8072  0.1645
  581MOL0     C76583   4.173   5.837   8.646 -0.3724  0.2339  0.4458
  581MOL0     O76584   4.088   5.764   8.731 -0.5691  0.0260  0.7877
  581MOL0     C76585   3.947   5.776   8.713  0.1433 -0.8055 -0.3241
  581MOL0     C76586   3.878   5.894   8.747 -0.3047  1.3232 -0.9415
  581MOL0     C76587   3.748   5.898   8.735  0.2596  0.2483 -0.0743
  581MOL0     C76588   3.671   5.794   8.677  0.2409 -0.2297  0.6398
  581MOL0     C76589   3.528   5.821   8.643 -1.0682  0.6602 -0.8217
  581MOL0     O76590   3.498   5.947   8.638 -0.0651  0.0004 -0.0944
  581MOL0     C76591   3.369   5.992   8.616  0.0962 -0.0800  0.8604
  581MOL0     C76592   3.326   6.039   8.494 -0.2097  0.4089  0.0930
  581MOL0     C76593   3.189   6.079   8.471 -0.7010  0.1928 -0.2019
  581MOL0     C76594   3.103   6.084   8.584  1.0460  0.3332 -0.1006
  581MOL0     O76595   2.971   6.120   8.563 -0.1912  0.2716 -0.5092
  581MOL0     C76596   2.877   6.011   8.591  0.1793 -0.0644  0.0380
  581MOL0     C76597   2.729   6.056   8.566 -0.1593 -0.7524  0.8213
  581MOL0     C76598   2.642   5.930   8.573  0.0445 -0.3894  1.0739
  581MOL0     C76599   2.510   5.961   8.503  0.1947 -0.5505 -0.1554
  581MOL0     C76600   2.417   5.840   8.518  0.4039  0.3764 -1.4539
  581MOL0     C76601   2.266   5.861   8.481 -0.3629  0.5037  0.5922
  581MOL0     C76602   2.167   5.788   8.564 -0.1618  0.3108  0.3143
  581MOL0     C76603   2.034   5.802   8.504  0.2745 -0.4015 -0.0550
  581MOL0    Cl76604   2.012   5.711   8.359  0.1945  0.0942 -0.3547
  581MOL0     C76605   3.157   6.050   8.710 -0.2998  0.6841  0.1014
  581MOL0     C76606   3.293   5.991   8.728 -0.3651 -0.6284 -0.3266
  581MOL0     O76607   3.445   5.729   8.643 -0.3985  0.7906  0.6555
  581MOL0     C76608   3.732   5.671   8.641  0.1235 -0.5647 -0.2281
  581MOL0     C76609   3.868   5.660   8.662 -0.3781 -1.0591  0.4394
  581MOL0     N76610   4.604   5.584   8.707 -0.0035  0.2109 -0.3727
  581MOL0     N76611   4.697   5.500   8.685 -0.3956  0.3570 -0.0821
  581MOL0     C76612   4.737   4.797   9.230 -0.4127  0.1656  0.3831
  581MOL0     C76613   4.664   4.714   9.324 -1.3675  0.0578  0.3618
  581MOL0     C76614   4.337   4.478   9.523 -0.1408 -0.4251 -0.0560
  581MOL0     C76615   4.204   4.458   9.561 -0.0152  0.4420 -1.1394
  581MOL0     C76616   4.184   4.399   9.694  0.0243  0.5706  0.5489
  581MOL0     C76617   4.288   4.359   9.772 -0.3430  0.0086 -0.4898
  581MOL0     O76618   4.270   4.281   9.886 -0.8786  0.1614  0.1327
  581MOL0     C76619   4.191   4.156   9.883  0.0763 -0.3868  0.2582
  581MOL0     C76620   4.183   4.095  10.021 -0.3760 -0.3768 -1.3583
  581MOL0     C76621   4.076   4.157  10.118 -0.5209 -0.3788  0.5934
  581MOL0     C76622   3.931   4.120  10.070  1.1035  0.2350 -0.2867
  581MOL0     C76623   3.839   4.174  10.170  0.0716 -0.2365 -0.3171
  581MOL0     C76624   3.777   4.219  10.262  0.0797 -0.5120 -0.5340
  581MOL0     C76625   4.409   4.383   9.731  0.1324 -0.1449  0.4472
  581MOL0     C76626   4.443   4.436   9.612  0.6572  0.1004  1.1460
  581MOL0     H76627   4.424   4.606   9.107 -1.7972  1.0784  1.0801
  581MOL0     H76628   4.550   4.743   8.946 -1.4574  0.6378  0.7267
  581MOL0     H76629   4.715   5.033   9.118 -0.9822  0.1483 -0.2618
  581MOL0     H76630   4.621   5.030   8.984 -0.5300 -2.6123  1.8647
  581MOL0     H76631   4.919   5.091   8.974 -0.8018 -1.3061  1.7719
  581MOL0     H76632   4.787   5.206   8.948 -0.9381 -0.8839 -0.9990
  581MOL0     H76633   4.708   5.121   8.749 -0.4669 -0.5868 -2.0954
  581MOL0     H76634   4.810   4.972   8.765  0.2309  0.0650 -0.7320
  581MOL0     H76635   4.925   5.252   8.716 -1.4474  0.0855  0.8146
  581MOL0     H76636   5.006   5.095   8.703 -0.4280 -1.9287  1.3477
  581MOL0     H76637   4.833   5.021   8.537  0.7604 -0.2148  2.3316
  581MOL0     H76638   4.948   5.143   8.476 -0.2259  1.3102 -0.3101
  581MOL0     H76639   4.700   5.259   8.596  0.5274  2.4280  0.0589
  581MOL0     H76640   4.682   5.173   8.447 -0.4043  1.6775 -0.8217
  581MOL0     H76641   4.865   5.325   8.346  1.5526  1.7497  0.4238
  581MOL0     H76642   4.707   5.396   8.373  0.5785  1.7532 -1.2123
  581MOL0     H76643   4.914   5.536   8.437  2.4888  0.9197  2.4542
  581MOL0     H76644   4.935   5.438   8.568 -1.6730  0.1579  0.5486
  581MOL0     H76645   4.691   5.697   8.414 -1.5660 -0.5493 -1.4807
  581MOL0     H76646   4.562   5.882   8.593  0.0162  0.5336 -0.5282
  581MOL0     H76647   4.461   5.786   8.712  3.2049 -1.7394  1.3811
  581MOL0     H76648   4.427   5.737   8.420  1.8473  0.9349  0.5666
  581MOL0     H76649   4.376   5.895   8.482 -0.4280  1.2624  2.6054
  581MOL0     H76650   4.208   5.684   8.486  2.0841 -0.6411 -1.2269
  581MOL0     H76651   4.282   5.651   8.636  0.9554 -0.4928  0.3286
  581MOL0     H76652   4.123   5.899   8.571  0.2629 -0.2967 -0.4277
  581MOL0     H76653   4.240   5.900   8.706  0.4657  1.4326 -1.6445
  581MOL0     H76654   3.921   5.986   8.785 -2.5114  1.6340  1.0450
  581MOL0     H76655   3.702   5.982   8.786 -2.1700 -0.9071 -0.2137
  581MOL0     H76656   3.386   6.038   8.404  0.2017  0.2203  0.3684
  581MOL0     H76657   3.157   6.101   8.370  1.3378 -0.7921 -1.1282
  581MOL0     H76658   2.880   6.003   8.700 -0.0243  0.5245  0.0889
  581MOL0     H76659   2.896   5.915   8.541 -1.3204 -1.2149  1.5784
  581MOL0     H76660   2.733   6.096   8.464  3.0640 -2.4285  0.1377
  581MOL0     H76661   2.696   6.121   8.647  0.3265 -1.8614  1.9398
  581MOL0     H76662   2.628   5.903   8.678 -4.2299 -0.0398  0.7421
  581MOL0     H76663   2.684   5.849   8.513 -0.9999  1.0685 -1.7917
  581MOL0     H76664   2.453   6.045   8.544 -1.6674 -1.9369  0.2373
  581MOL0     H76665   2.532   5.984   8.398  1.8767  4.0434  0.9414
  581MOL0     H76666   2.422   5.814   8.624  0.8970  0.8296 -1.3560
  581MOL0     H76667   2.472   5.757   8.473  2.7506  3.1790 -4.2624
  581MOL0     H76668   2.264   5.833   8.375 -1.5038 -1.2695  1.0282
  581MOL0     H76669   2.240   5.966   8.500  0.6305  1.0021 -0.6396
  581MOL0     H76670   2.204   5.685   8.570  0.9471  0.7242  0.8676
  581MOL0     H76671   2.156   5.826   8.666 -3.8963  1.3948 -0.3550
  581MOL0     H76672   2.011   5.908   8.492 -0.4391 -0.5884 -0.3844
  581MOL0     H76673   1.952   5.769   8.568 -4.6733  3.8719 -3.3978
  581MOL0     H76674   3.085   6.071   8.788 -2.7326 -2.0031 -1.2123
  581MOL0     H76675   3.318   5.946   8.823  1.2733  2.0512  0.6134
  581MOL0     H76676   3.671   5.598   8.590 -0.5986  1.3191 -2.2190
  581MOL0     H76677   3.922   5.567   8.643 -0.4338 -0.8209 -0.9684
  581MOL0     H76678   4.823   4.849   9.272 -0.8896 -0.2479  1.9602
  581MOL0     H76679   4.691   4.693   9.427  1.7489  1.2647 -0.0874
  581MOL0     H76680   4.116   4.481   9.502 -1.3983  0.0128  0.6640
  581MOL0     H76681   4.084   4.381   9.730 -0.5030  1.4947 -0.3922
  581MOL0     H76682   4.236   4.076   9.824 -1.3467 -2.2603  1.5821
  581MOL0     H76683   4.094   4.167   9.834  0.9798  0.9841 -1.3311
  581MOL0     H76684   4.177   3.986  10.014  1.3173 -0.4966 -1.4483
  581MOL0     H76685   4.275   4.120  10.076 -0.7424  0.4613 -1.1019
  581MOL0     H76686   4.098   4.263  10.133  1.2531  0.0216 -3.5121
  581MOL0     H76687   4.096   4.115  10.217 -1.3796 -0.8374  0.5807
  581MOL0     H76688   3.918   4.174   9.976  2.0887  0.8129 -0.1154
  581MOL0     H76689   3.933   4.012  10.053 -0.0742 -0.1274  1.5468
  581MOL0     H76690   3.723   4.274  10.336 -1.5620 -0.0096 -2.0319
  581MOL0     H76691   4.493   4.348   9.789  0.0227 -0.8090  0.2147
  581MOL0     H76692   4.547   4.442   9.584  1.1650  0.0513  2.9018
  582MOL0     O76693   7.661   3.336  11.093 -0.3281 -0.1242 -0.2229
  582MOL0     C76694   7.714   3.226  11.095  0.6781 -0.2310  0.6843
  582MOL0     O76695   7.837   3.201  11.139 -0.4514  0.0551  0.2580
  582MOL0     C76696   7.912   3.299  11.200  0.2911  0.4285  0.1324
  582MOL0     C76697   7.880   3.349  11.329  0.2956  0.2461  0.2320
  582MOL0     C76698   7.963   3.443  11.384 -0.5238  0.3117  0.1340
  582MOL0     C76699   8.077   3.495  11.316  0.2533  0.5622  0.0898
  582MOL0     O76700   8.172   3.573  11.373 -0.0180  0.0475 -0.1808
  582MOL0     C76701   8.279   3.506  11.435 -0.4088 -0.6696 -0.9145
  582MOL0     C76702   8.380   3.612  11.477 -1.0364 -0.2518  0.4146
  582MOL0     C76703   8.441   3.671  11.350  0.0064  1.3924  0.0184
  582MOL0     C76704   8.559   3.766  11.379 -0.4525 -0.7008  0.1653
  582MOL0     C76705   8.609   3.832  11.254  0.3716 -0.7770  0.0217
  582MOL0     C76706   8.734   3.905  11.277 -0.1926 -0.2583 -0.2910
  582MOL0     C76707   8.861   3.820  11.267  0.0368  0.6270 -0.3669
  582MOL0     C76708   8.988   3.909  11.230  0.1380 -0.0559 -0.0259
  582MOL0     N76709   9.042   3.991  11.333 -0.5166 -0.7272  0.5426
  582MOL0     C76710   8.972   4.098  11.379  0.4187  0.6428  0.4337
  582MOL0     C76711   9.042   4.142  11.487 -0.3104 -0.0329  0.9385
  582MOL0     C76712   9.019   4.276  11.558  0.6798 -0.1578 -0.8905
  582MOL0     C76713   9.147   4.335  11.623  0.3367 -0.9683  0.5133
  582MOL0     C76714   9.262   4.353  11.524 -0.0896 -0.2778  0.1760
  582MOL0     C76715   9.242   4.467  11.425  0.0052  0.2831 -1.0645
  582MOL0     O76716   9.255   4.591  11.500  0.8039 -0.4437  0.2234
  582MOL0     C76717   9.256   4.713  11.437  0.3418  0.5229 -1.0777
  582MOL0     C76718   9.197   4.725  11.310  0.2061 -0.3426  0.6301
  582MOL0     C76719   9.217   4.847  11.249  0.6531  0.5264 -0.3860
  582MOL0     C76720   9.282   4.956  11.305 -0.2066 -0.0056 -1.4292
  582MOL0     C76721   9.300   5.082  11.229 -0.5715  0.0289 -0.4853
  582MOL0     O76722   9.249   5.087  11.106 -0.3653 -0.4454  0.3943
  582MOL0     C76723   9.266   5.203  11.024 -0.8443  0.5920  0.2888
  582MOL0     C76724   9.376   5.284  11.014  0.6325  0.0807  0.1263
  582MOL0     C76725   9.387   5.394  10.926 -0.0426  0.2188 -0.2080
  582MOL0     C76726   9.274   5.437  10.851 -0.4448  0.2754 -0.3808
  582MOL0     O76727   9.299   5.541  10.770 -0.2848  0.1681  0.2042
  582MOL0     C76728   9.200   5.634  10.719  0.0369 -0.4050  0.1627
  582MOL0     C76729   9.264   5.711  10.603 -0.0757 -0.0430  0.5992
  582MOL0     C76730   9.188   5.826  10.542 -0.3139 -0.6918 -0.2099
  582MOL0     C76731   9.188   5.953  10.628 -0.3230  0.3231 -0.5187
  582MOL0     C76732   9.330   6.003  10.672 -0.3446  0.1528  0.1714
  582MOL0     C76733   9.422   6.054  10.557  0.8432 -0.3002 -0.3874
  582MOL0     C76734   9.547   6.121  10.617 -0.4978 -1.0947  0.3713
  582MOL0     C76735   9.609   6.211  10.514 -0.4342  0.6160 -0.7562
  582MOL0    Cl76736   9.780   6.231  10.525 -0.6255 -0.1366  0.0680
  582MOL0     C76737   9.160   5.350  10.849  0.3046 -0.2864  0.2122
  582MOL0     C76738   9.162   5.234  10.934 -0.0058 -0.3025  0.9071
  582MOL0     O76739   9.374   5.167  11.284  0.6315  0.8800  0.2966
  582MOL0     C76740   9.325   4.947  11.440 -0.5811  0.6285 -0.6059
  582MOL0     C76741   9.313   4.821  11.506 -0.4695  0.4506  0.1736
  582MOL0     N76742   9.145   4.059  11.515 -0.2062  0.7612  1.0273
  582MOL0     N76743   9.151   3.974  11.417  0.3724  0.0625  0.2969
  582MOL0     C76744   8.106   3.447  11.191 -1.0146  0.1370  0.7652
  582MOL0     C76745   8.027   3.349  11.135  0.5550  0.3951  1.0965
  582MOL0     C76746   7.639   3.113  11.028 -0.4482 -0.2231  0.1888
  582MOL0     C76747   7.529   3.135  10.943 -0.8251  0.7242 -0.4439
  582MOL0     C76748   7.470   3.024  10.889  0.0245 -0.0898 -0.6481
  582MOL0     C76749   7.513   2.893  10.900  0.0973 -0.5468  0.0303
  582MOL0     O76750   7.471   2.778  10.838 -0.0979  0.2851 -0.6166
  582MOL0     C76751   7.342   2.783  10.767  0.3285  0.2781  0.8436
  582MOL0     C76752   7.359   2.835  10.621  0.9338  0.2714 -0.0752
  582MOL0     C76753   7.473   2.769  10.542 -0.2600  0.4842 -0.6651
  582MOL0     C76754   7.425   2.750  10.398 -0.0002 -0.4465  0.8956
  582MOL0     C76755   7.299   2.671  10.377 -0.2129  0.1369 -0.4209
  582MOL0     C76756   7.196   2.601  10.373 -0.0022  0.4141 -0.1406
  582MOL0     C76757   7.623   2.874  10.982 -0.1786 -0.0029 -0.6424
  582MOL0     C76758   7.687   2.983  11.045 -0.0395 -0.0680  0.1246
  582MOL0     H76759   7.798   3.317  11.392 -2.0745  0.8088 -2.3915
  582MOL0     H76760   7.937   3.464  11.487  0.1677 -2.0661  0.8626
  582MOL0     H76761   8.322   3.442  11.358 -2.2982  0.2529 -2.8595
  582MOL0     H76762   8.236   3.456  11.523  1.1094 -0.6204 -0.1195
  582MOL0     H76763   8.465   3.572  11.535  0.1662  1.1747 -0.3132
  582MOL0     H76764   8.343   3.701  11.528  3.0766  3.0901 -1.8596
  582MOL0     H76765   8.364   3.730  11.301 -1.3912  1.6931  2.4358
  582MOL0     H76766   8.473   3.591  11.283  0.1772  2.3034 -1.0094
  582MOL0     H76767   8.530   3.834  11.459 -3.4630 -4.1200  2.2905
  582MOL0     H76768   8.644   3.707  11.413 -0.6487 -1.0590  0.0467
  582MOL0     H76769   8.537   3.900  11.207  1.1264 -0.9257 -1.4058
  582MOL0     H76770   8.630   3.768  11.167  2.9319  0.6087 -0.4942
  582MOL0     H76771   8.738   3.953  11.375  2.8508  1.4332 -1.1006
  582MOL0     H76772   8.739   3.982  11.199  2.4950 -2.1719 -2.1717
  582MOL0     H76773   8.880   3.763  11.359 -1.0647 -0.5919 -0.8657
  582MOL0     H76774   8.847   3.742  11.191  0.1349  1.3072 -1.0904
  582MOL0     H76775   8.959   3.967  11.142 -0.1121 -0.0665  0.0483
  582MOL0     H76776   9.071   3.844  11.202 -1.0381 -1.7425  0.2388
  582MOL0     H76777   8.878   4.142  11.347 -0.5100 -0.0865  2.0100
  582MOL0     H76778   8.935   4.249  11.622 -2.2228  0.7230 -4.0261
  582MOL0     H76779   8.966   4.353  11.500  0.3708  3.0332  3.1338
  582MOL0     H76780   9.175   4.254  11.692 -0.7376 -0.9764  0.9676
  582MOL0     H76781   9.106   4.427  11.667 -1.4306 -2.6411  2.6485
  582MOL0     H76782   9.347   4.377  11.588 -0.8982  1.1767  0.7468
  582MOL0     H76783   9.281   4.266  11.461  0.9093  0.6835 -0.9121
  582MOL0     H76784   9.145   4.466  11.373 -1.1419  4.0817  0.6212
  582MOL0     H76785   9.319   4.456  11.348  1.3311  0.1782  0.2431
  582MOL0     H76786   9.140   4.655  11.249 -2.6214  3.4425 -1.5233
  582MOL0     H76787   9.169   4.861  11.152  0.0876  2.5917  0.1386
  582MOL0     H76788   9.468   5.261  11.066 -1.1396 -1.5691  2.7505
  582MOL0     H76789   9.471   5.461  10.915  1.8119 -1.8029  0.8851
  582MOL0     H76790   9.179   5.711  10.795 -1.1683  0.1307 -0.6912
  582MOL0     H76791   9.115   5.581  10.677  1.0733 -1.3310 -0.8498
  582MOL0     H76792   9.274   5.635  10.526  2.4396 -1.1956  1.9455
  582MOL0     H76793   9.364   5.746  10.630 -1.0373  0.8331  3.5000
  582MOL0     H76794   9.080   5.809  10.534 -0.7974  1.2727  1.3059
  582MOL0     H76795   9.223   5.842  10.439 -1.0302 -0.9279 -0.4970
  582MOL0     H76796   9.141   6.032  10.569 -1.9908 -0.8885 -0.9179
  582MOL0     H76797   9.128   5.943  10.719  0.9107 -0.3457  0.2479
  582MOL0     H76798   9.393   5.929  10.722 -1.4114 -0.8871  0.0294
  582MOL0     H76799   9.320   6.084  10.745 -0.7010  0.6280 -0.4012
  582MOL0     H76800   9.365   6.134  10.509 -0.9324 -1.2440  0.0697
  582MOL0     H76801   9.443   5.975  10.483 -4.1399 -0.0106 -2.5261
  582MOL0     H76802   9.505   6.192  10.689 -1.3262 -0.6116 -0.5581
  582MOL0     H76803   9.618   6.046  10.653 -0.8708 -3.1382 -2.7116
  582MOL0     H76804   9.571   6.312  10.531 -1.1328  0.6283 -2.2075
  582MOL0     H76805   9.583   6.179  10.413  0.7286 -1.4594 -0.4772
  582MOL0     H76806   9.082   5.353  10.774 -1.0669  0.2901  1.6168
  582MOL0     H76807   9.079   5.165  10.924 -3.0863  3.1771 -0.2074
  582MOL0     H76808   9.371   5.031  11.490  0.3071  0.9158 -1.8464
  582MOL0     H76809   9.346   4.818  11.609  0.1582  3.6222  0.1772
  582MOL0     H76810   8.195   3.479  11.138 -2.2465  0.7437 -1.0159
  582MOL0     H76811   8.061   3.320  11.036 -0.2981  2.1663  0.2322
  582MOL0     H76812   7.492   3.235  10.920 -0.6618  0.9493  0.2585
  582MOL0     H76813   7.374   3.042  10.841 -1.4147 -1.1361  1.7069
  582MOL0     H76814   7.269   2.847  10.818 -2.5405 -1.0479 -1.3271
  582MOL0     H76815   7.293   2.685  10.769 -1.0715  0.9464  2.5481
  582MOL0     H76816   7.257   2.839  10.583  1.5206 -0.5881 -1.8134
  582MOL0     H76817   7.383   2.942  10.622 -1.1881  0.7925  0.5850
  582MOL0     H76818   7.501   2.675  10.589  1.6291  2.4518  2.5351
  582MOL0     H76819   7.564   2.829  10.534  0.3261 -0.5484 -1.9511
  582MOL0     H76820   7.426   2.848  10.349  1.1862  0.3763  2.4655
  582MOL0     H76821   7.498   2.698  10.336  0.2821  1.7055 -0.6937
  582MOL0     H76822   7.099   2.556  10.370  0.4878 -1.0254  2.4710
  582MOL0     H76823   7.667   2.780  11.013 -1.0726 -0.1941  0.1258
  582MOL0     H76824   7.772   2.970  11.111  1.4126 -0.7115 -1.8060
  583MOL0     O76825   3.552  11.132   7.667  0.6683  0.9476  1.2023
  583MOL0     C76826   3.585  11.013   7.668  1.0565  0.8730  0.8655
  583MOL0     O76827   3.499  10.914   7.689 -0.5833  0.1031 -0.5065
  583MOL0     C76828   3.369  10.942   7.714  0.1820  0.7334  0.4760
  583MOL0     C76829   3.321  11.049   7.796  0.6721  1.2660 -0.1965
  583MOL0     C76830   3.190  11.068   7.831 -0.1564  0.4083 -0.0489
  583MOL0     C76831   3.090  10.982   7.774 -0.0981 -0.5061  0.2469
  583MOL0     O76832   2.960  10.982   7.809 -0.2497  0.6116 -0.3323
  583MOL0     C76833   2.908  11.098   7.877  0.4587  0.0151  0.5203
  583MOL0     C76834   2.760  11.086   7.871  1.1461  0.3960 -0.3619
  583MOL0     C76835   2.680  11.160   7.980 -0.1187  1.1116  0.4115
  583MOL0     C76836   2.530  11.153   7.935 -0.1062  0.1321 -1.2934
  583MOL0     C76837   2.430  11.199   8.037  0.5117 -0.5213 -0.2563
  583MOL0     C76838   2.428  11.351   8.059 -0.3190  0.6132  0.2352
  583MOL0     C76839   2.301  11.390   8.127  0.0859 -0.3449 -0.2453
  583MOL0     C76840   2.289  11.542   8.143  0.7077  0.0842  0.1298
  583MOL0     N76841   2.174  11.589   8.215  0.7836  0.0592  0.1039
  583MOL0     C76842   2.101  11.701   8.182 -0.6815  0.7795  0.0179
  583MOL0     C76843   2.008  11.709   8.278 -0.3344  0.0430 -0.2281
  583MOL0     C76844   1.922  11.835   8.289  0.6501  0.1892  0.2004
  583MOL0     C76845   1.911  11.884   8.427 -0.4619  0.2000 -0.2977
  583MOL0     C76846   1.814  12.010   8.421  0.0423 -0.0956 -0.6103
  583MOL0     C76847   1.813  12.082   8.557 -0.3384 -0.3632  0.1772
  583MOL0     O76848   1.705  12.026   8.634 -0.7004 -0.3401 -0.2678
  583MOL0     C76849   1.575  12.053   8.594 -0.7811  0.6705  0.3748
  583MOL0     C76850   1.520  12.145   8.500 -0.2856  0.5602 -0.3062
  583MOL0     C76851   1.382  12.148   8.480 -0.5541  0.6717  0.9689
  583MOL0     C76852   1.293  12.073   8.554  0.6394  0.8511  0.5529
  583MOL0     C76853   1.149  12.073   8.516  0.7196 -1.1596 -0.5058
  583MOL0     O76854   1.064  12.000   8.599  0.4338  0.3341 -0.1774
  583MOL0     C76855   0.923  12.010   8.586 -0.0998  0.5436  0.9897
  583MOL0     C76856   0.854  12.132   8.547 -0.8612  0.1332 -0.1364
  583MOL0     C76857   0.714  12.144   8.532 -0.2260  0.0574  0.4083
  583MOL0     C76858   0.639  12.031   8.561  0.6211  0.4078  0.2116
  583MOL0     O76859   0.505  12.017   8.543  0.6882  0.0311 -0.6155
  583MOL0     C76860   0.440  12.111   8.460 -0.7251 -0.0791  1.3446
  583MOL0     C76861   0.297  12.082   8.484  0.0719  0.1972  1.2812
  583MOL0     C76862   0.200  12.154   8.393  0.0822 -0.5117 -0.6581
  583MOL0     C76863   0.052  12.117   8.421 -0.0400  0.6517 -0.0053
  583MOL0     C76864  -0.053  12.184   8.327 -0.2577 -0.0958 -0.1941
  583MOL0     C76865  -0.193  12.118   8.354 -0.5129  0.8370 -0.7320
  583MOL0     C76866  -0.290  12.171   8.248  0.3265 -0.2630 -0.7435
  583MOL0     C76867  -0.440  12.148   8.280 -0.1377 -0.2665 -0.6795
  583MOL0    Cl76868  -0.502  12.252   8.409  0.0410  0.6076 -0.1435
  583MOL0     C76869   0.700  11.910   8.608 -0.0028  0.2187  0.3782
  583MOL0     C76870   0.836  11.896   8.624 -0.2057 -0.4405  0.2887
  583MOL0     O76871   1.117  12.129   8.411  1.0211 -0.3363 -0.5434
  583MOL0     C76872   1.346  11.997   8.656  0.9902  0.1875 -0.4064
  583MOL0     C76873   1.488  11.989   8.680  0.4167  0.0266 -0.4817
  583MOL0     N76874   2.011  11.597   8.361  0.4568  0.1891 -0.4631
  583MOL0     N76875   2.114  11.527   8.324  0.2642  0.3212 -0.3977
  583MOL0     C76876   3.137  10.879   7.692 -0.4820 -0.3906  0.3560
  583MOL0     C76877   3.269  10.861   7.657  0.0136  0.1263 -0.3145
  583MOL0     C76878   3.728  10.983   7.666 -0.8848 -0.2088 -0.1589
  583MOL0     C76879   3.775  10.856   7.698  0.0151  0.6391 -0.1097
  583MOL0     C76880   3.906  10.831   7.708 -1.1773  0.0982 -0.6071
  583MOL0     C76881   3.998  10.926   7.655 -0.9885  0.7395 -0.1296
  583MOL0     O76882   4.143  10.906   7.644 -0.3995 -0.5219  0.5038
  583MOL0     C76883   4.186  10.778   7.592  1.0023 -0.4543  0.2283
  583MOL0     C76884   4.262  10.816   7.462  0.2468 -0.7198 -0.7279
  583MOL0     C76885   4.345  10.689   7.432 -0.4082 -0.6376  0.2585
  583MOL0     C76886   4.482  10.693   7.505 -0.5370 -0.0585  0.1192
  583MOL0     C76887   4.563  10.599   7.430 -0.1050 -0.0883 -0.2959
  583MOL0     C76888   4.630  10.522   7.363  0.7780  0.0653  0.7022
  583MOL0     C76889   3.946  11.049   7.608  0.2978 -0.5377  0.6508
  583MOL0     C76890   3.810  11.083   7.612  0.3696  0.2242 -0.4798
  583MOL0     H76891   3.395  11.108   7.849 -0.0853  0.7617  1.5047
  583MOL0     H76892   3.176  11.154   7.896 -0.1061 -1.2375  2.2596
  583MOL0     H76893   2.936  11.197   7.840 -1.4053  1.1260  1.9163
  583MOL0     H76894   2.941  11.094   7.981 -0.6321  2.8120  1.0659
  583MOL0     H76895   2.738  10.979   7.881  0.8175  0.2465 -2.2123
  583MOL0     H76896   2.729  11.116   7.770 -0.0459  3.1508  0.7179
  583MOL0     H76897   2.712  11.265   7.975 -3.8447  2.3476 -1.7359
  583MOL0     H76898   2.697  11.109   8.075  3.6349 -0.6664 -1.0004
  583MOL0     H76899   2.524  11.209   7.841  1.2519  0.2207 -1.3439
  583MOL0     H76900   2.504  11.051   7.903 -2.6578  1.2304 -3.0469
  583MOL0     H76901   2.449  11.139   8.126  0.6331  1.3526  1.0403
  583MOL0     H76902   2.329  11.174   8.005 -0.0307 -3.2357  3.0162
  583MOL0     H76903   2.436  11.393   7.958  2.3335  0.9780  0.5110
  583MOL0     H76904   2.520  11.379   8.112  0.6014 -1.1213 -0.3442
  583MOL0     H76905   2.213  11.351   8.076 -0.2439  3.5675 -3.1900
  583MOL0     H76906   2.307  11.350   8.229  1.2007  1.6104  0.5233
  583MOL0     H76907   2.308  11.597   8.050  2.0291  0.6163  0.6923
  583MOL0     H76908   2.370  11.582   8.205 -0.7350  3.3389  0.1299
  583MOL0     H76909   2.124  11.771   8.102 -2.2159  0.4193 -0.7807
  583MOL0     H76910   1.823  11.806   8.251  0.6158  0.2531  0.2397
  583MOL0     H76911   1.960  11.912   8.221 -2.4061  1.3526 -0.3778
  583MOL0     H76912   2.011  11.919   8.457 -0.8599  1.3093 -0.2061
  583MOL0     H76913   1.886  11.797   8.489 -0.9865  3.3361  4.4090
  583MOL0     H76914   1.853  12.080   8.346  1.6519 -1.0811 -0.7402
  583MOL0     H76915   1.719  11.965   8.392 -0.7506  0.3719  1.1853
  583MOL0     H76916   1.809  12.190   8.542  0.3615  0.2533  3.6579
  583MOL0     H76917   1.907  12.066   8.610  0.4542  0.3824 -0.9537
  583MOL0     H76918   1.587  12.202   8.436 -0.0588 -1.2680 -1.7813
  583MOL0     H76919   1.362  12.216   8.398  1.0533  0.9543  0.7761
  583MOL0     H76920   0.916  12.218   8.527  1.2420 -0.8562  1.6580
  583MOL0     H76921   0.690  12.240   8.488  0.1585 -1.2541 -2.9129
  583MOL0     H76922   0.467  12.102   8.355 -2.0951 -0.6452  1.0095
  583MOL0     H76923   0.449  12.215   8.491 -1.1856 -0.3196  2.3644
  583MOL0     H76924   0.286  12.113   8.589 -3.0118  0.8441  0.8828
  583MOL0     H76925   0.282  11.974   8.484 -1.4237  0.3826  1.3369
  583MOL0     H76926   0.227  12.133   8.289  2.2078 -2.2206  0.1723
  583MOL0     H76927   0.213  12.261   8.412  1.7968 -0.2187 -2.9416
  583MOL0     H76928   0.040  12.009   8.422 -2.0994  0.8267  2.0924
  583MOL0     H76929   0.037  12.138   8.527  1.7831 -2.9378  1.1161
  583MOL0     H76930  -0.032  12.183   8.220 -2.9021 -0.1541 -0.7919
  583MOL0     H76931  -0.051  12.287   8.361  0.7310 -0.5708  1.2922
  583MOL0     H76932  -0.214  12.134   8.460 -0.1038 -0.7030 -0.3866
  583MOL0     H76933  -0.171  12.011   8.340  0.3084  0.9055 -0.0247
  583MOL0     H76934  -0.279  12.276   8.222 -1.0995 -0.6007 -3.0423
  583MOL0     H76935  -0.251  12.124   8.157  0.4687  0.2904 -0.9735
  583MOL0     H76936  -0.456  12.043   8.309  0.4664 -0.4302 -0.9351
  583MOL0     H76937  -0.498  12.173   8.191  0.8563  1.1833 -0.9447
  583MOL0     H76938   0.645  11.823   8.643  2.9883 -1.2893  1.6061
  583MOL0     H76939   0.892  11.807   8.650  1.4766 -0.0283 -1.6356
  583MOL0     H76940   1.278  11.958   8.732  2.0002  0.5762  0.7355
  583MOL0     H76941   1.534  11.947   8.769  0.2877 -2.0785 -1.3309
  583MOL0     H76942   3.064  10.806   7.658  0.7577 -1.4946 -0.0204
  583MOL0     H76943   3.299  10.780   7.591 -1.2847 -0.0119 -0.7732
  583MOL0     H76944   3.705  10.782   7.736  0.3761  1.0376  1.4211
  583MOL0     H76945   3.944  10.734   7.739  1.1067 -0.6183 -4.8224
  583MOL0     H76946   4.105  10.712   7.559  1.2088 -0.6122  0.0330
  583MOL0     H76947   4.253  10.725   7.661 -0.4907 -1.0697  1.2467
  583MOL0     H76948   4.194  10.859   7.387  0.1239  0.0362 -0.1968
  583MOL0     H76949   4.329  10.900   7.486  2.9271 -2.3662 -1.9451
  583MOL0     H76950   4.349  10.674   7.324  2.1993  0.3863  0.1249
  583MOL0     H76951   4.305  10.602   7.485  1.5312 -3.5161 -2.6627
  583MOL0     H76952   4.531  10.791   7.502  1.9411 -1.2284 -0.8990
  583MOL0     H76953   4.468  10.664   7.609 -0.4303 -0.2188  0.0888
  583MOL0     H76954   4.672  10.449   7.296  0.6828  0.4429  0.2319
  583MOL0     H76955   4.017  11.123   7.572  1.7747 -1.1984  2.0881
  583MOL0     H76956   3.773  11.181   7.584 -4.7924 -1.2759  0.0451
  584MOL0     O76957   6.719   5.025   8.637 -0.5253  0.3370  0.0660
  584MOL0     C76958   6.719   5.082   8.519  0.0427 -0.3477 -0.2397
  584MOL0     O76959   6.764   5.021   8.404  1.0536 -0.4777  0.0839
  584MOL0     C76960   6.806   4.897   8.418 -1.1613 -0.7105  0.5661
  584MOL0     C76961   6.942   4.877   8.399  0.6811  0.0218  0.6447
  584MOL0     C76962   6.996   4.749   8.410  0.4195 -0.4418  0.6973
  584MOL0     C76963   6.910   4.633   8.458 -0.0396 -0.8471 -0.4367
  584MOL0     O76964   6.945   4.505   8.498 -0.0256 -0.0164 -0.1027
  584MOL0     C76965   7.055   4.448   8.425  0.0188 -0.1698  0.3143
  584MOL0     C76966   7.004   4.355   8.320  0.1426 -0.8553 -1.0217
  584MOL0     C76967   7.110   4.255   8.267 -0.3898  1.1243 -0.5510
  584MOL0     C76968   7.191   4.324   8.159  0.3653  0.1447 -0.2849
  584MOL0     C76969   7.296   4.239   8.099  0.2687  0.5370 -0.4528
  584MOL0     C76970   7.382   4.303   7.968  0.1159 -0.5189 -0.2151
  584MOL0     C76971   7.460   4.194   7.889 -0.9024  0.6056  0.8507
  584MOL0     C76972   7.544   4.093   7.972  0.2652  0.1036 -0.6035
  584MOL0     N76973   7.624   4.002   7.875 -0.5415 -0.0716  0.6920
  584MOL0     C76974   7.742   4.037   7.800 -0.6407  0.2459  0.7072
  584MOL0     C76975   7.758   3.933   7.706 -1.0691  0.6217  0.0922
  584MOL0     C76976   7.875   3.919   7.612 -0.1521  1.0215  0.2129
  584MOL0     C76977   7.911   4.054   7.551  0.3344  0.4021 -0.1876
  584MOL0     C76978   7.790   4.096   7.461  0.1075  0.4541 -0.2287
  584MOL0     C76979   7.798   4.241   7.411 -0.1069 -0.8069  0.4518
  584MOL0     O76980   7.806   4.334   7.520  0.1529  0.2835 -0.3931
  584MOL0     C76981   7.689   4.382   7.573 -0.0031  0.2636 -1.5248
  584MOL0     C76982   7.708   4.450   7.687  0.1852  0.4747 -0.3524
  584MOL0     C76983   7.605   4.520   7.755  0.3319  0.4241  0.2394
  584MOL0     C76984   7.474   4.495   7.717  0.1608 -0.4261 -0.5732
  584MOL0     C76985   7.365   4.582   7.777 -0.6185  0.4863  0.0937
  584MOL0     O76986   7.237   4.558   7.731 -0.5663  0.4331  0.4059
  584MOL0     C76987   7.135   4.619   7.800  0.0834 -0.6124 -0.2333
  584MOL0     C76988   7.118   4.635   7.940 -0.4062  0.0031 -0.2850
  584MOL0     C76989   6.991   4.682   7.991 -0.6032  0.0465  0.2927
  584MOL0     C76990   6.888   4.726   7.907  0.4558 -0.0351  0.2070
  584MOL0     O76991   6.772   4.775   7.948 -0.2217  0.6125 -0.3202
  584MOL0     C76992   6.724   4.743   8.077 -0.5347  0.8578 -0.5917
  584MOL0     C76993   6.570   4.753   8.076  0.1197  0.3220 -0.5853
  584MOL0     C76994   6.541   4.892   8.126  0.9706  0.0708 -0.1643
  584MOL0     C76995   6.393   4.914   8.116  0.3554 -0.2833 -0.1398
  584MOL0     C76996   6.370   5.051   8.178  0.1012 -0.5682  0.3999
  584MOL0     C76997   6.235   5.088   8.137  1.4878 -0.1665  0.2820
  584MOL0     C76998   6.180   5.208   8.222 -1.0922  0.2660 -0.8104
  584MOL0     C76999   6.047   5.260   8.169 -0.0904  0.0899 -0.2669
  584MOL0    Cl77000   6.019   5.422   8.253  0.5366 -0.6069 -0.1467
  584MOL0     C77001   6.921   4.718   7.766  0.0676  0.4362  0.2076
  584MOL0     C77002   7.041   4.672   7.717  0.2022 -0.5412 -0.5556
  584MOL0     O77003   7.398   4.661   7.860 -0.0384 -0.0170  0.2712
  584MOL0     C77004   7.451   4.404   7.609  0.6878 -0.1026 -0.4530
  584MOL0     C77005   7.562   4.342   7.544  0.4109 -0.1652 -0.4725
  584MOL0     N77006   7.655   3.842   7.721  0.3780  0.0756 -0.4683
  584MOL0     N77007   7.588   3.878   7.826  0.1574 -0.2495 -0.0086
  584MOL0     C77008   6.773   4.652   8.455  0.0791  0.3564 -1.4624
  584MOL0     C77009   6.728   4.783   8.446  0.9955  0.5587  0.4205
  584MOL0     C77010   6.646   5.208   8.508  0.4015  0.8687  0.3728
  584MOL0     C77011   6.643   5.296   8.619  0.8494  0.3251 -0.7825
  584MOL0     C77012   6.548   5.398   8.623 -0.2048 -0.2296 -0.2645
  584MOL0     C77013   6.471   5.426   8.509  0.7408 -0.4486 -0.2627
  584MOL0     O77014   6.382   5.535   8.527  0.3544  0.4931  0.4558
  584MOL0     C77015   6.248   5.519   8.471 -1.4132  1.0896  0.7649
  584MOL0     C77016   6.165   5.630   8.513  0.0518 -0.4755 -0.5432
  584MOL0     C77017   6.108   5.594   8.647  0.7428 -0.2466 -0.0141
  584MOL0     C77018   6.010   5.481   8.659  0.3403 -0.6064  0.0357
  584MOL0     C77019   5.962   5.464   8.801  0.5413  0.2519  0.3384
  584MOL0     C77020   5.933   5.434   8.914  0.6515  0.7477  0.5904
  584MOL0     C77021   6.488   5.347   8.394  1.5423 -0.7821 -0.7424
  584MOL0     C77022   6.574   5.235   8.395 -0.0241 -0.7552  0.0127
  584MOL0     H77023   6.994   4.968   8.371 -1.1400  0.8486 -0.2060
  584MOL0     H77024   7.104   4.735   8.404  0.5710 -0.2875  2.4915
  584MOL0     H77025   7.132   4.391   8.477 -0.9635 -0.3407  1.6142
  584MOL0     H77026   7.105   4.532   8.376 -0.3926  1.0400  1.8774
  584MOL0     H77027   6.944   4.401   8.242 -2.0223 -0.7989  0.5652
  584MOL0     H77028   6.940   4.293   8.385 -1.0488 -0.3836 -1.7121
  584MOL0     H77029   7.074   4.157   8.236 -1.6640  1.1477  0.7706
  584MOL0     H77030   7.168   4.212   8.349 -1.9811 -0.9438 -0.4332
  584MOL0     H77031   7.119   4.342   8.080  0.0584  1.7652  0.3356
  584MOL0     H77032   7.220   4.425   8.190 -1.4215  1.7149 -3.3110
  584MOL0     H77033   7.245   4.148   8.065  1.1843  0.3967 -1.5111
  584MOL0     H77034   7.368   4.208   8.176 -2.7731 -0.1207  2.3262
  584MOL0     H77035   7.456   4.376   8.004  0.0821 -0.3202 -0.5424
  584MOL0     H77036   7.311   4.360   7.906 -0.7479  2.4681  3.1615
  584MOL0     H77037   7.389   4.145   7.821 -3.7658 -0.0373  4.0280
  584MOL0     H77038   7.525   4.244   7.817 -1.8453  1.4980  0.5941
  584MOL0     H77039   7.474   4.031   8.029 -2.4857  2.2315 -1.4701
  584MOL0     H77040   7.610   4.151   8.038  1.5947 -1.9641  0.0143
  584MOL0     H77041   7.812   4.120   7.803  0.7590 -0.8371 -0.3238
  584MOL0     H77042   7.840   3.852   7.533  3.3725  0.2318 -0.8324
  584MOL0     H77043   7.959   3.871   7.663  0.5275  1.1122 -0.7986
  584MOL0     H77044   7.999   4.052   7.485  0.9178  2.3577  0.4594
  584MOL0     H77045   7.939   4.124   7.630  2.9293 -0.6385 -0.0935
  584MOL0     H77046   7.788   4.028   7.375 -1.1503 -1.0344  0.9321
  584MOL0     H77047   7.698   4.087   7.518  0.1648 -1.8915 -0.3972
  584MOL0     H77048   7.729   4.266   7.330  4.5512  4.0771 -2.6998
  584MOL0     H77049   7.893   4.242   7.356 -0.2329  0.3730  0.2199
  584MOL0     H77050   7.810   4.472   7.718  0.9757  0.2587 -2.5831
  584MOL0     H77051   7.629   4.584   7.839  0.8159  1.7778 -0.8859
  584MOL0     H77052   7.200   4.595   7.999 -0.9087 -0.4319  0.1315
  584MOL0     H77053   6.987   4.693   8.099 -4.0733 -1.2680  0.4434
  584MOL0     H77054   6.772   4.804   8.154 -0.3396  2.3446 -1.8532
  584MOL0     H77055   6.749   4.639   8.100 -0.1715  1.1560  0.4125
  584MOL0     H77056   6.525   4.682   8.147  0.4763 -1.3700 -1.9946
  584MOL0     H77057   6.526   4.729   7.980  2.8259 -2.4702 -1.2886
  584MOL0     H77058   6.583   4.970   8.061 -2.6608  2.7828  0.4058
  584MOL0     H77059   6.566   4.900   8.232  1.2887  0.1447 -0.2461
  584MOL0     H77060   6.355   4.901   8.014 -0.0761 -3.1145  0.2912
  584MOL0     H77061   6.337   4.835   8.168  0.0773 -2.0599 -2.9120
  584MOL0     H77062   6.437   5.112   8.116 -1.9820 -0.1770 -1.5824
  584MOL0     H77063   6.380   5.063   8.286  0.7822 -0.4373  0.3311
  584MOL0     H77064   6.174   5.000   8.158  4.2490 -2.8749 -2.2428
  584MOL0     H77065   6.242   5.105   8.029  3.8827 -0.7190  0.3089
  584MOL0     H77066   6.165   5.162   8.320  3.1428 -0.4707 -0.3046
  584MOL0     H77067   6.259   5.284   8.224  1.9519 -2.6988  0.6645
  584MOL0     H77068   5.970   5.192   8.207 -1.4889  1.1159 -1.1629
  584MOL0     H77069   6.033   5.264   8.061 -0.7612 -0.3784 -0.2014
  584MOL0     H77070   6.846   4.758   7.698 -1.3303 -2.4875 -0.1166
  584MOL0     H77071   7.050   4.661   7.610  1.0794 -0.2591 -0.5169
  584MOL0     H77072   7.353   4.414   7.563 -0.1429  0.3438  1.3131
  584MOL0     H77073   7.548   4.278   7.457  2.4953  0.3108 -1.2162
  584MOL0     H77074   6.710   4.568   8.480 -1.1886  1.3527 -1.2019
  584MOL0     H77075   6.621   4.799   8.448  0.6159 -1.1758 -1.6131
  584MOL0     H77076   6.701   5.285   8.710  1.9350  0.1742 -1.4660
  584MOL0     H77077   6.534   5.464   8.709  0.1427  0.6575 -0.8772
  584MOL0     H77078   6.210   5.420   8.499  0.5610  0.1204  0.1603
  584MOL0     H77079   6.262   5.530   8.363  0.7879  0.4164  0.9394
  584MOL0     H77080   6.221   5.724   8.509  0.2694 -0.3403  3.0078
  584MOL0     H77081   6.092   5.659   8.436 -0.7824  0.5895  0.5943
  584MOL0     H77082   6.060   5.681   8.692  0.9367  0.2418 -0.7240
  584MOL0     H77083   6.182   5.562   8.721 -2.0651 -0.2079  3.0348
  584MOL0     H77084   5.918   5.517   8.613 -0.5012 -0.6014  1.6162
  584MOL0     H77085   6.053   5.385   8.628  1.4302 -0.6258  1.4546
  584MOL0     H77086   5.889   5.407   9.008  0.8645 -0.3126  0.3936
  584MOL0     H77087   6.446   5.376   8.298  0.8427  1.3774  0.1512
  584MOL0     H77088   6.561   5.169   8.310 -2.8085 -1.7006  1.0647
  585MOL0     O77089   3.125   8.239   1.125  0.3052 -0.3072 -0.1455
  585MOL0     C77090   3.231   8.301   1.137  0.8414 -0.2498  0.5067
  585MOL0     O77091   3.240   8.439   1.163  0.4569 -0.2552  0.3470
  585MOL0     C77092   3.121   8.510   1.142 -0.4141 -0.7176  0.6117
  585MOL0     C77093   3.053   8.559   1.250 -0.5896 -0.1395  0.0169
  585MOL0     C77094   2.940   8.636   1.237 -1.2181  0.5508 -0.7611
  585MOL0     C77095   2.894   8.664   1.110  0.1533 -0.2534 -0.6330
  585MOL0     O77096   2.776   8.742   1.100 -0.2538  0.7732  0.6347
  585MOL0     C77097   2.697   8.751   0.979  0.1845  0.2351  1.3288
  585MOL0     C77098   2.574   8.836   1.009  0.2561 -0.5376 -0.0176
  585MOL0     C77099   2.475   8.855   0.888  1.0388  1.3001  0.0665
  585MOL0     C77100   2.366   8.950   0.929  0.0838 -0.2955 -0.4556
  585MOL0     C77101   2.260   8.965   0.824 -0.1100 -0.4400 -0.5221
  585MOL0     C77102   2.165   9.082   0.861  0.5358  0.1819  0.6623
  585MOL0     C77103   2.209   9.225   0.815  0.5397  0.3465 -0.0387
  585MOL0     C77104   2.095   9.327   0.814  0.0420 -0.5382  0.1949
  585MOL0     N77105   2.024   9.323   0.945  0.1556  0.5296  0.2823
  585MOL0     C77106   2.073   9.362   1.064 -0.0875  0.6094  0.1541
  585MOL0     C77107   1.979   9.329   1.152  0.6246 -0.9079 -0.4152
  585MOL0     C77108   2.008   9.345   1.300 -0.2841 -0.1701 -0.3953
  585MOL0     C77109   1.917   9.441   1.377 -1.0379 -0.0367 -0.0887
  585MOL0     C77110   1.975   9.486   1.509  0.4242  0.1668  0.0285
  585MOL0     C77111   2.111   9.560   1.498  0.8437 -0.5543 -0.2288
  585MOL0     O77112   2.131   9.601   1.370 -0.6380 -0.1275  0.2781
  585MOL0     C77113   2.255   9.654   1.332  0.4244 -0.0015 -0.7716
  585MOL0     C77114   2.368   9.678   1.414 -0.0933 -0.4557 -0.7868
  585MOL0     C77115   2.483   9.731   1.352  0.3970 -0.7577  0.6491
  585MOL0     C77116   2.496   9.771   1.219  0.4381  0.5117 -0.3165
  585MOL0     C77117   2.627   9.818   1.157 -0.2002 -1.0360 -0.4870
  585MOL0     O77118   2.612   9.889   1.042 -0.3348  0.2241 -0.1049
  585MOL0     C77119   2.718   9.957   0.986 -0.3665  0.5805  0.1727
  585MOL0     C77120   2.770  10.063   1.055  0.2281 -0.1617 -1.5505
  585MOL0     C77121   2.886  10.128   1.027 -0.0022 -0.0280  0.2112
  585MOL0     C77122   2.957  10.076   0.909  0.2270  1.1928 -1.2164
  585MOL0     O77123   3.076  10.130   0.872  0.3483 -0.5858  0.2846
  585MOL0     C77124   3.128  10.111   0.738 -0.8099 -0.5028 -0.3379
  585MOL0     C77125   3.279  10.149   0.742  0.9811  0.3232 -0.0803
  585MOL0     C77126   3.357  10.086   0.626  0.3512 -0.7435  0.3314
  585MOL0     C77127   3.495  10.148   0.616  1.0052 -0.6940 -0.0189
  585MOL0     C77128   3.576  10.056   0.532 -0.2783 -0.2170  0.2008
  585MOL0     C77129   3.726  10.096   0.518 -0.3877 -0.9595 -0.0816
  585MOL0     C77130   3.802   9.978   0.456  0.2351  0.0494  0.3045
  585MOL0     C77131   3.959   9.984   0.456 -0.4035 -0.4356 -1.0080
  585MOL0    Cl77132   4.030  10.012   0.625  0.4701  0.2390 -0.0484
  585MOL0     C77133   2.892   9.983   0.825  0.8059  0.3303 -0.5457
  585MOL0     C77134   2.785   9.914   0.872  0.5707  0.2337  0.0014
  585MOL0     O77135   2.730   9.803   1.234 -0.2355 -0.1162 -0.1595
  585MOL0     C77136   2.373   9.755   1.143 -1.4783 -0.1115 -0.6654
  585MOL0     C77137   2.261   9.698   1.198 -0.2137  0.5724 -0.7083
  585MOL0     N77138   1.878   9.268   1.093  0.0648 -1.0208 -0.5444
  585MOL0     N77139   1.910   9.258   0.972  0.0066  0.2607 -0.0218
  585MOL0     C77140   2.963   8.604   1.000  0.9413 -0.0649 -0.1468
  585MOL0     C77141   3.084   8.536   1.013 -0.8191 -0.8316  0.6187
  585MOL0     C77142   3.360   8.224   1.137  0.2476  0.9520  0.0615
  585MOL0     C77143   3.354   8.086   1.099  0.8347 -0.3454 -0.7564
  585MOL0     C77144   3.468   8.008   1.101 -0.6227 -0.9817 -0.5289
  585MOL0     C77145   3.595   8.065   1.138 -0.4056  0.6159 -0.0504
  585MOL0     O77146   3.707   7.992   1.165  0.1621 -0.2306 -0.2246
  585MOL0     C77147   3.700   7.850   1.129 -0.0413  0.1217 -0.3241
  585MOL0     C77148   3.636   7.759   1.242 -0.3567  0.2233 -0.8368
  585MOL0     C77149   3.644   7.806   1.384 -0.3530 -0.3731 -1.3663
  585MOL0     C77150   3.573   7.724   1.486  0.4676  0.6226 -0.2314
  585MOL0     C77151   3.625   7.769   1.618 -0.3150 -0.7096 -0.0031
  585MOL0     C77152   3.664   7.810   1.723  1.2399 -0.1666  0.4136
  585MOL0     C77153   3.596   8.191   1.190 -0.1037 -0.8278 -0.1976
  585MOL0     C77154   3.486   8.270   1.182 -0.1200  0.1902  1.1869
  585MOL0     H77155   3.086   8.538   1.351 -0.1060 -2.2613 -0.5342
  585MOL0     H77156   2.894   8.688   1.320 -0.0799  1.8994 -0.9313
  585MOL0     H77157   2.655   8.654   0.950  0.9326  0.5049 -0.8398
  585MOL0     H77158   2.751   8.796   0.895  0.8411 -0.5158  1.3364
  585MOL0     H77159   2.605   8.929   1.056  1.1079 -0.3507 -0.9078
  585MOL0     H77160   2.513   8.784   1.083  2.3752 -0.0099  2.2519
  585MOL0     H77161   2.430   8.764   0.846  0.4869  1.5250  0.1671
  585MOL0     H77162   2.523   8.911   0.807  0.6553 -0.7019 -1.6290
  585MOL0     H77163   2.321   8.923   1.025  0.8223 -2.3772 -0.6471
  585MOL0     H77164   2.416   9.045   0.949 -1.2552  0.7750 -1.9329
  585MOL0     H77165   2.197   8.876   0.814 -3.1183  1.2894  1.3701
  585MOL0     H77166   2.300   8.979   0.724  2.7034 -1.0260  0.4104
  585MOL0     H77167   2.147   9.090   0.969 -3.8120 -1.1605  0.2230
  585MOL0     H77168   2.069   9.058   0.815  0.2457  1.5317  0.5236
  585MOL0     H77169   2.289   9.266   0.878  1.4296  0.8933 -1.4740
  585MOL0     H77170   2.243   9.223   0.711 -1.9540  1.2945 -0.9556
  585MOL0     H77171   2.022   9.302   0.736  1.2231 -1.1080 -0.7492
  585MOL0     H77172   2.141   9.425   0.797  1.3175 -1.4196 -1.6567
  585MOL0     H77173   2.169   9.412   1.080  0.3308 -0.2102  0.2319
  585MOL0     H77174   2.113   9.370   1.312 -0.2987 -0.5666  0.6361
  585MOL0     H77175   1.991   9.244   1.341  1.1940 -1.2228 -2.2373
  585MOL0     H77176   1.822   9.389   1.391  0.3248 -2.0233  2.7447
  585MOL0     H77177   1.904   9.525   1.308 -0.5435 -1.0567 -1.4868
  585MOL0     H77178   1.901   9.546   1.563  1.0676  1.7225 -0.7665
  585MOL0     H77179   1.990   9.395   1.568 -0.1810  1.3810  2.1673
  585MOL0     H77180   2.193   9.502   1.541  0.9646  0.1761  0.5606
  585MOL0     H77181   2.093   9.650   1.558 -3.0091 -1.4893  0.2889
  585MOL0     H77182   2.353   9.651   1.518  0.1297 -2.7664 -1.2977
  585MOL0     H77183   2.558   9.766   1.422 -0.1229 -1.6549  1.6896
  585MOL0     H77184   2.724  10.083   1.152  0.6458  1.5985 -1.6940
  585MOL0     H77185   2.914  10.203   1.101  0.8551 -1.0949  1.0127
  585MOL0     H77186   3.091  10.177   0.659 -0.0746 -1.4826 -1.5513
  585MOL0     H77187   3.123  10.005   0.711 -0.5808 -1.0427  1.5624
  585MOL0     H77188   3.325  10.107   0.832 -2.2666 -1.4340  0.9071
  585MOL0     H77189   3.300  10.256   0.743  1.7445  0.1939 -0.8725
  585MOL0     H77190   3.301  10.092   0.532 -0.6527  2.4228  1.0117
  585MOL0     H77191   3.355   9.977   0.627  1.1598 -0.7970 -0.9160
  585MOL0     H77192   3.483  10.248   0.574 -0.5809 -0.0055  1.9340
  585MOL0     H77193   3.534  10.175   0.714 -1.3688  1.3911  0.4572
  585MOL0     H77194   3.522  10.038   0.438  0.1137  0.0789 -0.0895
  585MOL0     H77195   3.567   9.961   0.585 -2.9471  0.5194  1.2159
  585MOL0     H77196   3.779  10.124   0.609 -0.0181  1.5459 -0.9842
  585MOL0     H77197   3.735  10.178   0.445  0.3476  1.6415  2.7199
  585MOL0     H77198   3.774   9.882   0.501  0.9903  0.2915  1.3411
  585MOL0     H77199   3.769   9.975   0.352  0.4692  0.7460  0.2085
  585MOL0     H77200   3.993  10.059   0.384 -2.5854 -1.6303 -3.4499
  585MOL0     H77201   4.000   9.888   0.421 -0.2625 -0.7210 -0.0928
  585MOL0     H77202   2.934   9.955   0.729  3.4733 -0.4348  0.7617
  585MOL0     H77203   2.749   9.826   0.820 -1.1942  0.4270  0.8541
  585MOL0     H77204   2.377   9.781   1.037 -3.2714  0.0162 -0.7275
  585MOL0     H77205   2.184   9.681   1.122 -2.4884 -0.0846  1.6113
  585MOL0     H77206   2.933   8.614   0.896 -1.2043 -1.7486  0.2416
  585MOL0     H77207   3.149   8.502   0.933  0.7875 -2.0172  2.3358
  585MOL0     H77208   3.257   8.047   1.071  0.7336  0.7595 -2.0379
  585MOL0     H77209   3.465   7.903   1.071 -1.8279 -0.9647 -0.5321
  585MOL0     H77210   3.803   7.814   1.122  0.4787  0.8543  2.2799
  585MOL0     H77211   3.652   7.829   1.033 -1.0841  4.9822 -1.1338
  585MOL0     H77212   3.531   7.738   1.221 -0.0343 -1.6877 -0.7227
  585MOL0     H77213   3.683   7.661   1.236  0.3971  0.5998 -1.1475
  585MOL0     H77214   3.609   7.910   1.392 -3.3186 -1.4123  2.8089
  585MOL0     H77215   3.751   7.814   1.408 -0.9014  0.4460  1.2173
  585MOL0     H77216   3.466   7.750   1.489  0.2958 -0.0786 -0.2764
  585MOL0     H77217   3.578   7.617   1.466 -4.3490  0.3156 -1.1302
  585MOL0     H77218   3.689   7.827   1.826  0.4983 -3.2046  1.1686
  585MOL0     H77219   3.694   8.217   1.228 -0.1283 -2.6999  1.2973
  585MOL0     H77220   3.501   8.372   1.216 -0.4208  0.8672 -0.6108
  586MOL0     O77221   0.040   0.534   5.674 -0.9976  1.1334 -0.1500
  586MOL0     C77222   0.130   0.560   5.586 -0.3944  0.4878 -0.3508
  586MOL0     O77223   0.121   0.652   5.484  0.0040 -0.5170  0.7724
  586MOL0     C77224   0.023   0.744   5.483 -0.5418 -0.0079 -0.0445
  586MOL0     C77225  -0.048   0.800   5.591  1.1213 -0.5711 -0.0041
  586MOL0     C77226  -0.131   0.909   5.581  0.2665 -0.2417  0.8355
  586MOL0     C77227  -0.141   0.973   5.455  0.3497 -0.9966 -0.0629
  586MOL0     O77228  -0.233   1.075   5.431 -0.1905  0.3210  0.0421
  586MOL0     C77229  -0.278   1.161   5.538 -0.4763  0.0466 -0.2200
  586MOL0     C77230  -0.358   1.286   5.489 -0.1554  0.1055  0.3012
  586MOL0     C77231  -0.486   1.227   5.422 -0.0800 -0.3694 -0.4581
  586MOL0     C77232  -0.593   1.339   5.412  0.4438 -1.2484 -0.3471
  586MOL0     C77233  -0.566   1.437   5.293  0.3616  0.2419  0.3997
  586MOL0     C77234  -0.668   1.550   5.291 -0.1063 -0.4973  0.2319
  586MOL0     C77235  -0.635   1.662   5.192 -0.1032 -0.3409 -1.1893
  586MOL0     C77236  -0.717   1.655   5.064  0.2274  0.8310 -0.5155
  586MOL0     N77237  -0.865   1.671   5.084  0.0985 -0.5128  0.2871
  586MOL0     C77238  -0.933   1.763   5.163  0.0952  0.1994 -0.1654
  586MOL0     C77239  -1.063   1.735   5.152 -0.6246 -0.5807 -0.2977
  586MOL0     C77240  -1.175   1.800   5.213  0.1033  0.2106  0.9684
  586MOL0     C77241  -1.208   1.753   5.350 -0.7272  0.5215 -0.4308
  586MOL0     C77242  -1.173   1.848   5.466 -0.3863 -0.5683  0.2187
  586MOL0     C77243  -1.221   1.800   5.599  0.2839 -0.0190 -0.9313
  586MOL0     O77244  -1.361   1.799   5.608 -0.5152 -0.6221  0.3814
  586MOL0     C77245  -1.428   1.735   5.705 -0.8716  0.7868  0.4522
  586MOL0     C77246  -1.564   1.766   5.730  0.0102 -0.0167 -0.1344
  586MOL0     C77247  -1.640   1.714   5.836 -0.8225 -0.0213 -0.7215
  586MOL0     C77248  -1.583   1.631   5.938  0.9184  0.3791  0.8314
  586MOL0     C77249  -1.658   1.599   6.056  0.3027 -0.0454  0.3325
  586MOL0     O77250  -1.593   1.506   6.145  1.1984 -0.9985 -0.1494
  586MOL0     C77251  -1.640   1.476   6.269  0.6801 -1.4327  0.0326
  586MOL0     C77252  -1.543   1.448   6.368  0.4960  0.5063  0.1554
  586MOL0     C77253  -1.587   1.406   6.496 -0.1070 -0.4531  1.2089
  586MOL0     C77254  -1.724   1.413   6.538  0.2602  0.9070 -0.0624
  586MOL0     O77255  -1.759   1.383   6.666 -0.0512  0.1773  0.2078
  586MOL0     C77256  -1.874   1.433   6.722  0.3843 -0.1010 -0.0613
  586MOL0     C77257  -1.901   1.392   6.877  0.2657  0.7262 -0.9686
  586MOL0     C77258  -1.777   1.438   6.960  0.3321 -0.1023  0.1119
  586MOL0     C77259  -1.785   1.409   7.103  0.0090 -0.8411 -0.3995
  586MOL0     C77260  -1.886   1.509   7.167 -0.1569 -0.3168 -0.3550
  586MOL0     C77261  -1.933   1.460   7.304 -0.3991 -0.9422  0.5559
  586MOL0     C77262  -2.049   1.550   7.359 -1.0073  0.2156 -0.2002
  586MOL0     C77263  -1.987   1.674   7.435  0.4113 -0.1767 -0.8431
  586MOL0    Cl77264  -2.120   1.744   7.542 -0.0999 -0.3172  0.4755
  586MOL0     C77265  -1.819   1.429   6.432  0.0306 -0.2447  0.5192
  586MOL0     C77266  -1.780   1.465   6.299 -0.0724 -0.4429 -0.4244
  586MOL0     O77267  -1.768   1.649   6.069  1.1791 -0.1977  1.3148
  586MOL0     C77268  -1.450   1.589   5.908 -0.1987  0.5317 -0.9271
  586MOL0     C77269  -1.376   1.646   5.802 -0.3931  0.6776 -0.2672
  586MOL0     N77270  -1.081   1.632   5.062 -0.2648 -0.0538 -1.5160
  586MOL0     N77271  -0.963   1.596   5.020  0.0330  0.2696 -0.8495
  586MOL0     C77272  -0.083   0.916   5.343 -0.9673  0.5249 -0.1940
  586MOL0     C77273   0.006   0.806   5.355  0.7945  0.4635 -0.3721
  586MOL0     C77274   0.234   0.451   5.560  0.3492 -0.5585  0.1534
  586MOL0     C77275   0.358   0.490   5.503  1.5346 -0.6275  1.2654
  586MOL0     C77276   0.466   0.401   5.478  0.0526  0.7815  0.6581
  586MOL0     C77277   0.452   0.273   5.523  0.4103  1.3763 -0.7169
  586MOL0     O77278   0.554   0.182   5.520  0.1952  0.1470 -0.2475
  586MOL0     C77279   0.554   0.066   5.602 -0.5918 -0.2155 -0.8570
  586MOL0     C77280   0.703   0.018   5.624 -0.2096  0.2196  0.0391
  586MOL0     C77281   0.711  -0.112   5.709 -0.6171  0.0018 -0.6698
  586MOL0     C77282   0.714  -0.070   5.860  0.6143 -0.8101 -0.6421
  586MOL0     C77283   0.841  -0.014   5.906  0.1868  0.4692 -1.0129
  586MOL0     C77284   0.954   0.034   5.919  0.2187  0.7878  0.9803
  586MOL0     C77285   0.325   0.234   5.585  0.0976  0.0035  0.9133
  586MOL0     C77286   0.219   0.321   5.602 -0.4168 -0.0273 -0.6314
  586MOL0     H77287  -0.030   0.756   5.689 -2.6354  1.8619  2.0077
  586MOL0     H77288  -0.178   0.937   5.675 -0.4668 -3.2914  1.5130
  586MOL0     H77289  -0.185   1.197   5.584 -1.2559  1.7153  0.1373
  586MOL0     H77290  -0.336   1.108   5.615 -1.2547  2.0848  0.6729
  586MOL0     H77291  -0.318   1.357   5.416 -0.8186  0.2626  0.0800
  586MOL0     H77292  -0.385   1.346   5.576 -3.7482 -0.0272 -0.5600
  586MOL0     H77293  -0.532   1.155   5.489 -1.1630 -1.7315 -2.5698
  586MOL0     H77294  -0.459   1.186   5.324 -3.1795 -0.4247 -1.3945
  586MOL0     H77295  -0.692   1.292   5.402  1.1360 -3.2220  1.3542
  586MOL0     H77296  -0.591   1.397   5.504  2.6458 -1.0666 -0.4548
  586MOL0     H77297  -0.568   1.392   5.194 -4.0122 -0.2555  0.5148
  586MOL0     H77298  -0.463   1.472   5.298  1.0142 -0.7468 -3.3008
  586MOL0     H77299  -0.668   1.603   5.387  0.9684 -1.5643  0.8492
  586MOL0     H77300  -0.763   1.505   5.262  1.3042 -1.1361 -4.0055
  586MOL0     H77301  -0.658   1.755   5.244 -1.2232 -0.4225 -1.5064
  586MOL0     H77302  -0.527   1.665   5.177 -0.0636  1.0058 -0.7543
  586MOL0     H77303  -0.692   1.560   5.018  4.4017  1.2928  0.3904
  586MOL0     H77304  -0.696   1.739   4.998  0.7150  1.6434  0.6296
  586MOL0     H77305  -0.877   1.836   5.222 -1.3079  1.8849 -0.8560
  586MOL0     H77306  -1.259   1.764   5.153 -1.9831  2.7199  2.1836
  586MOL0     H77307  -1.173   1.909   5.209 -1.3959  0.2611  1.0176
  586MOL0     H77308  -1.156   1.663   5.383  0.6119  0.5998 -2.2291
  586MOL0     H77309  -1.315   1.730   5.349 -0.8478  0.6853  2.0820
  586MOL0     H77310  -1.064   1.856   5.469 -0.4109 -0.0215 -0.1236
  586MOL0     H77311  -1.215   1.948   5.446  0.9395 -0.1745 -0.7507
  586MOL0     H77312  -1.184   1.873   5.671  0.9253 -0.8972 -0.3494
  586MOL0     H77313  -1.180   1.701   5.623  0.6653  0.4587  0.4752
  586MOL0     H77314  -1.621   1.828   5.661 -0.6638 -0.3169  0.1469
  586MOL0     H77315  -1.745   1.739   5.852 -2.1667 -5.1327  0.3101
  586MOL0     H77316  -1.440   1.451   6.337  1.1041 -2.4589  1.5373
  586MOL0     H77317  -1.514   1.384   6.573  1.9855 -0.6733 -0.7148
  586MOL0     H77318  -1.962   1.395   6.670 -1.2767  0.5894  2.0929
  586MOL0     H77319  -1.870   1.540   6.700 -0.7818 -0.6736 -3.7049
  586MOL0     H77320  -1.919   1.284   6.888 -0.7095  0.9385 -0.3028
  586MOL0     H77321  -1.983   1.452   6.918 -0.1940  1.4366 -2.8513
  586MOL0     H77322  -1.761   1.546   6.954  0.3112 -0.1731 -1.9195
  586MOL0     H77323  -1.684   1.394   6.924 -0.5288 -1.3963 -0.6397
  586MOL0     H77324  -1.798   1.302   7.121  1.5361 -0.9135  0.4355
  586MOL0     H77325  -1.688   1.438   7.145 -0.6512  0.7027  0.1390
  586MOL0     H77326  -1.986   1.512   7.122  0.1065 -2.3531 -1.1885
  586MOL0     H77327  -1.838   1.607   7.174  1.9226 -1.3390  0.2669
  586MOL0     H77328  -1.848   1.453   7.373 -1.5505  2.2380  2.5194
  586MOL0     H77329  -1.978   1.362   7.286 -0.1853 -0.9489  0.0558
  586MOL0     H77330  -2.097   1.596   7.272  0.9360  0.9042 -0.9582
  586MOL0     H77331  -2.116   1.492   7.423 -2.0887  0.0639 -1.4312
  586MOL0     H77332  -1.946   1.746   7.364 -2.0883  0.5059 -1.6628
  586MOL0     H77333  -1.902   1.649   7.500 -1.1972 -0.1645  1.3639
  586MOL0     H77334  -1.926   1.417   6.446  0.2966 -0.2560  2.8014
  586MOL0     H77335  -1.856   1.485   6.224 -0.9188  0.1146  0.5491
  586MOL0     H77336  -1.404   1.525   5.982  0.3802 -0.1417 -1.8519
  586MOL0     H77337  -1.283   1.596   5.777  0.9168  3.9133 -2.5944
  586MOL0     H77338  -0.090   0.963   5.245 -1.0833  1.0350  0.0559
  586MOL0     H77339   0.045   0.769   5.261 -2.1402  0.1986 -1.5951
  586MOL0     H77340   0.376   0.592   5.471  1.8873 -0.9107  0.5333
  586MOL0     H77341   0.557   0.440   5.434 -0.8347  2.0071 -0.1728
  586MOL0     H77342   0.494  -0.021   5.571 -0.7708  0.0401 -1.2369
  586MOL0     H77343   0.504   0.080   5.699  2.5794  0.1652  0.8774
  586MOL0     H77344   0.732  -0.011   5.523 -0.1249 -1.4456  0.5169
  586MOL0     H77345   0.776   0.095   5.651  2.8396 -2.0241 -1.3326
  586MOL0     H77346   0.792  -0.177   5.673 -1.3556 -2.3395  1.5628
  586MOL0     H77347   0.628  -0.174   5.675 -0.3767 -0.1212 -1.0357
  586MOL0     H77348   0.629  -0.002   5.869  2.3634  1.3860  0.4003
  586MOL0     H77349   0.710  -0.153   5.930  2.8166  1.1386  2.0238
  586MOL0     H77350   1.056   0.061   5.938  0.8740 -0.5804 -0.3758
  586MOL0     H77351   0.313   0.134   5.624  0.1273 -0.5424 -0.4367
  586MOL0     H77352   0.127   0.287   5.650 -0.5224  0.6826 -0.3297
  587MOL0     O77353   4.887   5.726   0.341 -0.4914  0.2024  0.4600
  587MOL0     C77354   4.905   5.612   0.288  0.1124  0.8335 -0.6176
  587MOL0     O77355   4.814   5.543   0.198  0.0962 -0.7119 -0.3179
  587MOL0     C77356   4.679   5.547   0.228 -0.3304  0.3282 -0.7615
  587MOL0     C77357   4.594   5.527   0.122  0.5858  0.2338  0.9703
  587MOL0     C77358   4.455   5.536   0.130  0.7150  0.6276  0.5502
  587MOL0     C77359   4.391   5.547   0.253 -1.1556 -0.0465 -0.2224
  587MOL0     O77360   4.258   5.530   0.259  0.5155  0.1744 -0.1217
  587MOL0     C77361   4.174   5.539   0.143  0.8514  0.0695  0.1298
  587MOL0     C77362   4.033   5.504   0.183 -0.6250 -0.2297 -1.1430
  587MOL0     C77363   3.929   5.525   0.068 -0.0307  0.4903 -0.5471
  587MOL0     C77364   3.787   5.497   0.116 -0.6583 -0.5077 -0.0910
  587MOL0     C77365   3.686   5.506  -0.007 -1.1796  0.6357 -0.3901
  587MOL0     C77366   3.700   5.396  -0.107  0.3150 -0.7448 -0.0458
  587MOL0     C77367   3.585   5.398  -0.210  0.7463  0.4341  0.3187
  587MOL0     C77368   3.616   5.498  -0.331 -0.0586  0.1879 -0.3279
  587MOL0     N77369   3.509   5.502  -0.433  0.9185 -0.1682 -0.4631
  587MOL0     C77370   3.386   5.562  -0.413  0.6864  1.3003 -0.3065
  587MOL0     C77371   3.323   5.575  -0.530 -0.2334 -0.6628 -0.2906
  587MOL0     C77372   3.189   5.636  -0.551  0.6156  1.1292 -0.8506
  587MOL0     C77373   3.062   5.559  -0.503 -0.4417 -0.0622  0.2512
  587MOL0     C77374   3.060   5.546  -0.353 -0.5742  0.0925 -0.8834
  587MOL0     C77375   2.925   5.475  -0.306 -0.0392 -0.5269 -0.7263
  587MOL0     O77376   2.842   5.576  -0.241  0.6031  0.0496 -0.4707
  587MOL0     C77377   2.713   5.547  -0.200  0.4237 -0.1939  0.4073
  587MOL0     C77378   2.634   5.652  -0.149 -0.2409  0.5275  1.1481
  587MOL0     C77379   2.511   5.634  -0.090 -0.1797 -0.4935 -0.1250
  587MOL0     C77380   2.455   5.506  -0.088 -0.4651 -0.9072 -0.5061
  587MOL0     C77381   2.325   5.495  -0.028  0.1174  0.3766 -0.1577
  587MOL0     O77382   2.287   5.590   0.053 -0.4642 -0.2134  0.0480
  587MOL0     C77383   2.158   5.604   0.095  0.0029  0.8193  0.8111
  587MOL0     C77384   2.085   5.703   0.031  0.2972 -0.2946 -0.4657
  587MOL0     C77385   1.958   5.728   0.086 -0.6508 -0.5359 -0.0826
  587MOL0     C77386   1.905   5.670   0.209 -0.4745  0.2111 -0.3780
  587MOL0     O77387   1.787   5.705   0.269  0.6874  0.2602 -0.2307
  587MOL0     C77388   1.732   5.835   0.235  0.0991 -0.6490  0.0841
  587MOL0     C77389   1.601   5.848   0.321  0.0222  0.0208 -0.1244
  587MOL0     C77390   1.499   5.936   0.264 -0.2137  0.3424  0.9681
  587MOL0     C77391   1.379   5.933   0.358  0.6780 -0.8087 -1.6829
  587MOL0     C77392   1.253   6.012   0.325  0.4603 -0.1072 -0.1767
  587MOL0     C77393   1.130   5.968   0.412  0.0512  0.1021 -0.1866
  587MOL0     C77394   1.067   6.078   0.505  0.8366  0.0062  0.4816
  587MOL0     C77395   0.948   6.020   0.581 -0.4278  0.7696  0.1296
  587MOL0    Cl77396   0.883   6.156   0.674 -0.4679 -0.5601 -0.0473
  587MOL0     C77397   1.985   5.577   0.261 -0.2306 -0.0484  0.3097
  587MOL0     C77398   2.103   5.535   0.203 -1.2765 -1.2494  0.0920
  587MOL0     O77399   2.259   5.408  -0.088 -0.1279  0.1831 -0.4614
  587MOL0     C77400   2.528   5.401  -0.148  0.1836  0.2305 -0.4041
  587MOL0     C77401   2.653   5.416  -0.198  0.3742  0.1639  0.2159
  587MOL0     N77402   3.415   5.538  -0.631 -0.6123  0.4617 -0.6245
  587MOL0     N77403   3.526   5.502  -0.567 -0.0862 -0.3393 -0.3912
  587MOL0     C77404   4.473   5.569   0.363  0.3210 -0.5759 -0.3814
  587MOL0     C77405   4.613   5.576   0.348 -0.3187  0.1570 -1.4216
  587MOL0     C77406   5.026   5.538   0.320  0.4001  0.6620  0.5038
  587MOL0     C77407   5.145   5.609   0.350 -0.9612 -0.0475 -0.1554
  587MOL0     C77408   5.265   5.526   0.374 -0.1803 -0.9563  0.3275
  587MOL0     C77409   5.260   5.392   0.379  0.6932  1.0394 -0.8166
  587MOL0     O77410   5.367   5.318   0.417 -0.1629  0.0099 -0.5903
  587MOL0     C77411   5.346   5.254   0.552 -0.5691  0.6273 -0.0705
  587MOL0     C77412   5.453   5.301   0.655  0.5761 -0.5879  0.0309
  587MOL0     C77413   5.467   5.459   0.668  0.0697 -0.1806 -0.1758
  587MOL0     C77414   5.583   5.479   0.766  0.9845 -0.3584  0.5284
  587MOL0     C77415   5.586   5.616   0.820 -0.5203  0.6143  0.5456
  587MOL0     C77416   5.608   5.726   0.863 -0.5373 -1.1728  0.8785
  587MOL0     C77417   5.147   5.322   0.338  0.2147 -0.1419  0.4839
  587MOL0     C77418   5.039   5.404   0.290  0.4567  0.8360 -0.1524
  587MOL0     H77419   4.636   5.512   0.023  0.5034 -1.8237  1.2003
  587MOL0     H77420   4.399   5.515   0.039  2.1382  1.7591 -0.6314
  587MOL0     H77421   4.187   5.467   0.061 -0.3586  0.0096 -0.0331
  587MOL0     H77422   4.191   5.641   0.104 -0.1434  2.2909  4.8290
  587MOL0     H77423   4.015   5.577   0.262  0.4385 -0.2951 -0.8228
  587MOL0     H77424   4.051   5.405   0.228  0.4528  0.4958  0.0906
  587MOL0     H77425   3.954   5.463  -0.018 -2.5114  3.8856 -4.0646
  587MOL0     H77426   3.936   5.632   0.047 -1.3358  1.3354  2.7063
  587MOL0     H77427   3.778   5.401   0.167  1.5551  0.0032  1.4335
  587MOL0     H77428   3.754   5.569   0.191 -0.3899 -2.0152  1.5428
  587MOL0     H77429   3.698   5.601  -0.059  3.6430  0.2696 -0.4043
  587MOL0     H77430   3.589   5.486   0.040 -0.2341  1.0674  1.8821
  587MOL0     H77431   3.692   5.305  -0.047 -2.5800  0.2748  1.3260
  587MOL0     H77432   3.803   5.391  -0.142  0.9223  2.7267  0.8410
  587MOL0     H77433   3.577   5.296  -0.250 -0.5548  0.5507  0.2296
  587MOL0     H77434   3.493   5.435  -0.164  0.7742  1.7665 -0.6478
  587MOL0     H77435   3.712   5.475  -0.380 -0.4929 -2.0714 -0.1922
  587MOL0     H77436   3.625   5.600  -0.291  0.3653 -0.6485  1.8205
  587MOL0     H77437   3.339   5.591  -0.319 -1.9539  1.7258 -1.6554
  587MOL0     H77438   3.176   5.625  -0.659  2.4651 -2.3127 -0.8624
  587MOL0     H77439   3.187   5.734  -0.503 -0.2146 -0.0602  1.7366
  587MOL0     H77440   3.059   5.458  -0.545  3.7629 -1.2229  2.2188
  587MOL0     H77441   2.973   5.614  -0.537  0.0005 -1.7114 -4.2601
  587MOL0     H77442   3.144   5.486  -0.317 -3.2478 -1.7710  3.0158
  587MOL0     H77443   3.055   5.646  -0.310  1.1482 -0.6862  1.2790
  587MOL0     H77444   2.931   5.403  -0.224 -1.7421  3.2692  3.1343
  587MOL0     H77445   2.882   5.436  -0.398  0.6354 -4.2439  0.3778
  587MOL0     H77446   2.667   5.754  -0.165  1.3835 -0.2740 -0.9590
  587MOL0     H77447   2.451   5.725  -0.085  0.6275  0.5842 -4.8782
  587MOL0     H77448   2.122   5.768  -0.048 -0.2683 -0.3030 -0.7496
  587MOL0     H77449   1.887   5.794   0.038 -0.1538 -0.7547 -1.1290
  587MOL0     H77450   1.698   5.849   0.132  0.6588  1.2453  0.1294
  587MOL0     H77451   1.812   5.908   0.253 -0.6150 -0.1773  1.4536
  587MOL0     H77452   1.627   5.887   0.420 -1.9186  0.2231  0.3362
  587MOL0     H77453   1.561   5.747   0.331  3.0544 -1.1585  1.2531
  587MOL0     H77454   1.468   5.884   0.173 -0.0798 -0.8367  1.5820
  587MOL0     H77455   1.539   6.036   0.245 -1.5008  0.3139 -2.8975
  587MOL0     H77456   1.355   5.833   0.396  2.1762 -0.3586  0.7025
  587MOL0     H77457   1.422   5.979   0.448 -3.9321  0.1137  0.3480
  587MOL0     H77458   1.236   6.011   0.217 -0.9218 -0.0857  0.0309
  587MOL0     H77459   1.257   6.118   0.352  0.1286  0.0191 -0.6291
  587MOL0     H77460   1.146   5.881   0.477 -3.0412  2.0343  3.5912
  587MOL0     H77461   1.041   5.943   0.354 -1.9378 -1.3588  3.2043
  587MOL0     H77462   1.148   6.113   0.570  3.0585  0.3226 -2.2321
  587MOL0     H77463   1.037   6.165   0.445  2.7955 -0.5648 -1.4714
  587MOL0     H77464   0.980   5.939   0.647  0.5108 -0.2989 -1.5346
  587MOL0     H77465   0.878   5.973   0.511  1.1754 -2.7888  0.6738
  587MOL0     H77466   1.932   5.531   0.343 -1.8357  2.5337  0.8491
  587MOL0     H77467   2.171   5.455   0.228 -0.0846 -0.6411 -1.0961
  587MOL0     H77468   2.483   5.303  -0.151 -1.2755  0.8878 -2.6031
  587MOL0     H77469   2.704   5.325  -0.229 -4.2229 -2.1101 -1.6369
  587MOL0     H77470   4.425   5.600   0.455  1.0642  0.2283 -0.2423
  587MOL0     H77471   4.669   5.600   0.438  0.4053 -0.2116 -1.7584
  587MOL0     H77472   5.155   5.716   0.366  0.9808  0.3936 -3.4605
  587MOL0     H77473   5.360   5.574   0.394 -0.5094 -0.2081  0.1291
  587MOL0     H77474   5.347   5.146   0.539  0.4475  0.5361  0.7177
  587MOL0     H77475   5.251   5.284   0.597 -0.2689 -0.4718  1.3607
  587MOL0     H77476   5.423   5.260   0.751 -3.9482  2.0222  0.0130
  587MOL0     H77477   5.552   5.268   0.622 -0.0476  0.3904 -3.1864
  587MOL0     H77478   5.376   5.496   0.716  0.1242  1.9469 -1.5928
  587MOL0     H77479   5.487   5.509   0.573  2.5119 -0.2601  0.2182
  587MOL0     H77480   5.590   5.405   0.846  0.4232  0.1568  1.0716
  587MOL0     H77481   5.676   5.476   0.709 -0.0458  1.6630 -1.4097
  587MOL0     H77482   5.607   5.827   0.898  1.0673  0.1651 -2.4417
  587MOL0     H77483   5.149   5.215   0.324  2.2758 -0.0303 -0.4458
  587MOL0     H77484   4.960   5.348   0.241 -0.0690 -1.5680  3.1001
  588MOL0     O77485   7.036   3.911   5.086  0.6263 -0.2561 -0.3924
  588MOL0     C77486   7.043   3.808   5.158  0.3707 -0.8622 -0.6755
  588MOL0     O77487   6.930   3.743   5.219  0.3826 -0.0644  0.0347
  588MOL0     C77488   6.835   3.818   5.282 -0.0349 -0.4280  0.3281
  588MOL0     C77489   6.847   3.955   5.322 -0.8552 -0.5615 -0.0006
  588MOL0     C77490   6.740   4.021   5.387 -0.2939  0.2357 -0.0370
  588MOL0     C77491   6.621   3.954   5.420  0.0197  0.0472  0.2290
  588MOL0     O77492   6.518   4.034   5.479  0.6191 -0.5951  0.4188
  588MOL0     C77493   6.374   3.993   5.468 -0.5781 -0.8758 -0.3680
  588MOL0     C77494   6.290   4.092   5.551 -0.7572  1.3656 -0.6781
  588MOL0     C77495   6.139   4.090   5.535  0.0377 -0.2594  0.2708
  588MOL0     C77496   6.063   3.982   5.617 -0.4342 -0.2914  0.4730
  588MOL0     C77497   5.919   3.958   5.566  0.3736 -0.2769  0.3916
  588MOL0     C77498   5.832   4.084   5.586  0.8392  0.1639  0.8562
  588MOL0     C77499   5.685   4.036   5.571  0.7973  0.4387 -0.3751
  588MOL0     C77500   5.583   4.114   5.651 -0.5282 -0.8005 -0.8025
  588MOL0     N77501   5.447   4.057   5.647  0.5455 -0.5648 -0.5231
  588MOL0     C77502   5.370   4.053   5.535 -0.2758  0.2263  0.2503
  588MOL0     C77503   5.249   4.011   5.576 -0.6088 -0.0458  0.5326
  588MOL0     C77504   5.128   4.004   5.486 -1.2175 -0.0291  0.8360
  588MOL0     C77505   5.034   3.892   5.515  0.5959 -0.4199 -0.6263
  588MOL0     C77506   5.080   3.748   5.476  0.5238 -0.2616  0.0204
  588MOL0     C77507   5.210   3.700   5.539  0.7766  0.4666  0.3766
  588MOL0     O77508   5.327   3.735   5.471 -0.2048 -0.9034 -0.1857
  588MOL0     C77509   5.450   3.678   5.512  0.0911  0.1707 -0.3202
  588MOL0     C77510   5.461   3.578   5.610  0.3743 -0.0309 -0.9507
  588MOL0     C77511   5.590   3.533   5.649 -0.4932  0.3265  0.7897
  588MOL0     C77512   5.708   3.587   5.574  0.4100  0.0822 -0.0294
  588MOL0     C77513   5.846   3.554   5.620 -0.3125  0.9205  0.1960
  588MOL0     O77514   5.960   3.594   5.546  0.1961 -0.7087 -0.8222
  588MOL0     C77515   6.088   3.543   5.557  0.4500  0.4319 -1.0724
  588MOL0     C77516   6.175   3.580   5.657  0.6732 -0.8622  0.1896
  588MOL0     C77517   6.310   3.527   5.674 -1.2927 -0.4193  0.0427
  588MOL0     C77518   6.343   3.413   5.591  0.1739 -0.7657 -0.1522
  588MOL0     O77519   6.452   3.340   5.595 -0.2642  0.7829 -0.1863
  588MOL0     C77520   6.569   3.368   5.680  0.0950 -0.6209 -0.1743
  588MOL0     C77521   6.655   3.467   5.601 -0.1082  0.1922 -1.2947
  588MOL0     C77522   6.779   3.497   5.683  0.6424 -0.8348 -0.0941
  588MOL0     C77523   6.877   3.583   5.597  0.1321  0.1632  0.1858
  588MOL0     C77524   6.992   3.617   5.698  0.2739 -0.3201 -0.4323
  588MOL0     C77525   7.115   3.676   5.639 -0.0688 -0.1121 -0.2359
  588MOL0     C77526   7.218   3.727   5.742 -0.1881 -0.5626 -0.0761
  588MOL0     C77527   7.338   3.794   5.671 -0.3556  0.2664  0.2935
  588MOL0    Cl77528   7.429   3.677   5.577 -0.1525 -0.3616  0.6665
  588MOL0     C77529   6.253   3.377   5.491 -0.4914 -0.8709 -0.8306
  588MOL0     C77530   6.129   3.445   5.471 -0.0238  0.3769 -0.0798
  588MOL0     O77531   5.855   3.493   5.722 -0.0309  0.0436  0.5288
  588MOL0     C77532   5.692   3.682   5.476  0.1418 -0.0441 -0.7803
  588MOL0     C77533   5.565   3.734   5.447 -0.3005 -0.4530  0.3798
  588MOL0     N77534   5.253   3.979   5.705 -0.3421 -0.1080 -0.8614
  588MOL0     N77535   5.372   3.997   5.748  0.3601  0.2487  1.5659
  588MOL0     C77536   6.611   3.815   5.387  0.5054 -0.1681 -1.2375
  588MOL0     C77537   6.723   3.748   5.327  0.2652  0.3222  0.5650
  588MOL0     C77538   7.174   3.746   5.159  1.1687  0.2552 -0.4020
  588MOL0     C77539   7.280   3.795   5.078  1.1380 -0.2302 -0.1368
  588MOL0     C77540   7.405   3.738   5.089  0.5517  1.0553 -0.0209
  588MOL0     C77541   7.423   3.625   5.172  0.0474 -0.8125  0.1118
  588MOL0     O77542   7.543   3.564   5.171 -0.2350  0.3307 -0.1526
  588MOL0     C77543   7.605   3.526   5.295 -0.1563 -1.0221 -0.1914
  588MOL0     C77544   7.713   3.620   5.330  0.3786  0.4297  0.7237
  588MOL0     C77545   7.831   3.554   5.405  0.2232 -0.1054  0.4844
  588MOL0     C77546   7.843   3.610   5.546 -1.0296 -0.4622  0.1002
  588MOL0     C77547   7.969   3.560   5.594  0.1587  0.2648  0.4593
  588MOL0     C77548   8.070   3.519   5.638 -0.1080 -0.4224 -1.5110
  588MOL0     C77549   7.313   3.578   5.252  0.0759  0.1584 -0.0146
  588MOL0     C77550   7.196   3.645   5.250  0.0662 -0.0041  0.2222
  588MOL0     H77551   6.940   4.002   5.291 -1.1917  1.2783  1.5932
  588MOL0     H77552   6.757   4.127   5.402  3.5829 -0.6140  3.1788
  588MOL0     H77553   6.351   3.893   5.506  1.2432 -2.0763 -2.2275
  588MOL0     H77554   6.352   3.997   5.361 -3.1304 -0.1255  0.1122
  588MOL0     H77555   6.316   4.193   5.520  2.1354  0.7874 -0.4810
  588MOL0     H77556   6.304   4.088   5.660 -2.2465  2.5707 -0.4193
  588MOL0     H77557   6.108   4.073   5.431  0.2806 -2.2957  0.5087
  588MOL0     H77558   6.117   4.192   5.570 -0.5970  0.5749 -2.3337
  588MOL0     H77559   6.127   3.894   5.610 -2.2600 -1.7025  0.5177
  588MOL0     H77560   6.074   4.010   5.722  0.5618  0.1186  0.2713
  588MOL0     H77561   5.876   3.872   5.619  0.8712 -2.4838 -2.5502
  588MOL0     H77562   5.928   3.927   5.462  2.3101  0.7613  0.2021
  588MOL0     H77563   5.857   4.173   5.528  1.3700 -0.7427 -0.3576
  588MOL0     H77564   5.846   4.115   5.691  2.0351  0.3239  0.6624
  588MOL0     H77565   5.650   4.030   5.467 -2.2414  0.1297  0.5566
  588MOL0     H77566   5.692   3.931   5.602 -0.7826 -0.0192 -1.4452
  588MOL0     H77567   5.581   4.217   5.614 -0.8610 -0.6970 -0.4987
  588MOL0     H77568   5.617   4.102   5.754  0.8716 -0.2529 -1.1757
  588MOL0     H77569   5.406   4.096   5.442  0.1141  0.9726  0.7280
  588MOL0     H77570   5.156   3.985   5.382 -2.6870 -0.5032  0.4997
  588MOL0     H77571   5.077   4.100   5.502 -0.9256  0.5041 -1.1022
  588MOL0     H77572   4.942   3.918   5.462  1.2900 -0.5511 -1.9274
  588MOL0     H77573   5.011   3.875   5.620  0.3692 -1.6834 -0.8625
  588MOL0     H77574   4.993   3.686   5.498  1.8105 -1.2651  2.7525
  588MOL0     H77575   5.093   3.741   5.368 -3.4654 -0.5585 -0.5820
  588MOL0     H77576   5.205   3.591   5.535  1.4270  0.3754  1.6366
  588MOL0     H77577   5.209   3.738   5.642 -1.8116  1.8618 -0.0795
  588MOL0     H77578   5.373   3.533   5.654 -0.4449  0.0657 -2.4240
  588MOL0     H77579   5.616   3.474   5.736  2.0539 -0.5465 -0.4546
  588MOL0     H77580   6.152   3.652   5.734  0.2684 -1.0216  0.2223
  588MOL0     H77581   6.363   3.574   5.756 -2.8242 -2.2093  2.1863
  588MOL0     H77582   6.628   3.277   5.695  0.8169  0.0642  1.3313
  588MOL0     H77583   6.540   3.404   5.779 -0.5719  3.5770 -1.6816
  588MOL0     H77584   6.593   3.553   5.575  2.2968  1.7725 -2.1773
  588MOL0     H77585   6.692   3.420   5.509  0.3317 -3.3395  0.4838
  588MOL0     H77586   6.819   3.397   5.700 -0.0500 -1.2885 -1.0643
  588MOL0     H77587   6.750   3.552   5.773  1.1918  2.3509 -1.7085
  588MOL0     H77588   6.916   3.519   5.518 -1.7164 -0.4781 -0.2642
  588MOL0     H77589   6.833   3.681   5.575 -0.6288 -0.1610  0.2337
  588MOL0     H77590   7.033   3.523   5.736 -1.1945 -1.2605 -1.0887
  588MOL0     H77591   6.972   3.677   5.787  0.8646  2.1606 -1.8653
  588MOL0     H77592   7.085   3.746   5.560  0.6952 -0.1770 -0.5979
  588MOL0     H77593   7.155   3.601   5.570  1.5014  2.0494 -1.8099
  588MOL0     H77594   7.178   3.806   5.807  0.8932 -0.9654  1.1131
  588MOL0     H77595   7.254   3.639   5.795 -2.6893 -2.5605 -1.4786
  588MOL0     H77596   7.410   3.831   5.745  1.6725 -1.7613 -0.5477
  588MOL0     H77597   7.316   3.879   5.606  0.2461 -0.1422 -0.4602
  588MOL0     H77598   6.287   3.295   5.428  1.5002  0.0055 -0.9720
  588MOL0     H77599   6.071   3.418   5.383  1.4169 -0.7647 -0.7210
  588MOL0     H77600   5.781   3.709   5.420  0.1990 -1.5293 -1.4649
  588MOL0     H77601   5.559   3.818   5.378 -1.7002 -0.4331  0.4987
  588MOL0     H77602   6.528   3.753   5.417  0.8936 -0.3512 -0.5088
  588MOL0     H77603   6.712   3.642   5.308  2.2659  0.5070 -2.2418
  588MOL0     H77604   7.262   3.875   5.007  0.7823 -0.6797 -0.5630
  588MOL0     H77605   7.486   3.781   5.031 -0.4730  2.0963 -0.7085
  588MOL0     H77606   7.648   3.426   5.284  1.2221 -0.1973 -3.3721
  588MOL0     H77607   7.546   3.518   5.387  0.8617  1.2759  0.7308
  588MOL0     H77608   7.753   3.651   5.232 -1.4342 -0.6602 -0.4288
  588MOL0     H77609   7.672   3.715   5.366  1.3950  0.6042  1.4619
  588MOL0     H77610   7.929   3.573   5.359  0.5379 -1.1433  0.6996
  588MOL0     H77611   7.803   3.449   5.416  2.6463 -0.7942  0.6821
  588MOL0     H77612   7.859   3.718   5.533  2.9794 -1.0142 -0.7795
  588MOL0     H77613   7.758   3.587   5.611  0.6703  0.4469  2.8427
  588MOL0     H77614   8.149   3.460   5.679  0.2560 -0.1105 -1.7512
  588MOL0     H77615   7.324   3.487   5.310 -2.3216 -0.2994 -0.1501
  588MOL0     H77616   7.111   3.613   5.309  0.3593 -0.5689  0.3452
  589MOL0     O77617   8.123   6.566   3.754 -0.1103  0.2568  0.5552
  589MOL0     C77618   8.179   6.563   3.867  0.7450  0.3094 -0.4226
  589MOL0     O77619   8.301   6.506   3.898  0.3388  0.6226 -0.6650
  589MOL0     C77620   8.398   6.466   3.813 -0.5486  0.2203  0.1070
  589MOL0     C77621   8.518   6.431   3.868  1.4298  0.0879 -0.6569
  589MOL0     C77622   8.619   6.374   3.783  0.7117 -0.6657 -0.6914
  589MOL0     C77623   8.598   6.341   3.650  0.6306 -0.3939  0.2048
  589MOL0     O77624   8.700   6.287   3.581 -0.0411  0.8259 -0.2925
  589MOL0     C77625   8.712   6.324   3.436  0.3224 -0.2064  0.6644
  589MOL0     C77626   8.853   6.278   3.380  0.1392 -0.3044 -0.7882
  589MOL0     C77627   8.866   6.131   3.355 -0.5912  0.0877  1.0776
  589MOL0     C77628   8.999   6.094   3.295 -0.1900  0.0156  0.3835
  589MOL0     C77629   9.116   6.120   3.390  0.5042 -0.6759 -1.6927
  589MOL0     C77630   9.238   6.054   3.339 -0.1685  0.0075  0.0153
  589MOL0     C77631   9.258   5.899   3.350 -0.8355  0.3776  0.0059
  589MOL0     C77632   9.397   5.852   3.324 -0.0157  0.4631  0.5923
  589MOL0     N77633   9.446   5.890   3.188  0.4814 -0.0174 -0.0471
  589MOL0     C77634   9.378   5.855   3.075 -0.0181 -0.2565  0.6183
  589MOL0     C77635   9.460   5.896   2.971 -0.2950 -0.1559 -0.1368
  589MOL0     C77636   9.444   5.891   2.821  0.4251 -0.5503  0.4525
  589MOL0     C77637   9.414   5.750   2.765  0.6813  0.7753 -0.3368
  589MOL0     C77638   9.397   5.759   2.611  0.6000  0.8608  0.0993
  589MOL0     C77639   9.384   5.618   2.563  0.3659  0.8984 -1.2182
  589MOL0     O77640   9.355   5.613   2.422  0.3446 -0.2634 -0.7221
  589MOL0     C77641   9.226   5.653   2.394  0.8667  0.2988  0.0494
  589MOL0     C77642   9.112   5.573   2.412  0.5332 -0.2867  0.1018
  589MOL0     C77643   8.975   5.612   2.373  0.0857  0.0338 -0.8362
  589MOL0     C77644   8.970   5.733   2.307  0.1149 -0.1509 -0.4618
  589MOL0     C77645   8.840   5.781   2.279 -0.3743  0.9845  0.1269
  589MOL0     O77646   8.734   5.733   2.357 -0.1593  0.2932 -0.0335
  589MOL0     C77647   8.604   5.765   2.321  0.6220  0.3306 -0.5629
  589MOL0     C77648   8.548   5.810   2.197  0.3710 -0.4834  0.0931
  589MOL0     C77649   8.406   5.841   2.188 -0.4088 -0.4232  0.5872
  589MOL0     C77650   8.316   5.813   2.293 -0.3766  0.3913  0.9638
  589MOL0     O77651   8.190   5.860   2.266 -0.2367 -0.2569 -0.3715
  589MOL0     C77652   8.079   5.843   2.353  0.7189 -0.1887  0.4954
  589MOL0     C77653   8.014   5.710   2.329  0.6511  0.0646 -0.5187
  589MOL0     C77654   7.866   5.697   2.367 -0.4172 -0.0233  0.8470
  589MOL0     C77655   7.763   5.779   2.285  0.3418 -0.7632 -0.5893
  589MOL0     C77656   7.629   5.752   2.349  0.4198 -0.0356  1.0691
  589MOL0     C77657   7.517   5.801   2.258 -0.6593 -0.6718 -0.2742
  589MOL0     C77658   7.501   5.953   2.258  0.9321  0.5382 -0.2102
  589MOL0     C77659   7.394   5.997   2.350  0.8109 -0.1499  0.4114
  589MOL0    Cl77660   7.438   5.973   2.521  0.1457 -0.0578  0.4473
  589MOL0     C77661   8.372   5.771   2.411  0.3827 -0.2511  0.7306
  589MOL0     C77662   8.509   5.765   2.438 -1.0660 -0.3535  0.9665
  589MOL0     O77663   8.835   5.866   2.193 -0.2010 -0.3773  0.0178
  589MOL0     C77664   9.087   5.806   2.283 -0.0331 -1.1165 -0.0253
  589MOL0     C77665   9.208   5.767   2.318 -0.3063 -0.0119  0.7137
  589MOL0     N77666   9.570   5.959   3.026  0.0455  0.1281 -0.1769
  589MOL0     N77667   9.562   5.954   3.151  0.4012 -0.0224 -0.2848
  589MOL0     C77668   8.473   6.383   3.592  0.0657  0.0650 -0.1352
  589MOL0     C77669   8.382   6.453   3.671  0.2517  0.1099 -0.4698
  589MOL0     C77670   8.099   6.627   3.986 -0.8951  0.3099 -0.7667
  589MOL0     C77671   7.985   6.702   3.973  1.0973  0.5362 -0.6005
  589MOL0     C77672   7.902   6.749   4.076  0.5033  0.4935 -0.1185
  589MOL0     C77673   7.945   6.721   4.208  1.2454  0.1584  0.4361
  589MOL0     O77674   7.865   6.760   4.314  0.0045 -0.2971 -0.7073
  589MOL0     C77675   7.886   6.692   4.438 -0.3025  0.0390 -0.3724
  589MOL0     C77676   7.768   6.699   4.531  0.4932 -0.1912 -0.7366
  589MOL0     C77677   7.668   6.597   4.492  0.8144  1.2491 -0.0241
  589MOL0     C77678   7.527   6.602   4.551 -0.1079 -0.6746  0.3433
  589MOL0     C77679   7.464   6.697   4.472 -0.4730  0.5247  0.5908
  589MOL0     C77680   7.405   6.772   4.390  0.7540  0.5076  0.9440
  589MOL0     C77681   8.063   6.652   4.227 -1.0463 -0.0340 -0.1960
  589MOL0     C77682   8.133   6.596   4.122  0.0412 -0.8379 -0.4190
  589MOL0     H77683   8.542   6.451   3.972  1.6327  3.9385 -1.2878
  589MOL0     H77684   8.717   6.355   3.825  0.4792  2.4234  1.5959
  589MOL0     H77685   8.692   6.430   3.421 -0.7418 -0.5964 -0.9212
  589MOL0     H77686   8.627   6.279   3.385 -1.3824  2.0027  1.3782
  589MOL0     H77687   8.923   6.299   3.462 -1.9070  1.0157  0.7338
  589MOL0     H77688   8.887   6.334   3.292 -2.4150 -1.9544 -2.9532
  589MOL0     H77689   8.788   6.089   3.290  2.3296 -0.8270 -2.0824
  589MOL0     H77690   8.856   6.078   3.451  0.2273 -3.2820 -0.5464
  589MOL0     H77691   8.995   5.987   3.271 -1.3742 -0.2423  1.5452
  589MOL0     H77692   9.015   6.154   3.206  1.9336 -1.3763 -0.2417
  589MOL0     H77693   9.097   6.092   3.494 -2.8730  2.5152 -1.2336
  589MOL0     H77694   9.114   6.230   3.389 -4.1826 -0.5157 -0.7250
  589MOL0     H77695   9.321   6.101   3.394 -1.4713 -0.4402  2.5104
  589MOL0     H77696   9.242   6.078   3.232 -0.3382 -0.0158  0.0046
  589MOL0     H77697   9.234   5.868   3.452  2.5886 -0.0927  0.8026
  589MOL0     H77698   9.193   5.841   3.284  0.8494 -1.1942 -0.3449
  589MOL0     H77699   9.391   5.744   3.340 -0.4689  0.0942 -1.7662
  589MOL0     H77700   9.470   5.887   3.398 -1.6117  3.6639  0.8559
  589MOL0     H77701   9.284   5.802   3.065 -0.4638  0.7974 -1.2039
  589MOL0     H77702   9.527   5.941   2.769 -0.7639 -0.4512 -1.4014
  589MOL0     H77703   9.361   5.957   2.796  0.8557  0.5412  1.7447
  589MOL0     H77704   9.316   5.720   2.802  0.5327  1.6073 -0.0238
  589MOL0     H77705   9.498   5.684   2.787 -0.4421 -0.6716 -0.1785
  589MOL0     H77706   9.303   5.811   2.590 -0.6957 -0.6188  1.9732
  589MOL0     H77707   9.487   5.812   2.577  0.6588  2.2792  2.2234
  589MOL0     H77708   9.309   5.573   2.628  0.5411  1.1513 -0.8415
  589MOL0     H77709   9.482   5.570   2.579 -0.6318 -1.2023 -1.0174
  589MOL0     H77710   9.125   5.470   2.442 -1.5734 -1.3432 -2.2766
  589MOL0     H77711   8.890   5.547   2.391  1.2995 -1.1901  0.8676
  589MOL0     H77712   8.602   5.824   2.104  0.3410  0.7851  0.2474
  589MOL0     H77713   8.368   5.870   2.091 -2.6578 -1.7794  0.9917
  589MOL0     H77714   8.016   5.929   2.328 -0.4140 -1.7589 -2.5784
  589MOL0     H77715   8.126   5.844   2.452  0.6144  2.0465  0.5768
  589MOL0     H77716   8.058   5.634   2.394  0.2477  0.3631  0.1217
  589MOL0     H77717   8.021   5.689   2.222 -1.1840 -2.2903 -0.2527
  589MOL0     H77718   7.864   5.736   2.469  1.7877  2.2606  0.1487
  589MOL0     H77719   7.841   5.591   2.358  4.8652 -1.4754 -0.1528
  589MOL0     H77720   7.785   5.885   2.296  1.8072 -1.3111  3.3104
  589MOL0     H77721   7.764   5.753   2.179  3.0954  0.7960 -1.0301
  589MOL0     H77722   7.610   5.803   2.443  0.3589 -0.8434  1.4986
  589MOL0     H77723   7.609   5.647   2.369 -1.2290  0.0420 -0.0136
  589MOL0     H77724   7.425   5.745   2.281 -0.2626 -1.1236  0.2489
  589MOL0     H77725   7.529   5.775   2.152  0.5528  0.5812 -0.4637
  589MOL0     H77726   7.598   5.998   2.281 -0.4571  2.5222  2.2083
  589MOL0     H77727   7.471   5.990   2.159 -0.9284  1.7887  0.7674
  589MOL0     H77728   7.303   5.941   2.325  0.8911  0.8172 -2.4206
  589MOL0     H77729   7.375   6.104   2.344  0.0358 -0.3064 -0.0149
  589MOL0     H77730   8.305   5.758   2.496 -1.7442  1.3388 -0.5765
  589MOL0     H77731   8.537   5.741   2.540  1.1446  0.4200  0.6017
  589MOL0     H77732   9.095   5.898   2.226 -1.1296 -0.9731  0.0327
  589MOL0     H77733   9.288   5.836   2.293 -0.2626 -0.6989 -1.3021
  589MOL0     H77734   8.452   6.349   3.491 -0.9717 -1.7525  0.6446
  589MOL0     H77735   8.289   6.489   3.628 -2.8404 -1.8574  3.7815
  589MOL0     H77736   7.955   6.728   3.872 -0.6317  0.4891 -0.1245
  589MOL0     H77737   7.813   6.808   4.057 -0.2224  0.3549  2.4119
  589MOL0     H77738   7.965   6.737   4.499 -0.6517  0.8063 -0.4777
  589MOL0     H77739   7.910   6.586   4.427 -0.7506 -0.4988  2.7925
  589MOL0     H77740   7.789   6.690   4.638 -0.2397  1.4063 -0.4186
  589MOL0     H77741   7.711   6.793   4.533 -0.6138 -0.7630 -2.5842
  589MOL0     H77742   7.715   6.498   4.503 -1.4964 -0.4445 -3.4160
  589MOL0     H77743   7.660   6.596   4.383 -0.3572  0.1743  0.0484
  589MOL0     H77744   7.480   6.505   4.531  1.0421 -0.7881 -2.1275
  589MOL0     H77745   7.525   6.627   4.658  1.0757 -1.1395  0.4878
  589MOL0     H77746   7.337   6.815   4.319  0.1980 -2.9446 -0.8163
  589MOL0     H77747   8.099   6.624   4.326 -0.6966 -2.5139 -0.9463
  589MOL0     H77748   8.215   6.528   4.144 -1.9630 -2.7510  1.7318
  590MOL0     O77749   2.397   5.877   7.855 -0.4320 -0.1347 -0.4991
  590MOL0     C77750   2.357   5.851   7.739 -0.1079 -0.4818 -0.0995
  590MOL0     O77751   2.436   5.840   7.624 -0.6193  0.5728 -0.6315
  590MOL0     C77752   2.574   5.840   7.628  0.4180  1.0028  0.0125
  590MOL0     C77753   2.658   5.801   7.737  1.1622  0.7216 -0.2157
  590MOL0     C77754   2.793   5.822   7.718  0.2114 -0.5692 -0.8880
  590MOL0     C77755   2.848   5.885   7.603 -0.2469  0.2826 -0.1868
  590MOL0     O77756   2.977   5.935   7.592  0.3308  0.1415 -0.8414
  590MOL0     C77757   3.072   5.828   7.596 -0.4377 -0.3769 -0.6554
  590MOL0     C77758   3.169   5.847   7.717  0.0352 -0.1857  0.1069
  590MOL0     C77759   3.271   5.966   7.685  0.1265  0.3063 -0.3696
  590MOL0     C77760   3.394   5.916   7.612  0.0760 -0.1133  0.2736
  590MOL0     C77761   3.469   6.034   7.555  0.9019 -0.2512  0.2695
  590MOL0     C77762   3.563   5.986   7.442  0.0582 -0.1281  0.1936
  590MOL0     C77763   3.694   6.061   7.441  0.4233 -0.6090 -0.4835
  590MOL0     C77764   3.789   6.001   7.552  0.5851  0.4158 -0.1585
  590MOL0     N77765   3.844   6.097   7.643 -0.2688  0.3717  0.3278
  590MOL0     C77766   3.942   6.061   7.731  0.0182 -0.1324  0.3403
  590MOL0     C77767   3.990   6.187   7.780  0.2465 -0.0503 -0.3956
  590MOL0     C77768   4.115   6.211   7.857 -0.3877  0.1489  0.8612
  590MOL0     C77769   4.150   6.160   7.998  0.1085  0.2932  0.0630
  590MOL0     C77770   4.029   6.164   8.086  0.1400 -0.3378  0.0734
  590MOL0     C77771   4.055   6.184   8.238 -0.1061  0.1946 -0.2043
  590MOL0     O77772   4.113   6.060   8.297  0.3282 -0.2716  0.2950
  590MOL0     C77773   4.039   5.942   8.296  0.7138  0.3874 -0.5883
  590MOL0     C77774   4.089   5.844   8.218 -0.1409 -0.1814 -1.4548
  590MOL0     C77775   4.012   5.729   8.201  0.4022  0.9351 -0.5870
  590MOL0     C77776   3.885   5.710   8.266  1.2201  0.5970  0.2036
  590MOL0     C77777   3.799   5.588   8.261 -0.3455 -0.2907  0.2364
  590MOL0     O77778   3.700   5.565   8.357  0.1170 -0.0619  0.1136
  590MOL0     C77779   3.645   5.445   8.370 -0.6434 -0.2943  0.2249
  590MOL0     C77780   3.715   5.348   8.436  0.1140 -0.5500 -0.6110
  590MOL0     C77781   3.653   5.223   8.471 -0.0047 -1.3151  0.2049
  590MOL0     C77782   3.524   5.183   8.425 -0.2387 -1.0356  0.2128
  590MOL0     O77783   3.476   5.054   8.450  1.0548  0.4609 -0.4082
  590MOL0     C77784   3.340   5.014   8.428  0.1662  0.0763  0.3277
  590MOL0     C77785   3.308   4.873   8.488  1.4542  0.0367 -0.3992
  590MOL0     C77786   3.399   4.766   8.418 -0.4804 -0.5191 -0.3100
  590MOL0     C77787   3.369   4.749   8.269 -0.0916  0.2543  1.2953
  590MOL0     C77788   3.478   4.665   8.195  0.6506 -0.7554  1.1121
  590MOL0     C77789   3.435   4.645   8.046 -0.0088  0.8957 -0.4914
  590MOL0     C77790   3.539   4.551   7.979  0.5370  0.1841  0.0591
  590MOL0     C77791   3.565   4.581   7.826 -0.8926  0.1444 -0.9618
  590MOL0    Cl77792   3.711   4.502   7.777  0.0049 -0.4539  0.0386
  590MOL0     C77793   3.450   5.277   8.349 -0.0041 -0.3295  0.1484
  590MOL0     C77794   3.514   5.401   8.329  0.0077  0.1715 -0.6879
  590MOL0     O77795   3.839   5.504   8.181  0.2389 -0.1086  0.3428
  590MOL0     C77796   3.831   5.817   8.333  0.4923 -0.0279 -0.0717
  590MOL0     C77797   3.908   5.933   8.344 -0.4502  0.4667  0.0092
  590MOL0     N77798   3.908   6.283   7.729  0.0374  0.4235  0.3080
  590MOL0     N77799   3.822   6.233   7.644 -0.0089  0.7965 -0.0817
  590MOL0     C77800   2.762   5.907   7.493 -0.6189 -0.8214  1.0755
  590MOL0     C77801   2.632   5.880   7.506  0.5354  0.1340 -0.3681
  590MOL0     C77802   2.206   5.847   7.727 -0.2633 -0.8641  1.1189
  590MOL0     C77803   2.148   5.863   7.598  0.1113 -0.3485 -0.0800
  590MOL0     C77804   2.009   5.872   7.579 -0.2759  0.4009 -0.3754
  590MOL0     C77805   1.918   5.859   7.687  0.3973  0.0435  0.0655
  590MOL0     O77806   1.785   5.893   7.656 -0.0799  0.2567 -0.0302
  590MOL0     C77807   1.684   5.867   7.750  0.6326 -0.0976 -0.1144
  590MOL0     C77808   1.660   5.721   7.754  0.3108 -0.2996 -0.0751
  590MOL0     C77809   1.629   5.653   7.620 -0.0236 -1.0144  0.1925
  590MOL0     C77810   1.611   5.496   7.634 -0.0708 -0.0444  0.0869
  590MOL0     C77811   1.579   5.460   7.492 -0.7916  0.0826 -0.8622
  590MOL0     C77812   1.534   5.440   7.373 -0.0362  0.3426 -0.0987
  590MOL0     C77813   1.974   5.837   7.811 -0.6465  0.3790 -0.6120
  590MOL0     C77814   2.113   5.830   7.830 -0.1216  0.0038 -0.2282
  590MOL0     H77815   2.620   5.762   7.831  2.6251 -0.2960 -0.0031
  590MOL0     H77816   2.852   5.803   7.807 -1.5069 -3.1046 -0.1493
  590MOL0     H77817   3.109   5.830   7.493 -2.2981 -1.1490 -1.3719
  590MOL0     H77818   3.028   5.729   7.604  1.0715 -1.0351 -0.0615
  590MOL0     H77819   3.232   5.760   7.735 -1.0251 -0.9186  0.3825
  590MOL0     H77820   3.112   5.861   7.809 -1.0150 -1.9454 -0.2231
  590MOL0     H77821   3.307   6.002   7.782 -1.5679  1.0731  0.0149
  590MOL0     H77822   3.216   6.047   7.637 -1.8098  0.3275  1.7168
  590MOL0     H77823   3.454   5.855   7.680 -1.2967 -0.7482  0.9572
  590MOL0     H77824   3.357   5.854   7.529 -1.0902 -1.0101  1.4173
  590MOL0     H77825   3.528   6.071   7.639  3.4111 -0.4630 -1.2888
  590MOL0     H77826   3.399   6.111   7.521 -0.4822 -1.5846 -0.0296
  590MOL0     H77827   3.498   5.999   7.354 -2.1347 -3.0419  1.2325
  590MOL0     H77828   3.576   5.878   7.439  1.7444  0.0505  0.4934
  590MOL0     H77829   3.749   6.049   7.348  0.6636 -3.7651 -0.0489
  590MOL0     H77830   3.667   6.165   7.461 -0.6013 -1.3673  2.7189
  590MOL0     H77831   3.863   5.935   7.505  0.3657  0.3894 -0.4711
  590MOL0     H77832   3.733   5.928   7.612 -1.9871  1.5557 -1.0217
  590MOL0     H77833   3.975   5.961   7.759  5.3739  1.0646 -0.7153
  590MOL0     H77834   4.115   6.320   7.854 -0.4367  0.1381 -0.5040
  590MOL0     H77835   4.206   6.183   7.802 -1.2224  1.0462 -1.0856
  590MOL0     H77836   4.235   6.216   8.038 -0.5924 -0.1397  2.3370
  590MOL0     H77837   4.185   6.056   7.990  0.8547  0.6298 -1.2472
  590MOL0     H77838   3.966   6.248   8.053  0.9610  0.5129  0.6231
  590MOL0     H77839   3.973   6.071   8.070 -1.6001  0.5700  0.6345
  590MOL0     H77840   3.966   6.225   8.288  0.0693  0.0519  0.2344
  590MOL0     H77841   4.123   6.268   8.252 -1.6155  0.9628  4.6058
  590MOL0     H77842   4.186   5.859   8.174  0.8873  1.2934  1.0612
  590MOL0     H77843   4.058   5.643   8.154 -1.1208 -1.8092  2.5931
  590MOL0     H77844   3.816   5.370   8.468 -0.5833 -0.5826  1.8465
  590MOL0     H77845   3.714   5.158   8.533 -0.3069  0.5895  2.6263
  590MOL0     H77846   3.315   5.017   8.322 -0.3274  2.1777  0.4543
  590MOL0     H77847   3.277   5.085   8.483  0.4912 -0.2405  1.1329
  590MOL0     H77848   3.205   4.836   8.488  2.1820 -2.2500  0.7870
  590MOL0     H77849   3.335   4.878   8.594  3.4591 -0.5969 -0.8333
  590MOL0     H77850   3.392   4.675   8.477 -0.6274 -1.4522 -1.7083
  590MOL0     H77851   3.501   4.804   8.427 -0.6182  0.5613 -2.6249
  590MOL0     H77852   3.271   4.699   8.264 -0.3565  0.8963 -0.5151
  590MOL0     H77853   3.353   4.845   8.221 -1.8649 -1.3548 -1.6248
  590MOL0     H77854   3.501   4.572   8.248  0.5750  0.5514  3.6336
  590MOL0     H77855   3.571   4.721   8.189  0.2802 -0.2840 -1.9448
  590MOL0     H77856   3.458   4.746   8.012  3.0987  0.9572  1.4286
  590MOL0     H77857   3.331   4.617   8.028  0.7616 -3.3380  0.6330
  590MOL0     H77858   3.635   4.542   8.031  0.8900  0.3201 -0.5542
  590MOL0     H77859   3.506   4.448   7.964  5.8913 -1.8152 -0.4274
  590MOL0     H77860   3.581   4.687   7.804  0.1933  0.1783 -0.1391
  590MOL0     H77861   3.479   4.548   7.768 -2.8811  0.5972  1.5081
  590MOL0     H77862   3.354   5.264   8.301 -1.4569  1.0323  2.4798
  590MOL0     H77863   3.443   5.463   8.275 -1.4496 -1.4639 -0.7107
  590MOL0     H77864   3.737   5.813   8.387  0.6947 -0.7872  0.2349
  590MOL0     H77865   3.866   6.019   8.396  3.2182  1.8784  1.0295
  590MOL0     H77866   2.791   5.948   7.397  0.3999 -0.4547  1.5240
  590MOL0     H77867   2.574   5.910   7.419  2.6879  1.6995 -1.3571
  590MOL0     H77868   2.210   5.883   7.512  0.4625 -0.1973  0.2050
  590MOL0     H77869   1.963   5.891   7.482 -0.4892 -3.0204 -1.0677
  590MOL0     H77870   1.591   5.918   7.724 -0.6884 -2.3308  0.0219
  590MOL0     H77871   1.710   5.901   7.851  0.4145 -0.9386  0.2317
  590MOL0     H77872   1.741   5.664   7.800 -0.7828  0.1567  2.6284
  590MOL0     H77873   1.569   5.710   7.814  1.2775 -1.2357  1.2846
  590MOL0     H77874   1.721   5.669   7.564  1.0339  2.1382  2.5461
  590MOL0     H77875   1.550   5.705   7.565  2.8788  3.5047 -0.2156
  590MOL0     H77876   1.706   5.449   7.659  0.7654  1.1853 -0.6222
  590MOL0     H77877   1.543   5.456   7.709  0.0716 -2.2682 -0.8741
  590MOL0     H77878   1.489   5.423   7.278 -1.3838 -0.1754  0.6172
  590MOL0     H77879   1.909   5.837   7.898  0.5345  1.4752  0.3250
  590MOL0     H77880   2.151   5.805   7.928  2.1425 -1.4311 -1.3667
  591MOL0     O77881   6.352   7.746   2.206  0.3910 -0.6383  0.4403
  591MOL0     C77882   6.294   7.791   2.104  0.2285 -0.7594  0.4632
  591MOL0     O77883   6.358   7.856   1.994  0.5008 -0.3601  0.8834
  591MOL0     C77884   6.493   7.847   1.988  0.6237  0.3986  0.5882
  591MOL0     C77885   6.554   7.812   1.868 -0.2221  0.6918 -0.5201
  591MOL0     C77886   6.691   7.806   1.855  0.4005 -0.7902 -1.1680
  591MOL0     C77887   6.778   7.843   1.958  0.2113 -0.3831 -0.0044
  591MOL0     O77888   6.917   7.861   1.938 -0.2911  0.6082 -0.3699
  591MOL0     C77889   7.007   7.928   2.034  0.2128  0.6943  1.1799
  591MOL0     C77890   7.145   7.944   1.973 -0.6816 -0.8972 -0.4324
  591MOL0     C77891   7.133   8.049   1.847  0.8592  0.3532  0.3580
  591MOL0     C77892   7.280   8.087   1.794 -0.2865  0.6722  0.8173
  591MOL0     C77893   7.337   7.954   1.729  0.3287 -0.8852 -0.5289
  591MOL0     C77894   7.474   7.970   1.649  0.8211  0.1391 -0.9189
  591MOL0     C77895   7.578   8.057   1.709  0.0438 -0.1050 -0.5882
  591MOL0     C77896   7.646   8.011   1.839  0.0632  0.6044  0.3592
  591MOL0     N77897   7.728   8.108   1.903 -0.0161 -1.1601  0.2781
  591MOL0     C77898   7.836   8.180   1.853  0.0309  0.3725  0.0355
  591MOL0     C77899   7.879   8.253   1.954  0.4764  0.0785  0.3871
  591MOL0     C77900   7.987   8.354   1.955  0.2781 -0.0341  0.3655
  591MOL0     C77901   8.114   8.285   2.015 -0.0742 -0.1729 -0.6038
  591MOL0     C77902   8.217   8.388   2.054  0.2619  1.0995  0.1886
  591MOL0     C77903   8.320   8.430   1.940 -0.0637 -0.6139  0.1123
  591MOL0     O77904   8.416   8.322   1.915 -0.2014  0.4294  0.3669
  591MOL0     C77905   8.540   8.323   1.972 -0.6993 -0.9018  0.4255
  591MOL0     C77906   8.577   8.223   2.066  0.5246 -0.4748  0.0612
  591MOL0     C77907   8.698   8.238   2.143 -0.3595  0.4597  0.0900
  591MOL0     C77908   8.792   8.338   2.109 -0.5020 -0.4158 -0.1528
  591MOL0     C77909   8.929   8.328   2.167 -0.3475  0.2069 -0.3861
  591MOL0     O77910   8.968   8.200   2.187 -0.6066 -0.1884  0.2608
  591MOL0     C77911   9.086   8.168   2.256 -0.2235 -1.1830 -0.5599
  591MOL0     C77912   9.080   8.088   2.375  0.2052 -0.5834  0.0379
  591MOL0     C77913   9.192   8.071   2.453  0.1405  0.6580  1.2380
  591MOL0     C77914   9.314   8.122   2.422 -0.6130  0.0910  0.3515
  591MOL0     O77915   9.426   8.100   2.508  0.0670  0.1052 -0.3801
  591MOL0     C77916   9.551   8.101   2.444 -0.0027 -0.0064  0.2105
  591MOL0     C77917   9.655   8.052   2.548 -0.7847  0.4590 -0.8013
  591MOL0     C77918   9.770   7.990   2.479 -0.1083 -0.5319 -0.6526
  591MOL0     C77919   9.883   7.964   2.585  0.0449  0.9137 -0.5977
  591MOL0     C77920   9.997   7.876   2.536 -0.1201  0.7967 -0.0964
  591MOL0     C77921   9.943   7.741   2.496  0.2326  0.1273  0.3846
  591MOL0     C77922  10.059   7.650   2.450  0.4196 -0.6144 -0.3688
  591MOL0     C77923  10.040   7.501   2.466 -0.7224 -0.4894  1.0101
  591MOL0    Cl77924  10.196   7.436   2.416 -0.4778 -0.0708 -0.2508
  591MOL0     C77925   9.332   8.182   2.296  0.2532  0.5327  0.4668
  591MOL0     C77926   9.216   8.219   2.219  0.1469 -0.4963 -0.1583
  591MOL0     O77927   8.986   8.433   2.193 -0.0625 -0.2661 -0.4493
  591MOL0     C77928   8.754   8.442   2.019  0.5672  0.4916 -0.2201
  591MOL0     C77929   8.628   8.440   1.956 -0.1212 -0.6851 -1.0521
  591MOL0     N77930   7.800   8.239   2.065 -0.9595 -0.0301  0.5424
  591MOL0     N77931   7.709   8.152   2.023  0.5964 -1.1342 -0.9676
  591MOL0     C77932   6.720   7.877   2.082  0.0893  0.8247 -0.2072
  591MOL0     C77933   6.580   7.884   2.097  0.4421  0.1650  0.3971
  591MOL0     C77934   6.143   7.800   2.112 -0.0285 -0.0862 -0.4898
  591MOL0     C77935   6.067   7.863   2.008 -0.6306 -0.6140 -0.9314
  591MOL0     C77936   5.933   7.848   2.004 -1.2471 -0.8399  0.0680
  591MOL0     C77937   5.862   7.779   2.098  0.7688  0.3336  1.1461
  591MOL0     O77938   5.729   7.751   2.072 -0.8181  0.3241 -0.7256
  591MOL0     C77939   5.636   7.822   2.156 -0.7868  0.1942 -0.0564
  591MOL0     C77940   5.585   7.947   2.082 -0.2932  0.4338 -0.4824
  591MOL0     C77941   5.529   7.913   1.938 -0.1145 -0.8907 -0.8143
  591MOL0     C77942   5.465   8.038   1.875 -0.6946  0.2423 -1.4546
  591MOL0     C77943   5.556   8.116   1.799 -0.0669  0.2127 -0.5691
  591MOL0     C77944   5.623   8.194   1.752 -0.2493 -0.7005  0.5786
  591MOL0     C77945   5.930   7.729   2.211 -0.7224  0.6679  1.0504
  591MOL0     C77946   6.073   7.733   2.219  0.2524 -0.1164  0.4438
  591MOL0     H77947   6.490   7.778   1.787  0.7381  2.3078 -2.0250
  591MOL0     H77948   6.721   7.765   1.758  0.1607 -1.5030 -0.9522
  591MOL0     H77949   7.020   7.858   2.117  2.9121 -0.4530 -0.0879
  591MOL0     H77950   6.970   8.024   2.071  1.7896  2.5267 -1.5667
  591MOL0     H77951   7.192   7.849   1.949  4.1622  0.0954  3.4248
  591MOL0     H77952   7.207   7.992   2.049  0.1825  2.0636 -2.7872
  591MOL0     H77953   7.092   8.142   1.889  1.8037  0.2228  1.6345
  591MOL0     H77954   7.075   8.004   1.766 -0.3308 -1.6502  2.2215
  591MOL0     H77955   7.285   8.172   1.725  1.8943  0.3821  0.5345
  591MOL0     H77956   7.337   8.125   1.879  0.6043  0.5417  0.3022
  591MOL0     H77957   7.252   7.909   1.677 -1.0806 -2.6434  2.9796
  591MOL0     H77958   7.354   7.873   1.801  0.3630  0.7894  1.4335
  591MOL0     H77959   7.450   7.996   1.546 -2.4412  2.0810  0.1751
  591MOL0     H77960   7.514   7.868   1.642  1.5139  0.2691  0.6435
  591MOL0     H77961   7.660   8.053   1.637  2.2209  0.5809  1.7287
  591MOL0     H77962   7.546   8.160   1.728  1.5494  0.8224 -2.7233
  591MOL0     H77963   7.710   7.927   1.812  0.9857  2.0469 -2.3676
  591MOL0     H77964   7.568   7.970   1.905 -1.9479 -1.0641 -2.7858
  591MOL0     H77965   7.867   8.182   1.749  2.0097 -1.3628  0.5176
  591MOL0     H77966   7.956   8.446   2.006 -0.2952  0.1426 -0.2919
  591MOL0     H77967   8.009   8.379   1.851  0.6796 -0.9693  0.2134
  591MOL0     H77968   8.153   8.213   1.942 -1.5758 -0.3184 -1.3046
  591MOL0     H77969   8.086   8.222   2.099 -0.9508  0.5104 -0.3628
  591MOL0     H77970   8.184   8.476   2.110 -1.1506  0.6338  0.1279
  591MOL0     H77971   8.281   8.342   2.130  0.3929 -0.7824 -1.0156
  591MOL0     H77972   8.371   8.517   1.984 -1.2579 -0.6170  1.5729
  591MOL0     H77973   8.267   8.461   1.850 -0.7399 -2.3161 -0.1094
  591MOL0     H77974   8.501   8.150   2.092 -1.0332  1.2726  0.6724
  591MOL0     H77975   8.727   8.152   2.202 -0.3802  0.4708  0.1165
  591MOL0     H77976   8.987   8.038   2.401  0.7231 -1.3925  0.3750
  591MOL0     H77977   9.177   8.014   2.544  1.8641 -3.1023 -0.6258
  591MOL0     H77978   9.580   8.198   2.403 -2.9413  2.0717  2.5905
  591MOL0     H77979   9.540   8.032   2.360  0.4679 -1.1167  1.0436
  591MOL0     H77980   9.596   7.982   2.608  0.3563 -0.3447 -0.5829
  591MOL0     H77981   9.692   8.141   2.601 -0.2148  0.4077 -1.1073
  591MOL0     H77982   9.808   8.058   2.403  0.7105  0.3541  0.5121
  591MOL0     H77983   9.734   7.896   2.436  0.5385 -0.5128 -1.2552
  591MOL0     H77984   9.936   8.056   2.612  0.4466  0.2580  0.9335
  591MOL0     H77985   9.843   7.912   2.671 -3.0579 -0.6416 -2.7946
  591MOL0     H77986  10.079   7.865   2.608  1.1372 -1.3440 -1.7551
  591MOL0     H77987  10.054   7.900   2.447  1.3105 -3.6458 -0.6004
  591MOL0     H77988   9.881   7.758   2.407  1.0156  0.1236 -0.1694
  591MOL0     H77989   9.880   7.690   2.571 -0.9131 -1.0053 -1.2722
  591MOL0     H77990  10.080   7.676   2.345  0.7729 -0.3817 -0.2429
  591MOL0     H77991  10.145   7.678   2.511  0.1877 -4.5196  2.0457
  591MOL0     H77992   9.963   7.462   2.398 -5.0183  1.6716  4.1006
  591MOL0     H77993  10.009   7.483   2.569  0.3534 -0.2887  1.3777
  591MOL0     H77994   9.426   8.222   2.260  0.1921  0.0734 -0.2086
  591MOL0     H77995   9.228   8.269   2.124  1.2071  0.9836  0.6993
  591MOL0     H77996   8.820   8.529   2.020  1.3179 -0.0422  1.4589
  591MOL0     H77997   8.595   8.534   1.912  2.4611  1.1192  0.5653
  591MOL0     H77998   6.784   7.918   2.160  3.3603  0.7579 -2.6526
  591MOL0     H77999   6.538   7.910   2.194  1.1232  2.7860  0.0604
  591MOL0     H78000   6.128   7.900   1.926  1.0011 -0.2388  0.3994
  591MOL0     H78001   5.876   7.892   1.922 -0.2344  0.7325  0.1697
  591MOL0     H78002   5.682   7.852   2.251  3.3563  0.8965 -2.0510
  591MOL0     H78003   5.555   7.754   2.182  0.3947 -1.3431 -0.2244
  591MOL0     H78004   5.508   7.983   2.150  2.8678  5.0948  1.1111
  591MOL0     H78005   5.662   8.025   2.072 -1.4173  1.6169 -0.1977
  591MOL0     H78006   5.481   7.815   1.929 -0.4258 -0.6326 -2.2899
  591MOL0     H78007   5.614   7.903   1.869 -1.7628 -1.2497 -2.9064
  591MOL0     H78008   5.387   8.027   1.798  0.8908  2.0531 -3.4397
  591MOL0     H78009   5.435   8.102   1.958 -0.3930 -0.4102 -0.8236
  591MOL0     H78010   5.685   8.273   1.714 -0.7162 -0.8805 -0.5995
  591MOL0     H78011   5.875   7.677   2.289  0.3890 -1.2819  0.6074
  591MOL0     H78012   6.129   7.679   2.295 -0.5477 -1.8721 -0.1652
  592MOL0     O78013  10.697   5.336   7.304  0.7311 -0.7644  0.0928
  592MOL0     C78014  10.772   5.413   7.248 -0.3102  0.2200 -0.0175
  592MOL0     O78015  10.726   5.534   7.190  0.2398 -0.3313  0.2885
  592MOL0     C78016  10.585   5.547   7.166  0.8819  0.1523  0.2478
  592MOL0     C78017  10.506   5.647   7.225 -0.3529 -0.2062  0.2124
  592MOL0     C78018  10.380   5.670   7.191  0.8590  0.2023 -0.7605
  592MOL0     C78019  10.316   5.585   7.101  0.4927  0.2635  0.1955
  592MOL0     O78020  10.187   5.603   7.051  0.2072  0.4931 -0.0865
  592MOL0     C78021  10.101   5.709   7.101 -0.3063  0.8949  0.6732
  592MOL0     C78022   9.967   5.694   7.033 -0.0638  0.0840 -0.6180
  592MOL0     C78023   9.850   5.658   7.130  0.2465  0.2972  0.3189
  592MOL0     C78024   9.711   5.706   7.078  0.6937 -0.6225 -0.1563
  592MOL0     C78025   9.588   5.662   7.164 -0.9146  0.5008 -0.8454
  592MOL0     C78026   9.555   5.517   7.184  0.7671 -0.3294 -0.1037
  592MOL0     C78027   9.500   5.462   7.054 -0.8068 -0.3760  0.1542
  592MOL0     C78028   9.433   5.323   7.082 -0.0216 -0.7369  0.2364
  592MOL0     N78029   9.408   5.257   6.952  0.1844 -0.2114 -0.0469
  592MOL0     C78030   9.332   5.312   6.848 -1.4652 -0.2495  0.6692
  592MOL0     C78031   9.344   5.219   6.739 -0.2185 -1.0658 -0.4973
  592MOL0     C78032   9.296   5.231   6.594 -0.0849 -0.3570 -0.5781
  592MOL0     C78033   9.262   5.103   6.522  0.1427 -0.4535  0.0372
  592MOL0     C78034   9.125   5.039   6.567 -0.2329 -0.4280  1.1025
  592MOL0     C78035   9.106   4.891   6.507 -0.6196 -1.1219  0.6680
  592MOL0     O78036   8.988   4.835   6.565 -0.6766 -0.1526 -0.2936
  592MOL0     C78037   8.936   4.724   6.516 -0.0021  0.2842  0.0108
  592MOL0     C78038   8.968   4.664   6.393  0.5662 -0.0628 -0.1037
  592MOL0     C78039   8.898   4.553   6.353  1.1480  0.4575  1.7550
  592MOL0     C78040   8.793   4.492   6.426 -0.3598  0.2592 -0.1031
  592MOL0     C78041   8.707   4.382   6.371 -0.5251  0.2395  0.1061
  592MOL0     O78042   8.671   4.294   6.470  0.0822  0.3266 -0.5536
  592MOL0     C78043   8.558   4.219   6.466 -1.3935 -0.5292  0.7258
  592MOL0     C78044   8.565   4.093   6.504  0.0603  1.4719 -0.0288
  592MOL0     C78045   8.449   4.017   6.527  0.6025  1.2576 -0.0699
  592MOL0     C78046   8.328   4.064   6.473 -0.2283  0.0759 -0.7782
  592MOL0     O78047   8.207   3.995   6.482  1.0750  0.3756  0.5729
  592MOL0     C78048   8.105   3.984   6.380  1.1499 -1.1768 -0.1335
  592MOL0     C78049   7.979   4.061   6.427 -0.4008 -0.1223 -0.1839
  592MOL0     C78050   7.859   4.012   6.362 -0.3563 -0.7496  0.5593
  592MOL0     C78051   7.738   4.092   6.417  0.1572 -1.1591 -0.3860
  592MOL0     C78052   7.617   4.017   6.369  0.5147 -0.2196 -1.2211
  592MOL0     C78053   7.575   3.891   6.454  0.2089 -0.4382  0.7650
  592MOL0     C78054   7.439   3.905   6.521  0.8415  0.0552 -0.7151
  592MOL0     C78055   7.329   3.881   6.435 -0.6579 -0.3117 -0.3194
  592MOL0    Cl78056   7.306   3.722   6.351 -0.1544  0.1464 -0.2946
  592MOL0     C78057   8.329   4.187   6.406 -0.9375  1.1807 -0.9263
  592MOL0     C78058   8.437   4.268   6.410 -1.3491  0.1111  0.0277
  592MOL0     O78059   8.673   4.371   6.251  0.1794 -0.2289 -0.1663
  592MOL0     C78060   8.762   4.546   6.543 -0.0588 -0.2185 -0.9984
  592MOL0     C78061   8.820   4.666   6.579 -0.1669 -0.3547 -0.6194
  592MOL0     N78062   9.418   5.112   6.795 -0.0387 -0.6100 -0.7528
  592MOL0     N78063   9.451   5.134   6.916  0.5198  1.1948  0.2662
  592MOL0     C78064  10.391   5.483   7.031 -0.1885 -1.2055  0.8076
  592MOL0     C78065  10.524   5.461   7.067 -0.5985 -0.3232 -0.3179
  592MOL0     C78066  10.914   5.387   7.230  0.2317 -0.5251  0.3733
  592MOL0     C78067  10.988   5.466   7.146 -0.8276  0.4997 -0.5508
  592MOL0     C78068  11.131   5.444   7.124 -0.4909  0.8910  0.1947
  592MOL0     C78069  11.207   5.350   7.196 -0.3774  1.3065 -0.5332
  592MOL0     O78070  11.341   5.329   7.189 -0.7054  1.4754 -0.5573
  592MOL0     C78071  11.424   5.424   7.148  0.2921 -0.5854  0.1851
  592MOL0     C78072  11.442   5.525   7.261 -0.6642 -0.2862  0.0637
  592MOL0     C78073  11.516   5.649   7.219 -1.6464 -0.3463 -0.0061
  592MOL0     C78074  11.436   5.764   7.160 -0.2366 -1.4614  0.9728
  592MOL0     C78075  11.413   5.749   7.006  0.4417  0.1204 -0.5580
  592MOL0     C78076  11.369   5.723   6.889 -0.6231  1.4733 -0.3317
  592MOL0     C78077  11.132   5.265   7.286 -0.3445 -0.4431  0.2884
  592MOL0     C78078  10.990   5.283   7.295  0.1452  0.1889  0.3681
  592MOL0     H78079  10.549   5.712   7.301 -1.8905  0.0425  0.9039
  592MOL0     H78080  10.319   5.745   7.241  2.1595  1.4035 -0.8948
  592MOL0     H78081  10.156   5.800   7.073  1.4693  0.8913  3.6898
  592MOL0     H78082  10.092   5.711   7.210 -0.8086  1.2928  0.6260
  592MOL0     H78083   9.980   5.617   6.956  5.1726  0.4911 -0.5362
  592MOL0     H78084   9.942   5.788   6.983  0.2597  2.1279  2.7619
  592MOL0     H78085   9.863   5.717   7.220  0.5877 -1.0495  1.1873
  592MOL0     H78086   9.854   5.550   7.151 -0.2574 -0.0468 -1.1760
  592MOL0     H78087   9.708   5.816   7.083 -0.5870 -0.6823  1.0670
  592MOL0     H78088   9.678   5.686   6.976  0.5379  2.2049 -0.7613
  592MOL0     H78089   9.499   5.712   7.124 -1.8741  1.5379  2.2911
  592MOL0     H78090   9.591   5.714   7.260 -1.8609  2.8306 -1.9856
  592MOL0     H78091   9.492   5.498   7.272  0.8349 -0.5688 -0.1053
  592MOL0     H78092   9.643   5.456   7.206  1.0881 -0.9088 -2.6746
  592MOL0     H78093   9.434   5.532   7.001 -0.2584  0.4586  0.5409
  592MOL0     H78094   9.587   5.439   6.991 -3.2968 -1.8422 -3.0295
  592MOL0     H78095   9.341   5.338   7.139 -0.2752  0.3972 -0.4651
  592MOL0     H78096   9.499   5.262   7.146 -0.8649 -0.5092  1.3624
  592MOL0     H78097   9.296   5.414   6.853  2.4159  1.4915 -1.6469
  592MOL0     H78098   9.380   5.285   6.548 -1.0135  3.6919  1.8992
  592MOL0     H78099   9.205   5.291   6.590 -3.6335 -5.1793 -0.2325
  592MOL0     H78100   9.341   5.028   6.531  1.2724  0.6182 -0.5697
  592MOL0     H78101   9.253   5.120   6.415  2.0858 -3.3936 -0.7229
  592MOL0     H78102   9.108   5.039   6.675  2.9165  1.2442  1.7268
  592MOL0     H78103   9.055   5.104   6.515 -1.7074 -1.0189  2.2883
  592MOL0     H78104   9.192   4.824   6.519  1.0358  0.6548 -0.6654
  592MOL0     H78105   9.087   4.910   6.401 -2.1183  0.4930  1.1774
  592MOL0     H78106   9.035   4.707   6.320 -0.0499  0.3197 -0.4511
  592MOL0     H78107   8.918   4.523   6.250  3.7222  0.1265  2.2678
  592MOL0     H78108   8.660   4.044   6.524 -1.9029 -1.1707  4.2288
  592MOL0     H78109   8.452   3.926   6.585 -0.8323  2.1100  1.4493
  592MOL0     H78110   8.091   3.876   6.370  0.1202 -1.0214 -0.4290
  592MOL0     H78111   8.136   4.033   6.287 -0.8638  2.6786  1.0154
  592MOL0     H78112   7.988   4.168   6.404  0.1354 -0.2180 -0.4223
  592MOL0     H78113   7.972   4.050   6.536  3.3389  0.4341  0.2440
  592MOL0     H78114   7.840   3.905   6.375 -0.9867 -1.2922 -3.6301
  592MOL0     H78115   7.867   4.025   6.254  0.2762  4.0327  0.9628
  592MOL0     H78116   7.725   4.106   6.525 -1.9474  1.6481 -0.8939
  592MOL0     H78117   7.740   4.189   6.366  0.4842 -1.8269 -1.6981
  592MOL0     H78118   7.640   3.989   6.265 -0.5798  1.6456 -2.0104
  592MOL0     H78119   7.541   4.095   6.365  0.8487  0.1174 -1.1092
  592MOL0     H78120   7.657   3.883   6.526  1.8055  1.2521 -0.7501
  592MOL0     H78121   7.575   3.806   6.386  3.1558  0.5242 -0.6016
  592MOL0     H78122   7.425   3.836   6.604 -0.2351  0.8566 -0.2070
  592MOL0     H78123   7.414   4.007   6.553 -1.6259 -0.0179 -2.0979
  592MOL0     H78124   7.339   3.952   6.352 -1.0490  0.4766  0.3000
  592MOL0     H78125   7.239   3.890   6.496 -1.9649  0.3210 -2.2247
  592MOL0     H78126   8.230   4.221   6.375 -1.4672  1.0985  0.6295
  592MOL0     H78127   8.425   4.365   6.364 -1.4121 -0.1068 -0.4298
  592MOL0     H78128   8.686   4.495   6.603  0.6349 -0.9251 -0.7119
  592MOL0     H78129   8.781   4.714   6.668 -0.2763  1.1395 -1.4507
  592MOL0     H78130  10.345   5.433   6.946  0.9980  0.8441 -1.1479
  592MOL0     H78131  10.582   5.376   7.033  1.0193 -0.1968  1.8642
  592MOL0     H78132  10.939   5.536   7.079  1.0824  3.8379  1.2461
  592MOL0     H78133  11.176   5.505   7.047  0.4504 -0.7337 -0.6064
  592MOL0     H78134  11.385   5.463   7.053 -0.0666  0.0994  0.6142
  592MOL0     H78135  11.522   5.377   7.132  0.8058  0.9568 -1.5982
  592MOL0     H78136  11.346   5.556   7.302 -0.0760  0.4197  0.9785
  592MOL0     H78137  11.502   5.481   7.341  1.7723  2.3492 -0.1157
  592MOL0     H78138  11.606   5.607   7.172  0.7181  1.9813  2.0577
  592MOL0     H78139  11.552   5.684   7.316  3.1037 -2.9620 -0.4892
  592MOL0     H78140  11.349   5.781   7.224 -1.8582  1.4969 -1.7774
  592MOL0     H78141  11.498   5.854   7.153 -0.5382 -1.3646 -0.6273
  592MOL0     H78142  11.337   5.689   6.793  1.2676 -0.9863 -0.2097
  592MOL0     H78143  11.188   5.189   7.341  0.0944  0.1071  0.6128
  592MOL0     H78144  10.956   5.205   7.362 -0.5068  0.7922  0.7539
  593MOL0     O78145   0.451  10.883   0.530  0.7817  0.0930  0.2753
  593MOL0     C78146   0.542  10.954   0.570 -0.6614  0.4203  0.0722
  593MOL0     O78147   0.528  11.064   0.642  0.3545 -0.2387 -0.2028
  593MOL0     C78148   0.404  11.110   0.663 -0.3064  0.6284  0.5898
  593MOL0     C78149   0.361  11.101   0.788  0.2752  0.2325 -1.1533
  593MOL0     C78150   0.230  11.125   0.822  0.0835 -0.5843 -0.1520
  593MOL0     C78151   0.137  11.166   0.729 -0.3805  0.2219 -0.7404
  593MOL0     O78152   0.016  11.197   0.773 -0.2875  0.9491 -0.0048
  593MOL0     C78153  -0.100  11.164   0.693  0.1695 -0.2152 -0.3171
  593MOL0     C78154  -0.219  11.240   0.743 -0.1092 -0.1297  0.8638
  593MOL0     C78155  -0.205  11.391   0.706  0.2311  0.0761  0.0924
  593MOL0     C78156  -0.316  11.485   0.773 -0.0291  0.5731  1.3289
  593MOL0     C78157  -0.429  11.518   0.673 -0.4147  1.3906  1.4573
  593MOL0     C78158  -0.534  11.605   0.731 -0.3360  0.0089 -0.6191
  593MOL0     C78159  -0.622  11.683   0.626  0.2754  0.0454 -0.3979
  593MOL0     C78160  -0.701  11.577   0.536 -0.0020  0.0466 -0.2885
  593MOL0     N78161  -0.821  11.647   0.484  0.1519  0.1994  0.1448
  593MOL0     C78162  -0.943  11.599   0.489  0.7814  0.3327  0.0049
  593MOL0     C78163  -1.029  11.694   0.454  0.9538 -0.7254  0.1276
  593MOL0     C78164  -1.176  11.685   0.428  0.6667 -1.1022  0.2033
  593MOL0     C78165  -1.192  11.608   0.291  0.3343 -0.7440 -0.3799
  593MOL0     C78166  -1.342  11.572   0.256  0.4700 -0.3965  0.1038
  593MOL0     C78167  -1.438  11.523   0.364 -0.3687 -1.0817  0.2270
  593MOL0     O78168  -1.516  11.635   0.426  0.2019  0.3125 -1.0266
  593MOL0     C78169  -1.619  11.609   0.521  0.5614 -0.5222 -0.2228
  593MOL0     C78170  -1.695  11.710   0.567 -0.5754 -0.1854 -0.6160
  593MOL0     C78171  -1.803  11.695   0.655  0.5961  0.6775 -1.0551
  593MOL0     C78172  -1.821  11.564   0.720 -0.8139  0.3032  0.6683
  593MOL0     C78173  -1.943  11.537   0.800 -1.0610  0.5900 -0.0427
  593MOL0     O78174  -2.014  11.644   0.858 -0.6473  0.3081 -0.4300
  593MOL0     C78175  -2.128  11.625   0.930  0.3321 -0.7405 -0.3115
  593MOL0     C78176  -2.242  11.697   0.892 -0.5732  0.3180 -0.0978
  593MOL0     C78177  -2.355  11.684   0.979 -0.2932  0.4109  0.6525
  593MOL0     C78178  -2.356  11.602   1.093  0.2840  0.9458 -0.1178
  593MOL0     O78179  -2.459  11.589   1.191  0.3146  0.0242 -0.0269
  593MOL0     C78180  -2.487  11.464   1.246 -1.0390  0.5688  0.0639
  593MOL0     C78181  -2.626  11.462   1.293  0.1733 -0.4135 -0.6078
  593MOL0     C78182  -2.636  11.564   1.414  0.4639 -0.4429 -0.6812
  593MOL0     C78183  -2.766  11.521   1.492 -0.1019 -0.0436  0.4687
  593MOL0     C78184  -2.904  11.571   1.452 -0.0725 -1.1100 -0.4813
  593MOL0     C78185  -2.935  11.566   1.302  0.2415 -0.1706  0.3469
  593MOL0     C78186  -3.085  11.606   1.264 -0.3248 -0.0972  0.9146
  593MOL0     C78187  -3.200  11.555   1.358 -0.1832 -0.1475 -0.7020
  593MOL0    Cl78188  -3.248  11.386   1.316 -0.4213 -0.2240 -0.2193
  593MOL0     C78189  -2.241  11.538   1.121 -1.1063  0.4820  0.2054
  593MOL0     C78190  -2.123  11.550   1.044 -0.8987 -0.1630  0.7556
  593MOL0     O78191  -1.951  11.418   0.824  0.5345  0.0475 -0.0054
  593MOL0     C78192  -1.736  11.466   0.675 -1.5320 -0.3896  0.1801
  593MOL0     C78193  -1.645  11.490   0.576 -0.4349  0.5345  0.0056
  593MOL0     N78194  -0.950  11.802   0.421 -0.0130  0.4173 -0.0066
  593MOL0     N78195  -0.829  11.773   0.438  0.2751 -0.6097  1.1814
  593MOL0     C78196   0.183  11.177   0.598  0.2201 -1.5456 -0.0727
  593MOL0     C78197   0.315  11.152   0.566  0.1552 -0.2827  0.3025
  593MOL0     C78198   0.680  10.914   0.539 -0.3462 -0.0419 -0.4768
  593MOL0     C78199   0.783  11.006   0.541 -0.2236 -1.2994 -0.2860
  593MOL0     C78200   0.921  10.974   0.517  0.0030  0.0859  0.0339
  593MOL0     C78201   0.958  10.844   0.508  0.0362  0.1194  0.1820
  593MOL0     O78202   1.089  10.804   0.496  0.3208  0.0589 -0.2079
  593MOL0     C78203   1.125  10.774   0.362 -0.2004 -0.2487 -0.2586
  593MOL0     C78204   1.258  10.702   0.369  0.7661 -0.0157 -0.4775
  593MOL0     C78205   1.307  10.667   0.226  0.2896  0.2278 -0.1620
  593MOL0     C78206   1.326  10.514   0.203 -0.4874 -1.1150 -0.4467
  593MOL0     C78207   1.222  10.440   0.126 -0.3277 -0.4664 -0.6967
  593MOL0     C78208   1.148  10.375   0.058  0.2693 -0.5818 -0.0938
  593MOL0     C78209   0.854  10.746   0.514  0.3495 -0.4859 -0.1016
  593MOL0     C78210   0.717  10.782   0.540  0.0913 -0.4365 -0.2253
  593MOL0     H78211   0.425  11.057   0.863 -0.7406 -1.0971 -1.0335
  593MOL0     H78212   0.203  11.116   0.926 -0.9692  1.7059 -0.1533
  593MOL0     H78213  -0.121  11.057   0.699  1.5392 -0.4271  1.8727
  593MOL0     H78214  -0.092  11.187   0.586 -2.8817 -0.0397 -0.5702
  593MOL0     H78215  -0.220  11.215   0.850  2.8474  0.3070  1.0715
  593MOL0     H78216  -0.311  11.208   0.693 -0.0569  0.9524  0.0428
  593MOL0     H78217  -0.206  11.409   0.598 -0.2863  3.5908  0.5720
  593MOL0     H78218  -0.106  11.414   0.746 -0.0307  0.0788  0.7554
  593MOL0     H78219  -0.344  11.425   0.860 -0.8109  2.2905  2.3012
  593MOL0     H78220  -0.269  11.578   0.807  2.8584  1.2880 -3.5904
  593MOL0     H78221  -0.462  11.424   0.629  0.3593  1.4073  0.8440
  593MOL0     H78222  -0.384  11.581   0.597 -0.6681  0.6967  0.7197
  593MOL0     H78223  -0.483  11.686   0.783 -0.6087 -0.1851 -0.0489
  593MOL0     H78224  -0.597  11.550   0.801 -0.5474  1.0990  0.0682
  593MOL0     H78225  -0.693  11.745   0.682 -3.5596 -4.0205 -0.2093
  593MOL0     H78226  -0.557  11.742   0.561 -0.4173  0.9355 -0.3018
  593MOL0     H78227  -0.725  11.491   0.600  2.9298 -0.0053  0.8760
  593MOL0     H78228  -0.647  11.540   0.448  0.4481  0.2543 -0.1028
  593MOL0     H78229  -0.983  11.503   0.521  1.4612  0.6684  1.9981
  593MOL0     H78230  -1.219  11.786   0.438 -1.1735 -1.9542  1.4784
  593MOL0     H78231  -1.217  11.620   0.505  1.2812 -0.6593  0.9232
  593MOL0     H78232  -1.135  11.515   0.303  0.5864 -0.3248  2.3348
  593MOL0     H78233  -1.138  11.659   0.211 -0.4079  0.8069  0.0737
  593MOL0     H78234  -1.389  11.652   0.199 -1.6129 -1.2569  0.5060
  593MOL0     H78235  -1.341  11.492   0.181 -1.2913  0.5001 -0.9438
  593MOL0     H78236  -1.373  11.467   0.431  2.9375  1.4736 -0.5999
  593MOL0     H78237  -1.512  11.459   0.314 -0.4159 -1.5697  0.9040
  593MOL0     H78238  -1.670  11.810   0.532  3.1774 -0.6208  0.3157
  593MOL0     H78239  -1.865  11.780   0.682  1.6159  0.5737  2.0049
  593MOL0     H78240  -2.244  11.776   0.818 -1.2501  1.7096  1.3425
  593MOL0     H78241  -2.434  11.758   0.971 -0.1054  0.4972 -0.5761
  593MOL0     H78242  -2.417  11.453   1.330  0.0733  1.6766 -0.6923
  593MOL0     H78243  -2.476  11.386   1.171 -0.2785 -1.2795  1.9967
  593MOL0     H78244  -2.655  11.358   1.310 -1.9850  0.1100 -0.9195
  593MOL0     H78245  -2.687  11.497   1.210  1.4708  1.8458 -0.6846
  593MOL0     H78246  -2.655  11.663   1.373  0.7869  1.3693  3.0955
  593MOL0     H78247  -2.549  11.552   1.480 -0.0685  2.1106  0.6112
  593MOL0     H78248  -2.776  11.413   1.477 -1.0827  0.2527 -1.3133
  593MOL0     H78249  -2.743  11.531   1.599  0.4594  0.1093  0.3336
  593MOL0     H78250  -2.905  11.675   1.486 -0.9344 -1.6795  1.3508
  593MOL0     H78251  -2.971  11.514   1.517  1.9908 -1.2980  1.6189
  593MOL0     H78252  -2.923  11.464   1.267 -0.0436  0.1143 -0.6182
  593MOL0     H78253  -2.872  11.641   1.252 -0.9039  0.7487  0.2178
  593MOL0     H78254  -3.086  11.712   1.290  3.1249  0.4914 -0.8333
  593MOL0     H78255  -3.112  11.589   1.159 -0.4542  3.8643  0.1627
  593MOL0     H78256  -3.290  11.615   1.338 -0.5405 -0.5752 -0.4012
  593MOL0     H78257  -3.167  11.554   1.462 -0.3226 -1.6029 -0.6528
  593MOL0     H78258  -2.234  11.477   1.210  2.0327 -0.8684 -0.8311
  593MOL0     H78259  -2.025  11.510   1.067  0.7449 -0.4697 -5.2907
  593MOL0     H78260  -1.736  11.368   0.722 -0.6825 -0.2166  0.5725
  593MOL0     H78261  -1.581  11.409   0.544 -2.3343 -0.3553 -1.8199
  593MOL0     H78262   0.114  11.201   0.518  0.6670  2.3643  0.5095
  593MOL0     H78263   0.322  11.154   0.457  1.0015 -1.0514  0.3331
  593MOL0     H78264   0.768  11.111   0.561 -2.0911 -1.8148  1.3354
  593MOL0     H78265   0.995  11.052   0.500  0.4636 -0.5895 -1.2290
  593MOL0     H78266   1.144  10.859   0.297 -2.4406  2.0036  1.8116
  593MOL0     H78267   1.044  10.713   0.319  1.0312 -2.3635  0.2483
  593MOL0     H78268   1.326  10.768   0.424  2.3738 -2.5842  0.8100
  593MOL0     H78269   1.248  10.613   0.432 -1.9477 -0.6020 -1.6136
  593MOL0     H78270   1.405  10.714   0.212  0.0924  1.5703  2.4069
  593MOL0     H78271   1.245  10.709   0.145 -1.6798 -0.7572  0.7648
  593MOL0     H78272   1.405  10.513   0.127 -1.5343 -4.4687 -1.6329
  593MOL0     H78273   1.337  10.464   0.299 -2.8878  0.7734  0.9560
  593MOL0     H78274   1.083  10.307   0.006 -0.6375 -1.0766  1.6270
  593MOL0     H78275   0.871  10.639   0.515  0.0427 -0.5344  0.9106
  593MOL0     H78276   0.639  10.707   0.546  1.5850 -2.0751 -0.4406
  594MOL0     O78277   7.941   8.724   9.890 -0.5807 -0.2730 -0.3823
  594MOL0     C78278   8.019   8.797   9.953 -0.1633 -0.8630  0.1421
  594MOL0     O78279   7.997   8.865  10.066  0.5402 -0.1314  0.0128
  594MOL0     C78280   7.871   8.862  10.123 -0.0949  0.5318  0.1401
  594MOL0     C78281   7.868   8.843  10.256  0.3362  0.0341 -0.5929
  594MOL0     C78282   7.745   8.837  10.331 -0.3144 -0.5471  0.4571
  594MOL0     C78283   7.626   8.866  10.261  1.1620 -0.1306 -0.0037
  594MOL0     O78284   7.502   8.862  10.327 -0.2500  0.0915  0.3703
  594MOL0     C78285   7.427   8.747  10.289 -0.5253 -1.0607 -0.2752
  594MOL0     C78286   7.306   8.730  10.377  0.0686 -0.0406  0.1930
  594MOL0     C78287   7.253   8.584  10.341  0.1634  0.0531 -0.3023
  594MOL0     C78288   7.168   8.545  10.464 -0.1696 -0.4658 -0.1502
  594MOL0     C78289   7.096   8.410  10.465  0.4537 -0.4124 -0.6384
  594MOL0     C78290   6.962   8.407  10.545 -0.9003 -0.0077  0.4174
  594MOL0     C78291   6.908   8.260  10.529  0.1040 -0.4187 -0.4968
  594MOL0     C78292   6.760   8.257  10.564  0.2016  0.4370  0.5567
  594MOL0     N78293   6.713   8.127  10.608 -0.0774 -0.0387  0.5331
  594MOL0     C78294   6.650   8.032  10.530 -0.3151 -0.2964 -0.9596
  594MOL0     C78295   6.607   7.939  10.621 -0.5553 -0.2760 -0.5759
  594MOL0     C78296   6.517   7.823  10.576 -0.7063 -0.4475  0.0104
  594MOL0     C78297   6.365   7.858  10.583  0.9398 -0.5996  0.5802
  594MOL0     C78298   6.301   7.806  10.718  0.4622 -0.5361  0.0514
  594MOL0     C78299   6.145   7.808  10.712  1.2671  0.2845  0.1063
  594MOL0     O78300   6.090   7.765  10.844 -0.3358  0.0501 -0.1654
  594MOL0     C78301   6.061   7.632  10.842  1.3819 -1.6952  0.5809
  594MOL0     C78302   5.925   7.600  10.796 -0.5514  0.7025  0.2256
  594MOL0     C78303   5.885   7.465  10.793  0.8550 -0.3641 -0.1375
  594MOL0     C78304   5.964   7.367  10.845  0.6969 -0.3054  0.2002
  594MOL0     C78305   5.912   7.223  10.851 -0.2004 -0.7188 -0.4335
  594MOL0     O78306   5.781   7.200  10.806 -0.7298  0.3915 -0.1636
  594MOL0     C78307   5.753   7.064  10.789 -0.1574  0.1306 -0.5247
  594MOL0     C78308   5.679   6.987  10.884  0.8504 -0.5077  0.7900
  594MOL0     C78309   5.635   6.861  10.850  0.6337  0.8905 -0.4144
  594MOL0     C78310   5.676   6.796  10.731  0.3637 -0.1318  0.0152
  594MOL0     O78311   5.635   6.672  10.707  0.0528 -0.0089 -0.5656
  594MOL0     C78312   5.664   6.602  10.581  0.0211 -0.0258 -1.0880
  594MOL0     C78313   5.573   6.473  10.592 -0.0002  0.0611 -0.1681
  594MOL0     C78314   5.599   6.383  10.469  0.0428 -0.0324 -1.4903
  594MOL0     C78315   5.491   6.278  10.466  0.0055 -0.5332 -0.2556
  594MOL0     C78316   5.504   6.169  10.361 -0.1384 -0.3732 -0.1561
  594MOL0     C78317   5.628   6.077  10.390 -0.2483  0.7260 -0.0675
  594MOL0     C78318   5.629   5.970  10.280 -0.5575  0.6342  0.5410
  594MOL0     C78319   5.744   5.875  10.294  0.2230  1.0627 -0.4327
  594MOL0    Cl78320   5.881   5.968  10.221  0.2267 -0.0445  0.0209
  594MOL0     C78321   5.750   6.875  10.641 -0.0644  0.1116 -0.2724
  594MOL0     C78322   5.790   7.008  10.672 -0.4512  0.0964 -0.2558
  594MOL0     O78323   6.001   7.138  10.874 -0.1343 -0.0348  0.0206
  594MOL0     C78324   6.094   7.400  10.896  0.8467 -0.2775 -0.0214
  594MOL0     C78325   6.142   7.529  10.891 -0.3165  0.4491 -0.4176
  594MOL0     N78326   6.651   7.973  10.744 -0.0679  0.0225  0.9934
  594MOL0     N78327   6.712   8.084  10.733  0.1909  0.8993  0.4784
  594MOL0     C78328   7.630   8.904  10.130 -0.5765 -0.4423 -0.3521
  594MOL0     C78329   7.750   8.896  10.059 -0.4106 -0.1360  0.2024
  594MOL0     C78330   8.148   8.828   9.898 -1.4564  0.3960 -0.6607
  594MOL0     C78331   8.195   8.770   9.784  0.1493 -0.3990  0.3519
  594MOL0     C78332   8.321   8.799   9.732 -0.4515 -0.0185  0.2693
  594MOL0     C78333   8.402   8.895   9.794  0.3512 -0.7213 -0.6088
  594MOL0     O78334   8.510   8.956   9.744 -0.5546 -0.6181 -0.7982
  594MOL0     C78335   8.541   8.924   9.604 -0.6213 -0.2764 -0.7586
  594MOL0     C78336   8.627   9.035   9.529 -0.6029  0.3307 -1.1100
  594MOL0     C78337   8.629   9.004   9.377  0.1462 -0.4885 -0.4259
  594MOL0     C78338   8.688   9.129   9.309  0.9735  0.4942  0.4048
  594MOL0     C78339   8.595   9.238   9.271  1.2546 -0.1360  0.9446
  594MOL0     C78340   8.526   9.329   9.231  0.7926  0.3364  0.7649
  594MOL0     C78341   8.363   8.948   9.922  0.0807 -0.2016  0.7345
  594MOL0     C78342   8.243   8.911   9.974 -0.1133 -0.3791  0.7609
  594MOL0     H78343   7.963   8.819  10.302  0.7884 -1.2939 -2.1280
  594MOL0     H78344   7.729   8.802  10.432  1.5014  1.3691  1.4895
  594MOL0     H78345   7.493   8.660  10.297  0.9146  0.1086  1.3940
  594MOL0     H78346   7.388   8.761  10.188 -2.1591 -0.5635  0.3805
  594MOL0     H78347   7.231   8.807  10.358  0.8476  0.9627  1.0297
  594MOL0     H78348   7.338   8.728  10.482  2.6912 -4.0753 -0.4340
  594MOL0     H78349   7.338   8.515  10.341  0.8711  0.9020 -0.7168
  594MOL0     H78350   7.192   8.578  10.250 -2.6602 -0.8350  1.5360
  594MOL0     H78351   7.239   8.564  10.545  0.4503  1.3030 -1.0497
  594MOL0     H78352   7.096   8.626  10.479 -0.3281  0.1871 -3.6021
  594MOL0     H78353   7.159   8.334  10.512  2.8090  1.2378 -0.9103
  594MOL0     H78354   7.076   8.379  10.362  1.0828  3.4916 -2.1128
  594MOL0     H78355   6.892   8.475  10.495  1.6489  1.3013 -1.6453
  594MOL0     H78356   6.976   8.418  10.652 -1.3060  0.6514  0.4062
  594MOL0     H78357   6.917   8.233  10.424 -0.2575 -0.2323 -0.5763
  594MOL0     H78358   6.963   8.197  10.600  0.5441  0.9627  0.4346
  594MOL0     H78359   6.693   8.292  10.485  0.2109  1.1283  0.8552
  594MOL0     H78360   6.752   8.323  10.650  1.7042  1.5059 -0.0908
  594MOL0     H78361   6.646   8.027  10.421  0.4021 -0.9735 -0.9655
  594MOL0     H78362   6.521   7.732  10.637 -3.8891  1.4302  3.4857
  594MOL0     H78363   6.544   7.797  10.473 -1.3613 -1.7964  0.1527
  594MOL0     H78364   6.323   7.805  10.497 -3.2335 -1.2047  2.7558
  594MOL0     H78365   6.342   7.964  10.565  0.0585 -1.3483 -3.7865
  594MOL0     H78366   6.340   7.705  10.735 -0.0477 -0.9005 -0.8210
  594MOL0     H78367   6.336   7.869  10.800 -3.2521  1.1003  0.5654
  594MOL0     H78368   6.110   7.736  10.636  1.5033  0.1086  0.1627
  594MOL0     H78369   6.109   7.906  10.682  2.4603  0.1918 -1.7974
  594MOL0     H78370   5.861   7.681  10.761  0.1144  1.1371 -0.0101
  594MOL0     H78371   5.781   7.449  10.765  1.2259 -1.6848 -0.8348
  594MOL0     H78372   5.648   7.034  10.977  1.1658  1.4184 -0.0276
  594MOL0     H78373   5.578   6.804  10.923  3.0841  0.0718  1.0152
  594MOL0     H78374   5.767   6.566  10.590  0.7692  2.1031 -0.4876
  594MOL0     H78375   5.650   6.660  10.489  0.8538  0.4024 -0.9576
  594MOL0     H78376   5.470   6.508  10.600  0.3047  1.0337 -0.3575
  594MOL0     H78377   5.599   6.418  10.683  0.0956  0.0854 -0.1807
  594MOL0     H78378   5.698   6.338  10.479 -0.4508 -0.6785  1.0737
  594MOL0     H78379   5.598   6.455  10.386  1.6766  0.5799 -1.0136
  594MOL0     H78380   5.476   6.235  10.566  0.3888 -1.0848 -0.4282
  594MOL0     H78381   5.404   6.336  10.434  0.4714  0.2520 -0.1042
  594MOL0     H78382   5.528   6.217  10.265 -1.3566  2.9274  1.0511
  594MOL0     H78383   5.421   6.099  10.367  2.1906 -3.2079  3.4549
  594MOL0     H78384   5.611   6.019  10.482  0.4760 -0.2854 -0.5507
  594MOL0     H78385   5.718   6.137  10.405 -1.4958  2.0216  3.1571
  594MOL0     H78386   5.535   5.914  10.285 -2.5337  3.5405 -1.0848
  594MOL0     H78387   5.638   6.025  10.186  1.3111 -0.7238 -0.1316
  594MOL0     H78388   5.717   5.788  10.233 -2.4746  1.1914  0.4698
  594MOL0     H78389   5.757   5.856  10.401  2.2083  0.2223 -0.7696
  594MOL0     H78390   5.759   6.847  10.536 -2.8943  2.5739 -1.3073
  594MOL0     H78391   5.855   7.065  10.607 -0.8301 -1.3809 -2.0214
  594MOL0     H78392   6.145   7.318  10.946 -0.8618  1.0074  4.2930
  594MOL0     H78393   6.243   7.555  10.920 -0.2499 -0.9579  0.6662
  594MOL0     H78394   7.535   8.924  10.082 -0.9727 -1.1946  0.1176
  594MOL0     H78395   7.756   8.918   9.953 -1.0007 -1.2784 -0.0801
  594MOL0     H78396   8.128   8.694   9.745  0.4119 -1.5898  2.0590
  594MOL0     H78397   8.352   8.752   9.639 -0.2555  2.8132 -1.2057
  594MOL0     H78398   8.445   8.920   9.551 -1.7344 -0.0925  1.1591
  594MOL0     H78399   8.595   8.831   9.582 -1.6127 -1.5808  1.8848
  594MOL0     H78400   8.575   9.127   9.557 -0.7360 -0.5248  1.8262
  594MOL0     H78401   8.729   9.034   9.569 -1.9274  0.5494  2.6487
  594MOL0     H78402   8.526   8.980   9.348 -1.3859  0.4928  3.4400
  594MOL0     H78403   8.691   8.917   9.357  3.9880  1.9603 -0.1851
  594MOL0     H78404   8.766   9.174   9.370  0.2068  1.3923  0.7470
  594MOL0     H78405   8.738   9.087   9.221  0.6908 -3.2887  1.8704
  594MOL0     H78406   8.471   9.412   9.191  2.6133  1.0414 -0.4627
  594MOL0     H78407   8.421   9.033   9.958  1.5062 -0.3887 -0.9679
  594MOL0     H78408   8.212   8.963  10.064 -1.9268  0.6592 -0.3987
  595MOL0     O78409   2.374   4.118   1.286  0.4473 -0.0405 -0.6870
  595MOL0     C78410   2.354   4.237   1.307  0.5997  0.0712  0.3769
  595MOL0     O78411   2.249   4.312   1.262  0.3379  0.1572 -0.0288
  595MOL0     C78412   2.140   4.245   1.208 -0.3033  0.4477 -0.8570
  595MOL0     C78413   2.151   4.162   1.093  0.2856 -0.0366 -0.1774
  595MOL0     C78414   2.039   4.090   1.044 -0.1883 -1.0500 -0.8961
  595MOL0     C78415   1.917   4.097   1.118 -0.4601  0.4451 -0.3242
  595MOL0     O78416   1.814   4.007   1.092 -0.2324  0.3282 -0.0608
  595MOL0     C78417   1.701   4.048   1.021 -0.2900 -0.2580  0.6408
  595MOL0     C78418   1.627   3.923   0.979 -0.4349  0.5200  0.0024
  595MOL0     C78419   1.692   3.850   0.861  0.0494  0.4616  0.1572
  595MOL0     C78420   1.599   3.733   0.807  0.3491 -1.1237  0.3397
  595MOL0     C78421   1.512   3.797   0.692 -0.1170 -0.4407 -0.4993
  595MOL0     C78422   1.409   3.692   0.657 -0.0422  1.6699  0.0182
  595MOL0     C78423   1.307   3.750   0.554 -0.4780 -0.1056 -0.5663
  595MOL0     C78424   1.175   3.673   0.549  0.4348 -1.1589  0.2821
  595MOL0     N78425   1.090   3.686   0.671 -0.7045 -0.2159 -0.0323
  595MOL0     C78426   0.974   3.757   0.670 -0.1886 -0.7489 -0.7580
  595MOL0     C78427   0.921   3.726   0.793  0.3061 -0.8581  0.5236
  595MOL0     C78428   0.791   3.772   0.847 -0.1920 -0.2488 -0.7022
  595MOL0     C78429   0.677   3.690   0.784  0.1732  0.3985  0.2210
  595MOL0     C78430   0.539   3.751   0.832  0.6198 -0.3281  0.6277
  595MOL0     C78431   0.418   3.684   0.763  0.1372  0.5392 -0.3787
  595MOL0     O78432   0.297   3.695   0.843 -0.1619 -0.2521  0.1427
  595MOL0     C78433   0.175   3.657   0.788  0.0069 -0.3958 -0.4652
  595MOL0     C78434   0.061   3.684   0.850  0.3917  0.0824 -0.0127
  595MOL0     C78435  -0.067   3.646   0.798 -0.0827  0.8966  0.1326
  595MOL0     C78436  -0.065   3.566   0.679 -0.1502 -0.4383  0.6908
  595MOL0     C78437  -0.196   3.562   0.606 -0.2441  1.0769  0.6289
  595MOL0     O78438  -0.317   3.622   0.651  0.0290  0.0985  0.0376
  595MOL0     C78439  -0.438   3.597   0.581 -0.7503  0.1366  0.8137
  595MOL0     C78440  -0.455   3.658   0.455 -0.7770 -0.6850 -0.2054
  595MOL0     C78441  -0.577   3.653   0.390 -0.3526  0.3212 -0.5973
  595MOL0     C78442  -0.675   3.576   0.448 -0.4537 -0.2448 -0.0387
  595MOL0     O78443  -0.791   3.557   0.374 -0.5635 -0.3880  0.9491
  595MOL0     C78444  -0.905   3.490   0.429 -0.0984  0.0641  0.0355
  595MOL0     C78445  -1.011   3.516   0.323  0.2324 -0.1275 -0.2587
  595MOL0     C78446  -1.154   3.509   0.385 -0.2185 -0.3952  0.3664
  595MOL0     C78447  -1.254   3.545   0.271 -0.3079  0.0875  0.4625
  595MOL0     C78448  -1.396   3.519   0.326 -0.3670  0.1871 -0.5091
  595MOL0     C78449  -1.491   3.497   0.212  0.5586 -0.2502 -0.5518
  595MOL0     C78450  -1.630   3.465   0.264  1.0734 -1.0416  0.4890
  595MOL0     C78451  -1.651   3.340   0.328  0.1970 -0.4896  0.1940
  595MOL0    Cl78452  -1.821   3.346   0.375  0.3569  0.2396 -0.3199
  595MOL0     C78453  -0.651   3.509   0.565 -0.5640 -0.9910 -0.2580
  595MOL0     C78454  -0.534   3.523   0.634 -0.7602  0.4788 -0.1186
  595MOL0     O78455  -0.192   3.490   0.500  0.1199 -0.5004  0.1527
  595MOL0     C78456   0.056   3.544   0.612 -0.0447 -0.2959 -0.4251
  595MOL0     C78457   0.170   3.589   0.670 -0.2043 -0.1311  0.3296
  595MOL0     N78458   1.007   3.637   0.865 -0.0250 -0.8520  0.5571
  595MOL0     N78459   1.104   3.610   0.787  0.1942 -0.0550 -0.6199
  595MOL0     C78460   1.906   4.171   1.240  0.7021 -0.3551 -0.4708
  595MOL0     C78461   2.016   4.243   1.280 -0.8307 -0.2459  0.0097
  595MOL0     C78462   2.436   4.291   1.418 -0.2207 -0.0277 -0.4146
  595MOL0     C78463   2.419   4.424   1.470 -0.3004 -0.4111 -0.4022
  595MOL0     C78464   2.504   4.468   1.570  0.2295 -0.0807  0.1814
  595MOL0     C78465   2.600   4.389   1.622 -1.1129  0.2504 -0.5275
  595MOL0     O78466   2.692   4.425   1.721 -0.3005 -0.0932 -0.4103
  595MOL0     C78467   2.685   4.354   1.849  0.0908  0.0157  0.7559
  595MOL0     C78468   2.738   4.429   1.969  0.4396 -0.2797 -1.2223
  595MOL0     C78469   2.890   4.451   1.975  0.2049  0.2939  0.1436
  595MOL0     C78470   2.956   4.343   2.063 -0.1368 -0.2075  0.7371
  595MOL0     C78471   3.104   4.346   2.038 -0.1020  0.3775 -0.1108
  595MOL0     C78472   3.219   4.337   2.010 -1.0644  0.0727  0.4689
  595MOL0     C78473   2.616   4.261   1.582  0.7306  0.2139 -0.2642
  595MOL0     C78474   2.536   4.209   1.480  0.7528  0.2197  0.4178
  595MOL0     H78475   2.245   4.161   1.038  0.4059  3.4282 -0.2237
  595MOL0     H78476   2.058   4.022   0.961  0.8278 -1.6043 -0.2274
  595MOL0     H78477   1.737   4.093   0.928 -0.4300 -0.2000  0.6140
  595MOL0     H78478   1.636   4.112   1.081 -0.6135 -0.4831  0.5372
  595MOL0     H78479   1.524   3.928   0.944 -0.8399 -6.1001 -1.1802
  595MOL0     H78480   1.619   3.852   1.062 -3.1156 -0.8387 -1.2864
  595MOL0     H78481   1.784   3.805   0.900 -1.6049 -1.3144  2.3066
  595MOL0     H78482   1.710   3.934   0.793 -1.5859  1.7069  1.1984
  595MOL0     H78483   1.660   3.652   0.764  1.1119 -1.6138  2.2231
  595MOL0     H78484   1.533   3.690   0.883 -1.3132  0.7115 -0.0028
  595MOL0     H78485   1.573   3.829   0.608  0.0713 -0.1675 -0.2581
  595MOL0     H78486   1.465   3.887   0.734  0.1483 -1.0283  1.1470
  595MOL0     H78487   1.354   3.650   0.742  1.9312  0.2661  0.6606
  595MOL0     H78488   1.469   3.611   0.616 -1.8960 -0.0388  0.5411
  595MOL0     H78489   1.276   3.854   0.573  1.7255  0.3976  0.7127
  595MOL0     H78490   1.354   3.739   0.456 -0.4550  1.6208 -0.7790
  595MOL0     H78491   1.190   3.568   0.522  1.9259 -1.0402  0.5869
  595MOL0     H78492   1.125   3.725   0.466  0.0939 -3.3082 -0.9257
  595MOL0     H78493   0.941   3.827   0.594  1.4679 -1.0287 -1.7674
  595MOL0     H78494   0.785   3.881   0.842 -1.1509 -0.3377 -1.6653
  595MOL0     H78495   0.788   3.745   0.953 -1.5142  1.7246 -0.1916
  595MOL0     H78496   0.675   3.587   0.822 -1.3398 -0.3462 -1.7113
  595MOL0     H78497   0.689   3.702   0.676 -0.6362  1.5401  0.2397
  595MOL0     H78498   0.526   3.735   0.939 -0.9353 -1.0984  0.3559
  595MOL0     H78499   0.545   3.858   0.813  1.6852 -0.4464  0.2397
  595MOL0     H78500   0.437   3.578   0.741  2.9471  1.3576 -2.3679
  595MOL0     H78501   0.407   3.717   0.660 -2.3151 -3.9633 -1.8579
  595MOL0     H78502   0.052   3.740   0.942  1.4396 -0.7264  0.6056
  595MOL0     H78503  -0.165   3.661   0.841  0.6158 -0.8447  2.6176
  595MOL0     H78504  -0.373   3.719   0.418 -1.0225  0.8101  1.5968
  595MOL0     H78505  -0.586   3.704   0.294  3.6182 -0.4544 -1.5517
  595MOL0     H78506  -0.933   3.531   0.527  1.0114 -2.6187  1.6110
  595MOL0     H78507  -0.886   3.382   0.437  3.1253  0.1801 -3.4771
  595MOL0     H78508  -0.998   3.436   0.250 -1.4270  1.1280 -2.0207
  595MOL0     H78509  -0.990   3.617   0.285 -1.5383  0.7198  0.8466
  595MOL0     H78510  -1.173   3.575   0.470 -2.2143  1.6572 -1.5259
  595MOL0     H78511  -1.173   3.409   0.425 -2.5138 -1.4173 -2.8656
  595MOL0     H78512  -1.246   3.648   0.236 -2.0321 -0.2935 -1.1835
  595MOL0     H78513  -1.233   3.483   0.183  0.1039  0.3671  0.3595
  595MOL0     H78514  -1.429   3.609   0.379 -3.0665  0.2064 -2.0326
  595MOL0     H78515  -1.391   3.433   0.393  0.7631  1.2273  0.8093
  595MOL0     H78516  -1.450   3.420   0.145  1.8740  2.0850 -2.5904
  595MOL0     H78517  -1.508   3.592   0.161 -2.8036 -1.7841 -2.6268
  595MOL0     H78518  -1.657   3.545   0.334  0.1196  1.3211 -2.3577
  595MOL0     H78519  -1.689   3.485   0.174 -0.3081 -0.1845  1.5544
  595MOL0     H78520  -1.583   3.333   0.413 -0.1324  0.8048  0.5878
  595MOL0     H78521  -1.633   3.258   0.257 -0.8905 -0.5259 -0.0609
  595MOL0     H78522  -0.727   3.458   0.625 -0.8648 -0.6260 -0.3283
  595MOL0     H78523  -0.521   3.477   0.731  0.5886  1.7709  0.3610
  595MOL0     H78524   0.079   3.495   0.518 -0.9081  3.4669 -2.8079
  595MOL0     H78525   0.257   3.565   0.609 -1.1732 -3.0612 -0.0453
  595MOL0     H78526   1.813   4.160   1.293  1.0971 -0.0162  0.3071
  595MOL0     H78527   1.999   4.311   1.364 -0.5915 -0.9132  0.6034
  595MOL0     H78528   2.342   4.491   1.432  1.5367  1.3191 -1.2146
  595MOL0     H78529   2.477   4.565   1.609 -4.3892 -0.0025 -2.3983
  595MOL0     H78530   2.734   4.257   1.837 -1.5754 -0.8671  0.9150
  595MOL0     H78531   2.579   4.336   1.869  0.3037 -1.5272  0.5955
  595MOL0     H78532   2.693   4.529   1.972 -0.1714 -0.3755 -4.3658
  595MOL0     H78533   2.702   4.391   2.065 -2.5569  0.7511 -1.8539
  595MOL0     H78534   2.920   4.546   2.020  1.7721 -1.2004  2.5104
  595MOL0     H78535   2.934   4.438   1.875 -1.3887 -0.4796 -0.4822
  595MOL0     H78536   2.935   4.363   2.168  0.4879 -1.6829  1.1696
  595MOL0     H78537   2.922   4.240   2.050 -1.2836  0.2731 -0.2979
  595MOL0     H78538   3.324   4.348   1.994 -0.7478 -0.6488  1.9195
  595MOL0     H78539   2.694   4.193   1.614 -2.8017 -4.8838 -1.2090
  595MOL0     H78540   2.536   4.103   1.456 -0.8812 -0.3637  2.7050
  596MOL0     O78541   2.256  10.212   9.606 -0.1455 -0.6741  0.3660
  596MOL0     C78542   2.271  10.133   9.699 -0.6978 -0.7596  0.0410
  596MOL0     O78543   2.252  10.161   9.831  0.0756  0.2211  0.0388
  596MOL0     C78544   2.200  10.284   9.851  0.5514 -0.2137  0.1042
  596MOL0     C78545   2.068  10.330   9.826 -0.5254 -1.2587 -0.1520
  596MOL0     C78546   2.023  10.462   9.858  0.0645 -0.4021 -0.1170
  596MOL0     C78547   2.114  10.554   9.912  0.0662 -0.3517  0.2034
  596MOL0     O78548   2.089  10.686   9.946  0.9627  0.3177 -0.0329
  596MOL0     C78549   1.953  10.728   9.932 -0.1116  1.0641  0.3393
  596MOL0     C78550   1.942  10.880   9.966 -0.0917  0.3905  0.2728
  596MOL0     C78551   1.815  10.948   9.908 -0.2650 -0.0718 -0.0021
  596MOL0     C78552   1.688  10.916   9.985  0.0334 -0.5387 -0.1254
  596MOL0     C78553   1.692  10.988  10.121 -0.2316 -0.0281 -0.6371
  596MOL0     C78554   1.567  10.977  10.201  0.0574 -0.3042 -0.0084
  596MOL0     C78555   1.585  11.043  10.336  0.2502 -0.3963  0.1169
  596MOL0     C78556   1.452  11.107  10.382 -0.1884 -0.5326  0.7930
  596MOL0     N78557   1.454  11.199  10.503  0.2853 -0.0944  0.0908
  596MOL0     C78558   1.547  11.187  10.601 -0.4021 -0.3809  0.1080
  596MOL0     C78559   1.505  11.275  10.698 -0.0991  0.8131 -0.2795
  596MOL0     C78560   1.583  11.286  10.832 -0.4444  0.3513  0.0964
  596MOL0     C78561   1.500  11.281  10.960  0.1882 -0.0915  0.0314
  596MOL0     C78562   1.448  11.427  10.996  0.2927 -0.2059 -0.6423
  596MOL0     C78563   1.332  11.396  11.089 -0.8104 -0.5541  0.0379
  596MOL0     O78564   1.287  11.529  11.125 -0.9808 -0.2917 -0.6259
  596MOL0     C78565   1.159  11.546  11.170 -0.3040 -1.5692 -0.3449
  596MOL0     C78566   1.065  11.633  11.105 -0.4968  0.0827 -1.1872
  596MOL0     C78567   0.952  11.667  11.167  0.1938 -0.5505 -0.5734
  596MOL0     C78568   0.916  11.607  11.289  1.2283 -0.3670  0.0120
  596MOL0     C78569   0.789  11.655  11.344  0.3045 -0.3637 -0.1872
  596MOL0     O78570   0.700  11.725  11.259 -0.4462  0.0309 -0.3621
  596MOL0     C78571   0.562  11.720  11.267 -0.5364  0.0579  0.0650
  596MOL0     C78572   0.495  11.606  11.318  0.0988  0.2088 -0.4730
  596MOL0     C78573   0.351  11.595  11.325  1.3363 -0.6958 -0.4767
  596MOL0     C78574   0.273  11.698  11.270  0.5639  0.1160  0.7058
  596MOL0     O78575   0.135  11.669  11.255 -0.2533  0.7893  1.0824
  596MOL0     C78576   0.044  11.774  11.230 -1.8393 -0.5076 -0.5163
  596MOL0     C78577  -0.096  11.707  11.200  0.1243 -0.6260 -0.3550
  596MOL0     C78578  -0.191  11.819  11.158 -0.7044 -0.2284 -0.6157
  596MOL0     C78579  -0.328  11.757  11.126 -0.3715  0.6684  0.1745
  596MOL0     C78580  -0.447  11.854  11.120 -0.4405  0.3229 -0.1994
  596MOL0     C78581  -0.563  11.809  11.042 -0.2911 -0.3201  0.0657
  596MOL0     C78582  -0.618  11.677  11.081 -0.4736 -0.4056  0.8479
  596MOL0     C78583  -0.753  11.656  11.019 -0.6447 -0.1544  0.1585
  596MOL0    Cl78584  -0.814  11.500  11.070 -0.1199  0.0061 -0.3882
  596MOL0     C78585   0.340  11.813  11.223  0.3061 -0.1692  0.1034
  596MOL0     C78586   0.482  11.821  11.214  0.4462  0.4153  0.0104
  596MOL0     O78587   0.767  11.628  11.462 -0.1419  0.5259  0.7085
  596MOL0     C78588   1.007  11.520  11.352  0.9041 -0.2232 -0.9245
  596MOL0     C78589   1.128  11.482  11.295  0.2518  0.1781 -0.8048
  596MOL0     N78590   1.373  11.318  10.661  0.0938 -0.5140  0.7168
  596MOL0     N78591   1.350  11.270  10.547  0.1472  0.1635  0.0786
  596MOL0     C78592   2.236  10.502   9.945  0.0258  0.1431 -0.4515
  596MOL0     C78593   2.287  10.370   9.915  0.3881  0.0766  0.4870
  596MOL0     C78594   2.293   9.992   9.660  0.8374 -1.1885  0.2293
  596MOL0     C78595   2.200   9.932   9.594  1.3007  1.3463 -0.4556
  596MOL0     C78596   2.215   9.794   9.568 -0.8872 -0.2584 -0.0583
  596MOL0     C78597   2.331   9.722   9.615  0.3022 -0.3709 -0.1661
  596MOL0     O78598   2.345   9.586   9.578  0.8551  0.2092  0.0306
  596MOL0     C78599   2.467   9.516   9.588  1.2288  0.7504 -1.3762
  596MOL0     C78600   2.437   9.381   9.650 -1.4605  0.1723  0.1987
  596MOL0     C78601   2.553   9.311   9.733 -1.0558  0.5720  0.3495
  596MOL0     C78602   2.491   9.165   9.775 -0.2236  0.9498  0.1147
  596MOL0     C78603   2.377   9.157   9.868 -0.0472  0.2244  0.0305
  596MOL0     C78604   2.277   9.150   9.946  0.4081 -0.3071  0.5607
  596MOL0     C78605   2.422   9.793   9.698 -0.1249 -0.7713  0.4007
  596MOL0     C78606   2.402   9.928   9.720  0.3552  0.9316 -0.5862
  596MOL0     H78607   1.995  10.260   9.788 -2.4820 -0.0899  1.2571
  596MOL0     H78608   1.916  10.476   9.842 -0.5821 -2.2043  2.0772
  596MOL0     H78609   1.878  10.671   9.986 -0.6670  2.1812  0.7766
  596MOL0     H78610   1.927  10.712   9.827 -0.1473  2.7699  0.0550
  596MOL0     H78611   2.020  10.942   9.922  0.9763 -0.7378  0.5355
  596MOL0     H78612   1.956  10.892  10.074 -0.5726 -0.6998  0.4719
  596MOL0     H78613   1.793  10.900   9.811  1.6859 -0.8490 -0.0973
  596MOL0     H78614   1.826  11.055   9.892 -1.6344 -0.2797 -3.1394
  596MOL0     H78615   1.608  10.956   9.923  1.4822 -1.6948 -2.8951
  596MOL0     H78616   1.668  10.810  10.005 -4.1340 -0.0832 -1.1261
  596MOL0     H78617   1.706  11.094  10.101  0.9831 -0.3319 -1.5414
  596MOL0     H78618   1.783  10.962  10.176  0.8092  2.4092 -1.0842
  596MOL0     H78619   1.553  10.870  10.216 -0.3545 -0.2104  0.2766
  596MOL0     H78620   1.488  11.024  10.141  1.0583  1.2066 -0.1950
  596MOL0     H78621   1.617  10.969  10.411  1.5020  2.1942  2.3119
  596MOL0     H78622   1.665  11.118  10.340  2.1979 -2.0459 -3.5203
  596MOL0     H78623   1.371  11.034  10.388 -1.3461  0.4688 -1.4216
  596MOL0     H78624   1.423  11.177  10.303  0.0975  0.9603  1.9655
  596MOL0     H78625   1.625  11.113  10.618  1.5321  1.5945  0.3505
  596MOL0     H78626   1.658  11.366  10.832  0.9119 -0.8710  1.0445
  596MOL0     H78627   1.645  11.196  10.839  0.7521  1.1088 -0.4989
  596MOL0     H78628   1.570  11.255  11.040  1.3388 -2.2898 -1.5966
  596MOL0     H78629   1.419  11.209  10.946  1.7446 -1.9744  0.2387
  596MOL0     H78630   1.529  11.487  11.038  0.6047  0.2999 -1.8961
  596MOL0     H78631   1.407  11.475  10.907 -2.9785 -0.0485  0.8175
  596MOL0     H78632   1.364  11.337  11.176 -1.8961 -2.3329 -0.7276
  596MOL0     H78633   1.248  11.352  11.036  0.9490 -3.4511 -0.5684
  596MOL0     H78634   1.081  11.688  11.013 -2.3614  0.7013 -1.1866
  596MOL0     H78635   0.885  11.739  11.122  0.7303 -0.8168 -1.8427
  596MOL0     H78636   0.540  11.526  11.375 -0.0953 -0.1755 -0.8516
  596MOL0     H78637   0.289  11.513  11.359 -0.0128  0.8900  1.1420
  596MOL0     H78638   0.079  11.845  11.154  1.4678  2.0046  2.9831
  596MOL0     H78639   0.043  11.843  11.314  0.9582 -0.4812 -0.4232
  596MOL0     H78640  -0.121  11.653  11.292  0.9162 -2.8269 -1.3437
  596MOL0     H78641  -0.100  11.627  11.125 -1.7499 -0.0961 -0.8882
  596MOL0     H78642  -0.150  11.873  11.072  0.2706  2.2606  1.2825
  596MOL0     H78643  -0.210  11.893  11.237  0.5276  1.8545 -2.1485
  596MOL0     H78644  -0.308  11.711  11.029 -2.4912  2.6186 -1.3058
  596MOL0     H78645  -0.341  11.673  11.196  0.4888 -2.1926 -2.8249
  596MOL0     H78646  -0.408  11.944  11.071 -0.7684  0.5979  0.0363
  596MOL0     H78647  -0.474  11.891  11.219 -1.4294  0.7240 -0.6025
  596MOL0     H78648  -0.535  11.805  10.936 -1.9777  0.7933 -0.4799
  596MOL0     H78649  -0.642  11.885  11.053 -0.0964 -0.3989  2.5367
  596MOL0     H78650  -0.546  11.602  11.048  1.3831 -0.0602  3.7245
  596MOL0     H78651  -0.628  11.670  11.190  1.0430 -0.5627  0.9909
  596MOL0     H78652  -0.750  11.658  10.910 -2.6022 -1.0659  0.0331
  596MOL0     H78653  -0.822  11.727  11.065  1.2619 -0.0266  3.0691
  596MOL0     H78654   0.276  11.888  11.179  1.4428  1.7622  1.5617
  596MOL0     H78655   0.531  11.907  11.170 -1.0400  0.5911 -1.4144
  596MOL0     H78656   0.978  11.482  11.450  1.8779 -0.9087 -0.8832
  596MOL0     H78657   1.195  11.411  11.341 -3.0410 -4.1047 -1.9502
  596MOL0     H78658   2.310  10.564   9.994  2.7589 -1.1788 -2.6069
  596MOL0     H78659   2.383  10.339   9.955  2.2155  4.0401 -0.2914
  596MOL0     H78660   2.116   9.986   9.552 -2.9478 -1.2788  3.5984
  596MOL0     H78661   2.149   9.752   9.493 -0.8191  0.9607 -0.8338
  596MOL0     H78662   2.539   9.565   9.654  0.6868 -2.5199  1.9773
  596MOL0     H78663   2.522   9.501   9.495  1.9823  0.5109 -0.9010
  596MOL0     H78664   2.356   9.387   9.723  0.1435 -0.7222  2.1699
  596MOL0     H78665   2.399   9.318   9.569 -0.8240  1.7596 -1.4049
  596MOL0     H78666   2.582   9.371   9.820  1.5776 -1.2863  0.8786
  596MOL0     H78667   2.649   9.307   9.681 -1.0081  0.6472  0.4312
  596MOL0     H78668   2.458   9.121   9.680  1.5943 -1.4758  0.5219
  596MOL0     H78669   2.572   9.101   9.810  0.1855  0.9638 -0.7967
  596MOL0     H78670   2.192   9.160  10.011  0.3130 -0.4720  0.4633
  596MOL0     H78671   2.511   9.743   9.736  0.7921 -0.4775 -1.2612
  596MOL0     H78672   2.472   9.981   9.784  0.3251  0.7317 -0.3889
  597MOL0     O78673   9.963   3.878   9.750 -0.2497  0.3984 -0.1439
  597MOL0     C78674   9.894   3.775   9.749 -0.5696 -0.9564  0.1567
  597MOL0     O78675   9.940   3.650   9.785 -0.1205 -0.3998  0.3297
  597MOL0     C78676  10.074   3.620   9.813  0.3513 -0.2726  0.2859
  597MOL0     C78677  10.153   3.692   9.898  0.4873 -0.1101  0.4961
  597MOL0     C78678  10.284   3.654   9.929 -0.3331  0.7119 -0.3775
  597MOL0     C78679  10.340   3.550   9.850 -0.7657  1.0819 -0.2326
  597MOL0     O78680  10.469   3.504   9.879  0.1177 -0.7797 -0.5882
  597MOL0     C78681  10.551   3.463   9.768  0.6680 -0.7951  0.0802
  597MOL0     C78682  10.685   3.433   9.811 -0.0320 -0.2787  0.5918
  597MOL0     C78683  10.769   3.344   9.710 -0.3480  0.6937 -0.5625
  597MOL0     C78684  10.924   3.358   9.735 -0.8019 -0.9134  0.4089
  597MOL0     C78685  11.022   3.294   9.626  0.5617 -0.2824 -0.1251
  597MOL0     C78686  10.970   3.163   9.577  0.9760 -0.3539 -0.2650
  597MOL0     C78687  11.072   3.094   9.488 -0.1320  0.2816 -0.7318
  597MOL0     C78688  11.181   3.025   9.560 -0.6702 -0.3991  0.1007
  597MOL0     N78689  11.157   2.895   9.623 -0.4454 -0.7383  0.0255
  597MOL0     C78690  11.087   2.795   9.565 -0.3586 -0.1415  0.2224
  597MOL0     C78691  11.105   2.686   9.643 -0.3012 -0.1253  0.4123
  597MOL0     C78692  11.034   2.566   9.615 -0.1342  0.2274  0.3310
  597MOL0     C78693  11.120   2.443   9.594  0.5057 -0.0342  1.0614
  597MOL0     C78694  11.098   2.343   9.711  0.4072 -0.1428  0.3962
  597MOL0     C78695  10.971   2.268   9.690 -0.3579  0.5450  0.7288
  597MOL0     O78696  10.943   2.203   9.816 -0.2261 -0.0087 -0.7203
  597MOL0     C78697  10.842   2.116   9.834 -0.1454  0.2917  0.2323
  597MOL0     C78698  10.840   2.049   9.955 -0.7383  0.6713  0.7554
  597MOL0     C78699  10.731   1.976   9.987  0.0766  0.4091  1.0021
  597MOL0     C78700  10.625   1.961   9.897 -0.0037  0.5554  0.4364
  597MOL0     C78701  10.501   1.877   9.924 -1.2425 -0.0958  0.0755
  597MOL0     O78702  10.403   1.877   9.826 -0.3193  0.4251  0.2028
  597MOL0     C78703  10.306   1.777   9.825  0.0070 -1.1559  0.1141
  597MOL0     C78704  10.181   1.808   9.880 -0.0061  0.3863  0.5759
  597MOL0     C78705  10.073   1.724   9.876  0.1083 -0.2249 -0.2313
  597MOL0     C78706  10.093   1.589   9.840 -0.0002 -0.1413  1.2715
  597MOL0     O78707   9.999   1.490   9.861  0.8777 -0.2409 -0.2197
  597MOL0     C78708   9.864   1.525   9.892 -0.4721 -0.0972  0.5560
  597MOL0     C78709   9.775   1.397   9.888 -0.0566  1.1034 -0.7273
  597MOL0     C78710   9.631   1.425   9.930 -0.4809  0.2585 -0.9334
  597MOL0     C78711   9.549   1.299   9.964 -0.3222 -0.7681 -0.5168
  597MOL0     C78712   9.611   1.218  10.089 -0.3294  0.5075  0.8030
  597MOL0     C78713   9.510   1.117  10.148  0.4032 -0.2431  1.2033
  597MOL0     C78714   9.446   1.025  10.040  0.4626 -0.1060 -0.3985
  597MOL0     C78715   9.365   0.903  10.095 -0.1227 -0.1405 -0.5124
  597MOL0    Cl78716   9.479   0.793  10.160 -0.2072  0.1333  0.5349
  597MOL0     C78717  10.220   1.548   9.800  0.8041 -0.1123  0.4670
  597MOL0     C78718  10.331   1.644   9.799 -0.1092  0.2733  0.5507
  597MOL0     O78719  10.515   1.797  10.022 -0.2688 -0.2193  0.3917
  597MOL0     C78720  10.635   2.032   9.778 -0.2667  0.1036 -0.6413
  597MOL0     C78721  10.733   2.122   9.753  0.0135  0.6917  0.1601
  597MOL0     N78722  11.177   2.731   9.748 -0.1887 -0.3526 -0.4125
  597MOL0     N78723  11.222   2.849   9.730 -0.0911  0.5543  0.2057
  597MOL0     C78724  10.258   3.478   9.759 -0.0978 -0.8040  0.2630
  597MOL0     C78725  10.126   3.515   9.737 -0.3649  0.4521  0.6782
  597MOL0     C78726   9.755   3.785   9.700 -0.0625  0.7449 -0.6377
  597MOL0     C78727   9.645   3.693   9.720 -0.3437 -0.6948  0.3954
  597MOL0     C78728   9.516   3.726   9.683  0.7910  0.3127 -0.1779
  597MOL0     C78729   9.482   3.846   9.622 -0.2806  0.3513  0.2913
  597MOL0     O78730   9.354   3.885   9.601 -0.1355 -0.0276 -0.6023
  597MOL0     C78731   9.337   3.897   9.456  0.0664  0.2327 -0.1678
  597MOL0     C78732   9.187   3.930   9.422 -1.1221 -0.0501 -0.0505
  597MOL0     C78733   9.094   3.812   9.448  1.1422 -0.3022  0.5971
  597MOL0     C78734   8.955   3.818   9.380 -0.3300  0.0367  0.1870
  597MOL0     C78735   8.967   3.756   9.250 -0.0914 -0.6865 -0.4359
  597MOL0     C78736   8.978   3.691   9.154  0.5322 -0.2444 -0.1022
  597MOL0     C78737   9.583   3.928   9.597  0.1721 -0.1464 -0.3883
  597MOL0     C78738   9.714   3.902   9.633  0.4274  0.2769  0.1908
  597MOL0     H78739  10.111   3.785   9.934 -1.4062  0.1949 -2.1962
  597MOL0     H78740  10.348   3.702  10.001 -2.3615  2.6892  0.2267
  597MOL0     H78741  10.551   3.533   9.684  2.3086 -0.8567  0.0051
  597MOL0     H78742  10.511   3.366   9.736 -0.0995 -1.3628  2.5516
  597MOL0     H78743  10.676   3.386   9.909  1.0172  0.5341  1.0974
  597MOL0     H78744  10.737   3.528   9.823  1.0020 -0.5532 -1.2440
  597MOL0     H78745  10.745   3.361   9.604 -1.6762  0.8264 -0.2590
  597MOL0     H78746  10.735   3.242   9.728 -1.9687  1.2427 -0.3882
  597MOL0     H78747  10.943   3.465   9.754 -0.3454 -1.2219  1.7989
  597MOL0     H78748  10.952   3.316   9.832  2.1964  2.4172  1.2110
  597MOL0     H78749  11.117   3.284   9.677  0.5450  0.8709  0.1724
  597MOL0     H78750  11.043   3.359   9.540  2.3397  0.3726  0.7544
  597MOL0     H78751  10.870   3.176   9.534  0.7325 -2.8203 -0.5772
  597MOL0     H78752  10.951   3.098   9.663  1.2724 -2.9105 -2.0449
  597MOL0     H78753  11.012   3.033   9.421 -0.2049 -1.8743  1.1856
  597MOL0     H78754  11.121   3.171   9.428  0.9081 -0.2458 -0.5916
  597MOL0     H78755  11.213   3.091   9.641 -0.4383 -0.5499  0.1329
  597MOL0     H78756  11.268   3.016   9.495 -1.5058 -0.8192 -0.9807
  597MOL0     H78757  11.020   2.800   9.480 -0.0185 -2.0451 -0.2166
  597MOL0     H78758  10.980   2.581   9.521 -0.8039  0.1301  0.6961
  597MOL0     H78759  10.955   2.547   9.688  0.2911 -1.7375  0.3347
  597MOL0     H78760  11.226   2.463   9.580  0.5511 -0.6059  0.5229
  597MOL0     H78761  11.097   2.396   9.497 -0.1356 -3.0345  2.5388
  597MOL0     H78762  11.176   2.267   9.704  1.4791  1.0631 -1.1918
  597MOL0     H78763  11.089   2.388   9.811  2.7418  1.9570 -0.2413
  597MOL0     H78764  10.981   2.192   9.612 -0.5515  2.3357 -1.1623
  597MOL0     H78765  10.893   2.337   9.658 -1.0566 -0.6427 -0.1950
  597MOL0     H78766  10.924   2.041  10.022 -1.2256  1.5663  1.5045
  597MOL0     H78767  10.729   1.926  10.083 -1.7272  0.7324  1.1784
  597MOL0     H78768  10.147   1.904   9.918  1.7392  4.0201 -5.5753
  597MOL0     H78769   9.975   1.748   9.916  0.0936  3.0293 -1.9523
  597MOL0     H78770   9.824   1.593   9.816  0.3226  1.6996  1.6937
  597MOL0     H78771   9.872   1.569   9.992  0.1980  0.1576  0.3941
  597MOL0     H78772   9.815   1.324   9.959 -2.6315  0.8351  0.5709
  597MOL0     H78773   9.767   1.358   9.786 -0.9455  3.4832 -1.6272
  597MOL0     H78774   9.576   1.466   9.844 -0.2593  2.8351  0.0613
  597MOL0     H78775   9.626   1.495  10.014 -0.2117 -1.2833  0.4089
  597MOL0     H78776   9.446   1.322   9.993 -1.3956 -4.2007 -1.1894
  597MOL0     H78777   9.539   1.235   9.876  1.5209  1.2430 -2.3123
  597MOL0     H78778   9.645   1.283  10.170 -3.1243  1.7388  1.1111
  597MOL0     H78779   9.695   1.158  10.052  1.0045  1.4739  2.1060
  597MOL0     H78780   9.430   1.170  10.201 -2.7343 -3.6651  0.3315
  597MOL0     H78781   9.551   1.057  10.229  0.0984 -3.2098 -0.6708
  597MOL0     H78782   9.379   1.079   9.973  1.7945  1.6421 -0.3866
  597MOL0     H78783   9.521   0.990   9.968 -0.7732 -2.3245 -0.6932
  597MOL0     H78784   9.310   0.858  10.011  2.5155 -0.0829 -2.3865
  597MOL0     H78785   9.297   0.927  10.177  0.7159  0.5125  0.0046
  597MOL0     H78786  10.241   1.447   9.768 -1.8675 -0.0090 -1.9486
  597MOL0     H78787  10.431   1.609   9.776 -1.6314 -2.8581 -2.3549
  597MOL0     H78788  10.560   2.013   9.702 -1.2737 -0.1125  0.3916
  597MOL0     H78789  10.720   2.199   9.678  3.3258  2.3151  1.0603
  597MOL0     H78790  10.291   3.401   9.689 -2.6019 -0.7031 -1.1480
  597MOL0     H78791  10.056   3.465   9.672 -1.4097  0.5383  1.7071
  597MOL0     H78792   9.654   3.598   9.771  1.5569  0.1201  1.7152
  597MOL0     H78793   9.435   3.656   9.697 -0.2367  1.4061 -0.4624
  597MOL0     H78794   9.359   3.800   9.410 -3.3094  0.7013 -3.2413
  597MOL0     H78795   9.407   3.965   9.407 -1.6562 -0.1334 -3.4537
  597MOL0     H78796   9.151   4.015   9.481 -2.5632 -0.6220 -0.0649
  597MOL0     H78797   9.184   3.967   9.319 -2.5150 -1.4962 -0.5596
  597MOL0     H78798   9.081   3.790   9.555 -3.3449  0.8629  0.5076
  597MOL0     H78799   9.148   3.731   9.399  2.9720  1.1231  0.1650
  597MOL0     H78800   8.879   3.774   9.445 -0.0807  2.3245  2.1662
  597MOL0     H78801   8.932   3.925   9.381 -0.9445  0.0280  4.0927
  597MOL0     H78802   8.993   3.630   9.066  1.2748  0.0226 -0.1672
  597MOL0     H78803   9.562   4.029   9.562 -0.2104 -0.1703 -0.2372
  597MOL0     H78804   9.789   3.980   9.623  0.9014 -0.0481  1.1363
  598MOL0     O78805  11.343   9.013   6.579 -0.5452 -0.9725  0.7953
  598MOL0     C78806  11.334   9.004   6.698 -0.1491 -0.2513  0.5815
  598MOL0     O78807  11.217   9.011   6.769  0.8722  0.0030 -0.3299
  598MOL0     C78808  11.087   9.024   6.705  0.3129 -0.2096 -0.1389
  598MOL0     C78809  10.973   9.017   6.782  0.2400 -0.4522  0.0741
  598MOL0     C78810  10.848   9.046   6.729 -1.0695  0.2605  0.0926
  598MOL0     C78811  10.829   9.090   6.595 -0.4529  0.1222  0.5125
  598MOL0     O78812  10.703   9.114   6.545 -0.0806 -0.5112 -0.7164
  598MOL0     C78813  10.592   9.104   6.632  0.1098 -0.8147  0.2286
  598MOL0     C78814  10.457   9.149   6.574 -0.5103 -0.2417  0.1972
  598MOL0     C78815  10.454   9.257   6.461  1.1163 -0.6877  0.3132
  598MOL0     C78816  10.496   9.393   6.516 -0.1042 -0.3632  1.4477
  598MOL0     C78817  10.416   9.506   6.440  0.5050  0.8301  0.5104
  598MOL0     C78818  10.425   9.511   6.284  0.4762 -0.8250 -0.8913
  598MOL0     C78819  10.554   9.546   6.222  0.0588  0.0583 -0.2174
  598MOL0     C78820  10.540   9.633   6.097 -0.4619  0.2966 -0.4328
  598MOL0     N78821  10.676   9.675   6.063  0.1625  0.5718 -0.0257
  598MOL0     C78822  10.744   9.629   5.955 -0.5645  0.1293  0.4690
  598MOL0     C78823  10.860   9.694   5.959  0.7350  0.1683 -0.1841
  598MOL0     C78824  10.975   9.674   5.871  0.4376  0.1899  0.0466
  598MOL0     C78825  10.989   9.791   5.779  0.3122 -0.1448 -1.0324
  598MOL0     C78826  10.920   9.790   5.638 -0.8189  0.6059  0.1613
  598MOL0     C78827  10.980   9.676   5.552  0.8134  0.4266 -0.3163
  598MOL0     O78828  10.993   9.706   5.418 -0.0867 -0.2159 -0.1441
  598MOL0     C78829  11.106   9.783   5.384  0.4132  0.2471  0.1413
  598MOL0     C78830  11.211   9.820   5.463 -0.2321 -1.2453  0.3960
  598MOL0     C78831  11.328   9.874   5.399 -0.6274  0.6902 -0.5540
  598MOL0     C78832  11.337   9.898   5.262 -0.3660 -1.0749 -0.5647
  598MOL0     C78833  11.463   9.950   5.201  0.4740  0.4329 -0.4030
  598MOL0     O78834  11.567   9.976   5.283 -0.6536 -0.2552 -0.0685
  598MOL0     C78835  11.686  10.036   5.242 -0.9721 -0.1986 -0.3006
  598MOL0     C78836  11.762  10.102   5.342  0.0332 -0.3612 -0.5185
  598MOL0     C78837  11.890  10.156   5.320 -1.0708  0.5374  0.8188
  598MOL0     C78838  11.944  10.151   5.196  1.4674 -0.9897 -0.2456
  598MOL0     O78839  12.078  10.186   5.188 -0.0618 -0.2306  0.1791
  598MOL0     C78840  12.129  10.216   5.054 -0.6356  0.1423  0.5330
  598MOL0     C78841  12.236  10.329   5.047  0.0001  0.0464 -0.9251
  598MOL0     C78842  12.365  10.274   5.083 -0.4999  0.3515  0.0407
  598MOL0     C78843  12.467  10.387   5.115  1.4225  0.8304  0.5843
  598MOL0     C78844  12.569  10.343   5.210  0.6818 -0.1814  0.3443
  598MOL0     C78845  12.671  10.236   5.159  1.0089  0.1797  0.1491
  598MOL0     C78846  12.783  10.292   5.083  0.3297 -0.6869  1.2161
  598MOL0     C78847  12.897  10.186   5.089  0.1093 -0.6830  0.0847
  598MOL0    Cl78848  12.852  10.011   5.074 -0.4919 -0.1569 -0.0565
  598MOL0     C78849  11.873  10.093   5.095  0.2187  0.5846  0.0970
  598MOL0     C78850  11.744  10.025   5.110 -0.7434 -1.1313 -0.8467
  598MOL0     O78851  11.467   9.948   5.077 -0.8786  1.1427 -0.0158
  598MOL0     C78852  11.222   9.874   5.184  0.2547  0.7486  0.2178
  598MOL0     C78853  11.114   9.809   5.247 -0.2938 -0.1434  0.4368
  598MOL0     N78854  10.858   9.780   6.066 -0.6399  0.3463  0.2059
  598MOL0     N78855  10.743   9.768   6.131 -1.4702 -0.7950  0.9610
  598MOL0     C78856  10.948   9.104   6.522  0.1568 -0.5920 -1.0357
  598MOL0     C78857  11.067   9.060   6.571  0.3038 -0.7842 -0.0125
  598MOL0     C78858  11.466   9.006   6.773 -0.1171  0.4964  0.1419
  598MOL0     C78859  11.585   9.012   6.698 -0.7319  1.0826 -0.7437
  598MOL0     C78860  11.709   8.992   6.766 -0.0830 -0.8357 -0.2416
  598MOL0     C78861  11.698   8.965   6.905  0.2807  0.6446  0.1222
  598MOL0     O78862  11.804   8.920   6.984 -0.0903  0.0882 -0.6280
  598MOL0     C78863  11.929   8.934   6.928 -0.0400  0.1506 -0.2382
  598MOL0     C78864  12.012   8.858   7.033 -0.3567 -0.1686 -0.1771
  598MOL0     C78865  12.033   8.933   7.173  0.7626  0.0255 -0.6623
  598MOL0     C78866  12.126   8.861   7.265 -1.0847 -0.1640  0.1011
  598MOL0     C78867  12.141   8.899   7.404  0.6428  0.3605  0.0882
  598MOL0     C78868  12.163   8.919   7.520 -0.4999 -0.4537  0.5931
  598MOL0     C78869  11.584   8.990   6.976 -0.1273 -0.2085 -0.2968
  598MOL0     C78870  11.461   8.996   6.910 -0.5243  0.1181 -0.5670
  598MOL0     H78871  10.985   8.997   6.888  3.9792 -1.7130 -0.4284
  598MOL0     H78872  10.770   9.046   6.805  0.9919  3.9709  2.4548
  598MOL0     H78873  10.597   9.191   6.700 -0.1115 -0.4656 -0.1991
  598MOL0     H78874  10.589   9.009   6.686 -0.0216 -2.4099 -2.4296
  598MOL0     H78875  10.386   9.184   6.649  0.2320 -1.5627  1.5715
  598MOL0     H78876  10.414   9.056   6.533 -2.9482  1.1455 -0.5806
  598MOL0     H78877  10.359   9.256   6.408  0.3533 -0.9363  1.6391
  598MOL0     H78878  10.526   9.238   6.381  4.5212 -0.9930  3.1830
  598MOL0     H78879  10.475   9.399   6.623 -2.3506  2.2550  0.9799
  598MOL0     H78880  10.600   9.417   6.490 -0.6492 -1.5061 -2.5080
  598MOL0     H78881  10.457   9.592   6.495  2.1307 -1.3084  2.8871
  598MOL0     H78882  10.312   9.479   6.462  0.7568 -1.3507 -0.7150
  598MOL0     H78883  10.349   9.581   6.247 -2.1547 -3.9509 -1.8732
  598MOL0     H78884  10.390   9.416   6.243 -5.6300  0.0264  1.2820
  598MOL0     H78885  10.607   9.605   6.297 -1.3665  0.0275  0.8473
  598MOL0     H78886  10.612   9.454   6.211 -0.1866 -0.0851 -0.3323
  598MOL0     H78887  10.499   9.733   6.109 -0.3594  0.5674 -2.0809
  598MOL0     H78888  10.494   9.580   6.013  1.1337 -1.5612 -0.2124
  598MOL0     H78889  10.717   9.546   5.890 -0.6789 -1.4820  2.4867
  598MOL0     H78890  10.952   9.591   5.802 -1.9019  2.2516 -1.8712
  598MOL0     H78891  11.067   9.670   5.929  0.3480  1.2097  0.2678
  598MOL0     H78892  11.095   9.809   5.759  0.8113 -1.5411  0.1525
  598MOL0     H78893  10.953   9.880   5.831 -0.4910 -0.6870 -0.6417
  598MOL0     H78894  10.811   9.790   5.644 -0.7381  0.0638  3.5902
  598MOL0     H78895  10.950   9.873   5.573 -0.9126  0.2539 -0.3412
  598MOL0     H78896  10.903   9.598   5.554 -0.1174  1.3197 -0.4683
  598MOL0     H78897  11.068   9.624   5.589  0.8959  1.6200  1.2656
  598MOL0     H78898  11.207   9.802   5.570 -2.2618 -0.6869  0.4616
  598MOL0     H78899  11.414   9.888   5.463 -0.8737 -2.8988  0.7472
  598MOL0     H78900  11.705  10.106   5.435  0.5357 -2.9325 -0.0122
  598MOL0     H78901  11.942  10.198   5.405  0.8280 -0.8144  0.3702
  598MOL0     H78902  12.051  10.251   4.986  0.9460  1.1833 -0.8105
  598MOL0     H78903  12.160  10.120   5.012  0.4577  1.3917 -1.6964
  598MOL0     H78904  12.206  10.404   5.122 -0.6158  0.4794 -1.5821
  598MOL0     H78905  12.251  10.378   4.950  0.0517  0.4116 -0.7332
  598MOL0     H78906  12.404  10.200   5.013 -0.6272 -0.0654  0.4070
  598MOL0     H78907  12.344  10.214   5.172 -0.0905 -1.2824 -0.9250
  598MOL0     H78908  12.518  10.432   5.029  2.7544 -4.6910 -2.0250
  598MOL0     H78909  12.416  10.467   5.168  0.9562  1.3973 -0.6693
  598MOL0     H78910  12.522  10.294   5.296  0.3517  1.0258  0.8718
  598MOL0     H78911  12.620  10.429   5.253 -1.4872  0.3098  2.1464
  598MOL0     H78912  12.622  10.168   5.089  0.7155  1.6143 -1.0912
  598MOL0     H78913  12.701  10.175   5.245 -0.5668 -1.8959 -0.6926
  598MOL0     H78914  12.747  10.325   4.986 -0.7237  1.0467  2.1445
  598MOL0     H78915  12.809  10.390   5.123  0.2570  0.1482 -0.6822
  598MOL0     H78916  12.956  10.202   5.180  2.9774 -1.1569 -1.5662
  598MOL0     H78917  12.972  10.205   5.011 -1.3586  2.8858 -0.6875
  598MOL0     H78918  11.921  10.075   5.000  1.0278 -0.8163  0.7450
  598MOL0     H78919  11.691   9.967   5.036  0.1837 -1.7674 -1.0305
  598MOL0     H78920  11.234   9.894   5.078 -2.0489 -0.1044 -0.2466
  598MOL0     H78921  11.027   9.795   5.184  0.0730  1.0032 -0.3706
  598MOL0     H78922  10.937   9.136   6.418 -2.9233 -1.1698 -0.9819
  598MOL0     H78923  11.139   9.080   6.493  3.6257 -2.9119  2.2328
  598MOL0     H78924  11.596   9.025   6.591  0.7084 -1.3790 -0.9559
  598MOL0     H78925  11.799   9.003   6.707 -0.6015  1.1439 -0.7354
  598MOL0     H78926  11.958   9.039   6.914 -1.0830  0.5196  0.2735
  598MOL0     H78927  11.938   8.884   6.831 -0.4143 -0.8095  0.2053
  598MOL0     H78928  11.957   8.764   7.041 -0.3962 -0.0725  0.7216
  598MOL0     H78929  12.113   8.834   6.997  0.1688 -0.2443  1.2550
  598MOL0     H78930  11.932   8.934   7.214  0.5633 -0.6649 -1.1179
  598MOL0     H78931  12.052   9.036   7.141 -0.4211  0.0035 -1.4917
  598MOL0     H78932  12.089   8.759   7.268 -1.8106  0.1145  1.4460
  598MOL0     H78933  12.225   8.853   7.218 -0.4205 -0.5541  1.4983
  598MOL0     H78934  12.192   8.941   7.620  1.6451  0.8505 -0.2540
  598MOL0     H78935  11.590   8.981   7.084 -0.5339 -0.9346 -0.3258
  598MOL0     H78936  11.367   9.001   6.965 -0.9881 -1.1286 -1.1986
  599MOL0     O78937   6.686   7.950   2.403 -0.2011 -0.0989 -0.8477
  599MOL0     C78938   6.742   8.060   2.395 -0.6161  0.5810  0.3830
  599MOL0     O78939   6.681   8.183   2.407 -0.2556  0.5639 -0.1926
  599MOL0     C78940   6.552   8.189   2.419  0.3732  1.0673 -0.0830
  599MOL0     C78941   6.480   8.176   2.297 -0.3500  0.6050 -0.2628
  599MOL0     C78942   6.341   8.182   2.294  0.6585  0.4110 -0.7677
  599MOL0     C78943   6.270   8.199   2.412 -0.4029  0.3506 -0.1342
  599MOL0     O78944   6.136   8.210   2.411 -0.4583 -0.7823 -0.5021
  599MOL0     C78945   6.069   8.097   2.470  0.9971  0.2710  0.3720
  599MOL0     C78946   5.920   8.080   2.420 -0.3586  0.8678  0.0171
  599MOL0     C78947   5.827   8.181   2.469 -0.5331  0.3774  0.4646
  599MOL0     C78948   5.789   8.155   2.617  1.1013 -0.3321 -0.3191
  599MOL0     C78949   5.682   8.256   2.679  0.0641  0.9259 -0.1245
  599MOL0     C78950   5.746   8.390   2.709  0.3229 -0.2926  1.0569
  599MOL0     C78951   5.650   8.498   2.752 -0.3569 -0.2547 -0.9795
  599MOL0     C78952   5.552   8.451   2.852  0.6370 -0.3062 -0.4937
  599MOL0     N78953   5.610   8.408   2.981  0.2461 -0.9232  0.1292
  599MOL0     C78954   5.629   8.495   3.089 -0.0294 -0.3856 -0.2959
  599MOL0     C78955   5.701   8.420   3.179  0.1988  0.0971  0.3497
  599MOL0     C78956   5.764   8.468   3.303  0.5063 -0.3889 -0.0258
  599MOL0     C78957   5.916   8.482   3.282  0.1582 -0.5668 -0.2802
  599MOL0     C78958   6.000   8.533   3.401 -0.1159  0.5241  0.2213
  599MOL0     C78959   6.012   8.442   3.520  0.4961 -0.2009 -0.1740
  599MOL0     O78960   6.081   8.498   3.627 -0.0331  0.1884  0.7549
  599MOL0     C78961   6.019   8.562   3.732 -0.0304 -0.5957 -0.3720
  599MOL0     C78962   6.097   8.595   3.843 -0.0620  1.3742 -0.3616
  599MOL0     C78963   6.039   8.672   3.942  0.6793  0.0084  0.1969
  599MOL0     C78964   5.906   8.719   3.935  0.0023  0.1665  0.8681
  599MOL0     C78965   5.836   8.777   4.055 -0.3789 -0.1690 -0.0166
  599MOL0     O78966   5.709   8.802   4.044  0.5106  0.2353  0.4727
  599MOL0     C78967   5.644   8.870   4.150 -0.7726 -0.1477  0.0040
  599MOL0     C78968   5.634   8.812   4.271  0.1043 -0.5470 -0.0816
  599MOL0     C78969   5.563   8.869   4.377 -0.3993 -0.7632  0.0300
  599MOL0     C78970   5.497   8.994   4.364 -0.4396  0.4591 -0.4056
  599MOL0     O78971   5.426   9.040   4.468 -0.2705 -0.3707 -0.0456
  599MOL0     C78972   5.298   8.980   4.489 -0.0545 -0.0620 -0.8278
  599MOL0     C78973   5.192   9.046   4.401 -0.5769 -0.1600 -0.4318
  599MOL0     C78974   5.149   9.188   4.448 -0.2956 -0.5904 -0.2670
  599MOL0     C78975   5.078   9.183   4.595 -1.3622  0.9320 -0.1244
  599MOL0     C78976   5.015   9.309   4.636 -0.1111  0.6139 -0.3937
  599MOL0     C78977   4.996   9.317   4.794 -0.0902  1.1712  0.4843
  599MOL0     C78978   4.885   9.416   4.840 -0.4128  0.6115 -0.3665
  599MOL0     C78979   4.923   9.471   4.983  0.6726 -0.5811 -0.0500
  599MOL0    Cl78980   4.863   9.337   5.088 -0.1215  0.0328 -0.0830
  599MOL0     C78981   5.508   9.060   4.240  0.8443 -0.2806  0.1282
  599MOL0     C78982   5.580   8.996   4.129  0.7189 -0.4612 -0.3248
  599MOL0     O78983   5.901   8.800   4.165  0.2697 -0.6398  0.6071
  599MOL0     C78984   5.823   8.678   3.824  0.8798 -0.4260 -0.1235
  599MOL0     C78985   5.886   8.596   3.733 -0.1712 -0.6290 -0.4304
  599MOL0     N78986   5.717   8.297   3.130  0.5707  0.9370  0.0817
  599MOL0     N78987   5.674   8.294   3.010 -0.6191 -0.7692  0.6636
  599MOL0     C78988   6.336   8.210   2.528 -1.4270 -0.2061  0.6491
  599MOL0     C78989   6.481   8.197   2.534  0.1031 -0.3960 -0.3927
  599MOL0     C78990   6.890   8.052   2.376 -0.1391 -0.2759 -0.8119
  599MOL0     C78991   6.966   7.961   2.440 -0.4690 -0.3563 -0.2724
  599MOL0     C78992   7.106   7.964   2.429  0.4388 -0.5098  0.5969
  599MOL0     C78993   7.168   8.052   2.343 -0.9725 -0.4142  0.9865
  599MOL0     O78994   7.303   8.040   2.326 -0.6253  0.1658 -1.4070
  599MOL0     C78995   7.385   8.129   2.247 -0.1969 -0.2823  0.2333
  599MOL0     C78996   7.396   8.262   2.319 -0.0741 -0.4780  0.3190
  599MOL0     C78997   7.534   8.338   2.304  0.4425 -0.4066  0.0356
  599MOL0     C78998   7.524   8.484   2.344  0.2996 -0.9461 -0.4570
  599MOL0     C78999   7.656   8.553   2.316 -0.2506 -1.0922  0.3110
  599MOL0     C79000   7.763   8.616   2.299  0.4947  0.5052  0.1664
  599MOL0     C79001   7.092   8.149   2.280  0.5901 -0.1786 -1.1652
  599MOL0     C79002   6.948   8.155   2.304 -0.0602 -0.9413  0.1109
  599MOL0     H79003   6.534   8.158   2.204  0.5353  2.1417 -0.0919
  599MOL0     H79004   6.283   8.174   2.202 -2.0121 -1.5965  0.9559
  599MOL0     H79005   6.079   8.101   2.579  0.4428 -1.7768  0.5412
  599MOL0     H79006   6.108   8.003   2.431  0.5515  0.9437 -1.8112
  599MOL0     H79007   5.879   7.985   2.454 -1.4462  1.6139  0.8330
  599MOL0     H79008   5.940   8.078   2.312 -0.8874 -0.9399 -0.0903
  599MOL0     H79009   5.732   8.179   2.416 -1.5338 -0.4314  2.2223
  599MOL0     H79010   5.873   8.281   2.464  0.1573  0.0669  0.4431
  599MOL0     H79011   5.733   8.061   2.617 -1.0856  0.8840 -1.6246
  599MOL0     H79012   5.877   8.152   2.681 -0.7835  0.5861  2.5356
  599MOL0     H79013   5.655   8.211   2.775  2.8951 -0.9809 -0.1000
  599MOL0     H79014   5.595   8.268   2.613  0.6753  0.8772 -0.9495
  599MOL0     H79015   5.796   8.430   2.620  1.8664 -0.7862  1.6746
  599MOL0     H79016   5.829   8.391   2.779  1.6909  3.4394 -0.3422
  599MOL0     H79017   5.713   8.578   2.792  1.7138 -2.0402 -0.4772
  599MOL0     H79018   5.595   8.537   2.666 -0.5934  1.6558  0.0029
  599MOL0     H79019   5.495   8.370   2.805  3.3428 -1.2573 -2.4018
  599MOL0     H79020   5.488   8.534   2.882  0.0015 -1.2954  1.0690
  599MOL0     H79021   5.599   8.599   3.098  0.4688 -0.3270  0.8863
  599MOL0     H79022   5.746   8.397   3.384 -0.5944 -0.9169 -0.7213
  599MOL0     H79023   5.715   8.561   3.335 -0.1875  0.9222 -4.3567
  599MOL0     H79024   5.934   8.557   3.204  1.8116  0.4542  1.0176
  599MOL0     H79025   5.955   8.383   3.256  0.5242 -0.5295  0.1117
  599MOL0     H79026   6.100   8.553   3.361  0.5398  1.1304  2.0769
  599MOL0     H79027   5.951   8.625   3.435 -2.2476 -0.0699 -1.0435
  599MOL0     H79028   6.062   8.346   3.502 -1.0809 -1.1316  0.2227
  599MOL0     H79029   5.909   8.419   3.548  0.3895  0.0786 -0.3297
  599MOL0     H79030   6.199   8.562   3.854 -0.6751 -0.1694  1.2290
  599MOL0     H79031   6.103   8.677   4.029  0.8491 -0.5302  0.1028
  599MOL0     H79032   5.694   8.723   4.289 -0.1269 -0.3220  2.0344
  599MOL0     H79033   5.563   8.818   4.473  2.2562  0.4984  0.7881
  599MOL0     H79034   5.270   8.992   4.595  0.5441  0.9602 -0.7727
  599MOL0     H79035   5.306   8.872   4.479 -1.1007 -0.0024 -2.6162
  599MOL0     H79036   5.102   8.984   4.404 -2.4754  2.4421 -0.1178
  599MOL0     H79037   5.217   9.043   4.295 -2.6932 -2.8299 -0.9830
  599MOL0     H79038   5.077   9.228   4.376  0.2496 -0.6670 -0.8660
  599MOL0     H79039   5.235   9.256   4.451 -1.9768  1.7263 -1.2682
  599MOL0     H79040   5.010   9.099   4.609  1.1803 -1.0584  1.1197
  599MOL0     H79041   5.162   9.169   4.664 -0.5229  0.2297 -1.2460
  599MOL0     H79042   4.919   9.318   4.584 -0.2798 -1.4651 -0.5202
  599MOL0     H79043   5.076   9.400   4.625  1.4765  0.1498  3.1884
  599MOL0     H79044   5.094   9.357   4.822 -1.3866  3.6760  1.7640
  599MOL0     H79045   4.971   9.223   4.844 -1.2141  0.5043 -1.2256
  599MOL0     H79046   4.886   9.498   4.767 -0.1923  0.2410 -0.7860
  599MOL0     H79047   4.791   9.362   4.825 -0.5093  0.9658 -1.0818
  599MOL0     H79048   4.869   9.563   5.005  1.3747 -0.0246 -0.6087
  599MOL0     H79049   5.030   9.492   4.983  0.5618  0.0367 -0.7094
  599MOL0     H79050   5.452   9.152   4.235 -2.0126 -1.8953  0.3753
  599MOL0     H79051   5.577   9.046   4.033  1.1529  0.3660  0.0784
  599MOL0     H79052   5.720   8.713   3.813  0.3916 -2.1724 -1.5141
  599MOL0     H79053   5.825   8.571   3.646 -1.1415  1.5028 -0.4416
  599MOL0     H79054   6.284   8.238   2.619  0.4161  5.0115  0.4037
  599MOL0     H79055   6.528   8.212   2.631 -0.3110  0.7980 -0.3600
  599MOL0     H79056   6.913   7.893   2.507 -0.8079  0.8260  0.6987
  599MOL0     H79057   7.167   7.890   2.481 -0.7161 -1.7666  0.2250
  599MOL0     H79058   7.354   8.153   2.145  0.4069  3.6273  0.7836
  599MOL0     H79059   7.487   8.090   2.241  0.6173  1.7874 -0.3009
  599MOL0     H79060   7.322   8.340   2.296  2.2251  1.6030 -0.4547
  599MOL0     H79061   7.375   8.238   2.424 -0.7113  1.4015  0.6527
  599MOL0     H79062   7.556   8.331   2.197  2.1446 -1.0726  0.3911
  599MOL0     H79063   7.616   8.289   2.358  0.2893 -1.4617 -0.6623
  599MOL0     H79064   7.449   8.540   2.287  0.3707  1.5957  1.7510
  599MOL0     H79065   7.494   8.489   2.449 -0.4087  0.0365 -0.6887
  599MOL0     H79066   7.852   8.675   2.286  1.5360 -0.2902  2.9262
  599MOL0     H79067   7.136   8.231   2.225  0.9837 -0.9995 -2.0988
  599MOL0     H79068   6.893   8.240   2.264  2.1334  0.9899  1.0338
  600MOL0     O79069   9.270  10.927   8.806  0.2428 -0.1043  0.9047
  600MOL0     C79070   9.236  10.874   8.907  0.3339  0.2304 -0.3893
  600MOL0     O79071   9.179  10.748   8.930  0.3932  0.4998  0.1563
  600MOL0     C79072   9.120  10.673   8.828  0.7487 -0.2567 -0.9607
  600MOL0     C79073   9.046  10.562   8.875 -0.4984 -0.0790  0.0170
  600MOL0     C79074   8.957  10.500   8.788  0.1528 -0.2483  0.7686
  600MOL0     C79075   8.948  10.531   8.658  0.3576 -0.2058  0.4271
  600MOL0     O79076   8.863  10.444   8.585 -0.2403  0.4396  0.7118
  600MOL0     C79077   8.813  10.496   8.451  0.4542  0.4057  0.1605
  600MOL0     C79078   8.680  10.428   8.438 -0.3807  0.4058 -0.3352
  600MOL0     C79079   8.573  10.506   8.508 -0.0002  0.1224 -0.0205
  600MOL0     C79080   8.447  10.423   8.531 -0.1323 -0.2829 -0.2185
  600MOL0     C79081   8.379  10.378   8.403  0.3202  0.5453  0.5369
  600MOL0     C79082   8.227  10.336   8.406 -0.3949 -0.1631 -0.3724
  600MOL0     C79083   8.205  10.200   8.473  0.5773 -0.8636  1.0874
  600MOL0     C79084   8.060  10.151   8.477  0.2036 -0.5533  0.3992
  600MOL0     N79085   8.053  10.001   8.513 -0.6938 -0.4837 -0.0436
  600MOL0     C79086   8.076   9.897   8.426  0.0209  0.5592 -1.0860
  600MOL0     C79087   8.071   9.782   8.507  0.4055 -0.1342  0.3177
  600MOL0     C79088   8.079   9.647   8.436 -0.1803  0.2817 -0.8696
  600MOL0     C79089   8.210   9.583   8.495 -0.3146 -0.0077 -0.1494
  600MOL0     C79090   8.256   9.453   8.410 -0.1349  0.4006 -0.5140
  600MOL0     C79091   8.345   9.350   8.488 -0.0168 -0.5128 -0.2118
  600MOL0     O79092   8.464   9.415   8.545 -0.7841  0.5919  0.7039
  600MOL0     C79093   8.571   9.431   8.474 -0.0747 -0.1605  0.3618
  600MOL0     C79094   8.568   9.389   8.334 -1.6561 -1.1546 -0.3348
  600MOL0     C79095   8.697   9.395   8.266 -0.5250 -0.5375 -0.1533
  600MOL0     C79096   8.813   9.443   8.329  0.8253 -1.2820 -0.8531
  600MOL0     C79097   8.943   9.435   8.262 -0.3270  0.7798  0.2996
  600MOL0     O79098   8.949   9.343   8.169 -0.3914 -0.3188 -0.1403
  600MOL0     C79099   9.075   9.320   8.109 -0.4300 -0.7328  0.9501
  600MOL0     C79100   9.132   9.192   8.099 -0.6225  0.3138 -0.0218
  600MOL0     C79101   9.252   9.182   8.035 -0.9157  1.2033 -0.3696
  600MOL0     C79102   9.312   9.289   7.973  0.5858  0.0827 -0.2363
  600MOL0     O79103   9.437   9.290   7.906  0.3185  0.1612  0.3566
  600MOL0     C79104   9.521   9.173   7.898  0.5268  0.6667 -0.0951
  600MOL0     C79105   9.624   9.177   8.008 -1.0689 -0.4322  0.5046
  600MOL0     C79106   9.753   9.087   8.011  0.8898 -0.3851  0.8112
  600MOL0     C79107   9.848   9.130   7.901 -0.0021  0.2260 -0.7544
  600MOL0     C79108   9.970   9.043   7.903 -0.1287  0.3049  0.8194
  600MOL0     C79109  10.069   9.098   7.800  0.0323  0.4348  0.4756
  600MOL0     C79110  10.202   9.019   7.827 -0.3871  0.1943  0.7681
  600MOL0     C79111  10.269   8.967   7.706  0.4958 -0.7728  0.4564
  600MOL0    Cl79112  10.420   8.877   7.744  0.3412  0.1282 -0.0099
  600MOL0     C79113   9.255   9.412   7.978  0.1882  0.6138  0.1648
  600MOL0     C79114   9.142   9.431   8.056  0.0665  0.8435 -0.3245
  600MOL0     O79115   9.033   9.499   8.304 -0.2750 -0.7824 -0.1313
  600MOL0     C79116   8.799   9.497   8.456 -0.1377 -0.6721 -0.6258
  600MOL0     C79117   8.677   9.497   8.530 -0.3206  1.2219 -1.1201
  600MOL0     N79118   8.043   9.822   8.639  0.1452 -0.0682  0.4051
  600MOL0     N79119   8.035   9.956   8.639  0.4551  0.4234  1.0698
  600MOL0     C79120   9.024  10.640   8.602 -0.4815 -0.3469  0.1029
  600MOL0     C79121   9.100  10.719   8.692  0.7723  0.1265 -0.3868
  600MOL0     C79122   9.282  10.957   9.019  0.5146  0.2555 -0.4241
  600MOL0     C79123   9.346  10.905   9.129  0.0743 -0.3306 -0.3027
  600MOL0     C79124   9.394  10.992   9.231  0.2462 -0.3699  0.7308
  600MOL0     C79125   9.364  11.131   9.221 -0.8324  1.2216 -0.0235
  600MOL0     O79126   9.395  11.218   9.324  1.1715 -1.0144 -0.3538
  600MOL0     C79127   9.471  11.168   9.431  0.1127 -0.0155 -0.1848
  600MOL0     C79128   9.482  11.291   9.529  0.4456 -0.5866  0.2766
  600MOL0     C79129   9.603  11.370   9.518 -0.3563  0.5002  0.3563
  600MOL0     C79130   9.594  11.505   9.595  0.3876  1.2786  0.8418
  600MOL0     C79131   9.483  11.589   9.549 -0.4278 -0.1427 -0.1412
  600MOL0     C79132   9.396  11.652   9.501  0.0133 -0.4890 -0.2047
  600MOL0     C79133   9.288  11.177   9.113 -0.1455  0.1323 -0.7182
  600MOL0     C79134   9.240  11.088   9.015  0.6435 -0.2230  0.5572
  600MOL0     H79135   9.062  10.519   8.974  0.9659 -4.7624 -1.9629
  600MOL0     H79136   8.898  10.412   8.811  0.6952 -0.5251  1.1470
  600MOL0     H79137   8.880  10.456   8.375  1.1317  1.5068  0.1575
  600MOL0     H79138   8.802  10.605   8.453  0.2196  0.4027 -0.7861
  600MOL0     H79139   8.678  10.322   8.462 -3.2574 -0.2836 -2.9721
  600MOL0     H79140   8.653  10.435   8.332 -2.1317 -0.9605 -0.0204
  600MOL0     H79141   8.554  10.597   8.451  1.2464  0.3562 -0.0760
  600MOL0     H79142   8.608  10.530   8.608 -0.9601 -1.3954  0.7193
  600MOL0     H79143   8.473  10.342   8.600  0.1753  2.1320  2.7349
  600MOL0     H79144   8.382  10.485   8.594  0.4240 -1.2158  1.3353
  600MOL0     H79145   8.438  10.301   8.353 -2.5247 -0.6736 -1.1636
  600MOL0     H79146   8.375  10.461   8.333 -0.2106  0.1334  0.0707
  600MOL0     H79147   8.196  10.334   8.301 -1.5886  2.1669 -0.1298
  600MOL0     H79148   8.165  10.412   8.454 -2.8392 -1.9357 -0.5307
  600MOL0     H79149   8.270  10.134   8.415  3.1386  2.6997 -0.4816
  600MOL0     H79150   8.238  10.198   8.578  1.3174  1.8812  0.9694
  600MOL0     H79151   8.017  10.164   8.378  1.3632 -0.4777 -0.1106
  600MOL0     H79152   8.004  10.204   8.555  0.4046  2.0547 -1.1327
  600MOL0     H79153   8.098   9.908   8.320  1.2250  0.8506 -0.8214
  600MOL0     H79154   8.084   9.660   8.327  2.9583 -0.0225 -0.8527
  600MOL0     H79155   7.986   9.595   8.458 -1.0398  2.3074  0.5340
  600MOL0     H79156   8.186   9.548   8.596 -2.2650  2.3358  0.3133
  600MOL0     H79157   8.288   9.659   8.498 -0.4029  0.0376  1.3725
  600MOL0     H79158   8.165   9.405   8.372  0.0108  0.3086 -0.7480
  600MOL0     H79159   8.313   9.483   8.321  2.9386 -3.0700  0.0471
  600MOL0     H79160   8.358   9.263   8.422  1.1847 -1.1316  0.7935
  600MOL0     H79161   8.283   9.330   8.576  2.0624 -1.2963  1.1565
  600MOL0     H79162   8.480   9.343   8.291 -2.1403 -0.7863  0.2340
  600MOL0     H79163   8.714   9.354   8.167  3.4573 -1.5537  0.7863
  600MOL0     H79164   9.081   9.107   8.144 -1.4555  0.7735 -0.0981
  600MOL0     H79165   9.302   9.086   8.031 -0.2511  1.5272 -0.1235
  600MOL0     H79166   9.574   9.175   7.803  2.6665 -1.2742  0.9605
  600MOL0     H79167   9.465   9.079   7.901 -4.5064  3.3378  1.9439
  600MOL0     H79168   9.571   9.148   8.099  0.0304 -0.3372  1.1956
  600MOL0     H79169   9.660   9.280   8.013 -1.9743 -0.0607 -0.2559
  600MOL0     H79170   9.718   8.990   7.976  0.4044  0.1320 -0.1907
  600MOL0     H79171   9.804   9.087   8.108  4.5591 -0.8504 -0.9329
  600MOL0     H79172   9.802   9.107   7.805  0.9215  0.5430 -1.2912
  600MOL0     H79173   9.880   9.234   7.907 -2.6800  1.1837 -1.8561
  600MOL0     H79174   9.931   8.944   7.876 -0.9167  0.8758 -0.1901
  600MOL0     H79175  10.023   9.042   7.999  2.4893  3.1506 -0.4484
  600MOL0     H79176  10.090   9.203   7.822 -0.5455  0.9838 -1.3890
  600MOL0     H79177  10.045   9.083   7.694  1.2678  2.6836 -0.1858
  600MOL0     H79178  10.269   9.073   7.895 -1.1336 -1.3420  2.8370
  600MOL0     H79179  10.179   8.926   7.881  2.1020 -1.6121 -0.9913
  600MOL0     H79180  10.303   9.049   7.642  1.5118 -0.1178  1.7945
  600MOL0     H79181  10.209   8.894   7.650  0.6175 -0.4577 -0.0965
  600MOL0     H79182   9.290   9.498   7.921 -0.1247  1.1525  0.7708
  600MOL0     H79183   9.099   9.529   8.069 -2.2966 -0.4367  2.9331
  600MOL0     H79184   8.876   9.560   8.499 -0.5205 -0.9440  0.4861
  600MOL0     H79185   8.686   9.543   8.627  1.0067  0.5139 -0.8713
  600MOL0     H79186   9.020  10.678   8.501  2.2907 -3.1927 -1.2576
  600MOL0     H79187   9.138  10.812   8.649  2.9531 -0.0087  1.1266
  600MOL0     H79188   9.363  10.797   9.129  1.5782 -0.1177  0.3688
  600MOL0     H79189   9.460  10.940   9.300  4.3485 -1.7771 -3.6705
  600MOL0     H79190   9.567  11.130   9.398  0.1146  0.8321 -1.2172
  600MOL0     H79191   9.413  11.090   9.481 -0.4119  0.4115 -0.1188
  600MOL0     H79192   9.393  11.353   9.513 -1.1683 -2.1886  2.4452
  600MOL0     H79193   9.465  11.252   9.629 -0.5258  0.7960  0.6767
  600MOL0     H79194   9.622  11.390   9.412  1.9536 -1.0032  0.4188
  600MOL0     H79195   9.694  11.312   9.537  0.9838  1.7502 -1.8600
  600MOL0     H79196   9.595  11.487   9.703  2.9027 -0.3871  0.6022
  600MOL0     H79197   9.691  11.550   9.574  1.6715 -2.0654 -1.0922
  600MOL0     H79198   9.306  11.703   9.475 -0.7439 -1.6685  0.0584
  600MOL0     H79199   9.264  11.282   9.104 -0.0317  0.0494 -2.1787
  600MOL0     H79200   9.184  11.124   8.930 -0.0872  0.3138  1.2437
  601MOL0     O79201   3.515  10.850  11.145 -0.3182  0.0741 -0.0092
  601MOL0     C79202   3.618  10.917  11.160  0.1130  0.8445 -0.4382
  601MOL0     O79203   3.664  11.005  11.064  0.1332 -0.1878 -0.6588
  601MOL0     C79204   3.583  11.092  10.993 -1.1608  0.0132 -0.7879
  601MOL0     C79205   3.443  11.089  10.992 -0.4100  0.5861 -0.6336
  601MOL0     C79206   3.362  11.191  10.935 -0.3749 -0.3195 -0.3696
  601MOL0     C79207   3.430  11.290  10.861  0.1805  0.4546  0.0744
  601MOL0     O79208   3.357  11.396  10.808 -0.1245  0.8255  0.4784
  601MOL0     C79209   3.275  11.458  10.910 -0.1129 -0.3441  0.2438
  601MOL0     C79210   3.222  11.599  10.862 -0.6558 -0.2948 -0.1963
  601MOL0     C79211   3.073  11.633  10.896 -0.0107 -0.4293 -0.0328
  601MOL0     C79212   3.041  11.717  11.020  0.1883 -0.2424  1.2229
  601MOL0     C79213   2.906  11.702  11.085 -0.5668  0.0887 -0.3519
  601MOL0     C79214   2.790  11.749  11.005 -0.6632  0.2080 -0.8225
  601MOL0     C79215   2.669  11.762  11.101 -0.4967  0.1648 -0.4077
  601MOL0     C79216   2.540  11.777  11.029  0.5140  0.7222  0.0818
  601MOL0     N79217   2.463  11.904  11.060  0.2181  0.3634 -0.1487
  601MOL0     C79218   2.442  11.999  10.969  0.2302 -0.3316  0.9277
  601MOL0     C79219   2.351  12.087  11.020 -0.9562  0.3605 -0.2246
  601MOL0     C79220   2.289  12.202  10.953 -0.3854 -0.3584  0.4557
  601MOL0     C79221   2.346  12.330  11.003 -0.1109 -0.2377  0.5455
  601MOL0     C79222   2.354  12.369  11.153 -0.0712  0.5132 -1.2114
  601MOL0     C79223   2.418  12.501  11.185 -0.0079 -0.0248 -0.5094
  601MOL0     O79224   2.314  12.599  11.180 -0.1281 -0.4795  0.2864
  601MOL0     C79225   2.359  12.725  11.149 -0.6739 -0.8814 -0.1803
  601MOL0     C79226   2.325  12.833  11.233 -0.4011  0.0122  0.5935
  601MOL0     C79227   2.351  12.968  11.193 -0.1114  0.1966  0.2063
  601MOL0     C79228   2.431  12.990  11.081  1.4791  0.9804  0.3233
  601MOL0     C79229   2.461  13.128  11.038  0.0090 -1.4345  0.8638
  601MOL0     O79230   2.445  13.159  10.911  0.8752  0.4930  0.8990
  601MOL0     C79231   2.432  13.291  10.866  0.7863 -0.2627 -0.1953
  601MOL0     C79232   2.315  13.362  10.891 -0.3081  0.4063 -0.8729
  601MOL0     C79233   2.297  13.495  10.851 -0.5332 -0.1724  0.6149
  601MOL0     C79234   2.394  13.562  10.771  0.4539  0.8635  0.6707
  601MOL0     O79235   2.370  13.691  10.732  0.0777  0.2966 -0.2820
  601MOL0     C79236   2.423  13.735  10.609  0.6449 -0.4561  0.3071
  601MOL0     C79237   2.341  13.861  10.572  0.6007 -0.1059 -0.3607
  601MOL0     C79238   2.202  13.815  10.533 -0.4356 -0.0755 -0.4926
  601MOL0     C79239   2.133  13.937  10.465 -0.3011 -0.3666  0.8394
  601MOL0     C79240   2.021  13.892  10.365  0.5313 -0.1943 -0.7043
  601MOL0     C79241   1.940  14.009  10.300  0.1145  0.5268  0.6832
  601MOL0     C79242   1.797  13.961  10.260 -0.2129  0.4461  0.6860
  601MOL0     C79243   1.795  13.930  10.111 -0.0671 -0.3959 -0.2164
  601MOL0    Cl79244   1.888  13.798  10.051  0.0433  0.4412 -0.1802
  601MOL0     C79245   2.510  13.491  10.743  0.0320  0.1436 -0.5302
  601MOL0     C79246   2.529  13.364  10.789 -0.7120  1.1119 -0.1787
  601MOL0     O79247   2.519  13.201  11.114  0.5326  0.1956  0.1740
  601MOL0     C79248   2.477  12.880  11.006 -0.6150  0.4050  0.6361
  601MOL0     C79249   2.437  12.747  11.033 -0.6343  0.1444  0.0298
  601MOL0     N79250   2.323  12.041  11.152  0.1558  0.4013  1.1642
  601MOL0     N79251   2.389  11.929  11.168 -0.2531  0.2537  0.0868
  601MOL0     C79252   3.571  11.286  10.851  0.3732  0.9172  0.2891
  601MOL0     C79253   3.651  11.200  10.927  0.3875 -0.5598  0.2939
  601MOL0     C79254   3.707  10.892  11.279 -0.7389 -0.1077  0.5342
  601MOL0     C79255   3.669  10.793  11.376 -0.4235  0.2827  0.5175
  601MOL0     C79256   3.732  10.776  11.500 -0.4600 -0.9769  0.4865
  601MOL0     C79257   3.837  10.871  11.532 -0.5068  0.5769 -0.0668
  601MOL0     O79258   3.887  10.854  11.660 -0.1991  1.3849 -0.6939
  601MOL0     C79259   3.980  10.951  11.710 -0.1861 -0.6359  0.5329
  601MOL0     C79260   4.030  10.914  11.849 -0.0973 -0.3661 -0.2147
  601MOL0     C79261   4.129  11.016  11.922  0.3189  0.6715 -0.6654
  601MOL0     C79262   4.074  11.160  11.937 -0.0064 -0.4121 -0.2801
  601MOL0     C79263   3.954  11.176  12.017 -0.1591 -0.4073 -0.2711
  601MOL0     C79264   3.851  11.170  12.086 -0.8772 -0.6862  0.7321
  601MOL0     C79265   3.862  10.981  11.444  0.1834 -0.4372 -0.9665
  601MOL0     C79266   3.807  10.984  11.313 -0.1587  0.5598 -0.8694
  601MOL0     H79267   3.379  11.015  11.040  0.8447  0.5487  1.0723
  601MOL0     H79268   3.256  11.205  10.951 -0.9327 -2.6612 -1.5488
  601MOL0     H79269   3.345  11.480  10.991 -0.9762  0.6981  0.7242
  601MOL0     H79270   3.184  11.403  10.936 -0.6260 -0.7903 -2.2399
  601MOL0     H79271   3.236  11.596  10.754  4.0600  3.0612  0.0043
  601MOL0     H79272   3.289  11.678  10.896 -0.4320 -1.5061  2.4795
  601MOL0     H79273   3.013  11.542  10.900 -0.1491 -0.5753 -3.3289
  601MOL0     H79274   3.026  11.681  10.810 -3.8983 -2.6491  0.5803
  601MOL0     H79275   3.115  11.689  11.095  0.4424  1.7571  1.7699
  601MOL0     H79276   3.054  11.825  11.006 -0.2519 -0.4026 -0.7124
  601MOL0     H79277   2.897  11.743  11.186 -0.2250 -1.3612  0.2872
  601MOL0     H79278   2.898  11.594  11.096  2.5127  0.0724  4.7236
  601MOL0     H79279   2.761  11.672  10.933 -0.5146 -0.3667 -0.2802
  601MOL0     H79280   2.803  11.849  10.961  3.3369  0.6280  0.8988
  601MOL0     H79281   2.653  11.675  11.166 -1.9533  3.7208  4.6023
  601MOL0     H79282   2.696  11.836  11.176  5.5595 -0.5857 -1.3380
  601MOL0     H79283   2.483  11.688  11.057  1.3341  0.5161  1.1905
  601MOL0     H79284   2.542  11.761  10.921 -1.4805 -2.0276  0.3401
  601MOL0     H79285   2.496  12.020  10.878  0.4090 -0.1978  1.0636
  601MOL0     H79286   2.182  12.196  10.974 -0.4112 -0.0027  0.4232
  601MOL0     H79287   2.306  12.188  10.846  1.8857  1.3619  0.5249
  601MOL0     H79288   2.281  12.404  10.956 -2.1191 -1.7753  0.7488
  601MOL0     H79289   2.446  12.344  10.961  0.0372 -0.6230  0.7663
  601MOL0     H79290   2.256  12.349  11.195  1.4639 -4.8561  0.6090
  601MOL0     H79291   2.418  12.289  11.193  0.6565  0.0793 -3.1318
  601MOL0     H79292   2.509  12.513  11.126  1.1497 -0.8852  1.0158
  601MOL0     H79293   2.460  12.504  11.286  2.1373  3.4526 -1.3408
  601MOL0     H79294   2.263  12.814  11.320  1.5233  1.8643  2.4941
  601MOL0     H79295   2.298  13.049  11.241 -0.4898  0.2939 -0.3648
  601MOL0     H79296   2.235  13.314  10.945 -1.3911  0.4593 -2.3797
  601MOL0     H79297   2.208  13.542  10.892  0.8039  1.1046  2.1563
  601MOL0     H79298   2.415  13.666  10.524  0.6305 -0.7596  0.5579
  601MOL0     H79299   2.523  13.764  10.639 -0.3801  0.8539  2.7145
  601MOL0     H79300   2.389  13.899  10.482 -1.5921  0.8964 -1.1609
  601MOL0     H79301   2.350  13.937  10.651 -2.0617 -0.4677  0.3909
  601MOL0     H79302   2.146  13.775  10.618 -0.5343 -1.2822 -1.1076
  601MOL0     H79303   2.203  13.734  10.460 -2.3948  0.2447 -0.9174
  601MOL0     H79304   2.096  14.010  10.537  1.0483  1.6222 -0.3470
  601MOL0     H79305   2.202  13.990  10.397  0.8537 -0.3850  1.9597
  601MOL0     H79306   1.953  13.816  10.404  0.7473 -0.6259 -1.1643
  601MOL0     H79307   2.067  13.839  10.281 -3.1126 -1.4131 -2.1349
  601MOL0     H79308   2.002  14.037  10.213 -1.0742  2.2500  0.3398
  601MOL0     H79309   1.938  14.093  10.370 -1.3362  0.2874  0.9554
  601MOL0     H79310   1.772  13.870  10.314  1.0336 -0.3270 -0.0014
  601MOL0     H79311   1.731  14.048  10.271 -2.6336 -0.6224 -3.1835
  601MOL0     H79312   1.821  14.025  10.063 -0.0795 -0.0455  0.4568
  601MOL0     H79313   1.691  13.912  10.082 -0.2650 -0.6189  0.6020
  601MOL0     H79314   2.595  13.545  10.702 -1.6190  3.3696 -0.0638
  601MOL0     H79315   2.620  13.308  10.774 -3.5735 -5.0698  2.2311
  601MOL0     H79316   2.534  12.904  10.917 -1.8852 -0.9713 -0.6016
  601MOL0     H79317   2.460  12.659  10.974 -2.3748 -0.1403 -0.2724
  601MOL0     H79318   3.625  11.363  10.798 -1.2410  1.7916 -0.1436
  601MOL0     H79319   3.759  11.213  10.931  0.1100  2.9514 -0.1943
  601MOL0     H79320   3.585  10.732  11.343 -0.1709  0.2694 -0.1221
  601MOL0     H79321   3.718  10.701  11.578 -2.4457  1.2869  2.5118
  601MOL0     H79322   3.934  11.050  11.711  1.1903  0.1949 -2.9440
  601MOL0     H79323   4.068  10.955  11.645 -0.3659 -0.9637  0.2684
  601MOL0     H79324   3.942  10.896  11.913 -1.4905 -0.0454 -1.9647
  601MOL0     H79325   4.083  10.819  11.843  1.7821  0.6828 -0.8659
  601MOL0     H79326   4.229  11.021  11.879  0.7292 -0.1209  0.1517
  601MOL0     H79327   4.138  10.986  12.027  1.6054 -3.0379 -1.6741
  601MOL0     H79328   4.149  11.222  11.987  0.1729 -1.3390  0.6410
  601MOL0     H79329   4.060  11.212  11.842  1.9854  1.7941  0.5360
  601MOL0     H79330   3.768  11.180  12.153 -0.6268 -1.6950  1.2101
  601MOL0     H79331   3.933  11.059  11.467  0.5089 -1.0750  0.2629
  601MOL0     H79332   3.831  11.066  11.248 -0.5165  1.1932 -0.2177
  602MOL0     O79333   9.285   1.311   0.757 -0.0922  0.5485 -0.0166
  602MOL0     C79334   9.317   1.426   0.788  0.1033  0.6409 -0.8144
  602MOL0     O79335   9.232   1.533   0.820 -0.0184  0.4544  0.3281
  602MOL0     C79336   9.101   1.501   0.806  0.0097 -0.4513  0.5996
  602MOL0     C79337   9.033   1.565   0.700  0.7163  0.1399  0.4308
  602MOL0     C79338   8.902   1.527   0.689 -0.2406  0.3388 -0.3282
  602MOL0     C79339   8.833   1.440   0.779 -0.8459  0.3136 -0.4840
  602MOL0     O79340   8.705   1.421   0.761 -1.0064  0.2681  0.2519
  602MOL0     C79341   8.636   1.321   0.836  0.3750  0.2910 -0.5670
  602MOL0     C79342   8.483   1.343   0.802 -0.4884 -0.7586  0.4884
  602MOL0     C79343   8.393   1.242   0.877  0.1492  0.2517  0.8952
  602MOL0     C79344   8.282   1.175   0.787 -0.2941 -0.0586  0.3408
  602MOL0     C79345   8.173   1.103   0.857  0.6793 -0.8451 -0.0965
  602MOL0     C79346   8.090   1.016   0.763 -0.0330  1.0329 -0.0338
  602MOL0     C79347   7.977   0.956   0.851  0.2089  0.0748 -0.7801
  602MOL0     C79348   7.959   0.813   0.821 -0.3333  0.6199 -1.0740
  602MOL0     N79349   8.053   0.717   0.887 -0.5924 -0.5418 -0.6452
  602MOL0     C79350   8.185   0.693   0.851 -0.4744  0.2550 -0.6653
  602MOL0     C79351   8.206   0.573   0.906  0.4313 -0.7877  0.5571
  602MOL0     C79352   8.321   0.486   0.872  1.0096  0.3535 -0.0717
  602MOL0     C79353   8.436   0.504   0.966  0.1704  0.0909 -0.1000
  602MOL0     C79354   8.533   0.388   0.954  0.5091  0.9863 -0.6948
  602MOL0     C79355   8.610   0.390   0.822 -0.4993  0.1481  0.2363
  602MOL0     O79356   8.676   0.520   0.802 -0.3053  0.1091 -0.3524
  602MOL0     C79357   8.788   0.523   0.723  0.7565 -0.4807 -0.3341
  602MOL0     C79358   8.838   0.426   0.639 -0.2094  0.0498  0.8487
  602MOL0     C79359   8.961   0.452   0.570  0.0623 -0.1173 -0.3156
  602MOL0     C79360   9.019   0.578   0.572  0.1072 -0.6019  0.1742
  602MOL0     C79361   9.139   0.605   0.497 -0.2577 -0.2165 -0.6351
  602MOL0     O79362   9.230   0.672   0.569  0.5586 -0.0456 -0.2921
  602MOL0     C79363   9.360   0.691   0.522 -0.6057 -0.0420  0.5219
  602MOL0     C79364   9.457   0.711   0.621 -0.8245 -0.6121  0.4879
  602MOL0     C79365   9.593   0.723   0.588 -1.4391  0.0365  0.6074
  602MOL0     C79366   9.630   0.714   0.449 -0.2855  0.3067 -0.2980
  602MOL0     O79367   9.754   0.708   0.399  0.2453  0.6803 -0.0800
  602MOL0     C79368   9.872   0.722   0.481  0.2946 -0.0420  0.0154
  602MOL0     C79369   9.977   0.795   0.400  0.7476 -0.3167  0.2230
  602MOL0     C79370  10.097   0.813   0.489  0.0015 -0.1274 -0.6307
  602MOL0     C79371  10.190   0.913   0.419  0.3756 -0.0103  0.2343
  602MOL0     C79372  10.313   0.944   0.500 -0.6844  0.6231 -0.1286
  602MOL0     C79373  10.385   1.066   0.440 -0.6937  0.5060  0.3278
  602MOL0     C79374  10.526   1.084   0.497 -0.0795  1.3469 -0.2610
  602MOL0     C79375  10.633   1.002   0.430 -0.0452 -0.3227  0.4008
  602MOL0    Cl79376  10.693   1.073   0.281 -0.0052  0.2165  0.0067
  602MOL0     C79377   9.535   0.696   0.353  0.1271 -0.2288  0.4974
  602MOL0     C79378   9.402   0.695   0.388 -0.2256  0.1255  0.4219
  602MOL0     O79379   9.160   0.547   0.392  0.3028  0.6355 -0.0486
  602MOL0     C79380   8.961   0.671   0.654  0.0875  0.2984 -0.0034
  602MOL0     C79381   8.852   0.643   0.730 -0.0686  0.3848 -0.1608
  602MOL0     N79382   8.098   0.544   0.988  0.5453 -0.0325  0.2918
  602MOL0     N79383   7.997   0.629   0.973 -0.3097 -0.6200  0.6189
  602MOL0     C79384   8.906   1.381   0.879 -0.4391 -0.1669  0.5006
  602MOL0     C79385   9.041   1.409   0.891 -0.7152  0.3107 -0.6128
  602MOL0     C79386   9.455   1.462   0.783 -1.3339 -0.7618 -0.4532
  602MOL0     C79387   9.501   1.585   0.836  0.4397 -0.9678  0.3663
  602MOL0     C79388   9.644   1.608   0.845  0.6196 -0.5588  0.8087
  602MOL0     C79389   9.738   1.524   0.783 -0.3285 -0.0545  0.2696
  602MOL0     O79390   9.875   1.557   0.789 -0.5511 -0.3711 -0.4315
  602MOL0     C79391   9.975   1.470   0.729  0.3191  1.1081 -0.3234
  602MOL0     C79392  10.107   1.531   0.743 -0.9569 -0.3241  0.2988
  602MOL0     C79393  10.223   1.465   0.661  0.5067 -1.0070 -0.9233
  602MOL0     C79394  10.235   1.510   0.515 -0.0717  0.1948  0.0315
  602MOL0     C79395  10.361   1.468   0.440  0.8295  0.2301 -0.0479
  602MOL0     C79396  10.461   1.439   0.386 -0.1263  0.5241  0.0325
  602MOL0     C79397   9.689   1.406   0.723 -1.0036 -0.3519 -0.4567
  602MOL0     C79398   9.556   1.384   0.718 -0.9442 -0.2257 -0.7673
  602MOL0     H79399   9.072   1.650   0.646 -1.2267  1.7466  1.4076
  602MOL0     H79400   8.842   1.587   0.622 -1.1094 -0.0693  0.0689
  602MOL0     H79401   8.649   1.337   0.943  2.5342  2.2693 -1.0388
  602MOL0     H79402   8.678   1.222   0.814  0.0033  0.5332 -2.5580
  602MOL0     H79403   8.468   1.313   0.698 -1.1712  0.2689  0.2789
  602MOL0     H79404   8.458   1.449   0.816  0.9253 -0.4659  1.0543
  602MOL0     H79405   8.341   1.289   0.961 -1.0373 -1.4959  1.1940
  602MOL0     H79406   8.451   1.160   0.920 -2.0436 -1.1511  1.3246
  602MOL0     H79407   8.236   1.250   0.721 -0.1233 -0.5079 -0.3035
  602MOL0     H79408   8.333   1.112   0.713 -1.0758  0.2716 -0.5017
  602MOL0     H79409   8.118   1.175   0.918  1.5996  0.3620 -0.6496
  602MOL0     H79410   8.210   1.036   0.935  1.0144 -0.5221  0.0252
  602MOL0     H79411   8.154   0.944   0.711 -2.5863  0.5855 -2.8197
  602MOL0     H79412   8.056   1.070   0.674  1.1693  0.2028 -1.0383
  602MOL0     H79413   7.994   0.966   0.958 -1.4889 -0.3189 -0.4440
  602MOL0     H79414   7.886   1.015   0.840  0.8877  0.9809 -1.6655
  602MOL0     H79415   7.976   0.785   0.716  0.0051 -5.0196  0.1443
  602MOL0     H79416   7.858   0.790   0.854 -0.3567  3.0403  0.8057
  602MOL0     H79417   8.251   0.743   0.781  0.3791 -2.8270 -2.2435
  602MOL0     H79418   8.344   0.502   0.766 -0.6585 -0.1625 -0.5366
  602MOL0     H79419   8.291   0.381   0.882  0.4832  0.3796 -1.1736
  602MOL0     H79420   8.394   0.507   1.067 -2.0073  0.7641 -0.9739
  602MOL0     H79421   8.493   0.594   0.941  0.3666 -0.2276 -0.8325
  602MOL0     H79422   8.615   0.408   1.023  0.1040  1.5238 -0.3673
  602MOL0     H79423   8.480   0.293   0.968  0.2896  1.2961  0.7172
  602MOL0     H79424   8.553   0.371   0.730 -0.6416 -1.4439  0.6205
  602MOL0     H79425   8.682   0.308   0.816 -0.0226  0.4063  2.0955
  602MOL0     H79426   8.790   0.329   0.635 -0.7648  0.3413 -0.0716
  602MOL0     H79427   9.014   0.379   0.510  0.0546  0.7760 -1.4497
  602MOL0     H79428   9.434   0.702   0.726  3.8188  0.8579  1.8761
  602MOL0     H79429   9.655   0.736   0.676 -2.9595 -0.1934  1.7536
  602MOL0     H79430   9.906   0.625   0.518 -0.8678 -0.2655  0.5355
  602MOL0     H79431   9.864   0.787   0.569  0.3436 -2.7007  2.1244
  602MOL0     H79432   9.935   0.889   0.365 -0.3565 -0.6245  0.6858
  602MOL0     H79433  10.006   0.741   0.309  0.1938 -0.4512  0.1229
  602MOL0     H79434  10.166   0.727   0.492 -1.8006 -1.8467 -3.4768
  602MOL0     H79435  10.076   0.836   0.593  1.1390  0.7849 -0.5791
  602MOL0     H79436  10.212   0.879   0.317 -4.6292 -0.2287 -1.0254
  602MOL0     H79437  10.126   0.999   0.402  0.3323  0.1936  1.4064
  602MOL0     H79438  10.378   0.856   0.501 -2.1466 -0.6136 -2.7247
  602MOL0     H79439  10.301   0.970   0.605  4.1046 -3.7269  1.9849
  602MOL0     H79440  10.332   1.155   0.475  0.1260  1.0129  0.3073
  602MOL0     H79441  10.384   1.071   0.331  2.3897 -0.2863  0.1546
  602MOL0     H79442  10.539   1.193   0.499 -0.9180  1.4568 -0.1780
  602MOL0     H79443  10.518   1.044   0.598 -1.6291  1.1295 -0.4451
  602MOL0     H79444  10.608   0.896   0.422  1.4769 -0.7732  1.1925
  602MOL0     H79445  10.724   1.016   0.490  1.2371  2.3706 -1.9740
  602MOL0     H79446   9.554   0.682   0.247 -1.5506 -1.0646  0.2680
  602MOL0     H79447   9.329   0.690   0.308 -0.2371 -0.4094  0.4622
  602MOL0     H79448   9.008   0.769   0.661  0.9118  0.0188 -1.2863
  602MOL0     H79449   8.828   0.725   0.797  2.4707  0.0036  1.3590
  602MOL0     H79450   8.881   1.296   0.942  4.8693 -2.0029  0.6294
  602MOL0     H79451   9.099   1.365   0.971 -0.1259 -0.2981 -1.3610
  602MOL0     H79452   9.440   1.666   0.875  2.0126  0.4197  0.0728
  602MOL0     H79453   9.680   1.693   0.902 -2.5821 -0.1582  2.4734
  602MOL0     H79454   9.955   1.452   0.623  0.6132  2.4930 -0.6404
  602MOL0     H79455   9.981   1.379   0.788 -0.9828  0.6845 -0.8217
  602MOL0     H79456  10.100   1.634   0.707  0.7099 -0.3660 -0.2702
  602MOL0     H79457  10.141   1.528   0.847  0.3969 -1.6118 -0.1382
  602MOL0     H79458  10.204   1.357   0.660 -0.5778 -0.8549 -3.7487
  602MOL0     H79459  10.318   1.486   0.711  0.5144 -0.0342 -1.3204
  602MOL0     H79460  10.143   1.490   0.460  0.1472 -0.9571  0.0655
  602MOL0     H79461  10.260   1.617   0.520 -0.8525  0.3378  0.9858
  602MOL0     H79462  10.558   1.431   0.340  1.0146  1.8958  2.0150
  602MOL0     H79463   9.739   1.333   0.661 -3.1610 -1.3325 -1.1416
  602MOL0     H79464   9.508   1.293   0.680 -0.4666 -1.1088  0.6933
  603MOL0     O79465   9.877   6.600   4.875  0.2928 -0.1424 -0.3317
  603MOL0     C79466   9.923   6.588   4.985 -0.2523 -0.0279  0.2416
  603MOL0     O79467   9.870   6.504   5.082 -0.2938  0.5049  0.1793
  603MOL0     C79468   9.790   6.398   5.042 -0.4319  0.6341  0.4472
  603MOL0     C79469   9.845   6.269   5.050  0.2531  0.7571 -0.2298
  603MOL0     C79470   9.764   6.156   5.033  0.8826  0.9871  0.2391
  603MOL0     C79471   9.629   6.172   5.000  0.3982 -0.0487  0.2811
  603MOL0     O79472   9.550   6.055   4.982 -0.2526  0.1033  0.3810
  603MOL0     C79473   9.566   5.989   4.856 -0.0588  0.1798 -0.1003
  603MOL0     C79474   9.484   6.068   4.754  0.5192 -0.0420  0.4798
  603MOL0     C79475   9.498   6.011   4.614  0.2936 -0.3344 -0.4114
  603MOL0     C79476   9.374   6.048   4.535 -0.3256  0.2061  0.6042
  603MOL0     C79477   9.395   6.013   4.385  0.0425  0.1899 -0.0751
  603MOL0     C79478   9.320   6.110   4.300 -0.7472 -0.5069  0.1918
  603MOL0     C79479   9.242   6.057   4.186 -0.2187 -0.0205  0.4914
  603MOL0     C79480   9.216   6.161   4.075  0.1980  0.1011  0.2071
  603MOL0     N79481   9.131   6.274   4.107  0.3967 -0.8672  0.5156
  603MOL0     C79482   8.999   6.272   4.151  0.6734 -0.7761 -0.6418
  603MOL0     C79483   8.961   6.404   4.163 -0.6580 -0.7049  0.4371
  603MOL0     C79484   8.816   6.434   4.191 -0.3556 -0.2620  0.5932
  603MOL0     C79485   8.754   6.384   4.323  0.1582  0.3863 -0.5610
  603MOL0     C79486   8.609   6.413   4.322  0.0965 -0.0041  0.2515
  603MOL0     C79487   8.528   6.393   4.454  0.7687  0.7837  0.4429
  603MOL0     O79488   8.595   6.460   4.564  0.2288 -0.6027 -0.7337
  603MOL0     C79489   8.546   6.434   4.690 -0.5345 -0.5039 -0.1683
  603MOL0     C79490   8.460   6.331   4.727  0.1705  0.7485  0.0416
  603MOL0     C79491   8.428   6.317   4.866 -0.1838 -0.2604  0.3534
  603MOL0     C79492   8.487   6.391   4.962 -0.9413  0.1953 -0.3411
  603MOL0     C79493   8.468   6.363   5.108 -0.2864 -0.1629  0.0245
  603MOL0     O79494   8.395   6.257   5.143  0.6527  0.3403 -0.2292
  603MOL0     C79495   8.381   6.205   5.269 -0.5096  0.1449 -1.1262
  603MOL0     C79496   8.485   6.196   5.370  0.1118  0.5537  0.9547
  603MOL0     C79497   8.464   6.124   5.485  0.2040  0.3199  1.3066
  603MOL0     C79498   8.338   6.085   5.521 -1.1174  0.0590  0.4707
  603MOL0     O79499   8.327   6.020   5.639  0.3840 -0.1345 -0.4570
  603MOL0     C79500   8.277   6.109   5.742 -0.0897 -0.9996  0.1632
  603MOL0     C79501   8.239   6.030   5.865  1.3056 -0.8740 -0.6858
  603MOL0     C79502   8.203   6.103   5.991  0.2076 -0.4063  0.5725
  603MOL0     C79503   8.320   6.195   6.046 -0.2430  0.3480 -1.1180
  603MOL0     C79504   8.305   6.233   6.203  0.2046 -1.0183  0.6972
  603MOL0     C79505   8.400   6.345   6.242 -0.3471  0.6707 -0.7796
  603MOL0     C79506   8.355   6.473   6.190  0.7449 -0.1691  0.0841
  603MOL0     C79507   8.426   6.584   6.262 -0.3707 -0.0784 -1.1637
  603MOL0    Cl79508   8.325   6.632   6.412  0.8674  0.2945  0.4003
  603MOL0     C79509   8.229   6.112   5.438  0.0606 -0.1590  0.0681
  603MOL0     C79510   8.249   6.163   5.308  0.0824 -0.3360  0.7558
  603MOL0     O79511   8.529   6.444   5.183 -0.3383  0.1412  0.1770
  603MOL0     C79512   8.579   6.489   4.924 -0.3308  0.2318 -0.5489
  603MOL0     C79513   8.606   6.506   4.790  0.9408 -0.6651 -0.1532
  603MOL0     N79514   9.068   6.483   4.139 -0.0897  0.1594  0.0155
  603MOL0     N79515   9.170   6.404   4.102 -0.6957 -0.3909  0.1752
  603MOL0     C79516   9.570   6.298   5.010  0.4850 -0.4755  0.2639
  603MOL0     C79517   9.655   6.410   5.023  0.1842  1.0039 -0.0901
  603MOL0     C79518  10.029   6.676   5.020 -0.7691  0.8425 -0.2976
  603MOL0     C79519  10.109   6.633   5.131  0.2265 -0.1073 -1.0638
  603MOL0     C79520  10.208   6.716   5.163 -0.2557  0.0718  0.0684
  603MOL0     C79521  10.240   6.834   5.095  0.9545  0.1798 -0.2474
  603MOL0     O79522  10.341   6.922   5.138  0.2895 -0.0729 -0.6492
  603MOL0     C79523  10.467   6.915   5.074  0.5553 -0.2618 -0.3993
  603MOL0     C79524  10.576   6.910   5.188 -0.1681  0.0444 -0.0863
  603MOL0     C79525  10.596   7.048   5.251  0.2032  0.3256 -0.8891
  603MOL0     C79526  10.705   7.050   5.353 -0.1964 -0.3215  0.0070
  603MOL0     C79527  10.768   7.175   5.384  1.2557 -0.3233  0.6077
  603MOL0     C79528  10.827   7.280   5.402 -0.0869 -0.3059  0.1281
  603MOL0     C79529  10.165   6.868   4.984  0.3517  0.0182  0.0690
  603MOL0     C79530  10.059   6.788   4.941 -0.5172 -0.5410  0.5177
  603MOL0     H79531   9.943   6.236   5.084 -0.7344 -1.0015  1.1190
  603MOL0     H79532   9.801   6.056   5.054 -0.4257  0.2548 -0.7800
  603MOL0     H79533   9.509   5.897   4.871 -0.8793  0.6867 -0.0538
  603MOL0     H79534   9.672   5.967   4.839  0.2387  2.1125 -0.9690
  603MOL0     H79535   9.520   6.170   4.739  0.5495 -0.1188  0.0146
  603MOL0     H79536   9.379   6.067   4.786  0.2812  1.1945 -0.1663
  603MOL0     H79537   9.513   5.903   4.628 -0.8795 -0.3149  1.2799
  603MOL0     H79538   9.586   6.053   4.564 -0.6331 -1.5134 -3.2339
  603MOL0     H79539   9.296   5.984   4.577 -0.2366 -0.3594 -0.0637
  603MOL0     H79540   9.349   6.153   4.549  0.4122  0.3641  0.7995
  603MOL0     H79541   9.350   5.913   4.376 -0.1212  0.1953  0.6677
  603MOL0     H79542   9.500   6.025   4.356  0.0367  1.5651  0.4302
  603MOL0     H79543   9.397   6.173   4.253 -2.0885 -0.0496 -1.5108
  603MOL0     H79544   9.243   6.161   4.359 -0.3616  1.4515 -0.8981
  603MOL0     H79545   9.299   5.980   4.133 -0.9008 -0.9388  1.0746
  603MOL0     H79546   9.156   6.010   4.235  0.2755 -1.5692 -0.0745
  603MOL0     H79547   9.165   6.104   3.996 -3.4710  2.5094  0.5877
  603MOL0     H79548   9.316   6.183   4.038 -0.0164  0.3710 -0.2288
  603MOL0     H79549   8.925   6.198   4.180 -0.6307  2.4112  6.1058
  603MOL0     H79550   8.759   6.388   4.111 -0.1267  0.1291  0.1992
  603MOL0     H79551   8.788   6.540   4.187  0.5730  0.1003  2.5601
  603MOL0     H79552   8.807   6.439   4.402 -0.8270 -0.2120  0.5455
  603MOL0     H79553   8.771   6.278   4.345 -3.1524 -0.4525 -1.5143
  603MOL0     H79554   8.599   6.518   4.293 -1.1981  0.1974  1.3197
  603MOL0     H79555   8.568   6.346   4.246  0.0974  0.7941 -0.4609
  603MOL0     H79556   8.520   6.284   4.467 -2.5516  0.8009 -0.5444
  603MOL0     H79557   8.423   6.424   4.450 -0.4399 -2.9345 -0.9330
  603MOL0     H79558   8.413   6.267   4.653  4.2306  0.4573 -2.5619
  603MOL0     H79559   8.360   6.241   4.903  0.4458 -0.3977  1.2346
  603MOL0     H79560   8.583   6.241   5.354  1.0712 -1.5699  0.4495
  603MOL0     H79561   8.542   6.124   5.561  0.5037  0.2067  1.0022
  603MOL0     H79562   8.187   6.157   5.704  0.4088 -0.7968 -0.7763
  603MOL0     H79563   8.341   6.196   5.764 -3.8379  2.0941 -0.0261
  603MOL0     H79564   8.331   5.977   5.891  1.9088  1.2993  2.1193
  603MOL0     H79565   8.159   5.966   5.827  0.3206  0.6941 -1.3010
  603MOL0     H79566   8.192   6.030   6.071  0.4375 -0.2300  0.7655
  603MOL0     H79567   8.121   6.172   5.967  0.7092  0.4496  1.2858
  603MOL0     H79568   8.417   6.145   6.032 -0.9061 -1.0788 -0.8339
  603MOL0     H79569   8.310   6.283   5.982  0.5377  3.8883  3.1419
  603MOL0     H79570   8.324   6.150   6.272  2.6987  2.3968  4.5489
  603MOL0     H79571   8.201   6.260   6.222  0.8796  0.5591  2.4251
  603MOL0     H79572   8.499   6.331   6.198  0.2165  0.1214  0.6103
  603MOL0     H79573   8.399   6.354   6.351 -1.9670  1.9457 -0.8602
  603MOL0     H79574   8.378   6.475   6.083 -1.6923 -1.9999 -0.5827
  603MOL0     H79575   8.246   6.483   6.194  0.6570  1.0425 -2.8015
  603MOL0     H79576   8.437   6.677   6.205 -0.5736  2.2264  2.2814
  603MOL0     H79577   8.529   6.552   6.279 -1.4546 -2.4008  1.9507
  603MOL0     H79578   8.129   6.085   5.470 -0.1482 -2.0553 -1.9139
  603MOL0     H79579   8.164   6.175   5.241  2.3033  3.5404 -1.7973
  603MOL0     H79580   8.623   6.559   4.994 -0.2697 -1.1881  0.8927
  603MOL0     H79581   8.666   6.592   4.763 -0.7974  1.4650  2.2696
  603MOL0     H79582   9.462   6.299   4.997  0.3358 -3.4970  0.5876
  603MOL0     H79583   9.612   6.510   5.029 -1.7837  0.2196 -0.8236
  603MOL0     H79584  10.088   6.542   5.187  1.6903  0.1080 -0.0950
  603MOL0     H79585  10.273   6.685   5.244 -0.4745  1.8353  0.9708
  603MOL0     H79586  10.479   6.992   4.997  0.7425  0.4440  0.3189
  603MOL0     H79587  10.486   6.824   5.016 -1.9478 -0.2513 -1.3376
  603MOL0     H79588  10.550   6.832   5.260 -0.5769 -0.4809 -0.7916
  603MOL0     H79589  10.675   6.878   5.153  0.6762 -1.8694  3.5094
  603MOL0     H79590  10.509   7.096   5.297 -0.5629 -1.9308  0.1489
  603MOL0     H79591  10.622   7.116   5.169 -0.5387 -1.7986 -2.9724
  603MOL0     H79592  10.663   7.011   5.447 -0.7010  1.8146  0.7222
  603MOL0     H79593  10.791   6.994   5.316  1.7399  1.3046  1.8514
  603MOL0     H79594  10.894   7.362   5.413  1.9333 -1.6906 -1.1637
  603MOL0     H79595  10.199   6.960   4.938 -1.2464  2.8720  4.0525
  603MOL0     H79596   9.993   6.809   4.857 -0.0151 -1.2720 -0.0741
  604MOL0     O79597   6.358   0.631  10.918 -0.0791 -0.3641  0.2988
  604MOL0     C79598   6.406   0.730  10.972  0.0946  0.4630 -0.3548
  604MOL0     O79599   6.354   0.782  11.088 -0.6266 -0.7056 -0.4829
  604MOL0     C79600   6.234   0.723  11.133 -0.1857 -0.1265  0.8302
  604MOL0     C79601   6.223   0.600  11.190 -0.8714  0.1292  0.7300
  604MOL0     C79602   6.107   0.556  11.240 -0.1577 -0.5106  0.0367
  604MOL0     C79603   5.990   0.629  11.233  0.1512  1.4859  0.1799
  604MOL0     O79604   5.880   0.593  11.299  0.3566 -0.0852  0.2537
  604MOL0     C79605   5.834   0.456  11.278  0.3600  0.1502  0.0584
  604MOL0     C79606   5.689   0.444  11.332 -0.8843 -0.5551 -0.6510
  604MOL0     C79607   5.593   0.538  11.269 -0.6265  0.3694  0.0000
  604MOL0     C79608   5.452   0.493  11.291 -0.1653  0.2511 -0.4295
  604MOL0     C79609   5.372   0.621  11.259  0.4711 -0.2365 -0.8102
  604MOL0     C79610   5.220   0.604  11.292 -0.2354  0.6693  0.6008
  604MOL0     C79611   5.190   0.599  11.447 -0.5448 -0.5214  1.2903
  604MOL0     C79612   5.058   0.666  11.479 -0.5663 -0.9225 -0.3398
  604MOL0     N79613   4.938   0.601  11.439 -0.2961  0.1794 -1.1254
  604MOL0     C79614   4.874   0.598  11.321  0.2448  0.1633  0.0523
  604MOL0     C79615   4.771   0.507  11.321 -0.4014 -0.4499 -0.6829
  604MOL0     C79616   4.688   0.476  11.198  0.0086 -0.0143  0.3109
  604MOL0     C79617   4.534   0.495  11.217 -0.0313  0.1275 -0.0139
  604MOL0     C79618   4.490   0.648  11.222  0.5196 -0.0123 -0.3898
  604MOL0     C79619   4.337   0.653  11.214 -0.1202 -0.2952 -0.0253
  604MOL0     O79620   4.259   0.603  11.325 -0.1443  0.1430 -0.3452
  604MOL0     C79621   4.124   0.627  11.308 -0.0344 -0.9686 -0.5940
  604MOL0     C79622   4.058   0.700  11.210 -0.7836 -0.1128  0.6483
  604MOL0     C79623   3.915   0.722  11.204  0.2410 -0.9156 -0.6612
  604MOL0     C79624   3.829   0.670  11.297 -0.5680  0.5042  0.2879
  604MOL0     C79625   3.688   0.697  11.296 -0.2172 -0.1297  0.1284
  604MOL0     O79626   3.645   0.825  11.277 -0.3670  0.8508 -0.2107
  604MOL0     C79627   3.522   0.862  11.330 -0.1747 -0.6297 -0.7887
  604MOL0     C79628   3.456   0.961  11.266  0.2204  0.3211  0.3430
  604MOL0     C79629   3.330   1.001  11.303  0.3702 -0.2813 -0.4824
  604MOL0     C79630   3.262   0.934  11.414  0.2207 -0.3547 -0.6051
  604MOL0     O79631   3.142   0.979  11.470 -0.1241  0.0502  0.5497
  604MOL0     C79632   3.085   1.095  11.411 -0.2584 -0.9776  1.1727
  604MOL0     C79633   2.973   1.146  11.486  1.0882 -0.0303  0.3101
  604MOL0     C79634   2.882   1.246  11.404  0.6828 -0.2897  1.0651
  604MOL0     C79635   2.796   1.342  11.480  0.1666 -0.0971 -0.4184
  604MOL0     C79636   2.768   1.480  11.412 -0.5969 -0.1064  0.2038
  604MOL0     C79637   2.663   1.549  11.498 -0.2274  0.3050  0.3919
  604MOL0     C79638   2.605   1.682  11.442  0.4163 -0.5301 -0.6232
  604MOL0     C79639   2.466   1.711  11.509 -0.4969  0.6105 -0.2441
  604MOL0    Cl79640   2.384   1.857  11.449  0.0085 -0.0170 -0.1959
  604MOL0     C79641   3.336   0.832  11.487 -0.5774 -0.1562 -0.2268
  604MOL0     C79642   3.465   0.802  11.446  0.4934  1.3528  0.4463
  604MOL0     O79643   3.615   0.600  11.302 -0.1168 -0.1216 -1.1128
  604MOL0     C79644   3.893   0.595  11.399  0.4514 -0.3216 -0.3491
  604MOL0     C79645   4.034   0.584  11.410 -0.7419  0.2339 -0.3610
  604MOL0     N79646   4.773   0.463  11.450  0.3057  0.1392 -0.1819
  604MOL0     N79647   4.874   0.512  11.519  0.0608 -0.3607  0.7911
  604MOL0     C79648   5.997   0.755  11.180  0.1498 -0.1364 -0.1284
  604MOL0     C79649   6.119   0.800  11.134 -0.3622 -0.4105  0.5461
  604MOL0     C79650   6.521   0.799  10.912 -0.3807 -0.5458  0.1853
  604MOL0     C79651   6.592   0.905  10.985  0.5642 -0.7161  0.3706
  604MOL0     C79652   6.700   0.974  10.927 -1.0107  0.3405 -0.5266
  604MOL0     C79653   6.732   0.938  10.798  0.6297  0.1186 -0.5880
  604MOL0     O79654   6.845   0.982  10.730  0.0055  0.6594 -0.0226
  604MOL0     C79655   6.960   1.027  10.805 -0.8867  0.2924 -0.0339
  604MOL0     C79656   7.036   0.903  10.866  0.6652  0.2906 -1.0722
  604MOL0     C79657   7.143   0.960  10.963  0.9560 -0.3950  0.0466
  604MOL0     C79658   7.273   0.989  10.886 -0.1559  0.2390 -0.7877
  604MOL0     C79659   7.376   1.063  10.968  0.7109  0.0969 -0.0514
  604MOL0     C79660   7.452   1.132  11.031 -0.5765 -0.1699  0.7746
  604MOL0     C79661   6.670   0.832  10.733  0.3458  0.7037 -0.2113
  604MOL0     C79662   6.567   0.762  10.788  0.6142  0.0767  0.2912
  604MOL0     H79663   6.311   0.537  11.201 -2.3712 -3.1496 -3.3948
  604MOL0     H79664   6.115   0.462  11.294  0.1790  0.0378  0.9628
  604MOL0     H79665   5.900   0.384  11.327 -0.5976  0.4061  1.7969
  604MOL0     H79666   5.841   0.445  11.169 -0.1420 -2.0851  0.2164
  604MOL0     H79667   5.689   0.457  11.440  1.6937  0.5943 -0.7375
  604MOL0     H79668   5.662   0.341  11.306 -0.5803 -1.0537  0.9144
  604MOL0     H79669   5.615   0.561  11.165 -0.4497  2.4250  0.4512
  604MOL0     H79670   5.619   0.629  11.324 -0.4995  1.9176 -2.4855
  604MOL0     H79671   5.418   0.410  11.229 -0.0754  0.8016 -1.2298
  604MOL0     H79672   5.439   0.461  11.395  2.4352  1.1834  0.2683
  604MOL0     H79673   5.393   0.647  11.155 -0.7959 -0.6057 -1.1779
  604MOL0     H79674   5.408   0.709  11.314 -0.2084 -0.9154  0.7806
  604MOL0     H79675   5.185   0.511  11.246 -0.0500  0.8926 -0.0095
  604MOL0     H79676   5.163   0.693  11.262 -0.8619  0.7618  1.9940
  604MOL0     H79677   5.214   0.499  11.486  2.4563 -0.3546  0.1798
  604MOL0     H79678   5.266   0.666  11.489 -1.0777  1.0188 -0.1026
  604MOL0     H79679   5.053   0.771  11.448 -2.4965  0.0085  2.7009
  604MOL0     H79680   5.065   0.680  11.587  3.2758 -0.0358 -0.5431
  604MOL0     H79681   4.919   0.664  11.247  1.8186 -0.5888  0.2931
  604MOL0     H79682   4.716   0.379  11.156  1.3230  1.5293 -2.6676
  604MOL0     H79683   4.713   0.551  11.122  0.7474  0.2353  0.7978
  604MOL0     H79684   4.501   0.443  11.308  2.8459 -0.1360  0.9622
  604MOL0     H79685   4.480   0.439  11.140  2.6611 -2.1309 -0.4292
  604MOL0     H79686   4.509   0.698  11.317  0.8467  1.4680 -1.2100
  604MOL0     H79687   4.540   0.704  11.143  2.5809  0.1305  0.9573
  604MOL0     H79688   4.310   0.594  11.126 -0.9019 -2.7004  1.6976
  604MOL0     H79689   4.313   0.759  11.202 -1.6421  0.4430  6.0971
  604MOL0     H79690   4.109   0.737  11.121  0.3735  1.8405  2.0138
  604MOL0     H79691   3.888   0.793  11.126  0.4917  0.9529  0.8842
  604MOL0     H79692   3.505   1.008  11.181 -3.3033 -0.8390 -2.6232
  604MOL0     H79693   3.287   1.082  11.245 -0.6256  0.7362  1.5442
  604MOL0     H79694   3.046   1.062  11.313 -1.1163 -0.3551  1.2954
  604MOL0     H79695   3.163   1.170  11.397 -1.7456  0.2059 -1.6801
  604MOL0     H79696   3.016   1.194  11.574 -1.5421  0.8420  1.2194
  604MOL0     H79697   2.907   1.064  11.517  1.4060 -1.9055 -3.4268
  604MOL0     H79698   2.817   1.195  11.332  2.0600  0.8662 -1.1283
  604MOL0     H79699   2.951   1.306  11.344  0.6781 -1.6819 -0.3931
  604MOL0     H79700   2.704   1.289  11.506  0.2503  0.2537  0.6708
  604MOL0     H79701   2.840   1.359  11.579  0.8613 -1.8296 -0.4088
  604MOL0     H79702   2.728   1.463  11.311  1.2112 -2.5995 -0.1796
  604MOL0     H79703   2.864   1.533  11.405 -1.3986  1.1862 -2.5751
  604MOL0     H79704   2.689   1.556  11.604  0.3806 -1.5987  0.4068
  604MOL0     H79705   2.577   1.483  11.500  0.1125 -0.1415  2.1483
  604MOL0     H79706   2.675   1.761  11.472 -0.0917 -0.2266 -0.2226
  604MOL0     H79707   2.597   1.688  11.333  1.7832 -0.7324 -0.7506
  604MOL0     H79708   2.498   1.720  11.614  2.6255 -0.4710 -1.0020
  604MOL0     H79709   2.394   1.630  11.496 -3.5674  3.3507 -2.1071
  604MOL0     H79710   3.300   0.788  11.579 -0.4573 -0.1854 -0.1939
  604MOL0     H79711   3.517   0.728  11.506  3.4002  2.3095 -0.6970
  604MOL0     H79712   3.827   0.556  11.476  3.6361 -2.3176  1.6095
  604MOL0     H79713   4.083   0.534  11.493 -0.0722  0.8579 -0.3711
  604MOL0     H79714   5.914   0.824  11.167  1.0700  0.5927 -2.6784
  604MOL0     H79715   6.119   0.908  11.122 -2.7145 -0.3251  0.7146
  604MOL0     H79716   6.556   0.938  11.081 -2.4230 -0.3448 -0.7812
  604MOL0     H79717   6.752   1.049  10.987 -0.5876  1.3492 -2.0955
  604MOL0     H79718   6.932   1.093  10.887 -0.2183  2.9972 -1.8333
  604MOL0     H79719   7.018   1.084  10.732 -0.0900 -2.1807 -1.4510
  604MOL0     H79720   6.967   0.847  10.929 -0.8842 -1.3219 -4.0054
  604MOL0     H79721   7.082   0.829  10.799 -0.1534  0.4474 -1.8286
  604MOL0     H79722   7.164   0.895  11.049 -2.1008  2.9211  3.6927
  604MOL0     H79723   7.109   1.057  11.000  1.9661  0.1140 -0.2969
  604MOL0     H79724   7.328   0.895  10.872  1.3293  1.2216 -1.7696
  604MOL0     H79725   7.255   1.031  10.787 -0.6360 -0.7405 -1.1358
  604MOL0     H79726   7.528   1.194  11.073 -0.1885  0.7500 -1.1447
  604MOL0     H79727   6.700   0.825  10.629  1.1487 -0.7107  0.0886
  604MOL0     H79728   6.512   0.689  10.730  2.8085 -0.5631 -1.1114
  605MOL0     O79729   7.545   6.305   4.873  0.2750 -0.3395 -0.3211
  605MOL0     C79730   7.545   6.296   4.999  0.1005  1.2428  0.2979
  605MOL0     O79731   7.454   6.352   5.078  0.0909 -1.0739  0.3548
  605MOL0     C79732   7.392   6.467   5.029 -0.7296 -0.1955 -0.7602
  605MOL0     C79733   7.467   6.578   4.999  0.2849 -0.0023  0.0146
  605MOL0     C79734   7.411   6.691   4.928 -0.0665 -0.1588 -0.1983
  605MOL0     C79735   7.272   6.703   4.919  0.0839  1.0300  0.7179
  605MOL0     O79736   7.225   6.817   4.859 -1.4395 -0.5544 -0.2234
  605MOL0     C79737   7.104   6.804   4.788 -0.6838 -0.0265  0.5579
  605MOL0     C79738   7.130   6.883   4.654 -0.6296  0.2359 -0.0388
  605MOL0     C79739   7.002   6.892   4.566  0.3000 -0.0012 -0.5761
  605MOL0     C79740   6.880   6.959   4.637 -0.5667 -0.2424  1.0789
  605MOL0     C79741   6.769   6.959   4.533  0.0513 -0.5027 -0.2873
  605MOL0     C79742   6.700   6.814   4.502 -0.3937  0.3967 -0.8504
  605MOL0     C79743   6.593   6.822   4.402  0.1242 -0.2092  0.2150
  605MOL0     C79744   6.471   6.902   4.443 -0.1959  0.2986  0.3964
  605MOL0     N79745   6.352   6.878   4.350 -0.4448 -0.2531 -0.0806
  605MOL0     C79746   6.330   6.928   4.221 -0.0055  0.5157  0.4103
  605MOL0     C79747   6.217   6.864   4.172 -0.0360 -0.9259 -0.1270
  605MOL0     C79748   6.150   6.855   4.043  0.1439 -0.7562  0.4509
  605MOL0     C79749   6.004   6.907   4.049  0.0370 -0.2841  0.4847
  605MOL0     C79750   5.899   6.793   4.043 -0.0635  0.0033  0.4864
  605MOL0     C79751   5.859   6.735   3.908  0.5656  0.2951 -0.0374
  605MOL0     O79752   5.825   6.840   3.808 -0.2688  0.3896 -0.0850
  605MOL0     C79753   5.698   6.904   3.811 -0.3630  1.0190  0.1996
  605MOL0     C79754   5.667   6.968   3.696  0.5654  0.0592  0.8428
  605MOL0     C79755   5.542   7.027   3.675  0.0924 -0.3870  0.6067
  605MOL0     C79756   5.439   7.019   3.775 -0.4323 -0.2978  0.3179
  605MOL0     C79757   5.317   7.101   3.766  0.5736  0.3942 -0.1687
  605MOL0     O79758   5.304   7.192   3.663 -0.5407  0.2889  0.3815
  605MOL0     C79759   5.184   7.253   3.636 -0.4621 -0.2112  0.3541
  605MOL0     C79760   5.179   7.390   3.617  0.0166  0.3452 -0.8536
  605MOL0     C79761   5.061   7.458   3.599 -0.1094  0.1265  0.1525
  605MOL0     C79762   4.940   7.388   3.579  0.3020 -0.1197  0.4426
  605MOL0     O79763   4.819   7.455   3.565  0.4229  0.2553  0.1528
  605MOL0     C79764   4.688   7.384   3.586  0.2885 -0.0614  0.2330
  605MOL0     C79765   4.590   7.509   3.575  0.0807 -0.4397 -0.3536
  605MOL0     C79766   4.447   7.469   3.620  0.3694 -0.5883 -0.3569
  605MOL0     C79767   4.355   7.582   3.660  0.1501  0.6572 -0.4111
  605MOL0     C79768   4.298   7.638   3.528 -0.3956 -0.3083 -0.6423
  605MOL0     C79769   4.194   7.749   3.551 -1.0812  0.3186 -0.1100
  605MOL0     C79770   4.117   7.788   3.424 -0.3324  0.7190 -0.5653
  605MOL0     C79771   4.038   7.678   3.348  0.1343 -0.4203 -0.5651
  605MOL0    Cl79772   4.137   7.594   3.235  0.0866 -0.5270 -0.1952
  605MOL0     C79773   4.941   7.252   3.600 -0.2752  1.0963 -0.2961
  605MOL0     C79774   5.061   7.180   3.630  0.4797 -0.0721  0.4108
  605MOL0     O79775   5.231   7.075   3.847  0.2766 -0.4712 -0.5146
  605MOL0     C79776   5.474   6.954   3.893 -0.1142  0.2437 -0.6048
  605MOL0     C79777   5.598   6.896   3.911 -0.7177  0.1537  0.0705
  605MOL0     N79778   6.164   6.786   4.276 -0.9638  0.4677 -0.5063
  605MOL0     N79779   6.252   6.789   4.375 -0.1786  1.1725  0.5932
  605MOL0     C79780   7.197   6.587   4.943 -0.1511  0.9356 -0.5269
  605MOL0     C79781   7.252   6.475   4.997 -0.8020  1.1508  0.1119
  605MOL0     C79782   7.649   6.203   5.064  0.8861 -0.2480  0.0957
  605MOL0     C79783   7.736   6.136   4.977 -0.8057 -0.2019  0.2000
  605MOL0     C79784   7.808   6.030   5.031  0.0995 -0.9499  0.1244
  605MOL0     C79785   7.804   5.993   5.164 -1.0265  0.0896 -0.1864
  605MOL0     O79786   7.887   5.901   5.219  0.4193 -0.2316 -0.2807
  605MOL0     C79787   7.825   5.781   5.270  0.6436  1.0367 -0.1143
  605MOL0     C79788   7.921   5.672   5.331 -0.2538  0.0845  0.0932
  605MOL0     C79789   8.025   5.656   5.230  0.3934 -0.0213  0.4793
  605MOL0     C79790   8.136   5.563   5.269 -0.1741 -0.5830 -0.3800
  605MOL0     C79791   8.250   5.634   5.325  0.0832 -0.1042 -0.8028
  605MOL0     C79792   8.342   5.711   5.354  0.6584 -0.6431  0.3578
  605MOL0     C79793   7.723   6.076   5.249 -0.0733  0.6105 -0.0924
  605MOL0     C79794   7.643   6.175   5.207  0.2698  0.3640 -0.0185
  605MOL0     H79795   7.576   6.573   5.004  0.2744  0.4524  3.4506
  605MOL0     H79796   7.479   6.758   4.877 -0.7289 -2.0234 -3.8704
  605MOL0     H79797   7.025   6.846   4.852  1.0705  3.2090  0.8081
  605MOL0     H79798   7.075   6.701   4.766 -0.1878 -0.4339  1.7300
  605MOL0     H79799   7.206   6.834   4.593 -3.2225 -0.5186 -2.8921
  605MOL0     H79800   7.157   6.983   4.690 -0.8797  0.7885 -1.3347
  605MOL0     H79801   6.977   6.787   4.553 -1.0177  0.5664 -3.4798
  605MOL0     H79802   7.023   6.923   4.464  1.3228  0.6177 -0.1976
  605MOL0     H79803   6.840   6.899   4.720 -2.4132 -0.3686  0.1509
  605MOL0     H79804   6.905   7.061   4.668  1.7915 -1.3077  2.9821
  605MOL0     H79805   6.816   7.012   4.450  0.1799 -0.1017  0.0369
  605MOL0     H79806   6.692   7.029   4.568  0.7528  1.9281 -3.1767
  605MOL0     H79807   6.667   6.764   4.593  0.8691 -1.1563 -1.1948
  605MOL0     H79808   6.786   6.751   4.478  1.3896  2.2596  0.2848
  605MOL0     H79809   6.640   6.863   4.312  0.7828 -3.3593 -1.0327
  605MOL0     H79810   6.567   6.722   4.365  1.1402 -0.3987 -0.0024
  605MOL0     H79811   6.489   7.009   4.455  2.2279  0.0069 -0.0756
  605MOL0     H79812   6.439   6.869   4.542 -0.6722  0.9892  0.4839
  605MOL0     H79813   6.403   6.995   4.177 -1.0575  2.3639  1.3371
  605MOL0     H79814   6.157   6.749   4.018  1.7443 -2.0328  5.1669
  605MOL0     H79815   6.218   6.910   3.977  1.5326  0.3333  2.6488
  605MOL0     H79816   5.976   6.967   3.961 -1.3104 -0.8341  0.5119
  605MOL0     H79817   5.997   6.973   4.136 -1.5701 -0.4160  0.4858
  605MOL0     H79818   5.931   6.717   4.116 -0.9631  1.9617  3.0835
  605MOL0     H79819   5.814   6.834   4.098  0.4654 -0.1536  1.4679
  605MOL0     H79820   5.767   6.679   3.926  0.4793  0.1825 -0.7883
  605MOL0     H79821   5.930   6.662   3.869  1.0778 -0.1364  1.6413
  605MOL0     H79822   5.751   6.985   3.630 -0.1179  3.2400  0.6499
  605MOL0     H79823   5.521   7.064   3.576  0.6130 -0.4871  0.4597
  605MOL0     H79824   5.272   7.440   3.642 -0.5946  0.8313  0.5620
  605MOL0     H79825   5.051   7.565   3.591 -1.5906 -0.0150 -0.3432
  605MOL0     H79826   4.686   7.342   3.686 -0.8528 -1.3096 -0.2863
  605MOL0     H79827   4.667   7.312   3.506  0.5804  0.7906 -0.6227
  605MOL0     H79828   4.593   7.538   3.470 -1.2377 -1.6748 -0.7717
  605MOL0     H79829   4.632   7.590   3.635  1.8994 -1.2322 -0.4874
  605MOL0     H79830   4.450   7.411   3.714  1.3199 -3.0690 -1.8134
  605MOL0     H79831   4.408   7.405   3.541 -1.0332 -1.3219  0.8583
  605MOL0     H79832   4.275   7.546   3.725  0.3502 -1.3869 -1.2347
  605MOL0     H79833   4.419   7.653   3.714 -0.8172  1.8137 -0.7531
  605MOL0     H79834   4.264   7.561   3.459 -1.0656 -1.6369  1.0781
  605MOL0     H79835   4.385   7.687   3.484 -1.8992  2.7268 -0.5148
  605MOL0     H79836   4.255   7.833   3.585 -3.7580  2.7559 -0.9869
  605MOL0     H79837   4.128   7.716   3.633 -2.2021 -0.4365 -1.2862
  605MOL0     H79838   4.045   7.867   3.448  0.1766  2.0519 -3.0370
  605MOL0     H79839   4.186   7.822   3.346 -0.5689 -1.2404 -1.6933
  605MOL0     H79840   3.963   7.728   3.286 -1.8635 -4.4871 -1.7881
  605MOL0     H79841   3.985   7.606   3.411  1.3351 -0.3705  0.5595
  605MOL0     H79842   4.853   7.190   3.588  0.2539  0.4841 -1.1001
  605MOL0     H79843   5.055   7.074   3.650 -2.5199 -0.3143 -1.1987
  605MOL0     H79844   5.403   6.939   3.974  1.1379  3.5113  1.2727
  605MOL0     H79845   5.635   6.856   4.005  4.9416 -0.0601 -1.8723
  605MOL0     H79846   7.089   6.590   4.934 -0.2661  0.0052  0.3997
  605MOL0     H79847   7.183   6.394   5.022  0.6871  0.1968  1.2810
  605MOL0     H79848   7.732   6.170   4.874 -0.0061 -1.1643 -0.1700
  605MOL0     H79849   7.888   5.981   4.978  1.1156 -0.2507  0.9537
  605MOL0     H79850   7.764   5.740   5.188 -2.3088  3.6812  0.5490
  605MOL0     H79851   7.766   5.805   5.358  0.2335 -1.3345  0.3268
  605MOL0     H79852   7.955   5.715   5.426  2.2424  0.2983 -0.8436
  605MOL0     H79853   7.858   5.586   5.356 -0.4684  0.7949  2.2776
  605MOL0     H79854   8.075   5.749   5.203 -1.3804  0.4833 -1.2842
  605MOL0     H79855   7.971   5.610   5.146 -1.3950  0.4201  1.3261
  605MOL0     H79856   8.105   5.511   5.360  0.3032  1.7861  1.2386
  605MOL0     H79857   8.175   5.510   5.182  0.4350  0.0721 -0.5071
  605MOL0     H79858   8.410   5.784   5.392 -0.0420 -0.8561  2.0870
  605MOL0     H79859   7.737   6.057   5.355 -1.0090 -1.9212 -0.3561
  605MOL0     H79860   7.574   6.237   5.264  1.5198  0.6846  1.1860
  606MOL0     O79861   1.360  10.616   4.162 -0.5675 -0.0210  0.4473
  606MOL0     C79862   1.368  10.553   4.262 -0.3083 -0.1893 -0.2466
  606MOL0     O79863   1.480  10.509   4.314 -0.2398 -0.9298 -0.0919
  606MOL0     C79864   1.600  10.555   4.263 -0.8834 -0.4125  0.0843
  606MOL0     C79865   1.632  10.696   4.236 -0.1559 -0.6293 -0.1228
  606MOL0     C79866   1.763  10.730   4.193 -0.5418 -0.4683  1.3464
  606MOL0     C79867   1.857  10.639   4.152  0.4789  0.3552  0.6862
  606MOL0     O79868   1.967  10.683   4.084 -0.1769  0.8127 -0.3593
  606MOL0     C79869   1.957  10.760   3.965  0.3691 -0.2061 -0.5097
  606MOL0     C79870   2.095  10.771   3.918  0.0849  0.0932 -0.0034
  606MOL0     C79871   2.197  10.852   4.009  0.1400  0.0914  0.4830
  606MOL0     C79872   2.343  10.835   3.960 -0.4445  0.0768 -1.2291
  606MOL0     C79873   2.432  10.853   4.080  0.3003 -0.1420 -0.2505
  606MOL0     C79874   2.433  10.990   4.150  0.4629 -0.0977 -0.0084
  606MOL0     C79875   2.494  10.979   4.286 -0.6180  0.2767 -0.0854
  606MOL0     C79876   2.444  11.092   4.376 -0.3458 -0.4952 -0.5062
  606MOL0     N79877   2.515  11.082   4.511  0.4420  0.4906 -0.3634
  606MOL0     C79878   2.648  11.054   4.542  0.3447 -0.5169  0.3091
  606MOL0     C79879   2.659  11.091   4.675 -0.9301  0.2466  0.5902
  606MOL0     C79880   2.787  11.111   4.760  0.4972 -0.1676 -0.1920
  606MOL0     C79881   2.773  11.076   4.905 -0.0507 -0.1307 -0.5873
  606MOL0     C79882   2.910  11.062   4.975 -0.7308  0.7365 -0.8197
  606MOL0     C79883   2.885  11.025   5.132 -0.2890  0.1341  0.3960
  606MOL0     O79884   3.001  10.979   5.197 -0.4838 -0.6963 -0.0617
  606MOL0     C79885   3.108  11.068   5.192  0.7244  0.3086  0.5093
  606MOL0     C79886   3.221  11.003   5.138  0.0997 -0.2723 -0.1228
  606MOL0     C79887   3.339  11.074   5.124  0.8336 -0.4313  0.2889
  606MOL0     C79888   3.336  11.217   5.126 -0.8327  0.1530 -0.1567
  606MOL0     C79889   3.453  11.310   5.093 -1.9804  0.7506 -0.0632
  606MOL0     O79890   3.439  11.440   5.101  0.5896 -0.8582  0.5853
  606MOL0     C79891   3.542  11.526   5.106 -0.1301 -0.1208  0.2292
  606MOL0     C79892   3.639  11.512   5.208  0.3067 -0.6242  0.1525
  606MOL0     C79893   3.721  11.630   5.227 -0.0468  1.0871 -0.3750
  606MOL0     C79894   3.723  11.733   5.133  0.0652  0.0543  0.0459
  606MOL0     O79895   3.809  11.840   5.151  0.0392  0.1536  0.0887
  606MOL0     C79896   3.948  11.804   5.145 -1.1129  0.1122  0.9794
  606MOL0     C79897   4.014  11.832   5.272  1.3123  1.1824 -0.0745
  606MOL0     C79898   4.163  11.820   5.263 -0.8671 -0.3605  0.2858
  606MOL0     C79899   4.223  11.874   5.388  0.0539  0.5890 -0.0469
  606MOL0     C79900   4.374  11.854   5.387  0.1422  0.4056  0.2188
  606MOL0     C79901   4.433  11.922   5.513 -0.2857 -0.7815  0.4468
  606MOL0     C79902   4.590  11.914   5.521 -0.3501  0.6109  0.1547
  606MOL0     C79903   4.648  11.788   5.585  1.4384  1.2583 -0.0245
  606MOL0    Cl79904   4.547  11.749   5.723 -0.0253  0.0466  0.0628
  606MOL0     C79905   3.639  11.734   5.021  0.0437  0.6376 -0.0674
  606MOL0     C79906   3.544  11.635   5.013 -0.8650 -0.1899  0.8507
  606MOL0     O79907   3.558  11.255   5.053  1.2753  0.3777  0.5367
  606MOL0     C79908   3.219  11.276   5.174 -0.2290 -0.4328 -0.8850
  606MOL0     C79909   3.101  11.208   5.216 -0.1251  0.1975  0.4006
  606MOL0     N79910   2.529  11.102   4.722  1.2862  0.4829 -0.0280
  606MOL0     N79911   2.448  11.094   4.626 -0.0396 -0.5145  0.0324
  606MOL0     C79912   1.824  10.505   4.166 -0.0158  0.5678  0.3740
  606MOL0     C79913   1.699  10.470   4.224 -0.5023  0.4445 -0.2788
  606MOL0     C79914   1.241  10.502   4.319 -0.8619 -0.3648 -0.8061
  606MOL0     C79915   1.240  10.397   4.416 -0.0412 -0.2903 -0.2935
  606MOL0     C79916   1.116  10.355   4.466  0.1625 -0.4789 -0.5928
  606MOL0     C79917   0.991  10.412   4.424  0.2266 -0.3650 -0.2200
  606MOL0     O79918   0.876  10.374   4.494 -0.7297 -0.5337 -0.3298
  606MOL0     C79919   0.867  10.266   4.579 -0.2451 -0.1197  0.5547
  606MOL0     C79920   0.864  10.120   4.523 -0.4828 -0.9251  0.4067
  606MOL0     C79921   0.836  10.012   4.632  0.4681  0.1964 -0.3938
  606MOL0     C79922   0.688  10.007   4.677  0.1243  0.2036  0.5624
  606MOL0     C79923   0.671   9.893   4.768 -0.1249 -0.3094 -0.2902
  606MOL0     C79924   0.675   9.798   4.846  0.4298  0.0314 -0.1326
  606MOL0     C79925   0.994  10.525   4.336  0.2515  0.2167  0.1809
  606MOL0     C79926   1.116  10.567   4.282 -0.1337  0.9318 -0.5096
  606MOL0     H79927   1.555  10.761   4.275  0.6620  0.0871  0.3420
  606MOL0     H79928   1.803  10.830   4.195  1.5108 -1.1761 -0.3615
  606MOL0     H79929   1.930  10.863   3.990  1.8126 -0.7670  4.5467
  606MOL0     H79930   1.890  10.718   3.890  1.8213  0.0120 -1.9867
  606MOL0     H79931   2.089  10.817   3.819  2.4524  1.3666  0.3532
  606MOL0     H79932   2.140  10.672   3.904  1.9359  0.5330  2.2036
  606MOL0     H79933   2.186  10.800   4.104  1.7257 -1.7341 -0.2581
  606MOL0     H79934   2.165  10.957   4.011  3.1439  1.1234  0.3543
  606MOL0     H79935   2.372  10.735   3.926  2.6156 -0.3621  2.0681
  606MOL0     H79936   2.364  10.912   3.884 -1.4814 -0.1978 -1.8159
  606MOL0     H79937   2.534  10.830   4.049  0.5804  1.1316 -0.3040
  606MOL0     H79938   2.406  10.779   4.156 -1.0035 -0.2011 -0.7174
  606MOL0     H79939   2.329  11.020   4.168 -0.1920 -2.4090  0.4098
  606MOL0     H79940   2.493  11.060   4.091  5.4301 -1.9585  2.3066
  606MOL0     H79941   2.474  10.881   4.329 -1.5444 -1.0739 -3.2434
  606MOL0     H79942   2.601  10.992   4.265 -1.0731  2.8818 -1.1708
  606MOL0     H79943   2.339  11.090   4.406  0.3018 -0.6239  1.9645
  606MOL0     H79944   2.479  11.185   4.330  4.6449 -2.1939 -0.6716
  606MOL0     H79945   2.733  11.035   4.478 -0.9579 -1.1829 -1.2956
  606MOL0     H79946   2.815  11.216   4.747 -1.0008  0.4721  1.3168
  606MOL0     H79947   2.857  11.044   4.708 -0.5342  0.3308 -2.3130
  606MOL0     H79948   2.733  10.975   4.901  1.2222 -0.6451 -1.0045
  606MOL0     H79949   2.713  11.144   4.965  1.6473  2.3972 -1.5809
  606MOL0     H79950   2.956  10.973   4.930 -1.3987  0.7484 -1.5568
  606MOL0     H79951   2.960  11.159   4.966  1.5513 -0.4314 -1.5292
  606MOL0     H79952   2.811  10.946   5.151 -0.6090  0.4516  0.4782
  606MOL0     H79953   2.844  11.120   5.167 -0.2693  0.5209 -0.6026
  606MOL0     H79954   3.215  10.895   5.131 -1.3188 -0.1359 -1.5173
  606MOL0     H79955   3.435  11.025   5.113  0.5600 -1.4578  2.2219
  606MOL0     H79956   3.640  11.438   5.288  1.0830  0.1809  0.9088
  606MOL0     H79957   3.798  11.625   5.303  0.1652  0.1638 -0.6345
  606MOL0     H79958   3.989  11.864   5.063 -1.7368 -0.4074  0.2615
  606MOL0     H79959   3.960  11.698   5.117  2.9156  0.7143 -0.2688
  606MOL0     H79960   3.965  11.766   5.344  1.1946  4.0310  2.6674
  606MOL0     H79961   3.989  11.936   5.295 -0.9152  0.4640  1.1316
  606MOL0     H79962   4.190  11.886   5.181  0.3621 -0.3617  0.6707
  606MOL0     H79963   4.202  11.719   5.247  3.8397  0.4774  4.0270
  606MOL0     H79964   4.191  11.979   5.388  0.8223  0.8318 -0.0030
  606MOL0     H79965   4.182  11.836   5.482  3.5592  1.3618  1.9736
  606MOL0     H79966   4.420  11.908   5.303  2.3185 -0.0573  1.0316
  606MOL0     H79967   4.405  11.749   5.379  1.0459  0.7857 -2.6866
  606MOL0     H79968   4.367  11.905   5.599 -2.1572  0.5610 -0.6651
  606MOL0     H79969   4.413  12.027   5.495 -3.5868 -1.3003  0.5518
  606MOL0     H79970   4.634  11.929   5.422  1.9293 -2.1794  0.6272
  606MOL0     H79971   4.614  11.993   5.592 -0.6738 -0.3830  1.4113
  606MOL0     H79972   4.752  11.797   5.619  1.4131 -1.0707  0.9046
  606MOL0     H79973   4.639  11.707   5.511  4.0639  0.8998 -0.0749
  606MOL0     H79974   3.643  11.805   4.939 -1.0677  0.1390 -0.5743
  606MOL0     H79975   3.477  11.635   4.928 -1.3769 -0.8611  1.2470
  606MOL0     H79976   3.229  11.382   5.194  2.0117 -0.6559 -0.5677
  606MOL0     H79977   3.015  11.265   5.250 -0.8485  1.3630 -2.9856
  606MOL0     H79978   1.888  10.431   4.118 -0.5790  1.8444 -2.5926
  606MOL0     H79979   1.694  10.362   4.234 -2.3187  0.2061 -2.8513
  606MOL0     H79980   1.326  10.334   4.437 -1.2304 -1.2228  2.2951
  606MOL0     H79981   1.119  10.272   4.536  2.0777  0.3429  0.3748
  606MOL0     H79982   0.762  10.288   4.600 -0.8586 -2.5520  0.3216
  606MOL0     H79983   0.924  10.265   4.672  0.4032 -0.2876  0.1587
  606MOL0     H79984   0.785  10.120   4.448 -1.1161  0.4679  1.0541
  606MOL0     H79985   0.964  10.103   4.480  0.9918 -0.9482  3.5094
  606MOL0     H79986   0.902  10.041   4.714  1.0566 -0.3968 -0.6386
  606MOL0     H79987   0.876   9.918   4.592  0.4512 -0.6874  1.5410
  606MOL0     H79988   0.662  10.100   4.729 -2.2621  0.7968 -1.5097
  606MOL0     H79989   0.614   9.992   4.598 -0.0347  2.1946  0.2821
  606MOL0     H79990   0.687   9.716   4.914  1.0197  0.1365 -0.1047
  606MOL0     H79991   0.907  10.581   4.303  0.9054  2.8930  2.6028
  606MOL0     H79992   1.123  10.644   4.206 -0.5089 -1.0913 -2.7206
  607MOL0     O79993   2.722   1.275   1.225  0.6921  0.1135 -0.5841
  607MOL0     C79994   2.642   1.211   1.289  0.5109 -0.4864  0.3264
  607MOL0     O79995   2.669   1.100   1.367 -0.3057 -0.2655  0.7820
  607MOL0     C79996   2.790   1.073   1.415  0.1742 -0.4248  0.3262
  607MOL0     C79997   2.852   1.161   1.501 -0.1039 -0.3613  0.2105
  607MOL0     C79998   2.983   1.152   1.546  0.1389  1.5031 -0.7750
  607MOL0     C79999   3.055   1.029   1.509 -0.7329 -0.5593 -1.2092
  607MOL0     O80000   3.189   1.021   1.553 -0.3881  0.1530  0.1749
  607MOL0     C80001   3.273   0.931   1.483 -0.3338 -0.3067  0.5715
  607MOL0     C80002   3.404   0.941   1.548 -0.3237  0.2901 -1.0448
  607MOL0     C80003   3.419   0.886   1.691  0.0413  0.3561  0.0637
  607MOL0     C80004   3.562   0.890   1.744 -0.6379 -0.3566  0.0797
  607MOL0     C80005   3.566   0.824   1.878  0.0550 -0.3468 -0.4865
  607MOL0     C80006   3.502   0.681   1.894 -1.3780 -0.6377  0.0887
  607MOL0     C80007   3.532   0.637   2.035  0.3344  0.3041  0.6493
  607MOL0     C80008   3.486   0.487   2.044 -0.2352 -0.3379  0.1838
  607MOL0     N80009   3.442   0.466   2.182 -0.2015 -0.3454 -0.2705
  607MOL0     C80010   3.517   0.417   2.280 -0.3271  0.0053 -0.3330
  607MOL0     C80011   3.441   0.429   2.391  0.2460 -0.3948  0.6247
  607MOL0     C80012   3.478   0.398   2.532 -0.3832  0.5499  0.5468
  607MOL0     C80013   3.557   0.516   2.596 -0.9521 -0.6468  0.5012
  607MOL0     C80014   3.618   0.506   2.739 -0.8389 -0.3314  0.5067
  607MOL0     C80015   3.523   0.536   2.853 -0.1071 -0.6944 -0.8564
  607MOL0     O80016   3.446   0.422   2.885 -1.4017 -0.3729  0.1427
  607MOL0     C80017   3.309   0.440   2.892 -0.2296 -0.6375  0.5151
  607MOL0     C80018   3.239   0.393   3.002  0.6444  0.2364  0.0065
  607MOL0     C80019   3.100   0.401   3.013 -0.0625 -0.5007 -0.3518
  607MOL0     C80020   3.022   0.467   2.917  0.4170  1.4828  0.2730
  607MOL0     C80021   2.873   0.471   2.934  0.0296  0.2182  0.2999
  607MOL0     O80022   2.802   0.512   2.827  0.5579  0.0990  0.4065
  607MOL0     C80023   2.670   0.466   2.819 -0.0798  0.0834  0.0697
  607MOL0     C80024   2.569   0.557   2.806  1.0162  0.0001 -1.3134
  607MOL0     C80025   2.437   0.516   2.813  0.8711 -0.1215 -0.4005
  607MOL0     C80026   2.394   0.384   2.826 -1.2428  1.1739 -1.0167
  607MOL0     O80027   2.270   0.347   2.855 -0.4373  0.8775  0.1935
  607MOL0     C80028   2.214   0.265   2.752  0.5800  0.0861 -0.7387
  607MOL0     C80029   2.071   0.219   2.794  0.3038 -0.2324 -0.0313
  607MOL0     C80030   1.962   0.313   2.745 -0.5277 -0.0628 -0.1394
  607MOL0     C80031   1.823   0.258   2.734  0.2986  0.2892 -0.1883
  607MOL0     C80032   1.727   0.376   2.715  1.0706 -0.0007  0.2696
  607MOL0     C80033   1.586   0.321   2.755 -0.4422 -0.8748 -0.3273
  607MOL0     C80034   1.463   0.374   2.688 -0.8404 -1.2574 -0.0888
  607MOL0     C80035   1.440   0.531   2.705 -1.1108  1.6094  0.8155
  607MOL0    Cl80036   1.390   0.593   2.542  0.1308  0.2411  0.5237
  607MOL0     C80037   2.498   0.291   2.831 -0.2370 -0.0319  0.5031
  607MOL0     C80038   2.636   0.327   2.816  0.0426  0.6898  0.3380
  607MOL0     O80039   2.816   0.438   3.042 -0.3848  0.1912  0.6247
  607MOL0     C80040   3.091   0.505   2.804  1.1346  0.2679  0.3585
  607MOL0     C80041   3.227   0.496   2.793 -0.5796 -0.0381  0.1346
  607MOL0     N80042   3.320   0.486   2.353 -0.2845  0.3837 -0.1623
  607MOL0     N80043   3.328   0.514   2.224 -0.0718 -0.1841 -0.5408
  607MOL0     C80044   2.988   0.938   1.428  0.4587 -0.2806  0.7523
  607MOL0     C80045   2.855   0.951   1.387 -0.5811 -0.0805 -0.4995
  607MOL0     C80046   2.498   1.241   1.253  0.6292 -0.3267 -0.6448
  607MOL0     C80047   2.454   1.338   1.162 -0.7654  0.0542  0.3598
  607MOL0     C80048   2.320   1.373   1.137  1.2725 -0.5941 -0.5300
  607MOL0     C80049   2.222   1.311   1.202 -0.4608 -0.0322  0.0868
  607MOL0     O80050   2.083   1.328   1.182 -0.6992 -0.1132 -0.2122
  607MOL0     C80051   2.038   1.448   1.107  0.0286  0.7523 -0.5657
  607MOL0     C80052   1.888   1.423   1.080 -0.0280  0.9354 -0.4414
  607MOL0     C80053   1.805   1.442   1.215  0.4470  0.5726  0.4182
  607MOL0     C80054   1.812   1.315   1.293 -0.1731  0.5201 -0.4758
  607MOL0     C80055   1.684   1.292   1.367  0.4507  0.4538 -0.3701
  607MOL0     C80056   1.578   1.255   1.415  0.2819 -0.1814  0.1653
  607MOL0     C80057   2.260   1.211   1.296  0.1759 -0.7928 -0.2284
  607MOL0     C80058   2.397   1.183   1.325  0.3094 -0.2217  0.3060
  607MOL0     H80059   2.792   1.251   1.508 -1.4651 -0.9725 -2.3708
  607MOL0     H80060   3.043   1.224   1.600 -0.5716  1.6300 -0.1284
  607MOL0     H80061   3.285   0.962   1.378  3.6973 -1.7920  0.3832
  607MOL0     H80062   3.243   0.826   1.498  0.7313 -0.7690 -0.3509
  607MOL0     H80063   3.442   1.043   1.544  3.5038 -0.9999 -1.7185
  607MOL0     H80064   3.480   0.895   1.484 -1.4849  0.5008 -2.6414
  607MOL0     H80065   3.397   0.780   1.676  3.1240 -0.2032 -1.4840
  607MOL0     H80066   3.354   0.949   1.752 -1.7981  2.8250 -4.0258
  607MOL0     H80067   3.626   0.833   1.675 -0.5417  0.2503 -0.3416
  607MOL0     H80068   3.589   0.995   1.753 -3.7335  0.4862  0.6973
  607MOL0     H80069   3.523   0.904   1.937  0.3136 -1.7759  1.7644
  607MOL0     H80070   3.670   0.821   1.912 -0.2083 -3.1493  0.2927
  607MOL0     H80071   3.550   0.613   1.823 -2.3476 -0.3989 -0.8098
  607MOL0     H80072   3.395   0.702   1.889 -1.4920 -1.1570  0.3202
  607MOL0     H80073   3.637   0.657   2.055 -0.1607  5.0184 -0.4494
  607MOL0     H80074   3.479   0.697   2.109 -1.5519 -0.7239  0.1940
  607MOL0     H80075   3.559   0.410   2.016 -1.6006 -2.1482  1.3873
  607MOL0     H80076   3.402   0.467   1.977  0.1039 -1.2028  0.0054
  607MOL0     H80077   3.609   0.359   2.274 -1.6244 -2.9037  3.4297
  607MOL0     H80078   3.542   0.311   2.548 -0.7304  0.5425  2.1117
  607MOL0     H80079   3.384   0.386   2.586 -0.7792  2.9122  0.5204
  607MOL0     H80080   3.480   0.594   2.602 -2.3847 -2.0638  1.0863
  607MOL0     H80081   3.633   0.546   2.523  0.9641 -0.8648  2.2860
  607MOL0     H80082   3.652   0.402   2.745 -2.7074 -1.1151 -1.3097
  607MOL0     H80083   3.695   0.584   2.741  0.9982 -1.9584  4.6722
  607MOL0     H80084   3.455   0.616   2.822 -0.2621 -0.1912  0.7390
  607MOL0     H80085   3.588   0.565   2.935  1.6178 -2.2994 -1.5803
  607MOL0     H80086   3.312   0.358   3.075  1.1462  0.7129 -0.2551
  607MOL0     H80087   3.055   0.372   3.107  0.0616 -0.1180 -0.1721
  607MOL0     H80088   2.580   0.663   2.825 -2.8156  0.4524 -0.8920
  607MOL0     H80089   2.349   0.579   2.810  0.0213 -1.2823 -2.1964
  607MOL0     H80090   2.270   0.172   2.737  0.5165 -0.1409  0.3558
  607MOL0     H80091   2.209   0.321   2.658  3.6938  4.9961  1.6036
  607MOL0     H80092   2.068   0.209   2.903 -1.9242  3.7720  0.4809
  607MOL0     H80093   2.052   0.116   2.764 -2.1190  0.1103  0.1725
  607MOL0     H80094   1.980   0.334   2.639 -2.5188 -0.5343 -0.6289
  607MOL0     H80095   1.968   0.407   2.800  2.0584 -0.3455  0.1623
  607MOL0     H80096   1.827   0.187   2.651  0.9238 -2.3372  1.9410
  607MOL0     H80097   1.805   0.199   2.825  1.4519 -1.5584 -1.0916
  607MOL0     H80098   1.733   0.408   2.611  2.1584 -0.1272  0.2886
  607MOL0     H80099   1.754   0.457   2.783  0.9008 -0.4541  0.8935
  607MOL0     H80100   1.583   0.329   2.864 -1.3015 -1.5242 -0.2895
  607MOL0     H80101   1.579   0.215   2.731 -1.3911 -0.6499 -1.1105
  607MOL0     H80102   1.486   0.346   2.585  0.9768  2.0713 -0.7487
  607MOL0     H80103   1.375   0.322   2.726 -1.9700  0.4151 -0.3162
  607MOL0     H80104   1.532   0.581   2.734  0.3816 -0.3611 -0.2633
  607MOL0     H80105   1.363   0.541   2.782 -2.8287 -0.1395 -0.5477
  607MOL0     H80106   2.463   0.188   2.837  0.1455 -0.1496  0.6968
  607MOL0     H80107   2.718   0.256   2.818  0.8066  1.5258 -0.2744
  607MOL0     H80108   3.033   0.529   2.716  1.2632 -1.8239 -0.3615
  607MOL0     H80109   3.261   0.529   2.695 -1.3414 -1.8686 -0.7937
  607MOL0     H80110   3.045   0.848   1.407  2.0563  0.9583 -0.5846
  607MOL0     H80111   2.800   0.876   1.331 -3.4028  1.3951  0.0856
  607MOL0     H80112   2.526   1.395   1.104 -0.6248  1.6130  2.0034
  607MOL0     H80113   2.297   1.441   1.055 -1.8244 -2.9183 -1.8291
  607MOL0     H80114   2.095   1.456   1.014  0.8547 -1.1792 -0.2756
  607MOL0     H80115   2.054   1.539   1.165  0.9211 -2.0505  4.0216
  607MOL0     H80116   1.849   1.493   1.006 -0.4638  0.3398 -0.7745
  607MOL0     H80117   1.883   1.323   1.037 -1.2905 -0.6436  3.0021
  607MOL0     H80118   1.707   1.474   1.180 -0.4036 -0.3973  1.8029
  607MOL0     H80119   1.846   1.514   1.286  2.0454 -1.1797  1.3591
  607MOL0     H80120   1.827   1.227   1.229 -1.4537 -1.8927  2.2923
  607MOL0     H80121   1.898   1.315   1.361  1.0315  2.4137 -1.9068
  607MOL0     H80122   1.476   1.232   1.438  0.1272 -0.6348 -0.9160
  607MOL0     H80123   2.174   1.177   1.354 -2.1703  3.1148 -1.0838
  607MOL0     H80124   2.419   1.111   1.404  1.6704  0.6244  0.7392
  608MOL0     O80125   8.128   4.323   6.149  0.7835 -0.6499  0.6354
  608MOL0     C80126   8.073   4.358   6.045 -0.8045  0.9677 -0.1960
  608MOL0     O80127   8.126   4.348   5.917 -0.7749  0.0752 -0.3491
  608MOL0     C80128   8.247   4.293   5.905 -0.1943 -1.4257  0.4619
  608MOL0     C80129   8.260   4.155   5.886 -1.3039 -0.4079  0.0106
  608MOL0     C80130   8.385   4.094   5.888  0.3729 -0.1055 -1.4700
  608MOL0     C80131   8.497   4.165   5.915  0.2086 -0.2500 -0.2423
  608MOL0     O80132   8.613   4.098   5.929 -0.0808 -0.4707 -0.8345
  608MOL0     C80133   8.639   4.062   6.072 -0.4940  0.3444  0.1052
  608MOL0     C80134   8.770   3.968   6.096  0.4762  0.5353  0.5774
  608MOL0     C80135   8.890   4.052   6.140  0.4312  0.7514 -0.7624
  608MOL0     C80136   8.887   4.045   6.295  0.2634  0.3493  0.3319
  608MOL0     C80137   9.023   4.077   6.365 -0.4666  0.2268 -0.0145
  608MOL0     C80138   9.015   4.225   6.420  0.7826  1.3950  1.5258
  608MOL0     C80139   9.122   4.265   6.525 -0.4621 -0.2673 -0.2365
  608MOL0     C80140   9.133   4.185   6.658 -0.0708 -1.2959 -0.4757
  608MOL0     N80141   9.008   4.186   6.737  0.1836 -0.0732  0.6352
  608MOL0     C80142   8.908   4.279   6.745  0.6507  0.1033 -1.0835
  608MOL0     C80143   8.824   4.223   6.834 -0.3513  0.1997  0.3813
  608MOL0     C80144   8.708   4.311   6.882  0.1692  0.1744 -0.3951
  608MOL0     C80145   8.570   4.241   6.847 -0.2916 -0.1681  0.3375
  608MOL0     C80146   8.467   4.346   6.807 -0.1485  0.6589  0.7466
  608MOL0     C80147   8.332   4.289   6.784  0.0363 -0.2651 -0.2089
  608MOL0     O80148   8.290   4.244   6.913  0.6896  0.4096 -0.2310
  608MOL0     C80149   8.159   4.184   6.917 -0.4491  0.7047  0.4671
  608MOL0     C80150   8.118   4.186   7.053  0.0649 -0.5447  0.5941
  608MOL0     C80151   7.996   4.128   7.080 -0.5336 -0.3100 -0.6822
  608MOL0     C80152   7.915   4.076   6.980  0.8067 -1.0978 -0.7906
  608MOL0     C80153   7.782   4.033   7.004 -0.1514 -0.3786  0.3748
  608MOL0     O80154   7.721   3.988   6.887 -0.2227 -0.0478  0.6112
  608MOL0     C80155   7.618   3.899   6.903  0.2138 -0.2209 -0.1754
  608MOL0     C80156   7.633   3.759   6.896 -0.0196 -0.1355 -0.1953
  608MOL0     C80157   7.520   3.678   6.916 -0.7707  0.0194  0.6927
  608MOL0     C80158   7.393   3.739   6.917  0.0964  0.7825  0.1095
  608MOL0     O80159   7.268   3.672   6.935  0.0742 -0.1897  0.2533
  608MOL0     C80160   7.250   3.539   6.898 -0.1013 -0.7513  1.2558
  608MOL0     C80161   7.174   3.473   7.014  0.5242 -0.3158  0.0846
  608MOL0     C80162   7.260   3.481   7.141 -0.1871  0.0772 -0.3250
  608MOL0     C80163   7.178   3.434   7.272 -0.5657  0.3734  0.6670
  608MOL0     C80164   7.030   3.479   7.286 -0.0236  0.8193  0.0923
  608MOL0     C80165   7.016   3.630   7.313  0.7074 -0.5937 -0.4780
  608MOL0     C80166   6.872   3.652   7.362 -1.0696 -0.3693  1.1414
  608MOL0     C80167   6.836   3.807   7.355 -0.3777 -0.0677 -0.0150
  608MOL0    Cl80168   6.684   3.823   7.436  0.6648  0.3577 -0.3702
  608MOL0     C80169   7.382   3.875   6.908 -1.0072 -0.7247  0.5321
  608MOL0     C80170   7.486   3.954   6.900 -0.5765  0.0296  0.5920
  608MOL0     O80171   7.744   4.030   7.118  0.9049  0.4498 -0.4635
  608MOL0     C80172   7.968   4.066   6.852  0.4423 -0.4699 -0.8751
  608MOL0     C80173   8.087   4.111   6.819  0.2782  0.8201 -0.3642
  608MOL0     N80174   8.853   4.088   6.849  0.0328 -0.2962  0.1583
  608MOL0     N80175   8.963   4.072   6.800 -0.3376  0.7737  1.0932
  608MOL0     C80176   8.482   4.306   5.941  0.1719 -0.5460  0.8345
  608MOL0     C80177   8.354   4.372   5.927 -0.8570 -0.0937  0.3897
  608MOL0     C80178   7.943   4.415   6.060 -0.5359  0.3321  0.7868
  608MOL0     C80179   7.927   4.546   6.007 -0.2781 -0.6715  0.8505
  608MOL0     C80180   7.797   4.602   6.025  0.3374 -0.0168  0.6413
  608MOL0     C80181   7.694   4.530   6.086  0.7271 -0.2164  0.4120
  608MOL0     O80182   7.568   4.579   6.089  0.1715 -0.1350  0.3468
  608MOL0     C80183   7.475   4.503   6.013  0.3718  0.5739 -0.5630
  608MOL0     C80184   7.330   4.520   6.071  0.4506 -0.2200  0.1593
  608MOL0     C80185   7.319   4.435   6.202  0.1494  0.3822  0.5465
  608MOL0     C80186   7.198   4.482   6.288  0.2012  0.3830 -0.4265
  608MOL0     C80187   7.186   4.625   6.329  0.0646 -0.2806 -0.8689
  608MOL0     C80188   7.150   4.736   6.351 -0.3788  0.7844 -1.3914
  608MOL0     C80189   7.714   4.411   6.152 -0.1708  0.6970  0.7691
  608MOL0     C80190   7.850   4.362   6.148  1.5344 -0.1538 -0.7345
  608MOL0     H80191   8.171   4.094   5.881 -0.5883 -1.4562 -0.2786
  608MOL0     H80192   8.403   3.991   5.859  2.7318  0.0985 -0.9622
  608MOL0     H80193   8.545   4.023   6.113 -0.4831 -0.4377 -0.5862
  608MOL0     H80194   8.651   4.148   6.139  0.1014  1.6504 -1.5932
  608MOL0     H80195   8.797   3.912   6.006 -0.5033 -3.0383  2.2932
  608MOL0     H80196   8.749   3.890   6.170 -0.8556  0.0161 -0.3142
  608MOL0     H80197   8.883   4.151   6.095  0.0765  1.8188  1.4838
  608MOL0     H80198   8.980   4.002   6.105  0.8738  0.4930  0.6889
  608MOL0     H80199   8.798   4.092   6.337 -0.5890 -0.4364 -0.5422
  608MOL0     H80200   8.872   3.938   6.317  1.2593 -1.0444 -4.5465
  608MOL0     H80201   9.109   4.071   6.298  0.2543  1.2669  0.7852
  608MOL0     H80202   9.038   4.019   6.456 -0.7086 -0.3352 -0.3304
  608MOL0     H80203   8.915   4.240   6.461 -0.4361  0.1317 -0.7823
  608MOL0     H80204   9.014   4.300   6.341 -0.6621 -0.0958  0.0586
  608MOL0     H80205   9.225   4.251   6.491  0.4567  2.4923  1.1379
  608MOL0     H80206   9.107   4.372   6.538  1.2360 -0.1218  0.9100
  608MOL0     H80207   9.220   4.226   6.711 -1.0432 -0.1376  0.2764
  608MOL0     H80208   9.148   4.079   6.637 -0.4157 -1.8752  1.8972
  608MOL0     H80209   8.902   4.384   6.718 -1.5791  0.3344  0.1407
  608MOL0     H80210   8.713   4.412   6.841  1.9770  0.9585  1.5522
  608MOL0     H80211   8.728   4.330   6.988  1.8658 -3.3709  0.0633
  608MOL0     H80212   8.535   4.167   6.919 -1.5911  1.6882  1.7019
  608MOL0     H80213   8.595   4.204   6.747 -0.1318  0.6158  0.0796
  608MOL0     H80214   8.463   4.423   6.884 -2.5446  0.7629  0.6004
  608MOL0     H80215   8.494   4.386   6.709 -0.1579 -3.4028 -1.1334
  608MOL0     H80216   8.345   4.204   6.717 -0.6526 -0.3033 -0.3037
  608MOL0     H80217   8.270   4.372   6.748  0.3818  1.3556  2.6016
  608MOL0     H80218   8.187   4.239   7.117  2.0221 -1.9928 -0.2248
  608MOL0     H80219   7.963   4.122   7.183 -0.2264 -2.9456 -0.6705
  608MOL0     H80220   7.737   3.727   6.896  0.0789  0.1378 -1.5382
  608MOL0     H80221   7.522   3.569   6.923 -0.7301 -0.0935 -0.7508
  608MOL0     H80222   7.343   3.489   6.869  0.4416  1.9955 -2.6247
  608MOL0     H80223   7.192   3.542   6.805  2.6639 -0.0858 -0.6062
  608MOL0     H80224   7.144   3.370   6.994  1.8400 -0.5468 -0.7851
  608MOL0     H80225   7.081   3.527   7.036  0.6624 -0.7742  1.8696
  608MOL0     H80226   7.285   3.585   7.164 -1.1122  0.4289 -0.8906
  608MOL0     H80227   7.363   3.443   7.133  0.0005  0.6910 -0.9560
  608MOL0     H80228   7.187   3.325   7.278  0.8485  0.4660  0.7151
  608MOL0     H80229   7.225   3.469   7.365 -2.4592 -1.8802  2.5887
  608MOL0     H80230   6.977   3.429   7.368  0.9849 -0.7359 -0.1633
  608MOL0     H80231   6.977   3.440   7.199 -0.6927  0.1324  0.7928
  608MOL0     H80232   7.038   3.683   7.220  0.7371 -1.7070 -1.1320
  608MOL0     H80233   7.085   3.653   7.394 -2.2934 -0.9320  2.3413
  608MOL0     H80234   6.802   3.609   7.290 -1.6719  1.6678  0.4616
  608MOL0     H80235   6.845   3.612   7.460 -1.8971  1.0009  1.4981
  608MOL0     H80236   6.820   3.847   7.254 -0.8667  0.1494  0.1456
  608MOL0     H80237   6.907   3.861   7.418  0.8565 -3.6143  1.9026
  608MOL0     H80238   7.283   3.915   6.928 -0.5063 -1.2688  5.0779
  608MOL0     H80239   7.475   4.062   6.902  0.2443  0.2545 -2.0945
  608MOL0     H80240   7.908   4.035   6.767 -2.0638 -0.4586  0.7806
  608MOL0     H80241   8.130   4.099   6.720 -4.9942 -0.3085 -2.9192
  608MOL0     H80242   8.563   4.364   5.984  0.0747  2.5398 -2.6780
  608MOL0     H80243   8.336   4.479   5.938  0.1449 -0.0486  1.8646
  608MOL0     H80244   8.005   4.607   5.962  0.3190 -2.7672 -1.2159
  608MOL0     H80245   7.772   4.701   5.989  2.9365  0.8729  1.1313
  608MOL0     H80246   7.495   4.396   6.015 -2.0190  0.0121  3.0139
  608MOL0     H80247   7.481   4.537   5.909  0.6730  1.7107 -0.1968
  608MOL0     H80248   7.313   4.625   6.096  3.1499  0.1332  0.8455
  608MOL0     H80249   7.248   4.497   6.003 -1.3113 -0.0323  2.1000
  608MOL0     H80250   7.405   4.431   6.270 -2.9360 -1.8150  4.8520
  608MOL0     H80251   7.293   4.333   6.174  1.9652  0.4069 -1.4713
  608MOL0     H80252   7.117   4.444   6.225 -0.9637  0.6792  0.8428
  608MOL0     H80253   7.192   4.419   6.377 -0.5745  0.3736 -0.4731
  608MOL0     H80254   7.121   4.832   6.389  0.2504  0.7621 -0.8351
  608MOL0     H80255   7.638   4.355   6.206 -2.0809  2.0684 -0.3742
  608MOL0     H80256   7.883   4.271   6.197  4.3865  2.1409  2.0800
  609MOL0     O80257  11.062   0.065  10.750 -0.6276 -0.5091 -0.5038
  609MOL0     C80258  10.971  -0.019  10.732 -1.0718 -1.0080 -0.3277
  609MOL0     O80259  10.891  -0.024  10.618 -0.0527  0.9165 -0.1118
  609MOL0     C80260  10.920   0.063  10.520  0.0168 -0.1656  0.1130
  609MOL0     C80261  10.898   0.200  10.525  0.9195  0.6337  0.5119
  609MOL0     C80262  10.900   0.276  10.409  0.0358  0.4088 -0.3478
  609MOL0     C80263  10.938   0.226  10.289  0.4524 -1.1382  0.3335
  609MOL0     O80264  10.938   0.320  10.187 -0.2904 -0.4058 -0.9936
  609MOL0     C80265  10.990   0.269  10.061  0.8698  0.0063  0.0962
  609MOL0     C80266  10.938   0.356   9.950 -0.3899 -0.0883  0.5771
  609MOL0     C80267  10.982   0.311   9.818  0.2612 -1.0119  0.3103
  609MOL0     C80268  10.878   0.325   9.702  1.0849 -0.3462 -0.5591
  609MOL0     C80269  10.948   0.281   9.573  0.0840  0.3933 -0.8903
  609MOL0     C80270  11.025   0.391   9.491 -0.9033  0.3599 -0.0077
  609MOL0     C80271  10.919   0.489   9.435  0.3273 -0.9467  0.1307
  609MOL0     C80272  10.832   0.449   9.307  0.1591 -0.4477  0.5883
  609MOL0     N80273  10.720   0.363   9.341  0.0172 -0.3906  0.0823
  609MOL0     C80274  10.630   0.399   9.434  0.3070  0.2082  0.4469
  609MOL0     C80275  10.541   0.296   9.454 -0.3246 -0.2296  0.3306
  609MOL0     C80276  10.417   0.284   9.530  0.4464 -0.6637 -1.1350
  609MOL0     C80277  10.402   0.362   9.657 -0.7626  0.1997  0.5513
  609MOL0     C80278  10.399   0.518   9.648  0.9043  0.0200  0.1321
  609MOL0     C80279  10.283   0.574   9.728  0.1737  0.6266  0.0718
  609MOL0     O80280  10.317   0.577   9.865  0.3990 -0.6192  0.2279
  609MOL0     C80281  10.433   0.642   9.903 -0.4500  1.1599  1.4462
  609MOL0     C80282  10.445   0.780   9.880 -0.7629 -0.9652 -0.8803
  609MOL0     C80283  10.562   0.850   9.921 -0.4968  0.4320 -0.9549
  609MOL0     C80284  10.659   0.783  10.001  0.1847 -0.8345 -0.0401
  609MOL0     C80285  10.780   0.854  10.049  0.0321 -0.3421  0.0433
  609MOL0     O80286  10.888   0.773  10.079  0.2938 -0.3461 -0.2455
  609MOL0     C80287  10.994   0.815  10.159 -0.8841 -0.0665 -0.3580
  609MOL0     C80288  11.028   0.944  10.211 -0.0118  0.2690 -0.1785
  609MOL0     C80289  11.139   0.969  10.293  0.5578  0.0366  1.2826
  609MOL0     C80290  11.231   0.873  10.322  0.4900  0.2120 -0.7014
  609MOL0     O80291  11.343   0.913  10.383 -0.3804 -0.5151 -0.5181
  609MOL0     C80292  11.452   0.820  10.375 -0.2089  0.0788 -0.4510
  609MOL0     C80293  11.499   0.822  10.224 -0.1532  0.2930 -0.3000
  609MOL0     C80294  11.561   0.949  10.182  0.5403  0.7906  0.3181
  609MOL0     C80295  11.574   0.963  10.028 -1.4737 -0.1309 -0.0620
  609MOL0     C80296  11.612   1.102   9.992 -0.0154 -0.4423 -0.0884
  609MOL0     C80297  11.759   1.132  10.017 -0.7236  0.2405  0.8071
  609MOL0     C80298  11.860   1.066   9.921  0.6012 -0.3628 -0.0349
  609MOL0     C80299  12.002   1.124   9.936  0.2814 -0.8122  0.3989
  609MOL0    Cl80300  12.145   1.036   9.850  0.1632  0.1098 -0.6946
  609MOL0     C80301  11.197   0.744  10.275 -0.9245  0.7557 -1.0770
  609MOL0     C80302  11.083   0.713  10.206  0.3709  0.2855  0.9647
  609MOL0     O80303  10.784   0.977  10.054  0.1772  0.4725 -0.1373
  609MOL0     C80304  10.637   0.643  10.022 -0.2330  0.1690 -0.8278
  609MOL0     C80305  10.525   0.579   9.977  0.4896  0.5283  1.2237
  609MOL0     N80306  10.576   0.199   9.359  0.5060 -0.1455  0.0305
  609MOL0     N80307  10.683   0.237   9.299  0.0841  0.7701  0.8854
  609MOL0     C80308  10.974   0.094  10.286 -0.5217  0.8621  0.0686
  609MOL0     C80309  10.958   0.013  10.401 -0.0298 -0.2763  0.0379
  609MOL0     C80310  10.980  -0.122  10.829  0.2169  0.5705 -0.0940
  609MOL0     C80311  11.025  -0.097  10.960 -0.7540  0.2718  0.6247
  609MOL0     C80312  11.016  -0.191  11.069  1.2497 -0.2698 -0.0082
  609MOL0     C80313  10.973  -0.320  11.034  0.0178  0.4168  0.3797
  609MOL0     O80314  10.970  -0.421  11.127 -0.2492 -0.2077  0.3210
  609MOL0     C80315  10.956  -0.560  11.094  0.6707 -0.3751  0.4405
  609MOL0     C80316  10.958  -0.634  11.228 -0.6445  0.0884 -0.3997
  609MOL0     C80317  10.883  -0.558  11.343 -0.1087 -0.2925  0.1209
  609MOL0     C80318  10.887  -0.632  11.473 -0.1537 -0.0066  0.2105
  609MOL0     C80319  11.030  -0.656  11.510 -0.4074  0.3494  0.5100
  609MOL0     C80320  11.139  -0.665  11.556 -0.0118  0.1962  0.8523
  609MOL0     C80321  10.927  -0.351  10.906 -0.9308  0.2219  0.0398
  609MOL0     C80322  10.925  -0.255  10.803  1.1451  0.2623 -0.9338
  609MOL0     H80323  10.883   0.247  10.622 -0.2432  1.3113  0.0275
  609MOL0     H80324  10.873   0.381  10.404 -3.1194 -0.2475  0.7099
  609MOL0     H80325  10.946   0.173  10.035  2.5167 -1.1697  1.4073
  609MOL0     H80326  11.099   0.263  10.069  0.6995 -1.1819  2.4193
  609MOL0     H80327  10.968   0.458   9.974 -1.9386  0.0852  1.9002
  609MOL0     H80328  10.829   0.363   9.942 -0.1733  2.1184 -3.9889
  609MOL0     H80329  11.006   0.205   9.810  1.4861 -0.8963  1.9112
  609MOL0     H80330  11.076   0.363   9.798 -0.0972 -0.9646 -1.4286
  609MOL0     H80331  10.788   0.272   9.734 -0.2606  2.6572  1.0523
  609MOL0     H80332  10.853   0.431   9.696  0.5893 -0.3427  1.0787
  609MOL0     H80333  10.874   0.231   9.510  1.2275 -1.4062 -0.8827
  609MOL0     H80334  11.027   0.208   9.593  0.8190  1.6525  1.1131
  609MOL0     H80335  11.074   0.358   9.399 -3.8398  0.6646 -1.7971
  609MOL0     H80336  11.092   0.453   9.551 -0.5661  0.1490 -0.1632
  609MOL0     H80337  10.852   0.528   9.513 -1.7909  0.8947 -2.4201
  609MOL0     H80338  10.977   0.578   9.412 -0.4029 -0.0749  1.5593
  609MOL0     H80339  10.900   0.401   9.237  0.9596  2.8002 -1.0597
  609MOL0     H80340  10.791   0.545   9.274 -2.5195 -0.5912  3.0564
  609MOL0     H80341  10.634   0.491   9.492  3.2943  0.5353 -0.1177
  609MOL0     H80342  10.390   0.181   9.556 -3.1959  0.6889  1.2679
  609MOL0     H80343  10.340   0.331   9.468  0.6848  1.4124  0.0485
  609MOL0     H80344  10.476   0.334   9.733 -2.4172  1.4415  2.7629
  609MOL0     H80345  10.304   0.341   9.700 -0.7336  1.1571  1.1146
  609MOL0     H80346  10.494   0.557   9.686  0.1579 -0.3163  2.5506
  609MOL0     H80347  10.384   0.560   9.548  0.4105 -1.5213 -0.4744
  609MOL0     H80348  10.185   0.527   9.717 -1.1614  1.9908  4.2286
  609MOL0     H80349  10.269   0.679   9.701  1.4310  0.8505  0.2454
  609MOL0     H80350  10.362   0.826   9.827 -2.1506  0.1728  2.0573
  609MOL0     H80351  10.571   0.957   9.902 -1.5545  0.8035  0.4406
  609MOL0     H80352  10.964   1.029  10.193  1.2964  1.0789 -1.2605
  609MOL0     H80353  11.147   1.072  10.327 -1.1385  0.2272  1.1743
  609MOL0     H80354  11.423   0.722  10.415  0.6962  0.9309  2.5880
  609MOL0     H80355  11.529   0.857  10.444 -0.9999  3.0697 -1.0423
  609MOL0     H80356  11.420   0.793  10.154 -0.9763  2.3050 -0.2647
  609MOL0     H80357  11.575   0.743  10.223  1.6364  1.8121  2.5056
  609MOL0     H80358  11.650   0.981  10.236 -0.3813  5.0731 -0.3365
  609MOL0     H80359  11.491   1.029  10.208  0.3431  1.5639 -2.2243
  609MOL0     H80360  11.642   0.890   9.983 -5.3408 -3.0395 -1.8660
  609MOL0     H80361  11.473   0.950   9.986 -1.4587  3.0667 -1.3539
  609MOL0     H80362  11.558   1.177  10.051  1.5946 -1.2831  2.6730
  609MOL0     H80363  11.595   1.110   9.885  1.3753  0.9033 -0.2448
  609MOL0     H80364  11.778   1.082  10.113 -0.6159  0.7402  1.0491
  609MOL0     H80365  11.779   1.239  10.028  0.1693  0.1590  0.0651
  609MOL0     H80366  11.865   0.958   9.939 -1.2568 -0.8580 -2.0376
  609MOL0     H80367  11.823   1.078   9.818  1.2665 -0.1968 -0.2637
  609MOL0     H80368  12.034   1.125  10.041 -0.4613  1.2616  0.6538
  609MOL0     H80369  11.998   1.225   9.895  1.4454  0.1796  2.5650
  609MOL0     H80370  11.263   0.664  10.306  1.6847  3.0631 -0.2513
  609MOL0     H80371  11.063   0.611  10.177 -2.1739  1.5483 -2.3245
  609MOL0     H80372  10.711   0.590  10.080 -0.6573  1.4031  0.9178
  609MOL0     H80373  10.505   0.473   9.991 -1.5910  0.7813  0.5880
  609MOL0     H80374  10.998   0.047  10.191 -1.1633 -0.8736  0.7381
  609MOL0     H80375  10.964  -0.093  10.379 -1.6092  0.2168 -3.5254
  609MOL0     H80376  11.067   0.001  10.980  1.4562 -0.1980 -1.2231
  609MOL0     H80377  11.062  -0.182  11.166 -0.5209  2.2093  0.7171
  609MOL0     H80378  11.037  -0.600  11.032  0.6939  1.7835 -1.0403
  609MOL0     H80379  10.863  -0.584  11.042  2.3835 -4.4471 -1.2391
  609MOL0     H80380  10.911  -0.733  11.218 -0.4596  0.2065 -2.9770
  609MOL0     H80381  11.062  -0.657  11.252 -0.5660 -3.7210 -3.4992
  609MOL0     H80382  10.782  -0.544  11.304 -0.0555 -1.5773 -0.5386
  609MOL0     H80383  10.936  -0.462  11.350 -1.2007  0.5264 -1.8528
  609MOL0     H80384  10.843  -0.563  11.545 -0.1600 -2.5738  2.8396
  609MOL0     H80385  10.825  -0.722  11.467  1.6477 -1.5021  2.5776
  609MOL0     H80386  11.227  -0.680  11.614 -0.1806  0.3436  1.1457
  609MOL0     H80387  10.917  -0.453  10.872  1.2727 -0.3303  0.8648
  609MOL0     H80388  10.878  -0.275  10.706  0.8516 -0.7271 -0.6010
  610MOL0     O80389  10.625   1.252   6.508 -0.6211 -0.2846 -0.0208
  610MOL0     C80390  10.646   1.126   6.502 -0.0221  0.1090 -0.0403
  610MOL0     O80391  10.555   1.027   6.489  0.1104  0.5540 -0.5337
  610MOL0     C80392  10.425   1.045   6.530 -0.3136 -0.2437  0.2794
  610MOL0     C80393  10.380   1.145   6.624  0.5645  0.0799  0.3111
  610MOL0     C80394  10.254   1.145   6.673 -0.0122 -0.9559 -0.4044
  610MOL0     C80395  10.160   1.049   6.630  0.3527 -0.1949 -0.6823
  610MOL0     O80396  10.023   1.041   6.675  0.3300 -0.9675  0.1876
  610MOL0     C80397   9.985   1.112   6.790 -0.0211 -0.1172  0.0328
  610MOL0     C80398   9.833   1.131   6.800  0.0815  0.9415  0.1871
  610MOL0     C80399   9.763   1.002   6.852  0.0621 -1.7973 -0.9800
  610MOL0     C80400   9.620   1.007   6.811  0.9413  0.3675  0.8278
  610MOL0     C80401   9.555   0.890   6.893  0.3709 -0.3864  0.2407
  610MOL0     C80402   9.413   0.858   6.879  0.1710  0.0805  0.9524
  610MOL0     C80403   9.307   0.965   6.905 -0.0120  0.2911  0.0585
  610MOL0     C80404   9.169   0.898   6.870 -0.1581  0.4359 -0.2692
  610MOL0     N80405   9.128   0.812   6.980  0.9852  1.3694 -0.3826
  610MOL0     C80406   9.069   0.854   7.091  0.1494  1.0326  0.2603
  610MOL0     C80407   9.050   0.737   7.169  0.0444 -0.0576  0.4046
  610MOL0     C80408   8.990   0.747   7.303  0.1040 -0.2169  0.4748
  610MOL0     C80409   8.854   0.668   7.324 -0.0307 -0.7717 -0.2782
  610MOL0     C80410   8.787   0.735   7.432  1.1181  0.1333 -0.5378
  610MOL0     C80411   8.659   0.659   7.468 -0.1245 -0.0413  0.0515
  610MOL0     O80412   8.707   0.530   7.509 -0.1389  0.1214  0.5308
  610MOL0     C80413   8.616   0.430   7.506  0.0521  0.2796  0.5597
  610MOL0     C80414   8.614   0.336   7.402  0.5064 -0.4852 -0.9299
  610MOL0     C80415   8.507   0.238   7.406  0.7266 -0.3444  0.0158
  610MOL0     C80416   8.402   0.248   7.500  0.1290 -0.8123 -0.1291
  610MOL0     C80417   8.290   0.148   7.505  0.7862  0.3786 -0.2432
  610MOL0     O80418   8.205   0.140   7.619  0.4630 -0.5217 -0.1949
  610MOL0     C80419   8.106   0.053   7.601 -0.0076  0.2850 -1.0451
  610MOL0     C80420   8.134  -0.088   7.625  0.5124  0.3531 -0.1902
  610MOL0     C80421   8.022  -0.181   7.612 -0.7680  0.3767  0.3650
  610MOL0     C80422   7.888  -0.127   7.585 -0.7073 -1.0263  0.5756
  610MOL0     O80423   7.787  -0.217   7.556 -0.0467  0.1573  0.1742
  610MOL0     C80424   7.649  -0.180   7.531  0.1796 -0.0893 -0.3257
  610MOL0     C80425   7.571  -0.298   7.482  0.6042 -0.0998 -0.9578
  610MOL0     C80426   7.415  -0.285   7.507 -0.0011  0.1292  0.5696
  610MOL0     C80427   7.344  -0.166   7.441 -0.5652 -0.1642  0.4714
  610MOL0     C80428   7.196  -0.181   7.458  0.0554  0.0904 -0.3102
  610MOL0     C80429   7.120  -0.067   7.375 -0.0651 -0.3977 -0.8753
  610MOL0     C80430   7.071  -0.120   7.240  0.2624 -1.0895  0.5555
  610MOL0     C80431   7.019  -0.012   7.131  0.8323  0.2833 -1.0911
  610MOL0    Cl80432   6.893   0.098   7.207  0.4886  0.0495 -0.6730
  610MOL0     C80433   7.870   0.012   7.575  0.1274 -0.2860  0.4043
  610MOL0     C80434   7.976   0.102   7.570  0.1693 -0.1871  0.4614
  610MOL0     O80435   8.287   0.070   7.410 -0.2689 -0.2605 -0.7593
  610MOL0     C80436   8.405   0.345   7.606 -0.4603 -0.5500  1.0783
  610MOL0     C80437   8.518   0.432   7.605  0.4053  0.1136  1.4449
  610MOL0     N80438   9.084   0.634   7.081  0.2119 -0.3755  0.2112
  610MOL0     N80439   9.134   0.674   6.974 -0.4983  0.8661 -1.0032
  610MOL0     C80440  10.208   0.950   6.548 -0.5735  0.1772  0.0517
  610MOL0     C80441  10.335   0.950   6.492  1.7226  0.2511 -0.4105
  610MOL0     C80442  10.782   1.076   6.523  1.3713  0.1573  0.4183
  610MOL0     C80443  10.886   1.167   6.556 -0.5405 -0.7375  0.8206
  610MOL0     C80444  11.015   1.113   6.580 -1.0003 -0.4623 -0.1165
  610MOL0     C80445  11.043   0.978   6.583 -0.4680 -0.4960  1.6215
  610MOL0     O80446  11.162   0.931   6.623  0.3129  0.4489 -0.1069
  610MOL0     C80447  11.201   0.793   6.612 -0.4746 -0.1226  0.4623
  610MOL0     C80448  11.153   0.709   6.731  0.1246  0.5054  0.1542
  610MOL0     C80449  11.236   0.737   6.846  0.2600 -0.0393 -0.3117
  610MOL0     C80450  11.228   0.665   6.983  0.9756  0.4316  0.5789
  610MOL0     C80451  11.231   0.524   6.963 -0.3909  0.0593  0.5191
  610MOL0     C80452  11.239   0.407   6.951  0.3780  0.5322 -0.3150
  610MOL0     C80453  10.941   0.894   6.545 -0.0505  0.7259 -0.5633
  610MOL0     C80454  10.811   0.945   6.519  0.2317  0.1978  0.4280
  610MOL0     H80455  10.451   1.219   6.659  3.2963 -2.0234 -0.4528
  610MOL0     H80456  10.215   1.213   6.749 -2.3468 -0.5828 -1.8257
  610MOL0     H80457  10.021   1.215   6.788  0.7579 -0.3863 -1.1953
  610MOL0     H80458  10.022   1.059   6.878 -1.0390 -2.1320 -0.6875
  610MOL0     H80459   9.787   1.142   6.702 -1.8150  1.6915  1.1127
  610MOL0     H80460   9.820   1.224   6.856 -0.9762 -0.1062  1.7604
  610MOL0     H80461   9.746   1.000   6.960  0.3470  0.6569 -0.8262
  610MOL0     H80462   9.814   0.912   6.819  1.9381 -1.9013  1.8222
  610MOL0     H80463   9.560   1.097   6.829 -0.2711 -0.1700 -0.3467
  610MOL0     H80464   9.616   0.993   6.702  0.8389 -0.6041  0.9488
  610MOL0     H80465   9.565   0.909   7.000 -5.3843  1.3361  0.7780
  610MOL0     H80466   9.613   0.799   6.872 -0.4819 -0.9998  0.4887
  610MOL0     H80467   9.390   0.769   6.939 -1.4204 -0.8000 -0.8607
  610MOL0     H80468   9.404   0.828   6.774  0.1199 -1.9356  1.4870
  610MOL0     H80469   9.312   1.004   7.007 -0.6761  0.2898  0.0974
  610MOL0     H80470   9.316   1.048   6.834 -0.2607  1.3286  1.1968
  610MOL0     H80471   9.179   0.840   6.778  1.9970 -0.2551  0.3422
  610MOL0     H80472   9.095   0.977   6.854  0.3536  0.7627 -1.0705
  610MOL0     H80473   9.049   0.957   7.121 -2.4576  0.3365  1.1936
  610MOL0     H80474   8.983   0.853   7.330 -1.2284 -0.8340  2.8111
  610MOL0     H80475   9.071   0.717   7.371  1.7379  0.9367 -0.8722
  610MOL0     H80476   8.884   0.567   7.353 -0.8011 -0.2238  2.8396
  610MOL0     H80477   8.788   0.665   7.237  1.6520 -5.2310 -1.6521
  610MOL0     H80478   8.850   0.750   7.520 -1.9751  0.2979  1.8530
  610MOL0     H80479   8.753   0.835   7.403  1.1188  0.2600 -0.1129
  610MOL0     H80480   8.592   0.656   7.382 -2.4002  3.8400  1.4133
  610MOL0     H80481   8.617   0.717   7.551  2.3102 -1.8831  2.7415
  610MOL0     H80482   8.696   0.342   7.331  0.5378  2.1710 -0.7399
  610MOL0     H80483   8.501   0.155   7.336 -0.7534  0.7034 -1.1987
  610MOL0     H80484   8.225  -0.134   7.662  0.7047  0.6883 -0.2365
  610MOL0     H80485   8.033  -0.288   7.625  0.3582  0.3896 -0.3367
  610MOL0     H80486   7.638  -0.109   7.449 -2.6125 -2.6396 -2.3435
  610MOL0     H80487   7.604  -0.151   7.626 -0.5078 -1.5543 -0.1798
  610MOL0     H80488   7.608  -0.388   7.533 -1.5150 -0.6190 -0.2487
  610MOL0     H80489   7.589  -0.312   7.375  2.9897  1.4812 -0.8387
  610MOL0     H80490   7.398  -0.278   7.615 -1.2889 -2.5936  0.6271
  610MOL0     H80491   7.370  -0.378   7.470  1.1029  0.9567 -3.2492
  610MOL0     H80492   7.377  -0.078   7.497  0.6282 -2.5242  3.8020
  610MOL0     H80493   7.356  -0.165   7.332 -1.5428 -0.7729  0.3417
  610MOL0     H80494   7.163  -0.162   7.560  2.1054  3.5477 -0.1127
  610MOL0     H80495   7.172  -0.277   7.411 -0.2580 -1.0849  2.0788
  610MOL0     H80496   7.191   0.015   7.358  0.7515 -0.8815  0.0893
  610MOL0     H80497   7.038  -0.035   7.439  0.0896  2.5454 -1.9761
  610MOL0     H80498   7.142  -0.184   7.187 -1.5146 -1.4142 -1.6187
  610MOL0     H80499   6.991  -0.194   7.257  0.9278 -1.2672  3.3860
  610MOL0     H80500   6.967  -0.056   7.045 -2.4270 -1.5296  1.5828
  610MOL0     H80501   7.104   0.048   7.096  1.4363 -0.3493 -0.7477
  610MOL0     H80502   7.772   0.054   7.555 -0.2180 -0.5035  1.5876
  610MOL0     H80503   7.955   0.204   7.540 -0.3139  0.1993  2.0129
  610MOL0     H80504   8.339   0.350   7.693  0.2590  1.6697  1.5791
  610MOL0     H80505   8.535   0.508   7.680 -1.3086  1.9835  0.0682
  610MOL0     H80506  10.139   0.875   6.511 -4.9090  3.8674 -0.1608
  610MOL0     H80507  10.367   0.877   6.418 -1.2454 -0.3731 -1.2153
  610MOL0     H80508  10.868   1.273   6.575 -0.0750 -0.7876  1.5667
  610MOL0     H80509  11.101   1.178   6.599  0.9866 -2.4082 -1.9543
  610MOL0     H80510  11.309   0.797   6.601 -0.4960 -1.5521 -0.6052
  610MOL0     H80511  11.169   0.751   6.516 -1.8070  1.0652  0.3444
  610MOL0     H80512  11.050   0.737   6.755 -0.6391 -2.0802  0.1661
  610MOL0     H80513  11.159   0.605   6.700  3.3218  0.9980 -1.2810
  610MOL0     H80514  11.242   0.844   6.868 -1.1188  0.3577 -1.6947
  610MOL0     H80515  11.334   0.700   6.816  0.2215 -0.3064 -0.1120
  610MOL0     H80516  11.307   0.699   7.050  1.2329  0.2815  0.3488
  610MOL0     H80517  11.144   0.693   7.047  0.3730  2.3002 -0.9097
  610MOL0     H80518  11.246   0.301   6.963  0.8701  0.8572  3.7401
  610MOL0     H80519  10.952   0.787   6.557  1.1050  1.0343  1.6691
  610MOL0     H80520  10.738   0.870   6.492  1.8805 -1.7623  1.1377
  611MOL0     O80521   5.287   2.932   8.302  0.7331 -0.4650  0.9452
  611MOL0     C80522   5.320   2.867   8.208 -0.2464 -0.3807 -0.2051
  611MOL0     O80523   5.428   2.772   8.213  0.2112 -0.1277  0.2509
  611MOL0     C80524   5.444   2.702   8.329  0.8292  0.3798  1.4212
  611MOL0     C80525   5.340   2.631   8.391  0.3759 -0.8293  0.9736
  611MOL0     C80526   5.359   2.544   8.501  0.0892 -0.2245  0.0516
  611MOL0     C80527   5.482   2.538   8.562 -0.0936 -0.3026 -0.0179
  611MOL0     O80528   5.516   2.463   8.669  0.0791 -0.5182 -0.1039
  611MOL0     C80529   5.409   2.438   8.770  0.1907 -0.4509  0.0563
  611MOL0     C80530   5.459   2.505   8.906  0.2880  1.5967  0.6078
  611MOL0     C80531   5.548   2.420   8.990 -0.5094 -0.7150 -0.1022
  611MOL0     C80532   5.691   2.501   9.001  0.7388  0.3013 -0.1921
  611MOL0     C80533   5.690   2.644   9.056  0.2976 -0.0250 -0.2173
  611MOL0     C80534   5.609   2.655   9.184 -0.5530  0.1200  0.3742
  611MOL0     C80535   5.597   2.803   9.237  0.8022  0.2697 -0.1104
  611MOL0     C80536   5.531   2.898   9.141 -0.3418  0.5822  0.6492
  611MOL0     N80537   5.396   2.846   9.101 -0.1200 -0.2710  0.4025
  611MOL0     C80538   5.346   2.867   8.971  0.0026 -0.1415 -0.5765
  611MOL0     C80539   5.210   2.845   8.980 -0.1286 -0.4329 -0.2113
  611MOL0     C80540   5.113   2.856   8.869  0.5992 -0.1966 -0.0437
  611MOL0     C80541   5.143   2.968   8.768  0.7948 -0.8816  0.2844
  611MOL0     C80542   5.009   3.026   8.707 -0.2048 -0.9421  0.2315
  611MOL0     C80543   5.059   3.118   8.589  0.6509  0.1745 -0.3800
  611MOL0     O80544   4.952   3.193   8.545  0.1781 -0.5081 -0.8944
  611MOL0     C80545   4.911   3.211   8.419 -0.2358  0.2323  1.0803
  611MOL0     C80546   4.953   3.131   8.315 -0.7875 -0.6245  0.2764
  611MOL0     C80547   4.904   3.155   8.189  0.3016  0.0684  0.4805
  611MOL0     C80548   4.820   3.266   8.159 -0.3457  0.0588  0.0981
  611MOL0     C80549   4.784   3.313   8.020 -0.4971  0.0361 -0.3483
  611MOL0     O80550   4.847   3.247   7.915 -0.3213  0.1939  0.3121
  611MOL0     C80551   4.846   3.299   7.784 -0.0141 -0.7046 -0.1248
  611MOL0     C80552   4.751   3.276   7.682  0.5033 -0.2604  1.5271
  611MOL0     C80553   4.764   3.357   7.569  0.3664 -0.2418  0.1253
  611MOL0     C80554   4.867   3.448   7.548  0.0559  0.7032  0.0379
  611MOL0     O80555   4.870   3.505   7.428 -0.0987 -0.0015  0.3240
  611MOL0     C80556   4.935   3.626   7.415 -0.8181  0.3168  0.3176
  611MOL0     C80557   4.894   3.690   7.288 -0.7709 -0.1386 -0.3026
  611MOL0     C80558   4.899   3.604   7.167 -0.6674 -0.1444  0.0956
  611MOL0     C80559   4.842   3.684   7.047  0.0983 -0.3317  0.2950
  611MOL0     C80560   4.853   3.602   6.919  1.1224  0.0390  1.0813
  611MOL0     C80561   4.786   3.674   6.802 -0.0412 -0.5588 -0.0701
  611MOL0     C80562   4.799   3.595   6.671 -0.1111  0.1436  0.5360
  611MOL0     C80563   4.728   3.676   6.561 -1.1826  0.9232 -0.9232
  611MOL0    Cl80564   4.769   3.576   6.412 -0.0290  0.1005  0.1426
  611MOL0     C80565   4.961   3.467   7.647 -0.2978 -0.0927  0.4813
  611MOL0     C80566   4.949   3.394   7.767 -0.1167  0.6311  0.2593
  611MOL0     O80567   4.702   3.407   8.005  0.7934 -0.6309 -0.1287
  611MOL0     C80568   4.782   3.351   8.266 -0.0083 -0.2032  0.2855
  611MOL0     C80569   4.831   3.320   8.399  0.2834  0.4483 -0.9564
  611MOL0     N80570   5.179   2.825   9.115  0.1623 -0.8326 -0.7373
  611MOL0     N80571   5.290   2.817   9.187 -0.6421  0.0770  0.4502
  611MOL0     C80572   5.586   2.598   8.491  0.6593 -0.7844  0.5557
  611MOL0     C80573   5.570   2.674   8.370  0.3693 -0.1685 -0.0895
  611MOL0     C80574   5.273   2.896   8.073  0.9859 -0.1580  0.8287
  611MOL0     C80575   5.278   2.803   7.969 -0.1022 -0.1294  1.1730
  611MOL0     C80576   5.231   2.821   7.837 -0.0728  1.3748  0.2109
  611MOL0     C80577   5.193   2.948   7.801 -0.2494  0.3700 -0.4300
  611MOL0     O80578   5.131   2.985   7.684  0.3224  0.5327  1.8979
  611MOL0     C80579   5.146   2.905   7.570 -0.5220  0.5494 -0.2558
  611MOL0     C80580   5.138   2.998   7.449  0.7268  0.1929  0.0207
  611MOL0     C80581   4.996   3.058   7.426  0.5131  0.1319 -0.0821
  611MOL0     C80582   4.965   3.101   7.275 -0.1539  0.2118  0.0171
  611MOL0     C80583   5.048   3.211   7.226 -0.0932  0.3635 -0.0109
  611MOL0     C80584   5.112   3.300   7.181  0.9232 -0.0199  0.1489
  611MOL0     C80585   5.203   3.048   7.894  0.7240 -0.5417 -0.2297
  611MOL0     C80586   5.252   3.020   8.025 -0.4513  0.5564 -0.5409
  611MOL0     H80587   5.247   2.641   8.336 -1.1292  2.2725  3.6837
  611MOL0     H80588   5.280   2.489   8.550  0.3009 -0.4295  0.1650
  611MOL0     H80589   5.394   2.332   8.791  0.2930 -0.0325  2.5398
  611MOL0     H80590   5.310   2.481   8.753  0.1372  1.2973  3.8112
  611MOL0     H80591   5.362   2.512   8.955  0.2088 -0.8583  0.9595
  611MOL0     H80592   5.498   2.605   8.888  0.6352  1.1666 -1.2515
  611MOL0     H80593   5.555   2.325   8.935 -2.0597 -0.7450 -0.3114
  611MOL0     H80594   5.511   2.395   9.090  1.9504 -0.8888  0.8319
  611MOL0     H80595   5.750   2.436   9.065  2.4667  1.1377 -0.8713
  611MOL0     H80596   5.739   2.492   8.903  1.5903  0.8667  0.1550
  611MOL0     H80597   5.658   2.719   8.982 -1.4446 -0.4379  0.0761
  611MOL0     H80598   5.794   2.668   9.077  1.1210 -2.9284 -0.6240
  611MOL0     H80599   5.661   2.592   9.258  4.8967  4.2603  0.7681
  611MOL0     H80600   5.506   2.621   9.174  0.3026 -1.9087 -3.0147
  611MOL0     H80601   5.536   2.796   9.327  0.4715 -0.2318 -0.3678
  611MOL0     H80602   5.695   2.838   9.270  1.4836 -2.0831  0.5722
  611MOL0     H80603   5.587   2.929   9.051  1.0021  2.4445  2.0454
  611MOL0     H80604   5.511   2.991   9.194 -2.3858  0.1129  0.7974
  611MOL0     H80605   5.390   2.897   8.877  1.5050  1.9020  0.6963
  611MOL0     H80606   5.013   2.871   8.912  0.2939 -2.5155  0.1660
  611MOL0     H80607   5.109   2.758   8.821  0.8971 -1.4346  2.3454
  611MOL0     H80608   5.209   2.912   8.702  2.7983  1.1197  0.4558
  611MOL0     H80609   5.200   3.049   8.816  0.5613 -1.2131  1.1418
  611MOL0     H80610   4.935   2.948   8.686 -3.4801  1.6315  1.3482
  611MOL0     H80611   4.962   3.086   8.785 -2.2768 -0.8112 -1.0484
  611MOL0     H80612   5.102   3.053   8.512 -0.6901  1.1466 -2.0108
  611MOL0     H80613   5.147   3.173   8.624  0.0993  0.8248 -0.0063
  611MOL0     H80614   5.018   3.047   8.336  1.0582 -0.2657 -3.1967
  611MOL0     H80615   4.930   3.094   8.103  2.8419  0.4785  0.8797
  611MOL0     H80616   4.665   3.211   7.693  1.7070 -2.1608  0.2872
  611MOL0     H80617   4.701   3.350   7.481 -0.1903 -0.7239  0.5518
  611MOL0     H80618   5.042   3.604   7.423 -0.1064  3.6367  1.5119
  611MOL0     H80619   4.917   3.692   7.501  0.3908 -0.5452  1.2720
  611MOL0     H80620   4.949   3.784   7.282  0.7844 -0.9975 -0.0890
  611MOL0     H80621   4.789   3.716   7.306 -0.2057  2.0208  0.1027
  611MOL0     H80622   4.846   3.509   7.173 -1.1570  0.1717  0.9263
  611MOL0     H80623   5.004   3.583   7.146 -0.6774 -1.1622  0.9949
  611MOL0     H80624   4.734   3.696   7.065 -0.0956  0.9934 -1.5227
  611MOL0     H80625   4.884   3.784   7.036  0.8337 -0.2547  3.1724
  611MOL0     H80626   4.819   3.499   6.937  0.0183  0.1886 -0.0165
  611MOL0     H80627   4.957   3.601   6.883  0.5461  4.4386 -1.3024
  611MOL0     H80628   4.817   3.777   6.786 -0.4985 -0.5037 -0.6707
  611MOL0     H80629   4.681   3.696   6.823  0.6484  3.2679  0.0673
  611MOL0     H80630   4.904   3.571   6.654 -0.2566 -0.2772  0.2043
  611MOL0     H80631   4.746   3.500   6.675 -0.7564  0.3947 -1.1214
  611MOL0     H80632   4.781   3.771   6.553 -0.8908  0.6447 -2.5877
  611MOL0     H80633   4.623   3.694   6.587 -0.2975  2.1204  2.2296
  611MOL0     H80634   5.042   3.533   7.617 -2.4474  1.6682 -1.9708
  611MOL0     H80635   5.017   3.415   7.849 -1.8935 -1.9144  2.5710
  611MOL0     H80636   4.691   3.409   8.257  0.9441  1.0221 -3.9214
  611MOL0     H80637   4.797   3.355   8.496  0.0904 -2.3899  0.0996
  611MOL0     H80638   5.688   2.590   8.528  2.0962  1.5626 -2.3860
  611MOL0     H80639   5.650   2.698   8.301  2.0821 -0.7269  1.6212
  611MOL0     H80640   5.295   2.698   7.991 -0.7000 -0.9629 -1.9459
  611MOL0     H80641   5.217   2.738   7.769  2.0032  0.3638  0.9200
  611MOL0     H80642   5.071   2.826   7.563 -0.0925  0.0518  0.6065
  611MOL0     H80643   5.245   2.859   7.564 -1.3838 -1.3808 -0.5666
  611MOL0     H80644   5.204   3.086   7.456  1.7804 -0.7043  4.0820
  611MOL0     H80645   5.159   2.936   7.362 -1.4924 -0.9927  0.2706
  611MOL0     H80646   4.974   3.145   7.488  0.4828  1.0815 -1.3746
  611MOL0     H80647   4.917   2.984   7.443  0.6431 -0.4025 -1.5845
  611MOL0     H80648   4.964   3.010   7.215  1.6168 -0.7015  1.2901
  611MOL0     H80649   4.860   3.132   7.266 -1.8668 -5.0588 -1.2379
  611MOL0     H80650   5.168   3.385   7.147 -1.6305  1.5100 -0.5768
  611MOL0     H80651   5.162   3.143   7.861  0.2696 -0.6444  0.0343
  611MOL0     H80652   5.254   3.093   8.106  1.8115 -0.8345  0.7605
  612MOL0     O80653   5.920   3.642  10.526 -0.4718  0.3199  0.4345
  612MOL0     C80654   5.983   3.681  10.427 -0.1189 -0.1289 -0.8158
  612MOL0     O80655   5.989   3.802  10.376  0.8051 -0.6552  0.5269
  612MOL0     C80656   5.918   3.903  10.445 -0.0192  1.1507  0.5200
  612MOL0     C80657   5.791   3.888  10.513  0.0140  0.8257  0.5444
  612MOL0     C80658   5.743   3.994  10.587  0.6964  0.2942 -0.7342
  612MOL0     C80659   5.791   4.121  10.573  0.5946 -0.1271 -0.4066
  612MOL0     O80660   5.714   4.222  10.628 -0.3937 -0.1656 -0.0145
  612MOL0     C80661   5.730   4.356  10.609  0.5910 -0.1795 -0.3697
  612MOL0     C80662   5.832   4.414  10.702 -0.8475  0.0698 -0.3764
  612MOL0     C80663   5.791   4.392  10.852 -0.6596 -0.5872  0.0101
  612MOL0     C80664   5.646   4.418  10.890  0.6896  0.1718 -1.1711
  612MOL0     C80665   5.631   4.362  11.030  0.4414  0.1437 -1.1044
  612MOL0     C80666   5.484   4.378  11.067 -0.0429  0.2542  0.4419
  612MOL0     C80667   5.436   4.316  11.203 -0.0379  0.5394 -0.1108
  612MOL0     C80668   5.473   4.395  11.331 -0.9091  0.3100 -0.2730
  612MOL0     N80669   5.410   4.331  11.455  0.9908  0.7035 -0.0432
  612MOL0     C80670   5.470   4.305  11.571 -0.5582 -0.1730  0.2232
  612MOL0     C80671   5.386   4.249  11.659 -0.2779  0.1094  0.1919
  612MOL0     C80672   5.420   4.188  11.791 -1.1078  0.3369  0.4181
  612MOL0     C80673   5.399   4.032  11.798 -1.3572  0.3807 -0.3864
  612MOL0     C80674   5.493   3.960  11.889  0.8898  0.4516 -0.8725
  612MOL0     C80675   5.474   3.810  11.865 -0.1833 -0.0864  0.0830
  612MOL0     O80676   5.472   3.745  11.995  0.4709  0.0808  0.3701
  612MOL0     C80677   5.353   3.747  12.073 -0.7037 -0.1101 -0.3463
  612MOL0     C80678   5.226   3.792  12.019  0.0986 -0.5621 -0.3447
  612MOL0     C80679   5.113   3.814  12.110  0.5318  0.4042 -0.5225
  612MOL0     C80680   5.131   3.784  12.249  0.0722  1.0585  0.3132
  612MOL0     C80681   5.016   3.782  12.339  0.6101  0.1691  0.0741
  612MOL0     O80682   4.897   3.837  12.289  0.5239  0.3424 -0.2691
  612MOL0     C80683   4.792   3.863  12.378 -0.6750 -0.0426 -0.9522
  612MOL0     C80684   4.773   3.997  12.411  0.3210  0.0773 -0.5570
  612MOL0     C80685   4.654   4.037  12.475 -0.2913 -0.1265  0.0418
  612MOL0     C80686   4.570   3.943  12.527 -0.1591  0.1444 -1.1808
  612MOL0     O80687   4.456   3.983  12.598 -0.0322 -0.0837  0.9523
  612MOL0     C80688   4.479   4.082  12.708 -0.6318 -0.6801 -0.6787
  612MOL0     C80689   4.389   4.057  12.836 -0.1200  0.1577  0.8877
  612MOL0     C80690   4.251   4.092  12.778  0.6809 -0.4082 -0.2786
  612MOL0     C80691   4.154   4.071  12.893  0.3834 -0.8591  0.8425
  612MOL0     C80692   4.005   4.063  12.858 -0.4232 -0.0747 -0.0053
  612MOL0     C80693   3.929   4.192  12.830 -0.2482 -0.1886 -0.0426
  612MOL0     C80694   3.967   4.310  12.919 -0.0684 -0.2256 -0.5354
  612MOL0     C80695   3.910   4.447  12.870 -0.1202  0.0721  0.4639
  612MOL0    Cl80696   4.027   4.575  12.893  0.2675 -0.0027  0.1617
  612MOL0     C80697   4.584   3.813  12.480 -0.2341  0.5698  0.6638
  612MOL0     C80698   4.689   3.770  12.402  0.7250 -0.3238 -0.5417
  612MOL0     O80699   5.043   3.767  12.460 -0.2221  0.4675  0.3489
  612MOL0     C80700   5.257   3.733  12.290 -0.3271  0.5631 -0.6693
  612MOL0     C80701   5.370   3.720  12.206 -1.8430 -0.2943  0.3557
  612MOL0     N80702   5.261   4.257  11.599 -0.3960  0.4047  0.0137
  612MOL0     N80703   5.277   4.316  11.484  0.6497  0.1034 -0.1245
  612MOL0     C80704   5.917   4.138  10.520  0.0273 -0.3883  0.5240
  612MOL0     C80705   5.974   4.028  10.446  0.1798  0.1427  0.4257
  612MOL0     C80706   6.060   3.577  10.370  0.0897  0.1939  1.0410
  612MOL0     C80707   6.057   3.446  10.423  0.4695 -0.2479  0.0343
  612MOL0     C80708   6.137   3.344  10.373 -0.0722 -0.4346 -0.7500
  612MOL0     C80709   6.220   3.361  10.264 -0.1975  0.0530  0.0841
  612MOL0     O80710   6.298   3.260  10.227 -0.7513  0.2305  0.1646
  612MOL0     C80711   6.383   3.262  10.109 -0.0878 -0.4079 -0.3578
  612MOL0     C80712   6.474   3.125  10.113 -0.7524 -0.9637  0.3402
  612MOL0     C80713   6.394   3.010  10.144  0.4091  1.0430 -0.5111
  612MOL0     C80714   6.491   2.878  10.167  0.0199 -1.2809 -0.8752
  612MOL0     C80715   6.578   2.837  10.058 -0.2503  0.9024  1.1607
  612MOL0     C80716   6.661   2.798   9.977 -0.3902 -0.3889  0.6665
  612MOL0     C80717   6.213   3.481  10.200  0.7386  0.2876 -0.4274
  612MOL0     C80718   6.146   3.585  10.248  0.0700  0.4879 -0.0804
  612MOL0     H80719   5.728   3.800  10.513 -2.0750  2.2367  1.5165
  612MOL0     H80720   5.654   3.978  10.646  0.0286  1.8758 -1.2614
  612MOL0     H80721   5.634   4.408  10.620 -1.1943 -2.9061 -1.8778
  612MOL0     H80722   5.754   4.373  10.503 -0.4470 -0.7374 -0.7130
  612MOL0     H80723   5.847   4.522  10.689  1.3492 -0.3351 -1.6211
  612MOL0     H80724   5.930   4.369  10.687 -0.0899  1.4517  0.2118
  612MOL0     H80725   5.860   4.454  10.909  1.9128 -1.7305 -1.6515
  612MOL0     H80726   5.823   4.291  10.877  3.3586  0.6111  0.3754
  612MOL0     H80727   5.623   4.525  10.895  2.3858  0.5378 -0.4460
  612MOL0     H80728   5.577   4.360  10.827 -2.3666  3.9472 -1.6609
  612MOL0     H80729   5.696   4.406  11.105  2.9702 -0.5921 -2.7296
  612MOL0     H80730   5.659   4.257  11.020  0.9568  0.0765  0.6766
  612MOL0     H80731   5.410   4.339  10.996 -4.3175  2.8031  3.0446
  612MOL0     H80732   5.467   4.486  11.074 -0.0354  0.3177 -0.4979
  612MOL0     H80733   5.327   4.313  11.207 -0.2119  3.9633  2.0404
  612MOL0     H80734   5.476   4.215  11.216  2.0342  1.3866  0.6324
  612MOL0     H80735   5.436   4.498  11.317  0.9026  0.6340 -3.9400
  612MOL0     H80736   5.581   4.393  11.344 -0.9104  4.3761  2.2966
  612MOL0     H80737   5.577   4.318  11.588  0.1462 -2.4398 -1.8820
  612MOL0     H80738   5.353   4.245  11.857 -1.5868  0.3864 -0.1038
  612MOL0     H80739   5.523   4.210  11.821  0.0638  0.1184 -3.0748
  612MOL0     H80740   5.429   3.990  11.701 -0.0165 -0.0601  0.1973
  612MOL0     H80741   5.295   4.007  11.821 -0.6589 -2.0448  0.4492
  612MOL0     H80742   5.595   3.998  11.882  1.5865 -1.5348 -2.6046
  612MOL0     H80743   5.462   3.988  11.990  1.1925  1.7147 -1.1142
  612MOL0     H80744   5.558   3.766  11.811  0.1207  1.0547 -0.3911
  612MOL0     H80745   5.379   3.791  11.813  0.9720 -3.5126 -1.0843
  612MOL0     H80746   5.207   3.822  11.916  1.3323  1.6322 -0.0111
  612MOL0     H80747   5.012   3.834  12.078  0.0988 -0.5386  0.1917
  612MOL0     H80748   4.840   4.078  12.385  1.1631  0.0931  1.4312
  612MOL0     H80749   4.625   4.140  12.492  3.7796  1.1556  0.2713
  612MOL0     H80750   4.460   4.188  12.685 -2.7593 -0.7242  0.5877
  612MOL0     H80751   4.585   4.082  12.735 -0.4528 -0.7184 -1.3453
  612MOL0     H80752   4.412   4.122  12.920 -0.9112  0.0324  1.2117
  612MOL0     H80753   4.393   3.951  12.863 -0.1853  0.4397  2.0435
  612MOL0     H80754   4.224   4.012  12.709 -1.0197 -0.2170  0.1119
  612MOL0     H80755   4.237   4.194  12.741 -0.9184  0.8039  3.1923
  612MOL0     H80756   4.162   3.973  12.941  0.7556 -0.2395  2.0880
  612MOL0     H80757   4.173   4.149  12.967 -0.6156 -0.5175  0.7519
  612MOL0     H80758   3.951   4.024  12.944  0.4608 -0.9588  0.1730
  612MOL0     H80759   4.002   3.995  12.772 -1.5486 -0.1093  0.0446
  612MOL0     H80760   3.821   4.175  12.838 -0.0373 -1.8319 -0.2832
  612MOL0     H80761   3.955   4.206  12.725  0.4666  1.0202  0.2827
  612MOL0     H80762   3.929   4.293  13.021  0.0439 -0.6402 -0.5614
  612MOL0     H80763   4.075   4.327  12.927 -0.0347 -1.0803  2.2511
  612MOL0     H80764   3.808   4.458  12.910  0.8154  1.1882  2.6879
  612MOL0     H80765   3.907   4.450  12.760 -2.8546  4.6496  0.4175
  612MOL0     H80766   4.512   3.741  12.515 -0.4119 -0.2512 -1.2569
  612MOL0     H80767   4.703   3.665  12.376  1.7222 -0.3004 -0.1388
  612MOL0     H80768   5.257   3.690  12.390  0.6995 -3.4125 -2.1816
  612MOL0     H80769   5.470   3.691  12.238 -1.2152  1.6727  0.3509
  612MOL0     H80770   5.963   4.235  10.526 -1.9201  0.6003  0.3259
  612MOL0     H80771   6.070   4.046  10.399 -0.3389  0.8037 -0.3984
  612MOL0     H80772   5.994   3.422  10.508  2.1111  0.1186  1.4092
  612MOL0     H80773   6.145   3.256  10.436  1.8072  0.3645  0.1997
  612MOL0     H80774   6.446   3.350  10.097  1.7417 -1.5068  0.7923
  612MOL0     H80775   6.318   3.243  10.023  1.1612 -3.1596 -0.7967
  612MOL0     H80776   6.541   3.109  10.028 -1.5119  1.4526 -0.8272
  612MOL0     H80777   6.543   3.137  10.196 -3.1237 -0.1825  2.3184
  612MOL0     H80778   6.321   2.991  10.065 -0.8193  1.3845  0.5015
  612MOL0     H80779   6.338   3.018  10.238  3.3339  0.7906  1.4013
  612MOL0     H80780   6.549   2.899  10.257  1.3037  0.3670 -2.0274
  612MOL0     H80781   6.420   2.797  10.188  0.3572 -1.4640 -0.4370
  612MOL0     H80782   6.738   2.761   9.912  0.6011 -0.1647  1.6827
  612MOL0     H80783   6.274   3.495  10.111  0.8718 -0.8609 -0.5318
  612MOL0     H80784   6.163   3.682  10.203 -0.1066  1.2079  1.3358
  613MOL0     O80785   2.630   0.771   5.655  1.5335  0.3422 -0.4514
  613MOL0     C80786   2.662   0.890   5.650  0.2547  0.6513  0.7878
  613MOL0     O80787   2.598   0.993   5.714  0.1613  0.5153  0.1324
  613MOL0     C80788   2.497   0.968   5.802 -0.7179  0.5278 -1.5186
  613MOL0     C80789   2.373   1.023   5.794 -0.4774  0.2561 -1.0543
  613MOL0     C80790   2.265   0.988   5.878 -1.3147 -0.3576 -0.6876
  613MOL0     C80791   2.289   0.914   5.994 -0.7010  0.1355  0.5727
  613MOL0     O80792   2.185   0.904   6.075  0.7833  0.5110  0.5059
  613MOL0     C80793   2.207   0.882   6.215 -0.6741  0.1789 -1.0346
  613MOL0     C80794   2.278   1.002   6.281 -0.5859 -0.3370 -0.9315
  613MOL0     C80795   2.242   1.002   6.429 -0.8820  0.7895  0.9219
  613MOL0     C80796   2.301   1.121   6.502  0.8281  0.8922 -0.0286
  613MOL0     C80797   2.205   1.138   6.624  0.2000 -0.0038  0.0661
  613MOL0     C80798   2.277   1.231   6.733 -0.4339 -0.3086 -0.6190
  613MOL0     C80799   2.169   1.282   6.825  0.3001 -0.4621 -0.6770
  613MOL0     C80800   2.231   1.360   6.944  0.7409  0.4405 -0.0016
  613MOL0     N80801   2.134   1.384   7.052  0.8777 -0.3122  0.3372
  613MOL0     C80802   2.064   1.292   7.124  0.1944  0.4529 -0.1327
  613MOL0     C80803   2.014   1.356   7.234  0.2991 -0.0367  0.5839
  613MOL0     C80804   1.944   1.281   7.341  1.2729 -0.2211 -0.9080
  613MOL0     C80805   1.795   1.277   7.332 -0.2058  0.4563 -0.9183
  613MOL0     C80806   1.723   1.235   7.461  0.0624 -0.6861  0.1930
  613MOL0     C80807   1.787   1.134   7.548 -0.5580 -0.0286 -0.2208
  613MOL0     O80808   1.773   0.996   7.499 -0.5775  0.2715 -0.6704
  613MOL0     C80809   1.798   0.890   7.583  0.2689 -0.4200 -0.4525
  613MOL0     C80810   1.835   0.898   7.721 -0.9054 -0.4229 -0.1304
  613MOL0     C80811   1.853   0.772   7.784  0.2911 -0.0645  0.3446
  613MOL0     C80812   1.848   0.648   7.722  0.6899  1.0057  0.3481
  613MOL0     C80813   1.878   0.525   7.792  0.3251 -0.3772 -0.2874
  613MOL0     O80814   1.808   0.414   7.760  0.5235  0.0155  0.3589
  613MOL0     C80815   1.857   0.299   7.810  0.0277 -0.7718 -0.2420
  613MOL0     C80816   1.812   0.268   7.936 -0.2429  0.7646 -0.2197
  613MOL0     C80817   1.849   0.142   7.983 -0.3980  0.7978 -0.2039
  613MOL0     C80818   1.928   0.052   7.917 -0.0371 -0.7033 -0.0356
  613MOL0     O80819   1.966  -0.057   7.980 -0.1545 -0.0079 -0.0633
  613MOL0     C80820   1.896  -0.170   7.924  0.9696 -0.8157  0.5552
  613MOL0     C80821   1.911  -0.282   8.026  0.0828 -0.1450  0.0643
  613MOL0     C80822   1.835  -0.415   7.971  0.1568  0.0367  0.3945
  613MOL0     C80823   1.920  -0.534   8.008 -0.7195  0.0108  0.4832
  613MOL0     C80824   1.870  -0.655   7.941  0.2306  0.5351 -0.9387
  613MOL0     C80825   1.986  -0.755   7.932  0.2035  0.1790  0.3072
  613MOL0     C80826   2.052  -0.794   8.063 -0.2229  0.2333  0.1004
  613MOL0     C80827   2.193  -0.850   8.017  0.1879 -0.5975  0.9861
  613MOL0    Cl80828   2.292  -0.710   7.977 -0.1384  0.6608 -0.3183
  613MOL0     C80829   1.972   0.091   7.791  0.5472 -0.1680  0.3655
  613MOL0     C80830   1.944   0.213   7.734  1.2039 -0.2317 -0.4133
  613MOL0     O80831   1.968   0.532   7.874  0.1794  0.1713 -0.1228
  613MOL0     C80832   1.819   0.646   7.596 -0.9658 -0.5151  0.7242
  613MOL0     C80833   1.791   0.765   7.521 -1.3873  0.3534 -0.2593
  613MOL0     N80834   2.046   1.484   7.228  0.7887  0.0261 -0.0677
  613MOL0     N80835   2.113   1.503   7.112  0.1252 -0.0266 -0.4672
  613MOL0     C80836   2.421   0.853   6.007  1.0613  0.5483 -0.1799
  613MOL0     C80837   2.524   0.880   5.912 -0.4468  0.4239  0.2211
  613MOL0     C80838   2.769   0.919   5.551  0.2302 -0.4314 -0.8350
  613MOL0     C80839   2.814   1.056   5.545 -0.0313  0.6644  0.1281
  613MOL0     C80840   2.924   1.088   5.468  0.1040 -0.5959 -0.1688
  613MOL0     C80841   2.990   0.988   5.393 -0.0869  0.6413  0.0970
  613MOL0     O80842   3.086   1.038   5.313 -0.4742 -0.2737  0.0886
  613MOL0     C80843   3.195   0.947   5.291  0.5766 -0.8354  0.5831
  613MOL0     C80844   3.188   0.856   5.167  0.2675 -0.7419  0.4936
  613MOL0     C80845   3.141   0.942   5.045  0.9211 -0.6443  0.1333
  613MOL0     C80846   3.096   0.855   4.923 -0.1293  0.0263 -0.4062
  613MOL0     C80847   2.996   0.744   4.947  0.4495 -0.1515  0.4608
  613MOL0     C80848   2.915   0.657   4.960 -0.4222 -0.2221 -0.4695
  613MOL0     C80849   2.951   0.857   5.408 -0.0861  0.0274 -0.8394
  613MOL0     C80850   2.842   0.826   5.490  0.0687 -0.8350 -0.0331
  613MOL0     H80851   2.350   1.084   5.707 -3.9869  3.4633  1.7948
  613MOL0     H80852   2.168   1.031   5.855 -1.5239 -2.0444 -3.3923
  613MOL0     H80853   2.265   0.791   6.236  1.8335  2.2828  2.0225
  613MOL0     H80854   2.112   0.859   6.264  1.0520 -2.6650  1.3038
  613MOL0     H80855   2.246   1.091   6.227  0.7759  0.3735 -0.5935
  613MOL0     H80856   2.387   0.995   6.267 -0.7566 -2.9992 -1.6142
  613MOL0     H80857   2.275   0.909   6.477 -1.4655 -0.3517 -0.7793
  613MOL0     H80858   2.133   0.997   6.433 -0.8848 -1.6919 -0.1123
  613MOL0     H80859   2.400   1.101   6.544 -0.3342 -1.9453  1.6922
  613MOL0     H80860   2.286   1.212   6.444 -0.2349 -2.0244 -4.9488
  613MOL0     H80861   2.187   1.039   6.667 -0.8516  1.2161  2.6488
  613MOL0     H80862   2.115   1.187   6.585  2.4616  5.3583  0.6753
  613MOL0     H80863   2.328   1.314   6.683  0.2858  0.2310  0.9493
  613MOL0     H80864   2.356   1.178   6.787  0.9569  3.0820  0.9505
  613MOL0     H80865   2.108   1.355   6.771  2.6653  1.2970 -1.1504
  613MOL0     H80866   2.100   1.208   6.865 -1.0064  2.3522  2.8100
  613MOL0     H80867   2.273   1.457   6.915  0.8820 -0.4848 -3.3232
  613MOL0     H80868   2.313   1.316   7.001  1.2536  2.0884  0.6153
  613MOL0     H80869   2.076   1.188   7.098  1.4581  0.6444 -0.3694
  613MOL0     H80870   1.983   1.316   7.437 -1.7361 -4.2286  2.1653
  613MOL0     H80871   1.972   1.175   7.340 -1.1748 -0.9356 -0.1152
  613MOL0     H80872   1.767   1.204   7.255  2.2221 -0.9068 -0.5847
  613MOL0     H80873   1.757   1.377   7.306  0.2733  1.4637  1.9676
  613MOL0     H80874   1.705   1.327   7.517 -0.2569 -0.3723 -0.4166
  613MOL0     H80875   1.626   1.204   7.419  0.1915 -2.2629  0.9673
  613MOL0     H80876   1.738   1.145   7.645 -3.0023  3.6933 -1.6879
  613MOL0     H80877   1.895   1.149   7.563 -1.0089  1.6455  1.8521
  613MOL0     H80878   1.836   0.994   7.771 -3.5160 -0.0716 -0.5806
  613MOL0     H80879   1.878   0.770   7.890 -1.6200 -1.6394  0.8275
  613MOL0     H80880   1.738   0.329   7.987  0.1513  2.1529 -1.2589
  613MOL0     H80881   1.799   0.121   8.077 -1.5250 -2.8911 -1.4525
  613MOL0     H80882   1.958  -0.203   7.840  3.4351  3.5872  0.3630
  613MOL0     H80883   1.791  -0.155   7.900  0.1214  1.8645  4.8398
  613MOL0     H80884   1.872  -0.243   8.120  3.0213  0.4302  1.1347
  613MOL0     H80885   2.014  -0.302   8.056  1.0477  2.3084 -1.3374
  613MOL0     H80886   1.811  -0.415   7.864 -2.8705 -0.1001  0.9876
  613MOL0     H80887   1.739  -0.422   8.022  0.3790  2.1923  1.1959
  613MOL0     H80888   2.021  -0.516   7.970  0.6905 -2.4140  2.7427
  613MOL0     H80889   1.921  -0.537   8.118 -0.1835  1.4025  0.5405
  613MOL0     H80890   1.829  -0.642   7.840 -5.5314 -2.5225  0.5422
  613MOL0     H80891   1.797  -0.701   8.008  0.1291 -0.3121 -1.5977
  613MOL0     H80892   2.060  -0.722   7.858 -0.7420 -1.0918 -1.2828
  613MOL0     H80893   1.941  -0.849   7.898  0.0995 -0.4128  2.0067
  613MOL0     H80894   2.063  -0.712   8.135  1.1375  0.6804 -0.5697
  613MOL0     H80895   1.999  -0.864   8.128  0.0842 -0.5428 -0.4696
  613MOL0     H80896   2.192  -0.913   7.928  0.8681  0.8060 -0.0571
  613MOL0     H80897   2.247  -0.898   8.099  1.5043 -0.1788  0.3868
  613MOL0     H80898   2.027   0.009   7.746  1.3413  0.7906 -0.4630
  613MOL0     H80899   1.969   0.250   7.635 -0.1603  1.4156 -0.1860
  613MOL0     H80900   1.826   0.548   7.551  1.6630 -0.9257  1.8756
  613MOL0     H80901   1.777   0.751   7.414  0.8015  0.6488 -0.6380
  613MOL0     H80902   2.434   0.789   6.093 -0.9389 -1.4124 -1.2342
  613MOL0     H80903   2.619   0.829   5.925 -1.0981 -1.8821 -2.9113
  613MOL0     H80904   2.761   1.143   5.581 -1.7953  0.0272 -0.8011
  613MOL0     H80905   2.940   1.193   5.447 -1.8019 -0.3276 -0.4008
  613MOL0     H80906   3.206   0.883   5.380  0.0506  0.8632  1.9252
  613MOL0     H80907   3.285   1.002   5.262 -0.7245  0.1353 -1.8388
  613MOL0     H80908   3.282   0.810   5.136  1.7132  1.9024  0.6017
  613MOL0     H80909   3.120   0.772   5.181  2.0445 -1.9819  2.2499
  613MOL0     H80910   3.230   0.997   5.014 -1.2547  2.1488 -1.6140
  613MOL0     H80911   3.067   1.018   5.071  2.0987  1.4176 -2.0991
  613MOL0     H80912   3.047   0.921   4.850  0.6782  0.7545 -0.3024
  613MOL0     H80913   3.193   0.818   4.888  0.7146  0.0627  1.7476
  613MOL0     H80914   2.840   0.581   4.955  0.6896 -1.2924 -1.8176
  613MOL0     H80915   2.991   0.769   5.358  1.5575  1.4742 -2.2190
  613MOL0     H80916   2.813   0.721   5.495  0.1227 -0.9341 -1.4529
  614MOL0     O80917   9.496   8.850   7.722 -0.2418  0.0403  0.2709
  614MOL0     C80918   9.550   8.784   7.632  0.9085 -0.0930  0.5816
  614MOL0     O80919   9.488   8.753   7.516 -0.4641 -0.9736 -0.9101
  614MOL0     C80920   9.371   8.817   7.490 -0.0445 -0.9740  0.1044
  614MOL0     C80921   9.241   8.771   7.540 -0.4303  0.6605  0.4067
  614MOL0     C80922   9.123   8.841   7.542 -0.3499  0.3619 -0.5299
  614MOL0     C80923   9.121   8.973   7.494  0.0062  0.4357  0.5527
  614MOL0     O80924   9.008   9.052   7.490 -0.3012 -0.2758  0.3592
  614MOL0     C80925   8.879   8.996   7.483 -0.1907 -0.0733 -0.4007
  614MOL0     C80926   8.771   9.107   7.479 -0.9149  0.2063  1.5516
  614MOL0     C80927   8.631   9.042   7.459 -0.9164  0.6554 -0.7048
  614MOL0     C80928   8.524   9.147   7.442  0.1512  0.1292  0.7597
  614MOL0     C80929   8.388   9.079   7.449  0.4742  0.7572 -0.5015
  614MOL0     C80930   8.334   9.086   7.592  0.3738  0.3557 -0.2527
  614MOL0     C80931   8.204   9.006   7.627  0.7460  0.4871 -0.1053
  614MOL0     C80932   8.215   8.850   7.605 -0.6128 -0.4597 -1.0305
  614MOL0     N80933   8.091   8.773   7.628 -0.3954 -0.1468  0.1827
  614MOL0     C80934   8.033   8.769   7.759  0.1034  0.5619  0.0380
  614MOL0     C80935   7.961   8.662   7.752  0.2231  0.7052  0.0815
  614MOL0     C80936   7.877   8.626   7.875 -0.0987 -1.5601 -0.2812
  614MOL0     C80937   7.964   8.576   7.988  0.2174 -0.0084 -1.0745
  614MOL0     C80938   7.889   8.516   8.112  0.1631 -0.5218 -0.1900
  614MOL0     C80939   7.792   8.400   8.082  0.4148 -0.0394  0.3499
  614MOL0     O80940   7.731   8.361   8.208 -1.0027  0.5000  0.6355
  614MOL0     C80941   7.680   8.239   8.211  0.4975 -0.2995 -0.1818
  614MOL0     C80942   7.579   8.200   8.122 -0.1531  0.4911  0.8224
  614MOL0     C80943   7.514   8.079   8.136  0.3007  0.7595  0.5111
  614MOL0     C80944   7.539   7.995   8.245 -1.0618  0.9930  0.4632
  614MOL0     C80945   7.467   7.863   8.259 -0.1367  0.8465 -0.4986
  614MOL0     O80946   7.367   7.837   8.165  0.2013 -0.5344 -0.7496
  614MOL0     C80947   7.299   7.724   8.176 -0.0802 -0.1216 -1.3483
  614MOL0     C80948   7.166   7.730   8.204 -0.5675  0.3623 -0.2983
  614MOL0     C80949   7.089   7.613   8.222  0.0583 -0.1120  0.2818
  614MOL0     C80950   7.142   7.486   8.192  0.5753  0.5122  0.0421
  614MOL0     O80951   7.078   7.366   8.192 -0.2040  0.9612 -0.3036
  614MOL0     C80952   6.976   7.345   8.285  1.0109 -0.4690 -0.4068
  614MOL0     C80953   7.022   7.321   8.432 -0.0147 -0.0200  0.1436
  614MOL0     C80954   7.099   7.420   8.511  1.1640 -1.0003  0.3944
  614MOL0     C80955   7.030   7.486   8.629  0.7185 -0.0551  0.2570
  614MOL0     C80956   6.910   7.582   8.578  0.1175  0.6077  0.3426
  614MOL0     C80957   6.845   7.652   8.701  0.7739 -0.2050 -0.6472
  614MOL0     C80958   6.757   7.765   8.655  0.2573 -0.8885  1.0072
  614MOL0     C80959   6.695   7.851   8.772 -0.4233 -0.2913  0.0614
  614MOL0    Cl80960   6.596   7.723   8.857  0.1486 -0.0092  0.2189
  614MOL0     C80961   7.278   7.485   8.164  0.0971  0.1796  0.6974
  614MOL0     C80962   7.358   7.602   8.167  0.5425  0.3731  0.4056
  614MOL0     O80963   7.512   7.780   8.346  0.1776 -0.3923  0.5830
  614MOL0     C80964   7.633   8.040   8.341 -1.2512 -0.0033 -0.1853
  614MOL0     C80965   7.708   8.157   8.323  1.4111 -0.5815 -0.5389
  614MOL0     N80966   7.964   8.603   7.623  0.0102 -0.3927 -0.5247
  614MOL0     N80967   8.041   8.677   7.548 -0.0885 -0.3815 -0.0758
  614MOL0     C80968   9.243   9.026   7.452  0.4322 -0.9766 -0.3601
  614MOL0     C80969   9.362   8.948   7.438  0.0555 -0.9834 -1.0313
  614MOL0     C80970   9.677   8.725   7.643 -1.3400  0.7765 -0.1557
  614MOL0     C80971   9.747   8.647   7.550  0.0452 -0.0925  0.6115
  614MOL0     C80972   9.882   8.596   7.569 -0.1566 -0.0915 -0.6141
  614MOL0     C80973   9.935   8.609   7.697  0.4317  0.8342  0.8215
  614MOL0     O80974  10.068   8.572   7.718 -0.0452  0.6634  0.6191
  614MOL0     C80975  10.130   8.471   7.625  0.0090 -0.8097  0.1538
  614MOL0     C80976  10.235   8.390   7.696 -0.2688  0.6924  0.9768
  614MOL0     C80977  10.352   8.469   7.754  0.2860 -0.5188 -0.3324
  614MOL0     C80978  10.432   8.546   7.645 -0.2574 -0.6519 -0.5113
  614MOL0     C80979  10.494   8.459   7.553  0.8515  0.3570 -0.4904
  614MOL0     C80980  10.509   8.372   7.467 -1.0697 -0.1219 -0.0020
  614MOL0     C80981   9.872   8.684   7.789  0.6587  0.5181  0.7302
  614MOL0     C80982   9.745   8.740   7.768  0.4063 -0.4313 -0.4535
  614MOL0     H80983   9.240   8.674   7.589  0.6557 -0.0371 -0.8895
  614MOL0     H80984   9.036   8.801   7.592  2.2097 -1.0811  3.2066
  614MOL0     H80985   8.853   8.927   7.563 -3.1221 -0.9263 -1.9388
  614MOL0     H80986   8.876   8.939   7.389 -1.3010  1.1987 -1.1869
  614MOL0     H80987   8.795   9.170   7.393 -0.3883 -2.3569 -0.2874
  614MOL0     H80988   8.779   9.169   7.569 -0.3779 -0.4466  1.9583
  614MOL0     H80989   8.610   8.994   7.556  3.6851 -0.6127 -0.0647
  614MOL0     H80990   8.631   8.965   7.382  2.6068 -0.1437 -0.0829
  614MOL0     H80991   8.534   9.217   7.525  0.2649 -1.5558  2.2428
  614MOL0     H80992   8.543   9.192   7.344 -1.7115 -0.7074 -0.0315
  614MOL0     H80993   8.389   8.981   7.402 -1.3008  0.6790 -0.4161
  614MOL0     H80994   8.320   9.141   7.391  0.0536 -0.9189 -1.8667
  614MOL0     H80995   8.319   9.190   7.622 -0.4008  0.6445 -1.5461
  614MOL0     H80996   8.418   9.058   7.655  0.1236 -0.3608 -0.2310
  614MOL0     H80997   8.190   9.028   7.733  1.6239  0.0357  0.1136
  614MOL0     H80998   8.117   9.038   7.569  0.1627 -0.3820  0.2732
  614MOL0     H80999   8.296   8.815   7.670  0.0853 -1.1388 -2.2339
  614MOL0     H81000   8.244   8.844   7.500  2.6976  2.7347 -0.5001
  614MOL0     H81001   8.043   8.829   7.849 -1.2069  0.2357  0.4327
  614MOL0     H81002   7.805   8.551   7.842  2.1666 -2.7455 -2.9673
  614MOL0     H81003   7.831   8.712   7.925  2.2567  0.2024 -0.9687
  614MOL0     H81004   8.043   8.644   8.023 -2.0212  0.7019  3.2554
  614MOL0     H81005   8.020   8.493   7.944  2.4492  0.8634 -0.0407
  614MOL0     H81006   7.968   8.462   8.165 -0.9826 -1.0502  1.0114
  614MOL0     H81007   7.842   8.585   8.182  0.7350  0.0709 -0.3814
  614MOL0     H81008   7.849   8.315   8.045  0.2018 -0.0474  0.0361
  614MOL0     H81009   7.713   8.425   8.011  0.2321  2.0035  1.1980
  614MOL0     H81010   7.561   8.264   8.037 -0.8057 -0.3855  0.2878
  614MOL0     H81011   7.464   8.038   8.048  2.3297 -1.1650  0.1623
  614MOL0     H81012   7.114   7.826   8.205  1.0716  1.3009 -1.3209
  614MOL0     H81013   6.983   7.622   8.244  0.2145  2.6151  0.2360
  614MOL0     H81014   6.931   7.249   8.259  0.0482 -0.2017  0.1906
  614MOL0     H81015   6.885   7.406   8.285  0.7763 -0.4568  4.2446
  614MOL0     H81016   7.079   7.228   8.423 -3.9086 -2.7751  1.1033
  614MOL0     H81017   6.929   7.281   8.475  0.1895  0.1619  0.7729
  614MOL0     H81018   7.162   7.485   8.449  1.3563 -0.7383  0.8541
  614MOL0     H81019   7.166   7.348   8.557 -0.5012 -2.0003  1.3620
  614MOL0     H81020   6.997   7.411   8.702 -3.8402  1.0964 -0.3564
  614MOL0     H81021   7.099   7.558   8.674 -1.0700  1.9099  0.0127
  614MOL0     H81022   6.835   7.517   8.531  0.6393 -1.2244  1.9218
  614MOL0     H81023   6.943   7.663   8.512 -1.6963  3.0737  2.2943
  614MOL0     H81024   6.923   7.686   8.771 -0.4558  0.4750  0.4382
  614MOL0     H81025   6.775   7.583   8.749 -1.2300  1.5608 -0.8947
  614MOL0     H81026   6.816   7.838   8.598 -1.2428 -0.0518  0.4574
  614MOL0     H81027   6.671   7.744   8.590 -0.5316 -0.7160  1.9782
  614MOL0     H81028   6.638   7.943   8.754  1.2623  0.9192  0.6207
  614MOL0     H81029   6.779   7.885   8.834 -0.2532  2.6731 -1.5964
  614MOL0     H81030   7.329   7.392   8.142  0.1091 -0.0096  1.5172
  614MOL0     H81031   7.461   7.601   8.133 -0.2493  1.4131 -2.2862
  614MOL0     H81032   7.634   7.990   8.437 -0.6870  1.7713  0.7849
  614MOL0     H81033   7.761   8.203   8.406  0.4425  0.1568 -0.3027
  614MOL0     H81034   9.245   9.133   7.430 -3.1813 -0.2790  1.8015
  614MOL0     H81035   9.452   9.004   7.414 -1.2379  0.4015 -2.8944
  614MOL0     H81036   9.703   8.630   7.452 -1.4941  1.8969  0.9051
  614MOL0     H81037   9.937   8.545   7.492  2.9660  2.6580 -0.4208
  614MOL0     H81038  10.168   8.520   7.535  1.4069 -1.4501  0.3694
  614MOL0     H81039  10.061   8.396   7.587 -0.4917 -0.5477  0.5316
  614MOL0     H81040  10.187   8.327   7.772 -2.4992 -0.1878 -1.0233
  614MOL0     H81041  10.274   8.314   7.628  0.0265  0.1331  1.7528
  614MOL0     H81042  10.405   8.405   7.825 -1.7803 -1.4978  0.3750
  614MOL0     H81043  10.308   8.541   7.822  3.1130  0.1360  0.9413
  614MOL0     H81044  10.357   8.609   7.597 -0.8379  0.6408  1.9252
  614MOL0     H81045  10.508   8.610   7.691  0.3967 -0.2166 -2.1278
  614MOL0     H81046  10.518   8.302   7.386 -0.0988  0.3819 -0.3510
  614MOL0     H81047   9.930   8.698   7.880  1.1054  4.3249  0.0266
  614MOL0     H81048   9.697   8.780   7.857  0.1622 -2.8060  0.5553
  615MOL0     O81049   3.572   4.412   1.833 -0.0017  0.1339  0.6106
  615MOL0     C81050   3.642   4.313   1.837  0.4453 -0.0622 -0.7640
  615MOL0     O81051   3.768   4.316   1.897  0.6220 -0.0242 -0.0892
  615MOL0     C81052   3.823   4.439   1.943 -0.0960 -1.0762 -0.5663
  615MOL0     C81053   3.779   4.512   2.054  1.0382 -0.2544 -0.2464
  615MOL0     C81054   3.848   4.617   2.115 -0.9529  0.8248 -0.4498
  615MOL0     C81055   3.959   4.665   2.040 -0.2418  0.4401 -0.0546
  615MOL0     O81056   4.027   4.773   2.095 -0.5065  0.1204  0.3424
  615MOL0     C81057   4.128   4.836   2.024 -0.5581 -0.1772 -0.2779
  615MOL0     C81058   4.178   4.967   2.091  0.9537  0.7584  0.3691
  615MOL0     C81059   4.306   5.020   2.016 -0.0021  0.0741 -0.5716
  615MOL0     C81060   4.397   5.118   2.101  0.9807  0.0848  0.8488
  615MOL0     C81061   4.514   5.165   2.013 -0.0668  0.3826 -0.4576
  615MOL0     C81062   4.614   5.274   2.073 -0.1335 -0.5384 -0.8137
  615MOL0     C81063   4.688   5.336   1.951 -0.6377  0.2503 -0.1725
  615MOL0     C81064   4.797   5.437   2.009 -0.1064 -0.2163  0.3339
  615MOL0     N81065   4.927   5.377   2.035  0.4486  1.1066 -0.1839
  615MOL0     C81066   5.017   5.336   1.945  0.3695 -1.3738 -0.0587
  615MOL0     C81067   5.130   5.307   2.010 -0.2348 -0.8317 -0.3305
  615MOL0     C81068   5.271   5.256   1.980 -0.5974 -0.6454 -0.6629
  615MOL0     C81069   5.378   5.364   1.951 -0.8693  0.5543  0.5874
  615MOL0     C81070   5.434   5.418   2.087  0.1192 -0.5319  0.2831
  615MOL0     C81071   5.409   5.566   2.110 -0.2544 -0.4750 -0.1227
  615MOL0     O81072   5.427   5.646   1.992  0.0024 -0.0627 -0.1597
  615MOL0     C81073   5.547   5.630   1.933 -0.5022 -0.6489  0.3311
  615MOL0     C81074   5.558   5.576   1.805 -0.3988  0.3142  0.7618
  615MOL0     C81075   5.687   5.546   1.763  0.5669  0.0703 -0.0613
  615MOL0     C81076   5.800   5.585   1.820  0.1734  0.1815 -0.4836
  615MOL0     C81077   5.934   5.537   1.765 -0.3721 -0.2292 -0.3848
  615MOL0     O81078   5.946   5.430   1.684 -0.0634 -0.5862  0.2465
  615MOL0     C81079   6.071   5.385   1.669  0.1279  0.0161 -0.1628
  615MOL0     C81080   6.141   5.404   1.544 -0.3093  0.9903 -0.2541
  615MOL0     C81081   6.266   5.357   1.526 -0.2936  0.6006  0.8559
  615MOL0     C81082   6.334   5.287   1.624 -0.5451 -0.2553  0.3394
  615MOL0     O81083   6.467   5.258   1.610  1.0897 -0.3052 -0.9785
  615MOL0     C81084   6.555   5.309   1.509  0.0743 -0.3849 -0.6465
  615MOL0     C81085   6.626   5.181   1.467 -0.0626  0.4023  0.4341
  615MOL0     C81086   6.710   5.111   1.568  0.1055  0.2484  0.0855
  615MOL0     C81087   6.802   5.013   1.485 -0.3978 -0.3744 -0.1549
  615MOL0     C81088   6.890   4.920   1.574  0.0598  0.5974 -0.1907
  615MOL0     C81089   6.935   4.791   1.491  0.4817 -0.1256  0.3778
  615MOL0     C81090   7.002   4.679   1.570  0.0801  0.1952  0.2001
  615MOL0     C81091   7.079   4.578   1.495  0.9671 -0.6790 -0.0398
  615MOL0    Cl81092   7.136   4.447   1.603 -0.2234  0.0903 -0.2534
  615MOL0     C81093   6.273   5.257   1.740 -0.6705 -1.3788 -0.7836
  615MOL0     C81094   6.139   5.305   1.761  0.2566  0.0390 -0.3901
  615MOL0     O81095   6.022   5.613   1.795 -0.1312  0.2538  0.4601
  615MOL0     C81096   5.791   5.659   1.940  1.1470  0.1437  0.1485
  615MOL0     C81097   5.668   5.674   1.994 -0.2343  0.1086 -0.8353
  615MOL0     N81098   5.100   5.314   2.144  0.4589  0.3578 -0.2003
  615MOL0     N81099   4.985   5.367   2.155  0.0222  0.4326  0.4620
  615MOL0     C81100   3.993   4.609   1.920 -0.0884 -0.8183  1.2343
  615MOL0     C81101   3.925   4.500   1.868 -0.3202 -0.8893 -0.4954
  615MOL0     C81102   3.592   4.186   1.788 -0.4770  0.6658 -0.6309
  615MOL0     C81103   3.662   4.070   1.818 -0.9760  0.8086 -0.2237
  615MOL0     C81104   3.601   3.937   1.798 -0.3830  0.3474 -0.2319
  615MOL0     C81105   3.466   3.926   1.754  0.2362  0.8569 -0.0779
  615MOL0     O81106   3.417   3.799   1.736  0.0364  0.0404 -0.3606
  615MOL0     C81107   3.299   3.783   1.653 -0.3689  0.7393 -1.4291
  615MOL0     C81108   3.321   3.828   1.509  0.8782 -0.3769 -0.3312
  615MOL0     C81109   3.422   3.746   1.418  0.2808  0.5063 -1.0070
  615MOL0     C81110   3.408   3.770   1.266  0.2578  0.1041 -0.4971
  615MOL0     C81111   3.519   3.712   1.194  0.2512  0.4070  0.4973
  615MOL0     C81112   3.616   3.671   1.131  0.1624 -0.3683 -0.8555
  615MOL0     C81113   3.394   4.042   1.735  0.4888  0.1310  0.1775
  615MOL0     C81114   3.457   4.168   1.742  0.3239  0.4770  0.6853
  615MOL0     H81115   3.696   4.470   2.111  1.4697  1.3527  1.7050
  615MOL0     H81116   3.803   4.657   2.206 -0.4162  1.0107 -0.2603
  615MOL0     H81117   4.099   4.846   1.919 -0.6419 -0.1192 -0.2491
  615MOL0     H81118   4.211   4.766   2.040 -1.4106 -0.5999  3.0504
  615MOL0     H81119   4.213   4.949   2.193 -3.3021 -0.8205  1.7499
  615MOL0     H81120   4.103   5.047   2.085  1.8139  1.6509  1.0406
  615MOL0     H81121   4.269   5.075   1.928  1.0518  2.0114  0.1353
  615MOL0     H81122   4.364   4.932   1.989  0.4556  0.2480 -0.1738
  615MOL0     H81123   4.322   5.196   2.116  0.0816 -0.4133 -0.7639
  615MOL0     H81124   4.418   5.069   2.196  0.9890  0.6730  1.1537
  615MOL0     H81125   4.469   5.205   1.921  2.9523  0.6624 -1.9586
  615MOL0     H81126   4.566   5.074   1.982 -0.2305  0.2822 -0.4381
  615MOL0     H81127   4.679   5.227   2.146 -2.8786 -0.7517  1.6957
  615MOL0     H81128   4.563   5.354   2.128  0.0259 -0.0663 -1.3437
  615MOL0     H81129   4.754   5.261   1.908  1.8614  1.7684  0.7762
  615MOL0     H81130   4.619   5.380   1.879 -3.9844 -0.6230  2.2450
  615MOL0     H81131   4.777   5.483   2.106  4.1209  3.1713 -0.0689
  615MOL0     H81132   4.812   5.510   1.928  1.0669 -2.4515 -1.5921
  615MOL0     H81133   5.001   5.337   1.838  0.6552  0.3295 -0.1138
  615MOL0     H81134   5.261   5.210   1.881  0.5271  0.2249 -1.2046
  615MOL0     H81135   5.302   5.179   2.051 -1.8323 -0.6461 -0.1026
  615MOL0     H81136   5.328   5.434   1.883 -1.3647 -2.3865 -2.3087
  615MOL0     H81137   5.459   5.318   1.895  1.1458  3.9264  0.4838
  615MOL0     H81138   5.380   5.363   2.164  0.4016  0.4286  1.1862
  615MOL0     H81139   5.539   5.396   2.107  0.1429 -0.0907  0.6467
  615MOL0     H81140   5.462   5.609   2.196  0.6223 -0.9390 -0.4101
  615MOL0     H81141   5.302   5.566   2.132 -0.8226 -1.1885 -2.5574
  615MOL0     H81142   5.475   5.548   1.741  0.5240  0.3445 -0.4881
  615MOL0     H81143   5.701   5.494   1.669 -0.2319 -2.6508  1.2440
  615MOL0     H81144   6.102   5.454   1.456  1.7098  0.8192 -1.3072
  615MOL0     H81145   6.317   5.384   1.435  2.6184  0.2673  2.2681
  615MOL0     H81146   6.632   5.375   1.549 -1.4411  0.1674  1.5302
  615MOL0     H81147   6.512   5.349   1.417 -0.0960 -1.1179 -0.8928
  615MOL0     H81148   6.683   5.198   1.375 -0.0751 -3.2534 -0.4315
  615MOL0     H81149   6.566   5.098   1.426 -0.5953  1.9068 -2.0649
  615MOL0     H81150   6.642   5.055   1.633  0.2123  0.8278  0.7192
  615MOL0     H81151   6.773   5.171   1.635  4.2024 -3.0959 -0.3751
  615MOL0     H81152   6.753   4.950   1.410 -0.7177 -0.0227 -0.2498
  615MOL0     H81153   6.861   5.080   1.422  0.2095  0.5584  1.3465
  615MOL0     H81154   6.824   4.890   1.656 -2.2044  1.6987 -1.5161
  615MOL0     H81155   6.967   4.976   1.626 -1.5190  1.0432  1.7933
  615MOL0     H81156   7.000   4.825   1.410  0.5998 -0.8081  0.1835
  615MOL0     H81157   6.849   4.750   1.438 -0.5328 -0.0770  1.9064
  615MOL0     H81158   7.066   4.732   1.642  0.1311  0.5837 -0.1269
  615MOL0     H81159   6.929   4.630   1.634 -1.2028  1.1422 -0.4853
  615MOL0     H81160   7.159   4.623   1.436 -0.8571 -0.0286 -2.1413
  615MOL0     H81161   7.006   4.545   1.421 -0.4675 -3.7381  2.4959
  615MOL0     H81162   6.329   5.202   1.815 -1.1656 -1.1624 -0.2492
  615MOL0     H81163   6.095   5.287   1.859  1.6797  1.4173  0.5570
  615MOL0     H81164   5.878   5.704   1.987  1.2706 -0.4775  0.5313
  615MOL0     H81165   5.648   5.741   2.077 -1.2315  1.0193 -1.7864
  615MOL0     H81166   4.064   4.661   1.856 -3.4658  2.2746 -0.3608
  615MOL0     H81167   3.945   4.465   1.768  1.6939 -0.4665 -0.2938
  615MOL0     H81168   3.766   4.078   1.845 -0.9565  0.7155 -0.2725
  615MOL0     H81169   3.662   3.855   1.835  0.2482  2.0182  2.8314
  615MOL0     H81170   3.223   3.843   1.703  0.3587 -0.4671  1.3533
  615MOL0     H81171   3.274   3.678   1.671 -2.0243  1.4106  0.5185
  615MOL0     H81172   3.221   3.820   1.467  1.8943 -1.0733 -2.8243
  615MOL0     H81173   3.348   3.934   1.507  0.3832 -0.1641  2.0543
  615MOL0     H81174   3.423   3.640   1.445  0.2612  0.6850 -0.2528
  615MOL0     H81175   3.521   3.792   1.431 -0.9271  3.1915 -0.6873
  615MOL0     H81176   3.309   3.750   1.225 -1.6080  3.1310  2.0802
  615MOL0     H81177   3.420   3.877   1.252  0.9992  0.1912  0.7228
  615MOL0     H81178   3.718   3.646   1.106  0.8691 -2.8004  3.3974
  615MOL0     H81179   3.296   4.037   1.687  1.3644  0.8214 -1.8114
  615MOL0     H81180   3.391   4.254   1.731  1.0368  0.7153 -4.3324
  616MOL0     O81181   0.609  10.053  10.285  0.5209  0.3318 -0.0372
  616MOL0     C81182   0.682  10.043  10.193  0.3191  0.4695 -0.0146
  616MOL0     O81183   0.793  10.106  10.175 -0.0017 -0.6959 -0.4037
  616MOL0     C81184   0.840  10.183  10.287 -0.2632 -0.0628  1.2898
  616MOL0     C81185   0.892  10.310  10.252 -0.1963  0.2092 -0.1240
  616MOL0     C81186   0.952  10.391  10.343 -0.0771  0.3028 -0.5187
  616MOL0     C81187   0.955  10.351  10.480  0.0566 -0.5890 -1.5220
  616MOL0     O81188   0.999  10.437  10.576  0.5400  0.1694  0.7038
  616MOL0     C81189   0.932  10.561  10.584  1.2485  0.0772 -0.1601
  616MOL0     C81190   0.975  10.636  10.722 -0.1265  0.3609  0.5852
  616MOL0     C81191   0.954  10.537  10.831 -0.2264 -0.6551  0.0990
  616MOL0     C81192   0.947  10.618  10.961  0.5375 -0.1636  0.3469
  616MOL0     C81193   0.854  10.549  11.065 -0.7831 -0.4831  0.0712
  616MOL0     C81194   0.852  10.629  11.192  1.4805 -1.6273  1.1108
  616MOL0     C81195   0.769  10.546  11.291  0.4548 -0.2571 -0.0988
  616MOL0     C81196   0.793  10.610  11.433  0.8292  0.9021 -1.0365
  616MOL0     N81197   0.738  10.522  11.543  0.4785 -0.4752 -0.4564
  616MOL0     C81198   0.599  10.495  11.554 -0.1967 -0.7738  0.7151
  616MOL0     C81199   0.587  10.456  11.683 -0.2877 -0.0992  0.2619
  616MOL0     C81200   0.463  10.422  11.769 -0.5489 -0.3937 -0.1596
  616MOL0     C81201   0.502  10.367  11.904 -0.5144 -0.3640  0.0287
  616MOL0     C81202   0.386  10.320  11.976  0.4653 -0.4689 -0.6716
  616MOL0     C81203   0.416  10.228  12.101  0.3081 -0.2234 -0.1699
  616MOL0     O81204   0.449  10.096  12.049 -0.0717  0.0259 -0.2426
  616MOL0     C81205   0.339  10.011  12.015 -0.6315 -0.0471  1.1056
  616MOL0     C81206   0.203  10.040  11.997 -1.3216 -0.2411  1.5216
  616MOL0     C81207   0.100   9.947  11.967  0.5009 -0.5575 -0.0472
  616MOL0     C81208   0.143   9.813  11.960  1.0577 -0.0366 -0.0938
  616MOL0     C81209   0.041   9.708  11.930  0.1141 -0.6142  0.5045
  616MOL0     O81210   0.088   9.581  11.908 -0.0708  0.7842 -0.5321
  616MOL0     C81211  -0.009   9.481  11.913  0.2049  0.3882  0.6152
  616MOL0     C81212  -0.051   9.440  11.789 -0.5895  0.7768 -0.2499
  616MOL0     C81213  -0.154   9.352  11.778  0.6958 -0.5955 -0.0066
  616MOL0     C81214  -0.219   9.295  11.890 -0.8998  0.9694  0.2502
  616MOL0     O81215  -0.304   9.190  11.887  0.0168 -0.5361 -0.1269
  616MOL0     C81216  -0.325   9.123  11.762 -0.1286  0.0432 -0.3912
  616MOL0     C81217  -0.435   9.201  11.682 -0.5916 -0.7705 -0.4614
  616MOL0     C81218  -0.479   9.118  11.552 -0.2558 -0.0178  0.2382
  616MOL0     C81219  -0.588   9.186  11.470 -0.0288  0.1433  0.6759
  616MOL0     C81220  -0.614   9.126  11.324  0.2370 -0.2120  0.4072
  616MOL0     C81221  -0.504   9.163  11.228  0.7714 -0.4008  0.2144
  616MOL0     C81222  -0.498   9.320  11.189  0.0970  0.1033 -0.1387
  616MOL0     C81223  -0.420   9.320  11.063 -0.2641 -0.3761  0.1732
  616MOL0    Cl81224  -0.260   9.246  11.071 -0.0813 -0.2822 -0.6939
  616MOL0     C81225  -0.169   9.332  12.015 -0.4106 -1.0053 -0.7733
  616MOL0     C81226  -0.072   9.431  12.030 -0.1263 -0.9185  0.1958
  616MOL0     O81227  -0.079   9.736  11.921  0.4036  0.5112 -0.3913
  616MOL0     C81228   0.281   9.778  11.976  0.4756  1.3104 -0.6214
  616MOL0     C81229   0.374   9.875  12.002 -0.7839 -0.1902  0.1572
  616MOL0     N81230   0.714  10.448  11.741 -0.7153  0.2556  0.9346
  616MOL0     N81231   0.805  10.485  11.659  0.3921 -0.5553  0.0489
  616MOL0     C81232   0.901  10.230  10.513  0.5205 -0.1799  0.1167
  616MOL0     C81233   0.858  10.146  10.413 -0.1815  0.1281 -0.9950
  616MOL0     C81234   0.655   9.939  10.091  0.6421  0.0536 -0.7055
  616MOL0     C81235   0.544   9.858  10.092  0.1323 -0.0762 -0.5182
  616MOL0     C81236   0.520   9.761   9.994  0.2637  0.0385 -0.4676
  616MOL0     C81237   0.615   9.754   9.894  0.9696 -0.1796  1.1210
  616MOL0     O81238   0.600   9.666   9.783 -0.2752 -0.6138 -0.1060
  616MOL0     C81239   0.476   9.601   9.754  0.6621  0.5994  0.3588
  616MOL0     C81240   0.490   9.480   9.662  0.2319  0.6264  0.6201
  616MOL0     C81241   0.563   9.366   9.735 -0.0953 -0.7593 -0.4147
  616MOL0     C81242   0.470   9.262   9.802  0.1873  0.0182 -0.0159
  616MOL0     C81243   0.393   9.191   9.706  0.1008 -0.4713 -0.4711
  616MOL0     C81244   0.333   9.125   9.624  0.2253 -0.4181  0.0299
  616MOL0     C81245   0.719   9.837   9.885 -0.7132  0.8165  0.4456
  616MOL0     C81246   0.738   9.934   9.982 -0.8522  0.5350  0.5061
  616MOL0     H81247   0.889  10.350  10.151 -0.2406  1.8303  0.4975
  616MOL0     H81248   0.985  10.490  10.315 -1.6935  1.0322  0.0722
  616MOL0     H81249   0.824  10.544  10.586  0.7082  2.9131 -0.0892
  616MOL0     H81250   0.949  10.627  10.498  0.5676  1.4569  0.7210
  616MOL0     H81251   0.916  10.728  10.732  1.1703  1.0859  2.1861
  616MOL0     H81252   1.082  10.659  10.709  0.1617 -1.9805 -2.0672
  616MOL0     H81253   1.036  10.465  10.836 -0.7153 -1.1331  1.6889
  616MOL0     H81254   0.854  10.495  10.815 -1.6033  2.6616 -0.8810
  616MOL0     H81255   1.047  10.629  11.004 -0.3506 -1.2779  2.8952
  616MOL0     H81256   0.910  10.718  10.935 -1.9857 -1.5564 -2.0119
  616MOL0     H81257   0.890  10.448  11.089 -1.4742 -0.8940 -0.5659
  616MOL0     H81258   0.756  10.525  11.023 -2.3370  3.9495  0.7142
  616MOL0     H81259   0.800  10.725  11.181 -0.8380 -2.7893  1.4300
  616MOL0     H81260   0.953  10.646  11.232  3.0487  1.4912 -3.3680
  616MOL0     H81261   0.662  10.548  11.268  0.6536  0.8131 -1.0013
  616MOL0     H81262   0.799  10.441  11.290 -0.0619 -0.4996 -3.6564
  616MOL0     H81263   0.745  10.708  11.444  0.0886  0.3511  0.9978
  616MOL0     H81264   0.900  10.617  11.457  0.7259 -0.7949  0.0746
  616MOL0     H81265   0.526  10.524  11.479  0.7959 -0.8860 -0.3319
  616MOL0     H81266   0.409  10.355  11.701  1.5346  1.3008 -3.7774
  616MOL0     H81267   0.391  10.501  11.791  0.6199  1.4826 -2.5237
  616MOL0     H81268   0.559  10.436  11.968  0.3687 -0.1138 -1.0046
  616MOL0     H81269   0.561  10.277  11.883  1.2563  0.4655  1.1564
  616MOL0     H81270   0.331  10.401  12.024  1.4533  0.1005 -0.4610
  616MOL0     H81271   0.318  10.273  11.905 -1.1920 -1.1548  1.2668
  616MOL0     H81272   0.323  10.220  12.158  0.6367 -0.2703  0.3665
  616MOL0     H81273   0.484  10.276  12.172  4.0217 -2.7018 -1.7866
  616MOL0     H81274   0.169  10.143  11.990 -0.9033 -0.2210 -2.8468
  616MOL0     H81275  -0.003   9.982  11.958  1.4833  2.2447 -1.2637
  616MOL0     H81276  -0.001   9.494  11.709 -2.0502  2.5694 -0.0351
  616MOL0     H81277  -0.178   9.319  11.678  1.8030 -2.4380  0.2878
  616MOL0     H81278  -0.358   9.021  11.785 -2.4065  1.1631  1.8050
  616MOL0     H81279  -0.227   9.108  11.716 -0.5446 -1.1061 -0.9341
  616MOL0     H81280  -0.402   9.303  11.661 -3.7604  1.1161  2.6196
  616MOL0     H81281  -0.527   9.212  11.741  0.7919 -0.3655  1.7146
  616MOL0     H81282  -0.509   9.016  11.578 -0.1290 -0.2396 -0.4815
  616MOL0     H81283  -0.394   9.125  11.483 -0.2278 -1.4689  0.0916
  616MOL0     H81284  -0.688   9.188  11.515 -1.1210 -2.1787 -1.4393
  616MOL0     H81285  -0.559   9.291  11.457  0.0889  0.0219 -0.1087
  616MOL0     H81286  -0.709   9.171  11.294 -2.2451 -2.9296  3.3931
  616MOL0     H81287  -0.625   9.017  11.322 -1.5766 -0.0353 -0.8187
  616MOL0     H81288  -0.499   9.105  11.135  1.6165  0.9156 -0.5943
  616MOL0     H81289  -0.409   9.139  11.275  0.9677 -0.2700 -0.1146
  616MOL0     H81290  -0.601   9.349  11.167  0.0087  1.4979  1.7960
  616MOL0     H81291  -0.458   9.371  11.277 -1.1453 -0.9276  1.0642
  616MOL0     H81292  -0.402   9.423  11.032  1.7504 -0.1439  1.8995
  616MOL0     H81293  -0.465   9.269  10.977 -3.5066  1.4527  0.6275
  616MOL0     H81294  -0.222   9.288  12.099  0.3226  2.0519  1.4680
  616MOL0     H81295  -0.042   9.467  12.128 -1.4911  1.0854 -0.0812
  616MOL0     H81296   0.313   9.675  11.967 -2.0700  0.3887  0.0758
  616MOL0     H81297   0.480   9.852  11.998 -0.7674  0.0106 -2.3430
  616MOL0     H81298   0.915  10.199  10.616  3.0777  0.4630  0.0405
  616MOL0     H81299   0.833  10.044  10.438  0.2108  0.5576  1.4424
  616MOL0     H81300   0.477   9.848  10.177  1.0998  1.1125  0.4363
  616MOL0     H81301   0.428   9.705  10.007 -0.0745  0.8055  0.5625
  616MOL0     H81302   0.406   9.669   9.704  1.8795  0.4789 -1.6271
  616MOL0     H81303   0.423   9.566   9.843 -1.1746  2.4677  0.0675
  616MOL0     H81304   0.399   9.445   9.611  1.6544  0.3701 -1.9175
  616MOL0     H81305   0.550   9.510   9.576 -1.7102 -0.5980 -1.2895
  616MOL0     H81306   0.635   9.405   9.808  3.0559 -0.3567 -3.4455
  616MOL0     H81307   0.621   9.313   9.659  0.6871  0.4915 -0.7195
  616MOL0     H81308   0.529   9.186   9.855 -0.8682 -0.0644  1.0940
  616MOL0     H81309   0.392   9.301   9.869 -1.3487 -2.3465 -0.3085
  616MOL0     H81310   0.301   9.058   9.547 -0.7662  0.9085 -0.7707
  616MOL0     H81311   0.789   9.835   9.802 -1.8794  3.6388 -0.7720
  616MOL0     H81312   0.823  10.000   9.973 -1.2794  1.3073  1.7926
  617MOL0     O81313   6.901  10.832   9.401 -0.0368  0.6435 -0.0815
  617MOL0     C81314   6.973  10.916   9.357  0.1302  0.1372 -0.6027
  617MOL0     O81315   6.943  11.047   9.348  0.6056  0.1784  0.1922
  617MOL0     C81316   6.806  11.089   9.363 -0.3971  0.0350  0.1772
  617MOL0     C81317   6.710  11.042   9.270 -0.8913  0.9354 -1.4537
  617MOL0     C81318   6.583  11.097   9.271  1.2592 -0.1638  1.0830
  617MOL0     C81319   6.558  11.214   9.350 -0.7498  0.8901  1.1547
  617MOL0     O81320   6.440  11.262   9.333  0.1577 -0.1871 -0.2777
  617MOL0     C81321   6.363  11.289   9.455 -0.3435 -0.9009 -0.0328
  617MOL0     C81322   6.214  11.294   9.417 -0.7393  0.3967  0.0659
  617MOL0     C81323   6.162  11.162   9.404  0.2529  0.3967  0.4794
  617MOL0     C81324   6.027  11.160   9.339  0.2323  0.2367  1.1114
  617MOL0     C81325   5.919  11.248   9.398 -0.0853 -0.0979  0.1939
  617MOL0     C81326   5.886  11.234   9.544 -0.9696 -0.3284 -0.4919
  617MOL0     C81327   5.803  11.354   9.594 -0.0528  0.3377  0.8703
  617MOL0     C81328   5.886  11.477   9.619 -0.1506 -0.2246  0.0643
  617MOL0     N81329   5.901  11.567   9.503  0.2162 -0.5439 -0.2997
  617MOL0     C81330   5.802  11.652   9.455 -0.7951 -0.3371 -0.0630
  617MOL0     C81331   5.861  11.718   9.363  0.3976 -1.1895  0.8645
  617MOL0     C81332   5.797  11.820   9.284  0.0337 -0.2984  0.4926
  617MOL0     C81333   5.838  11.838   9.145 -0.2026  1.4407  0.8870
  617MOL0     C81334   5.832  11.985   9.102  0.3913 -0.0581 -0.3733
  617MOL0     C81335   5.842  12.008   8.959 -0.0094 -0.2760 -0.1639
  617MOL0     O81336   5.952  11.950   8.889  0.3636 -0.9319 -0.4192
  617MOL0     C81337   6.067  12.034   8.880 -0.2173 -1.0039 -0.0233
  617MOL0     C81338   6.093  12.083   8.754 -0.7211 -0.1454 -0.5120
  617MOL0     C81339   6.197  12.180   8.739 -0.5164 -0.2351  0.2608
  617MOL0     C81340   6.280  12.217   8.858  0.6953  0.9721  0.3425
  617MOL0     C81341   6.393  12.313   8.836  0.1365 -0.4478  0.6795
  617MOL0     O81342   6.500  12.308   8.925 -0.3914  0.1123 -0.0721
  617MOL0     C81343   6.613  12.392   8.914  0.7261  0.4915  0.6725
  617MOL0     C81344   6.709  12.393   8.811  0.3064  0.4855  0.5105
  617MOL0     C81345   6.817  12.479   8.813 -0.4755  0.5585  0.2591
  617MOL0     C81346   6.839  12.571   8.920 -0.3997 -0.0317  0.6101
  617MOL0     O81347   6.952  12.655   8.938  0.4895  0.4176  0.0905
  617MOL0     C81348   7.021  12.690   8.820 -0.2312 -0.6126 -0.1081
  617MOL0     C81349   7.106  12.814   8.845 -0.8229 -0.0254 -0.1539
  617MOL0     C81350   7.230  12.789   8.948 -0.0784 -0.0559  0.4949
  617MOL0     C81351   7.312  12.922   8.973  0.4710 -0.6841  0.6145
  617MOL0     C81352   7.427  12.908   9.077 -1.3597 -0.5031 -0.4579
  617MOL0     C81353   7.471  13.041   9.126  0.5499 -0.2459  0.1534
  617MOL0     C81354   7.608  13.049   9.196 -0.9528 -0.1327  0.5816
  617MOL0     C81355   7.609  13.027   9.347 -0.0309  0.2795 -0.1720
  617MOL0    Cl81356   7.524  13.161   9.425 -0.1269  0.3848  0.4977
  617MOL0     C81357   6.742  12.564   9.025  0.0798  0.4086 -0.6177
  617MOL0     C81358   6.633  12.480   9.022  0.7249 -0.1860  0.5508
  617MOL0     O81359   6.393  12.392   8.742  0.2249 -0.7814 -0.3087
  617MOL0     C81360   6.256  12.145   8.977 -1.0828  0.2413  0.1206
  617MOL0     C81361   6.145  12.064   8.997  0.2327 -0.7299 -0.1961
  617MOL0     N81362   5.988  11.667   9.339 -0.9840  0.3103  0.2175
  617MOL0     N81363   6.010  11.579   9.419 -0.8344 -0.6929  0.5076
  617MOL0     C81364   6.659  11.270   9.424 -0.0995 -0.5327 -0.2756
  617MOL0     C81365   6.779  11.208   9.435  0.3149 -1.0332 -0.0002
  617MOL0     C81366   7.109  10.879   9.316 -0.2075  0.4195 -0.2390
  617MOL0     C81367   7.211  10.973   9.352  0.4129 -0.4116  0.6421
  617MOL0     C81368   7.347  10.931   9.318 -0.3629 -0.6862 -0.3285
  617MOL0     C81369   7.381  10.805   9.266 -0.3176  0.3210 -0.9134
  617MOL0     O81370   7.514  10.781   9.250 -0.2919  0.2043  0.4644
  617MOL0     C81371   7.556  10.650   9.206 -0.6694  0.8034  0.7791
  617MOL0     C81372   7.701  10.641   9.232 -0.4723 -0.1889  0.2488
  617MOL0     C81373   7.763  10.628   9.368  0.5122 -0.0419  0.3214
  617MOL0     C81374   7.924  10.618   9.379  0.3778 -0.4687  0.5321
  617MOL0     C81375   7.949  10.476   9.342  0.2580  0.5224 -0.3527
  617MOL0     C81376   7.973  10.361   9.322  0.7490  0.5573 -0.7193
  617MOL0     C81377   7.270  10.721   9.239  0.1784 -0.5498 -0.1231
  617MOL0     C81378   7.140  10.752   9.282 -0.5484  0.3220  0.8588
  617MOL0     H81379   6.733  10.951   9.215  0.0009 -1.7222  2.8699
  617MOL0     H81380   6.504  11.064   9.204  0.7690  1.8843  0.5618
  617MOL0     H81381   6.387  11.384   9.504 -0.5557  0.7231 -2.8602
  617MOL0     H81382   6.378  11.224   9.542  1.3530  1.8687  1.9146
  617MOL0     H81383   6.202  11.361   9.331  1.6895 -1.1811 -1.6213
  617MOL0     H81384   6.170  11.353   9.498 -0.4902  2.8244 -1.4793
  617MOL0     H81385   6.161  11.113   9.502  4.5744 -0.9817  0.0337
  617MOL0     H81386   6.226  11.091   9.352 -2.4585 -2.3713  0.6198
  617MOL0     H81387   6.044  11.176   9.232 -0.9523 -2.7455  0.3428
  617MOL0     H81388   5.988  11.057   9.338 -1.9519  1.0059  0.8347
  617MOL0     H81389   5.825  11.232   9.345 -0.7069 -1.7437  1.7107
  617MOL0     H81390   5.955  11.351   9.389 -3.4574  1.1437 -0.3086
  617MOL0     H81391   5.973  11.226   9.610 -1.0210 -0.0723 -0.3934
  617MOL0     H81392   5.824  11.145   9.558 -1.1277  0.0609  1.4847
  617MOL0     H81393   5.730  11.378   9.516  3.2208  0.4602 -2.4600
  617MOL0     H81394   5.752  11.327   9.686 -0.1354  0.3178  0.8187
  617MOL0     H81395   5.984  11.451   9.659 -0.5577  0.6255  1.6929
  617MOL0     H81396   5.833  11.527   9.700 -1.6239  1.1385 -1.6526
  617MOL0     H81397   5.703  11.670   9.495  0.2640  0.5955  2.3308
  617MOL0     H81398   5.805  11.917   9.335 -1.4587  0.3153 -0.3856
  617MOL0     H81399   5.690  11.801   9.279  0.1828 -0.7462 -2.6585
  617MOL0     H81400   5.780  11.780   9.072 -0.2572 -0.2324  2.1837
  617MOL0     H81401   5.942  11.808   9.129 -1.2612 -2.1840 -0.3329
  617MOL0     H81402   5.728  12.004   9.131  0.3367 -0.8483 -0.0141
  617MOL0     H81403   5.891  12.059   9.158 -2.3082  1.2642  0.9186
  617MOL0     H81404   5.853  12.116   8.941  0.4861 -0.7065 -2.7557
  617MOL0     H81405   5.748  11.989   8.906 -0.8713  0.1904  1.1366
  617MOL0     H81406   6.030  12.050   8.672 -0.7142 -1.1326 -0.1259
  617MOL0     H81407   6.226  12.225   8.644 -0.8760  1.5024  0.9406
  617MOL0     H81408   6.687  12.334   8.722  0.8302 -0.9501  1.2918
  617MOL0     H81409   6.885  12.459   8.731 -1.6940 -2.4487 -0.1267
  617MOL0     H81410   6.960  12.702   8.731  1.1030  0.7161 -0.8802
  617MOL0     H81411   7.080  12.599   8.800 -1.2925 -0.6183 -4.0351
  617MOL0     H81412   7.053  12.905   8.874  0.7962  0.7004  0.6260
  617MOL0     H81413   7.152  12.825   8.746 -2.3189 -2.1174 -1.1767
  617MOL0     H81414   7.291  12.712   8.900  0.1588  0.7084 -0.4469
  617MOL0     H81415   7.195  12.756   9.047  1.5868 -1.5439  0.6375
  617MOL0     H81416   7.351  12.958   8.878 -0.1372 -0.2040  0.5380
  617MOL0     H81417   7.240  13.000   9.000  2.7523  2.2868 -1.3072
  617MOL0     H81418   7.520  12.883   9.025 -0.8776  0.3511 -0.0391
  617MOL0     H81419   7.403  12.848   9.165  1.8633  0.0000  0.8968
  617MOL0     H81420   7.389  13.062   9.196 -4.2272 -3.8768 -3.5817
  617MOL0     H81421   7.467  13.120   9.051 -2.9534 -1.8143 -1.5526
  617MOL0     H81422   7.681  12.982   9.150  0.6007  2.5962 -1.1894
  617MOL0     H81423   7.663  13.143   9.186  1.1809 -1.1379  2.1429
  617MOL0     H81424   7.712  13.011   9.378 -0.4876 -3.2723 -0.0885
  617MOL0     H81425   7.559  12.935   9.381 -1.0845  0.3009 -1.5268
  617MOL0     H81426   6.769  12.626   9.109 -1.3318 -1.0662  1.0114
  617MOL0     H81427   6.555  12.482   9.097 -1.4815 -0.0347 -1.6213
  617MOL0     H81428   6.336  12.151   9.050 -0.0672 -1.3329 -0.7936
  617MOL0     H81429   6.106  12.028   9.091  1.3127  1.5012  1.1883
  617MOL0     H81430   6.649  11.350   9.496  1.3572 -1.2853  0.8101
  617MOL0     H81431   6.867  11.255   9.478 -0.1227 -1.5522  1.5458
  617MOL0     H81432   7.181  11.067   9.398  0.6395 -0.2681  0.4968
  617MOL0     H81433   7.424  11.006   9.332 -0.5937  0.2647 -3.3635
  617MOL0     H81434   7.536  10.645   9.098  1.2946  0.1504  0.3904
  617MOL0     H81435   7.509  10.563   9.253  1.4315 -0.4804  0.6226
  617MOL0     H81436   7.726  10.546   9.184  1.6670 -0.3998  1.6573
  617MOL0     H81437   7.740  10.735   9.192 -1.0661 -0.2166 -0.4125
  617MOL0     H81438   7.719  10.548   9.428 -1.0937  1.3109  0.9938
  617MOL0     H81439   7.728  10.715   9.424 -0.1212 -1.6030  2.4741
  617MOL0     H81440   7.967  10.692   9.310 -2.7249  0.0894 -0.9762
  617MOL0     H81441   7.948  10.632   9.485  0.1781  2.8730  0.2460
  617MOL0     H81442   7.988  10.258   9.293 -0.5210  0.0468  0.3175
  617MOL0     H81443   7.293  10.627   9.189 -0.4653 -2.8368  3.4800
  617MOL0     H81444   7.062  10.678   9.265 -0.1054  0.0172  0.0617
  618MOL0     O81445   0.088   2.442   8.886 -0.3087 -0.3810 -0.1789
  618MOL0     C81446   0.097   2.360   8.794 -0.8239  0.4636  0.5191
  618MOL0     O81447   0.213   2.297   8.749 -1.0779  0.8280  0.3669
  618MOL0     C81448   0.335   2.317   8.812  0.9084  0.2048 -0.1216
  618MOL0     C81449   0.449   2.302   8.733 -0.1921  0.0444 -0.8382
  618MOL0     C81450   0.576   2.327   8.789  0.1333 -0.0525 -0.1107
  618MOL0     C81451   0.602   2.362   8.919 -0.4668 -1.1864  0.1734
  618MOL0     O81452   0.734   2.373   8.954 -0.5370 -0.7371  0.4670
  618MOL0     C81453   0.782   2.304   9.072  0.3607  0.0396  0.1154
  618MOL0     C81454   0.906   2.359   9.137  0.0113 -0.3567  0.1739
  618MOL0     C81455   0.901   2.508   9.135  0.3603  0.0002  0.4503
  618MOL0     C81456   1.008   2.576   9.224  0.2323  0.7860  0.6441
  618MOL0     C81457   0.943   2.616   9.359  0.7609  0.1604  0.2189
  618MOL0     C81458   0.917   2.491   9.450 -0.1260 -0.0986  0.5974
  618MOL0     C81459   0.828   2.530   9.564  0.4479  0.2932  0.6757
  618MOL0     C81460   0.742   2.412   9.612 -0.2480 -0.1122 -0.5967
  618MOL0     N81461   0.624   2.382   9.515 -0.1784  0.3321 -0.9513
  618MOL0     C81462   0.516   2.300   9.560  0.6205 -0.7226 -0.0750
  618MOL0     C81463   0.444   2.280   9.447  0.0652  0.9766  0.1119
  618MOL0     C81464   0.317   2.205   9.434  0.3651 -0.3371  0.3183
  618MOL0     C81465   0.195   2.293   9.471  0.4837  0.0209 -0.0959
  618MOL0     C81466   0.142   2.256   9.603  1.1512  0.4854  0.4092
  618MOL0     C81467   0.056   2.131   9.596  0.1904  0.6878 -0.0478
  618MOL0     O81468  -0.065   2.152   9.528  0.3563  0.0218  0.4223
  618MOL0     C81469  -0.136   2.049   9.475 -0.3373  0.1447 -0.0941
  618MOL0     C81470  -0.115   1.914   9.515 -0.3211 -1.0772  1.0554
  618MOL0     C81471  -0.182   1.811   9.456  0.4588  0.9100  0.0092
  618MOL0     C81472  -0.281   1.821   9.360 -0.7543  0.0980 -0.5796
  618MOL0     C81473  -0.336   1.701   9.293  0.0923 -0.7467 -0.2352
  618MOL0     O81474  -0.284   1.583   9.323  0.1007  0.2697  0.3029
  618MOL0     C81475  -0.309   1.471   9.251  0.1130  0.7516 -0.3142
  618MOL0     C81476  -0.431   1.408   9.271  0.2010  0.1631  0.4115
  618MOL0     C81477  -0.453   1.284   9.202  0.0713 -1.0152 -0.4668
  618MOL0     C81478  -0.358   1.228   9.118  0.1413  0.7588  0.0322
  618MOL0     O81479  -0.393   1.098   9.078  0.2260  0.3837  0.9282
  618MOL0     C81480  -0.416   1.092   8.932  0.4101  0.8602 -0.3314
  618MOL0     C81481  -0.555   1.056   8.895 -0.0128 -0.2272 -0.6210
  618MOL0     C81482  -0.603   1.088   8.755 -0.5473 -0.1330 -0.1494
  618MOL0     C81483  -0.741   1.037   8.697 -0.6976  0.2203  0.4797
  618MOL0     C81484  -0.775   0.904   8.760  0.5312  0.5232 -0.6090
  618MOL0     C81485  -0.907   0.833   8.705 -0.1138 -0.6045 -0.2001
  618MOL0     C81486  -0.947   0.830   8.552 -0.6273 -0.3950  0.0018
  618MOL0     C81487  -0.858   0.748   8.453  0.8751  0.2155 -0.6588
  618MOL0    Cl81488  -0.931   0.708   8.292 -0.3940 -0.4063 -0.2672
  618MOL0     C81489  -0.234   1.284   9.104 -0.6985 -0.0857  0.0655
  618MOL0     C81490  -0.210   1.414   9.171 -0.7092  0.1815  0.7394
  618MOL0     O81491  -0.420   1.725   9.207 -0.2751  0.9219  0.0989
  618MOL0     C81492  -0.311   1.958   9.331  0.6356 -0.3797 -0.7609
  618MOL0     C81493  -0.237   2.070   9.389  0.2845  0.0572  0.2272
  618MOL0     N81494   0.490   2.352   9.341  0.6326  0.5788 -0.4135
  618MOL0     N81495   0.599   2.408   9.387  0.1217  0.7811  0.5443
  618MOL0     C81496   0.487   2.378   8.999  0.2863 -0.0459  0.0547
  618MOL0     C81497   0.355   2.345   8.951 -0.3590 -0.4340  0.6116
  618MOL0     C81498  -0.028   2.304   8.740  0.0742 -0.3666 -1.3800
  618MOL0     C81499  -0.149   2.353   8.806  0.0191 -0.2190 -0.1153
  618MOL0     C81500  -0.274   2.301   8.771  0.0211  0.0254  0.4966
  618MOL0     C81501  -0.285   2.217   8.650  1.2041 -0.2187 -0.0050
  618MOL0     O81502  -0.403   2.165   8.602 -0.1166 -0.2796 -0.7706
  618MOL0     C81503  -0.518   2.160   8.693 -0.1657 -0.1530 -0.8920
  618MOL0     C81504  -0.645   2.091   8.628  0.3361  0.1074 -0.0095
  618MOL0     C81505  -0.616   1.955   8.563 -0.9045 -0.1557 -0.2744
  618MOL0     C81506  -0.736   1.864   8.551 -0.5858 -0.3217  0.3363
  618MOL0     C81507  -0.855   1.917   8.479  0.1353 -0.2130  0.4557
  618MOL0     C81508  -0.950   1.954   8.416 -0.1931 -0.6336  0.9009
  618MOL0     C81509  -0.168   2.180   8.586 -0.4925 -0.0880 -0.4347
  618MOL0     C81510  -0.037   2.224   8.629  0.2402 -0.0156  0.3943
  618MOL0     H81511   0.444   2.248   8.639 -2.4397 -2.5934  0.6389
  618MOL0     H81512   0.665   2.325   8.728  0.0882 -0.8153 -0.1657
  618MOL0     H81513   0.813   2.206   9.034 -0.6980 -0.5989  0.8559
  618MOL0     H81514   0.699   2.297   9.143 -0.3137  0.4965 -0.6175
  618MOL0     H81515   0.991   2.321   9.079  0.3488  0.0780  0.3816
  618MOL0     H81516   0.909   2.306   9.233  0.3301  0.7552  0.7964
  618MOL0     H81517   0.797   2.539   9.150  0.7380  0.0992  3.5657
  618MOL0     H81518   0.923   2.531   9.031 -1.1146 -1.5847 -0.2559
  618MOL0     H81519   1.089   2.506   9.246 -1.6864 -2.4432 -1.7704
  618MOL0     H81520   1.050   2.666   9.177  1.0206  0.1410  0.0902
  618MOL0     H81521   0.852   2.671   9.334 -0.1198 -0.5332  1.7603
  618MOL0     H81522   1.018   2.677   9.410  0.7303  0.5759 -0.2345
  618MOL0     H81523   1.001   2.433   9.488  1.5302  1.6219 -0.2769
  618MOL0     H81524   0.861   2.415   9.394 -2.3145 -0.2668  2.8617
  618MOL0     H81525   0.894   2.564   9.645  0.6204 -0.0901  0.6985
  618MOL0     H81526   0.759   2.605   9.525 -3.4146 -2.7440  1.1191
  618MOL0     H81527   0.692   2.448   9.703  0.7863 -0.5942  0.1849
  618MOL0     H81528   0.797   2.322   9.642  1.2725  0.9129 -0.2346
  618MOL0     H81529   0.503   2.259   9.660  2.0529 -4.1415 -1.1428
  618MOL0     H81530   0.327   2.117   9.499 -0.0764  0.7873  1.9654
  618MOL0     H81531   0.303   2.167   9.332  2.3192  0.9208 -0.4906
  618MOL0     H81532   0.118   2.300   9.393  2.8068  3.1578 -2.3415
  618MOL0     H81533   0.232   2.396   9.479  2.4487 -0.5537 -1.1594
  618MOL0     H81534   0.221   2.238   9.676  1.3639 -0.2268  0.0130
  618MOL0     H81535   0.080   2.335   9.647  0.8734  2.4042 -3.0286
  618MOL0     H81536   0.018   2.100   9.694  1.8550 -1.4802 -0.0113
  618MOL0     H81537   0.121   2.057   9.549  0.6359 -0.3198  2.0205
  618MOL0     H81538  -0.046   1.894   9.596  0.5890  1.5046  0.9887
  618MOL0     H81539  -0.180   1.708   9.490 -0.2908  0.4666 -1.1966
  618MOL0     H81540  -0.520   1.446   9.321 -0.3236 -0.8551  0.2891
  618MOL0     H81541  -0.546   1.230   9.220  0.6710 -1.2189  2.5661
  618MOL0     H81542  -0.351   1.011   8.898 -1.3163 -0.2065 -1.2731
  618MOL0     H81543  -0.385   1.189   8.892  2.2104  0.6028  0.3593
  618MOL0     H81544  -0.620   1.120   8.955 -1.9805  0.5446 -3.3425
  618MOL0     H81545  -0.573   0.951   8.921  0.2738  0.3846  2.4055
  618MOL0     H81546  -0.526   1.046   8.691 -1.4607 -1.0366 -0.6886
  618MOL0     H81547  -0.597   1.195   8.733 -1.1425  0.2119  1.2436
  618MOL0     H81548  -0.827   1.102   8.715 -2.3381 -2.4035  3.0540
  618MOL0     H81549  -0.727   1.020   8.590  4.2633  0.5365  0.8150
  618MOL0     H81550  -0.785   0.905   8.869 -0.5230 -2.5707 -0.5777
  618MOL0     H81551  -0.706   0.823   8.733  0.7248  0.3288  0.4077
  618MOL0     H81552  -0.990   0.876   8.762  1.4438 -0.7345  2.3544
  618MOL0     H81553  -0.909   0.729   8.739  1.7642 -0.6493 -0.1071
  618MOL0     H81554  -1.043   0.778   8.544 -0.0079 -1.4596 -0.8306
  618MOL0     H81555  -0.957   0.935   8.521  3.0549  0.1105  0.0567
  618MOL0     H81556  -0.838   0.650   8.497 -1.0619  0.3344  0.6515
  618MOL0     H81557  -0.775   0.812   8.423  0.5512 -0.1300 -2.3793
  618MOL0     H81558  -0.150   1.235   9.056 -0.5471  1.3872 -1.2381
  618MOL0     H81559  -0.128   1.483   9.159  0.3187 -0.8361  1.6490
  618MOL0     H81560  -0.394   1.978   9.264 -1.2781 -0.8043  1.3359
  618MOL0     H81561  -0.264   2.169   9.355 -2.4801 -0.7009 -0.0078
  618MOL0     H81562   0.505   2.405   9.103  1.2976 -1.5802  0.2994
  618MOL0     H81563   0.275   2.358   9.024 -0.5777  2.8291 -0.0507
  618MOL0     H81564  -0.155   2.419   8.892 -1.4784  1.1325 -1.2019
  618MOL0     H81565  -0.353   2.334   8.838  2.1180  1.4612  2.4372
  618MOL0     H81566  -0.542   2.263   8.721 -1.5846 -0.9378  0.9978
  618MOL0     H81567  -0.473   2.105   8.776 -0.0758 -0.8963 -1.4185
  618MOL0     H81568  -0.723   2.061   8.699 -0.8653 -0.7227 -1.6361
  618MOL0     H81569  -0.684   2.157   8.551  0.1232 -0.7259 -0.6320
  618MOL0     H81570  -0.536   1.903   8.616  0.8186  1.3833 -1.2536
  618MOL0     H81571  -0.574   1.976   8.464  0.6703 -0.0240  0.3875
  618MOL0     H81572  -0.697   1.776   8.499 -0.5041 -0.0365 -0.0864
  618MOL0     H81573  -0.757   1.831   8.653 -0.3432  0.7551  0.7409
  618MOL0     H81574  -1.029   1.998   8.359 -1.3288  0.2787  3.0707
  618MOL0     H81575  -0.166   2.112   8.501 -1.2354 -4.0307  2.4285
  618MOL0     H81576   0.058   2.204   8.580  0.4474 -0.5342  1.0009
  619MOL0     O81577   1.932   6.152   2.729 -0.3265 -0.0046 -0.0442
  619MOL0     C81578   1.960   6.032   2.746  0.1609 -0.1523 -1.1810
  619MOL0     O81579   2.085   5.979   2.772 -0.1741 -0.6225  0.5929
  619MOL0     C81580   2.189   6.070   2.783 -0.4304 -0.5681 -0.3131
  619MOL0     C81581   2.282   6.047   2.884  0.0411 -0.5074  0.9002
  619MOL0     C81582   2.394   6.131   2.897  0.1007 -0.1155 -0.6931
  619MOL0     C81583   2.424   6.220   2.798 -0.3001 -0.2116  0.5222
  619MOL0     O81584   2.549   6.283   2.802  0.8534  0.5162  0.8850
  619MOL0     C81585   2.652   6.271   2.703  0.2393  0.2503 -0.3668
  619MOL0     C81586   2.694   6.414   2.675 -0.2395  0.7320  0.3062
  619MOL0     C81587   2.826   6.402   2.596 -0.1874  0.9389  0.0243
  619MOL0     C81588   2.812   6.328   2.466  0.1651  0.0237  0.5204
  619MOL0     C81589   2.931   6.354   2.375 -0.6846 -0.8948  0.1216
  619MOL0     C81590   2.941   6.278   2.244  0.0630  0.2564 -0.3850
  619MOL0     C81591   3.077   6.305   2.182 -0.9808 -0.5385 -0.6878
  619MOL0     C81592   3.102   6.450   2.124 -0.5671 -0.5219  0.3908
  619MOL0     N81593   3.191   6.437   2.006 -0.4275  0.6327 -0.2387
  619MOL0     C81594   3.315   6.385   2.011  0.0144 -0.9781  0.2368
  619MOL0     C81595   3.369   6.421   1.891  0.3414  0.0102  0.5624
  619MOL0     C81596   3.506   6.397   1.837 -0.6583 -0.0071 -0.7957
  619MOL0     C81597   3.531   6.249   1.833 -0.2263  0.0659 -0.1801
  619MOL0     C81598   3.466   6.186   1.699  1.1053  0.3684  0.4901
  619MOL0     C81599   3.350   6.080   1.746 -0.8496 -0.0409 -0.6579
  619MOL0     O81600   3.420   5.971   1.810 -0.1714  0.4985 -0.2259
  619MOL0     C81601   3.336   5.863   1.833  0.4006 -0.0894 -0.6570
  619MOL0     C81602   3.198   5.876   1.872 -0.1575  0.1480  0.3335
  619MOL0     C81603   3.119   5.763   1.890 -0.1228 -0.4439 -0.3711
  619MOL0     C81604   3.172   5.630   1.871  0.7995 -0.2456 -0.7156
  619MOL0     C81605   3.091   5.508   1.889 -0.2320 -0.0953  0.0484
  619MOL0     O81606   3.153   5.389   1.852 -0.0955  0.4992  0.3737
  619MOL0     C81607   3.057   5.293   1.829 -0.4250 -0.1470  0.0665
  619MOL0     C81608   3.022   5.206   1.936 -0.2628 -0.6553  0.1630
  619MOL0     C81609   2.942   5.091   1.914  0.1622 -0.7378  1.5680
  619MOL0     C81610   2.884   5.072   1.784  0.4599 -0.2478  0.8477
  619MOL0     O81611   2.808   4.967   1.761 -0.0008 -0.5756  0.4661
  619MOL0     C81612   2.675   4.992   1.712  0.1446 -0.8212  1.3347
  619MOL0     C81613   2.611   4.851   1.679  0.7595 -0.4589 -0.3547
  619MOL0     C81614   2.560   4.777   1.802  0.0376  0.6960 -0.6206
  619MOL0     C81615   2.460   4.847   1.888  0.0405  0.1801 -0.5444
  619MOL0     C81616   2.392   4.748   1.993  0.9333 -0.2219 -0.2878
  619MOL0     C81617   2.304   4.843   2.080  0.3900 -0.2283 -0.0368
  619MOL0     C81618   2.218   4.768   2.174 -0.3962  0.0780 -0.2839
  619MOL0     C81619   2.275   4.657   2.258 -0.2869 -0.0258 -0.0679
  619MOL0    Cl81620   2.448   4.676   2.303  0.0425  0.1286 -0.5438
  619MOL0     C81621   2.922   5.164   1.681 -0.8313  0.1698  1.0856
  619MOL0     C81622   3.016   5.265   1.697 -0.1737 -0.8707  0.0469
  619MOL0     O81623   2.974   5.524   1.926  0.0963  0.3747 -0.1746
  619MOL0     C81624   3.309   5.620   1.836  0.3458  0.2337  0.3592
  619MOL0     C81625   3.384   5.739   1.815 -0.2828  0.8074 -0.4086
  619MOL0     N81626   3.273   6.484   1.814  0.8863  0.6672  0.0493
  619MOL0     N81627   3.174   6.481   1.883  0.7645 -0.3576 -0.0149
  619MOL0     C81628   2.341   6.235   2.689 -0.4292 -0.2451  0.5730
  619MOL0     C81629   2.225   6.167   2.685  0.8460  0.2406  0.0121
  619MOL0     C81630   1.850   5.937   2.719  1.2435  0.5571  0.8050
  619MOL0     C81631   1.864   5.800   2.736  0.2652 -0.2109 -0.5349
  619MOL0     C81632   1.745   5.717   2.748 -0.0105 -0.0004 -0.7653
  619MOL0     C81633   1.613   5.767   2.728 -0.0117 -0.2471  0.0787
  619MOL0     O81634   1.501   5.693   2.718  0.3578 -0.2956  0.4970
  619MOL0     C81635   1.499   5.559   2.759  0.4331 -0.2498  0.7156
  619MOL0     C81636   1.355   5.514   2.732 -0.1179 -0.3856  0.4845
  619MOL0     C81637   1.332   5.484   2.591 -0.8006 -0.0930 -0.4301
  619MOL0     C81638   1.355   5.347   2.544  0.1353  0.2330  1.5521
  619MOL0     C81639   1.497   5.307   2.529  0.2307  0.8756 -0.2439
  619MOL0     C81640   1.610   5.272   2.525 -0.0960 -0.5125  0.3359
  619MOL0     C81641   1.605   5.899   2.680 -0.0476  0.0990 -0.3502
  619MOL0     C81642   1.719   5.980   2.693 -0.1609  0.1088  0.2219
  619MOL0     H81643   2.268   5.974   2.963  0.0426 -0.7835  0.6469
  619MOL0     H81644   2.466   6.108   2.975  1.1160  1.3173 -1.1684
  619MOL0     H81645   2.610   6.223   2.614 -1.2281  2.9164 -1.2277
  619MOL0     H81646   2.724   6.195   2.737  0.1562  0.6826  0.8317
  619MOL0     H81647   2.718   6.471   2.765 -0.9996 -0.4861  1.3078
  619MOL0     H81648   2.607   6.456   2.624  0.0030  0.0580 -0.6951
  619MOL0     H81649   2.900   6.339   2.648  0.9024  1.3354 -1.0096
  619MOL0     H81650   2.867   6.502   2.581  0.8501  0.3168 -1.4834
  619MOL0     H81651   2.791   6.221   2.478  0.5417 -0.1127 -0.0027
  619MOL0     H81652   2.729   6.376   2.415  1.6476 -0.5606 -2.6707
  619MOL0     H81653   3.019   6.327   2.433 -1.3012 -1.5234  0.7938
  619MOL0     H81654   2.904   6.459   2.360 -2.3724 -1.1486  1.0922
  619MOL0     H81655   2.867   6.318   2.175  1.5698  1.1354 -1.5721
  619MOL0     H81656   2.921   6.171   2.260 -1.1694  0.4340 -0.6844
  619MOL0     H81657   3.143   6.281   2.265 -3.3350  0.4790  1.6070
  619MOL0     H81658   3.089   6.233   2.100 -1.8318  0.5664 -1.8162
  619MOL0     H81659   3.137   6.513   2.207 -1.5884 -2.2675  2.2493
  619MOL0     H81660   3.009   6.498   2.092  0.5721  1.8378  0.4280
  619MOL0     H81661   3.355   6.341   2.102 -0.6756 -0.9301  0.5648
  619MOL0     H81662   3.581   6.453   1.894 -0.5371 -1.8704  0.9958
  619MOL0     H81663   3.510   6.442   1.737 -1.4217  0.3941 -0.6573
  619MOL0     H81664   3.503   6.206   1.929  0.2810  0.0295 -0.0456
  619MOL0     H81665   3.639   6.234   1.828  0.0723  1.8175  0.3887
  619MOL0     H81666   3.419   6.260   1.633 -1.1259  0.1180  1.6895
  619MOL0     H81667   3.546   6.147   1.636  0.8099  0.1460  0.2465
  619MOL0     H81668   3.296   6.048   1.657 -1.5312 -3.6282  0.8426
  619MOL0     H81669   3.282   6.122   1.821 -1.5542 -1.4732 -0.4582
  619MOL0     H81670   3.149   5.972   1.881  1.3799  0.9167  0.9426
  619MOL0     H81671   3.014   5.769   1.914  0.4837 -0.2822  2.6351
  619MOL0     H81672   3.069   5.202   2.034 -0.5875 -2.0891  0.2802
  619MOL0     H81673   2.926   5.029   2.002 -1.3931 -1.8765  0.5140
  619MOL0     H81674   2.674   5.062   1.629  1.0438 -0.3618  1.7061
  619MOL0     H81675   2.624   5.045   1.793  0.3182  0.5644  0.5542
  619MOL0     H81676   2.688   4.787   1.634 -1.1835 -2.8462 -0.5120
  619MOL0     H81677   2.526   4.847   1.611  0.1328 -1.3145  0.4412
  619MOL0     H81678   2.648   4.745   1.859  0.8588  1.3905 -1.4770
  619MOL0     H81679   2.503   4.690   1.769 -2.3337  2.1770 -0.6891
  619MOL0     H81680   2.514   4.919   1.950  0.8470  0.4662 -1.5622
  619MOL0     H81681   2.386   4.885   1.817  0.3317 -0.2557 -1.0888
  619MOL0     H81682   2.456   4.694   2.063 -3.7988 -1.6831  3.4446
  619MOL0     H81683   2.342   4.673   1.933  0.2053 -0.6920  0.8701
  619MOL0     H81684   2.246   4.903   2.009  4.0016 -0.9239 -4.0759
  619MOL0     H81685   2.370   4.906   2.140  0.0244 -1.3518  1.5971
  619MOL0     H81686   2.164   4.838   2.238  0.0299  0.3671 -0.2353
  619MOL0     H81687   2.141   4.723   2.112  2.1816 -0.0229 -3.7349
  619MOL0     H81688   2.261   4.560   2.209 -0.2621  0.1745 -0.4730
  619MOL0     H81689   2.216   4.648   2.349 -1.0339  0.8249 -0.4533
  619MOL0     H81690   2.889   5.128   1.584 -0.7532 -1.7399  1.7161
  619MOL0     H81691   3.060   5.323   1.617 -1.7665 -0.0019 -0.2566
  619MOL0     H81692   3.359   5.524   1.831  0.3175  0.0326  2.9743
  619MOL0     H81693   3.492   5.732   1.810 -0.3591 -0.8621 -0.4218
  619MOL0     H81694   2.374   6.294   2.604  0.6500 -1.1407  0.3447
  619MOL0     H81695   2.152   6.167   2.605  1.6326  0.8308 -0.7176
  619MOL0     H81696   1.961   5.756   2.756  0.8363  0.4768 -1.6657
  619MOL0     H81697   1.751   5.613   2.778  1.1089  0.3030  0.1092
  619MOL0     H81698   1.532   5.551   2.864  0.7836  2.8937  0.9326
  619MOL0     H81699   1.572   5.511   2.693 -0.8551  3.3222 -3.8369
  619MOL0     H81700   1.341   5.422   2.789  3.0534 -0.1625  1.8206
  619MOL0     H81701   1.274   5.580   2.767 -0.1631 -0.1860  0.0204
  619MOL0     H81702   1.398   5.541   2.525  5.0884 -2.6272  2.5363
  619MOL0     H81703   1.226   5.508   2.574 -1.0682  0.9863  2.3165
  619MOL0     H81704   1.305   5.269   2.602  0.5855 -2.0527 -0.9409
  619MOL0     H81705   1.298   5.335   2.452  0.3059 -0.4058  1.5225
  619MOL0     H81706   1.701   5.219   2.546 -1.3975 -2.2278  2.0142
  619MOL0     H81707   1.502   5.922   2.655 -0.2954 -0.5265  0.0569
  619MOL0     H81708   1.704   6.085   2.668 -1.8207  0.4297  2.2986
  620MOL0     O81709   3.822   4.825   3.226 -0.1885  0.1477  0.0494
  620MOL0     C81710   3.804   4.868   3.342  0.5554  0.0084 -0.9551
  620MOL0     O81711   3.679   4.870   3.405  0.3917 -0.0855  0.1348
  620MOL0     C81712   3.559   4.850   3.338 -0.7917 -0.7581  0.4346
  620MOL0     C81713   3.543   4.907   3.206  0.0386 -0.3174 -0.3418
  620MOL0     C81714   3.430   4.873   3.136 -0.7276 -1.0320  0.4369
  620MOL0     C81715   3.332   4.795   3.186 -0.1862  0.0178 -0.5942
  620MOL0     O81716   3.212   4.792   3.113 -0.0223 -0.6660 -0.1970
  620MOL0     C81717   3.128   4.682   3.120  0.6016 -0.7285 -0.4000
  620MOL0     C81718   3.015   4.688   3.018 -0.5353  0.5780  0.5631
  620MOL0     C81719   3.064   4.717   2.879 -0.2992  0.5755 -0.4174
  620MOL0     C81720   2.951   4.804   2.812 -1.2556  0.3908  0.6522
  620MOL0     C81721   2.840   4.709   2.770 -0.2911  1.1948 -0.5953
  620MOL0     C81722   2.701   4.777   2.770 -0.3680  0.7407 -0.4458
  620MOL0     C81723   2.646   4.814   2.908 -0.2795  0.8342  0.2483
  620MOL0     C81724   2.523   4.897   2.886  0.3104 -0.0528  0.3098
  620MOL0     N81725   2.436   4.937   3.000 -0.1111  0.8065  0.2043
  620MOL0     C81726   2.318   5.022   2.996 -1.2271 -0.2075  0.0667
  620MOL0     C81727   2.231   4.983   3.091  0.1345 -1.1844  0.4294
  620MOL0     C81728   2.098   5.038   3.135 -0.6757  0.5448 -1.4293
  620MOL0     C81729   1.994   5.033   3.023 -0.7127 -0.3709 -0.1604
  620MOL0     C81730   1.854   5.054   3.065 -0.2408  0.1309  0.7249
  620MOL0     C81731   1.767   5.065   2.945 -1.0407  0.8883 -0.0607
  620MOL0     O81732   1.720   4.932   2.909  0.6186  1.0459 -0.1809
  620MOL0     C81733   1.600   4.911   2.848  0.0799 -0.1818  0.2756
  620MOL0     C81734   1.530   5.009   2.776  0.6651 -0.4936 -0.4764
  620MOL0     C81735   1.424   4.967   2.702 -0.2283 -0.5474  0.5132
  620MOL0     C81736   1.389   4.834   2.691 -0.3658 -0.4839 -0.0377
  620MOL0     C81737   1.294   4.795   2.588 -0.1128 -0.4117 -1.0094
  620MOL0     O81738   1.276   4.658   2.569 -0.0290 -1.1413  0.3697
  620MOL0     C81739   1.198   4.619   2.466  0.2455  0.3459  0.6281
  620MOL0     C81740   1.101   4.523   2.486 -0.0506  0.7051  0.9546
  620MOL0     C81741   1.014   4.495   2.378  0.0991 -0.4616 -0.0131
  620MOL0     C81742   1.029   4.552   2.248 -0.3291 -1.1385 -0.4189
  620MOL0     O81743   0.929   4.535   2.154 -0.1923 -0.3656 -0.0978
  620MOL0     C81744   0.953   4.522   2.016 -0.4395  0.0906  0.9433
  620MOL0     C81745   0.957   4.367   1.984 -0.4808  1.0535  0.6936
  620MOL0     C81746   0.827   4.301   2.011 -0.7720  0.2690  1.2670
  620MOL0     C81747   0.810   4.174   1.928  1.2037 -0.9686 -0.2481
  620MOL0     C81748   0.670   4.110   1.934  0.1864 -0.2556  0.4076
  620MOL0     C81749   0.562   4.199   1.876 -0.1818 -0.1918 -0.9083
  620MOL0     C81750   0.416   4.142   1.888 -1.2705 -0.2514  0.0392
  620MOL0     C81751   0.417   4.007   1.821 -0.4717  0.1430 -1.0648
  620MOL0    Cl81752   0.253   3.951   1.818  0.4424  0.2867 -0.6675
  620MOL0     C81753   1.135   4.646   2.221 -0.7114  0.0266 -0.8422
  620MOL0     C81754   1.213   4.673   2.334 -0.0064  1.3404 -0.4411
  620MOL0     O81755   1.227   4.890   2.537 -0.2615  0.7292  0.2599
  620MOL0     C81756   1.458   4.739   2.771  0.1214 -0.0513  0.3111
  620MOL0     C81757   1.559   4.773   2.853  0.9703  0.0715  0.0826
  620MOL0     N81758   2.295   4.884   3.164 -0.4441 -0.2375  0.5025
  620MOL0     N81759   2.412   4.868   3.110  0.2474  0.3668 -0.8788
  620MOL0     C81760   3.340   4.751   3.317 -0.1298  0.1070  0.3762
  620MOL0     C81761   3.453   4.777   3.387  1.1900  0.5770  0.6119
  620MOL0     C81762   3.922   4.890   3.431 -0.1362  0.2289  0.1996
  620MOL0     C81763   4.058   4.918   3.378 -0.5186 -0.5831 -0.5737
  620MOL0     C81764   4.159   4.957   3.461  0.2337  0.4376 -0.0567
  620MOL0     C81765   4.134   4.982   3.594 -0.3484 -0.1911  0.4678
  620MOL0     O81766   4.240   5.015   3.665  0.0213 -0.2657 -0.8882
  620MOL0     C81767   4.216   5.021   3.813 -0.7408  0.5559  0.3737
  620MOL0     C81768   4.353   5.072   3.868 -0.7984  1.4670 -0.8591
  620MOL0     C81769   4.462   4.959   3.863  0.9780  0.7608  0.0632
  620MOL0     C81770   4.565   4.969   3.966  0.2321  0.0833  0.6863
  620MOL0     C81771   4.664   4.869   3.930 -0.6673 -0.4534  0.4328
  620MOL0     C81772   4.737   4.778   3.890 -0.3775 -0.1962 -0.0716
  620MOL0     C81773   4.010   4.964   3.648 -0.4923 -0.4946 -0.7388
  620MOL0     C81774   3.906   4.911   3.569 -0.0180 -0.1689  0.2055
  620MOL0     H81775   3.611   4.978   3.159 -2.7748  0.5778 -3.5004
  620MOL0     H81776   3.429   4.924   3.040  1.6001 -0.4527  0.6593
  620MOL0     H81777   3.091   4.663   3.222  2.5232  1.1223  0.7182
  620MOL0     H81778   3.175   4.587   3.098 -1.1850 -1.3800 -1.6430
  620MOL0     H81779   2.940   4.763   3.044 -0.1896  1.0278  0.2836
  620MOL0     H81780   2.970   4.588   3.018 -0.9445  0.7516  2.0398
  620MOL0     H81781   3.058   4.622   2.826  1.8122  1.1506 -1.8407
  620MOL0     H81782   3.159   4.771   2.877 -0.4785  0.8769 -1.0214
  620MOL0     H81783   2.914   4.884   2.878 -0.9622 -0.6501  2.1251
  620MOL0     H81784   3.006   4.859   2.735 -1.3574  0.5711  0.7049
  620MOL0     H81785   2.834   4.624   2.838 -0.7295  1.0330 -0.8347
  620MOL0     H81786   2.859   4.675   2.668  1.3211  1.1086 -0.2973
  620MOL0     H81787   2.643   4.700   2.719  2.9906 -1.0960 -1.7897
  620MOL0     H81788   2.716   4.872   2.719  2.0168 -0.1742 -1.5545
  620MOL0     H81789   2.624   4.717   2.954  0.2373  0.3284 -0.5516
  620MOL0     H81790   2.703   4.877   2.977 -2.3768 -0.0731  3.0202
  620MOL0     H81791   2.463   4.836   2.819 -1.4291  1.7134  0.1588
  620MOL0     H81792   2.557   4.983   2.827  0.9957 -1.9698 -2.2788
  620MOL0     H81793   2.309   5.109   2.932  1.5407 -0.1507 -0.3700
  620MOL0     H81794   2.103   5.141   3.170 -0.1593 -0.7601  2.8247
  620MOL0     H81795   2.050   4.973   3.209 -0.3306 -0.8720 -2.3891
  620MOL0     H81796   2.000   4.935   2.976 -3.0860  0.0848 -1.5373
  620MOL0     H81797   2.024   5.110   2.952  0.7576 -1.5020 -0.8222
  620MOL0     H81798   1.814   4.972   3.125 -0.9606 -1.9986 -2.3658
  620MOL0     H81799   1.847   5.141   3.130  2.7729 -0.2729  1.7321
  620MOL0     H81800   1.821   5.114   2.864  0.6353  0.9116  1.0254
  620MOL0     H81801   1.684   5.131   2.969 -1.0649  0.5100  0.9277
  620MOL0     H81802   1.567   5.111   2.782  0.9413 -0.6536  2.8855
  620MOL0     H81803   1.378   5.044   2.641 -0.9074 -1.4194 -0.0954
  620MOL0     H81804   1.093   4.483   2.586 -0.8122  0.8476  0.9529
  620MOL0     H81805   0.929   4.428   2.377 -1.5413  1.4827  1.0843
  620MOL0     H81806   1.051   4.563   1.989 -0.9762 -0.5417 -2.4035
  620MOL0     H81807   0.884   4.580   1.954  1.7338  2.0692  0.2401
  620MOL0     H81808   1.037   4.324   2.044 -1.1683  0.6399  1.3255
  620MOL0     H81809   0.983   4.346   1.879  1.4857  2.7762  0.7774
  620MOL0     H81810   0.745   4.369   1.986 -2.7333 -2.0413  1.1101
  620MOL0     H81811   0.805   4.278   2.115 -5.1223  1.4412  0.7996
  620MOL0     H81812   0.837   4.196   1.825  0.2477 -1.7394 -0.6820
  620MOL0     H81813   0.877   4.101   1.975  1.3164  0.1341  1.4099
  620MOL0     H81814   0.643   4.089   2.038  0.0067 -1.4949  0.1184
  620MOL0     H81815   0.678   4.016   1.880 -4.4565 -0.9436  0.5674
  620MOL0     H81816   0.593   4.227   1.775  0.7605  1.8521 -0.1103
  620MOL0     H81817   0.555   4.292   1.933 -0.8441  0.1106 -1.4703
  620MOL0     H81818   0.384   4.140   1.993  0.9735 -3.5159  0.7904
  620MOL0     H81819   0.340   4.202   1.837 -0.2958  0.3868 -0.7146
  620MOL0     H81820   0.467   3.928   1.878 -2.6766 -0.7972 -0.3561
  620MOL0     H81821   0.479   4.004   1.730 -0.4086  2.7211 -1.1784
  620MOL0     H81822   1.151   4.694   2.125  3.4419  1.9009  0.5379
  620MOL0     H81823   1.309   4.723   2.325  0.5302  0.4516  0.1185
  620MOL0     H81824   1.432   4.634   2.762 -0.0514  0.0978 -1.2022
  620MOL0     H81825   1.621   4.692   2.892  0.8697 -0.6567 -1.2182
  620MOL0     H81826   3.254   4.699   3.360 -0.3680 -0.9175 -1.2668
  620MOL0     H81827   3.457   4.750   3.492 -4.2074  1.3845  1.2613
  620MOL0     H81828   4.080   4.909   3.272  2.9671 -1.0875  0.0613
  620MOL0     H81829   4.261   4.956   3.424  0.4841 -0.9339  0.5985
  620MOL0     H81830   4.189   4.922   3.853  2.0308 -0.5307 -0.2234
  620MOL0     H81831   4.142   5.096   3.844  0.0671  1.1664  0.8536
  620MOL0     H81832   4.380   5.161   3.810 -0.2167  0.5125 -2.0805
  620MOL0     H81833   4.348   5.091   3.976 -3.3459  0.1477 -0.6670
  620MOL0     H81834   4.493   4.958   3.758 -2.7006 -0.5554 -1.1600
  620MOL0     H81835   4.404   4.869   3.883  1.2974  0.6193  0.3662
  620MOL0     H81836   4.601   5.072   3.961  0.5156  0.0335  1.6340
  620MOL0     H81837   4.520   4.944   4.062  0.3286 -5.4151 -0.3618
  620MOL0     H81838   4.800   4.698   3.856  3.3055  1.4029  2.3590
  620MOL0     H81839   3.981   4.983   3.751  2.3935 -1.6452  0.4072
  620MOL0     H81840   3.814   4.902   3.625  0.0896 -0.9938  0.2609
  621MOL0     O81841   8.661  10.811   9.529  0.3645  0.5059  0.0437
  621MOL0     C81842   8.614  10.699   9.545 -0.2691 -0.3244  0.5757
  621MOL0     O81843   8.537  10.653   9.647  0.2535 -0.6312 -0.4052
  621MOL0     C81844   8.486  10.746   9.736  0.0279  0.3156  0.1983
  621MOL0     C81845   8.397  10.844   9.685 -0.0122 -0.2033  0.6869
  621MOL0     C81846   8.327  10.926   9.767 -0.7273  0.1556 -0.4404
  621MOL0     C81847   8.336  10.908   9.906  0.7568 -0.4298  0.7047
  621MOL0     O81848   8.239  10.979   9.978  0.4219  0.2660 -0.0790
  621MOL0     C81849   8.269  10.995  10.126  0.2197 -0.1060  0.7102
  621MOL0     C81850   8.185  11.108  10.174  0.2385  0.3662  0.1288
  621MOL0     C81851   8.039  11.073  10.185 -0.9882 -0.1661 -0.0991
  621MOL0     C81852   7.954  11.185  10.245 -0.0635 -0.3738  0.3167
  621MOL0     C81853   7.809  11.146  10.281  0.7266 -0.1030  0.6859
  621MOL0     C81854   7.807  11.053  10.402  0.6628 -0.1945  0.5500
  621MOL0     C81855   7.741  10.916  10.373  0.4783  0.0220  1.1245
  621MOL0     C81856   7.710  10.841  10.508  0.1782  0.1993  0.1360
  621MOL0     N81857   7.621  10.727  10.485 -0.5772 -0.8887 -0.5924
  621MOL0     C81858   7.498  10.743  10.422 -0.9304 -0.3333  0.3184
  621MOL0     C81859   7.463  10.614  10.401 -0.2272  0.9549  0.2781
  621MOL0     C81860   7.328  10.575  10.337  0.4875  0.0004 -0.9309
  621MOL0     C81861   7.209  10.662  10.389 -0.2022  0.1474  0.3603
  621MOL0     C81862   7.183  10.651  10.534 -0.0957  0.3559  0.1497
  621MOL0     C81863   7.045  10.694  10.590 -0.5984  0.0393  0.7777
  621MOL0     O81864   7.035  10.652  10.730  0.2376 -0.2301  0.1798
  621MOL0     C81865   6.920  10.660  10.811 -0.0396  0.3962 -0.7138
  621MOL0     C81866   6.936  10.609  10.948 -0.2769 -0.0014  0.9481
  621MOL0     C81867   6.824  10.591  11.024  0.0886 -0.0017  1.2245
  621MOL0     C81868   6.698  10.619  10.973  0.7247 -0.7453 -0.6953
  621MOL0     C81869   6.588  10.597  11.065  0.8681  0.2048  0.4803
  621MOL0     O81870   6.478  10.547  11.004 -0.1096  0.4669  0.3226
  621MOL0     C81871   6.354  10.562  11.058  0.8687  0.4755 -0.7715
  621MOL0     C81872   6.315  10.492  11.180  0.2542  1.1235  0.1111
  621MOL0     C81873   6.191  10.522  11.239 -1.1387  0.4898  0.1275
  621MOL0     C81874   6.106  10.627  11.194 -0.2686 -0.3243 -0.3183
  621MOL0     O81875   5.986  10.658  11.248  0.3598  0.6495  0.0827
  621MOL0     C81876   5.957  10.608  11.378  0.4767 -0.0410 -0.0844
  621MOL0     C81877   5.808  10.639  11.406  0.5988  0.8258 -0.4044
  621MOL0     C81878   5.728  10.557  11.301  0.3235  0.7877  0.6553
  621MOL0     C81879   5.581  10.586  11.321 -0.5800 -0.4684  0.6679
  621MOL0     C81880   5.535  10.509  11.434  0.8877  0.3417 -0.1941
  621MOL0     C81881   5.390  10.557  11.481  0.9214  0.1499 -0.6252
  621MOL0     C81882   5.350  10.480  11.615 -0.0462  0.9225 -0.2028
  621MOL0     C81883   5.201  10.507  11.679 -0.6730  0.3018 -0.0559
  621MOL0    Cl81884   5.203  10.678  11.733  0.0807 -0.4723  0.2930
  621MOL0     C81885   6.156  10.700  11.088 -0.0325 -0.4875 -0.1941
  621MOL0     C81886   6.275  10.664  11.016  0.6972  0.1584  0.2496
  621MOL0     O81887   6.589  10.633  11.184 -0.0477  0.3982  0.5395
  621MOL0     C81888   6.681  10.684  10.849 -0.0591 -0.7811 -0.5299
  621MOL0     C81889   6.798  10.704  10.773  0.3517 -0.0095  0.0358
  621MOL0     N81890   7.560  10.523  10.447  0.6670  0.1121  0.0291
  621MOL0     N81891   7.646  10.595  10.503 -0.2760  0.2302  0.0433
  621MOL0     C81892   8.428  10.818   9.965 -0.9904 -1.1734 -0.1100
  621MOL0     C81893   8.502  10.732   9.874  0.5505  0.6466  0.0155
  621MOL0     C81894   8.651  10.589   9.452 -0.2456  0.7595  0.4216
  621MOL0     C81895   8.619  10.452   9.490  0.5964  0.4429  0.0987
  621MOL0     C81896   8.660  10.343   9.416 -0.2032 -0.0991  0.5790
  621MOL0     C81897   8.748  10.359   9.306  0.6137  0.5010  0.1563
  621MOL0     O81898   8.790  10.238   9.250  0.3341 -0.2653  0.0782
  621MOL0     C81899   8.883  10.244   9.138  0.7107 -0.0554  0.1333
  621MOL0     C81900   8.950  10.107   9.115 -1.0167  0.6301 -0.2461
  621MOL0     C81901   9.036  10.045   9.232  1.0301 -0.3713  0.4597
  621MOL0     C81902   9.084   9.898   9.206  0.0613  0.3556  0.5038
  621MOL0     C81903   9.206   9.883   9.123  0.3382 -0.3138 -0.8175
  621MOL0     C81904   9.304   9.861   9.052 -0.0830  0.4006  0.0394
  621MOL0     C81905   8.787  10.488   9.272 -0.8195  0.1644  0.3482
  621MOL0     C81906   8.737  10.601   9.344 -0.4701 -0.4673 -0.6804
  621MOL0     H81907   8.395  10.860   9.578  1.7339 -0.4285  0.5851
  621MOL0     H81908   8.238  10.984   9.745 -2.1256 -1.9241 -0.5657
  621MOL0     H81909   8.376  11.007  10.148  1.0068 -0.9645 -2.1398
  621MOL0     H81910   8.241  10.899  10.170  3.6673 -2.1312 -1.0494
  621MOL0     H81911   8.194  11.198  10.113 -3.0178 -0.4123 -1.7343
  621MOL0     H81912   8.227  11.126  10.273 -0.0159 -1.8586  0.7039
  621MOL0     H81913   8.028  11.000  10.266  1.0651  1.3517  1.6461
  621MOL0     H81914   8.010  11.041  10.084 -1.4767  3.4988 -1.2460
  621MOL0     H81915   8.000  11.221  10.337 -0.5481 -3.5552  1.9567
  621MOL0     H81916   7.962  11.267  10.174  0.7831 -0.0692  0.7587
  621MOL0     H81917   7.760  11.101  10.194  2.6899  0.5396 -0.8127
  621MOL0     H81918   7.752  11.232  10.319  0.9570 -0.6228  2.3156
  621MOL0     H81919   7.744  11.109  10.473  0.9431  0.3589  0.3682
  621MOL0     H81920   7.909  11.033  10.436  1.1956  1.2214 -0.1564
  621MOL0     H81921   7.647  10.927  10.318  0.1749 -3.8500  0.6259
  621MOL0     H81922   7.802  10.856  10.305 -1.2663 -2.5860  1.7115
  621MOL0     H81923   7.672  10.900  10.591 -0.1330 -1.2036  1.0167
  621MOL0     H81924   7.798  10.795  10.554 -0.2473  2.3800  3.4494
  621MOL0     H81925   7.446  10.836  10.405  3.0389  1.8050 -1.6995
  621MOL0     H81926   7.309  10.471  10.366 -0.6062  0.5562  0.4542
  621MOL0     H81927   7.344  10.600  10.231  1.5958 -0.3066 -0.8526
  621MOL0     H81928   7.124  10.636  10.325  1.1900 -0.7053 -1.2090
  621MOL0     H81929   7.225  10.766  10.357  3.0406 -0.9389 -2.1561
  621MOL0     H81930   7.195  10.544  10.556  0.2392  0.5932  1.1474
  621MOL0     H81931   7.257  10.705  10.593  2.1035 -0.2066 -1.9213
  621MOL0     H81932   6.954  10.659  10.540  0.7663 -1.7604 -0.6054
  621MOL0     H81933   7.038  10.801  10.571 -0.0350  0.3504  2.1721
  621MOL0     H81934   7.037  10.581  10.975 -0.0244  0.9710  1.0764
  621MOL0     H81935   6.825  10.543  11.121  0.3440 -1.1386  0.6753
  621MOL0     H81936   6.374  10.412  11.224 -2.6100 -0.9803  0.4667
  621MOL0     H81937   6.166  10.452  11.318 -2.2716  1.1066  0.3535
  621MOL0     H81938   6.021  10.665  11.445  2.8379 -3.2704  0.6378
  621MOL0     H81939   5.984  10.503  11.392  1.2592 -0.2971 -2.8506
  621MOL0     H81940   5.787  10.742  11.376 -3.6060 -0.5372 -3.0871
  621MOL0     H81941   5.789  10.620  11.512  0.6645 -0.7648 -0.6444
  621MOL0     H81942   5.747  10.450  11.312  0.3138  0.6380 -0.6203
  621MOL0     H81943   5.764  10.588  11.202 -0.0032  0.9413  0.5843
  621MOL0     H81944   5.554  10.691  11.335  1.3967 -0.0622  1.8858
  621MOL0     H81945   5.520  10.555  11.236 -0.7608  4.0786 -1.1140
  621MOL0     H81946   5.593  10.522  11.526  1.1658 -2.2120  0.0720
  621MOL0     H81947   5.529  10.404  11.403  2.1198 -0.0630  0.8185
  621MOL0     H81948   5.315  10.560  11.402 -0.7268 -0.8117  0.8263
  621MOL0     H81949   5.394  10.660  11.518  2.1457 -0.6358  1.6436
  621MOL0     H81950   5.352  10.372  11.593  0.6095  0.7458  0.6593
  621MOL0     H81951   5.425  10.493  11.694  4.0399 -3.8475 -2.6901
  621MOL0     H81952   5.189  10.443  11.767  0.2267 -0.6654 -0.6083
  621MOL0     H81953   5.120  10.491  11.607  1.2337  2.3270 -2.8671
  621MOL0     H81954   6.099  10.787  11.056 -1.1860 -0.8260  0.8403
  621MOL0     H81955   6.298  10.719  10.925 -0.9405  1.2164  0.4329
  621MOL0     H81956   6.583  10.726  10.829 -0.1352 -0.8998 -0.4104
  621MOL0     H81957   6.785  10.731  10.668  0.7307  0.2285  0.0482
  621MOL0     H81958   8.442  10.802  10.072  5.4148 -5.0033 -1.0527
  621MOL0     H81959   8.576  10.658   9.905  0.9988  0.3013 -1.7661
  621MOL0     H81960   8.550  10.442   9.572  1.6458  0.3487  0.9956
  621MOL0     H81961   8.627  10.244   9.444 -1.0140  0.1584  0.5887
  621MOL0     H81962   8.968  10.303   9.172  0.6704  0.4745 -0.6823
  621MOL0     H81963   8.841  10.288   9.047  4.8421  2.1859 -0.8828
  621MOL0     H81964   8.878  10.027   9.099  0.8498 -1.5044  1.2887
  621MOL0     H81965   9.016  10.112   9.028  2.3149 -0.3481  2.0126
  621MOL0     H81966   8.986  10.042   9.329  1.4663 -1.0667  0.6689
  621MOL0     H81967   9.129  10.100   9.250  0.8306 -0.3864  1.6357
  621MOL0     H81968   9.109   9.858   9.305  3.4217  1.0010  0.0205
  621MOL0     H81969   9.016   9.829   9.154  2.3580  0.1235 -2.4109
  621MOL0     H81970   9.373   9.854   8.971  1.1149  0.9643  0.9964
  621MOL0     H81971   8.863  10.510   9.198 -0.0395 -1.5514  0.5968
  621MOL0     H81972   8.772  10.699   9.315 -2.6495 -0.2547 -2.8513
  622MOL0     O81973   1.227  10.759   5.270  0.9655 -0.5654  0.5527
  622MOL0     C81974   1.342  10.782   5.268  0.5461  0.1473  0.4493
  622MOL0     O81975   1.437  10.710   5.345 -0.0372  0.7131  0.3492
  622MOL0     C81976   1.414  10.671   5.477  0.3554 -0.4178  1.2971
  622MOL0     C81977   1.342  10.751   5.561  0.0616 -0.7044 -0.7203
  622MOL0     C81978   1.340  10.727   5.701 -1.1102  0.5636  0.0077
  622MOL0     C81979   1.396  10.609   5.755 -0.4113  0.5457  0.7781
  622MOL0     O81980   1.386  10.566   5.886 -0.9848 -0.9617 -0.1342
  622MOL0     C81981   1.382  10.671   5.988 -0.2126  0.4197  0.5667
  622MOL0     C81982   1.362  10.615   6.124 -0.7789 -0.7186 -0.1122
  622MOL0     C81983   1.484  10.540   6.182 -0.1899 -0.2812 -0.7988
  622MOL0     C81984   1.604  10.634   6.221 -0.3933  0.3487  0.4795
  622MOL0     C81985   1.693  10.570   6.335 -0.1738  0.6173  0.1849
  622MOL0     C81986   1.788  10.669   6.417  0.3981  0.2563  0.4372
  622MOL0     C81987   1.895  10.737   6.327  0.4190  0.0423 -0.6645
  622MOL0     C81988   2.001  10.812   6.413  1.5285  0.4789  0.1570
  622MOL0     N81989   2.105  10.861   6.332 -0.1049 -0.4224 -0.0564
  622MOL0     C81990   2.200  10.784   6.267 -0.0531  0.1553  0.5691
  622MOL0     C81991   2.293  10.866   6.227 -0.3104  1.1030 -0.0991
  622MOL0     C81992   2.435  10.839   6.180 -0.2377 -0.1783 -0.3420
  622MOL0     C81993   2.537  10.837   6.295 -0.6272 -0.1915 -0.4195
  622MOL0     C81994   2.669  10.898   6.254 -0.5098  0.3047 -0.0010
  622MOL0     C81995   2.756  10.913   6.370 -0.3482 -0.7406  0.1581
  622MOL0     O81996   2.704  10.992   6.481  0.1389 -0.1133 -0.2215
  622MOL0     C81997   2.718  11.137   6.474  0.7699  0.2877 -0.1662
  622MOL0     C81998   2.644  11.209   6.571 -0.5393  0.4068  0.0528
  622MOL0     C81999   2.634  11.351   6.557  0.0162 -0.9092 -0.1904
  622MOL0     C82000   2.695  11.421   6.452 -0.0423 -0.4222  1.1963
  622MOL0     C82001   2.684  11.572   6.456  0.7376  0.0711 -0.2930
  622MOL0     O82002   2.635  11.624   6.571 -0.1066 -0.0503  0.7923
  622MOL0     C82003   2.634  11.758   6.591  0.3087  0.5780 -0.4631
  622MOL0     C82004   2.647  11.797   6.723 -0.3185 -0.7372 -0.3332
  622MOL0     C82005   2.650  11.933   6.758  0.0873  0.2121 -0.4308
  622MOL0     C82006   2.626  12.028   6.664  0.9839 -1.0938 -0.2768
  622MOL0     O82007   2.599  12.161   6.693 -0.4238  0.5052  0.3947
  622MOL0     C82008   2.687  12.228   6.786  0.9981  0.1005 -0.1770
  622MOL0     C82009   2.627  12.376   6.804  0.0107 -0.4916 -1.0432
  622MOL0     C82010   2.680  12.478   6.697  0.2423  0.3381  0.5816
  622MOL0     C82011   2.655  12.624   6.741  0.1558  0.0568  0.0263
  622MOL0     C82012   2.751  12.713   6.656  0.0329 -0.1777  0.0115
  622MOL0     C82013   2.720  12.864   6.682 -0.3651  0.6951 -1.0586
  622MOL0     C82014   2.805  12.954   6.600 -0.2477  0.0398 -0.6421
  622MOL0     C82015   2.813  13.089   6.668  1.0171 -0.5762  0.2285
  622MOL0    Cl82016   2.894  13.195   6.545  0.0449  0.3954  0.1390
  622MOL0     C82017   2.605  11.997   6.532 -0.8685 -0.3102 -0.1038
  622MOL0     C82018   2.611  11.862   6.497 -0.2279 -0.3580  1.0291
  622MOL0     O82019   2.747  11.638   6.371 -0.3323  0.4456  0.2054
  622MOL0     C82020   2.762  11.349   6.355  0.5738 -1.3401 -1.3531
  622MOL0     C82021   2.767  11.209   6.359 -1.0530  0.1130  0.9136
  622MOL0     N82022   2.249  10.996   6.267  0.0605  0.2056  0.1121
  622MOL0     N82023   2.137  10.991   6.324 -0.3207 -0.2343 -0.8301
  622MOL0     C82024   1.452  10.518   5.663  0.0913 -0.1970 -0.0019
  622MOL0     C82025   1.470  10.559   5.530  0.4137 -0.6395 -0.1778
  622MOL0     C82026   1.408  10.861   5.160  0.0107 -0.5709  1.0544
  622MOL0     C82027   1.543  10.858   5.129 -0.3941  0.2102 -0.9373
  622MOL0     C82028   1.587  10.918   5.016  0.2034 -0.0769 -0.5306
  622MOL0     C82029   1.505  11.002   4.931 -0.0314  0.0895  1.1837
  622MOL0     O82030   1.569  11.080   4.833  0.2439 -0.1337  0.2804
  622MOL0     C82031   1.504  11.095   4.699  0.3795 -0.4667 -1.1672
  622MOL0     C82032   1.602  11.080   4.580 -0.6909 -0.0316  0.1522
  622MOL0     C82033   1.709  11.175   4.590 -0.3494 -0.1023 -0.2251
  622MOL0     C82034   1.784  11.189   4.454  0.0502 -0.5410 -0.4225
  622MOL0     C82035   1.870  11.071   4.423  0.6300 -0.8070 -0.7212
  622MOL0     C82036   1.934  10.977   4.399  0.5999  0.0658  1.1681
  622MOL0     C82037   1.373  10.998   4.967 -0.3060 -0.8946  0.1494
  622MOL0     C82038   1.323  10.933   5.071 -0.2879 -0.2368 -0.6249
  622MOL0     H82039   1.288  10.837   5.524  3.1811 -0.1290 -4.6194
  622MOL0     H82040   1.312  10.805   5.770 -1.1985  0.1788  0.4142
  622MOL0     H82041   1.289  10.727   5.981  0.9350  2.5650  1.5402
  622MOL0     H82042   1.456  10.749   5.968 -0.3230  0.2538 -0.5603
  622MOL0     H82043   1.277  10.548   6.139  0.7382 -1.9936  4.0719
  622MOL0     H82044   1.346  10.694   6.198  3.0096 -0.2194  0.3671
  622MOL0     H82045   1.524  10.474   6.104  2.0184 -0.9652  0.7944
  622MOL0     H82046   1.455  10.479   6.268 -1.0261 -0.3998 -1.1519
  622MOL0     H82047   1.675  10.648   6.138  0.5901 -0.7278  1.1175
  622MOL0     H82048   1.578  10.736   6.252  1.1868  0.5003  1.4038
  622MOL0     H82049   1.761  10.497   6.290  1.1561  0.7065  1.9339
  622MOL0     H82050   1.634  10.511   6.406  1.1315  1.0857  1.7169
  622MOL0     H82051   1.823  10.620   6.508 -0.0241 -1.2353 -0.1724
  622MOL0     H82052   1.728  10.752   6.457  1.0734  2.4002 -2.6649
  622MOL0     H82053   1.946  10.666   6.262  1.7986  2.0043 -1.8371
  622MOL0     H82054   1.828  10.808   6.276 -1.3202  0.3189  1.8136
  622MOL0     H82055   2.038  10.756   6.500  0.2011 -3.4700 -1.5686
  622MOL0     H82056   1.941  10.895   6.452  1.2062  0.2747  0.1050
  622MOL0     H82057   2.190  10.677   6.252 -1.5850  0.3107  0.3318
  622MOL0     H82058   2.465  10.919   6.112 -0.8443 -0.7517 -1.3066
  622MOL0     H82059   2.435  10.741   6.133  1.7085 -1.3557  1.9263
  622MOL0     H82060   2.549  10.730   6.318  0.7010  0.3672  1.8790
  622MOL0     H82061   2.490  10.877   6.386 -1.9665 -4.6868  1.1504
  622MOL0     H82062   2.717  10.826   6.187  0.7813  0.7931  0.3550
  622MOL0     H82063   2.662  10.988   6.192  0.6239 -0.4549 -1.3165
  622MOL0     H82064   2.849  10.963   6.338 -0.2753 -0.4453  0.8173
  622MOL0     H82065   2.798  10.816   6.396 -2.9622 -0.8626  5.0001
  622MOL0     H82066   2.578  11.172   6.649 -1.1995  2.4443  0.5222
  622MOL0     H82067   2.568  11.401   6.627  0.2914 -0.8368  0.0219
  622MOL0     H82068   2.661  11.730   6.807  1.8224 -1.9115 -1.5215
  622MOL0     H82069   2.656  11.957   6.864  0.7231 -1.3875 -0.0744
  622MOL0     H82070   2.791  12.226   6.752  0.7153  1.8003 -1.2205
  622MOL0     H82071   2.706  12.172   6.878  3.2306 -3.2272 -2.4388
  622MOL0     H82072   2.659  12.406   6.904  0.4145 -3.0321 -0.3398
  622MOL0     H82073   2.519  12.372   6.816  0.1789  1.8722  3.0221
  622MOL0     H82074   2.625  12.468   6.603 -1.8250  1.1236  1.6381
  622MOL0     H82075   2.786  12.471   6.672  0.1676  5.9758 -3.3034
  622MOL0     H82076   2.553  12.660   6.728  1.2175  3.0336 -0.9594
  622MOL0     H82077   2.701  12.642   6.839  0.9098  0.2795 -0.3548
  622MOL0     H82078   2.722  12.692   6.553 -2.2748  0.8265  0.3825
  622MOL0     H82079   2.856  12.692   6.676 -0.5407 -1.3149  2.1449
  622MOL0     H82080   2.751  12.878   6.787 -2.3934  0.4786 -0.3889
  622MOL0     H82081   2.613  12.883   6.672 -0.7288 -0.7647 -0.2805
  622MOL0     H82082   2.903  12.908   6.587  0.4301  0.4513  2.2423
  622MOL0     H82083   2.759  12.966   6.501 -1.4778  2.0181  0.1130
  622MOL0     H82084   2.863  13.084   6.765  2.5994 -0.3266 -0.5390
  622MOL0     H82085   2.708  13.119   6.677  0.5874 -1.7701 -0.5529
  622MOL0     H82086   2.591  12.078   6.461  0.1200 -1.1927 -1.3446
  622MOL0     H82087   2.607  11.857   6.389 -0.7422  2.6019  0.8264
  622MOL0     H82088   2.799  11.413   6.277  1.4273  0.7367  0.6532
  622MOL0     H82089   2.812  11.161   6.273 -0.3154  0.6313  1.0013
  622MOL0     H82090   1.487  10.425   5.708  3.2598  0.7236 -0.3298
  622MOL0     H82091   1.530  10.504   5.459  0.2047 -3.6209  1.7712
  622MOL0     H82092   1.607  10.796   5.191  0.0928  0.0609 -1.5728
  622MOL0     H82093   1.695  10.920   5.002  0.7046 -1.4038  2.4357
  622MOL0     H82094   1.455  11.193   4.694  1.8671  0.5214  1.3630
  622MOL0     H82095   1.429  11.017   4.685 -1.1663  1.4538 -4.5013
  622MOL0     H82096   1.646  10.981   4.563 -0.1072  0.9164 -5.7559
  622MOL0     H82097   1.548  11.095   4.487 -0.8431 -2.6796 -0.2830
  622MOL0     H82098   1.786  11.159   4.667  3.0822  2.0305 -2.9100
  622MOL0     H82099   1.664  11.273   4.605  3.0341  1.4320  0.9516
  622MOL0     H82100   1.726  11.214   4.365 -2.1838 -0.3894  0.9861
  622MOL0     H82101   1.855  11.272   4.456 -1.1672  0.5132  0.6658
  622MOL0     H82102   1.969  10.876   4.391  0.7430  0.1335  0.9225
  622MOL0     H82103   1.304  11.071   4.924 -0.8023  1.3450  4.2116
  622MOL0     H82104   1.216  10.941   5.090 -0.1307  2.9969 -0.5854
  623MOL0     O82105  11.272  11.097   2.336  0.4916 -0.3488 -0.4275
  623MOL0     C82106  11.220  11.192   2.278  0.3508 -0.4313 -0.3804
  623MOL0     O82107  11.292  11.293   2.209 -0.1356  0.2831 -0.1264
  623MOL0     C82108  11.425  11.293   2.180  0.3850  0.1193 -0.1484
  623MOL0     C82109  11.516  11.187   2.174 -0.6442 -0.0252 -0.9734
  623MOL0     C82110  11.654  11.206   2.156 -0.1119 -0.2105  0.3157
  623MOL0     C82111  11.698  11.340   2.148 -0.0949 -0.6246  0.2182
  623MOL0     O82112  11.835  11.359   2.135 -0.3207 -0.0665 -0.5675
  623MOL0     C82113  11.884  11.453   2.047 -0.2842 -0.6432  0.4437
  623MOL0     C82114  12.035  11.438   2.025  0.2448  0.4282  0.4898
  623MOL0     C82115  12.108  11.540   1.932 -0.1417 -0.4901  0.8780
  623MOL0     C82116  12.264  11.532   1.953 -0.2309  0.0957 -0.5134
  623MOL0     C82117  12.323  11.650   1.884  0.6720 -0.2017  0.1734
  623MOL0     C82118  12.475  11.674   1.902 -1.4636  0.5975 -0.2541
  623MOL0     C82119  12.531  11.654   2.051  0.1040  0.3364 -0.1680
  623MOL0     C82120  12.657  11.714   2.106 -0.2625 -0.2275 -0.6285
  623MOL0     N82121  12.650  11.864   2.114  0.3068  0.0560 -0.1020
  623MOL0     C82122  12.565  11.931   2.202  0.0696 -0.2881  0.0947
  623MOL0     C82123  12.585  12.064   2.187 -0.4895  0.4584 -0.8903
  623MOL0     C82124  12.538  12.185   2.267 -0.0383  0.4116 -0.1347
  623MOL0     C82125  12.401  12.166   2.324 -0.1956  0.9103 -0.3111
  623MOL0     C82126  12.300  12.150   2.210 -0.1494 -0.1926  0.2191
  623MOL0     C82127  12.160  12.107   2.260  0.0078 -0.0779 -0.3598
  623MOL0     O82128  12.147  11.973   2.220 -0.3732 -0.2696  0.6751
  623MOL0     C82129  12.060  11.888   2.282  0.5977  0.3697  0.8950
  623MOL0     C82130  12.080  11.748   2.279 -0.2621 -0.1352  0.5798
  623MOL0     C82131  11.974  11.660   2.310 -1.1291  0.0633  0.6843
  623MOL0     C82132  11.858  11.721   2.374  0.3095 -0.2359  0.5601
  623MOL0     C82133  11.765  11.630   2.422 -0.2003  0.1710  0.6505
  623MOL0     O82134  11.659  11.681   2.492  0.6612 -0.0544 -0.0184
  623MOL0     C82135  11.557  11.611   2.541 -0.2378 -0.3523 -0.6138
  623MOL0     C82136  11.513  11.497   2.497  0.0251  0.0769  0.9466
  623MOL0     C82137  11.396  11.435   2.556  0.3301 -0.7062  0.7473
  623MOL0     C82138  11.343  11.483   2.674 -0.5521  0.6252 -0.4594
  623MOL0     O82139  11.224  11.426   2.717  0.2739 -0.1798 -0.0174
  623MOL0     C82140  11.200  11.285   2.690 -0.9615  1.2113 -0.3070
  623MOL0     C82141  11.102  11.213   2.786  0.2855 -0.3440 -1.0016
  623MOL0     C82142  10.960  11.258   2.740  0.9544  0.1316 -0.7943
  623MOL0     C82143  10.853  11.180   2.822  0.5254 -0.3529 -0.5990
  623MOL0     C82144  10.719  11.136   2.759  0.3986 -0.4535 -0.6423
  623MOL0     C82145  10.624  11.063   2.858 -0.7532  0.3071 -0.5299
  623MOL0     C82146  10.499  10.998   2.790  0.6955  0.1733  0.0316
  623MOL0     C82147  10.411  10.932   2.896 -0.0461  0.5297 -0.4804
  623MOL0    Cl82148  10.264  10.871   2.832 -0.4490 -0.0003 -0.1678
  623MOL0     C82149  11.390  11.602   2.716  0.3790 -0.6137 -0.0477
  623MOL0     C82150  11.499  11.663   2.656  0.0593 -0.0110 -0.1932
  623MOL0     O82151  11.793  11.511   2.412  0.3768  0.2600 -0.5847
  623MOL0     C82152  11.856  11.858   2.399 -0.3735  0.1386 -0.4008
  623MOL0     C82153  11.953  11.940   2.350  0.6552  0.5560  0.0264
  623MOL0     N82154  12.677  12.070   2.085  0.1161  0.7249 -0.1606
  623MOL0     N82155  12.711  11.953   2.037 -0.4944 -0.0454 -0.1616
  623MOL0     C82156  11.608  11.441   2.150 -0.0194  0.3644 -0.4224
  623MOL0     C82157  11.472  11.420   2.157  0.2942 -0.2851  0.5222
  623MOL0     C82158  11.073  11.200   2.266  1.0097 -0.3087 -0.0940
  623MOL0     C82159  10.988  11.114   2.345 -0.3042 -0.2426 -0.5376
  623MOL0     C82160  10.853  11.098   2.325 -0.5415 -0.9292 -0.4160
  623MOL0     C82161  10.786  11.204   2.255 -0.6154  1.0028  0.2624
  623MOL0     O82162  10.654  11.202   2.232  0.4470 -0.0317  0.3986
  623MOL0     C82163  10.581  11.083   2.191 -0.0952 -0.0708 -0.5950
  623MOL0     C82164  10.513  11.030   2.321  0.1418 -0.3685  0.8738
  623MOL0     C82165  10.386  11.118   2.343 -0.1923 -0.4060 -0.0300
  623MOL0     C82166  10.283  11.034   2.429 -0.2081  0.6861 -2.0946
  623MOL0     C82167  10.215  10.921   2.357 -0.7906 -0.3557 -0.5850
  623MOL0     C82168  10.153  10.826   2.309 -0.0773 -0.5357 -1.0024
  623MOL0     C82169  10.866  11.296   2.188 -0.1909  0.4382  0.7906
  623MOL0     C82170  11.004  11.296   2.184 -0.4212  0.7829  0.4579
  623MOL0     H82171  11.477  11.086   2.183  1.2901 -0.9374 -2.0858
  623MOL0     H82172  11.725  11.125   2.165  2.1684  1.6960  0.4217
  623MOL0     H82173  11.875  11.554   2.087  1.9776 -0.9256  1.8598
  623MOL0     H82174  11.835  11.427   1.953  0.3996  0.0418 -0.1190
  623MOL0     H82175  12.063  11.338   1.991 -0.3226 -0.0541  1.3841
  623MOL0     H82176  12.074  11.452   2.127 -1.5791  0.0947  1.2672
  623MOL0     H82177  12.077  11.639   1.967  0.0745  0.5162 -1.5890
  623MOL0     H82178  12.075  11.523   1.829 -0.8671 -0.5711  1.1172
  623MOL0     H82179  12.283  11.515   2.059  1.3208 -1.5385 -0.9941
  623MOL0     H82180  12.299  11.440   1.905  2.4657  0.1877  1.0502
  623MOL0     H82181  12.270  11.737   1.924  1.6150  0.5466 -0.1778
  623MOL0     H82182  12.302  11.642   1.777 -0.3335 -0.4399  0.3790
  623MOL0     H82183  12.501  11.776   1.871  4.8981 -0.2563  0.8833
  623MOL0     H82184  12.518  11.606   1.829 -2.3150 -0.3956  0.1442
  623MOL0     H82185  12.457  11.684   2.126  0.2378  0.1564  0.0388
  623MOL0     H82186  12.550  11.547   2.058 -1.2325  0.1291  0.5990
  623MOL0     H82187  12.749  11.685   2.055  0.9139  1.9878  0.0708
  623MOL0     H82188  12.652  11.680   2.210 -2.4139  1.2693 -0.1697
  623MOL0     H82189  12.499  11.889   2.276  0.7369  0.3015  1.0494
  623MOL0     H82190  12.537  12.272   2.202  4.8403 -0.2394 -1.4600
  623MOL0     H82191  12.611  12.208   2.345  0.3751 -0.7754 -0.1601
  623MOL0     H82192  12.379  12.261   2.375 -0.0804  2.2031 -2.5228
  623MOL0     H82193  12.406  12.084   2.396  1.4122  1.6385  0.4657
  623MOL0     H82194  12.289  12.248   2.162  0.9430 -0.0138  0.3157
  623MOL0     H82195  12.344  12.085   2.133  2.0314  1.2553  0.1574
  623MOL0     H82196  12.087  12.181   2.223  1.0860  1.7531  0.9949
  623MOL0     H82197  12.172  12.116   2.368  0.0790  1.9458 -0.4985
  623MOL0     H82198  12.170  11.711   2.231  0.7128  0.1007  2.1591
  623MOL0     H82199  12.005  11.558   2.292 -0.9282  0.3298 -0.5219
  623MOL0     H82200  11.545  11.454   2.402 -4.2777 -1.4502 -0.0587
  623MOL0     H82201  11.340  11.360   2.501  1.2354 -0.2406 -0.8445
  623MOL0     H82202  11.296  11.237   2.709 -0.0610  2.6083 -1.1695
  623MOL0     H82203  11.167  11.271   2.587 -0.9735  0.2958 -0.1875
  623MOL0     H82204  11.122  11.243   2.890 -1.6779  0.9396 -0.9537
  623MOL0     H82205  11.112  11.104   2.780 -2.6605 -0.7864  0.3915
  623MOL0     H82206  10.940  11.228   2.637  0.4677  2.0061 -1.2873
  623MOL0     H82207  10.957  11.367   2.750  3.7992  0.3957 -1.9217
  623MOL0     H82208  10.900  11.087   2.857 -2.6688 -2.5388 -1.6062
  623MOL0     H82209  10.824  11.241   2.908 -2.9177 -2.1206 -0.3571
  623MOL0     H82210  10.730  11.070   2.673 -0.0274 -5.7314  2.8609
  623MOL0     H82211  10.652  11.220   2.742 -0.1579 -0.6752  0.3653
  623MOL0     H82212  10.594  11.138   2.932  1.2108  0.9181 -0.2882
  623MOL0     H82213  10.680  10.990   2.918 -0.4492  1.3899  0.5380
  623MOL0     H82214  10.446  11.085   2.749  1.1796  0.3986 -0.1174
  623MOL0     H82215  10.539  10.928   2.716  1.2126  0.4791  0.0190
  623MOL0     H82216  10.373  11.005   2.969 -2.1883 -0.3265 -0.6526
  623MOL0     H82217  10.475  10.859   2.946  2.9607  4.9258  2.9307
  623MOL0     H82218  11.328  11.649   2.792  0.1875  0.8564 -1.0671
  623MOL0     H82219  11.531  11.758   2.696 -3.3560  1.6500 -1.0575
  623MOL0     H82220  11.777  11.900   2.462 -0.7469 -1.9640  0.6083
  623MOL0     H82221  11.947  12.042   2.388  0.2878  0.8966 -0.9195
  623MOL0     H82222  11.648  11.541   2.153  0.0101  0.3462 -0.2024
  623MOL0     H82223  11.399  11.501   2.160 -0.0878 -0.6324  0.7667
  623MOL0     H82224  11.023  11.035   2.410 -1.1245 -0.8361 -0.8019
  623MOL0     H82225  10.788  11.032   2.382 -1.9456  1.4588  0.9344
  623MOL0     H82226  10.652  11.007   2.155  1.8974  0.7776  1.2942
  623MOL0     H82227  10.517  11.095   2.103 -0.9683 -1.8117 -0.2356
  623MOL0     H82228  10.485  10.925   2.310 -1.4063  0.1218 -0.3354
  623MOL0     H82229  10.574  11.035   2.412 -1.0640 -3.1163  1.9536
  623MOL0     H82230  10.343  11.121   2.243  1.5469  0.5794 -0.7852
  623MOL0     H82231  10.409  11.219   2.378 -1.5544  0.0779 -0.4757
  623MOL0     H82232  10.318  11.000   2.527 -3.2209 -0.0101 -1.1607
  623MOL0     H82233  10.206  11.107   2.456 -0.8546 -0.4024 -0.8658
  623MOL0     H82234  10.089  10.749   2.270 -1.7638  0.3054 -0.0533
  623MOL0     H82235  10.813  11.362   2.120  0.4680  0.0709 -0.0954
  623MOL0     H82236  11.058  11.355   2.111 -2.8833  1.0430 -1.2977
  624MOL0     O82237   0.137   3.412   9.378 -0.0038  0.5256 -0.9685
  624MOL0     C82238   0.205   3.313   9.385  0.0230 -0.4452 -0.3014
  624MOL0     O82239   0.209   3.227   9.492 -0.2839 -0.1718  0.7055
  624MOL0     C82240   0.139   3.235   9.609 -0.4791 -0.9897 -0.5640
  624MOL0     C82241   0.053   3.340   9.659 -0.8128  0.3014  0.6855
  624MOL0     C82242   0.006   3.332   9.787  0.9119  0.2842 -0.8349
  624MOL0     C82243   0.021   3.219   9.870  0.3462  0.1455 -0.0720
  624MOL0     O82244  -0.024   3.225  10.004 -0.4482  0.1400 -0.2487
  624MOL0     C82245  -0.096   3.112  10.045  0.1249  0.2082 -0.0403
  624MOL0     C82246  -0.173   3.155  10.165  0.6361 -0.2334  0.6867
  624MOL0     C82247  -0.243   3.036  10.241  0.2302  0.1158 -0.3423
  624MOL0     C82248  -0.319   3.088  10.359  1.1791  0.0353  0.2546
  624MOL0     C82249  -0.472   3.127  10.338 -0.0860  0.5765 -0.0911
  624MOL0     C82250  -0.546   3.157  10.475  0.0809 -0.3529 -0.9204
  624MOL0     C82251  -0.684   3.202  10.465 -0.3255 -0.6783  0.6235
  624MOL0     C82252  -0.770   3.079  10.427 -0.7185 -0.4979 -0.2833
  624MOL0     N82253  -0.914   3.109  10.442 -0.3579  0.6370 -0.1664
  624MOL0     C82254  -0.995   3.157  10.341  0.2804  1.1067 -0.1914
  624MOL0     C82255  -1.120   3.129  10.394 -0.2645  0.1850 -0.5914
  624MOL0     C82256  -1.256   3.153  10.336  0.2116 -0.2279  0.2116
  624MOL0     C82257  -1.354   3.232  10.421  0.4985  0.0890 -0.4275
  624MOL0     C82258  -1.496   3.223  10.372  0.9063 -0.6510  0.1384
  624MOL0     C82259  -1.517   3.252  10.224 -0.5426 -0.7054  0.1920
  624MOL0     O82260  -1.655   3.221  10.194  0.1508 -0.0662  0.1466
  624MOL0     C82261  -1.711   3.241  10.075 -0.8729 -0.5546  0.5551
  624MOL0     C82262  -1.844   3.194  10.063 -0.1102 -0.0037 -0.4975
  624MOL0     C82263  -1.920   3.211   9.951 -0.1582  0.4246  0.1318
  624MOL0     C82264  -1.859   3.266   9.833 -0.1712 -0.4556 -0.8606
  624MOL0     C82265  -1.946   3.297   9.720 -0.3879 -0.4849 -0.0749
  624MOL0     O82266  -2.076   3.303   9.736  0.6634  0.3124  0.6881
  624MOL0     C82267  -2.150   3.261   9.629 -0.2773 -0.1901 -0.8379
  624MOL0     C82268  -2.157   3.354   9.523 -0.7838  0.7911  0.2347
  624MOL0     C82269  -2.228   3.319   9.402  0.3245  0.0931 -1.1753
  624MOL0     C82270  -2.308   3.199   9.406 -0.1913  0.4655 -0.0642
  624MOL0     O82271  -2.397   3.148   9.306 -0.5755  0.3717 -0.1257
  624MOL0     C82272  -2.416   3.246   9.201  0.4617  0.5640  0.1322
  624MOL0     C82273  -2.523   3.193   9.112 -0.4857 -0.0312  0.2841
  624MOL0     C82274  -2.472   3.076   9.032 -0.6719 -0.3613 -0.2996
  624MOL0     C82275  -2.584   3.051   8.931 -0.1546  0.2296  1.2049
  624MOL0     C82276  -2.724   3.040   8.979 -0.9455 -0.1497 -0.0298
  624MOL0     C82277  -2.822   2.986   8.870  0.3128 -0.2304 -0.3273
  624MOL0     C82278  -2.831   3.061   8.739 -0.3535  0.2977  0.6833
  624MOL0     C82279  -2.966   3.067   8.656 -0.1845  1.2243 -0.0070
  624MOL0    Cl82280  -3.109   3.096   8.759 -0.2679 -0.0462  0.0521
  624MOL0     C82281  -2.294   3.107   9.514  0.9299 -0.5318 -0.2023
  624MOL0     C82282  -2.214   3.138   9.622  0.9789 -0.0771  0.1567
  624MOL0     O82283  -1.891   3.312   9.614  0.0744  0.1564  0.0483
  624MOL0     C82284  -1.729   3.314   9.840  0.0906  0.2689 -0.0648
  624MOL0     C82285  -1.652   3.305   9.959 -0.5058 -0.0896  0.0020
  624MOL0     N82286  -1.106   3.067  10.517  0.0514  0.1407  1.4137
  624MOL0     N82287  -0.986   3.048  10.541  0.2093 -0.2683  0.3745
  624MOL0     C82288   0.105   3.121   9.831 -0.9854 -0.5974  0.2062
  624MOL0     C82289   0.158   3.127   9.699 -0.0130  0.3428 -0.5352
  624MOL0     C82290   0.295   3.280   9.279  0.7620  0.6090 -0.0397
  624MOL0     C82291   0.315   3.363   9.173 -0.4252 -0.7638  0.3513
  624MOL0     C82292   0.406   3.325   9.073  0.6773  0.2755  0.3098
  624MOL0     C82293   0.486   3.206   9.080  0.2432 -0.1870  1.2323
  624MOL0     O82294   0.583   3.187   8.979  1.0658 -0.9345  0.3614
  624MOL0     C82295   0.651   3.056   8.973  0.0124 -0.1709  0.4974
  624MOL0     C82296   0.785   3.096   9.022  0.6110  0.5923 -0.1790
  624MOL0     C82297   0.868   2.976   9.066 -0.1811 -0.0529 -0.2072
  624MOL0     C82298   0.903   2.987   9.211 -0.2124  1.4015 -0.0142
  624MOL0     C82299   0.792   2.966   9.301 -0.4378  0.3774  0.2599
  624MOL0     C82300   0.701   2.930   9.371 -0.5244  0.2403  0.3763
  624MOL0     C82301   0.453   3.121   9.180 -0.1945 -0.7216 -0.0176
  624MOL0     C82302   0.368   3.158   9.281  0.6331  0.4884 -0.3995
  624MOL0     H82303   0.030   3.430   9.603 -0.9860  1.1517  2.0558
  624MOL0     H82304  -0.056   3.411   9.829 -2.4787 -1.7882 -1.5870
  624MOL0     H82305  -0.026   3.030  10.061  1.4370  1.6113  1.8313
  624MOL0     H82306  -0.166   3.083   9.966  2.5373 -0.7340 -1.9410
  624MOL0     H82307  -0.242   3.233  10.131 -0.7495 -0.8891  1.8757
  624MOL0     H82308  -0.109   3.202  10.240  0.4897  0.8440  0.1560
  624MOL0     H82309  -0.179   2.950  10.265  1.5586  1.6550  1.9931
  624MOL0     H82310  -0.318   2.994  10.174 -3.2517  1.4647  2.4069
  624MOL0     H82311  -0.328   3.007  10.432 -0.9886  0.4742  0.5630
  624MOL0     H82312  -0.262   3.169  10.405  1.0212  2.1051 -2.9046
  624MOL0     H82313  -0.523   3.047  10.283  0.2098 -1.5850  2.5508
  624MOL0     H82314  -0.481   3.216  10.276  0.0883  0.5318 -0.1826
  624MOL0     H82315  -0.490   3.234  10.530  0.6258  1.7670 -4.1736
  624MOL0     H82316  -0.543   3.062  10.531  3.8765  0.2942  0.2578
  624MOL0     H82317  -0.722   3.243  10.559 -2.3152  1.8477 -1.1453
  624MOL0     H82318  -0.689   3.282  10.390 -1.1705 -1.7327 -0.5035
  624MOL0     H82319  -0.733   2.996  10.489  2.1840 -1.1305 -2.6260
  624MOL0     H82320  -0.744   3.055  10.323  4.1295  0.1201  0.5461
  624MOL0     H82321  -0.973   3.189  10.239 -1.3254  3.1345  0.0261
  624MOL0     H82322  -1.312   3.061  10.315  0.9699 -0.4381 -0.9305
  624MOL0     H82323  -1.252   3.209  10.242  0.3208  0.9476  0.8887
  624MOL0     H82324  -1.315   3.334  10.415 -0.2379  0.4775  0.8112
  624MOL0     H82325  -1.349   3.193  10.523  1.9830  3.6467  1.0273
  624MOL0     H82326  -1.532   3.122  10.392 -4.2187  0.9094  0.0835
  624MOL0     H82327  -1.563   3.287  10.430  0.0197 -0.6855 -0.8265
  624MOL0     H82328  -1.453   3.188  10.163  0.4521  0.4629 -0.0359
  624MOL0     H82329  -1.493   3.357  10.206 -0.1344 -0.9882 -0.9405
  624MOL0     H82330  -1.900   3.154  10.147 -1.9178  0.7583 -1.2941
  624MOL0     H82331  -2.023   3.179   9.946  0.0059 -0.0800 -0.0444
  624MOL0     H82332  -2.106   3.448   9.535  2.1353 -0.8570  1.8853
  624MOL0     H82333  -2.256   3.394   9.329 -0.3881 -0.9679 -2.0301
  624MOL0     H82334  -2.321   3.260   9.149 -0.3422 -2.4146 -2.4821
  624MOL0     H82335  -2.443   3.347   9.232 -1.6675  1.2581 -3.4498
  624MOL0     H82336  -2.542   3.280   9.049 -0.1333  0.7670  1.2524
  624MOL0     H82337  -2.613   3.179   9.173  0.0497 -0.9795  0.8673
  624MOL0     H82338  -2.453   2.999   9.107 -0.0522  1.8256  1.9387
  624MOL0     H82339  -2.391   3.104   8.963 -2.7691  0.0219 -2.7708
  624MOL0     H82340  -2.586   3.141   8.868  0.6055  0.5818  1.6689
  624MOL0     H82341  -2.566   2.965   8.866 -0.4977 -0.9405  2.6340
  624MOL0     H82342  -2.760   3.136   9.017 -1.2935 -0.9280  1.7218
  624MOL0     H82343  -2.720   2.986   9.074  0.7657 -0.1029 -0.0477
  624MOL0     H82344  -2.919   2.982   8.920 -0.8680 -4.3103 -2.5009
  624MOL0     H82345  -2.802   2.881   8.846  3.8741 -0.1336  1.5489
  624MOL0     H82346  -2.804   3.165   8.758 -0.1479 -0.3657  5.2706
  624MOL0     H82347  -2.757   3.001   8.685 -0.3394 -1.5417  2.5954
  624MOL0     H82348  -2.979   2.971   8.604  0.7722  1.9155 -1.6188
  624MOL0     H82349  -2.951   3.139   8.575 -1.5630 -0.1875 -1.6179
  624MOL0     H82350  -2.352   3.015   9.520  0.3749 -0.2275 -0.7978
  624MOL0     H82351  -2.217   3.068   9.705 -2.2350  0.1504  0.3450
  624MOL0     H82352  -1.685   3.363   9.753  3.8478 -2.6663 -0.1003
  624MOL0     H82353  -1.548   3.338   9.961 -0.4689 -0.1802  2.1400
  624MOL0     H82354   0.130   3.038   9.895 -1.7979  0.4388  1.9584
  624MOL0     H82355   0.230   3.049   9.677 -3.1202 -3.2117  0.7872
  624MOL0     H82356   0.255   3.452   9.155 -0.7264 -1.5892 -3.9287
  624MOL0     H82357   0.424   3.396   8.992 -0.6528 -1.9908 -2.1243
  624MOL0     H82358   0.664   3.013   8.873 -1.4727 -1.6378  0.8750
  624MOL0     H82359   0.603   2.977   9.032 -2.1161 -0.0021 -0.9060
  624MOL0     H82360   0.831   3.157   8.943  3.4494 -1.8446 -0.5802
  624MOL0     H82361   0.779   3.156   9.113 -3.1719 -2.7054  2.0127
  624MOL0     H82362   0.962   2.980   9.010 -0.1874  0.2252 -0.1982
  624MOL0     H82363   0.822   2.881   9.038  1.3226 -0.7695 -0.3590
  624MOL0     H82364   0.972   2.905   9.231 -1.0710  0.1258 -1.9706
  624MOL0     H82365   0.956   3.082   9.224 -0.7130  1.7410 -0.4004
  624MOL0     H82366   0.630   2.891   9.441  0.3241  0.4450  1.3669
  624MOL0     H82367   0.492   3.020   9.184  2.1199  0.0906 -0.1555
  624MOL0     H82368   0.348   3.084   9.358 -1.1821 -0.4307 -1.7003
  625MOL0     O82369   8.854   6.672  10.316 -0.0524  0.7903  0.1975
  625MOL0     C82370   8.975   6.691  10.323  0.1898  0.1850 -0.6351
  625MOL0     O82371   9.043   6.733  10.432  0.0414 -0.0113 -0.9557
  625MOL0     C82372   8.986   6.763  10.555  0.8039 -0.1473  0.4792
  625MOL0     C82373   9.037   6.868  10.616 -0.0300 -0.7628  0.0904
  625MOL0     C82374   9.000   6.914  10.743  0.3210  0.0948 -0.6817
  625MOL0     C82375   8.917   6.824  10.819 -0.4348 -0.6064  0.5259
  625MOL0     O82376   8.869   6.835  10.948 -0.4947 -0.4688 -0.3392
  625MOL0     C82377   8.925   6.933  11.039 -0.0261  0.4326 -0.4963
  625MOL0     C82378   9.059   6.875  11.099  0.4253  0.2610 -0.0828
  625MOL0     C82379   9.040   6.729  11.143  0.0486  0.2257 -0.5711
  625MOL0     C82380   9.165   6.667  11.208  0.9852  0.4829  0.1114
  625MOL0     C82381   9.131   6.538  11.297  0.7654 -0.3066  0.2537
  625MOL0     C82382   9.262   6.478  11.341  0.6852 -0.2189 -1.1622
  625MOL0     C82383   9.334   6.396  11.245 -0.7292 -0.5107  0.5678
  625MOL0     C82384   9.472   6.339  11.282  0.0816  0.3580  0.0734
  625MOL0     N82385   9.473   6.214  11.367  1.1421 -0.6353  0.9801
  625MOL0     C82386   9.386   6.175  11.459 -0.8916 -0.3971  0.0098
  625MOL0     C82387   9.433   6.052  11.496  0.8331 -0.1966  0.3072
  625MOL0     C82388   9.356   5.980  11.605 -0.3264  0.0668  0.0514
  625MOL0     C82389   9.255   5.880  11.554 -0.1538 -0.3578  0.7454
  625MOL0     C82390   9.188   5.813  11.677  0.6007  0.5019  0.4446
  625MOL0     C82391   9.073   5.727  11.637  0.4827 -0.3820  1.0176
  625MOL0     O82392   9.116   5.628  11.543  0.5032 -0.0078 -0.2093
  625MOL0     C82393   9.034   5.553  11.467  0.7806  0.1530 -0.5257
  625MOL0     C82394   8.893   5.563  11.472 -0.2970  0.8654 -0.9505
  625MOL0     C82395   8.814   5.489  11.384  0.0699 -0.2666  0.1765
  625MOL0     C82396   8.871   5.396  11.298 -0.0320 -0.4220  0.5520
  625MOL0     C82397   8.780   5.306  11.219 -0.3779 -0.4867 -0.3876
  625MOL0     O82398   8.650   5.332  11.229  0.3700  0.3041 -0.4430
  625MOL0     C82399   8.561   5.246  11.175 -0.7536  0.4934 -0.1512
  625MOL0     C82400   8.544   5.212  11.038  0.3342 -0.3422 -0.2893
  625MOL0     C82401   8.442   5.119  11.006  0.6612  0.4149 -0.2880
  625MOL0     C82402   8.344   5.071  11.100  0.7691 -0.1927  0.6850
  625MOL0     O82403   8.225   5.007  11.072 -0.3806  0.0313 -0.0077
  625MOL0     C82404   8.180   5.016  10.937  0.3366 -0.0296 -0.6426
  625MOL0     C82405   8.047   4.941  10.909 -0.0835 -0.4769  0.6951
  625MOL0     C82406   8.042   4.795  10.952 -0.3986  0.5441 -1.6474
  625MOL0     C82407   7.917   4.722  10.931  2.0650  0.4084  0.0134
  625MOL0     C82408   7.922   4.563  10.944 -0.3806 -1.3003 -0.1643
  625MOL0     C82409   7.969   4.504  11.072 -0.9515 -0.8837  0.7190
  625MOL0     C82410   7.961   4.351  11.086  0.0557 -0.1976 -0.2462
  625MOL0     C82411   7.821   4.294  11.087 -0.7489 -0.7776  0.3512
  625MOL0    Cl82412   7.815   4.115  11.082 -0.0138  0.7077  0.3366
  625MOL0     C82413   8.363   5.109  11.236 -0.7349  0.1756  0.1484
  625MOL0     C82414   8.469   5.193  11.269 -0.0144 -0.2304 -0.5529
  625MOL0     O82415   8.825   5.224  11.148  0.1314 -0.4250  0.5602
  625MOL0     C82416   9.011   5.381  11.289 -0.0261 -0.0436  0.0663
  625MOL0     C82417   9.092   5.463  11.376  0.8534 -0.5485  0.9460
  625MOL0     N82418   9.547   6.023  11.433 -0.5482 -0.0488  0.0740
  625MOL0     N82419   9.566   6.115  11.352  1.2643  0.4019  0.4909
  625MOL0     C82420   8.871   6.709  10.758  0.0815  0.2852  0.0495
  625MOL0     C82421   8.898   6.674  10.623  0.4528  0.7868 -0.3224
  625MOL0     C82422   9.056   6.660  10.205  1.3691  1.4623  0.3281
  625MOL0     C82423   8.996   6.658  10.074  0.2796  0.3827  0.1325
  625MOL0     C82424   9.080   6.631   9.963 -0.5223  0.4271 -0.1999
  625MOL0     C82425   9.212   6.620   9.976 -0.0825  0.7005  0.5333
  625MOL0     O82426   9.291   6.596   9.863  0.3540 -0.6568 -0.6024
  625MOL0     C82427   9.265   6.495   9.770 -0.0125  0.8794 -0.1830
  625MOL0     C82428   9.332   6.359   9.817  0.8050 -0.0090  0.1508
  625MOL0     C82429   9.479   6.369   9.823 -0.2966 -0.2383  0.0746
  625MOL0     C82430   9.540   6.235   9.787 -0.1852  0.0005  0.0488
  625MOL0     C82431   9.680   6.259   9.743  0.0428  0.4123 -0.6970
  625MOL0     C82432   9.797   6.273   9.702  0.1730  1.2886 -0.0098
  625MOL0     C82433   9.268   6.615  10.101 -1.0842 -0.6959 -0.4026
  625MOL0     C82434   9.194   6.642  10.216  0.1554 -0.1980 -0.6797
  625MOL0     H82435   9.115   6.920  10.561  1.4174 -1.6300  1.2707
  625MOL0     H82436   9.042   6.995  10.801  0.6824 -1.0867  0.7825
  625MOL0     H82437   8.867   6.945  11.131  0.8103 -0.6469  0.1954
  625MOL0     H82438   8.936   7.027  10.984  0.7879  0.7803  0.2401
  625MOL0     H82439   9.084   6.938  11.185 -0.5885  0.2339  0.2510
  625MOL0     H82440   9.135   6.887  11.021  0.9675 -1.5327  0.1306
  625MOL0     H82441   9.019   6.661  11.060 -0.1768  0.8452 -1.0261
  625MOL0     H82442   8.960   6.740  11.216  1.0251 -0.3872  0.6231
  625MOL0     H82443   9.228   6.634  11.125 -0.4015 -1.7204 -0.1632
  625MOL0     H82444   9.209   6.749  11.265  0.3733  0.3696  0.7626
  625MOL0     H82445   9.064   6.476  11.237  1.1876  1.1119 -1.7881
  625MOL0     H82446   9.080   6.562  11.391 -1.7546 -4.6380  0.2569
  625MOL0     H82447   9.233   6.420  11.429 -0.3852  1.0118 -0.6762
  625MOL0     H82448   9.326   6.563  11.364 -1.4042  1.2040 -0.3211
  625MOL0     H82449   9.264   6.318  11.212 -1.1920 -0.0554  0.4556
  625MOL0     H82450   9.350   6.456  11.155  2.1280 -2.9655 -0.7107
  625MOL0     H82451   9.520   6.414  11.347 -0.1902 -1.2325  2.2332
  625MOL0     H82452   9.526   6.332  11.187  1.2409 -1.0704  0.7925
  625MOL0     H82453   9.302   6.228  11.503  1.2365  0.0867  3.9678
  625MOL0     H82454   9.304   6.047  11.674  1.8726  1.0517  0.8441
  625MOL0     H82455   9.431   5.925  11.663 -2.7922 -1.8108  1.6719
  625MOL0     H82456   9.305   5.804  11.493 -0.6652 -2.5629  2.9118
  625MOL0     H82457   9.177   5.937  11.502 -1.3151 -1.6554  1.0238
  625MOL0     H82458   9.260   5.749  11.729  0.7973  0.5187  0.1974
  625MOL0     H82459   9.148   5.895  11.737 -0.3863  1.0889 -0.9635
  625MOL0     H82460   8.997   5.789  11.589 -0.2427  0.3440  2.9746
  625MOL0     H82461   9.019   5.687  11.724 -2.3528  1.5507  0.2966
  625MOL0     H82462   8.847   5.627  11.546 -1.5969 -1.9943  0.8993
  625MOL0     H82463   8.709   5.517  11.381  0.2001  0.2055 -2.0238
  625MOL0     H82464   8.615   5.249  10.965 -0.5727  1.6822 -0.2125
  625MOL0     H82465   8.435   5.099  10.900  0.1139  1.0627 -0.3767
  625MOL0     H82466   8.255   4.983  10.865 -0.3344  2.5274 -2.6463
  625MOL0     H82467   8.168   5.122  10.915 -1.4725 -0.2039 -0.6809
  625MOL0     H82468   8.026   4.950  10.802 -0.4241 -1.3785  0.6717
  625MOL0     H82469   7.974   4.998  10.967  2.4017  0.0846  3.5420
  625MOL0     H82470   8.060   4.787  11.059  1.1724 -3.0859 -2.0409
  625MOL0     H82471   8.119   4.736  10.900 -1.1937 -2.8183  0.6726
  625MOL0     H82472   7.853   4.752  11.014  1.9534  0.7914 -0.2064
  625MOL0     H82473   7.877   4.734  10.830 -2.0477 -2.5442  1.0270
  625MOL0     H82474   7.984   4.522  10.864 -0.3100  0.2486 -0.9404
  625MOL0     H82475   7.822   4.529  10.915 -0.6938  0.2715 -1.0480
  625MOL0     H82476   7.904   4.553  11.146 -2.7376  1.0773 -1.9371
  625MOL0     H82477   8.073   4.531  11.088  0.0622 -1.7315 -3.3778
  625MOL0     H82478   8.032   4.323  11.008  2.3829  2.3454  0.8033
  625MOL0     H82479   8.012   4.328  11.180 -1.9865 -0.4997  0.8644
  625MOL0     H82480   7.765   4.333  11.002  1.0876  1.7101  0.1797
  625MOL0     H82481   7.767   4.316  11.180  3.5252 -2.1380  3.5153
  625MOL0     H82482   8.282   5.090  11.306 -2.9551  4.6340 -0.8480
  625MOL0     H82483   8.481   5.221  11.373 -1.9275 -1.2912 -0.0060
  625MOL0     H82484   9.054   5.310  11.219 -1.1197  0.2541 -0.9507
  625MOL0     H82485   9.201   5.459  11.374  0.8588 -0.1678 -0.1402
  625MOL0     H82486   8.787   6.652  10.798 -0.5302  0.2289 -1.2490
  625MOL0     H82487   8.868   6.574  10.593  3.4928 -0.9806  1.9426
  625MOL0     H82488   8.891   6.682  10.061 -0.2484 -0.4179  2.4689
  625MOL0     H82489   9.043   6.643   9.861 -1.2791  1.2612  0.1671
  625MOL0     H82490   9.314   6.514   9.674  4.6768 -1.1727  1.4557
  625MOL0     H82491   9.160   6.473   9.749  0.4195 -1.4779 -0.1632
  625MOL0     H82492   9.295   6.328   9.915  0.1155  1.9256  0.5408
  625MOL0     H82493   9.301   6.281   9.747  0.9238  1.1815 -1.2733
  625MOL0     H82494   9.508   6.404   9.922 -1.2218  1.9431 -0.3681
  625MOL0     H82495   9.517   6.435   9.744  4.0963  0.2482  2.3135
  625MOL0     H82496   9.528   6.173   9.877 -1.2520 -0.2787 -0.2730
  625MOL0     H82497   9.500   6.179   9.702 -0.1140 -0.2218  0.1612
  625MOL0     H82498   9.899   6.272   9.670  0.0047  1.1973 -0.5522
  625MOL0     H82499   9.376   6.606  10.104 -0.9512  0.7087 -0.2346
  625MOL0     H82500   9.249   6.620  10.307  2.1456  3.0132 -0.9417
  626MOL0     O82501   8.712   3.404   2.376  0.6953 -0.2302 -0.1651
  626MOL0     C82502   8.750   3.293   2.339 -0.2883 -0.5828  0.0603
  626MOL0     O82503   8.675   3.193   2.308  0.6864 -0.8851  0.2326
  626MOL0     C82504   8.544   3.192   2.342 -0.6037 -0.0479 -0.0994
  626MOL0     C82505   8.496   3.077   2.403 -0.2243 -0.6485 -0.5331
  626MOL0     C82506   8.364   3.057   2.431 -0.7383  0.0509  0.1103
  626MOL0     C82507   8.270   3.158   2.396  0.1965  0.6439 -0.3922
  626MOL0     O82508   8.142   3.151   2.429 -0.7427 -0.0585 -0.4396
  626MOL0     C82509   8.120   3.217   2.554  0.2989 -0.5796 -1.1061
  626MOL0     C82510   7.975   3.240   2.581  0.1806 -1.1330  0.4346
  626MOL0     C82511   7.947   3.304   2.714  0.7036  0.0460  0.5537
  626MOL0     C82512   7.796   3.281   2.753 -0.4072  0.3052 -0.5953
  626MOL0     C82513   7.722   3.411   2.792 -0.5585 -0.1291  0.3393
  626MOL0     C82514   7.786   3.467   2.917 -0.1975 -0.2896 -0.3818
  626MOL0     C82515   7.694   3.559   3.010  0.7131  0.5496  0.2517
  626MOL0     C82516   7.595   3.472   3.086  1.0187  0.2462 -0.6801
  626MOL0     N82517   7.656   3.449   3.216  0.7220  0.1230 -0.0545
  626MOL0     C82518   7.624   3.522   3.333 -0.1704  0.5127  0.9987
  626MOL0     C82519   7.713   3.483   3.426  0.3449  0.1757 -0.3469
  626MOL0     C82520   7.731   3.551   3.562  0.3939  0.0452  0.4237
  626MOL0     C82521   7.628   3.515   3.660  0.4739  0.3054  0.7849
  626MOL0     C82522   7.659   3.559   3.801  1.0026 -0.6075  0.2245
  626MOL0     C82523   7.675   3.708   3.798  0.3752 -0.5705  0.1202
  626MOL0     O82524   7.670   3.754   3.934 -0.1028  0.6276 -0.6330
  626MOL0     C82525   7.555   3.754   4.009  0.0792 -0.0369 -1.1174
  626MOL0     C82526   7.428   3.709   3.961 -0.9298 -1.0994  0.5493
  626MOL0     C82527   7.317   3.721   4.047  0.5794 -1.3278  0.4645
  626MOL0     C82528   7.330   3.750   4.180 -0.5397 -0.3509 -1.4304
  626MOL0     C82529   7.209   3.751   4.261  0.2164  0.5849  0.8711
  626MOL0     O82530   7.095   3.778   4.199 -0.1933  0.1229  0.2111
  626MOL0     C82531   6.984   3.775   4.281  0.7050  0.2041 -0.8512
  626MOL0     C82532   6.921   3.645   4.296 -0.1791 -0.5333  0.3359
  626MOL0     C82533   6.801   3.635   4.368  0.1332  0.2311 -0.5342
  626MOL0     C82534   6.738   3.744   4.424  1.2258 -0.4945  0.4841
  626MOL0     O82535   6.647   3.720   4.519  0.3419  0.1607  0.2280
  626MOL0     C82536   6.571   3.831   4.559 -0.4515  0.0028 -0.4298
  626MOL0     C82537   6.474   3.875   4.449 -0.1473 -0.9629  0.1494
  626MOL0     C82538   6.405   3.748   4.390 -0.0261  0.9066 -0.3592
  626MOL0     C82539   6.333   3.665   4.498  0.2341 -0.1483  0.7958
  626MOL0     C82540   6.261   3.544   4.429  0.3821  0.4340 -0.6701
  626MOL0     C82541   6.152   3.475   4.515 -0.2545 -0.8126  0.1995
  626MOL0     C82542   6.047   3.577   4.560  0.2774  0.0180  0.7206
  626MOL0     C82543   5.927   3.504   4.620 -0.5561  0.9221 -0.4968
  626MOL0    Cl82544   5.836   3.407   4.489  0.2040 -0.0553 -0.1686
  626MOL0     C82545   6.793   3.872   4.393  1.0779 -0.3511 -0.7519
  626MOL0     C82546   6.923   3.884   4.330  0.1317 -0.6401  0.0865
  626MOL0     O82547   7.222   3.723   4.378  0.1288 -0.3503  0.4415
  626MOL0     C82548   7.451   3.785   4.231 -0.4656 -0.2728  0.2049
  626MOL0     C82549   7.562   3.799   4.146 -0.1452  0.5865 -0.0320
  626MOL0     N82550   7.797   3.391   3.364  0.2692 -0.1957  0.7099
  626MOL0     N82551   7.763   3.371   3.240 -0.1749 -0.1697 -1.3863
  626MOL0     C82552   8.317   3.274   2.322 -0.6347 -0.4319 -0.1661
  626MOL0     C82553   8.450   3.290   2.297 -0.8857  0.0734 -1.0277
  626MOL0     C82554   8.894   3.285   2.312  0.1465 -0.2002  0.5627
  626MOL0     C82555   8.942   3.175   2.236  0.0404  0.4690  0.1059
  626MOL0     C82556   9.081   3.162   2.214  0.0898  0.0349 -0.1066
  626MOL0     C82557   9.171   3.239   2.283 -1.6535  0.1262 -0.2301
  626MOL0     O82558   9.307   3.235   2.271 -0.5905 -0.0118  0.0277
  626MOL0     C82559   9.365   3.137   2.182 -0.0648  0.0881  0.1670
  626MOL0     C82560   9.523   3.159   2.189 -0.2258 -0.0890  1.8886
  626MOL0     C82561   9.569   3.292   2.119  0.4883  1.0159  1.3086
  626MOL0     C82562   9.708   3.268   2.044 -0.0175  0.4179 -0.5841
  626MOL0     C82563   9.822   3.216   2.125 -0.1954 -0.6022  1.0641
  626MOL0     C82564   9.927   3.178   2.182  0.3010 -0.1100  0.1185
  626MOL0     C82565   9.124   3.331   2.382 -0.0707 -0.4581  0.4725
  626MOL0     C82566   8.984   3.360   2.392 -0.5696 -0.5320 -0.2064
  626MOL0     H82567   8.558   2.997   2.440 -2.0916 -1.0472  1.9726
  626MOL0     H82568   8.351   2.974   2.499  0.9408  1.4834  2.3450
  626MOL0     H82569   8.177   3.310   2.566 -0.4587 -0.4353  2.2454
  626MOL0     H82570   8.163   3.154   2.632 -0.5332  0.3529  0.1409
  626MOL0     H82571   7.932   3.140   2.579 -0.9037 -0.6857  0.1819
  626MOL0     H82572   7.930   3.306   2.506 -2.6802  0.5501  3.3531
  626MOL0     H82573   7.966   3.411   2.706 -1.8523  0.4673 -1.2536
  626MOL0     H82574   8.014   3.270   2.793 -1.0906  3.0752  3.6863
  626MOL0     H82575   7.747   3.226   2.672  2.6431 -2.1767 -0.9444
  626MOL0     H82576   7.792   3.217   2.843 -1.0115  2.3580  0.9162
  626MOL0     H82577   7.617   3.384   2.803  0.1206 -3.2234  0.3622
  626MOL0     H82578   7.729   3.491   2.718  1.8709  1.0775  1.7641
  626MOL0     H82579   7.882   3.517   2.902 -0.4334 -0.3312 -2.2654
  626MOL0     H82580   7.822   3.400   2.995 -0.4517  0.3599  0.3065
  626MOL0     H82581   7.757   3.615   3.080  0.3560  0.3388  0.7488
  626MOL0     H82582   7.647   3.634   2.946 -0.5121  0.0472  0.5286
  626MOL0     H82583   7.585   3.378   3.031 -1.2327  1.4884 -2.5397
  626MOL0     H82584   7.494   3.512   3.101 -0.1756 -2.6940 -0.2823
  626MOL0     H82585   7.540   3.589   3.344  2.1161  4.5779 -3.0584
  626MOL0     H82586   7.721   3.659   3.549 -1.4426  0.2165  2.6738
  626MOL0     H82587   7.826   3.524   3.609 -0.7698 -0.4118  2.6553
  626MOL0     H82588   7.616   3.407   3.646 -1.4102  0.7968 -2.3658
  626MOL0     H82589   7.533   3.561   3.629  0.9052 -0.7794 -2.5062
  626MOL0     H82590   7.581   3.518   3.865 -0.1582  1.5351  0.2567
  626MOL0     H82591   7.744   3.504   3.844  1.4544 -0.0357  0.0763
  626MOL0     H82592   7.592   3.752   3.741 -0.2920 -2.3687 -0.3705
  626MOL0     H82593   7.773   3.737   3.758 -0.6917  1.3115 -1.2452
  626MOL0     H82594   7.409   3.666   3.863 -0.8464  1.1615 -0.5240
  626MOL0     H82595   7.216   3.696   4.017  0.7188 -0.8567 -0.4440
  626MOL0     H82596   6.966   3.557   4.252  0.2036 -1.2045  1.9774
  626MOL0     H82597   6.768   3.532   4.379 -2.9073  1.0509 -1.0901
  626MOL0     H82598   6.638   3.908   4.598  2.3539 -1.9640 -1.0091
  626MOL0     H82599   6.526   3.785   4.648  0.8103 -1.7079 -0.6326
  626MOL0     H82600   6.519   3.931   4.367 -0.3320  1.5930  1.6806
  626MOL0     H82601   6.395   3.934   4.497 -0.2109 -1.4024  0.5911
  626MOL0     H82602   6.475   3.686   4.332 -0.4454 -1.1665  1.2335
  626MOL0     H82603   6.333   3.786   4.317 -1.2737  2.0754  1.4297
  626MOL0     H82604   6.401   3.612   4.565 -1.2911 -2.7550  0.4467
  626MOL0     H82605   6.268   3.728   4.558  0.3860  1.9010 -1.0706
  626MOL0     H82606   6.341   3.478   4.394 -0.4593 -1.7639  1.3228
  626MOL0     H82607   6.209   3.584   4.341  2.0267  1.3352 -1.2683
  626MOL0     H82608   6.187   3.411   4.596 -0.6437 -0.8305  0.3566
  626MOL0     H82609   6.099   3.408   4.446 -0.9918 -0.9984  0.9308
  626MOL0     H82610   6.090   3.627   4.648 -0.5893  0.0306  1.1444
  626MOL0     H82611   6.002   3.643   4.485  0.5408 -1.2071 -0.5577
  626MOL0     H82612   5.866   3.582   4.666  3.0947  2.6071  1.8822
  626MOL0     H82613   5.970   3.437   4.694 -0.8822 -0.2011 -1.2824
  626MOL0     H82614   6.759   3.965   4.436 -0.1049 -1.7194  1.5041
  626MOL0     H82615   6.973   3.978   4.306  1.3168 -1.4456 -0.7191
  626MOL0     H82616   7.457   3.817   4.334 -2.0367 -3.1565  1.3154
  626MOL0     H82617   7.659   3.833   4.182  0.9826  2.4163 -4.2158
  626MOL0     H82618   8.245   3.352   2.300  2.1531  2.8006  1.3921
  626MOL0     H82619   8.488   3.371   2.235 -1.3601  0.7259 -0.4850
  626MOL0     H82620   8.873   3.100   2.198 -1.1493  0.4389  2.1890
  626MOL0     H82621   9.125   3.089   2.147  1.9924  2.2153 -1.3661
  626MOL0     H82622   9.340   3.162   2.078  4.0557  1.9103 -0.5849
  626MOL0     H82623   9.330   3.040   2.218  2.6041 -0.8521  0.4324
  626MOL0     H82624   9.575   3.151   2.285  0.5838 -0.8245  1.4044
  626MOL0     H82625   9.567   3.082   2.125 -2.4307 -0.1643  0.3322
  626MOL0     H82626   9.561   3.379   2.185 -2.9101  2.9639 -1.3529
  626MOL0     H82627   9.487   3.317   2.051  0.3819  0.3704  1.1956
  626MOL0     H82628   9.694   3.203   1.957 -0.2231 -2.7147  1.6376
  626MOL0     H82629   9.737   3.368   2.010 -1.3793  1.4319  1.0426
  626MOL0     H82630  10.023   3.150   2.221  0.3248 -0.0961  0.0705
  626MOL0     H82631   9.199   3.383   2.442  1.5178  1.9220 -3.2016
  626MOL0     H82632   8.947   3.430   2.466  1.9338 -1.2740  1.8785
  627MOL0     O82633   5.152  10.651   6.626 -0.3713 -0.5094  0.7586
  627MOL0     C82634   5.051  10.709   6.604  0.4235  0.1982 -0.1893
  627MOL0     O82635   4.996  10.738   6.488  0.4276 -0.8494  0.1705
  627MOL0     C82636   5.082  10.720   6.388 -0.0594 -0.2822  1.3553
  627MOL0     C82637   5.055  10.617   6.301 -0.6676  0.2749  0.0840
  627MOL0     C82638   5.145  10.612   6.192 -0.3287  0.2323 -0.1912
  627MOL0     C82639   5.262  10.687   6.183  0.0489 -0.2603  0.6944
  627MOL0     O82640   5.361  10.675   6.088 -0.2254  0.1037  0.2073
  627MOL0     C82641   5.337  10.602   5.963 -0.6427  0.2568 -0.3839
  627MOL0     C82642   5.436  10.649   5.860  0.1642  1.2244 -0.0543
  627MOL0     C82643   5.459  10.531   5.759 -0.5223  0.4427 -0.2515
  627MOL0     C82644   5.330  10.441   5.725 -0.8630 -0.6897  0.0841
  627MOL0     C82645   5.242  10.513   5.628 -0.5250  0.8278 -0.2236
  627MOL0     C82646   5.102  10.455   5.623 -1.0361 -0.2287  0.1542
  627MOL0     C82647   5.020  10.496   5.742  0.5303 -0.0408 -0.3686
  627MOL0     C82648   4.895  10.417   5.772  0.4497  0.1427  1.2317
  627MOL0     N82649   4.825  10.449   5.892 -0.1259 -0.0350  0.2946
  627MOL0     C82650   4.760  10.559   5.922  1.6405  0.2082 -0.5042
  627MOL0     C82651   4.732  10.535   6.053  0.8234 -0.3755  0.1384
  627MOL0     C82652   4.640  10.634   6.113  0.3169 -0.6880  0.1606
  627MOL0     C82653   4.629  10.619   6.266 -1.0176 -0.0414 -0.2293
  627MOL0     C82654   4.513  10.709   6.312 -0.2004  0.6824 -0.1681
  627MOL0     C82655   4.485  10.676   6.458  0.4452  0.2316 -0.6001
  627MOL0     O82656   4.415  10.792   6.514 -0.4999  0.8443  0.7903
  627MOL0     C82657   4.276  10.780   6.534 -0.5691  0.3724  0.3224
  627MOL0     C82658   4.226  10.869   6.618  1.1025  0.4077  0.0569
  627MOL0     C82659   4.090  10.865   6.656 -0.0325 -0.4297  0.1872
  627MOL0     C82660   4.008  10.764   6.612 -0.9427  0.6080  1.1680
  627MOL0     C82661   3.879  10.739   6.679 -1.5597 -0.0793  0.1396
  627MOL0     O82662   3.832  10.837   6.759  0.2834  0.1526 -0.2101
  627MOL0     C82663   3.696  10.824   6.804  0.2409  0.5357  0.9877
  627MOL0     C82664   3.597  10.881   6.721 -0.0093  0.1623  0.0443
  627MOL0     C82665   3.466  10.879   6.765  0.0560 -0.7586 -0.9394
  627MOL0     C82666   3.428  10.825   6.890  0.3689  1.0010  0.0299
  627MOL0     O82667   3.292  10.840   6.933  0.0338  0.1831 -0.5550
  627MOL0     C82668   3.252  10.818   7.076  0.9567  0.6972 -0.6629
  627MOL0     C82669   3.279  10.940   7.149  0.4363  0.1564 -0.3398
  627MOL0     C82670   3.429  10.970   7.177 -0.3220 -0.6469  0.1124
  627MOL0     C82671   3.444  11.104   7.261 -1.0613 -0.1156 -0.0142
  627MOL0     C82672   3.547  11.198   7.211 -1.0430 -0.1590  0.3343
  627MOL0     C82673   3.689  11.143   7.204  0.3600  0.2736 -0.1050
  627MOL0     C82674   3.782  11.255   7.170  0.5267 -0.4866 -0.0641
  627MOL0     C82675   3.936  11.201   7.156 -0.4713 -0.2223 -0.1393
  627MOL0    Cl82676   3.963  11.128   6.997  0.2844 -0.0222 -0.2841
  627MOL0     C82677   3.527  10.761   6.961  0.0261  0.9183 -0.2489
  627MOL0     C82678   3.658  10.755   6.914 -0.2292  0.4229  0.7245
  627MOL0     O82679   3.811  10.637   6.647  0.1620  0.0417  0.0284
  627MOL0     C82680   4.061  10.673   6.512  0.5052 -0.1378  0.0769
  627MOL0     C82681   4.190  10.685   6.466 -0.3511 -0.6105 -0.1020
  627MOL0     N82682   4.765  10.410   6.100 -0.4669 -0.0839  0.3324
  627MOL0     N82683   4.820  10.358   5.995  0.4268  0.7528 -0.2001
  627MOL0     C82684   5.285  10.784   6.279  0.1092 -0.0870 -0.5158
  627MOL0     C82685   5.194  10.803   6.378 -0.8493 -0.5501 -1.4312
  627MOL0     C82686   4.976  10.747   6.723  0.1703 -0.4124  0.4936
  627MOL0     C82687   5.038  10.741   6.853 -0.0383  0.1122  0.8591
  627MOL0     C82688   4.966  10.779   6.967  0.6260 -0.2050 -0.0763
  627MOL0     C82689   4.830  10.830   6.956 -0.1084  0.7902 -0.7435
  627MOL0     O82690   4.770  10.895   7.062 -0.6817  0.2669  0.1578
  627MOL0     C82691   4.628  10.873   7.072 -0.5212  0.8722 -0.7945
  627MOL0     C82692   4.588  10.890   7.218 -0.1556  0.5101 -0.1451
  627MOL0     C82693   4.647  11.021   7.279 -0.6397  0.3413 -0.0239
  627MOL0     C82694   4.600  11.156   7.224  0.1835  0.1841 -0.7286
  627MOL0     C82695   4.482  11.193   7.308  0.9394  0.1072 -0.0748
  627MOL0     C82696   4.381  11.219   7.376 -0.4988 -0.1830 -0.5081
  627MOL0     C82697   4.764  10.831   6.824  0.3728 -0.8739 -0.3253
  627MOL0     C82698   4.838  10.780   6.709  0.6812  1.0171  0.2380
  627MOL0     H82699   4.974  10.545   6.306 -0.9879  0.5952 -0.4114
  627MOL0     H82700   5.131  10.541   6.111 -1.3842 -0.1862  0.3397
  627MOL0     H82701   5.234  10.614   5.929 -0.0151  3.5782 -1.4789
  627MOL0     H82702   5.354  10.499   5.996 -1.1455  0.5645  0.9082
  627MOL0     H82703   5.528  10.678   5.911 -0.2373 -0.4534  1.7862
  627MOL0     H82704   5.394  10.740   5.816  0.7230  1.8186  0.6141
  627MOL0     H82705   5.534  10.464   5.801 -0.7461  0.8293  0.7937
  627MOL0     H82706   5.515  10.559   5.669  3.6798 -1.4718  1.4902
  627MOL0     H82707   5.372  10.353   5.676  0.6673  0.3240 -0.4946
  627MOL0     H82708   5.282  10.398   5.813  2.6864 -2.6048  1.3032
  627MOL0     H82709   5.292  10.498   5.532  0.3665 -0.3602  0.4078
  627MOL0     H82710   5.231  10.617   5.660 -0.9856  0.9291 -0.7002
  627MOL0     H82711   5.092  10.346   5.623 -0.8536 -0.2547  1.0008
  627MOL0     H82712   5.049  10.492   5.535  2.6332  3.7795 -0.7103
  627MOL0     H82713   5.076  10.484   5.835 -2.2039 -4.3605  1.0512
  627MOL0     H82714   4.988  10.599   5.722 -1.3761 -0.4041  0.5232
  627MOL0     H82715   4.930  10.314   5.762  0.1490  0.2666 -4.1431
  627MOL0     H82716   4.825  10.436   5.690  1.4627  1.5610  0.6554
  627MOL0     H82717   4.726  10.633   5.851 -1.3324 -2.0306 -1.6138
  627MOL0     H82718   4.540  10.619   6.069  0.7377 -2.1650 -0.3487
  627MOL0     H82719   4.678  10.732   6.084  1.8005 -1.4268 -0.4634
  627MOL0     H82720   4.719  10.666   6.308 -0.1623 -0.9232 -1.0162
  627MOL0     H82721   4.616  10.514   6.290  1.1100 -0.8442 -2.1346
  627MOL0     H82722   4.537  10.816   6.314  1.5871  0.3440 -1.1978
  627MOL0     H82723   4.425  10.693   6.250  0.2023  0.5379 -0.7048
  627MOL0     H82724   4.575  10.666   6.519 -1.1974 -3.7312  1.5540
  627MOL0     H82725   4.434  10.582   6.479  1.3216 -0.6404 -2.2417
  627MOL0     H82726   4.273  10.961   6.652 -0.8024  1.9864 -1.3190
  627MOL0     H82727   4.047  10.932   6.730  1.3769 -0.5014  1.1201
  627MOL0     H82728   3.615  10.916   6.620 -2.7443 -0.8184 -0.8870
  627MOL0     H82729   3.389  10.933   6.710 -0.9555 -0.4958  0.6682
  627MOL0     H82730   3.303  10.732   7.120  0.3236 -0.1261 -1.5055
  627MOL0     H82731   3.146  10.799   7.092  1.9121 -4.5624  1.4373
  627MOL0     H82732   3.222  10.940   7.243  1.9210  3.9659  0.7798
  627MOL0     H82733   3.251  11.023   7.084 -0.5351  1.1437  1.2635
  627MOL0     H82734   3.482  10.980   7.082  0.1105 -1.7943  0.2087
  627MOL0     H82735   3.474  10.890   7.236 -0.6587  0.5104  2.0055
  627MOL0     H82736   3.358  11.172   7.271 -0.4322  0.3271  4.9228
  627MOL0     H82737   3.476  11.067   7.359 -0.6569  2.8168  1.0768
  627MOL0     H82738   3.554  11.278   7.285  3.0546 -2.7928  3.2436
  627MOL0     H82739   3.530  11.239   7.111  1.2156 -1.5520 -0.7044
  627MOL0     H82740   3.710  11.060   7.136 -0.3874  1.1421 -1.4181
  627MOL0     H82741   3.709  11.118   7.309  0.9773  0.7775 -0.0982
  627MOL0     H82742   3.747  11.313   7.084  2.0578  3.9343  2.0009
  627MOL0     H82743   3.779  11.329   7.250 -1.2571  0.7731 -1.2130
  627MOL0     H82744   3.971  11.132   7.234 -0.7805 -0.1015  0.1084
  627MOL0     H82745   4.006  11.285   7.158 -3.6129  2.6013  0.0137
  627MOL0     H82746   3.500  10.704   7.049 -0.8991  3.3558  1.1341
  627MOL0     H82747   3.739  10.705   6.967 -0.6083 -0.9885  0.0352
  627MOL0     H82748   4.000  10.592   6.473 -1.1034  1.7354 -1.5825
  627MOL0     H82749   4.223  10.608   6.397  0.7143 -2.8161  2.6616
  627MOL0     H82750   5.383  10.830   6.278  0.2099 -0.2861  0.0610
  627MOL0     H82751   5.209  10.874   6.460 -0.1852 -0.6162 -1.4922
  627MOL0     H82752   5.141  10.710   6.864 -0.4773 -1.1837  1.5787
  627MOL0     H82753   5.005  10.784   7.068 -1.1253 -0.5575  0.6507
  627MOL0     H82754   4.603  10.769   7.049 -1.7164  0.1912  2.9692
  627MOL0     H82755   4.572  10.940   7.006  3.8388  1.3033 -4.5591
  627MOL0     H82756   4.480  10.911   7.222 -0.2951 -0.2245 -0.0227
  627MOL0     H82757   4.609  10.810   7.288 -0.5808  1.1806  0.7662
  627MOL0     H82758   4.755  11.010   7.268 -0.5502  1.1365  0.0565
  627MOL0     H82759   4.624  11.010   7.385 -2.4814 -2.1853 -0.5704
  627MOL0     H82760   4.672  11.238   7.237 -1.2885  1.7433 -1.8129
  627MOL0     H82761   4.577  11.144   7.118  0.0290  1.4678 -0.8627
  627MOL0     H82762   4.298  11.240   7.440  1.7829 -1.8083  3.3468
  627MOL0     H82763   4.660  10.859   6.812 -0.4600 -2.9180  1.5804
  627MOL0     H82764   4.788  10.757   6.616  0.9714 -2.0848  0.7484
  628MOL0     O82765   9.228   0.439   3.816 -0.5907 -0.4818 -0.7428
  628MOL0     C82766   9.142   0.357   3.795  0.0835  0.3716  0.0482
  628MOL0     O82767   9.158   0.253   3.717 -0.0590 -0.3897  0.4252
  628MOL0     C82768   9.276   0.206   3.663 -0.0948  0.1059  0.3779
  628MOL0     C82769   9.395   0.275   3.634 -0.4752  0.5039  0.5596
  628MOL0     C82770   9.497   0.200   3.573  0.1742  0.6138 -0.0420
  628MOL0     C82771   9.478   0.068   3.526 -0.1012  0.2923  0.0186
  628MOL0     O82772   9.590   0.006   3.469 -0.3801 -0.9977 -0.4548
  628MOL0     C82773   9.576  -0.125   3.420 -0.4769  0.2036  0.4606
  628MOL0     C82774   9.684  -0.162   3.319 -0.7588  0.2808 -0.6766
  628MOL0     C82775   9.744  -0.301   3.352  0.5055  0.3298 -0.0806
  628MOL0     C82776   9.855  -0.326   3.251  0.7890 -0.5990  0.3452
  628MOL0     C82777   9.920  -0.459   3.300 -0.6353  0.4844  0.3904
  628MOL0     C82778  10.042  -0.480   3.208 -0.0280  0.2834 -0.2788
  628MOL0     C82779  10.139  -0.579   3.268 -0.0306  0.1357 -0.1212
  628MOL0     C82780  10.229  -0.535   3.383 -0.5778  0.2687 -0.5010
  628MOL0     N82781  10.368  -0.508   3.351 -1.1085  0.9208  1.0413
  628MOL0     C82782  10.440  -0.392   3.374  0.1323  0.1331 -0.1502
  628MOL0     C82783  10.564  -0.416   3.326  0.4122 -0.4285 -0.3531
  628MOL0     C82784  10.679  -0.326   3.326  0.5097 -0.1502 -0.2312
  628MOL0     C82785  10.759  -0.329   3.193 -0.5883 -0.1869 -0.2070
  628MOL0     C82786  10.892  -0.250   3.209 -0.4902  0.1917 -0.9429
  628MOL0     C82787  11.010  -0.333   3.279  0.5567 -0.5002  0.6586
  628MOL0     O82788  11.137  -0.269   3.265 -1.0166  0.4649 -0.1669
  628MOL0     C82789  11.220  -0.300   3.164  0.1107  0.2547 -0.2679
  628MOL0     C82790  11.327  -0.211   3.152  0.3543 -0.0668 -0.8956
  628MOL0     C82791  11.411  -0.224   3.045 -0.0119 -0.2773 -0.8089
  628MOL0     C82792  11.406  -0.336   2.963  0.2062 -0.9265  1.1378
  628MOL0     C82793  11.505  -0.349   2.854 -0.4075 -1.0571 -0.6010
  628MOL0     O82794  11.628  -0.283   2.868 -0.2686  0.5873  0.0939
  628MOL0     C82795  11.712  -0.287   2.762  0.5429  0.1754  0.3373
  628MOL0     C82796  11.846  -0.333   2.788  0.2278  0.3999 -0.4334
  628MOL0     C82797  11.948  -0.323   2.692 -0.0769  0.0701 -0.0240
  628MOL0     C82798  11.919  -0.259   2.567  0.0656  0.5866  0.1041
  628MOL0     O82799  12.027  -0.240   2.486 -0.4043 -0.3608 -0.2980
  628MOL0     C82800  12.023  -0.131   2.395  0.1844 -0.4422  1.1940
  628MOL0     C82801  12.168  -0.089   2.350 -0.2181 -0.6311  0.1922
  628MOL0     C82802  12.235  -0.033   2.481 -0.5173 -0.0290 -0.7703
  628MOL0     C82803  12.373   0.026   2.444  0.1117  0.0250  0.9351
  628MOL0     C82804  12.430   0.130   2.547  0.4958  0.6883 -0.1023
  628MOL0     C82805  12.327   0.246   2.565 -0.5455 -0.3619  0.5952
  628MOL0     C82806  12.396   0.371   2.609 -1.0919 -0.2546 -0.9139
  628MOL0     C82807  12.306   0.492   2.586  0.0433  0.1323 -0.3403
  628MOL0    Cl82808  12.177   0.493   2.704  0.2266 -0.4778 -0.5970
  628MOL0     C82809  11.789  -0.216   2.542 -0.1331 -0.0304 -0.4586
  628MOL0     C82810  11.688  -0.227   2.640  0.0613  1.0062  0.5469
  628MOL0     O82811  11.476  -0.410   2.755  0.3347 -0.0279 -0.7239
  628MOL0     C82812  11.305  -0.434   2.972  0.6737 -1.0314 -0.8984
  628MOL0     C82813  11.212  -0.408   3.076  0.1205  0.3900  0.4197
  628MOL0     N82814  10.565  -0.541   3.272  0.2767  0.4798 -1.0347
  628MOL0     N82815  10.448  -0.592   3.278 -1.0176  0.2307 -0.1561
  628MOL0     C82816   9.356  -0.002   3.559 -0.7945  1.1730  0.3917
  628MOL0     C82817   9.260   0.066   3.630  0.4649 -0.2830 -0.1776
  628MOL0     C82818   9.014   0.381   3.856  0.2096  0.4202 -0.2355
  628MOL0     C82819   9.000   0.453   3.978  0.1953 -0.0389  0.2703
  628MOL0     C82820   8.871   0.473   4.035  0.8761 -0.1668  0.0846
  628MOL0     C82821   8.760   0.410   3.972 -0.1261 -0.6678 -0.6619
  628MOL0     O82822   8.640   0.396   4.036 -0.5862 -0.0847  0.3077
  628MOL0     C82823   8.610   0.468   4.158  0.3365 -0.4591  0.2181
  628MOL0     C82824   8.457   0.441   4.178 -1.0270 -0.1267 -0.0122
  628MOL0     C82825   8.427   0.313   4.260  0.5833  0.9035  0.0595
  628MOL0     C82826   8.420   0.185   4.183  0.1472 -0.1281  0.5538
  628MOL0     C82827   8.327   0.182   4.071 -0.7999 -0.7574  0.2584
  628MOL0     C82828   8.240   0.191   3.985  0.4887 -0.0122  0.3073
  628MOL0     C82829   8.781   0.342   3.854 -0.8223 -0.2850  0.6069
  628MOL0     C82830   8.904   0.318   3.799  0.0048 -0.5179 -0.3958
  628MOL0     H82831   9.408   0.379   3.663  2.0592 -0.0877  1.8523
  628MOL0     H82832   9.582   0.258   3.540  0.7170 -1.4210 -2.5921
  628MOL0     H82833   9.482  -0.144   3.368  0.5493  0.5156 -1.6424
  628MOL0     H82834   9.591  -0.185   3.510 -0.1181 -4.6066 -2.4437
  628MOL0     H82835   9.771  -0.095   3.322 -0.5148 -0.0455 -0.3368
  628MOL0     H82836   9.654  -0.162   3.214  4.3727  0.2330 -2.4549
  628MOL0     H82837   9.665  -0.377   3.354 -2.6783  3.3660  2.3480
  628MOL0     H82838   9.792  -0.279   3.447 -0.7572  1.5468  0.3008
  628MOL0     H82839   9.812  -0.336   3.151  1.2085  5.3866 -0.8351
  628MOL0     H82840   9.913  -0.233   3.258  0.4293 -0.5179  4.1324
  628MOL0     H82841   9.851  -0.543   3.297 -1.3444  1.0455  0.6942
  628MOL0     H82842   9.963  -0.450   3.401  3.8794  2.3649 -1.4271
  628MOL0     H82843  10.094  -0.386   3.189  1.9047 -0.5269  0.8321
  628MOL0     H82844  10.002  -0.511   3.110 -0.0111 -0.1613 -0.1466
  628MOL0     H82845  10.075  -0.658   3.308  1.1435 -0.2558  1.0558
  628MOL0     H82846  10.202  -0.619   3.187  2.7784 -0.2636  2.0866
  628MOL0     H82847  10.236  -0.616   3.456 -1.5625  0.1732 -0.5066
  628MOL0     H82848  10.172  -0.455   3.430 -0.1397 -0.3812  1.1947
  628MOL0     H82849  10.420  -0.300   3.428  2.6674 -0.4468  1.9827
  628MOL0     H82850  10.751  -0.353   3.405  2.2127 -1.0700 -2.0110
  628MOL0     H82851  10.646  -0.225   3.354  1.4328 -0.1567  0.9956
  628MOL0     H82852  10.702  -0.278   3.115 -0.1742  1.5056  0.5529
  628MOL0     H82853  10.762  -0.435   3.163  2.0631 -0.4750  0.7529
  628MOL0     H82854  10.916  -0.237   3.103 -2.0737 -1.7894 -1.6186
  628MOL0     H82855  10.875  -0.158   3.266  1.6300 -0.4284  0.8287
  628MOL0     H82856  11.008  -0.429   3.227  1.0127 -0.8335  1.2469
  628MOL0     H82857  10.979  -0.345   3.383 -2.0973 -1.0286 -0.1139
  628MOL0     H82858  11.343  -0.133   3.225 -0.8816 -1.6642  1.1850
  628MOL0     H82859  11.483  -0.143   3.037  0.7980 -0.9563 -0.5378
  628MOL0     H82860  11.875  -0.360   2.889 -1.6715 -1.4414 -0.3045
  628MOL0     H82861  12.046  -0.340   2.735 -0.5402  0.2324  1.1262
  628MOL0     H82862  11.969  -0.049   2.443 -0.3719 -1.1534  1.8079
  628MOL0     H82863  11.981  -0.162   2.300  1.2821  0.6613  0.3025
  628MOL0     H82864  12.163  -0.017   2.268  1.4006 -2.4454 -1.6039
  628MOL0     H82865  12.226  -0.171   2.307  0.5978 -0.5970  1.1970
  628MOL0     H82866  12.259  -0.105   2.559 -0.7575  1.7194  1.0012
  628MOL0     H82867  12.175   0.049   2.521 -1.5513 -0.7516 -0.7996
  628MOL0     H82868  12.438  -0.060   2.427  2.4851  1.6711  1.1440
  628MOL0     H82869  12.362   0.078   2.349  2.3771 -2.0286 -0.5687
  628MOL0     H82870  12.524   0.170   2.509  0.7890 -2.4612 -3.2093
  628MOL0     H82871  12.474   0.087   2.637 -0.2574  1.7191  0.7827
  628MOL0     H82872  12.257   0.217   2.644 -0.3569  0.1354  0.9511
  628MOL0     H82873  12.283   0.266   2.467  0.0815  0.3587  0.4530
  628MOL0     H82874  12.426   0.352   2.712 -1.9504 -0.1650 -0.6443
  628MOL0     H82875  12.481   0.390   2.542  0.1633 -3.5655 -0.4514
  628MOL0     H82876  12.247   0.487   2.494 -0.8327 -1.8952  0.2674
  628MOL0     H82877  12.350   0.592   2.579 -0.6500  0.3629 -1.7984
  628MOL0     H82878  11.766  -0.169   2.447 -2.3087 -1.1519 -0.5359
  628MOL0     H82879  11.590  -0.188   2.615 -0.7144 -1.3992 -0.4092
  628MOL0     H82880  11.299  -0.527   2.918  1.0988 -1.1291 -0.7752
  628MOL0     H82881  11.136  -0.485   3.089 -1.1955  1.4748 -0.5510
  628MOL0     H82882   9.341  -0.104   3.526  2.0567  0.9705 -0.4956
  628MOL0     H82883   9.160   0.028   3.647  0.7640 -0.3702  1.4983
  628MOL0     H82884   9.088   0.489   4.030  1.8417 -2.4609 -0.6300
  628MOL0     H82885   8.850   0.542   4.116 -0.3255 -0.5073  0.0862
  628MOL0     H82886   8.628   0.575   4.148 -1.1663 -0.0709  1.2988
  628MOL0     H82887   8.661   0.439   4.251 -0.2564  0.9212  0.9977
  628MOL0     H82888   8.420   0.527   4.235 -2.7519 -0.8780  0.0622
  628MOL0     H82889   8.410   0.442   4.080  1.9783 -3.2973 -1.7025
  628MOL0     H82890   8.327   0.326   4.302 -0.3996 -1.2251 -1.4352
  628MOL0     H82891   8.484   0.293   4.351 -0.8659 -0.7337  0.6523
  628MOL0     H82892   8.520   0.160   4.145  0.3445 -0.4803  1.2854
  628MOL0     H82893   8.396   0.107   4.256  1.2853 -0.8157  0.2220
  628MOL0     H82894   8.176   0.205   3.900  1.2118 -1.6794 -0.5695
  628MOL0     H82895   8.704   0.294   3.795 -0.2854 -1.2648  0.6844
  628MOL0     H82896   8.920   0.266   3.705  0.7669  0.7060 -0.9651
  629MOL0     O82897   9.799   1.739   0.504  0.1074  0.0908  0.0735
  629MOL0     C82898   9.750   1.843   0.471  0.3781 -0.0377  0.2894
  629MOL0     O82899   9.812   1.937   0.384  0.0478 -0.1349  0.1646
  629MOL0     C82900   9.944   1.930   0.351 -0.4509  0.6323  1.4774
  629MOL0     C82901   9.971   1.985   0.228  0.3673  0.3899  0.9255
  629MOL0     C82902  10.107   2.007   0.183 -0.7678 -0.0066  0.0676
  629MOL0     C82903  10.223   1.963   0.255  0.8795 -0.4256 -0.1229
  629MOL0     O82904  10.352   1.965   0.210 -0.2513  0.6479 -0.2412
  629MOL0     C82905  10.394   2.060   0.114 -0.9978 -0.2339 -0.4752
  629MOL0     C82906  10.544   2.062   0.119  0.4639  0.4747  0.2421
  629MOL0     C82907  10.600   2.150   0.011 -1.5361 -1.4066  1.3983
  629MOL0     C82908  10.723   2.081  -0.057  0.1483 -0.2710  0.5498
  629MOL0     C82909  10.779   2.140  -0.183 -0.8574 -0.0241 -0.6102
  629MOL0     C82910  10.872   2.263  -0.164 -0.9663  0.2370 -0.6035
  629MOL0     C82911  10.955   2.275  -0.295  0.7915 -0.7141  0.2042
  629MOL0     C82912  11.027   2.410  -0.302  0.1763 -0.4584 -0.8258
  629MOL0     N82913  11.151   2.406  -0.384  0.5576  0.5463  0.1007
  629MOL0     C82914  11.280   2.391  -0.353 -0.6710  0.2112 -0.9049
  629MOL0     C82915  11.349   2.386  -0.468 -0.0109  0.3823 -0.4808
  629MOL0     C82916  11.496   2.380  -0.483  0.5845 -1.0517  0.2514
  629MOL0     C82917  11.572   2.286  -0.397  0.4819 -0.1024 -0.0434
  629MOL0     C82918  11.721   2.300  -0.412  0.2562  0.2970 -1.0079
  629MOL0     C82919  11.801   2.202  -0.322 -0.0533  0.0285  0.1716
  629MOL0     O82920  11.938   2.234  -0.330 -0.0701  0.4378  0.1412
  629MOL0     C82921  12.022   2.138  -0.277  0.1980 -0.1143 -0.1976
  629MOL0     C82922  11.986   2.071  -0.162  0.4315  0.6887  0.0477
  629MOL0     C82923  12.075   1.981  -0.106  0.2226 -0.1195 -0.3052
  629MOL0     C82924  12.202   1.958  -0.165  0.2516  0.3704 -0.0581
  629MOL0     C82925  12.288   1.861  -0.109  0.3214 -0.0266 -1.0010
  629MOL0     O82926  12.420   1.879  -0.138  0.6683  0.2497  0.1063
  629MOL0     C82927  12.513   1.846  -0.042 -1.1479  0.0662 -0.9185
  629MOL0     C82928  12.487   1.846   0.094 -0.4518  0.2129  0.0104
  629MOL0     C82929  12.593   1.833   0.184  0.4578  0.0314 -0.3242
  629MOL0     C82930  12.726   1.835   0.142  1.1203  0.9252  0.6611
  629MOL0     O82931  12.827   1.825   0.235  0.1585  0.0101 -0.3841
  629MOL0     C82932  12.939   1.742   0.199 -0.2245 -0.7303  0.5657
  629MOL0     C82933  13.028   1.719   0.319  0.6344 -0.2820 -0.9953
  629MOL0     C82934  13.145   1.811   0.341  0.3349 -0.6905 -0.9819
  629MOL0     C82935  13.087   1.946   0.374  0.1968  0.4936 -0.4744
  629MOL0     C82936  13.207   2.026   0.419 -0.5481 -0.0304 -0.7895
  629MOL0     C82937  13.190   2.178   0.415 -0.3245 -0.4990 -0.5858
  629MOL0     C82938  13.040   2.221   0.449  0.0981 -0.9806  0.7790
  629MOL0     C82939  13.030   2.378   0.466 -0.3964  0.5447 -0.8207
  629MOL0    Cl82940  13.085   2.431   0.626 -0.3385 -0.0783  0.1955
  629MOL0     C82941  12.759   1.837   0.005  0.0698 -0.6138 -0.2564
  629MOL0     C82942  12.650   1.840  -0.091  1.3679  0.3205 -0.3444
  629MOL0     O82943  12.243   1.764  -0.044  0.0915  0.1408  0.2789
  629MOL0     C82944  12.239   2.033  -0.276  0.2468  1.0444 -0.2549
  629MOL0     C82945  12.151   2.122  -0.328  0.1639 -0.6206  0.3393
  629MOL0     N82946  11.254   2.391  -0.573  0.0571  1.0271 -1.4261
  629MOL0     N82947  11.134   2.402  -0.520 -0.0552 -0.2401 -1.1423
  629MOL0     C82948  10.194   1.889   0.369 -0.3749  0.7385 -0.4789
  629MOL0     C82949  10.056   1.877   0.415 -0.4418 -0.2863 -1.2910
  629MOL0     C82950   9.600   1.855   0.497 -0.5438 -0.5083  0.4826
  629MOL0     C82951   9.532   1.980   0.491 -0.7754 -0.4292  0.1003
  629MOL0     C82952   9.392   1.986   0.525 -0.5400  0.6623  0.1617
  629MOL0     C82953   9.324   1.866   0.541 -0.9784  0.3115  0.0697
  629MOL0     O82954   9.191   1.856   0.544 -0.0371 -0.3862 -0.2144
  629MOL0     C82955   9.116   1.958   0.484 -0.2946 -1.1052 -0.1228
  629MOL0     C82956   8.969   1.908   0.485  0.1870 -0.1517 -0.0364
  629MOL0     C82957   8.869   2.007   0.435 -0.9554 -0.7916  0.0618
  629MOL0     C82958   8.718   1.968   0.426 -0.3871  0.4033 -0.3465
  629MOL0     C82959   8.652   1.900   0.548 -0.0048  0.6767 -0.1449
  629MOL0     C82960   8.595   1.839   0.631  0.4078  0.8253  0.1693
  629MOL0     C82961   9.397   1.743   0.547  0.5549  0.0130  0.2963
  629MOL0     C82962   9.531   1.741   0.537 -0.0513  0.0728 -0.1830
  629MOL0     H82963   9.893   2.023   0.163  1.7327  0.7210 -0.6066
  629MOL0     H82964  10.127   2.055   0.087  1.9729 -0.1107  0.5026
  629MOL0     H82965  10.355   2.161   0.129  0.7733  0.3212  0.6465
  629MOL0     H82966  10.365   2.022   0.015 -2.2574  0.6619 -0.4682
  629MOL0     H82967  10.581   1.961   0.101 -0.4432  0.1752 -0.0161
  629MOL0     H82968  10.577   2.108   0.213  2.0487 -0.3450  0.1013
  629MOL0     H82969  10.639   2.237   0.065  0.1570 -0.4338 -1.2070
  629MOL0     H82970  10.531   2.195  -0.061 -0.5935 -0.5229  1.0283
  629MOL0     H82971  10.799   2.053   0.017  2.5771  1.7805 -0.9848
  629MOL0     H82972  10.686   1.984  -0.091  2.9815 -0.7272 -1.6286
  629MOL0     H82973  10.688   2.170  -0.236 -0.7954  3.9618  1.1902
  629MOL0     H82974  10.837   2.065  -0.236 -0.8484  0.1362 -0.8293
  629MOL0     H82975  10.935   2.250  -0.076 -0.0745  0.2588 -1.2271
  629MOL0     H82976  10.820   2.357  -0.142  0.3052  0.8553 -0.1285
  629MOL0     H82977  11.017   2.187  -0.314 -0.3228 -1.5845  0.5539
  629MOL0     H82978  10.876   2.278  -0.370  0.2767  3.9681  0.6504
  629MOL0     H82979  11.062   2.445  -0.205 -0.6281  2.0456 -1.3689
  629MOL0     H82980  10.971   2.488  -0.355  2.8570  3.5582  1.7121
  629MOL0     H82981  11.334   2.403  -0.259 -2.5624  0.2194  0.2362
  629MOL0     H82982  11.531   2.481  -0.460  0.6809 -1.5746  2.7606
  629MOL0     H82983  11.516   2.359  -0.588 -1.3777 -2.2684  0.0879
  629MOL0     H82984  11.546   2.182  -0.421  2.2271 -1.0660  1.8481
  629MOL0     H82985  11.547   2.305  -0.292  3.1227 -1.3624  0.9059
  629MOL0     H82986  11.759   2.272  -0.511  1.1946 -3.0591  0.1367
  629MOL0     H82987  11.742   2.406  -0.396 -0.9261  0.2634  1.2259
  629MOL0     H82988  11.772   2.100  -0.348 -1.6971 -0.4445  3.3874
  629MOL0     H82989  11.763   2.217  -0.221 -1.6455 -0.0695 -0.3874
  629MOL0     H82990  11.888   2.088  -0.118 -0.2737  0.3426 -1.3439
  629MOL0     H82991  12.046   1.932  -0.013  0.6089 -0.4636 -0.3625
  629MOL0     H82992  12.387   1.846   0.137  0.3968 -0.9772  2.1297
  629MOL0     H82993  12.576   1.833   0.291  0.0272 -0.0313 -0.3923
  629MOL0     H82994  13.002   1.790   0.123 -1.5774  0.1834 -0.0318
  629MOL0     H82995  12.891   1.653   0.159  0.5437 -0.7181 -0.4379
  629MOL0     H82996  13.072   1.619   0.312  1.0633 -1.0475  5.5231
  629MOL0     H82997  12.971   1.730   0.413 -0.5762  0.5404 -1.7940
  629MOL0     H82998  13.217   1.828   0.260  1.2283  1.2081  0.1226
  629MOL0     H82999  13.188   1.776   0.436  0.7778  1.2593 -0.4124
  629MOL0     H83000  13.048   1.998   0.286  2.5612  3.0875 -0.1695
  629MOL0     H83001  13.005   1.951   0.446  0.7625 -2.6576  0.5375
  629MOL0     H83002  13.294   1.995   0.360  2.3153 -3.6607  4.4596
  629MOL0     H83003  13.215   2.009   0.527  0.8675  4.0973 -0.0446
  629MOL0     H83004  13.221   2.225   0.321 -1.1117 -1.5635 -1.4070
  629MOL0     H83005  13.263   2.205   0.491  0.8570 -1.8965 -1.1709
  629MOL0     H83006  12.976   2.200   0.363  1.3971 -0.4533 -0.3413
  629MOL0     H83007  13.002   2.163   0.534  2.5619 -3.5153  0.3084
  629MOL0     H83008  12.924   2.405   0.454 -0.6858 -0.1968 -0.0638
  629MOL0     H83009  13.080   2.442   0.393 -0.9076  1.8739 -0.0344
  629MOL0     H83010  12.862   1.836  -0.028 -0.1974 -3.7981 -1.3659
  629MOL0     H83011  12.644   1.862  -0.197 -4.5386  0.7984 -0.2018
  629MOL0     H83012  12.333   2.029  -0.331 -1.4800  3.5195 -3.7860
  629MOL0     H83013  12.175   2.179  -0.417  0.7777 -2.5684 -0.8052
  629MOL0     H83014  10.281   1.841   0.413  0.2733 -0.1715 -2.6197
  629MOL0     H83015  10.041   1.849   0.519  5.0713  1.3168  0.2813
  629MOL0     H83016   9.600   2.063   0.475 -2.5676  1.2493  0.7495
  629MOL0     H83017   9.337   2.079   0.522 -2.7919 -0.6180 -1.5515
  629MOL0     H83018   9.154   1.972   0.383  3.3093 -0.1721  1.2047
  629MOL0     H83019   9.118   2.054   0.538 -2.6464 -1.3315  0.4610
  629MOL0     H83020   8.951   1.828   0.412 -0.4717 -1.3037  1.3539
  629MOL0     H83021   8.954   1.876   0.588  1.3523 -2.3659 -0.4812
  629MOL0     H83022   8.905   2.033   0.335 -0.8780  1.2874  0.5900
  629MOL0     H83023   8.878   2.100   0.492 -0.4133  0.5878 -2.1562
  629MOL0     H83024   8.663   2.058   0.398  0.0498  0.6062 -0.5788
  629MOL0     H83025   8.711   1.896   0.343  1.1795 -1.9229  1.4156
  629MOL0     H83026   8.545   1.771   0.697 -2.3034  1.1684 -1.3633
  629MOL0     H83027   9.337   1.652   0.556  0.1874 -0.3732 -3.9020
  629MOL0     H83028   9.591   1.652   0.524 -1.4483 -0.6700 -2.0359
  630MOL0     O83029   9.678   4.930   1.541  0.5265 -0.1859 -0.2803
  630MOL0     C83030   9.692   5.014   1.631 -0.5619  0.7511  0.3308
  630MOL0     O83031   9.592   5.044   1.712  0.5176 -0.3479 -0.5968
  630MOL0     C83032   9.467   4.989   1.720  0.7929  0.3917 -0.1455
  630MOL0     C83033   9.408   4.909   1.618 -0.2553  0.0232  0.1693
  630MOL0     C83034   9.276   4.861   1.628 -0.3014 -0.0223  0.2696
  630MOL0     C83035   9.190   4.910   1.722 -0.2249  0.5242  0.7455
  630MOL0     O83036   9.059   4.870   1.733 -0.1718  0.0402 -0.1642
  630MOL0     C83037   8.982   4.883   1.617  0.1662 -0.0537 -0.0316
  630MOL0     C83038   8.827   4.889   1.650 -0.0900  0.5995  1.0745
  630MOL0     C83039   8.768   4.980   1.752 -0.4981 -0.3009 -0.6633
  630MOL0     C83040   8.617   4.943   1.771  0.9242 -0.7450  0.4522
  630MOL0     C83041   8.560   5.045   1.874  0.3023 -0.0386  0.3717
  630MOL0     C83042   8.587   5.000   2.018 -0.2572 -1.9704  0.3366
  630MOL0     C83043   8.469   5.000   2.119 -0.7253 -0.7285 -0.4007
  630MOL0     C83044   8.443   5.138   2.188  0.1358 -0.1830 -0.0632
  630MOL0     N83045   8.461   5.262   2.114 -1.3699  0.4857  1.2371
  630MOL0     C83046   8.580   5.315   2.079  0.4116  0.2489 -0.2083
  630MOL0     C83047   8.543   5.430   2.012  0.3470 -0.2673  0.5923
  630MOL0     C83048   8.627   5.546   1.969  0.4250  0.3590 -0.0126
  630MOL0     C83049   8.780   5.538   1.992  0.8051 -0.2629 -0.0730
  630MOL0     C83050   8.836   5.668   1.929 -0.5206  0.7702  0.0964
  630MOL0     C83051   8.989   5.673   1.938  0.0853 -0.4614  0.7002
  630MOL0     O83052   9.026   5.806   1.885  0.0867  0.0093  0.0181
  630MOL0     C83053   9.153   5.849   1.883 -0.2704 -1.3458 -0.1162
  630MOL0     C83054   9.171   5.978   1.852  0.0781 -0.8367 -0.6096
  630MOL0     C83055   9.299   6.034   1.824  0.0390  0.2739 -0.0598
  630MOL0     C83056   9.417   5.954   1.846  0.3825  0.4782 -0.1449
  630MOL0     C83057   9.556   6.020   1.828 -0.1769 -0.4431 -0.1771
  630MOL0     O83058   9.658   5.929   1.840 -0.0589 -0.3418  0.2095
  630MOL0     C83059   9.785   5.980   1.855 -0.3838  0.5783  0.3918
  630MOL0     C83060   9.824   6.081   1.933 -0.8991 -0.2644 -0.8898
  630MOL0     C83061   9.961   6.127   1.939 -0.0640  0.8576  0.2156
  630MOL0     C83062  10.060   6.051   1.873  0.2152 -0.5064  0.6288
  630MOL0     O83063  10.192   6.069   1.878 -0.1154  0.3966 -0.0026
  630MOL0     C83064  10.258   6.202   1.870 -0.3394  0.4948  0.1321
  630MOL0     C83065  10.381   6.219   1.953 -0.5626 -0.3820 -0.6977
  630MOL0     C83066  10.517   6.145   1.915  0.6725 -0.5376 -0.1910
  630MOL0     C83067  10.588   6.184   1.781  0.0275 -0.2348 -0.4802
  630MOL0     C83068  10.724   6.136   1.795 -0.6588  0.1239 -0.4805
  630MOL0     C83069  10.815   6.153   1.666  0.7103 -0.0670  0.3101
  630MOL0     C83070  10.954   6.112   1.695 -0.0271  0.0574  0.3511
  630MOL0     C83071  11.051   6.112   1.569  0.0142 -0.2352  0.7580
  630MOL0    Cl83072  11.095   6.277   1.524 -0.0028  0.6014  0.4540
  630MOL0     C83073  10.019   5.939   1.804  0.2554  0.3583 -0.1091
  630MOL0     C83074   9.889   5.895   1.803 -0.2227 -0.3112  0.8492
  630MOL0     O83075   9.567   6.137   1.800  0.4879 -0.2948 -0.1747
  630MOL0     C83076   9.397   5.820   1.886 -0.2268 -0.7402 -0.6033
  630MOL0     C83077   9.269   5.768   1.901 -0.6425  0.1725 -0.9362
  630MOL0     N83078   8.406   5.447   2.017  0.2409 -0.5122  0.2138
  630MOL0     N83079   8.364   5.336   2.064  0.3239 -1.1148 -0.4342
  630MOL0     C83080   9.240   4.987   1.819  0.0888  0.1746  0.1298
  630MOL0     C83081   9.379   5.023   1.822  0.5670 -0.4577  0.1355
  630MOL0     C83082   9.834   5.066   1.647  0.8842  0.6481  0.6481
  630MOL0     C83083   9.861   5.141   1.760 -0.0083  0.7794  0.6052
  630MOL0     C83084   9.993   5.185   1.780  0.4831  0.4982 -0.8020
  630MOL0     C83085  10.096   5.157   1.679 -0.0066  0.5968  1.3929
  630MOL0     O83086  10.229   5.190   1.685 -0.0831  0.0259 -0.0455
  630MOL0     C83087  10.282   5.287   1.782  0.3451 -0.2365  0.9487
  630MOL0     C83088  10.426   5.276   1.818 -0.1122  0.8533 -0.9007
  630MOL0     C83089  10.518   5.297   1.696  0.7587 -0.3208  0.1268
  630MOL0     C83090  10.666   5.284   1.732  0.6555 -0.6986  0.5362
  630MOL0     C83091  10.749   5.303   1.613  0.1682  0.2860  0.1713
  630MOL0     C83092  10.838   5.313   1.537  1.1974  0.3734 -0.4650
  630MOL0     C83093  10.061   5.088   1.557 -0.3534  0.1869  0.1039
  630MOL0     C83094   9.931   5.042   1.538 -0.6103 -0.1642 -0.6526
  630MOL0     H83095   9.458   4.881   1.525  0.2640 -4.9975  1.6547
  630MOL0     H83096   9.238   4.809   1.541 -1.5837 -0.5846  1.1429
  630MOL0     H83097   8.994   4.800   1.548  0.4297  0.3025 -0.4198
  630MOL0     H83098   9.019   4.974   1.570 -0.6065  0.3212  0.0672
  630MOL0     H83099   8.789   4.790   1.677  1.6987 -0.6717 -0.7762
  630MOL0     H83100   8.772   4.897   1.556 -1.0172 -0.0013  1.5457
  630MOL0     H83101   8.779   5.086   1.726  0.9346 -0.6994 -1.7978
  630MOL0     H83102   8.826   4.972   1.845  1.9458 -1.5320 -2.1906
  630MOL0     H83103   8.563   4.966   1.678  2.9203 -0.5994 -0.7413
  630MOL0     H83104   8.587   4.844   1.808 -4.1847  0.8839  1.4829
  630MOL0     H83105   8.452   5.060   1.863  0.3876  4.4471  3.2720
  630MOL0     H83106   8.594   5.148   1.861 -0.8926  0.0420 -3.7609
  630MOL0     H83107   8.657   5.068   2.065 -3.1325 -0.7612  3.3012
  630MOL0     H83108   8.626   4.898   2.012  4.3153 -0.3554 -1.1298
  630MOL0     H83109   8.380   4.960   2.070 -0.8537 -1.7006  0.5908
  630MOL0     H83110   8.508   4.927   2.191  1.4647  0.1802 -0.5935
  630MOL0     H83111   8.509   5.141   2.274 -0.1105 -2.1526  0.2535
  630MOL0     H83112   8.345   5.143   2.236 -0.3429  2.0579 -1.1114
  630MOL0     H83113   8.679   5.281   2.108 -0.5284 -0.1541  2.9354
  630MOL0     H83114   8.578   5.635   2.008 -1.7062  0.4160 -2.5554
  630MOL0     H83115   8.618   5.558   1.861 -1.7767  1.7741  0.2742
  630MOL0     H83116   8.820   5.450   1.941  0.5999 -1.2801  1.4665
  630MOL0     H83117   8.798   5.527   2.099  0.4422 -2.0766 -0.1790
  630MOL0     H83118   8.805   5.687   1.826  2.6532  1.4689 -0.8475
  630MOL0     H83119   8.801   5.762   1.972  1.3346  1.4655  0.1668
  630MOL0     H83120   9.028   5.603   1.864  1.0949  0.2688  0.5236
  630MOL0     H83121   9.030   5.634   2.032 -0.3359 -4.7436 -0.6922
  630MOL0     H83122   9.089   6.049   1.846 -0.2737 -0.9707  1.6323
  630MOL0     H83123   9.298   6.138   1.794 -3.8022  0.2797 -0.4207
  630MOL0     H83124   9.756   6.143   1.991  4.1123  2.6971  2.6927
  630MOL0     H83125   9.978   6.212   2.004 -1.0393  0.2361  1.3293
  630MOL0     H83126  10.191   6.285   1.892  0.9868  1.6876 -0.1757
  630MOL0     H83127  10.299   6.218   1.770  0.0383  1.5225  0.4435
  630MOL0     H83128  10.362   6.186   2.055 -1.3029 -0.1131 -0.7443
  630MOL0     H83129  10.406   6.324   1.968  0.0105 -0.6011 -0.0630
  630MOL0     H83130  10.505   6.038   1.929 -1.0344 -0.1504  1.7366
  630MOL0     H83131  10.583   6.177   1.996  0.2753  1.7908 -0.7104
  630MOL0     H83132  10.526   6.141   1.701 -0.5508  2.2311 -1.4606
  630MOL0     H83133  10.590   6.292   1.762  3.7226  0.5124  2.8155
  630MOL0     H83134  10.731   6.031   1.827 -0.4947  0.6927  1.4769
  630MOL0     H83135  10.774   6.182   1.881 -2.5758 -1.8834  1.8518
  630MOL0     H83136  10.815   6.261   1.649 -1.9726  0.0690  0.6597
  630MOL0     H83137  10.767   6.108   1.579  1.8427 -0.1130 -0.3002
  630MOL0     H83138  11.000   6.182   1.766 -1.5154  2.6443 -1.0961
  630MOL0     H83139  10.960   6.015   1.746  0.2061 -0.4059 -0.5356
  630MOL0     H83140  11.000   6.061   1.488  4.3869 -3.9537 -0.0821
  630MOL0     H83141  11.148   6.061   1.574 -0.0126 -0.3871 -0.2301
  630MOL0     H83142  10.102   5.884   1.759  1.4680  0.8805  1.4113
  630MOL0     H83143   9.870   5.810   1.739 -2.5454 -0.3989  1.5539
  630MOL0     H83144   9.480   5.750   1.882 -2.3273 -3.3710 -1.7265
  630MOL0     H83145   9.253   5.661   1.901 -0.7319  0.1808 -1.8570
  630MOL0     H83146   9.164   5.018   1.889  0.0148 -1.9215  1.0592
  630MOL0     H83147   9.421   5.079   1.905 -1.4931  1.0415  0.2280
  630MOL0     H83148   9.783   5.169   1.831 -2.3341  0.4882 -1.6816
  630MOL0     H83149  10.028   5.238   1.868 -1.2541  2.3368 -1.1630
  630MOL0     H83150  10.227   5.296   1.876 -0.5012  0.9172  0.3691
  630MOL0     H83151  10.264   5.388   1.743 -1.6208 -1.0260 -0.3408
  630MOL0     H83152  10.459   5.361   1.879 -0.3248  0.3009  0.0020
  630MOL0     H83153  10.452   5.185   1.874  2.0447  0.6398 -2.1102
  630MOL0     H83154  10.507   5.392   1.642  0.7810  0.2854  1.1590
  630MOL0     H83155  10.494   5.220   1.621 -0.1055  0.7450 -0.7363
  630MOL0     H83156  10.700   5.364   1.798  0.2370  0.9481 -1.1696
  630MOL0     H83157  10.697   5.188   1.775  1.0534  0.2983  2.5854
  630MOL0     H83158  10.918   5.308   1.467  0.6800 -0.6417 -1.0175
  630MOL0     H83159  10.137   5.063   1.483 -0.9663  2.1201 -1.2395
  630MOL0     H83160   9.897   4.993   1.447  0.8956  0.6213 -1.6766
  631MOL0     O83161   7.955   6.027   2.634 -0.1134 -0.0425  0.3069
  631MOL0     C83162   8.007   6.039   2.743  0.0860  0.4485  0.2616
  631MOL0     O83163   7.941   6.062   2.855 -0.3543  0.3803  0.0224
  631MOL0     C83164   7.807   6.080   2.861  0.9880 -0.2886  0.0765
  631MOL0     C83165   7.759   6.193   2.940  0.0728 -0.5379  0.9852
  631MOL0     C83166   7.627   6.211   2.952 -0.2382 -0.0249 -0.6589
  631MOL0     C83167   7.536   6.122   2.909 -0.2531 -0.5452 -0.5141
  631MOL0     O83168   7.405   6.140   2.938 -0.1370  0.0510  0.5194
  631MOL0     C83169   7.365   6.235   3.038 -0.1580 -0.2358 -0.2120
  631MOL0     C83170   7.213   6.231   3.052  0.2156  0.2053 -0.8082
  631MOL0     C83171   7.144   6.342   2.970 -0.4226  0.1279  0.1827
  631MOL0     C83172   7.008   6.383   3.021  0.1877 -0.9199  0.0260
  631MOL0     C83173   6.931   6.260   3.045 -0.5257 -0.0919 -0.1973
  631MOL0     C83174   6.786   6.292   3.045  0.5349 -0.8119 -0.7195
  631MOL0     C83175   6.705   6.162   3.059  0.5111  0.8472 -0.4875
  631MOL0     C83176   6.569   6.193   2.997  1.1344  0.8697 -0.4837
  631MOL0     N83177   6.457   6.115   3.054  0.3067  0.0676 -1.0670
  631MOL0     C83178   6.439   6.075   3.192  0.2600 -0.0513  0.0398
  631MOL0     C83179   6.327   6.007   3.188  0.6567  0.5682  0.0377
  631MOL0     C83180   6.253   5.952   3.311 -0.2108  0.9928  1.2494
  631MOL0     C83181   6.202   5.809   3.286 -0.0912 -0.1896  0.3262
  631MOL0     C83182   6.103   5.762   3.402  0.9814 -0.2268 -1.0264
  631MOL0     C83183   5.961   5.820   3.392 -0.6690  0.9550  0.1813
  631MOL0     O83184   5.919   5.804   3.254 -0.0049 -0.2670 -0.2209
  631MOL0     C83185   5.812   5.722   3.237  0.2574 -0.2925  1.2646
  631MOL0     C83186   5.824   5.605   3.171  0.1172  0.3865 -0.7000
  631MOL0     C83187   5.718   5.526   3.130  0.0550 -1.2388 -0.1733
  631MOL0     C83188   5.586   5.562   3.163 -0.5135 -0.9968  0.2813
  631MOL0     C83189   5.479   5.484   3.124 -0.3578  0.2139 -0.3316
  631MOL0     O83190   5.352   5.532   3.101 -1.0957  0.2078  0.0155
  631MOL0     C83191   5.252   5.442   3.077 -0.3911  0.4557 -1.0207
  631MOL0     C83192   5.193   5.424   2.947 -1.2706  0.5074  0.5525
  631MOL0     C83193   5.072   5.348   2.936 -0.1845  0.4458 -0.5757
  631MOL0     C83194   5.018   5.275   3.042 -0.4055  0.1177  0.4830
  631MOL0     O83195   4.905   5.211   3.018  1.0440 -0.0649 -0.4051
  631MOL0     C83196   4.817   5.190   3.136  0.1562  0.5481  0.1114
  631MOL0     C83197   4.677   5.152   3.077 -0.1157  0.0389 -0.5589
  631MOL0     C83198   4.565   5.135   3.180 -0.7563  0.2612 -0.8620
  631MOL0     C83199   4.537   4.988   3.228 -0.6070 -0.8526 -0.5210
  631MOL0     C83200   4.471   4.912   3.118 -0.5239  0.6636  0.1332
  631MOL0     C83201   4.441   4.771   3.146  0.6051  0.1008  0.6308
  631MOL0     C83202   4.322   4.719   3.055  0.4661 -0.1020 -0.5413
  631MOL0     C83203   4.251   4.588   3.102  0.1701 -0.0073  0.7650
  631MOL0    Cl83204   4.143   4.647   3.225 -0.0767 -0.0675 -0.5050
  631MOL0     C83205   5.091   5.286   3.166  0.3669  0.0396 -0.5539
  631MOL0     C83206   5.196   5.374   3.186 -0.6993 -0.4379  0.3431
  631MOL0     O83207   5.500   5.364   3.116 -0.2612 -0.0811  0.1361
  631MOL0     C83208   5.567   5.677   3.239 -0.6095 -1.1331  0.4111
  631MOL0     C83209   5.675   5.766   3.264  0.2081  0.3494 -0.1519
  631MOL0     N83210   6.292   5.985   3.054  0.5253  0.7189 -0.3372
  631MOL0     N83211   6.361   6.058   2.975  0.3826 -0.1136 -0.2241
  631MOL0     C83212   7.578   6.000   2.839  0.1909 -0.1054  0.5310
  631MOL0     C83213   7.712   5.990   2.805 -0.1340  0.3174  0.4999
  631MOL0     C83214   8.156   6.027   2.742 -0.4432 -0.1857 -0.2525
  631MOL0     C83215   8.221   6.000   2.867 -0.3569 -0.5584  0.0656
  631MOL0     C83216   8.361   5.993   2.861 -1.1721  0.2540  0.4356
  631MOL0     C83217   8.428   6.004   2.738  0.3703  0.1206 -0.7072
  631MOL0     O83218   8.559   5.977   2.752  1.5061  0.2037  0.9562
  631MOL0     C83219   8.649   6.058   2.675  0.7288 -0.5321 -0.9347
  631MOL0     C83220   8.792   6.029   2.716  0.3611 -0.7935 -0.4743
  631MOL0     C83221   8.819   5.883   2.686  0.5444 -0.6158  0.4811
  631MOL0     C83222   8.967   5.860   2.655 -1.0105  0.6530 -0.0627
  631MOL0     C83223   9.042   5.917   2.767  0.8181 -0.0802 -0.1735
  631MOL0     C83224   9.093   5.966   2.862 -0.4721  0.5723 -0.6636
  631MOL0     C83225   8.367   6.030   2.616 -0.4360 -0.5078 -0.4123
  631MOL0     C83226   8.228   6.049   2.617  0.2908 -0.9229  0.5441
  631MOL0     H83227   7.833   6.261   2.981  1.1307 -1.1606  0.1517
  631MOL0     H83228   7.604   6.304   3.002  2.3454  1.1949 -1.5561
  631MOL0     H83229   7.399   6.336   3.016  0.0778 -0.4640 -0.9116
  631MOL0     H83230   7.418   6.221   3.133  0.2764  2.3309 -0.0251
  631MOL0     H83231   7.194   6.249   3.158  1.8816  2.6915 -0.8282
  631MOL0     H83232   7.170   6.132   3.035  1.4188 -0.9258  2.1197
  631MOL0     H83233   7.136   6.315   2.864 -0.1563 -0.1150  0.2209
  631MOL0     H83234   7.210   6.429   2.978  0.7049 -0.7250  0.4543
  631MOL0     H83235   7.011   6.445   3.111  4.5045 -0.2500 -0.3919
  631MOL0     H83236   6.970   6.443   2.938  2.0837  1.8045  0.9803
  631MOL0     H83237   6.968   6.225   3.142 -0.2481 -1.6256 -0.8201
  631MOL0     H83238   6.953   6.185   2.969  0.8867  0.1322 -0.0433
  631MOL0     H83239   6.757   6.337   2.949  1.6771 -1.2475 -1.2850
  631MOL0     H83240   6.753   6.348   3.133 -2.0674 -5.4277  1.5846
  631MOL0     H83241   6.753   6.085   2.998  1.7567  1.0587  0.1955
  631MOL0     H83242   6.710   6.119   3.159  1.0580 -0.8121 -1.2023
  631MOL0     H83243   6.567   6.202   2.888  0.5913  2.8628 -0.3539
  631MOL0     H83244   6.539   6.293   3.032 -4.8153 -0.0609 -1.8516
  631MOL0     H83245   6.500   6.106   3.276 -0.2716  0.0037  0.4065
  631MOL0     H83246   6.178   6.025   3.341  1.2545  3.0862  0.0671
  631MOL0     H83247   6.331   5.955   3.389  1.2554 -0.7014 -0.0624
  631MOL0     H83248   6.286   5.738   3.287 -0.0755 -0.1697  0.6974
  631MOL0     H83249   6.161   5.798   3.186 -0.2594  4.1176 -0.2607
  631MOL0     H83250   6.092   5.653   3.399 -2.3347  0.0005 -0.6354
  631MOL0     H83251   6.147   5.795   3.496 -1.1083  2.2955 -0.8569
  631MOL0     H83252   5.963   5.924   3.425  1.1165  0.6478  1.1480
  631MOL0     H83253   5.892   5.757   3.450 -0.4446  1.1325  0.6432
  631MOL0     H83254   5.924   5.571   3.145 -0.7370 -2.3110 -0.8296
  631MOL0     H83255   5.736   5.429   3.084  0.3716 -0.8956 -0.7781
  631MOL0     H83256   5.261   5.463   2.872 -0.7953 -1.7422 -0.2706
  631MOL0     H83257   5.010   5.340   2.847 -1.6167  0.0913  0.4234
  631MOL0     H83258   4.799   5.280   3.195 -0.8052  1.4183 -1.4257
  631MOL0     H83259   4.840   5.109   3.205  1.0093  0.7965  0.1344
  631MOL0     H83260   4.691   5.067   3.010  1.4463 -1.3545  1.3939
  631MOL0     H83261   4.642   5.229   3.008 -2.3363 -0.5384 -0.1252
  631MOL0     H83262   4.474   5.175   3.134  0.4141  1.4763 -2.2268
  631MOL0     H83263   4.592   5.191   3.271 -3.4864 -0.4415  0.4666
  631MOL0     H83264   4.625   4.929   3.257 -0.1189  0.7963  1.6239
  631MOL0     H83265   4.476   4.996   3.318  0.1272  0.8038 -0.1459
  631MOL0     H83266   4.511   4.922   3.017 -2.5823  3.8163 -0.5285
  631MOL0     H83267   4.376   4.965   3.110 -0.7223  0.0537 -2.1945
  631MOL0     H83268   4.408   4.769   3.250  1.2993  4.5610  1.1161
  631MOL0     H83269   4.532   4.713   3.126 -0.1479 -1.0370  0.3551
  631MOL0     H83270   4.248   4.797   3.033  0.9853  0.6673  0.3562
  631MOL0     H83271   4.370   4.698   2.959 -1.8614 -2.4973 -1.2895
  631MOL0     H83272   4.327   4.528   3.154 -1.0494 -0.5431  2.0096
  631MOL0     H83273   4.198   4.531   3.026  0.3982 -0.1821  0.7342
  631MOL0     H83274   5.048   5.243   3.255  3.1801  2.7067  2.3405
  631MOL0     H83275   5.242   5.398   3.281  0.5589 -0.1092 -0.3244
  631MOL0     H83276   5.470   5.714   3.269  1.1109  1.2643  3.6194
  631MOL0     H83277   5.664   5.863   3.310 -0.2306  0.6809 -0.9347
  631MOL0     H83278   7.511   5.917   2.818  2.2140 -1.1813 -2.1868
  631MOL0     H83279   7.742   5.898   2.755 -0.5059  1.1026 -1.2580
  631MOL0     H83280   8.173   5.984   2.963  2.5690  3.4888  2.4616
  631MOL0     H83281   8.408   5.964   2.955  2.4174 -0.1607 -1.3226
  631MOL0     H83282   8.624   6.163   2.693  1.1165 -0.4252 -1.0136
  631MOL0     H83283   8.640   6.034   2.568  1.7556 -0.2412 -1.1046
  631MOL0     H83284   8.864   6.092   2.663  0.2299 -2.2990 -2.5369
  631MOL0     H83285   8.802   6.053   2.823 -1.6084  3.8814 -1.0675
  631MOL0     H83286   8.769   5.856   2.592  1.8815 -1.5153 -0.0034
  631MOL0     H83287   8.778   5.822   2.767 -0.7971 -0.9007 -0.3737
  631MOL0     H83288   9.000   5.759   2.631 -0.1183  1.2491 -1.4368
  631MOL0     H83289   8.981   5.924   2.568 -0.3969  4.4205  2.5588
  631MOL0     H83290   9.144   6.025   2.936  2.1488 -0.3775 -1.6191
  631MOL0     H83291   8.423   6.043   2.523  0.1462 -2.1750 -0.3285
  631MOL0     H83292   8.177   6.086   2.529 -2.2469  2.1408  3.0241
  632MOL0     O83293   2.978   6.144   9.001 -0.1309 -0.3138 -0.3407
  632MOL0     C83294   2.972   6.229   9.087 -0.0638 -0.3910 -0.3359
  632MOL0     O83295   3.074   6.309   9.128 -0.1590  0.6582 -0.0801
  632MOL0     C83296   3.190   6.294   9.057  0.5007  0.3247  0.1072
  632MOL0     C83297   3.213   6.383   8.946 -0.4398  0.7128 -0.7287
  632MOL0     C83298   3.338   6.363   8.873  0.8712 -0.6432  0.0886
  632MOL0     C83299   3.425   6.255   8.903 -0.0321  0.0295 -0.0596
  632MOL0     O83300   3.533   6.217   8.834 -0.3638 -0.2167 -0.4213
  632MOL0     C83301   3.586   6.307   8.732  0.9885  1.0591  0.2047
  632MOL0     C83302   3.725   6.259   8.698 -0.4045  0.5983  0.8415
  632MOL0     C83303   3.791   6.365   8.607  0.2199  0.8298 -0.5960
  632MOL0     C83304   3.922   6.308   8.546 -0.4735 -1.1216 -0.7305
  632MOL0     C83305   4.031   6.297   8.649 -0.0686  0.2763 -0.7848
  632MOL0     C83306   4.162   6.235   8.615  0.3122  0.1292  0.1718
  632MOL0     C83307   4.276   6.263   8.710  0.4681  0.2174 -0.2934
  632MOL0     C83308   4.360   6.378   8.651 -0.3943 -0.5432  0.0598
  632MOL0     N83309   4.453   6.403   8.761 -0.6654 -0.6428 -0.0858
  632MOL0     C83310   4.429   6.473   8.876 -0.5627 -0.2357  0.6147
  632MOL0     C83311   4.534   6.456   8.962 -0.9893  0.0665 -0.6382
  632MOL0     C83312   4.533   6.532   9.084 -0.1362  0.3469 -0.3547
  632MOL0     C83313   4.672   6.568   9.140 -0.1424  0.1009 -0.9339
  632MOL0     C83314   4.713   6.478   9.265 -0.1897 -0.5758 -0.7777
  632MOL0     C83315   4.851   6.493   9.322  1.0679 -1.6412 -0.9597
  632MOL0     O83316   4.868   6.632   9.348  0.3583 -0.6047 -0.3628
  632MOL0     C83317   4.994   6.684   9.385 -0.1452  0.0579  0.1699
  632MOL0     C83318   5.014   6.821   9.357 -0.2597 -0.2889 -0.7561
  632MOL0     C83319   5.145   6.882   9.390  0.6959 -1.1835  0.3882
  632MOL0     C83320   5.249   6.802   9.449  0.3546 -0.3330 -0.8024
  632MOL0     C83321   5.372   6.875   9.492  0.3742  0.2294 -0.7640
  632MOL0     O83322   5.438   6.830   9.603  0.0556  0.9387  0.3445
  632MOL0     C83323   5.528   6.903   9.674 -0.4834  0.7711  0.1308
  632MOL0     C83324   5.522   7.039   9.683  0.2323 -0.5786 -0.3812
  632MOL0     C83325   5.613   7.098   9.771  0.5900 -1.0380  0.1861
  632MOL0     C83326   5.719   7.034   9.834 -0.8024 -0.3550 -0.4437
  632MOL0     O83327   5.799   7.096   9.916 -0.5118 -0.4020 -0.0282
  632MOL0     C83328   5.801   7.040  10.054  0.6198 -0.2137  0.3147
  632MOL0     C83329   5.887   7.120  10.142 -0.1937  1.0903 -0.5592
  632MOL0     C83330   5.874   7.269  10.130 -0.0607  0.8084 -1.1967
  632MOL0     C83331   5.733   7.325  10.150  0.5831  0.2290 -0.6245
  632MOL0     C83332   5.705   7.476  10.118 -0.3846 -0.1275 -0.2403
  632MOL0     C83333   5.788   7.571  10.202 -0.1780 -0.6009 -0.4285
  632MOL0     C83334   5.721   7.613  10.335  0.5903  0.0356 -0.3969
  632MOL0     C83335   5.809   7.679  10.437  0.7584  0.1877  0.8483
  632MOL0    Cl83336   5.906   7.817  10.367  0.1003 -0.4162  0.2981
  632MOL0     C83337   5.732   6.900   9.805  0.6452  0.1690 -0.2277
  632MOL0     C83338   5.638   6.834   9.732 -0.3994  0.2745  0.0662
  632MOL0     O83339   5.404   6.976   9.437 -0.0947 -0.3017  0.0047
  632MOL0     C83340   5.225   6.670   9.480  1.2675  1.2108 -0.0085
  632MOL0     C83341   5.103   6.612   9.443 -0.7257  0.1475 -0.4638
  632MOL0     N83342   4.624   6.374   8.897  0.0613 -0.4288 -0.1034
  632MOL0     N83343   4.570   6.336   8.778 -0.1373  0.3802 -0.2602
  632MOL0     C83344   3.399   6.173   9.012  0.5386 -0.1143 -0.2109
  632MOL0     C83345   3.275   6.188   9.081  0.2119 -0.2229  1.1743
  632MOL0     C83346   2.848   6.238   9.163  0.5879 -0.5099 -0.3998
  632MOL0     C83347   2.840   6.322   9.276  0.2432 -0.2201 -0.9511
  632MOL0     C83348   2.722   6.330   9.357  0.6670  1.2163  0.5206
  632MOL0     C83349   2.608   6.263   9.305 -0.2068 -0.1633 -0.6342
  632MOL0     O83350   2.490   6.285   9.369 -0.5521  0.0166  0.7890
  632MOL0     C83351   2.455   6.405   9.430  0.1264 -0.1194  0.2224
  632MOL0     C83352   2.387   6.509   9.339 -0.5475  0.1321  0.7142
  632MOL0     C83353   2.268   6.469   9.246 -0.1499 -1.3279  0.6900
  632MOL0     C83354   2.173   6.379   9.314  0.7097  0.9017 -0.6280
  632MOL0     C83355   2.112   6.438   9.435  0.3519 -0.5487 -0.8203
  632MOL0     C83356   2.076   6.494   9.533  0.4460  0.2038  0.1008
  632MOL0     C83357   2.610   6.180   9.188 -0.6481  0.0577 -0.1529
  632MOL0     C83358   2.727   6.172   9.116 -0.0169 -0.7830 -0.6621
  632MOL0     H83359   3.132   6.446   8.910 -1.5363 -0.9949 -1.3759
  632MOL0     H83360   3.343   6.425   8.784 -0.0586 -2.6170 -1.3992
  632MOL0     H83361   3.600   6.409   8.769  4.5196  0.5574  0.5596
  632MOL0     H83362   3.523   6.306   8.643  1.4619 -0.5944 -0.1431
  632MOL0     H83363   3.725   6.161   8.648  1.7403 -0.5179  2.8474
  632MOL0     H83364   3.773   6.246   8.795 -3.4547  0.0415  2.4013
  632MOL0     H83365   3.813   6.455   8.665 -0.9061  0.5204  0.3456
  632MOL0     H83366   3.717   6.380   8.528 -4.0989 -3.4534  2.0480
  632MOL0     H83367   3.903   6.218   8.487 -2.6699  0.2155 -2.2119
  632MOL0     H83368   3.972   6.377   8.478  3.3411 -1.6561  1.2362
  632MOL0     H83369   3.998   6.231   8.730  0.5252  1.2387  0.2583
  632MOL0     H83370   4.061   6.396   8.684  4.6207 -1.0238 -0.4211
  632MOL0     H83371   4.181   6.291   8.522 -0.0054  0.4514  0.2967
  632MOL0     H83372   4.147   6.129   8.592  0.8855 -1.2389  5.1519
  632MOL0     H83373   4.227   6.284   8.806  2.3064  0.9908  0.5028
  632MOL0     H83374   4.338   6.173   8.714  2.3955  1.5083  0.1824
  632MOL0     H83375   4.302   6.469   8.634  1.2080  0.9291  2.0184
  632MOL0     H83376   4.424   6.346   8.568  2.6727  3.0543  0.7598
  632MOL0     H83377   4.344   6.531   8.907  0.7243  1.5766  0.9088
  632MOL0     H83378   4.476   6.475   9.158  2.5424 -4.1521 -1.3571
  632MOL0     H83379   4.481   6.628   9.075 -1.0500  0.0376  1.1803
  632MOL0     H83380   4.667   6.675   9.162  3.3901  0.6541 -2.1563
  632MOL0     H83381   4.756   6.559   9.071  1.0292 -0.4761  0.4942
  632MOL0     H83382   4.641   6.499   9.344  0.9763  0.6989 -0.0314
  632MOL0     H83383   4.706   6.372   9.237  2.9867 -0.1051 -4.1959
  632MOL0     H83384   4.927   6.452   9.256  0.2494 -4.8492 -0.0733
  632MOL0     H83385   4.842   6.437   9.416 -0.5455 -1.2581 -0.8592
  632MOL0     H83386   4.937   6.883   9.312  0.5398  0.7758 -0.7104
  632MOL0     H83387   5.154   6.989   9.377 -0.6278 -0.8066  2.1675
  632MOL0     H83388   5.450   7.098   9.628 -0.0500 -1.4433 -0.9636
  632MOL0     H83389   5.611   7.205   9.789 -0.9595 -1.2274  1.2791
  632MOL0     H83390   5.839   6.937  10.045  1.2367  0.0945 -0.8301
  632MOL0     H83391   5.698   7.044  10.089 -0.1957 -2.5871 -1.5219
  632MOL0     H83392   5.987   7.101  10.100 -1.3227 -0.4670 -2.7509
  632MOL0     H83393   5.890   7.081  10.244  1.2555 -0.0247 -0.9926
  632MOL0     H83394   5.912   7.303  10.033 -1.7008  0.8532 -1.8446
  632MOL0     H83395   5.938   7.314  10.207 -0.1605 -0.0414 -0.6000
  632MOL0     H83396   5.654   7.265  10.104 -3.4593  1.5951  3.6972
  632MOL0     H83397   5.716   7.311  10.257 -1.3376  0.3916 -0.8691
  632MOL0     H83398   5.598   7.493  10.107 -1.0035 -3.0130  0.3843
  632MOL0     H83399   5.729   7.495  10.013 -0.9348  1.5536 -0.0878
  632MOL0     H83400   5.816   7.661  10.147  3.3200  0.3368  2.4478
  632MOL0     H83401   5.883   7.525  10.230 -0.8442 -0.1384  2.9746
  632MOL0     H83402   5.638   7.680  10.309 -0.4718 -1.0348  0.1451
  632MOL0     H83403   5.672   7.522  10.372  0.9844  0.1354  0.3762
  632MOL0     H83404   5.877   7.600  10.471  0.4296 -0.1346  0.7558
  632MOL0     H83405   5.752   7.721  10.521 -0.9863 -0.3066 -0.0433
  632MOL0     H83406   5.812   6.844   9.853  1.9407  2.9241  1.0494
  632MOL0     H83407   5.639   6.727   9.716  0.5517  0.3052 -0.1456
  632MOL0     H83408   5.287   6.604   9.540 -0.1078  0.2466  0.4098
  632MOL0     H83409   5.091   6.511   9.480 -2.4121  0.2367 -0.7071
  632MOL0     H83410   3.462   6.089   9.041  0.4481 -0.0767  0.0971
  632MOL0     H83411   3.255   6.097   9.137 -1.4739 -0.3474  0.4273
  632MOL0     H83412   2.928   6.360   9.327 -0.9891  0.1595  0.9986
  632MOL0     H83413   2.721   6.374   9.457 -3.4394  2.9524 -0.0742
  632MOL0     H83414   2.532   6.456   9.488  0.5109  2.8120 -2.6177
  632MOL0     H83415   2.375   6.380   9.501 -1.6527 -1.7827 -2.2103
  632MOL0     H83416   2.354   6.592   9.402 -3.3748  3.0209 -3.9408
  632MOL0     H83417   2.462   6.558   9.276 -0.9909 -1.6848 -1.3634
  632MOL0     H83418   2.299   6.415   9.156  1.6873  0.1033  0.3930
  632MOL0     H83419   2.217   6.564   9.228  1.0196 -0.5000  1.5424
  632MOL0     H83420   2.089   6.373   9.243 -1.8046 -0.2502  2.2210
  632MOL0     H83421   2.215   6.280   9.328  0.3628  0.7851 -0.4139
  632MOL0     H83422   2.041   6.540   9.624 -1.4109  0.0670 -0.5071
  632MOL0     H83423   2.517   6.142   9.148 -1.8362  3.1073 -0.6027
  632MOL0     H83424   2.716   6.118   9.022 -2.1378 -0.3762 -0.6978
  633MOL0     O83425   0.570   6.211   5.975  0.3856  0.5325  0.0847
  633MOL0     C83426   0.636   6.274   5.888 -0.8932 -0.0217 -0.5839
  633MOL0     O83427   0.661   6.405   5.885 -0.1633  0.4615  0.1256
  633MOL0     C83428   0.593   6.488   5.961 -0.3877  0.4690  0.2404
  633MOL0     C83429   0.656   6.574   6.053  0.1468  0.6631 -0.6280
  633MOL0     C83430   0.578   6.662   6.124 -0.1770 -0.7112  0.2494
  633MOL0     C83431   0.440   6.663   6.115 -0.0223  0.3120  0.4419
  633MOL0     O83432   0.370   6.755   6.199  0.0897  0.3878 -0.3179
  633MOL0     C83433   0.312   6.705   6.321 -0.4061 -0.4844  0.2878
  633MOL0     C83434   0.405   6.725   6.438 -0.3399  0.0558 -0.0611
  633MOL0     C83435   0.497   6.848   6.440  0.8091  0.5732  0.6130
  633MOL0     C83436   0.419   6.975   6.468  0.1279  0.2369 -0.1249
  633MOL0     C83437   0.519   7.095   6.469  1.1012 -0.1495  0.4480
  633MOL0     C83438   0.630   7.063   6.579 -1.1014  0.2698  0.3548
  633MOL0     C83439   0.721   7.181   6.613 -0.5392  0.1167  0.8261
  633MOL0     C83440   0.767   7.272   6.492  0.4182  0.5615  0.4123
  633MOL0     N83441   0.826   7.391   6.550 -1.2354  0.2150  0.4824
  633MOL0     C83442   0.959   7.396   6.579  0.3340 -0.3483  0.8152
  633MOL0     C83443   0.985   7.522   6.627  0.2501  1.1171 -0.2140
  633MOL0     C83444   1.116   7.565   6.684  0.4970  0.2570  1.2326
  633MOL0     C83445   1.120   7.538   6.830 -0.2532 -0.6597 -1.0743
  633MOL0     C83446   1.261   7.595   6.886  0.1661  0.6677 -0.3670
  633MOL0     C83447   1.282   7.568   7.033 -0.3207  0.1714  0.1028
  633MOL0     O83448   1.391   7.484   7.058 -0.3803  0.7478 -0.0826
  633MOL0     C83449   1.518   7.535   7.072 -0.1596  0.0989 -0.7457
  633MOL0     C83450   1.561   7.651   7.004 -0.7059 -0.9008 -0.1147
  633MOL0     C83451   1.688   7.700   7.041  0.3553 -0.0049  0.3809
  633MOL0     C83452   1.766   7.641   7.130 -0.1137  0.0589 -0.5038
  633MOL0     C83453   1.911   7.682   7.163 -0.4255 -0.2453 -0.2302
  633MOL0     O83454   1.984   7.631   7.271  0.7862 -0.0037  0.5606
  633MOL0     C83455   2.116   7.644   7.269 -0.5339  0.0807 -0.3470
  633MOL0     C83456   2.186   7.693   7.382  0.4681  0.7386  0.6025
  633MOL0     C83457   2.324   7.697   7.391  0.1599 -0.2212 -0.1478
  633MOL0     C83458   2.403   7.658   7.289  0.2510 -0.1326  0.3667
  633MOL0     O83459   2.540   7.683   7.299  0.2632 -0.4095 -0.5135
  633MOL0     C83460   2.619   7.687   7.184  0.2277 -0.6407 -0.4256
  633MOL0     C83461   2.676   7.557   7.135 -0.3833 -0.7000  0.3813
  633MOL0     C83462   2.706   7.546   6.984 -0.0406 -0.8802  0.1235
  633MOL0     C83463   2.818   7.645   6.950  0.5288  0.5303 -0.0998
  633MOL0     C83464   2.925   7.595   6.847  0.4710 -0.1048  0.0774
  633MOL0     C83465   3.059   7.660   6.853 -1.2742  0.3844  0.0524
  633MOL0     C83466   3.064   7.808   6.871  0.5334  0.6596  0.4815
  633MOL0     C83467   3.195   7.840   6.936 -0.3414 -0.0810  0.4423
  633MOL0    Cl83468   3.177   7.803   7.115 -0.1286 -0.0627  0.3798
  633MOL0     C83469   2.332   7.600   7.176  0.7973 -0.9541 -0.1992
  633MOL0     C83470   2.191   7.593   7.162  0.6294  0.1697  0.4216
  633MOL0     O83471   1.950   7.774   7.092 -0.0520 -0.1251  0.0256
  633MOL0     C83472   1.718   7.539   7.200 -0.0522 -0.3356 -0.1225
  633MOL0     C83473   1.599   7.473   7.163  0.6340 -0.1595  0.6517
  633MOL0     N83474   0.862   7.587   6.607 -0.2691  0.0393 -0.7812
  633MOL0     N83475   0.774   7.509   6.561  0.2949  0.3471 -0.6716
  633MOL0     C83476   0.379   6.585   6.018  0.4643  0.4927 -1.1233
  633MOL0     C83477   0.457   6.492   5.940 -0.4056 -0.1777  0.0453
  633MOL0     C83478   0.683   6.205   5.773  0.6928  0.8025 -0.2435
  633MOL0     C83479   0.763   6.265   5.681  0.1416 -0.0991 -0.9804
  633MOL0     C83480   0.815   6.196   5.573 -0.1745  0.6084 -0.4633
  633MOL0     C83481   0.803   6.058   5.559 -0.4688 -0.3201  0.4574
  633MOL0     O83482   0.868   5.996   5.450 -0.2558  0.1459 -0.2569
  633MOL0     C83483   0.779   5.934   5.358 -0.1825  0.0499  0.7615
  633MOL0     C83484   0.831   5.914   5.209 -0.0121 -0.2638  0.1888
  633MOL0     C83485   0.817   6.044   5.133 -0.1810 -0.2148  0.7253
  633MOL0     C83486   0.868   6.171   5.194 -0.3890  0.1059  0.1763
  633MOL0     C83487   1.019   6.154   5.221  0.3006 -0.4513  0.6395
  633MOL0     C83488   1.141   6.147   5.249  0.1281  0.0518 -0.2664
  633MOL0     C83489   0.717   5.992   5.656 -0.9409  0.1682  0.7617
  633MOL0     C83490   0.664   6.069   5.755  1.3064 -1.5146  0.2204
  633MOL0     H83491   0.763   6.586   6.063 -0.1077  3.2504 -0.3791
  633MOL0     H83492   0.624   6.726   6.198 -1.1826 -0.2978  0.5350
  633MOL0     H83493   0.277   6.602   6.315 -0.8580 -0.5430  2.9872
  633MOL0     H83494   0.218   6.757   6.345 -2.2629 -1.8326 -3.1872
  633MOL0     H83495   0.475   6.641   6.432 -1.6220 -1.1118  0.9544
  633MOL0     H83496   0.353   6.714   6.534 -0.9794  3.3558  0.0876
  633MOL0     H83497   0.555   6.855   6.347  0.5087 -0.4695  0.3361
  633MOL0     H83498   0.575   6.831   6.515  0.1116  1.6086  1.6109
  633MOL0     H83499   0.328   6.982   6.408  0.0936 -0.2423 -0.1314
  633MOL0     H83500   0.382   6.965   6.571 -0.9789 -2.7123 -0.7233
  633MOL0     H83501   0.452   7.176   6.499 -1.5982 -1.8543 -0.5336
  633MOL0     H83502   0.558   7.116   6.369  1.6072  3.5730  1.2900
  633MOL0     H83503   0.702   6.996   6.532  0.9072  1.2693  1.8446
  633MOL0     H83504   0.588   7.012   6.665 -0.0409 -1.6205 -0.1815
  633MOL0     H83505   0.664   7.239   6.687  0.2308  0.9531  0.7878
  633MOL0     H83506   0.815   7.155   6.663 -0.3834 -0.9799 -0.0126
  633MOL0     H83507   0.689   7.306   6.423 -1.6404  2.6980  3.5346
  633MOL0     H83508   0.845   7.214   6.441 -0.4137  0.2582 -0.5511
  633MOL0     H83509   1.034   7.318   6.572  0.5222 -0.0603 -0.7934
  633MOL0     H83510   1.140   7.666   6.649  0.9936 -0.7217 -1.4788
  633MOL0     H83511   1.193   7.501   6.641 -1.6196 -0.3529 -2.0582
  633MOL0     H83512   1.095   7.432   6.838 -4.2579 -0.1354 -3.8643
  633MOL0     H83513   1.034   7.578   6.885 -0.8408 -2.5414 -0.5128
  633MOL0     H83514   1.338   7.545   6.826 -0.2752 -0.2310 -0.2100
  633MOL0     H83515   1.270   7.703   6.870 -1.5171  0.7968 -0.6251
  633MOL0     H83516   1.197   7.511   7.072  1.4040 -0.7777  2.7642
  633MOL0     H83517   1.291   7.657   7.096  2.1709  0.9470 -1.2166
  633MOL0     H83518   1.509   7.703   6.925  0.7226 -1.7723 -1.7127
  633MOL0     H83519   1.730   7.781   6.982 -2.1208 -0.3286 -2.0311
  633MOL0     H83520   2.146   7.731   7.475  1.0064 -1.9150  2.0387
  633MOL0     H83521   2.361   7.749   7.480 -0.0251 -0.0078 -0.1954
  633MOL0     H83522   2.708   7.743   7.211 -0.0994  0.2595 -1.1514
  633MOL0     H83523   2.563   7.741   7.107 -1.4073 -2.4334 -0.5816
  633MOL0     H83524   2.597   7.485   7.157 -0.4769 -0.4966  0.7167
  633MOL0     H83525   2.770   7.534   7.187 -1.1450  0.6171  2.4762
  633MOL0     H83526   2.624   7.580   6.920  0.6339  1.8258  0.5777
  633MOL0     H83527   2.731   7.443   6.960  3.0469 -0.9077  2.7885
  633MOL0     H83528   2.784   7.744   6.917 -0.4508  0.5192  0.8287
  633MOL0     H83529   2.879   7.658   7.040  1.2391 -1.6221 -0.2181
  633MOL0     H83530   2.882   7.632   6.753  1.0933  1.6331  0.4365
  633MOL0     H83531   2.935   7.486   6.852 -0.6565 -0.1705  1.4523
  633MOL0     H83532   3.115   7.633   6.763 -3.0576  0.3512 -1.0938
  633MOL0     H83533   3.109   7.621   6.942 -1.1839 -1.1766 -0.6523
  633MOL0     H83534   3.037   7.859   6.778 -1.0285  1.8720  1.5523
  633MOL0     H83535   2.982   7.846   6.933  1.1720  4.4922 -0.7925
  633MOL0     H83536   3.215   7.946   6.919  1.2475 -0.3227  0.6213
  633MOL0     H83537   3.275   7.783   6.888 -0.4123  0.6548 -0.5890
  633MOL0     H83538   2.393   7.562   7.094 -0.5138  1.0901 -2.2288
  633MOL0     H83539   2.149   7.545   7.075  3.9707 -3.0760  0.3581
  633MOL0     H83540   1.778   7.494   7.278  0.2812 -1.8346 -1.1931
  633MOL0     H83541   1.564   7.378   7.201 -1.5611  2.0537  4.7584
  633MOL0     H83542   0.271   6.574   6.030  0.0407  3.5498 -1.2965
  633MOL0     H83543   0.408   6.421   5.874  4.2639  0.6331 -5.0323
  633MOL0     H83544   0.798   6.368   5.686 -1.2654  0.3337  1.6867
  633MOL0     H83545   0.859   6.263   5.498 -2.6332  0.7265 -1.9006
  633MOL0     H83546   0.681   5.983   5.362  0.0753  0.6244  0.1914
  633MOL0     H83547   0.760   5.836   5.403 -0.2642  0.7186  2.2522
  633MOL0     H83548   0.936   5.887   5.203 -0.4177 -1.9240  0.1337
  633MOL0     H83549   0.773   5.841   5.152 -0.4855  1.6981 -2.0337
  633MOL0     H83550   0.710   6.054   5.114 -0.2397  3.6292  2.1760
  633MOL0     H83551   0.865   6.034   5.035 -0.3908  1.4915  0.4134
  633MOL0     H83552   0.844   6.260   5.134 -1.3389 -1.1200 -1.3331
  633MOL0     H83553   0.823   6.181   5.294  0.9661  0.7911  0.7391
  633MOL0     H83554   1.247   6.142   5.262  0.3017  0.6656 -1.2964
  633MOL0     H83555   0.695   5.886   5.649  3.4859 -0.8194 -1.8147
  633MOL0     H83556   0.596   6.013   5.818 -0.4229  0.4611  0.2398
  634MOL0     O83557   5.138   9.526  10.727  0.1850 -0.7047  0.8461
  634MOL0     C83558   5.171   9.644  10.758 -0.5944 -0.3125 -0.3575
  634MOL0     O83559   5.298   9.698  10.750  0.4516 -0.2795 -0.5165
  634MOL0     C83560   5.409   9.620  10.744  0.1955  0.2320 -0.0214
  634MOL0     C83561   5.499   9.617  10.851 -0.1431 -1.2207 -0.4736
  634MOL0     C83562   5.596   9.523  10.860 -0.0310 -0.5955 -0.5358
  634MOL0     C83563   5.620   9.426  10.753 -0.2756  0.2109  0.4497
  634MOL0     O83564   5.719   9.333  10.783 -0.1581  0.8579 -0.2149
  634MOL0     C83565   5.748   9.233  10.686 -0.9079  0.3512 -0.9910
  634MOL0     C83566   5.835   9.114  10.758  0.0974 -0.6110 -0.1509
  634MOL0     C83567   5.834   8.983  10.687 -0.1633  0.0285 -0.6484
  634MOL0     C83568   5.921   8.993  10.569 -0.0698 -0.4544  0.2816
  634MOL0     C83569   5.933   8.869  10.481  0.0709  0.3862  1.2833
  634MOL0     C83570   6.038   8.780  10.529 -0.1598 -0.1891  0.2809
  634MOL0     C83571   6.050   8.648  10.460 -0.6234 -0.7033 -0.8120
  634MOL0     C83572   6.077   8.532  10.561 -0.7085 -0.1414  0.5588
  634MOL0     N83573   5.955   8.463  10.613 -0.4656  1.1374  0.1509
  634MOL0     C83574   5.923   8.332  10.579 -0.5784 -0.2523 -0.4658
  634MOL0     C83575   5.801   8.316  10.644  0.0337 -0.2740 -0.2692
  634MOL0     C83576   5.717   8.189  10.628 -0.2872  0.3509 -0.5732
  634MOL0     C83577   5.736   8.093  10.745  0.1502  0.0652 -0.5873
  634MOL0     C83578   5.692   7.943  10.714  0.6852 -0.5876 -0.3611
  634MOL0     C83579   5.542   7.932  10.735 -0.6102 -0.5886 -0.4690
  634MOL0     O83580   5.496   7.960  10.872 -0.3123 -0.3441  0.1154
  634MOL0     C83581   5.368   7.942  10.906  0.2153 -0.2496  0.4270
  634MOL0     C83582   5.262   7.896  10.817  0.3522 -0.2412  0.5075
  634MOL0     C83583   5.130   7.887  10.875 -0.1132  0.1959 -0.5471
  634MOL0     C83584   5.100   7.911  11.016 -0.4318 -0.1618  1.0938
  634MOL0     C83585   4.965   7.897  11.074  0.4388 -0.6142  0.1121
  634MOL0     O83586   4.944   7.968  11.186 -0.3773 -0.4917 -0.5370
  634MOL0     C83587   4.815   7.990  11.233  0.0328 -0.6474 -0.2711
  634MOL0     C83588   4.760   8.122  11.228 -0.5086 -0.1957  0.1738
  634MOL0     C83589   4.633   8.159  11.277 -0.1096  0.1600  0.1828
  634MOL0     C83590   4.557   8.055  11.330 -0.8012 -0.0793  0.3865
  634MOL0     O83591   4.431   8.094  11.372 -0.4429  0.1408 -0.5214
  634MOL0     C83592   4.411   8.075  11.510  0.3826  0.1669 -0.8220
  634MOL0     C83593   4.311   8.184  11.548  0.3457  0.1950 -0.1839
  634MOL0     C83594   4.174   8.187  11.472 -0.4013 -0.4943  0.3339
  634MOL0     C83595   4.101   8.052  11.484  0.0270  0.5321  0.2174
  634MOL0     C83596   3.968   8.058  11.409 -0.5332 -0.0880 -0.6211
  634MOL0     C83597   3.891   7.926  11.440 -0.5678 -0.6475 -0.6918
  634MOL0     C83598   3.788   7.907  11.341 -0.1593  0.2631  0.4082
  634MOL0     C83599   3.658   7.991  11.357 -0.2457 -0.0530  1.0907
  634MOL0    Cl83600   3.552   7.916  11.480  0.2678  0.2016  0.4746
  634MOL0     C83601   4.609   7.921  11.326  0.2933 -0.2731  0.3889
  634MOL0     C83602   4.743   7.896  11.297 -0.8523  0.1541  1.0112
  634MOL0     O83603   4.879   7.842  10.999  0.2959 -0.2324  0.1145
  634MOL0     C83604   5.204   7.964  11.086 -0.1689 -0.4053  0.7456
  634MOL0     C83605   5.337   7.978  11.035 -0.8398  0.1411  0.2853
  634MOL0     N83606   5.769   8.435  10.703 -0.0356 -0.5490 -0.2501
  634MOL0     N83607   5.866   8.521  10.690  0.3257  0.0606 -0.2463
  634MOL0     C83608   5.541   9.441  10.639  0.0800 -0.5716  0.0681
  634MOL0     C83609   5.430   9.526  10.638 -0.3076 -0.6578 -0.2835
  634MOL0     C83610   5.066   9.738  10.794  0.2789  0.2155  0.1563
  634MOL0     C83611   5.096   9.865  10.837 -0.7459  0.3493 -0.6483
  634MOL0     C83612   4.987   9.952  10.868 -0.3492  0.3337  0.0103
  634MOL0     C83613   4.855   9.917  10.845  0.1158  0.6991 -0.3421
  634MOL0     O83614   4.748  10.002  10.864 -0.7317  0.2097  0.5443
  634MOL0     C83615   4.765  10.139  10.815  0.4676 -0.6553  0.2374
  634MOL0     C83616   4.658  10.235  10.875  0.5222  0.5010  0.0596
  634MOL0     C83617   4.516  10.182  10.864 -0.1715 -0.8386  0.0029
  634MOL0     C83618   4.422  10.278  10.935  0.0432 -0.8584 -0.2150
  634MOL0     C83619   4.281  10.258  10.886 -0.1948 -0.8703 -0.1612
  634MOL0     C83620   4.166  10.267  10.835  0.0303  0.6888 -0.1374
  634MOL0     C83621   4.823   9.789  10.799 -0.4435  0.2140  0.5757
  634MOL0     C83622   4.932   9.701  10.784  0.3856  0.6972 -0.8735
  634MOL0     H83623   5.477   9.686  10.932 -1.6010  3.0961 -4.1489
  634MOL0     H83624   5.651   9.513  10.953 -2.2079  0.5787  0.9604
  634MOL0     H83625   5.801   9.263  10.595  2.2778 -0.4194  0.4491
  634MOL0     H83626   5.656   9.191  10.645 -1.9470  0.7113  0.8592
  634MOL0     H83627   5.794   9.091  10.857  1.7069 -2.9006  0.0760
  634MOL0     H83628   5.938   9.148  10.761 -0.3173  0.6398  0.5956
  634MOL0     H83629   5.730   8.965  10.657 -1.7738  0.1897  4.0147
  634MOL0     H83630   5.866   8.896  10.747  0.1898  1.7149  1.7490
  634MOL0     H83631   5.868   9.063  10.504 -0.4374  0.9109  1.9768
  634MOL0     H83632   6.020   9.033  10.592 -0.8653  2.0205 -0.2569
  634MOL0     H83633   5.944   8.899  10.377 -2.6052 -3.2469 -0.2751
  634MOL0     H83634   5.840   8.811  10.478 -0.7670  1.7356  0.5889
  634MOL0     H83635   6.014   8.763  10.635 -3.4075 -0.1139 -0.3265
  634MOL0     H83636   6.139   8.821  10.526  0.2972 -1.3352 -2.0700
  634MOL0     H83637   5.953   8.619  10.418 -0.9205 -1.6032  0.4344
  634MOL0     H83638   6.135   8.654  10.391  3.1212 -1.9039  3.2473
  634MOL0     H83639   6.139   8.562  10.646 -2.1001  0.9944  1.1973
  634MOL0     H83640   6.138   8.451  10.519  0.8862  0.5641  1.4254
  634MOL0     H83641   5.987   8.273  10.514  3.1503  2.5701  0.2929
  634MOL0     H83642   5.719   8.151  10.526  0.0319  0.6125 -0.6670
  634MOL0     H83643   5.614   8.223  10.637 -0.3229  0.3205 -0.8624
  634MOL0     H83644   5.699   8.129  10.841 -0.2533 -0.6711 -0.4570
  634MOL0     H83645   5.841   8.082  10.773  0.1888  0.6776 -0.4959
  634MOL0     H83646   5.718   7.922  10.610 -1.1730  0.0810 -0.9936
  634MOL0     H83647   5.753   7.882  10.782  1.7842 -0.1504 -0.9171
  634MOL0     H83648   5.513   7.827  10.726  0.8074 -0.8800 -2.1175
  634MOL0     H83649   5.481   7.996  10.670  0.4545 -0.1837 -1.0916
  634MOL0     H83650   5.273   7.861  10.715  0.7788  0.7235  0.2125
  634MOL0     H83651   5.048   7.859  10.809 -0.3774  1.3963 -0.7378
  634MOL0     H83652   4.808   8.208  11.182  0.6685 -1.5208 -1.1611
  634MOL0     H83653   4.602   8.263  11.272  0.3463  0.3877  1.6181
  634MOL0     H83654   4.500   8.079  11.574  0.4679 -1.2219 -0.8329
  634MOL0     H83655   4.373   7.975  11.531  3.9505 -0.8356  1.6839
  634MOL0     H83656   4.361   8.281  11.539  2.6246 -0.7534  1.2117
  634MOL0     H83657   4.280   8.174  11.652 -1.7222  0.0982 -0.7643
  634MOL0     H83658   4.189   8.210  11.366  0.3672 -0.4763  0.4396
  634MOL0     H83659   4.113   8.266  11.516 -1.0043 -0.2819 -0.8603
  634MOL0     H83660   4.160   7.973  11.437 -1.7105 -1.4163  1.1537
  634MOL0     H83661   4.088   8.036  11.591 -0.9190  0.6315  0.1332
  634MOL0     H83662   3.986   8.082  11.304  0.2642  0.5030 -0.3560
  634MOL0     H83663   3.909   8.142  11.448  1.2303  0.2974  1.4539
  634MOL0     H83664   3.853   7.926  11.542  0.3926 -4.4869 -0.1694
  634MOL0     H83665   3.950   7.834  11.439 -1.1764 -1.0483 -0.7248
  634MOL0     H83666   3.831   7.921  11.242  2.6222  0.7573  1.6008
  634MOL0     H83667   3.769   7.799  11.345 -1.8495  0.5213  0.1012
  634MOL0     H83668   3.613   7.992  11.258 -0.3635 -1.1701  1.1203
  634MOL0     H83669   3.691   8.092  11.384  0.9587  0.4007 -1.7865
  634MOL0     H83670   4.555   7.833  11.358  2.7129 -1.7913  0.6125
  634MOL0     H83671   4.791   7.800  11.291 -1.3049 -0.0204 -0.1945
  634MOL0     H83672   5.199   7.989  11.191  1.6437 -0.0945  0.7826
  634MOL0     H83673   5.411   8.016  11.104 -1.1907  1.1855  0.1101
  634MOL0     H83674   5.560   9.385  10.548  1.8341 -0.2638  0.2041
  634MOL0     H83675   5.386   9.540  10.540  0.2480 -1.5142 -0.6625
  634MOL0     H83676   5.192   9.914  10.847  0.2627 -1.8598  1.7632
  634MOL0     H83677   4.998  10.046  10.920 -2.1875  1.0221 -0.7330
  634MOL0     H83678   4.754  10.132  10.706 -1.2823  1.1547  0.2453
  634MOL0     H83679   4.863  10.184  10.829  0.1525  1.8048 -3.7971
  634MOL0     H83680   4.683  10.251  10.981  3.7019 -1.7909 -0.2047
  634MOL0     H83681   4.664  10.327  10.817  3.1712 -0.5162 -1.4414
  634MOL0     H83682   4.510  10.080  10.904  1.4478 -0.8211  0.3834
  634MOL0     H83683   4.486  10.171  10.760  1.6738 -1.4976 -0.5089
  634MOL0     H83684   4.421  10.271  11.045  3.5787 -2.1872 -0.1118
  634MOL0     H83685   4.444  10.382  10.908  0.2908 -1.0660 -0.8151
  634MOL0     H83686   4.073  10.273  10.783 -2.0368  0.5065  3.2661
  634MOL0     H83687   4.725   9.743  10.793 -1.1788  1.4115  2.4466
  634MOL0     H83688   4.912   9.601  10.748 -1.8873  0.6382  0.3398
  635MOL0     O83689   3.822   3.738  10.021 -0.6987 -0.8883  0.3149
  635MOL0     C83690   3.882   3.681   9.932 -0.0142 -0.1938  0.7108
  635MOL0     O83691   3.996   3.607   9.945  0.0827 -0.3381  0.3157
  635MOL0     C83692   4.040   3.585  10.075  0.1808  0.0321 -0.0465
  635MOL0     C83693   4.098   3.688  10.152  0.3345 -0.0889 -0.0092
  635MOL0     C83694   4.146   3.654  10.274 -0.2565 -0.1189  0.0412
  635MOL0     C83695   4.147   3.522  10.328  0.2002 -0.5390  0.1488
  635MOL0     O83696   4.190   3.491  10.453  0.1476  0.1343  0.4562
  635MOL0     C83697   4.226   3.601  10.539 -0.5727  0.1661  0.3687
  635MOL0     C83698   4.267   3.537  10.678 -0.3665  0.7470 -1.2670
  635MOL0     C83699   4.250   3.620  10.807  0.3335  0.1751  0.2208
  635MOL0     C83700   4.301   3.560  10.934  0.1130 -0.4601 -0.7612
  635MOL0     C83701   4.251   3.625  11.063  1.1029  0.9682 -0.3499
  635MOL0     C83702   4.327   3.579  11.190 -0.0216  0.3051  0.8111
  635MOL0     C83703   4.305   3.431  11.221  0.3928  0.5633 -0.2995
  635MOL0     C83704   4.327   3.396  11.368  1.0212  0.1640 -0.7667
  635MOL0     N83705   4.470   3.355  11.394  0.2584 -0.3398  0.0795
  635MOL0     C83706   4.583   3.436  11.401 -0.4770  1.0963  0.0895
  635MOL0     C83707   4.695   3.355  11.432 -0.5073 -0.5879  0.4179
  635MOL0     C83708   4.840   3.397  11.438 -0.7529  0.6133  0.1172
  635MOL0     C83709   4.857   3.553  11.447 -0.3885  1.0923  0.1594
  635MOL0     C83710   4.811   3.606  11.580 -0.4546 -1.6589  0.6083
  635MOL0     C83711   4.880   3.741  11.613  0.1877 -0.4469  0.3167
  635MOL0     O83712   4.819   3.800  11.729  1.2396 -0.9039 -0.7507
  635MOL0     C83713   4.882   3.907  11.798 -0.3961 -0.3679  0.0386
  635MOL0     C83714   4.836   3.928  11.919  0.1441 -0.6252  0.8529
  635MOL0     C83715   4.882   4.036  11.990 -0.6153 -0.5015 -0.1354
  635MOL0     C83716   4.980   4.120  11.939 -0.1613  0.2575 -0.4896
  635MOL0     C83717   5.032   4.239  12.005  0.0820  0.1950  0.1334
  635MOL0     O83718   4.993   4.253  12.133 -0.4596  0.2432  0.1772
  635MOL0     C83719   5.062   4.332  12.227  0.6888 -1.1968 -0.2391
  635MOL0     C83720   5.199   4.371  12.219  0.4358  0.0882  0.2537
  635MOL0     C83721   5.260   4.433  12.332 -0.2041  0.5514  0.8301
  635MOL0     C83722   5.181   4.485  12.436  0.2084 -0.1472  1.1289
  635MOL0     O83723   5.235   4.564  12.535 -0.0612  0.8758 -0.6092
  635MOL0     C83724   5.232   4.702  12.497 -0.4944 -0.0502  0.8822
  635MOL0     C83725   5.239   4.797  12.616 -0.3206  1.2913 -0.2157
  635MOL0     C83726   5.339   4.755  12.722 -0.4137  0.4453  0.5056
  635MOL0     C83727   5.491   4.773  12.682 -0.3610 -0.3199 -0.6626
  635MOL0     C83728   5.592   4.685  12.763  0.2627  0.1570 -0.0003
  635MOL0     C83729   5.581   4.534  12.723 -0.0530 -0.1448  0.0281
  635MOL0     C83730   5.699   4.458  12.783 -0.3598 -0.2365 -0.2149
  635MOL0     C83731   5.706   4.306  12.751 -0.8263 -1.3465 -0.0103
  635MOL0    Cl83732   5.673   4.284  12.569 -0.7971 -0.3549  0.2611
  635MOL0     C83733   5.049   4.446  12.445  0.2716 -0.3168 -0.5261
  635MOL0     C83734   4.986   4.378  12.339 -0.4043 -0.5029  0.8089
  635MOL0     O83735   5.103   4.317  11.950  0.4149 -0.3746  0.4408
  635MOL0     C83736   5.028   4.084  11.814 -0.0167 -0.5519  0.3984
  635MOL0     C83737   4.976   3.981  11.734 -0.1846 -0.9249 -0.2083
  635MOL0     N83738   4.645   3.225  11.450  0.2537 -0.1389 -1.2998
  635MOL0     N83739   4.519   3.230  11.439  0.6345  0.0016 -0.3741
  635MOL0     C83740   4.086   3.425  10.252  0.6473  0.2359  0.3572
  635MOL0     C83741   4.033   3.453  10.123 -0.7924  0.4641 -0.1099
  635MOL0     C83742   3.811   3.699   9.808  0.1415  0.6970 -0.2849
  635MOL0     C83743   3.673   3.722   9.810  0.2678  1.0403  0.1737
  635MOL0     C83744   3.616   3.754   9.682 -0.2711 -0.3406 -0.3561
  635MOL0     C83745   3.686   3.747   9.560 -0.0200  0.1730  0.6364
  635MOL0     O83746   3.613   3.763   9.448  0.2630 -0.8078  0.6588
  635MOL0     C83747   3.680   3.729   9.320 -0.6653  0.3529  0.4127
  635MOL0     C83748   3.575   3.710   9.216  0.2806  0.7802  0.6683
  635MOL0     C83749   3.650   3.702   9.073 -0.4239  0.3597 -0.9748
  635MOL0     C83750   3.537   3.718   8.962 -0.5697  0.7493  0.1979
  635MOL0     C83751   3.584   3.642   8.844 -1.2549 -0.6252  0.8455
  635MOL0     C83752   3.637   3.613   8.735 -0.5335  0.5939  0.6484
  635MOL0     C83753   3.822   3.720   9.562  0.1149 -0.4061 -0.4153
  635MOL0     C83754   3.881   3.699   9.687 -0.0182  0.2500 -0.4386
  635MOL0     H83755   4.122   3.786  10.112 -0.7927  0.8416  1.4695
  635MOL0     H83756   4.189   3.731  10.336 -0.9740  1.5792 -1.4662
  635MOL0     H83757   4.139   3.665  10.553 -0.7097 -0.1956  1.3213
  635MOL0     H83758   4.308   3.644  10.482  0.8543 -1.8804  0.7370
  635MOL0     H83759   4.370   3.502  10.684 -0.4482  0.7218  0.3581
  635MOL0     H83760   4.205   3.448  10.695 -1.5731  1.6880 -0.6094
  635MOL0     H83761   4.143   3.631  10.826  0.2103 -0.0648 -0.2980
  635MOL0     H83762   4.296   3.717  10.788  3.0808 -1.0950 -0.1013
  635MOL0     H83763   4.269   3.456  10.933 -3.1076  0.3856  0.7228
  635MOL0     H83764   4.410   3.567  10.941 -0.1024  2.9699  1.8634
  635MOL0     H83765   4.143   3.607  11.072  1.4720 -1.8778 -0.6067
  635MOL0     H83766   4.265   3.733  11.058 -0.1371  1.3455  2.5282
  635MOL0     H83767   4.302   3.637  11.280 -1.5510 -2.2358  2.1501
  635MOL0     H83768   4.434   3.587  11.168  0.2523 -3.9984 -0.2986
  635MOL0     H83769   4.200   3.407  11.200 -0.8354  4.1291  1.1295
  635MOL0     H83770   4.357   3.369  11.147 -2.0156  0.5046 -2.0757
  635MOL0     H83771   4.267   3.310  11.397  1.8440 -0.4465 -0.8197
  635MOL0     H83772   4.301   3.483  11.429 -0.1731 -0.7101 -0.0047
  635MOL0     H83773   4.583   3.541  11.370  3.4931  0.7320 -1.7899
  635MOL0     H83774   4.886   3.360  11.346 -1.6620 -0.2916  0.0128
  635MOL0     H83775   4.896   3.347  11.517 -0.6864 -0.7320 -0.7425
  635MOL0     H83776   4.808   3.596  11.360  1.1729  0.3112 -1.1579
  635MOL0     H83777   4.964   3.575  11.441 -0.3246  0.5601 -0.7105
  635MOL0     H83778   4.709   3.640  11.563  1.1491  2.7122 -1.9236
  635MOL0     H83779   4.826   3.539  11.665  1.2539 -1.3576  0.5918
  635MOL0     H83780   4.866   3.805  11.525 -0.5789  1.3061  1.6635
  635MOL0     H83781   4.984   3.729  11.646  0.4325 -1.7767 -0.8574
  635MOL0     H83782   4.764   3.859  11.960 -3.1835  1.9790 -0.1345
  635MOL0     H83783   4.839   4.049  12.089 -1.7726 -0.9351 -0.5680
  635MOL0     H83784   5.263   4.334  12.139  1.5163 -2.6624  2.2206
  635MOL0     H83785   5.364   4.461  12.320  0.0622 -0.7623 -0.1880
  635MOL0     H83786   5.141   4.727  12.441 -0.2753 -0.1062  0.4994
  635MOL0     H83787   5.315   4.716  12.427 -1.6512  1.0393 -0.3387
  635MOL0     H83788   5.141   4.807  12.663  0.8278 -0.1937  2.7358
  635MOL0     H83789   5.270   4.895  12.580 -0.4663  0.1481 -3.8875
  635MOL0     H83790   5.336   4.652  12.759 -1.1444  0.3366  0.1568
  635MOL0     H83791   5.310   4.803  12.816 -3.3501  0.7663 -0.4702
  635MOL0     H83792   5.504   4.751  12.576 -2.3828  1.0406 -1.2639
  635MOL0     H83793   5.517   4.879  12.690  1.9565 -0.9571  1.3212
  635MOL0     H83794   5.572   4.706  12.868 -2.7748 -0.4700 -0.3775
  635MOL0     H83795   5.696   4.719  12.749  0.8125 -2.1368 -1.9983
  635MOL0     H83796   5.575   4.523  12.614  0.2734 -1.0897  0.0936
  635MOL0     H83797   5.490   4.484  12.758  2.2005 -2.4162  3.2521
  635MOL0     H83798   5.789   4.499  12.736  0.7374 -0.8199  1.3003
  635MOL0     H83799   5.709   4.475  12.891 -0.3457  0.6660 -0.3505
  635MOL0     H83800   5.629   4.259  12.814 -0.5820 -1.0527  0.5142
  635MOL0     H83801   5.800   4.255  12.771 -1.0987 -1.3587  1.3267
  635MOL0     H83802   4.990   4.461  12.535 -1.8165 -2.8360 -1.3350
  635MOL0     H83803   4.882   4.350  12.349 -0.5204 -1.6618 -2.4356
  635MOL0     H83804   5.102   4.152  11.772 -1.0110  1.5663  1.9395
  635MOL0     H83805   5.008   3.963  11.632  2.5820  1.4757  0.1167
  635MOL0     H83806   4.080   3.323  10.289 -0.8463 -0.1005 -0.7092
  635MOL0     H83807   3.996   3.380  10.052 -3.2682 -0.1505  1.6944
  635MOL0     H83808   3.613   3.737   9.899 -2.5533 -1.5836 -1.0775
  635MOL0     H83809   3.511   3.781   9.679 -0.5737 -1.3932 -3.9422
  635MOL0     H83810   3.732   3.634   9.331 -1.3517 -0.0107  0.5944
  635MOL0     H83811   3.749   3.806   9.285  0.2612 -2.0040 -3.4822
  635MOL0     H83812   3.512   3.623   9.235 -0.6215  1.5162  1.1518
  635MOL0     H83813   3.506   3.795   9.212 -1.2225 -0.3487  1.4501
  635MOL0     H83814   3.700   3.605   9.073 -3.0582 -1.0993 -2.3033
  635MOL0     H83815   3.723   3.780   9.049  0.8086  0.4715  2.5182
  635MOL0     H83816   3.442   3.685   9.003 -0.8860 -0.0627 -1.1180
  635MOL0     H83817   3.533   3.821   8.926  0.7005  0.3663 -1.1828
  635MOL0     H83818   3.660   3.582   8.635 -2.3090  1.0659  0.0608
  635MOL0     H83819   3.896   3.710   9.483  2.4030 -2.9713  1.8337
  635MOL0     H83820   3.988   3.682   9.681 -0.1553 -0.7715 -0.2096
  636MOL0     O83821   1.645  10.064   4.017 -0.2177  0.7427 -0.0664
  636MOL0     C83822   1.554  10.038   3.945  0.5730  0.0284  0.3312
  636MOL0     O83823   1.561  10.012   3.805  0.5036  0.0075  0.3150
  636MOL0     C83824   1.684  10.018   3.741  0.0915 -0.7405 -0.1512
  636MOL0     C83825   1.691  10.028   3.599  0.1361  0.2549  0.8927
  636MOL0     C83826   1.817  10.046   3.531  0.4140  0.3794 -0.4607
  636MOL0     C83827   1.941  10.026   3.600  0.7194 -0.9373 -0.4127
  636MOL0     O83828   2.065  10.043   3.546 -1.0199 -0.0471  0.2345
  636MOL0     C83829   2.072  10.030   3.400 -0.6196 -0.7269  0.3916
  636MOL0     C83830   2.226  10.025   3.374  0.3504  0.4609  0.7005
  636MOL0     C83831   2.257   9.972   3.236 -0.0872 -0.7590  0.1322
  636MOL0     C83832   2.400   9.997   3.206  0.5726 -0.4254  0.4389
  636MOL0     C83833   2.431   9.907   3.080  0.8750  0.2536 -0.5686
  636MOL0     C83834   2.572   9.930   3.027 -0.6053 -0.1951  0.1739
  636MOL0     C83835   2.614   9.827   2.922  0.6254 -0.3572  0.1964
  636MOL0     C83836   2.724   9.874   2.822 -0.8871  0.2279  0.3293
  636MOL0     N83837   2.762   9.781   2.711 -0.0065  0.0257 -0.5145
  636MOL0     C83838   2.679   9.681   2.666  0.0888  0.4399  0.2363
  636MOL0     C83839   2.758   9.581   2.624  0.3700 -0.1649  0.7165
  636MOL0     C83840   2.725   9.439   2.592  0.6114 -0.0368 -0.5946
  636MOL0     C83841   2.654   9.372   2.717 -0.0404 -0.8596  0.5284
  636MOL0     C83842   2.598   9.226   2.676 -0.4364  0.3613 -0.0723
  636MOL0     C83843   2.483   9.181   2.764 -0.2770  0.1697  0.2310
  636MOL0     O83844   2.350   9.226   2.739 -0.2901  0.2180  0.0296
  636MOL0     C83845   2.285   9.178   2.628 -0.5182  0.1015 -0.1003
  636MOL0     C83846   2.299   9.048   2.582  0.0658  0.2990  0.7067
  636MOL0     C83847   2.236   9.005   2.466 -0.3691  0.1035  0.6517
  636MOL0     C83848   2.166   9.097   2.387  0.4520 -0.2975 -0.8314
  636MOL0     C83849   2.096   9.048   2.265 -0.4864 -0.0954 -0.1878
  636MOL0     O83850   2.137   8.918   2.232  1.2512  0.2693  1.1349
  636MOL0     C83851   2.075   8.861   2.121  1.1132  0.0002 -0.5008
  636MOL0     C83852   2.067   8.921   2.003 -0.5590 -0.3605  0.1575
  636MOL0     C83853   1.992   8.862   1.904 -0.4480  0.2620  0.7440
  636MOL0     C83854   1.915   8.749   1.923  0.0771 -0.4045  0.4122
  636MOL0     O83855   1.848   8.684   1.826 -0.3093  0.4870  0.3324
  636MOL0     C83856   1.914   8.579   1.761 -0.4356  0.4615 -0.4928
  636MOL0     C83857   1.819   8.475   1.708  0.1648  0.3410 -0.3836
  636MOL0     C83858   1.737   8.400   1.816 -0.4635 -0.7993  0.3939
  636MOL0     C83859   1.650   8.288   1.760  0.3494  0.7102 -0.1775
  636MOL0     C83860   1.541   8.238   1.858  0.4678  0.1818  0.0849
  636MOL0     C83861   1.425   8.164   1.778  0.4042  0.2893  0.4445
  636MOL0     C83862   1.319   8.101   1.873 -0.3502  0.1055 -0.5912
  636MOL0     C83863   1.199   8.049   1.791 -0.2971  0.3524 -0.6342
  636MOL0    Cl83864   1.250   7.968   1.648 -0.2478 -0.0527  0.1165
  636MOL0     C83865   1.919   8.698   2.050  0.6167 -0.3435  0.4656
  636MOL0     C83866   1.993   8.749   2.154  0.2528 -0.3328 -0.2908
  636MOL0     O83867   2.011   9.115   2.214 -0.6244 -0.7543 -0.4143
  636MOL0     C83868   2.164   9.233   2.426 -0.2780  0.7598  0.3002
  636MOL0     C83869   2.223   9.271   2.550 -0.4049 -0.4779  0.0277
  636MOL0     N83870   2.891   9.621   2.641 -0.0261 -1.0793 -0.0390
  636MOL0     N83871   2.887   9.742   2.689 -0.6006  1.1334  0.1466
  636MOL0     C83872   1.935  10.009   3.737  0.2223  0.4181  0.6907
  636MOL0     C83873   1.814   9.995   3.810  0.2737  1.0478  0.0170
  636MOL0     C83874   1.429  10.033   4.009  0.3154  0.4561  0.1410
  636MOL0     C83875   1.380  10.126   4.108  0.3744  0.9513  0.2761
  636MOL0     C83876   1.252  10.108   4.158  0.3344 -0.3583 -0.4752
  636MOL0     C83877   1.172   9.999   4.123 -0.6692 -0.0777 -0.1935
  636MOL0     O83878   1.043   9.999   4.166  0.2899 -0.1180  0.2529
  636MOL0     C83879   0.930   9.961   4.093  0.3931 -0.2356  0.6377
  636MOL0     C83880   0.826  10.075   4.078  0.3098  0.2519 -0.3839
  636MOL0     C83881   0.874  10.194   3.994 -0.4758 -0.1845  0.2630
  636MOL0     C83882   0.767  10.299   3.964 -0.1914  0.3813 -0.6453
  636MOL0     C83883   0.700  10.265   3.837 -0.5927 -0.6028  0.3970
  636MOL0     C83884   0.641  10.241   3.728 -0.0400  0.2620  0.3654
  636MOL0     C83885   1.220   9.900   4.035 -1.8952  0.5619 -1.3881
  636MOL0     C83886   1.348   9.922   3.981 -1.0318 -0.1645 -0.7899
  636MOL0     H83887   1.601  10.032   3.539  1.0032 -0.6451 -0.5250
  636MOL0     H83888   1.810  10.070   3.425  1.1431  2.9091 -0.0024
  636MOL0     H83889   2.027  10.118   3.354 -0.2521  0.7161  2.6258
  636MOL0     H83890   2.037   9.930   3.373  2.0365 -1.8667  0.8111
  636MOL0     H83891   2.276   9.960   3.446 -1.4336 -0.9617  0.7186
  636MOL0     H83892   2.271  10.125   3.383 -1.6626  1.3187  1.7936
  636MOL0     H83893   2.191  10.019   3.162  0.3855  2.5320  1.5849
  636MOL0     H83894   2.237   9.865   3.237  1.7246 -1.1654  2.2069
  636MOL0     H83895   2.421  10.102   3.180 -0.9280 -0.9156 -3.4716
  636MOL0     H83896   2.459   9.967   3.293  1.1184  0.3285  0.3423
  636MOL0     H83897   2.366   9.931   2.996  0.9111  3.2147  0.1461
  636MOL0     H83898   2.426   9.802   3.111 -1.8383  0.1703 -1.0242
  636MOL0     H83899   2.641   9.927   3.112 -0.7131  5.2856  0.8210
  636MOL0     H83900   2.570  10.029   2.981 -3.4177 -0.4331 -0.3844
  636MOL0     H83901   2.646   9.732   2.966  3.8380  0.3022 -0.4651
  636MOL0     H83902   2.526   9.799   2.864  0.3951  2.2503 -0.8719
  636MOL0     H83903   2.817   9.889   2.877 -2.2321  2.1779  2.2457
  636MOL0     H83904   2.704   9.968   2.769  2.6942  0.7168 -0.4080
  636MOL0     H83905   2.571   9.682   2.679  0.3404  1.3704  2.5543
  636MOL0     H83906   2.804   9.372   2.558 -0.2404 -0.8906 -0.9420
  636MOL0     H83907   2.664   9.442   2.501 -1.3069 -2.6309  0.4805
  636MOL0     H83908   2.571   9.430   2.757  0.6471 -0.4199  1.3514
  636MOL0     H83909   2.733   9.376   2.793 -0.8201 -0.2294  1.3172
  636MOL0     H83910   2.568   9.227   2.571  0.3738 -0.7309 -0.3320
  636MOL0     H83911   2.680   9.153   2.679 -2.5773 -2.1078  1.5424
  636MOL0     H83912   2.506   9.226   2.861 -1.0798  2.1363 -0.4356
  636MOL0     H83913   2.504   9.074   2.762  2.5252  0.6396 -0.2114
  636MOL0     H83914   2.355   8.986   2.651 -1.0318  0.3116  1.6435
  636MOL0     H83915   2.255   8.902   2.440  2.3446  1.0007 -1.3913
  636MOL0     H83916   2.108   9.018   1.977 -2.0281  0.3436  0.3209
  636MOL0     H83917   1.979   8.894   1.801 -1.3050 -2.3716 -0.0387
  636MOL0     H83918   1.979   8.525   1.831 -0.5834 -2.3231 -2.3222
  636MOL0     H83919   1.986   8.625   1.693 -0.1153  1.6413  0.6084
  636MOL0     H83920   1.871   8.399   1.650  0.0950  1.2392 -1.6735
  636MOL0     H83921   1.750   8.526   1.640  1.6380  2.5426 -0.3487
  636MOL0     H83922   1.669   8.469   1.867  0.7876  0.5335  0.3172
  636MOL0     H83923   1.809   8.363   1.891  1.8175 -0.4407 -1.5039
  636MOL0     H83924   1.606   8.328   1.668  0.5006  2.1936  0.3759
  636MOL0     H83925   1.707   8.199   1.732  2.2756  1.7184  0.3139
  636MOL0     H83926   1.502   8.329   1.906 -2.3492  0.8972 -3.2097
  636MOL0     H83927   1.585   8.171   1.933  2.3159 -0.1203 -1.1858
  636MOL0     H83928   1.471   8.085   1.717 -0.1795  2.0462 -2.5074
  636MOL0     H83929   1.379   8.234   1.707  0.8472  1.9242  1.7242
  636MOL0     H83930   1.368   8.022   1.932  2.7411  1.0574 -1.6547
  636MOL0     H83931   1.286   8.181   1.939 -0.8083 -0.2477 -0.3920
  636MOL0     H83932   1.148   8.132   1.742 -1.8137 -1.2920 -1.9609
  636MOL0     H83933   1.137   7.986   1.856  1.9903  0.2157  1.5805
  636MOL0     H83934   1.861   8.606   2.051  0.0505 -0.0154 -0.7169
  636MOL0     H83935   1.993   8.702   2.251 -1.0229  2.4992  1.1951
  636MOL0     H83936   2.117   9.312   2.367 -2.0656 -1.6116 -1.6394
  636MOL0     H83937   2.218   9.371   2.590 -0.8760 -0.8574  0.9418
  636MOL0     H83938   2.033  10.007   3.785  1.7789  2.7065 -2.0792
  636MOL0     H83939   1.810   9.961   3.913  0.5205  0.9919  0.0105
  636MOL0     H83940   1.450  10.207   4.127  1.1481  0.3182  0.2141
  636MOL0     H83941   1.209  10.187   4.218 -1.5014 -0.6378 -1.3472
  636MOL0     H83942   0.887   9.876   4.146  0.2982  0.9011  2.4425
  636MOL0     H83943   0.949   9.925   3.991 -1.3949  0.2646  0.0773
  636MOL0     H83944   0.743  10.026   4.026  0.4085 -0.1601 -0.1558
  636MOL0     H83945   0.791  10.098   4.179 -0.6528  1.1027 -0.8826
  636MOL0     H83946   0.923  10.165   3.901  0.5140 -1.8354  1.2566
  636MOL0     H83947   0.945  10.248   4.057 -0.0077 -1.4611  0.8723
  636MOL0     H83948   0.699  10.292   4.049 -1.2359  1.1079 -1.3945
  636MOL0     H83949   0.809  10.400   3.959  0.6399  0.2110  1.7604
  636MOL0     H83950   0.587  10.209   3.641  2.1154 -2.2380 -0.1796
  636MOL0     H83951   1.172   9.805   4.011 -0.9509 -0.6571  1.1463
  636MOL0     H83952   1.380   9.847   3.910  0.1549  0.5054 -0.9858
  637MOL0     O83953   4.099   8.991   4.105  0.3575 -0.6173  0.2977
  637MOL0     C83954   4.130   8.964   3.990  0.3319  0.3063  0.2287
  637MOL0     O83955   4.052   8.880   3.909  0.0846  0.3581 -0.5226
  637MOL0     C83956   3.949   8.809   3.960  1.0215 -0.5656  0.2539
  637MOL0     C83957   3.821   8.864   3.959  0.1401  0.1089 -0.3084
  637MOL0     C83958   3.714   8.792   4.022 -0.3854 -0.9477 -0.1006
  637MOL0     C83959   3.734   8.672   4.085  0.1547 -1.2679  0.6084
  637MOL0     O83960   3.643   8.613   4.161  0.6091 -0.2470 -0.1151
  637MOL0     C83961   3.619   8.667   4.289 -0.3567  0.0190 -1.0381
  637MOL0     C83962   3.611   8.563   4.402  0.0602  0.0028 -0.0125
  637MOL0     C83963   3.479   8.483   4.392  0.3766  0.0351 -0.0969
  637MOL0     C83964   3.475   8.373   4.489  0.2938  0.2900 -0.3851
  637MOL0     C83965   3.531   8.403   4.639 -0.3662 -0.3961  0.7045
  637MOL0     C83966   3.505   8.283   4.729 -1.1048 -0.2279  0.5628
  637MOL0     C83967   3.493   8.335   4.881 -0.3556 -0.1802  0.9053
  637MOL0     C83968   3.553   8.243   4.989 -0.4291  0.2010 -0.2095
  637MOL0     N83969   3.486   8.117   5.010  0.4000 -1.3592 -0.3343
  637MOL0     C83970   3.359   8.081   4.977  0.2440 -0.4697 -0.5988
  637MOL0     C83971   3.365   7.942   4.985  0.7751 -0.1824  0.1212
  637MOL0     C83972   3.252   7.843   4.959 -0.2793  0.8123 -0.6766
  637MOL0     C83973   3.200   7.852   4.818  0.0090  0.0606  0.6400
  637MOL0     C83974   3.303   7.790   4.716  1.0599  0.0820  0.7433
  637MOL0     C83975   3.251   7.808   4.569  0.2115 -0.2732  0.6638
  637MOL0     O83976   3.351   7.755   4.478  0.4977 -0.3549 -0.5378
  637MOL0     C83977   3.355   7.627   4.421  0.2604  0.1647  0.0956
  637MOL0     C83978   3.424   7.597   4.305 -0.4443 -0.4731  0.4102
  637MOL0     C83979   3.413   7.466   4.245 -0.0936  0.0258 -0.5245
  637MOL0     C83980   3.343   7.368   4.314  0.1522  0.0410 -0.1157
  637MOL0     C83981   3.316   7.239   4.250 -0.2106 -0.0778 -0.8045
  637MOL0     O83982   3.428   7.190   4.184 -0.3697  0.1385  0.5319
  637MOL0     C83983   3.412   7.061   4.136  0.4817 -0.4555 -0.7089
  637MOL0     C83984   3.338   7.048   4.017 -0.0247  0.4072 -0.3577
  637MOL0     C83985   3.320   6.919   3.974  0.2999 -0.8578 -0.4074
  637MOL0     C83986   3.390   6.816   4.029 -0.5310  0.2614 -0.4349
  637MOL0     O83987   3.385   6.697   3.956  0.0189 -0.0317 -0.0495
  637MOL0     C83988   3.437   6.575   4.014  0.0425 -0.2416  0.0738
  637MOL0     C83989   3.332   6.524   4.112 -0.4130 -0.3521 -0.3445
  637MOL0     C83990   3.192   6.500   4.043  0.1231 -0.3027  0.7329
  637MOL0     C83991   3.118   6.401   4.129 -0.7009 -0.1834 -0.8419
  637MOL0     C83992   2.983   6.366   4.073 -0.1763 -1.1333  0.4022
  637MOL0     C83993   2.911   6.263   4.166 -0.6223 -0.4915 -0.4483
  637MOL0     C83994   2.755   6.265   4.155  0.0342 -0.3099  0.5285
  637MOL0     C83995   2.692   6.156   4.224 -1.2535  0.8831 -0.1333
  637MOL0    Cl83996   2.528   6.126   4.174 -0.1067 -0.0040  0.6472
  637MOL0     C83997   3.469   6.837   4.141 -0.1385 -0.4358 -0.3967
  637MOL0     C83998   3.477   6.961   4.198  0.3604  0.2993  0.0650
  637MOL0     O83999   3.211   7.179   4.277 -0.2236  0.9260 -0.9205
  637MOL0     C84000   3.291   7.393   4.442  1.2511 -0.4128  0.9959
  637MOL0     C84001   3.294   7.524   4.492 -0.4394  0.2781  0.3209
  637MOL0     N84002   3.491   7.900   5.026  0.1163  0.0568  0.9482
  637MOL0     N84003   3.555   8.010   5.054  0.7217  0.0084 -0.5583
  637MOL0     C84004   3.866   8.625   4.096  0.1611  0.3357  0.6092
  637MOL0     C84005   3.971   8.689   4.024  0.8182 -0.0252  0.0871
  637MOL0     C84006   4.263   9.011   3.942  0.2053  0.0134 -0.8663
  637MOL0     C84007   4.352   9.078   4.026 -0.1692  0.5271 -0.3129
  637MOL0     C84008   4.464   9.146   3.973  0.9712  0.5448  0.7615
  637MOL0     C84009   4.508   9.132   3.843 -0.6373  0.0357  0.0370
  637MOL0     O84010   4.607   9.217   3.794  0.0930  0.0315  0.0208
  637MOL0     C84011   4.692   9.156   3.692  0.6052  0.3446  0.6561
  637MOL0     C84012   4.830   9.216   3.722  0.3519  0.6074  0.0536
  637MOL0     C84013   4.888   9.265   3.588 -0.5183 -0.7155 -0.4009
  637MOL0     C84014   5.033   9.304   3.608 -0.0660 -0.2161 -0.1819
  637MOL0     C84015   5.085   9.379   3.493  0.4472  0.3295  0.1652
  637MOL0     C84016   5.134   9.436   3.394  1.0664  0.0156  0.9864
  637MOL0     C84017   4.429   9.058   3.759  0.4330  0.4418  0.1198
  637MOL0     C84018   4.310   8.987   3.805  1.0757 -0.5276 -0.2406
  637MOL0     H84019   3.795   8.965   3.929  5.0541  2.7438  2.9444
  637MOL0     H84020   3.614   8.834   4.013  0.2802  0.7018 -0.0456
  637MOL0     H84021   3.530   8.731   4.282 -1.0655 -0.5264  1.8336
  637MOL0     H84022   3.698   8.736   4.320  2.3993 -3.2608 -0.2023
  637MOL0     H84023   3.621   8.595   4.506 -0.5935 -2.9036  1.0555
  637MOL0     H84024   3.691   8.490   4.392 -0.8995 -1.0022 -0.6380
  637MOL0     H84025   3.459   8.440   4.293  0.5680  1.4598 -0.7862
  637MOL0     H84026   3.386   8.537   4.415  0.8557  0.2804  1.3154
  637MOL0     H84027   3.379   8.320   4.491  0.9110 -0.9483 -1.7608
  637MOL0     H84028   3.548   8.300   4.453  0.1600 -1.1900  2.1385
  637MOL0     H84029   3.480   8.497   4.663 -0.9713  1.0959 -4.8832
  637MOL0     H84030   3.636   8.431   4.639 -0.8137  1.5797 -1.0961
  637MOL0     H84031   3.589   8.214   4.729  0.1865  1.2556  2.1704
  637MOL0     H84032   3.419   8.219   4.709 -0.6591 -1.3903  2.1485
  637MOL0     H84033   3.546   8.430   4.893 -2.7345  1.1596  1.5521
  637MOL0     H84034   3.392   8.356   4.917 -0.4846  0.9462 -0.0298
  637MOL0     H84035   3.556   8.297   5.084 -0.9802  1.0187 -0.6486
  637MOL0     H84036   3.659   8.222   4.972  0.1718  1.1621  1.9482
  637MOL0     H84037   3.286   8.149   4.935 -2.3032 -1.2526  2.1904
  637MOL0     H84038   3.169   7.869   5.025  0.0866 -1.9667  0.9957
  637MOL0     H84039   3.281   7.740   4.978  1.1252  1.4379  0.8160
  637MOL0     H84040   3.185   7.954   4.780 -0.7892 -0.5977 -0.8826
  637MOL0     H84041   3.108   7.794   4.806 -1.3673  2.4030 -1.1222
  637MOL0     H84042   3.400   7.839   4.724  0.7375  0.7777  0.4088
  637MOL0     H84043   3.323   7.684   4.735  3.5032  0.0811 -1.3696
  637MOL0     H84044   3.254   7.913   4.541 -0.3494 -0.9994 -2.4939
  637MOL0     H84045   3.154   7.764   4.544  0.9455 -0.6873 -1.6590
  637MOL0     H84046   3.458   7.685   4.250  1.3490 -1.4819 -0.1932
  637MOL0     H84047   3.447   7.451   4.143 -1.7725 -0.4998 -1.0521
  637MOL0     H84048   3.296   7.120   3.947  1.5287 -0.1684 -1.9595
  637MOL0     H84049   3.262   6.914   3.882  1.1322 -1.3511 -0.9233
  637MOL0     H84050   3.533   6.594   4.063 -0.4896 -0.7764  1.3772
  637MOL0     H84051   3.462   6.505   3.934  0.9986  3.1607 -2.8974
  637MOL0     H84052   3.320   6.592   4.196  2.2724 -0.3452  0.1191
  637MOL0     H84053   3.362   6.428   4.156 -1.7411  0.5157  2.7282
  637MOL0     H84054   3.213   6.463   3.943 -0.7444  1.5208 -0.1681
  637MOL0     H84055   3.132   6.591   4.038  0.3959 -0.1311  0.6031
  637MOL0     H84056   3.178   6.310   4.133  3.7546  2.1423 -4.5767
  637MOL0     H84057   3.117   6.449   4.228  2.3735  3.4652 -2.3235
  637MOL0     H84058   2.994   6.331   3.971 -0.7557 -0.0819 -0.0399
  637MOL0     H84059   2.936   6.465   4.069  1.5004 -0.1640  2.5203
  637MOL0     H84060   2.931   6.291   4.270 -1.0495  0.6329 -0.6497
  637MOL0     H84061   2.955   6.164   4.152  0.9268  0.0305  0.5048
  637MOL0     H84062   2.733   6.367   4.191 -1.9139 -1.1490  1.8912
  637MOL0     H84063   2.722   6.266   4.051 -4.0068 -1.9653  1.5781
  637MOL0     H84064   2.693   6.176   4.331  1.9624  0.0184  0.0932
  637MOL0     H84065   2.742   6.059   4.217 -0.3003  1.3541 -0.0208
  637MOL0     H84066   3.518   6.758   4.197 -0.8158 -0.4476  0.1847
  637MOL0     H84067   3.530   6.973   4.292 -2.8853  0.1412  2.0621
  637MOL0     H84068   3.246   7.324   4.513 -0.1287 -1.3118 -0.6943
  637MOL0     H84069   3.256   7.549   4.591 -1.0143  2.8824 -0.5082
  637MOL0     H84070   3.890   8.530   4.144  0.3109  0.8224  1.5197
  637MOL0     H84071   4.075   8.655   4.030  0.8975 -0.0557 -1.1854
  637MOL0     H84072   4.333   9.076   4.133  3.7948  0.3265  0.5506
  637MOL0     H84073   4.533   9.196   4.040 -0.5298 -2.3930  4.8753
  637MOL0     H84074   4.649   9.186   3.596  2.1663  0.3800 -0.0603
  637MOL0     H84075   4.691   9.047   3.694  0.1253  0.3233  3.7797
  637MOL0     H84076   4.819   9.306   3.783  1.6256  0.4703  0.5038
  637MOL0     H84077   4.904   9.148   3.765  1.7487  0.4930 -2.2987
  637MOL0     H84078   4.838   9.359   3.562  0.8553  0.2796  0.4388
  637MOL0     H84079   4.896   9.190   3.509 -0.7741 -1.8874  0.6714
  637MOL0     H84080   5.036   9.365   3.699 -0.4813 -0.8978  0.3047
  637MOL0     H84081   5.096   9.214   3.611 -0.7081 -0.6798 -0.2882
  637MOL0     H84082   5.137   9.508   3.315 -1.3297  0.7583  1.5006
  637MOL0     H84083   4.445   9.042   3.652 -2.4593 -0.1017 -0.3218
  637MOL0     H84084   4.244   8.929   3.741 -0.5225  0.3287  0.5571
  638MOL0     O84085   3.090  10.606   1.321  0.6880 -0.0654 -0.3292
  638MOL0     C84086   3.033  10.671   1.238  0.2841 -0.2908  1.0715
  638MOL0     O84087   3.064  10.673   1.104 -0.5438  0.2811  0.5168
  638MOL0     C84088   3.174  10.602   1.059  0.5376 -0.1916 -1.4291
  638MOL0     C84089   3.191  10.469   1.084 -0.9572  0.1197 -0.4524
  638MOL0     C84090   3.286  10.392   1.023  0.7830  0.0830  0.0347
  638MOL0     C84091   3.382  10.449   0.944  0.8823  0.2768 -0.0312
  638MOL0     O84092   3.488  10.373   0.905 -0.2291  1.1873 -0.5003
  638MOL0     C84093   3.599  10.380   0.994  0.5671  0.5276  0.1176
  638MOL0     C84094   3.692  10.259   0.963 -0.2225  0.2837  0.3130
  638MOL0     C84095   3.839  10.259   1.021  0.9316 -0.6504  0.3015
  638MOL0     C84096   3.904  10.129   0.961  0.2040 -0.0055  0.0668
  638MOL0     C84097   4.043  10.118   1.039  0.5280  0.1757 -0.7504
  638MOL0     C84098   4.135  10.237   1.032  0.3614  0.0562  0.5867
  638MOL0     C84099   4.229  10.250   0.910 -0.0067 -0.1038  0.5698
  638MOL0     C84100   4.286  10.394   0.890 -0.9986 -0.2665 -0.6738
  638MOL0     N84101   4.370  10.456   0.997 -0.4655  0.0130  0.4221
  638MOL0     C84102   4.497  10.431   1.032 -1.0133  0.3565 -0.1325
  638MOL0     C84103   4.511  10.497   1.148  0.0223  0.3076  0.0182
  638MOL0     C84104   4.649  10.506   1.222 -0.3156  0.7092  1.0172
  638MOL0     C84105   4.678  10.373   1.285 -0.0180 -0.5531 -0.9945
  638MOL0     C84106   4.816  10.374   1.379  0.1195 -0.4721 -0.0896
  638MOL0     C84107   4.794  10.473   1.495  0.1752  0.9964 -0.1044
  638MOL0     O84108   4.923  10.466   1.569 -0.2587 -0.2994  0.4774
  638MOL0     C84109   4.939  10.550   1.682  0.2752 -0.2504 -0.1478
  638MOL0     C84110   4.833  10.613   1.751  1.1213 -0.5347  0.6572
  638MOL0     C84111   4.863  10.711   1.848 -0.2183 -0.6730  0.0309
  638MOL0     C84112   4.990  10.738   1.895 -0.3289  0.1110  0.5655
  638MOL0     C84113   5.020  10.845   1.990  0.9039  0.2779 -0.0662
  638MOL0     O84114   4.920  10.855   2.082  0.1438 -0.3972 -0.0352
  638MOL0     C84115   4.958  10.907   2.211  0.5749  0.3862  0.7175
  638MOL0     C84116   4.910  11.031   2.248 -0.7772 -0.5146  0.0841
  638MOL0     C84117   4.956  11.076   2.381  0.9056 -0.0164  0.3173
  638MOL0     C84118   5.047  11.005   2.461  0.7392 -1.2516  0.1971
  638MOL0     O84119   5.106  11.056   2.576  0.7285 -0.5908  0.5130
  638MOL0     C84120   5.011  11.117   2.664  0.1867 -0.9148 -0.1523
  638MOL0     C84121   5.072  11.136   2.799  0.6142  0.2300  0.9264
  638MOL0     C84122   5.141  10.997   2.846  0.0077 -0.2851  0.9632
  638MOL0     C84123   5.055  10.868   2.849  0.2444  0.7108 -0.8309
  638MOL0     C84124   5.155  10.755   2.883 -0.5594  0.0020 -0.7153
  638MOL0     C84125   5.126  10.624   2.805  0.1314  0.6559  0.6752
  638MOL0     C84126   4.987  10.570   2.847  0.0022 -0.0494  0.4851
  638MOL0     C84127   4.959  10.430   2.801 -0.9557 -0.0041 -0.2753
  638MOL0    Cl84128   5.046  10.303   2.881 -0.4953 -0.0288  0.0580
  638MOL0     C84129   5.086  10.879   2.417  0.5660 -0.6941  0.4077
  638MOL0     C84130   5.038  10.830   2.297  0.1480 -0.3717  0.7804
  638MOL0     O84131   5.122  10.910   1.995 -0.3288  0.8168 -0.3619
  638MOL0     C84132   5.092  10.662   1.824 -0.0600 -0.1806 -0.1561
  638MOL0     C84133   5.073  10.577   1.723 -0.3992  0.1194  0.4964
  638MOL0     N84134   4.389  10.544   1.188  0.1966  0.3981  0.1073
  638MOL0     N84135   4.310  10.525   1.097  0.0243 -0.3441  0.7066
  638MOL0     C84136   3.381  10.588   0.930 -0.5534  0.7838 -0.1127
  638MOL0     C84137   3.267  10.658   0.972  0.0242  1.1112 -0.0923
  638MOL0     C84138   2.936  10.770   1.279 -0.0645  0.1459  0.9491
  638MOL0     C84139   2.873  10.760   1.406 -1.0464 -0.2944  0.1009
  638MOL0     C84140   2.774  10.856   1.440 -0.5399  0.8186  0.5346
  638MOL0     C84141   2.751  10.968   1.359  0.5546  0.2307 -0.0577
  638MOL0     O84142   2.646  11.053   1.409  0.0677  0.7533 -0.7931
  638MOL0     C84143   2.631  11.173   1.336 -0.2849 -0.2301 -0.1641
  638MOL0     C84144   2.533  11.261   1.410  0.4772  0.0481 -1.1611
  638MOL0     C84145   2.586  11.320   1.535  0.7904 -0.7926 -0.9329
  638MOL0     C84146   2.490  11.410   1.611 -0.7531  0.7803 -0.2630
  638MOL0     C84147   2.549  11.491   1.722  0.7505  0.5175  0.0825
  638MOL0     C84148   2.591  11.556   1.813 -0.5205 -0.3700  0.4583
  638MOL0     C84149   2.828  10.991   1.242  0.3283  0.3413  1.1508
  638MOL0     C84150   2.916  10.889   1.199  1.1762 -0.5591 -1.0888
  638MOL0     H84151   3.117  10.410   1.135  1.4780 -0.8572  2.2184
  638MOL0     H84152   3.280  10.287   1.050  0.5347  0.0147 -0.2784
  638MOL0     H84153   3.575  10.373   1.100 -1.0285  1.4570 -0.1532
  638MOL0     H84154   3.653  10.472   0.970  1.7461  0.2044  1.3730
  638MOL0     H84155   3.711  10.275   0.857 -0.8459 -0.0814  0.1416
  638MOL0     H84156   3.650  10.161   0.987  2.8663 -0.8453  1.6095
  638MOL0     H84157   3.828  10.256   1.130 -1.0765 -1.0249  0.1411
  638MOL0     H84158   3.897  10.348   0.999 -1.0616  0.9344  1.1183
  638MOL0     H84159   3.841  10.039   0.973  1.0071 -0.2967  3.1866
  638MOL0     H84160   3.930  10.149   0.857 -0.0892  1.2683  0.2273
  638MOL0     H84161   4.092  10.034   0.989  0.0190  0.5654 -1.9580
  638MOL0     H84162   4.026  10.088   1.143  0.5463  2.2245 -0.1154
  638MOL0     H84163   4.195  10.230   1.123 -0.9104 -1.2261  1.3710
  638MOL0     H84164   4.078  10.329   1.046 -1.1835 -0.6377 -0.7615
  638MOL0     H84165   4.315  10.184   0.919 -2.1600 -3.4298 -1.3083
  638MOL0     H84166   4.195  10.197   0.821  2.0705 -2.8440  1.2809
  638MOL0     H84167   4.208  10.470   0.881  0.7272  1.7632  0.5564
  638MOL0     H84168   4.358  10.385   0.808  1.4700 -2.0556  1.4911
  638MOL0     H84169   4.568  10.368   0.982  1.5653  2.6132  0.4295
  638MOL0     H84170   4.656  10.583   1.299  1.6055  0.5056  1.0940
  638MOL0     H84171   4.729  10.526   1.150 -1.1342 -2.3169 -0.9539
  638MOL0     H84172   4.689  10.300   1.204 -1.4277  2.3340 -3.9928
  638MOL0     H84173   4.595  10.341   1.349 -0.2887  2.6874  0.4571
  638MOL0     H84174   4.828  10.277   1.428  0.8436  0.3982  1.5407
  638MOL0     H84175   4.895  10.393   1.305 -0.7778  1.8473 -0.5539
  638MOL0     H84176   4.711  10.439   1.558 -0.0561  2.8106  0.6073
  638MOL0     H84177   4.782  10.576   1.462 -1.2705  0.5894 -0.9254
  638MOL0     H84178   4.737  10.589   1.706  2.3093 -1.3647 -1.5708
  638MOL0     H84179   4.771  10.758   1.882 -3.1452 -3.3702 -3.3676
  638MOL0     H84180   4.852  11.087   2.176  3.8446  2.0737 -2.1210
  638MOL0     H84181   4.909  11.170   2.405 -3.4174 -1.1897 -2.4437
  638MOL0     H84182   4.924  11.052   2.674 -1.1301  0.1902 -3.1232
  638MOL0     H84183   4.983  11.215   2.625  0.6501 -0.7391 -0.0605
  638MOL0     H84184   4.983  11.167   2.855 -1.0250  1.8068 -2.2791
  638MOL0     H84185   5.147  11.217   2.800  0.1498  0.7532  4.2850
  638MOL0     H84186   5.188  11.023   2.941  1.4657  0.1943  0.1493
  638MOL0     H84187   5.231  10.983   2.785 -0.7356  1.1883 -0.5780
  638MOL0     H84188   4.972  10.863   2.921  1.1768 -1.8341  0.1833
  638MOL0     H84189   5.008  10.854   2.751 -3.0673  0.7178  0.6130
  638MOL0     H84190   5.148  10.739   2.991  3.4625  1.4839 -0.0485
  638MOL0     H84191   5.261  10.781   2.883 -0.0729 -1.6592  1.3093
  638MOL0     H84192   5.204  10.560   2.847  1.9176  0.4102 -2.7382
  638MOL0     H84193   5.135  10.636   2.697  0.5709  1.3779  0.7838
  638MOL0     H84194   4.977  10.574   2.956  2.3512  1.6282  0.7127
  638MOL0     H84195   4.914  10.638   2.803 -0.1989  0.0529  0.9701
  638MOL0     H84196   4.974  10.428   2.692  2.3230 -0.0028  0.0927
  638MOL0     H84197   4.852  10.419   2.823 -1.0534 -0.5239 -0.9495
  638MOL0     H84198   5.133  10.823   2.497 -1.0062 -0.1765  1.7414
  638MOL0     H84199   5.058  10.729   2.262 -1.6008  0.3933 -2.9939
  638MOL0     H84200   5.195  10.678   1.855 -0.3061  1.5003 -0.1165
  638MOL0     H84201   5.157  10.538   1.667  0.2526 -0.2331  1.6814
  638MOL0     H84202   3.461  10.637   0.876  2.5080 -2.8871  0.6111
  638MOL0     H84203   3.265  10.762   0.939  0.9968  0.5683 -2.0293
  638MOL0     H84204   2.900  10.678   1.472 -0.9101  0.5684  1.1392
  638MOL0     H84205   2.732  10.825   1.535  1.9967 -0.3269  1.3693
  638MOL0     H84206   2.594  11.155   1.235  0.7941  0.2575 -0.6612
  638MOL0     H84207   2.724  11.229   1.327  0.4186 -1.0478  1.5591
  638MOL0     H84208   2.506  11.333   1.332  1.7548 -1.4291 -3.0635
  638MOL0     H84209   2.451  11.192   1.432  2.5449 -2.3902 -0.5893
  638MOL0     H84210   2.678  11.368   1.502  0.4821 -0.0124 -0.6758
  638MOL0     H84211   2.615  11.245   1.609  0.2876  1.9746  2.3361
  638MOL0     H84212   2.442  11.483   1.546  1.1854  5.6651  3.2387
  638MOL0     H84213   2.415  11.345   1.658 -1.7763  1.3782 -1.0146
  638MOL0     H84214   2.640  11.601   1.897  1.8366 -2.6738  0.4404
  638MOL0     H84215   2.818  11.079   1.180 -2.2525 -1.0223 -0.5747
  638MOL0     H84216   2.963  10.894   1.101 -0.2013  0.0657 -1.7353
  639MOL0     O84217   2.017   4.824   3.808  0.5108  0.6548  0.6936
  639MOL0     C84218   2.042   4.915   3.883  0.7375 -0.6824 -0.1302
  639MOL0     O84219   2.168   4.952   3.930 -0.3482  0.3712 -0.1172
  639MOL0     C84220   2.276   4.884   3.876  0.0437  0.2122 -0.9451
  639MOL0     C84221   2.352   4.800   3.953  0.3060 -0.3926  0.7158
  639MOL0     C84222   2.458   4.721   3.895  0.0566  0.0924  0.0439
  639MOL0     C84223   2.496   4.741   3.760  0.5920  0.1061 -0.8430
  639MOL0     O84224   2.605   4.669   3.724  0.1284 -0.1021 -0.1393
  639MOL0     C84225   2.720   4.745   3.740  0.0742  0.0364 -0.4608
  639MOL0     C84226   2.839   4.651   3.694  0.1488  0.6623  0.7073
  639MOL0     C84227   2.873   4.669   3.544  0.0356  0.0985 -0.1454
  639MOL0     C84228   2.759   4.651   3.441 -0.1628 -0.8939 -0.2444
  639MOL0     C84229   2.737   4.507   3.407 -0.3878 -0.1883 -0.8521
  639MOL0     C84230   2.603   4.487   3.332  0.2766  0.1645 -0.0595
  639MOL0     C84231   2.567   4.344   3.314  0.3772 -0.3763  0.4716
  639MOL0     C84232   2.638   4.270   3.203  0.4503  0.3447  0.3416
  639MOL0     N84233   2.746   4.192   3.256  0.2267 -0.1164  0.4497
  639MOL0     C84234   2.735   4.066   3.308 -0.9910  0.5003  1.2626
  639MOL0     C84235   2.850   4.007   3.302 -0.2347  0.2950 -0.6577
  639MOL0     C84236   2.878   3.858   3.329  0.3266 -1.0556  0.9690
  639MOL0     C84237   2.976   3.798   3.227 -0.4098  0.7109 -0.7157
  639MOL0     C84238   2.990   3.640   3.238  0.1441  0.2394 -0.1196
  639MOL0     C84239   3.105   3.605   3.149  0.3205  0.3554  1.0475
  639MOL0     O84240   3.097   3.460   3.123 -0.3164 -0.5400  0.1277
  639MOL0     C84241   3.198   3.406   3.049  1.3908 -1.1699 -0.0541
  639MOL0     C84242   3.312   3.467   3.005 -0.8383 -0.1915 -0.2430
  639MOL0     C84243   3.400   3.391   2.922  0.3810  0.5054 -0.1749
  639MOL0     C84244   3.391   3.255   2.902  0.2274 -0.1550 -0.3747
  639MOL0     C84245   3.505   3.178   2.849  0.4277 -0.0730  0.8582
  639MOL0     O84246   3.614   3.246   2.810 -0.6347 -0.2804 -0.3561
  639MOL0     C84247   3.725   3.184   2.755  0.8844  0.4953  0.0485
  639MOL0     C84248   3.766   3.234   2.631 -0.4315  0.3987  0.0821
  639MOL0     C84249   3.858   3.171   2.556 -0.0990 -0.1143 -0.1371
  639MOL0     C84250   3.919   3.049   2.611  0.5466 -0.0009  1.0248
  639MOL0     O84251   4.024   2.983   2.562 -0.7909  0.0293  0.4457
  639MOL0     C84252   4.023   2.974   2.415  0.9481 -0.6871 -0.1933
  639MOL0     C84253   4.146   2.910   2.354 -0.2334  0.3124  0.1081
  639MOL0     C84254   4.162   2.915   2.199  0.7354 -0.5092  0.2612
  639MOL0     C84255   4.297   2.867   2.163 -1.1174  0.9597  0.3274
  639MOL0     C84256   4.317   2.814   2.016 -0.1977  0.1951 -0.5901
  639MOL0     C84257   4.463   2.758   1.990  0.3855  0.3438  0.4656
  639MOL0     C84258   4.540   2.886   1.978 -0.1880  0.0248  0.0266
  639MOL0     C84259   4.674   2.863   1.908  0.3174  1.3284  0.0767
  639MOL0    Cl84260   4.649   2.824   1.738  0.0715  0.4875  0.0321
  639MOL0     C84261   3.882   3.009   2.730 -0.6703 -0.7862 -0.7009
  639MOL0     C84262   3.786   3.071   2.811  0.3248  0.3616 -0.6805
  639MOL0     O84263   3.492   3.060   2.842 -0.8590  0.2948 -0.3746
  639MOL0     C84264   3.275   3.194   2.956 -0.6701  0.2334  0.1385
  639MOL0     C84265   3.169   3.278   3.009  0.1721 -0.6236  0.0014
  639MOL0     N84266   2.939   4.114   3.277 -0.6345 -0.2437 -0.4625
  639MOL0     N84267   2.874   4.226   3.238  0.4660 -0.3173  0.5558
  639MOL0     C84268   2.406   4.829   3.681  0.4710 -0.1936 -0.7951
  639MOL0     C84269   2.303   4.893   3.743 -0.0102 -0.7000 -0.3135
  639MOL0     C84270   1.927   4.991   3.933 -0.2599 -0.2385 -0.1020
  639MOL0     C84271   1.801   4.935   3.908  0.3338 -1.5688 -1.1269
  639MOL0     C84272   1.684   5.002   3.943  0.6034  0.7064 -0.3677
  639MOL0     C84273   1.695   5.128   4.013 -0.2972  0.6816  0.2675
  639MOL0     O84274   1.572   5.183   4.042  0.2496 -0.9253 -0.2003
  639MOL0     C84275   1.568   5.304   4.117  0.6643  0.1008  0.1048
  639MOL0     C84276   1.431   5.310   4.191  0.5522 -0.3338 -0.2583
  639MOL0     C84277   1.426   5.405   4.303  0.4168  0.1225  0.1092
  639MOL0     C84278   1.301   5.373   4.387  0.8235  0.1319  0.4196
  639MOL0     C84279   1.292   5.458   4.511  0.1163 -0.1755 -0.7167
  639MOL0     C84280   1.289   5.533   4.608  1.8394  0.4393  0.5257
  639MOL0     C84281   1.822   5.189   4.034  0.3906  0.1504 -0.0418
  639MOL0     C84282   1.937   5.123   3.990 -0.1057  0.5980 -0.0650
  639MOL0     H84283   2.325   4.798   4.058 -1.1114  1.2011  0.4150
  639MOL0     H84284   2.516   4.657   3.960  2.8523  1.7505 -0.6227
  639MOL0     H84285   2.732   4.763   3.847  1.3947 -3.4342  0.1179
  639MOL0     H84286   2.729   4.841   3.688 -1.4705  0.3380 -0.2113
  639MOL0     H84287   2.821   4.548   3.725 -0.6023  0.8548  0.9470
  639MOL0     H84288   2.924   4.684   3.755  2.6219 -2.0849 -1.0067
  639MOL0     H84289   2.957   4.602   3.527  2.6669  2.4929  2.2663
  639MOL0     H84290   2.905   4.774   3.538  2.0958 -0.4677  0.1457
  639MOL0     H84291   2.675   4.696   3.494  0.6810  1.1621 -0.5302
  639MOL0     H84292   2.775   4.704   3.347  1.6442  0.8704  0.9849
  639MOL0     H84293   2.732   4.451   3.501  3.9331  1.6087  0.7372
  639MOL0     H84294   2.832   4.462   3.376 -0.7226 -2.4008  1.0287
  639MOL0     H84295   2.604   4.542   3.237  0.5593  0.1232 -0.0824
  639MOL0     H84296   2.523   4.529   3.394 -0.6993 -1.1960 -0.3644
  639MOL0     H84297   2.560   4.278   3.401 -4.1639  1.2342  1.6380
  639MOL0     H84298   2.462   4.355   3.285  0.2829 -1.5952  0.2818
  639MOL0     H84299   2.678   4.343   3.133  1.2016  0.5351  0.9606
  639MOL0     H84300   2.568   4.199   3.157 -0.6988 -0.1014  2.6011
  639MOL0     H84301   2.641   4.017   3.334 -0.1691 -0.2067  3.1165
  639MOL0     H84302   2.783   3.805   3.321  0.8952 -1.9336 -0.3516
  639MOL0     H84303   2.926   3.849   3.427 -0.9590 -3.2345  1.4778
  639MOL0     H84304   3.065   3.853   3.259 -0.0179 -0.5013  0.3783
  639MOL0     H84305   2.957   3.841   3.129  0.8399  1.2832 -0.7330
  639MOL0     H84306   3.025   3.605   3.335 -0.2014  2.0646  0.7116
  639MOL0     H84307   2.902   3.588   3.199 -0.7834  2.4030 -1.0896
  639MOL0     H84308   3.192   3.649   3.200  0.6408  2.8076 -1.3822
  639MOL0     H84309   3.083   3.659   3.056 -3.1291  0.4261  1.7713
  639MOL0     H84310   3.332   3.571   3.028  2.2861 -0.1343 -2.5073
  639MOL0     H84311   3.494   3.439   2.896  2.5772 -1.7123  2.8912
  639MOL0     H84312   3.719   3.322   2.588  4.2787  2.2100 -2.0288
  639MOL0     H84313   3.879   3.207   2.455  2.6436 -0.6633  0.1608
  639MOL0     H84314   4.012   3.076   2.378  0.7104 -0.0429  1.5733
  639MOL0     H84315   3.932   2.933   2.370  0.9936  0.4821 -1.4189
  639MOL0     H84316   4.136   2.805   2.383 -1.0900  1.1607  3.3281
  639MOL0     H84317   4.235   2.957   2.397 -0.7094 -0.5661  2.2020
  639MOL0     H84318   4.144   3.017   2.162 -0.3386 -1.3994 -1.8297
  639MOL0     H84319   4.087   2.860   2.142  0.3893  0.6629 -0.4456
  639MOL0     H84320   4.370   2.947   2.175  0.2698  0.2254 -2.3785
  639MOL0     H84321   4.333   2.788   2.230  2.0120  4.1638  2.7543
  639MOL0     H84322   4.301   2.886   1.936  1.2005  0.8731 -0.2809
  639MOL0     H84323   4.244   2.733   2.006  0.8356 -1.7380  4.4406
  639MOL0     H84324   4.453   2.707   1.894  0.1116  2.6665 -0.8030
  639MOL0     H84325   4.496   2.695   2.073 -1.1274  0.9399  1.5658
  639MOL0     H84326   4.485   2.963   1.922 -1.5147  0.1259  1.4100
  639MOL0     H84327   4.563   2.913   2.082  1.4266 -0.3956 -0.2017
  639MOL0     H84328   4.745   2.799   1.960  0.7518  0.0247 -2.0105
  639MOL0     H84329   4.715   2.964   1.906 -0.2623  1.6064  1.1169
  639MOL0     H84330   3.928   2.917   2.767 -2.7148 -1.0844  1.2991
  639MOL0     H84331   3.752   3.033   2.907  0.7182  0.0022 -0.6863
  639MOL0     H84332   3.254   3.091   2.932  2.2708 -0.9904  2.2206
  639MOL0     H84333   3.074   3.232   3.030 -0.1233 -0.7875 -1.5991
  639MOL0     H84334   2.412   4.847   3.574 -3.3826  0.6891 -0.9999
  639MOL0     H84335   2.232   4.954   3.687 -2.2986 -0.3812  2.6979
  639MOL0     H84336   1.791   4.832   3.876 -1.5118 -1.2889 -1.5358
  639MOL0     H84337   1.584   4.963   3.929  0.2601  1.3101  0.3235
  639MOL0     H84338   1.580   5.392   4.054 -0.6395  0.3986  0.2416
  639MOL0     H84339   1.649   5.298   4.190 -0.1155 -1.6915  0.9133
  639MOL0     H84340   1.359   5.320   4.110  2.5916 -1.6758 -2.3656
  639MOL0     H84341   1.409   5.213   4.235 -1.4324 -0.6987 -1.9337
  639MOL0     H84342   1.423   5.509   4.271 -0.8677  1.3234  3.6224
  639MOL0     H84343   1.518   5.379   4.357  0.9955 -0.8420 -1.2833
  639MOL0     H84344   1.210   5.400   4.332 -0.9345  0.5008  3.2933
  639MOL0     H84345   1.289   5.268   4.414 -4.1224  0.3105 -0.1321
  639MOL0     H84346   1.290   5.599   4.693 -3.8559  2.4461 -0.5377
  639MOL0     H84347   1.836   5.279   4.092 -0.6104  0.0617  0.3509
  639MOL0     H84348   2.036   5.165   4.003  0.7451 -1.4208  0.3530
  640MOL0     O84349   4.807   3.384   1.047 -0.2293  0.5004 -0.4525
  640MOL0     C84350   4.842   3.264   1.029 -1.1597  0.0576 -0.6751
  640MOL0     O84351   4.760   3.165   0.989 -0.2025  0.5923  0.2775
  640MOL0     C84352   4.627   3.192   1.012  0.3642  0.3414  0.1069
  640MOL0     C84353   4.547   3.268   0.926 -0.0139  0.0426  0.2798
  640MOL0     C84354   4.413   3.303   0.971 -0.1107 -0.0259  0.1510
  640MOL0     C84355   4.354   3.261   1.088 -0.4443  0.3666  0.7873
  640MOL0     O84356   4.226   3.298   1.101 -0.2395  0.3425 -0.2624
  640MOL0     C84357   4.173   3.328   1.225  0.2898  0.0986 -0.4999
  640MOL0     C84358   4.014   3.313   1.194 -0.1413  0.2363  0.7805
  640MOL0     C84359   3.927   3.360   1.310  0.5907  0.3115 -0.1910
  640MOL0     C84360   3.781   3.336   1.278 -0.7485  0.1446  1.2168
  640MOL0     C84361   3.690   3.344   1.404 -0.2187 -0.0865 -0.1724
  640MOL0     C84362   3.539   3.301   1.401 -0.1732  0.8917  0.0419
  640MOL0     C84363   3.472   3.279   1.264  0.6244  0.6863  0.0483
  640MOL0     C84364   3.488   3.138   1.208 -0.0147  1.1551  0.1491
  640MOL0     N84365   3.390   3.042   1.259  0.0881  0.8632 -0.4786
  640MOL0     C84366   3.284   2.987   1.186 -0.3478  0.8279  0.2048
  640MOL0     C84367   3.228   2.900   1.269  0.2416  0.5200  0.3898
  640MOL0     C84368   3.093   2.830   1.257  0.5112 -0.2177 -0.3269
  640MOL0     C84369   2.984   2.919   1.326  0.0591  0.2022 -0.9394
  640MOL0     C84370   2.920   3.000   1.220 -0.0681 -0.0031 -0.0083
  640MOL0     C84371   2.821   3.092   1.291 -0.4869 -1.0509  0.6643
  640MOL0     O84372   2.886   3.187   1.386 -0.4327  0.1367  0.1588
  640MOL0     C84373   2.799   3.202   1.488 -1.0396 -0.0096  0.5231
  640MOL0     C84374   2.773   3.101   1.578  0.1265 -0.0945  0.5262
  640MOL0     C84375   2.686   3.120   1.685 -0.2137  0.0942 -0.7589
  640MOL0     C84376   2.620   3.243   1.698  0.2292  0.3989  0.5159
  640MOL0     C84377   2.516   3.264   1.797  0.5005  1.0722  0.2960
  640MOL0     O84378   2.496   3.152   1.866  0.2146  0.8901 -0.1944
  640MOL0     C84379   2.404   3.149   1.972 -0.3502  0.7370 -0.2027
  640MOL0     C84380   2.377   3.241   2.081 -0.9205  0.0865  0.0874
  640MOL0     C84381   2.271   3.224   2.170  0.3195  0.0656 -0.8729
  640MOL0     C84382   2.174   3.120   2.156 -0.4700  0.6829  0.1241
  640MOL0     O84383   2.061   3.091   2.222 -0.0075  0.1988 -0.1749
  640MOL0     C84384   2.027   3.156   2.344  0.6259  0.1842 -0.4737
  640MOL0     C84385   1.903   3.098   2.410 -0.5622 -0.8346 -0.2639
  640MOL0     C84386   1.779   3.158   2.347  0.0398 -0.5289  0.5005
  640MOL0     C84387   1.661   3.068   2.382 -0.3042  0.5253 -0.4629
  640MOL0     C84388   1.533   3.105   2.303  0.3396 -0.0940  0.9796
  640MOL0     C84389   1.441   2.980   2.283  0.0138 -0.1554 -1.3313
  640MOL0     C84390   1.300   3.004   2.207 -0.7875 -0.0202 -0.5498
  640MOL0     C84391   1.274   2.919   2.091 -0.0416 -0.1350 -0.2462
  640MOL0    Cl84392   1.117   2.960   2.010  0.1373  0.1558 -0.1806
  640MOL0     C84393   2.207   3.027   2.060  0.4839 -0.3299 -0.4363
  640MOL0     C84394   2.323   3.040   1.975  0.1058  0.7789 -1.2140
  640MOL0     O84395   2.473   3.373   1.819 -0.0008 -0.4390  0.6359
  640MOL0     C84396   2.643   3.342   1.609  0.6010 -0.5044  0.2621
  640MOL0     C84397   2.740   3.322   1.508 -0.0213 -0.1228  0.6547
  640MOL0     N84398   3.311   2.891   1.379  0.5637  0.1823 -0.6513
  640MOL0     N84399   3.414   2.959   1.369  0.0838  0.1618  0.4041
  640MOL0     C84400   4.441   3.187   1.171  1.4470 -0.4045 -0.0152
  640MOL0     C84401   4.570   3.161   1.138  0.6086 -0.2592  0.3767
  640MOL0     C84402   4.985   3.231   1.035  0.5465 -0.4519  0.4265
  640MOL0     C84403   5.090   3.326   1.046  0.0786 -0.1145  0.0852
  640MOL0     C84404   5.229   3.301   1.044 -0.3733  0.1150 -0.4557
  640MOL0     C84405   5.265   3.162   1.031  0.2072 -1.1932  0.3127
  640MOL0     O84406   5.397   3.129   1.029 -0.3047 -0.1931 -0.3010
  640MOL0     C84407   5.455   3.179   0.903 -0.7701  0.4187  0.2225
  640MOL0     C84408   5.537   3.299   0.936  0.3999  0.0529  0.2961
  640MOL0     C84409   5.633   3.322   0.806 -0.5091 -0.7788  0.5027
  640MOL0     C84410   5.554   3.397   0.698 -0.3102 -0.3839  0.0011
  640MOL0     C84411   5.610   3.383   0.567 -0.1353 -1.2050 -0.8631
  640MOL0     C84412   5.674   3.357   0.456 -0.7951  0.6412  0.6416
  640MOL0     C84413   5.160   3.064   1.021 -0.5260 -0.1522 -0.5329
  640MOL0     C84414   5.021   3.096   1.020 -0.6491  0.0932  0.2023
  640MOL0     H84415   4.581   3.308   0.831  3.8504  0.7088  1.7613
  640MOL0     H84416   4.364   3.366   0.898 -1.1055 -2.5169 -1.4691
  640MOL0     H84417   4.195   3.430   1.259 -0.5593  0.6875 -1.6394
  640MOL0     H84418   4.188   3.259   1.309 -2.1623  0.7887  0.5880
  640MOL0     H84419   3.987   3.209   1.172  0.1535  0.0716  1.1753
  640MOL0     H84420   3.989   3.373   1.107 -1.3808  0.6635  1.4078
  640MOL0     H84421   3.941   3.467   1.328 -1.8855  0.4440  1.4598
  640MOL0     H84422   3.957   3.312   1.403  1.9442 -1.3572 -1.4173
  640MOL0     H84423   3.746   3.409   1.204  1.6222 -0.4572 -0.6274
  640MOL0     H84424   3.769   3.234   1.243  0.5764 -0.3344  2.0949
  640MOL0     H84425   3.693   3.449   1.436  0.1645 -0.5246  1.3413
  640MOL0     H84426   3.731   3.283   1.485  0.8430  1.1905  0.2886
  640MOL0     H84427   3.480   3.375   1.456  1.0683  1.7346  0.2998
  640MOL0     H84428   3.536   3.205   1.452  2.3082  0.9783  0.5074
  640MOL0     H84429   3.366   3.305   1.270  0.3125  0.1701 -2.2278
  640MOL0     H84430   3.512   3.346   1.187  0.4927 -0.5482 -1.1183
  640MOL0     H84431   3.587   3.105   1.241 -0.7493 -2.1524 -0.5879
  640MOL0     H84432   3.485   3.137   1.099 -2.3685 -2.9298  0.0766
  640MOL0     H84433   3.261   3.028   1.088  2.9177 -0.4456 -1.2512
  640MOL0     H84434   3.116   2.730   1.297  0.2488  0.5716  1.9794
  640MOL0     H84435   3.070   2.814   1.152 -2.1521  0.1681  0.1223
  640MOL0     H84436   3.022   2.993   1.397  0.3728 -0.9916  0.1872
  640MOL0     H84437   2.906   2.861   1.376  0.0817 -1.4317 -2.6740
  640MOL0     H84438   2.992   3.068   1.173  0.0503  1.6384  2.3643
  640MOL0     H84439   2.869   2.940   1.145 -3.4818  1.5514  0.9033
  640MOL0     H84440   2.731   3.049   1.336 -0.0958 -1.2439  1.2761
  640MOL0     H84441   2.777   3.155   1.213 -0.1358  0.1939  1.4421
  640MOL0     H84442   2.834   3.017   1.547  1.7046  1.6859 -1.5090
  640MOL0     H84443   2.676   3.041   1.760  0.9714  0.7733  0.1401
  640MOL0     H84444   2.439   3.329   2.092 -0.1029 -0.1996 -1.7819
  640MOL0     H84445   2.250   3.297   2.248 -0.6970 -0.4333 -0.6732
  640MOL0     H84446   2.002   3.259   2.321  0.1552  0.3075  0.5369
  640MOL0     H84447   2.111   3.164   2.414  2.0232 -0.1687 -2.0272
  640MOL0     H84448   1.904   3.107   2.519 -0.2112  0.0424 -0.3357
  640MOL0     H84449   1.898   2.989   2.395 -3.4222 -0.7549 -0.6067
  640MOL0     H84450   1.785   3.150   2.238 -0.5021 -0.8917  0.4914
  640MOL0     H84451   1.764   3.260   2.384 -1.9384 -1.2692  1.9313
  640MOL0     H84452   1.694   2.965   2.364  0.1317  0.7346 -0.8724
  640MOL0     H84453   1.624   3.077   2.484  0.1126  0.9788 -0.3488
  640MOL0     H84454   1.558   3.140   2.202 -0.5679 -3.1447 -0.4280
  640MOL0     H84455   1.477   3.184   2.352 -1.9291 -2.6195  2.7392
  640MOL0     H84456   1.426   2.941   2.384 -0.7424 -2.8763 -2.4014
  640MOL0     H84457   1.503   2.901   2.238 -0.1287 -2.8741  2.7006
  640MOL0     H84458   1.219   2.984   2.277 -0.3953 -1.1888 -0.4158
  640MOL0     H84459   1.291   3.112   2.191 -1.1439 -0.3370 -2.7175
  640MOL0     H84460   1.266   2.814   2.121  0.0627  0.1476  0.7969
  640MOL0     H84461   1.357   2.943   2.024 -0.2906  0.7228 -0.2595
  640MOL0     H84462   2.159   2.930   2.068  1.0796 -0.5489  6.2774
  640MOL0     H84463   2.334   2.968   1.894 -1.6901  0.0074 -0.8222
  640MOL0     H84464   2.586   3.434   1.616  0.8341 -0.4900  3.9469
  640MOL0     H84465   2.752   3.403   1.437 -0.1403 -0.5887  0.1002
  640MOL0     H84466   4.395   3.147   1.261 -0.2699  1.1074 -0.1773
  640MOL0     H84467   4.633   3.111   1.211 -1.3978 -1.5384  1.3093
  640MOL0     H84468   5.056   3.424   1.077  2.5193  0.3508  1.5634
  640MOL0     H84469   5.292   3.385   1.072 -0.3382 -0.2545  0.6183
  640MOL0     H84470   5.388   3.194   0.818  1.8006  2.1934 -1.6087
  640MOL0     H84471   5.522   3.097   0.875 -3.8036 -1.6193 -1.6907
  640MOL0     H84472   5.467   3.383   0.935 -1.5583 -1.4765  1.8279
  640MOL0     H84473   5.592   3.303   1.031 -0.6257 -1.8277  1.0288
  640MOL0     H84474   5.673   3.225   0.774  1.4772 -0.4558  1.8041
  640MOL0     H84475   5.726   3.377   0.821 -0.1965 -0.4645 -2.0661
  640MOL0     H84476   5.452   3.355   0.699  0.4950 -2.4929 -0.8409
  640MOL0     H84477   5.558   3.503   0.727 -0.6266  0.5996 -3.1561
  640MOL0     H84478   5.719   3.329   0.363 -2.2362  1.2503 -0.2863
  640MOL0     H84479   5.199   2.963   1.020  0.1458  0.0783  0.8909
  640MOL0     H84480   4.964   3.004   1.015 -0.3795 -0.0485 -0.4896
  641MOL0     O84481   3.573   7.822   7.726  0.6253 -0.0001  0.7007
  641MOL0     C84482   3.594   7.940   7.701  0.1218  0.0090 -0.1518
  641MOL0     O84483   3.493   8.037   7.673 -0.0355  0.0153 -0.2256
  641MOL0     C84484   3.363   8.002   7.694 -0.7023 -0.4794 -0.9449
  641MOL0     C84485   3.294   7.938   7.599 -0.1768 -0.1101  0.3339
  641MOL0     C84486   3.150   7.930   7.625 -0.3394 -1.3300 -0.7180
  641MOL0     C84487   3.085   7.975   7.738  0.1947  1.0409  0.7509
  641MOL0     O84488   2.948   7.956   7.749 -0.1076  0.0092  0.8363
  641MOL0     C84489   2.867   8.081   7.736  0.9613  0.3471 -0.9058
  641MOL0     C84490   2.723   8.040   7.768  0.4088 -0.5559  0.2378
  641MOL0     C84491   2.622   8.161   7.752  0.3385 -0.1132 -0.1864
  641MOL0     C84492   2.488   8.118   7.821  0.4978  0.2457  0.0043
  641MOL0     C84493   2.388   8.018   7.744 -0.6335 -0.2125  0.1671
  641MOL0     C84494   2.259   7.982   7.812  0.1618 -0.5802 -0.0697
  641MOL0     C84495   2.176   7.910   7.719  0.9596 -0.4027 -0.3726
  641MOL0     C84496   2.064   7.827   7.777 -0.4043 -0.3148  0.5560
  641MOL0     N84497   1.948   7.786   7.684 -0.0667 -0.4146 -0.2630
  641MOL0     C84498   1.881   7.865   7.594  0.0399 -0.1442 -0.9214
  641MOL0     C84499   1.781   7.797   7.542  1.6816  0.9717  0.1340
  641MOL0     C84500   1.670   7.835   7.440 -0.4388 -0.2544 -0.1629
  641MOL0     C84501   1.542   7.752   7.460 -0.4071  0.5665 -0.1243
  641MOL0     C84502   1.426   7.814   7.389 -0.1340 -0.3243 -0.0991
  641MOL0     C84503   1.374   7.937   7.457  0.2183 -1.1486  0.4118
  641MOL0     O84504   1.309   8.025   7.367  0.7059  0.4461 -0.4907
  641MOL0     C84505   1.167   8.022   7.368 -0.0333 -1.1477  0.8706
  641MOL0     C84506   1.096   8.105   7.455 -0.7203  0.1089  0.2492
  641MOL0     C84507   0.955   8.108   7.441 -0.5165 -0.1469 -0.0280
  641MOL0     C84508   0.886   8.023   7.351 -0.6283  0.5131 -0.3209
  641MOL0     C84509   0.741   8.015   7.346  0.7944 -0.6953 -0.0690
  641MOL0     O84510   0.685   8.127   7.399  0.8662  0.5031  0.1157
  641MOL0     C84511   0.550   8.148   7.366  0.2429  0.0544 -0.4173
  641MOL0     C84512   0.450   8.160   7.458  0.7502 -0.4747 -0.6529
  641MOL0     C84513   0.320   8.192   7.419 -0.7056 -0.9069 -1.0303
  641MOL0     C84514   0.296   8.234   7.287  0.6005  0.6573  0.3118
  641MOL0     O84515   0.166   8.269   7.263  0.8778  0.7003  0.0868
  641MOL0     C84516   0.133   8.305   7.120  0.0996  0.1390 -0.6348
  641MOL0     C84517  -0.017   8.290   7.120  0.0505 -0.0452  0.1557
  641MOL0     C84518  -0.063   8.357   6.998  0.4421 -0.5960  0.0519
  641MOL0     C84519  -0.214   8.368   7.000  0.0639 -0.0051 -0.1747
  641MOL0     C84520  -0.292   8.240   7.009  0.8116  0.5223 -0.2130
  641MOL0     C84521  -0.440   8.248   6.973  0.0638 -0.0600  0.6227
  641MOL0     C84522  -0.517   8.343   7.062  0.1335 -1.1092  0.2521
  641MOL0     C84523  -0.670   8.317   7.048  0.7759  0.1307  0.8281
  641MOL0    Cl84524  -0.763   8.435   7.152  0.1299  0.0664 -0.1707
  641MOL0     C84525   0.401   8.222   7.195 -0.6842 -0.3494 -0.3175
  641MOL0     C84526   0.525   8.184   7.237  0.4897  0.4419 -0.2166
  641MOL0     O84527   0.687   7.929   7.281  0.0846 -0.1629  1.1331
  641MOL0     C84528   0.966   7.941   7.266 -0.9834 -0.7057  0.1338
  641MOL0     C84529   1.101   7.926   7.289 -0.2738  0.5471 -0.0265
  641MOL0     N84530   1.793   7.670   7.596 -0.6154 -0.0119  0.2431
  641MOL0     N84531   1.898   7.665   7.678 -0.1737 -1.1205 -0.7416
  641MOL0     C84532   3.161   8.029   7.838 -0.0306 -0.6534  0.0819
  641MOL0     C84533   3.301   8.047   7.812  0.7689  0.5408  0.0083
  641MOL0     C84534   3.733   7.973   7.670 -0.6698 -1.1051  0.9954
  641MOL0     C84535   3.841   7.877   7.684  0.8335 -0.1547 -0.1595
  641MOL0     C84536   3.961   7.899   7.630  0.5877  0.5260  0.0569
  641MOL0     C84537   3.985   8.024   7.562  0.0161  1.2423  0.2208
  641MOL0     O84538   4.109   8.042   7.498 -0.8042 -0.2297  0.1479
  641MOL0     C84539   4.145   8.173   7.434 -0.8476 -1.1092  0.4799
  641MOL0     C84540   4.133   8.164   7.292  0.3123 -0.2610  0.7224
  641MOL0     C84541   3.988   8.124   7.241 -0.5376 -1.1074 -0.0521
  641MOL0     C84542   4.001   8.102   7.098  0.3469 -0.5961 -0.0026
  641MOL0     C84543   4.045   7.977   7.046 -0.9638 -0.0935  0.2469
  641MOL0     C84544   4.064   7.866   6.998  0.0295 -0.7171  0.5309
  641MOL0     C84545   3.895   8.128   7.572 -0.8184 -0.6996  0.3483
  641MOL0     C84546   3.766   8.105   7.624 -0.6180 -0.0911 -0.4648
  641MOL0     H84547   3.343   7.910   7.506 -0.1306 -0.4308  0.4558
  641MOL0     H84548   3.098   7.878   7.546  2.3414 -2.7305 -1.6865
  641MOL0     H84549   2.863   8.125   7.636 -5.7252  3.7802  0.3571
  641MOL0     H84550   2.905   8.154   7.809  0.3615  0.3278 -0.5689
  641MOL0     H84551   2.722   8.005   7.871 -1.8181 -2.7232 -0.4119
  641MOL0     H84552   2.693   7.954   7.707 -1.1861  0.2323 -0.1439
  641MOL0     H84553   2.598   8.205   7.655  0.9046  1.1848  0.2437
  641MOL0     H84554   2.658   8.248   7.808 -0.8308  1.5463 -1.8997
  641MOL0     H84555   2.513   8.063   7.912 -0.8880  0.4441  0.5337
  641MOL0     H84556   2.432   8.202   7.864 -1.8694 -2.2899  2.3198
  641MOL0     H84557   2.432   7.920   7.724 -1.2644 -0.6817  1.0216
  641MOL0     H84558   2.369   8.054   7.642 -1.6283  1.5869  0.9383
  641MOL0     H84559   2.214   8.073   7.851 -1.7249 -1.0831 -0.9779
  641MOL0     H84560   2.278   7.915   7.897 -2.1496  1.6323  2.3489
  641MOL0     H84561   2.123   7.981   7.654  0.2998  2.1248  2.6633
  641MOL0     H84562   2.228   7.839   7.654 -0.3345  0.1169 -2.0697
  641MOL0     H84563   2.029   7.896   7.854  2.7107 -0.2985  2.1138
  641MOL0     H84564   2.109   7.738   7.823  0.4796 -1.4980 -2.3230
  641MOL0     H84565   1.917   7.964   7.568 -0.4672 -0.3263 -2.3802
  641MOL0     H84566   1.697   7.833   7.334 -2.4976 -1.1581 -0.7267
  641MOL0     H84567   1.655   7.940   7.466  1.3027  0.3794 -1.5210
  641MOL0     H84568   1.519   7.744   7.567 -5.5806  1.3839 -0.9246
  641MOL0     H84569   1.556   7.647   7.434  3.3114  1.2114 -1.2254
  641MOL0     H84570   1.468   7.841   7.291 -0.8059  3.6887  0.5498
  641MOL0     H84571   1.347   7.743   7.363 -0.2697  0.6147 -2.6204
  641MOL0     H84572   1.455   7.995   7.502 -1.6502 -0.0162  2.5079
  641MOL0     H84573   1.313   7.906   7.541 -0.8942  0.0815  0.0922
  641MOL0     H84574   1.147   8.175   7.520 -2.0025  2.2112 -0.8729
  641MOL0     H84575   0.892   8.164   7.509 -1.3732 -0.3154 -0.6762
  641MOL0     H84576   0.468   8.136   7.563  1.0143 -1.0241 -0.8218
  641MOL0     H84577   0.240   8.203   7.492 -0.4486  2.0776 -1.0739
  641MOL0     H84578   0.167   8.249   7.033 -1.0438  0.9177 -1.6257
  641MOL0     H84579   0.170   8.405   7.095  1.4292 -0.0852  0.3180
  641MOL0     H84580  -0.059   8.325   7.215  0.1326 -1.2240  0.6456
  641MOL0     H84581  -0.041   8.184   7.112  0.7707 -0.4098  2.1451
  641MOL0     H84582  -0.023   8.318   6.904  0.0199  2.0521 -1.3408
  641MOL0     H84583  -0.018   8.457   7.001  0.5844 -0.6885  1.7170
  641MOL0     H84584  -0.241   8.433   7.083  2.4865 -0.7475  1.2880
  641MOL0     H84585  -0.247   8.420   6.909 -2.2508  2.5099  1.9398
  641MOL0     H84586  -0.286   8.206   7.113 -1.7487  1.2444  0.2448
  641MOL0     H84587  -0.254   8.160   6.945  1.5233  1.0253 -0.4281
  641MOL0     H84588  -0.485   8.149   6.974  0.1534 -0.1072  0.0886
  641MOL0     H84589  -0.441   8.291   6.872  1.2633 -4.0763 -1.2774
  641MOL0     H84590  -0.495   8.337   7.169  1.4348  1.9307  0.2663
  641MOL0     H84591  -0.495   8.445   7.031 -1.6264 -0.6366  0.4391
  641MOL0     H84592  -0.711   8.217   7.066 -0.9351  0.6995  0.3065
  641MOL0     H84593  -0.691   8.346   6.945  0.5136 -0.2805  0.7635
  641MOL0     H84594   0.398   8.244   7.088 -0.7450  0.7864 -0.0872
  641MOL0     H84595   0.607   8.182   7.167  0.2009  1.5730 -0.6158
  641MOL0     H84596   0.919   7.869   7.200  0.5851 -1.7875  0.1494
  641MOL0     H84597   1.167   7.855   7.240 -1.1628  0.7035 -1.5310
  641MOL0     H84598   3.113   8.053   7.932  3.0664 -1.5578  2.0563
  641MOL0     H84599   3.372   8.084   7.886  2.7550 -0.5697 -1.2536
  641MOL0     H84600   3.810   7.778   7.715 -2.4421  0.8227  0.0755
  641MOL0     H84601   4.039   7.823   7.626  0.2437  0.1272  0.7076
  641MOL0     H84602   4.252   8.193   7.439 -0.7686 -0.6010 -1.9520
  641MOL0     H84603   4.096   8.264   7.470  1.6325  2.5750 -4.3155
  641MOL0     H84604   4.162   8.263   7.254  1.9284 -0.9338  0.1312
  641MOL0     H84605   4.208   8.095   7.253  0.0439  0.6907 -1.6660
  641MOL0     H84606   3.920   8.207   7.262  1.6618  1.4057 -2.0965
  641MOL0     H84607   3.946   8.045   7.303  1.4628 -1.5330  0.8242
  641MOL0     H84608   3.901   8.119   7.057  0.3568 -0.7742 -0.1006
  641MOL0     H84609   4.061   8.176   7.045 -1.5405 -0.8636 -2.6801
  641MOL0     H84610   4.079   7.767   6.962 -1.9492 -1.8133  2.4627
  641MOL0     H84611   3.913   8.225   7.529  0.7315 -0.9983  0.2677
  641MOL0     H84612   3.693   8.185   7.617  1.4696  1.8788 -0.7712
  642MOL0     O84613   3.400   3.924   2.662 -0.8755  0.1030 -0.0804
  642MOL0     C84614   3.337   3.876   2.754 -0.8630 -0.2374 -0.4470
  642MOL0     O84615   3.394   3.801   2.855  0.3540  0.1083  0.8048
  642MOL0     C84616   3.512   3.736   2.836 -0.1474  0.0522 -0.1948
  642MOL0     C84617   3.588   3.712   2.943  0.1129 -0.4899  0.0165
  642MOL0     C84618   3.703   3.630   2.940  0.1363 -0.4684  0.0150
  642MOL0     C84619   3.742   3.563   2.824  0.3762  0.0742 -0.0648
  642MOL0     O84620   3.853   3.483   2.814  0.0466  0.9918  0.7337
  642MOL0     C84621   3.953   3.522   2.720 -0.1295 -0.1301 -0.2848
  642MOL0     C84622   4.090   3.549   2.786  0.6978 -0.2764  0.1941
  642MOL0     C84623   4.194   3.559   2.676 -0.4069  0.6481 -0.2069
  642MOL0     C84624   4.332   3.583   2.735  0.1248  0.0144 -0.2650
  642MOL0     C84625   4.440   3.601   2.623 -0.1390  0.3816  0.1671
  642MOL0     C84626   4.472   3.470   2.550  0.6914  0.1446 -0.0494
  642MOL0     C84627   4.588   3.502   2.450 -0.4445  0.0038 -0.3312
  642MOL0     C84628   4.726   3.489   2.521 -0.3020 -0.4919  0.0887
  642MOL0     N84629   4.825   3.448   2.425  0.3450 -1.4782  0.7091
  642MOL0     C84630   4.832   3.492   2.288 -0.4771 -0.0230 -0.5091
  642MOL0     C84631   4.912   3.412   2.226 -0.6206  0.0827  0.0487
  642MOL0     C84632   4.946   3.417   2.081 -0.0726  0.6200 -1.1406
  642MOL0     C84633   4.827   3.347   2.007  0.3746 -0.0223  0.0067
  642MOL0     C84634   4.751   3.463   1.931 -0.0613 -0.7130  0.3887
  642MOL0     C84635   4.645   3.412   1.834  0.0015  0.0343 -0.8466
  642MOL0     O84636   4.583   3.293   1.895  0.5078  0.2691 -0.3581
  642MOL0     C84637   4.470   3.316   1.968 -0.0829  0.5421 -0.7711
  642MOL0     C84638   4.473   3.273   2.103 -0.7936  0.1571 -0.0900
  642MOL0     C84639   4.362   3.296   2.191 -0.1072 -0.5422  0.1639
  642MOL0     C84640   4.239   3.348   2.143 -0.1500 -1.3947 -0.2724
  642MOL0     C84641   4.111   3.342   2.219 -0.7060  0.8311 -0.2853
  642MOL0     O84642   3.998   3.384   2.158 -0.0147 -0.0803  0.6723
  642MOL0     C84643   3.880   3.389   2.225  0.0980  0.1081  0.0778
  642MOL0     C84644   3.802   3.278   2.219  0.3583 -0.4016  0.0613
  642MOL0     C84645   3.676   3.288   2.288  0.9504 -0.2069  0.0466
  642MOL0     C84646   3.629   3.409   2.342 -0.2404  0.3177  0.4986
  642MOL0     O84647   3.502   3.433   2.392  0.1716 -1.0365 -0.0496
  642MOL0     C84648   3.446   3.320   2.451  0.4859 -0.2828  0.0852
  642MOL0     C84649   3.362   3.360   2.572 -0.3471  1.4394 -0.3779
  642MOL0     C84650   3.229   3.429   2.549  0.2198 -0.3997  0.0598
  642MOL0     C84651   3.130   3.423   2.667 -0.8414  0.0697 -0.1807
  642MOL0     C84652   2.995   3.501   2.652 -0.3284  0.7872  0.4291
  642MOL0     C84653   2.946   3.510   2.799  0.1934 -0.4021  0.6127
  642MOL0     C84654   2.793   3.545   2.795 -0.4474  0.9714  0.1502
  642MOL0     C84655   2.737   3.570   2.935  0.4223  0.0394 -0.5251
  642MOL0    Cl84656   2.745   3.403   3.003 -0.1751 -0.0911 -0.2237
  642MOL0     C84657   3.723   3.517   2.349 -0.8156 -0.1958 -0.3400
  642MOL0     C84658   3.848   3.511   2.285 -0.3380  0.6790  0.2455
  642MOL0     O84659   4.118   3.312   2.337  0.8400  0.3928 -0.2839
  642MOL0     C84660   4.235   3.391   2.008 -0.2190  0.3038  0.9570
  642MOL0     C84661   4.350   3.377   1.927 -0.2408 -0.0543 -0.5650
  642MOL0     N84662   4.976   3.338   2.326  0.1518  0.8461  0.4721
  642MOL0     N84663   4.915   3.353   2.442 -0.8098  1.0140 -0.2165
  642MOL0     C84664   3.664   3.596   2.708  0.0909  0.5723 -0.0990
  642MOL0     C84665   3.543   3.678   2.714 -0.0438 -0.0249  0.4488
  642MOL0     C84666   3.195   3.904   2.753 -0.0733 -0.1611 -0.0697
  642MOL0     C84667   3.134   3.989   2.662  0.8385  0.9154  0.5038
  642MOL0     C84668   2.993   3.999   2.669 -1.3435 -0.4416  0.3479
  642MOL0     C84669   2.912   3.946   2.764  0.2942 -0.3867  0.6015
  642MOL0     O84670   2.783   3.982   2.758  0.9993 -0.1125  0.0972
  642MOL0     C84671   2.699   3.967   2.874  1.1834  0.1204 -0.1077
  642MOL0     C84672   2.559   3.904   2.838 -0.0297  0.1940 -0.7107
  642MOL0     C84673   2.484   3.999   2.739  0.4507  0.0545 -0.2593
  642MOL0     C84674   2.332   3.952   2.716 -0.1297 -0.7945 -0.1497
  642MOL0     C84675   2.258   4.059   2.641 -1.0833  0.0628  0.0093
  642MOL0     C84676   2.201   4.140   2.577  0.4623  0.1806  0.4208
  642MOL0     C84677   2.978   3.862   2.850 -0.5538 -0.0968 -0.1630
  642MOL0     C84678   3.117   3.852   2.859 -0.3247  0.2116  0.3971
  642MOL0     H84679   3.546   3.750   3.036 -1.9569  0.3946 -1.2190
  642MOL0     H84680   3.757   3.613   3.032 -0.2400  1.9757  0.7424
  642MOL0     H84681   3.921   3.611   2.664 -1.7044 -0.7761 -0.4568
  642MOL0     H84682   3.962   3.440   2.649 -3.1417 -1.0757  0.3001
  642MOL0     H84683   4.097   3.465   2.855 -2.8883 -1.0902 -0.2182
  642MOL0     H84684   4.084   3.642   2.843 -2.7800 -0.2294 -0.0117
  642MOL0     H84685   4.169   3.640   2.606 -0.3044  3.2790  2.6019
  642MOL0     H84686   4.198   3.462   2.624 -1.4722 -1.3466  3.1331
  642MOL0     H84687   4.330   3.675   2.794 -0.4546 -0.0046 -0.2460
  642MOL0     H84688   4.354   3.502   2.806  0.1054  0.4468  0.2413
  642MOL0     H84689   4.531   3.623   2.681 -0.4010 -1.4548  1.3476
  642MOL0     H84690   4.404   3.678   2.554  0.2715  0.1782 -0.2762
  642MOL0     H84691   4.381   3.440   2.496  0.4620  0.4279  0.1783
  642MOL0     H84692   4.486   3.397   2.631 -1.0631 -0.2244 -0.0414
  642MOL0     H84693   4.599   3.432   2.368  3.0537 -1.2335  1.0058
  642MOL0     H84694   4.586   3.607   2.420 -3.3040 -0.3324 -1.5541
  642MOL0     H84695   4.713   3.406   2.591 -2.1846 -0.6750 -0.4211
  642MOL0     H84696   4.745   3.585   2.569  2.4671 -0.5088 -0.8363
  642MOL0     H84697   4.769   3.573   2.253 -3.2320 -0.5183  2.8025
  642MOL0     H84698   5.037   3.360   2.063  1.9135  3.4179 -0.7666
  642MOL0     H84699   4.975   3.519   2.054  4.3519 -0.9219 -3.1455
  642MOL0     H84700   4.761   3.285   2.068  0.9422 -1.9819 -1.2564
  642MOL0     H84701   4.876   3.284   1.932 -2.3416  1.4434 -3.2369
  642MOL0     H84702   4.700   3.521   2.008  1.4275  2.8254 -1.1140
  642MOL0     H84703   4.815   3.534   1.878  0.4721 -2.0285 -0.8133
  642MOL0     H84704   4.699   3.391   1.742  2.7589 -0.0016  0.6838
  642MOL0     H84705   4.568   3.488   1.815 -0.8738 -0.9845 -1.4521
  642MOL0     H84706   4.568   3.237   2.140  0.1443  0.8925 -1.6698
  642MOL0     H84707   4.368   3.283   2.299 -2.5795  3.6881  1.0619
  642MOL0     H84708   3.841   3.189   2.169  1.7147  0.1293  0.1314
  642MOL0     H84709   3.618   3.196   2.290  0.3134  0.1865  2.0302
  642MOL0     H84710   3.524   3.253   2.489  0.1243  0.3598  2.0950
  642MOL0     H84711   3.380   3.271   2.378  0.5484  0.2285 -0.3168
  642MOL0     H84712   3.431   3.417   2.634 -1.9460  2.5701  0.4140
  642MOL0     H84713   3.326   3.272   2.626 -2.6660  0.9317 -2.5682
  642MOL0     H84714   3.173   3.381   2.468  0.7423  0.0170 -0.5640
  642MOL0     H84715   3.248   3.533   2.520 -0.2564  0.1784  1.6988
  642MOL0     H84716   3.110   3.317   2.685  1.5518 -0.7967 -2.0997
  642MOL0     H84717   3.187   3.462   2.752 -2.6937 -1.5198  1.9167
  642MOL0     H84718   2.926   3.449   2.584 -1.7436  0.4363  2.0654
  642MOL0     H84719   3.008   3.601   2.610  0.4679  1.4796  2.2523
  642MOL0     H84720   2.999   3.592   2.848 -0.2686  0.6025 -0.5146
  642MOL0     H84721   2.967   3.418   2.853 -1.1675 -2.9298 -2.8094
  642MOL0     H84722   2.784   3.630   2.727  3.3092  0.0971 -1.6955
  642MOL0     H84723   2.740   3.460   2.752  2.0275 -1.3571  1.4530
  642MOL0     H84724   2.640   3.621   2.940 -1.2858 -3.1096  1.7012
  642MOL0     H84725   2.802   3.632   2.997  1.5397 -0.7943 -0.8366
  642MOL0     H84726   3.701   3.603   2.411  2.7088 -1.7304  3.6128
  642MOL0     H84727   3.925   3.587   2.295 -0.9426  1.1518  1.6057
  642MOL0     H84728   4.153   3.438   1.955  2.6347  1.4232 -2.8920
  642MOL0     H84729   4.341   3.416   1.827 -0.7831 -0.0915 -0.5352
  642MOL0     H84730   3.697   3.543   2.619  1.8471  3.1046 -1.0686
  642MOL0     H84731   3.480   3.692   2.626 -1.6857  1.4382  1.7893
  642MOL0     H84732   3.187   4.050   2.590  2.3601  0.9176  1.5611
  642MOL0     H84733   2.957   4.045   2.577 -2.5032 -1.1988  0.4083
  642MOL0     H84734   2.692   4.066   2.921 -0.9123 -0.5203  1.0773
  642MOL0     H84735   2.743   3.911   2.957 -0.3004 -0.6837  0.1836
  642MOL0     H84736   2.578   3.808   2.789  1.3224 -0.1425  0.4112
  642MOL0     H84737   2.487   3.882   2.918 -1.7803  3.2424 -1.3045
  642MOL0     H84738   2.528   4.003   2.639 -1.3881  0.8197 -1.0871
  642MOL0     H84739   2.480   4.098   2.787  0.6597  0.0868 -0.3079
  642MOL0     H84740   2.325   3.855   2.667 -4.4365 -0.3804 -0.8109
  642MOL0     H84741   2.280   3.943   2.812  1.9314  1.1889  1.2456
  642MOL0     H84742   2.130   4.202   2.526 -1.2883  1.7278  4.3061
  642MOL0     H84743   2.915   3.813   2.923  0.6759  0.7181  1.5296
  642MOL0     H84744   3.154   3.791   2.942 -2.0011 -1.7405 -0.1929
  643MOL0     O84745  10.245   6.994   1.430  0.1230 -1.1695  0.2938
  643MOL0     C84746  10.177   6.904   1.396  0.4082 -0.3149  0.3325
  643MOL0     O84747  10.058   6.873   1.454 -0.0820 -0.0904 -0.4200
  643MOL0     C84748  10.011   6.940   1.564 -1.0100  0.5384  0.2118
  643MOL0     C84749   9.879   6.988   1.558  0.0444  0.4621 -0.3998
  643MOL0     C84750   9.832   7.064   1.666  0.0610 -0.8299 -1.0692
  643MOL0     C84751   9.905   7.082   1.786  0.7626  0.0521 -0.6072
  643MOL0     O84752   9.860   7.165   1.891 -0.0729  0.6869 -0.1424
  643MOL0     C84753   9.915   7.163   2.030  0.3481 -0.2467  0.1901
  643MOL0     C84754   9.862   7.261   2.141  0.8806 -0.1731  0.5613
  643MOL0     C84755   9.710   7.288   2.137  0.1811  1.0471  0.3443
  643MOL0     C84756   9.665   7.393   2.237 -0.0294  0.2152  0.1334
  643MOL0     C84757   9.515   7.414   2.222 -0.5845 -0.1935  0.0537
  643MOL0     C84758   9.465   7.544   2.289  0.1605  0.1936 -0.1030
  643MOL0     C84759   9.493   7.568   2.440  0.0912 -0.5217  0.4231
  643MOL0     C84760   9.415   7.696   2.490  1.1571  1.0603  0.5866
  643MOL0     N84761   9.269   7.679   2.476 -0.0611  1.0846 -0.7075
  643MOL0     C84762   9.175   7.754   2.412  0.0077 -0.0303 -0.3164
  643MOL0     C84763   9.055   7.703   2.449 -0.4943  0.2569  0.6132
  643MOL0     C84764   8.938   7.736   2.360 -1.1185  0.4069 -0.7185
  643MOL0     C84765   8.822   7.797   2.431 -1.3617  0.6721 -0.2693
  643MOL0     C84766   8.708   7.855   2.347  0.1554 -0.2784 -0.0097
  643MOL0     C84767   8.621   7.954   2.423 -0.1161  0.3848 -0.1377
  643MOL0     O84768   8.511   7.984   2.330 -0.2300 -0.3038  0.2939
  643MOL0     C84769   8.382   7.961   2.382 -0.1032  0.3140  1.1138
  643MOL0     C84770   8.279   8.058   2.370  0.2645 -0.7046 -0.7312
  643MOL0     C84771   8.148   8.044   2.424 -1.0196 -0.6026 -0.1944
  643MOL0     C84772   8.106   7.918   2.462 -0.9773  0.6166  0.2258
  643MOL0     C84773   7.963   7.899   2.495 -0.1353 -0.4849 -0.1517
  643MOL0     O84774   7.885   8.013   2.501  0.1033 -0.0719 -0.0982
  643MOL0     C84775   7.762   7.995   2.559  0.1817 -0.5593 -0.5797
  643MOL0     C84776   7.647   7.967   2.483  1.2113  0.3606  0.2782
  643MOL0     C84777   7.526   7.919   2.548 -0.3823 -0.5953  0.6310
  643MOL0     C84778   7.512   7.924   2.686  0.2103  0.5282  0.3164
  643MOL0     O84779   7.394   7.895   2.748  0.0613 -0.2239 -0.0899
  643MOL0     C84780   7.346   7.762   2.724  0.4114 -0.3319 -0.3355
  643MOL0     C84781   7.206   7.737   2.794  0.3032  0.2852  0.3827
  643MOL0     C84782   7.112   7.847   2.798 -0.1496 -0.1014 -0.0030
  643MOL0     C84783   6.977   7.787   2.842  0.0944  0.2732  0.1646
  643MOL0     C84784   6.863   7.885   2.851 -0.1639  0.4698 -0.0200
  643MOL0     C84785   6.890   8.012   2.928  0.6384  0.2704 -0.0244
  643MOL0     C84786   6.772   8.113   2.901  0.7965 -0.6762 -0.6046
  643MOL0     C84787   6.657   8.097   3.003 -0.6223 -0.0700  1.1183
  643MOL0    Cl84788   6.553   7.960   2.954  0.4328 -0.1134  0.0793
  643MOL0     C84789   7.624   7.959   2.762 -0.3115 -0.1005 -0.6737
  643MOL0     C84790   7.744   8.000   2.697 -0.4004  0.4444 -0.2498
  643MOL0     O84791   7.926   7.787   2.517 -0.4626 -0.7201  0.4488
  643MOL0     C84792   8.199   7.805   2.457 -0.3943  0.0764  0.6317
  643MOL0     C84793   8.337   7.837   2.420  0.3506  0.1277 -0.4134
  643MOL0     N84794   9.078   7.594   2.531  0.6675  0.1873 -0.7487
  643MOL0     N84795   9.204   7.577   2.549 -0.5127 -0.3631 -0.0056
  643MOL0     C84796  10.032   7.023   1.800 -0.8552 -0.8812  0.1514
  643MOL0     C84797  10.094   6.965   1.685  1.3622 -0.1956 -0.0074
  643MOL0     C84798  10.229   6.810   1.295 -0.8201  0.2078  0.0795
  643MOL0     C84799  10.166   6.686   1.260  0.5849 -1.0831  0.2214
  643MOL0     C84800  10.217   6.597   1.166  0.6082  0.1259 -0.1963
  643MOL0     C84801  10.340   6.624   1.106 -0.6048 -0.3790 -0.3880
  643MOL0     O84802  10.402   6.538   1.012  0.3601  1.2064 -0.8028
  643MOL0     C84803  10.329   6.417   0.968  0.6191  0.6229  0.1490
  643MOL0     C84804  10.408   6.371   0.845  0.7029  0.0015 -0.2391
  643MOL0     C84805  10.493   6.247   0.891  0.4697 -0.1428  0.5544
  643MOL0     C84806  10.608   6.221   0.792  1.0710  0.6897  0.4973
  643MOL0     C84807  10.565   6.136   0.685  1.4023  0.2976 -0.7318
  643MOL0     C84808  10.521   6.063   0.602  0.1185 -0.8794  0.5492
  643MOL0     C84809  10.408   6.736   1.146  0.3181 -0.1427 -0.1199
  643MOL0     C84810  10.356   6.832   1.232  0.0370  0.2273 -0.6318
  643MOL0     H84811   9.813   6.960   1.476 -0.1984 -3.0467  0.8291
  643MOL0     H84812   9.736   7.112   1.652  1.4243  2.5779  0.1808
  643MOL0     H84813  10.018   7.193   2.010  0.7258 -2.6485 -2.0422
  643MOL0     H84814   9.898   7.059   2.056  3.0937 -1.0651 -0.9610
  643MOL0     H84815   9.916   7.355   2.134  1.0806 -0.2383  1.1266
  643MOL0     H84816   9.879   7.220   2.241 -1.4212  3.1797  2.5137
  643MOL0     H84817   9.656   7.193   2.141  0.7303  0.7472  0.6193
  643MOL0     H84818   9.686   7.327   2.037 -1.2334  2.0319  1.0174
  643MOL0     H84819   9.692   7.364   2.339 -0.0293  1.9132  0.6519
  643MOL0     H84820   9.721   7.485   2.218 -1.1147  0.6051 -1.4763
  643MOL0     H84821   9.460   7.333   2.270  1.0569 -0.8065  0.9611
  643MOL0     H84822   9.489   7.418   2.115 -2.1390 -2.3363  0.2788
  643MOL0     H84823   9.355   7.551   2.290 -0.0957 -2.0494  2.7702
  643MOL0     H84824   9.501   7.623   2.222  0.6031 -2.3572 -3.0916
  643MOL0     H84825   9.466   7.484   2.504 -0.4434  0.7005  1.8492
  643MOL0     H84826   9.601   7.582   2.449  0.2199 -1.3911  0.3492
  643MOL0     H84827   9.427   7.784   2.427 -3.4124  1.1562 -0.4993
  643MOL0     H84828   9.435   7.717   2.596 -0.9832 -1.2461  1.5485
  643MOL0     H84829   9.210   7.828   2.341 -0.9319 -0.9066 -1.7478
  643MOL0     H84830   8.895   7.643   2.320 -2.1132  0.1669  0.8402
  643MOL0     H84831   8.971   7.798   2.276 -3.1745  1.2693 -0.9429
  643MOL0     H84832   8.883   7.865   2.491  2.1043 -1.4381 -1.0607
  643MOL0     H84833   8.781   7.722   2.500  1.0015 -0.4052  0.0776
  643MOL0     H84834   8.751   7.901   2.258 -0.3589  0.9941  0.3780
  643MOL0     H84835   8.635   7.777   2.322 -0.3065  0.0351  0.3296
  643MOL0     H84836   8.685   8.042   2.434 -0.1169  0.2459  1.0808
  643MOL0     H84837   8.579   7.930   2.521  0.2669 -0.3426 -0.1468
  643MOL0     H84838   8.301   8.158   2.334 -0.5958 -0.0390  0.5151
  643MOL0     H84839   8.078   8.125   2.405 -0.0077 -0.0435 -1.7832
  643MOL0     H84840   7.634   7.971   2.376  1.2053 -1.0085  0.2134
  643MOL0     H84841   7.432   7.907   2.496 -0.2011  1.8690 -0.3712
  643MOL0     H84842   7.415   7.680   2.746  1.7307  0.6620 -0.6295
  643MOL0     H84843   7.314   7.758   2.620  0.1624  0.0320 -0.2763
  643MOL0     H84844   7.226   7.696   2.893  4.2506 -2.9766 -1.4840
  643MOL0     H84845   7.161   7.654   2.737 -0.3895 -0.3897  1.8662
  643MOL0     H84846   7.114   7.897   2.701  0.7913  0.6480  0.3804
  643MOL0     H84847   7.165   7.913   2.868 -0.6913  0.0758  0.2403
  643MOL0     H84848   6.964   7.702   2.776 -0.3604  0.6510 -0.2347
  643MOL0     H84849   6.997   7.750   2.943 -0.1634  2.6170  1.1456
  643MOL0     H84850   6.770   7.835   2.878 -0.3030 -1.2177 -3.1399
  643MOL0     H84851   6.845   7.916   2.747  0.8739  0.6423 -0.1600
  643MOL0     H84852   6.987   8.051   2.893  3.6263 -3.5868  3.0178
  643MOL0     H84853   6.912   7.996   3.034 -0.5025 -0.2311  0.1442
  643MOL0     H84854   6.800   8.218   2.915  0.4411 -0.3282 -2.2568
  643MOL0     H84855   6.728   8.114   2.801 -0.8458 -1.5079  0.0834
  643MOL0     H84856   6.593   8.185   3.004 -0.5770 -0.0137  0.2848
  643MOL0     H84857   6.694   8.072   3.103 -0.6350 -2.5751  0.5649
  643MOL0     H84858   7.628   7.975   2.869 -0.4525  0.2519 -0.7187
  643MOL0     H84859   7.822   8.035   2.765 -2.0475  3.1775  0.3806
  643MOL0     H84860   8.166   7.706   2.487  0.0297  0.7483  3.6843
  643MOL0     H84861   8.403   7.752   2.405 -1.1915 -1.2134  0.1024
  643MOL0     H84862  10.105   7.022   1.880  2.6007 -5.0234 -2.5968
  643MOL0     H84863  10.193   6.920   1.685  0.9232 -1.1993 -0.8376
  643MOL0     H84864  10.068   6.653   1.293  0.6726 -0.3383  1.2685
  643MOL0     H84865  10.152   6.519   1.128  0.6326 -0.8685  1.7052
  643MOL0     H84866  10.225   6.439   0.943  0.2886  1.2932  1.9365
  643MOL0     H84867  10.320   6.343   1.048  1.9079 -0.3389 -0.5600
  643MOL0     H84868  10.348   6.333   0.762  3.0411  0.0404 -2.0450
  643MOL0     H84869  10.469   6.452   0.803 -0.0590  1.1758  0.8423
  643MOL0     H84870  10.434   6.156   0.902 -2.2637  1.1069 -2.2534
  643MOL0     H84871  10.538   6.277   0.986  0.7820  1.9402 -0.1901
  643MOL0     H84872  10.623   6.315   0.737 -3.2225  1.9072  1.0187
  643MOL0     H84873  10.698   6.175   0.834  0.7959 -0.2853  0.0370
  643MOL0     H84874  10.472   6.022   0.515 -2.3674 -0.5677  1.7016
  643MOL0     H84875  10.510   6.751   1.113  0.3446 -1.6888 -0.8561
  643MOL0     H84876  10.415   6.920   1.256  0.9458 -0.3564 -0.6695
  644MOL0     O84877   2.969   8.643   7.152  0.4519  0.1117 -0.4810
  644MOL0     C84878   3.008   8.618   7.034 -0.0045  0.1575 -0.3755
  644MOL0     O84879   2.924   8.602   6.928  0.6129 -0.1800  0.0565
  644MOL0     C84880   2.793   8.606   6.949  0.0861  0.0748 -0.3807
  644MOL0     C84881   2.722   8.667   6.845 -1.0229 -0.1027 -0.4132
  644MOL0     C84882   2.583   8.670   6.844 -0.3400 -1.0421 -0.1108
  644MOL0     C84883   2.506   8.618   6.943  0.0324 -0.0364 -0.2536
  644MOL0     O84884   2.372   8.628   6.913 -0.6973  0.7488 -0.3138
  644MOL0     C84885   2.275   8.584   7.015  0.3080  0.2856 -0.0909
  644MOL0     C84886   2.244   8.684   7.118 -0.7361 -0.1562 -0.6259
  644MOL0     C84887   2.128   8.629   7.207 -0.4136 -0.3915  0.2390
  644MOL0     C84888   2.143   8.702   7.343  0.1345 -0.0200 -0.3211
  644MOL0     C84889   2.012   8.697   7.421  0.2058 -0.6420  0.3930
  644MOL0     C84890   1.882   8.773   7.355 -0.7687  0.6216 -1.6877
  644MOL0     C84891   1.769   8.744   7.449  0.6783  0.0245  0.0549
  644MOL0     C84892   1.777   8.849   7.567  1.0434 -0.6352 -0.0185
  644MOL0     N84893   1.688   8.808   7.669  0.7835  0.3378 -0.4648
  644MOL0     C84894   1.571   8.874   7.706 -0.5718 -0.1810 -0.5313
  644MOL0     C84895   1.567   8.862   7.838 -0.8684  0.0355  0.4377
  644MOL0     C84896   1.458   8.919   7.917  0.8323 -0.2402  0.0936
  644MOL0     C84897   1.325   8.832   7.922 -0.7191 -0.4141  0.6111
  644MOL0     C84898   1.201   8.902   7.969 -0.5573  0.8497 -0.1787
  644MOL0     C84899   1.082   8.809   8.018 -0.1677  0.0126  0.1399
  644MOL0     O84900   1.001   8.758   7.918  0.1409  0.0739 -0.5662
  644MOL0     C84901   0.880   8.813   7.881  0.5776  0.3306  0.0996
  644MOL0     C84902   0.788   8.716   7.827  0.7001 -0.8234  0.2326
  644MOL0     C84903   0.656   8.763   7.784 -0.3236  0.5052  0.0850
  644MOL0     C84904   0.616   8.896   7.800  0.3360  0.3999 -0.5240
  644MOL0     C84905   0.482   8.938   7.749 -0.0492  0.2420  0.7991
  644MOL0     O84906   0.485   9.052   7.673  0.2378 -0.0923  0.0832
  644MOL0     C84907   0.376   9.074   7.594  0.3545  0.0959  0.5355
  644MOL0     C84908   0.240   9.070   7.633 -0.5132  0.2491  0.3058
  644MOL0     C84909   0.138   9.096   7.543 -0.6447  0.0316  0.1769
  644MOL0     C84910   0.169   9.122   7.405  0.7535  0.1352  0.2608
  644MOL0     O84911   0.069   9.139   7.308  0.4455 -0.5246 -0.1182
  644MOL0     C84912  -0.009   9.251   7.338  0.6460 -1.0749 -0.1502
  644MOL0     C84913  -0.120   9.247   7.235 -1.0445 -0.0554 -0.7395
  644MOL0     C84914  -0.236   9.162   7.274 -0.0539  0.1633 -0.4143
  644MOL0     C84915  -0.314   9.090   7.161 -0.4465 -0.4482 -1.0456
  644MOL0     C84916  -0.391   9.189   7.086  0.2355 -0.4397  0.0261
  644MOL0     C84917  -0.547   9.161   7.096  0.7561 -0.1672  0.8657
  644MOL0     C84918  -0.630   9.254   7.017 -0.0191  0.0555 -0.1666
  644MOL0     C84919  -0.665   9.377   7.087 -0.3440  0.3272  0.0835
  644MOL0    Cl84920  -0.670   9.503   6.959  0.0330 -0.4082 -0.1582
  644MOL0     C84921   0.298   9.111   7.361 -0.3149 -2.0926  0.0958
  644MOL0     C84922   0.402   9.088   7.455 -0.9423 -0.9327 -0.3274
  644MOL0     O84923   0.395   8.853   7.752 -0.2318 -0.1171 -0.2426
  644MOL0     C84924   0.711   8.989   7.844  0.0107  0.2351  0.1021
  644MOL0     C84925   0.839   8.943   7.891 -0.6464 -0.3639  0.5037
  644MOL0     N84926   1.665   8.777   7.881 -0.3313  0.6782  0.5958
  644MOL0     N84927   1.735   8.747   7.776  0.1495 -0.1578 -0.5136
  644MOL0     C84928   2.574   8.552   7.043 -0.5234  0.0676 -0.6540
  644MOL0     C84929   2.717   8.534   7.046 -0.1669  0.3499 -0.2962
  644MOL0     C84930   3.149   8.593   7.008 -0.0800 -0.3071  1.0017
  644MOL0     C84931   3.183   8.533   6.885 -0.1888  0.8353 -0.4661
  644MOL0     C84932   3.312   8.504   6.846  0.6547 -0.5071 -0.6790
  644MOL0     C84933   3.416   8.531   6.936 -0.1975  0.9670 -0.3500
  644MOL0     O84934   3.552   8.534   6.914  0.2800  0.0055 -0.1878
  644MOL0     C84935   3.602   8.504   6.784 -0.0165  0.3507  1.0513
  644MOL0     C84936   3.579   8.361   6.747  0.1995  0.8615  0.0098
  644MOL0     C84937   3.650   8.323   6.607 -0.1337 -0.0805  0.1062
  644MOL0     C84938   3.646   8.174   6.587 -0.3469 -0.4385  0.1752
  644MOL0     C84939   3.517   8.118   6.581 -0.1567 -0.1039  0.2566
  644MOL0     C84940   3.407   8.076   6.568 -0.1871 -0.3488  0.3907
  644MOL0     C84941   3.378   8.582   7.059 -0.2362 -0.1676  0.9053
  644MOL0     C84942   3.247   8.619   7.092 -0.7062 -0.5193  0.1530
  644MOL0     H84943   2.766   8.709   6.755 -0.6853 -0.4590 -0.4152
  644MOL0     H84944   2.542   8.725   6.759  1.6785  0.9861  0.1066
  644MOL0     H84945   2.318   8.495   7.061  0.6850  1.1806  1.3271
  644MOL0     H84946   2.179   8.553   6.972 -2.0110 -0.3472  4.8759
  644MOL0     H84947   2.216   8.783   7.082  1.5018  0.2168 -1.4951
  644MOL0     H84948   2.337   8.690   7.175 -0.4083  0.6532 -1.2356
  644MOL0     H84949   2.141   8.523   7.232  3.6376 -0.2363 -0.5678
  644MOL0     H84950   2.031   8.642   7.157  1.2926 -1.6706 -3.7992
  644MOL0     H84951   2.230   8.665   7.398  0.2256  0.0824 -0.3977
  644MOL0     H84952   2.159   8.807   7.316 -0.5205  0.0867 -0.3074
  644MOL0     H84953   2.038   8.727   7.523  0.5154 -0.3432  0.2293
  644MOL0     H84954   1.976   8.594   7.433 -1.0245 -0.3055 -0.1897
  644MOL0     H84955   1.845   8.728   7.262 -2.6514 -0.3048 -0.5544
  644MOL0     H84956   1.895   8.879   7.333 -1.8013  1.2146  0.4067
  644MOL0     H84957   1.671   8.759   7.404  1.3236  2.4672 -0.6611
  644MOL0     H84958   1.785   8.643   7.489  0.4182  1.1401  3.2672
  644MOL0     H84959   1.743   8.945   7.528 -0.5192 -1.1864 -0.1140
  644MOL0     H84960   1.881   8.857   7.597  1.3396  1.7924 -1.4971
  644MOL0     H84961   1.499   8.922   7.640 -2.7062 -1.3616  0.8055
  644MOL0     H84962   1.438   9.021   7.881  1.4335 -0.5800 -1.2707
  644MOL0     H84963   1.500   8.927   8.018  3.5260  1.1914 -1.0375
  644MOL0     H84964   1.355   8.752   7.990 -0.6782  0.5933  1.8049
  644MOL0     H84965   1.307   8.803   7.818 -2.3271 -0.2243  0.8144
  644MOL0     H84966   1.241   8.963   8.050  1.8434 -1.9562  0.9657
  644MOL0     H84967   1.167   8.974   7.895 -0.0003 -0.1885 -1.4848
  644MOL0     H84968   1.025   8.876   8.083  0.6391  2.2905 -1.3688
  644MOL0     H84969   1.125   8.732   8.082  3.3974  2.2176  0.7355
  644MOL0     H84970   0.816   8.614   7.802  0.0889 -1.7282  2.8753
  644MOL0     H84971   0.588   8.684   7.752  0.7030 -1.4873  2.4848
  644MOL0     H84972   0.204   9.039   7.730  0.0921 -1.0280  0.1479
  644MOL0     H84973   0.032   9.095   7.567 -0.9659 -0.8433 -1.1339
  644MOL0     H84974   0.048   9.341   7.316 -2.2451  1.3316  1.5734
  644MOL0     H84975  -0.043   9.259   7.442  1.7651 -2.5189  0.3610
  644MOL0     H84976  -0.077   9.211   7.141 -4.3487 -1.9886 -1.6660
  644MOL0     H84977  -0.156   9.348   7.216  1.5886  0.7975 -1.6339
  644MOL0     H84978  -0.303   9.213   7.343  1.8512  1.9701  0.1960
  644MOL0     H84979  -0.195   9.082   7.338 -1.1545  1.4043  1.9861
  644MOL0     H84980  -0.243   9.040   7.094 -1.4554 -2.3935 -0.7536
  644MOL0     H84981  -0.382   9.014   7.203 -1.9827  1.4322  0.0522
  644MOL0     H84982  -0.359   9.192   6.981 -4.9844 -0.5894 -1.8741
  644MOL0     H84983  -0.374   9.289   7.128 -1.8324 -0.0389  0.0032
  644MOL0     H84984  -0.577   9.156   7.201  3.0239 -2.2882  1.5065
  644MOL0     H84985  -0.562   9.065   7.045  1.3799 -0.3918  1.1013
  644MOL0     H84986  -0.569   9.281   6.931  2.6844 -0.1345  1.5573
  644MOL0     H84987  -0.729   9.218   6.990 -1.8087  1.9664  3.0996
  644MOL0     H84988  -0.594   9.403   7.166 -1.9100 -1.8380  2.3695
  644MOL0     H84989  -0.754   9.360   7.148 -0.9045 -0.9183 -1.0194
  644MOL0     H84990   0.326   9.130   7.258  0.8749 -0.1222  0.7148
  644MOL0     H84991   0.504   9.087   7.420 -1.0749 -0.8362 -0.7188
  644MOL0     H84992   0.694   9.095   7.855  4.5415  1.5465 -2.9361
  644MOL0     H84993   0.910   9.011   7.939  1.2741 -1.9815  0.0692
  644MOL0     H84994   2.516   8.508   7.123 -0.0786  0.5857 -0.0277
  644MOL0     H84995   2.757   8.486   7.135  0.5149  1.3156 -0.0653
  644MOL0     H84996   3.110   8.510   6.808  1.0872 -0.1643 -1.4115
  644MOL0     H84997   3.317   8.446   6.755 -1.5987 -1.5412 -0.2274
  644MOL0     H84998   3.708   8.529   6.797  0.5765 -1.5016  0.1465
  644MOL0     H84999   3.566   8.572   6.706  2.3730  1.7583  1.0787
  644MOL0     H85000   3.621   8.285   6.812  3.0674 -1.7392 -4.3960
  644MOL0     H85001   3.473   8.332   6.744  0.0705  1.1299  1.3199
  644MOL0     H85002   3.746   8.375   6.598  1.3900 -2.6466  0.6532
  644MOL0     H85003   3.599   8.367   6.521  2.6920  2.0890 -0.6225
  644MOL0     H85004   3.686   8.155   6.486 -2.0880 -0.7804 -0.4791
  644MOL0     H85005   3.712   8.132   6.665  2.4441 -0.2744 -1.9256
  644MOL0     H85006   3.306   8.041   6.557 -0.1817 -0.1050 -0.5881
  644MOL0     H85007   3.455   8.581   7.137  2.4731  0.2978 -1.5906
  644MOL0     H85008   3.218   8.665   7.186  1.0430  0.4012  0.2761
  645MOL0     O85009   2.814   3.040   9.148  0.4518  0.6883 -0.2151
  645MOL0     C85010   2.846   3.108   9.251 -0.7880  0.0790  0.4214
  645MOL0     O85011   2.776   3.131   9.356 -0.1798  0.0329  0.1117
  645MOL0     C85012   2.645   3.088   9.358 -0.1860  0.9028  1.1772
  645MOL0     C85013   2.586   2.986   9.427  0.2918 -0.0621  0.1460
  645MOL0     C85014   2.450   2.957   9.423  0.5239 -0.4228  0.0961
  645MOL0     C85015   2.367   3.037   9.343 -0.1034  0.0203  0.1854
  645MOL0     O85016   2.240   2.997   9.329 -0.2835 -0.4012 -0.2130
  645MOL0     C85017   2.144   3.107   9.316  0.7076  0.1947 -0.1589
  645MOL0     C85018   2.001   3.044   9.341 -0.3938 -0.4163  0.3029
  645MOL0     C85019   1.914   3.127   9.440 -0.0774  0.0264 -0.3106
  645MOL0     C85020   1.775   3.067   9.475  1.8741 -1.2981  0.4950
  645MOL0     C85021   1.701   3.149   9.584 -0.8153 -0.5672 -0.5828
  645MOL0     C85022   1.681   3.297   9.549  0.0418  0.0104 -0.6050
  645MOL0     C85023   1.591   3.374   9.649 -0.1867  0.1027 -0.2071
  645MOL0     C85024   1.433   3.341   9.639 -0.5865  0.1407 -0.5699
  645MOL0     N85025   1.364   3.393   9.758  0.0441  0.0624  0.0979
  645MOL0     C85026   1.317   3.319   9.871 -0.5019 -1.4509  0.5153
  645MOL0     C85027   1.240   3.399   9.938 -0.6221  0.9781 -0.0095
  645MOL0     C85028   1.161   3.386  10.069  0.2212 -0.3811  0.8575
  645MOL0     C85029   1.185   3.277  10.164  0.1472 -0.1598 -0.3543
  645MOL0     C85030   1.087   3.266  10.285 -0.4468 -0.0797 -0.3531
  645MOL0     C85031   1.118   3.391  10.378  0.4065  0.2617 -0.1762
  645MOL0     O85032   1.077   3.372  10.512 -0.1953  0.2461 -0.5712
  645MOL0     C85033   0.944   3.358  10.545  0.0001  0.2609 -0.0959
  645MOL0     C85034   0.921   3.305  10.667 -0.5360 -0.2674 -0.4869
  645MOL0     C85035   0.795   3.280  10.716 -0.1196 -0.0307 -1.0739
  645MOL0     C85036   0.684   3.308  10.633 -0.0066 -0.1455 -0.0060
  645MOL0     C85037   0.551   3.284  10.683  0.9391  0.5471 -0.8464
  645MOL0     O85038   0.448   3.282  10.591  0.4419  0.8602  0.5636
  645MOL0     C85039   0.325   3.319  10.640 -0.5448  0.9995  0.6847
  645MOL0     C85040   0.213   3.238  10.596 -0.3340  0.1240  0.4455
  645MOL0     C85041   0.083   3.257  10.657 -0.0637 -0.6012  0.8779
  645MOL0     C85042   0.063   3.363  10.742 -0.1176  0.8077  0.6711
  645MOL0     O85043  -0.052   3.382  10.816  1.0500 -0.1673 -0.1155
  645MOL0     C85044  -0.170   3.443  10.751 -0.6577 -0.0237  0.6396
  645MOL0     C85045  -0.298   3.429  10.841  0.0533 -0.2166 -0.7203
  645MOL0     C85046  -0.433   3.472  10.785 -0.2499  0.7654 -0.6676
  645MOL0     C85047  -0.544   3.440  10.889  0.1837  0.0463 -0.1944
  645MOL0     C85048  -0.673   3.386  10.825 -0.1289 -0.1140  0.6187
  645MOL0     C85049  -0.766   3.348  10.944 -0.9434 -0.0834  0.5012
  645MOL0     C85050  -0.900   3.284  10.892 -0.5048 -0.0526  1.0969
  645MOL0     C85051  -0.964   3.369  10.779 -0.9744 -0.1067  0.5369
  645MOL0    Cl85052  -0.985   3.529  10.824 -0.0400  0.2267  0.1756
  645MOL0     C85053   0.172   3.438  10.783 -0.1721 -0.0229  0.3249
  645MOL0     C85054   0.303   3.426  10.722  0.1298 -0.1531  0.1070
  645MOL0     O85055   0.542   3.278  10.807  0.5944 -0.3118  1.0182
  645MOL0     C85056   0.702   3.367  10.506  0.0079 -0.0065 -0.5763
  645MOL0     C85057   0.832   3.400  10.465  0.3263 -0.3587  0.2800
  645MOL0     N85058   1.259   3.528   9.892  0.2086 -0.1789  0.3918
  645MOL0     N85059   1.326   3.519   9.780 -0.4925 -0.1498 -0.5488
  645MOL0     C85060   2.426   3.133   9.259  0.8634 -0.7271 -0.0370
  645MOL0     C85061   2.558   3.158   9.275  0.2232  0.3140 -0.0825
  645MOL0     C85062   2.983   3.165   9.262  0.3215  0.0996  0.0377
  645MOL0     C85063   3.099   3.106   9.205 -0.3246 -0.2685  0.2877
  645MOL0     C85064   3.223   3.177   9.198  0.2655 -0.0648 -0.4555
  645MOL0     C85065   3.237   3.303   9.255  0.0391 -0.3710 -0.6499
  645MOL0     O85066   3.348   3.384   9.241 -0.6733  0.4158  0.1936
  645MOL0     C85067   3.433   3.371   9.120 -0.0543  0.5804 -0.2552
  645MOL0     C85068   3.570   3.304   9.144  0.4115 -0.3818 -1.1065
  645MOL0     C85069   3.633   3.258   9.014  0.4190  0.3766 -0.0673
  645MOL0     C85070   3.756   3.190   9.052  0.0581  0.5779  1.3947
  645MOL0     C85071   3.853   3.268   9.120 -0.1413 -0.7853 -0.5040
  645MOL0     C85072   3.933   3.347   9.168  0.0525 -0.7462 -0.0326
  645MOL0     C85073   3.137   3.346   9.338 -0.4552  0.3794  0.3673
  645MOL0     C85074   3.008   3.285   9.331 -0.7262  0.3104  0.3650
  645MOL0     H85075   2.654   2.923   9.484 -1.0519 -1.5571  0.1537
  645MOL0     H85076   2.408   2.874   9.480  1.3006  1.1405  3.1284
  645MOL0     H85077   2.130   3.153   9.218  0.5852  2.2847  0.7660
  645MOL0     H85078   2.155   3.194   9.382 -0.9497  2.4477 -2.6396
  645MOL0     H85079   2.003   2.940   9.373 -0.8553  0.0926  2.0923
  645MOL0     H85080   1.955   3.042   9.242  0.7765 -0.6361 -0.2537
  645MOL0     H85081   1.900   3.224   9.393  1.8020  0.1159 -0.7747
  645MOL0     H85082   1.963   3.132   9.538 -0.3702  1.0323 -0.2124
  645MOL0     H85083   1.707   3.048   9.391  0.1327  1.9569  0.9815
  645MOL0     H85084   1.796   2.969   9.518  1.0305 -0.5219  2.8094
  645MOL0     H85085   1.769   3.133   9.669  1.7107  0.8504 -2.2226
  645MOL0     H85086   1.607   3.095   9.599 -0.7056 -0.7254 -0.4617
  645MOL0     H85087   1.647   3.303   9.445  0.3477  0.8385 -0.6629
  645MOL0     H85088   1.782   3.338   9.557  1.4835 -3.3208  0.2835
  645MOL0     H85089   1.624   3.364   9.752 -1.8075  0.6019  0.3885
  645MOL0     H85090   1.600   3.477   9.613 -3.0080  0.8136  0.8587
  645MOL0     H85091   1.415   3.234   9.648  1.6744 -0.2618 -0.0493
  645MOL0     H85092   1.383   3.381   9.550 -1.9061 -0.9520 -0.3413
  645MOL0     H85093   1.319   3.215   9.901  1.8645 -0.7166  3.4661
  645MOL0     H85094   1.057   3.380  10.036  0.1094  2.2544  0.4764
  645MOL0     H85095   1.171   3.482  10.121 -0.2791 -0.3503  0.8967
  645MOL0     H85096   1.285   3.299  10.203  0.4571 -1.4157 -0.4155
  645MOL0     H85097   1.184   3.179  10.116 -3.2395 -0.9574  1.0598
  645MOL0     H85098   0.982   3.260  10.257 -1.0390 -0.3085  1.7792
  645MOL0     H85099   1.107   3.182  10.353  0.8119 -0.3091 -0.9799
  645MOL0     H85100   1.066   3.474  10.330 -3.0660 -0.7064  1.6301
  645MOL0     H85101   1.227   3.407  10.375  0.2450  1.5880 -3.7271
  645MOL0     H85102   0.995   3.272  10.740 -1.8703 -2.0502  0.1260
  645MOL0     H85103   0.780   3.232  10.812 -1.8203 -1.1600 -1.8425
  645MOL0     H85104   0.235   3.165  10.519  2.3542  1.6711 -0.4264
  645MOL0     H85105  -0.000   3.192  10.633 -1.6102  1.7294 -0.5468
  645MOL0     H85106  -0.182   3.398  10.653  1.3173 -1.8673  1.1632
  645MOL0     H85107  -0.154   3.551  10.745 -2.3098  0.1686 -0.8975
  645MOL0     H85108  -0.288   3.484  10.934  0.8638 -1.5264  0.0006
  645MOL0     H85109  -0.296   3.323  10.869 -0.3926  0.4260  1.9959
  645MOL0     H85110  -0.449   3.422  10.689  2.8859 -3.8625  0.9087
  645MOL0     H85111  -0.432   3.580  10.766  0.5508  0.9860  0.5216
  645MOL0     H85112  -0.514   3.362  10.959 -1.6254  0.4971  1.1695
  645MOL0     H85113  -0.568   3.529  10.948  1.4941 -1.8873  3.5706
  645MOL0     H85114  -0.641   3.295  10.774  1.7782  0.6809  0.3105
  645MOL0     H85115  -0.708   3.459  10.751 -0.3186  0.0808  0.8991
  645MOL0     H85116  -0.787   3.442  10.997  0.9815  0.4672  0.3409
  645MOL0     H85117  -0.725   3.273  11.011 -0.0562 -2.4991 -2.5484
  645MOL0     H85118  -0.873   3.189  10.843 -0.5788 -0.5402  1.9768
  645MOL0     H85119  -0.976   3.273  10.970  0.9118 -0.4186  2.4703
  645MOL0     H85120  -1.059   3.322  10.753 -0.8417 -0.5372  0.8136
  645MOL0     H85121  -0.907   3.370  10.686 -1.5809  3.3307  0.0626
  645MOL0     H85122   0.177   3.518  10.856 -1.4767  2.2681 -1.9278
  645MOL0     H85123   0.378   3.502  10.744  2.4596 -1.0648 -3.7067
  645MOL0     H85124   0.613   3.381  10.446  0.0655  4.1291  0.0355
  645MOL0     H85125   0.857   3.447  10.370  1.1424 -1.9970 -0.3542
  645MOL0     H85126   2.365   3.202   9.201  0.2365 -1.1478  0.1135
  645MOL0     H85127   2.604   3.231   9.208 -0.0783 -0.6966 -1.4454
  645MOL0     H85128   3.087   3.010   9.157 -2.5700  0.3196 -0.4661
  645MOL0     H85129   3.305   3.128   9.147  1.4704  0.6402  0.7383
  645MOL0     H85130   3.436   3.467   9.068  0.9568  0.2430 -0.8465
  645MOL0     H85131   3.376   3.312   9.047 -0.9540  0.0164  0.8628
  645MOL0     H85132   3.631   3.378   9.196  1.2856 -1.1678 -0.9812
  645MOL0     H85133   3.539   3.214   9.199  0.9563 -0.4831 -0.9609
  645MOL0     H85134   3.663   3.349   8.961  1.4861 -0.0737 -0.2652
  645MOL0     H85135   3.568   3.184   8.965 -2.5736  2.9003 -0.1931
  645MOL0     H85136   3.725   3.098   9.104  2.8202 -1.1415  0.2707
  645MOL0     H85137   3.805   3.165   8.958 -0.5599  0.7751  1.0176
  645MOL0     H85138   4.002   3.414   9.214  0.3526  0.2351 -1.7985
  645MOL0     H85139   3.160   3.443   9.380  3.8103  0.6204 -1.9404
  645MOL0     H85140   2.934   3.348   9.380 -1.1292 -0.4610  0.7608
  646MOL0     O85141   4.549   1.061  10.664  0.0180  0.0871 -0.1844
  646MOL0     C85142   4.571   1.079  10.543  0.3719  0.5334 -0.5053
  646MOL0     O85143   4.505   1.154  10.460 -0.0211 -0.1233  0.1694
  646MOL0     C85144   4.414   1.254  10.494 -0.6943  0.2328 -0.0170
  646MOL0     C85145   4.404   1.336  10.614  0.2332  0.1907 -0.3151
  646MOL0     C85146   4.321   1.447  10.622  0.9339 -0.2041 -0.3064
  646MOL0     C85147   4.239   1.472  10.512  0.1431 -0.5931  0.0797
  646MOL0     O85148   4.143   1.575  10.519  0.2435  0.5323  0.3943
  646MOL0     C85149   4.056   1.593  10.632 -0.6157  0.1055  0.9793
  646MOL0     C85150   3.905   1.600  10.591  0.1052  0.1877  0.9975
  646MOL0     C85151   3.806   1.587  10.706  0.6331  0.4882 -0.1866
  646MOL0     C85152   3.825   1.671  10.834  0.4977  0.0767 -0.0431
  646MOL0     C85153   3.726   1.633  10.935  0.5993  0.0960  0.4481
  646MOL0     C85154   3.706   1.739  11.045 -0.2330  0.1072 -0.4931
  646MOL0     C85155   3.602   1.692  11.148 -0.6739 -1.0347 -0.0026
  646MOL0     C85156   3.466   1.677  11.069  0.3305  0.6433  0.7661
  646MOL0     N85157   3.356   1.668  11.164  0.4058  0.2053 -0.4427
  646MOL0     C85158   3.307   1.778  11.228  0.3688  0.8877 -0.4964
  646MOL0     C85159   3.197   1.734  11.292  0.0695 -0.0522  0.5630
  646MOL0     C85160   3.109   1.821  11.377  0.1648  0.5684 -0.1871
  646MOL0     C85161   2.996   1.874  11.289 -0.6152  0.6276 -0.6108
  646MOL0     C85162   2.937   2.007  11.357 -0.4509  0.5480 -0.2070
  646MOL0     C85163   2.796   2.036  11.312  0.1500 -0.7202  1.0075
  646MOL0     O85164   2.764   2.174  11.334  0.0570  0.2450  0.2072
  646MOL0     C85165   2.640   2.224  11.286 -0.2225 -0.4969 -0.2011
  646MOL0     C85166   2.541   2.153  11.219 -0.2337  0.5658  0.1053
  646MOL0     C85167   2.431   2.232  11.189 -0.0768  0.1216 -0.5195
  646MOL0     C85168   2.408   2.368  11.240  0.4618  0.0940 -0.3513
  646MOL0     C85169   2.281   2.438  11.221 -0.1476 -0.0488 -0.2840
  646MOL0     O85170   2.193   2.385  11.136  0.5796  0.1844  0.7359
  646MOL0     C85171   2.130   2.467  11.044 -0.9296 -0.5351 -0.9344
  646MOL0     C85172   2.007   2.426  10.993 -0.3446  0.5340 -0.5978
  646MOL0     C85173   1.939   2.503  10.898  0.3591  1.0562  0.0383
  646MOL0     C85174   1.986   2.623  10.857 -0.2067 -0.5848 -0.1938
  646MOL0     O85175   1.915   2.703  10.762 -0.3327 -0.6003  0.6330
  646MOL0     C85176   1.899   2.837  10.809  0.3164  0.5237 -0.6331
  646MOL0     C85177   1.785   2.925  10.745 -0.0489  0.3779 -0.6006
  646MOL0     C85178   1.811   2.948  10.596  0.4257 -0.5286 -0.0188
  646MOL0     C85179   1.729   3.069  10.552  0.8985  0.2299  0.2647
  646MOL0     C85180   1.576   3.047  10.577  0.1239  0.6816 -1.3319
  646MOL0     C85181   1.481   3.131  10.504 -0.4261  0.3539  0.1384
  646MOL0     C85182   1.495   3.273  10.550  0.1883 -0.3131  0.2317
  646MOL0     C85183   1.419   3.295  10.678  0.2897  0.3625 -0.6160
  646MOL0    Cl85184   1.375   3.470  10.703 -0.2555  0.0298 -0.5435
  646MOL0     C85185   2.101   2.672  10.927  0.3678  0.1697  0.5043
  646MOL0     C85186   2.183   2.593  11.003 -0.0061 -0.7855 -0.1185
  646MOL0     O85187   2.265   2.544  11.281  0.1818 -0.3966  0.1994
  646MOL0     C85188   2.514   2.429  11.308 -0.4812 -0.2758 -0.8774
  646MOL0     C85189   2.632   2.361  11.327  0.3552  0.2918 -0.2016
  646MOL0     N85190   3.190   1.590  11.275  0.1705 -0.2177  1.0155
  646MOL0     N85191   3.282   1.553  11.187  0.7096  0.4583  0.5076
  646MOL0     C85192   4.242   1.380  10.406  0.0795 -0.3484 -0.6525
  646MOL0     C85193   4.335   1.287  10.383 -0.7984  1.2322 -0.5196
  646MOL0     C85194   4.681   0.996  10.483  0.3112 -1.3246  0.1762
  646MOL0     C85195   4.734   1.028  10.361 -0.1816 -0.4426  0.6018
  646MOL0     C85196   4.836   0.946  10.310 -0.1391  0.0849 -0.0772
  646MOL0     C85197   4.891   0.837  10.379  1.1828  0.2379 -0.2253
  646MOL0     O85198   4.992   0.760  10.330 -0.4742 -0.0012  0.1921
  646MOL0     C85199   5.005   0.748  10.191  0.8032 -0.0539  0.6763
  646MOL0     C85200   5.054   0.613  10.148 -0.0392 -0.7335  0.9340
  646MOL0     C85201   5.180   0.597  10.229 -1.5367  0.8224 -0.0958
  646MOL0     C85202   5.288   0.498  10.163  0.9232 -0.0035  0.7164
  646MOL0     C85203   5.357   0.567  10.055 -0.0153  0.0874 -0.6749
  646MOL0     C85204   5.416   0.624   9.964  0.2146  0.3140 -0.0606
  646MOL0     C85205   4.834   0.810  10.506 -0.3800 -0.0777 -0.0124
  646MOL0     C85206   4.723   0.887  10.555 -0.6296 -0.0994  0.1425
  646MOL0     H85207   4.464   1.328  10.704 -2.1002  1.1165  1.4198
  646MOL0     H85208   4.334   1.507  10.712 -1.7951 -0.3433  0.2940
  646MOL0     H85209   4.078   1.682  10.691 -2.4428  1.8970 -0.8962
  646MOL0     H85210   4.068   1.504  10.694 -1.9548 -0.2346  0.7949
  646MOL0     H85211   3.881   1.533  10.507 -4.0263  3.6133 -0.9671
  646MOL0     H85212   3.873   1.690  10.537 -2.0823 -1.6709 -1.0754
  646MOL0     H85213   3.803   1.484  10.743 -0.0412  0.6802  0.3003
  646MOL0     H85214   3.708   1.585  10.658  1.4815 -1.5875 -2.0356
  646MOL0     H85215   3.926   1.664  10.877  0.0904  1.2086  1.1979
  646MOL0     H85216   3.810   1.776  10.809  0.2370  0.3197  1.0710
  646MOL0     H85217   3.760   1.535  10.970  1.0495 -1.0039 -2.7325
  646MOL0     H85218   3.636   1.622  10.873  1.9256  1.1921 -1.8241
  646MOL0     H85219   3.666   1.826  10.991  0.7197  0.5004 -0.5808
  646MOL0     H85220   3.803   1.767  11.087 -0.4101 -1.3070  0.9889
  646MOL0     H85221   3.647   1.602  11.191  2.3115  0.4896  0.3366
  646MOL0     H85222   3.599   1.764  11.230  2.6685 -2.4038  1.4862
  646MOL0     H85223   3.464   1.585  11.011  0.5455 -0.5593  2.5912
  646MOL0     H85224   3.444   1.772  11.019  5.0521  2.2391  1.2571
  646MOL0     H85225   3.348   1.879  11.228  0.7005  0.7538 -0.7173
  646MOL0     H85226   3.167   1.906  11.413  0.0554  0.7574 -0.4486
  646MOL0     H85227   3.079   1.778  11.473  3.0021 -0.2356  0.4414
  646MOL0     H85228   2.928   1.795  11.258  0.7417 -1.5465  1.5868
  646MOL0     H85229   3.044   1.922  11.204 -0.3566  2.6400  0.5988
  646MOL0     H85230   2.937   1.993  11.465 -2.1083 -0.4492 -0.2968
  646MOL0     H85231   2.987   2.103  11.339  0.8334 -0.1274 -0.3343
  646MOL0     H85232   2.724   1.973  11.364 -0.8649  0.8778  1.6054
  646MOL0     H85233   2.808   2.030  11.204 -1.7214  1.9954  0.5510
  646MOL0     H85234   2.560   2.052  11.182 -1.4550  0.9471 -1.7088
  646MOL0     H85235   2.350   2.184  11.135 -2.4319  3.1560  0.0151
  646MOL0     H85236   1.966   2.331  11.027 -0.0176  1.2216  1.9738
  646MOL0     H85237   1.849   2.456  10.860 -0.4070  0.3036  2.5273
  646MOL0     H85238   1.993   2.891  10.794  1.6723 -1.8940 -1.4257
  646MOL0     H85239   1.886   2.827  10.917  0.4365  2.0180 -0.4590
  646MOL0     H85240   1.775   3.019  10.799  0.5025  0.0884  0.0091
  646MOL0     H85241   1.690   2.871  10.750 -0.1064  0.5205 -0.1161
  646MOL0     H85242   1.793   2.860  10.533  1.1021 -0.2743 -0.5851
  646MOL0     H85243   1.919   2.965  10.588  0.3876  0.3291  1.1235
  646MOL0     H85244   1.748   3.165  10.601 -0.8827  0.7163  0.1049
  646MOL0     H85245   1.742   3.079  10.444 -0.7073  1.3855  0.1359
  646MOL0     H85246   1.551   3.057  10.683 -0.6237  1.5324 -1.5748
  646MOL0     H85247   1.553   2.941  10.561 -0.4565  0.6794 -0.4946
  646MOL0     H85248   1.379   3.093  10.501 -0.7241  1.1790 -1.5074
  646MOL0     H85249   1.505   3.122  10.397 -0.8860 -1.9074  0.1799
  646MOL0     H85250   1.596   3.314  10.545 -0.8295  2.2636 -2.5177
  646MOL0     H85251   1.445   3.340  10.479 -0.4412  0.6493  1.5370
  646MOL0     H85252   1.468   3.258  10.768 -1.5357 -1.7152 -0.3796
  646MOL0     H85253   1.322   3.245  10.673  2.3655 -3.9786 -3.1714
  646MOL0     H85254   2.136   2.767  10.889 -0.1497 -0.4747 -1.7477
  646MOL0     H85255   2.283   2.626  11.027 -0.3302 -1.5274  2.5989
  646MOL0     H85256   2.511   2.531  11.346  3.2758 -0.2585 -0.2386
  646MOL0     H85257   2.708   2.408  11.389 -0.0818  1.6404 -0.6541
  646MOL0     H85258   4.165   1.389  10.330  0.3060  0.3746 -0.7987
  646MOL0     H85259   4.346   1.225  10.295  3.4153 -0.6930  1.1295
  646MOL0     H85260   4.718   1.124  10.312  1.0158 -1.3824 -1.7670
  646MOL0     H85261   4.873   0.975  10.212 -0.2386 -2.8191 -1.0826
  646MOL0     H85262   5.066   0.821  10.138 -0.2445  0.0540 -0.4093
  646MOL0     H85263   4.903   0.765  10.155 -1.3156  0.3540  5.9573
  646MOL0     H85264   4.985   0.532  10.176 -0.4624 -0.8404 -0.3224
  646MOL0     H85265   5.076   0.618  10.041 -0.7620  1.4346  0.8540
  646MOL0     H85266   5.149   0.548  10.322  3.1572  0.1986  1.3598
  646MOL0     H85267   5.220   0.696  10.252  2.5724 -0.6984  0.0175
  646MOL0     H85268   5.368   0.468  10.231  0.8927  0.1884  0.8386
  646MOL0     H85269   5.228   0.411  10.135  0.2287  0.6935 -0.0139
  646MOL0     H85270   5.455   0.679   9.881  3.8853 -0.1348  1.1659
  646MOL0     H85271   4.872   0.722  10.557  3.1365  1.1110 -0.3352
  646MOL0     H85272   4.686   0.841  10.646  0.0349  0.3209  0.6360
  647MOL0     O85273   7.823   9.150   4.339 -0.8124 -0.0919 -0.2591
  647MOL0     C85274   7.826   9.254   4.276 -0.5290  0.9128  0.4335
  647MOL0     O85275   7.730   9.346   4.284 -0.8442 -0.6545  0.2205
  647MOL0     C85276   7.616   9.318   4.344  0.4995 -0.6383  0.1945
  647MOL0     C85277   7.521   9.240   4.296  0.0627  0.2780 -0.6414
  647MOL0     C85278   7.394   9.228   4.353  0.0430 -0.8343  0.8351
  647MOL0     C85279   7.369   9.286   4.481  0.1801  1.3863  0.8872
  647MOL0     O85280   7.241   9.281   4.532 -0.1801 -0.2419 -0.5615
  647MOL0     C85281   7.234   9.251   4.678 -0.5455 -0.4426  0.2896
  647MOL0     C85282   7.090   9.252   4.716 -0.3688 -0.1535  0.0353
  647MOL0     C85283   7.049   9.377   4.801  0.2402  0.1521  0.4315
  647MOL0     C85284   6.916   9.339   4.852  0.4078 -0.1210 -0.4009
  647MOL0     C85285   6.870   9.449   4.952 -0.5106 -0.0471 -0.0244
  647MOL0     C85286   6.745   9.395   5.039 -1.4078  0.6663 -0.2569
  647MOL0     C85287   6.705   9.501   5.141 -0.2327 -0.4857 -0.7122
  647MOL0     C85288   6.583   9.451   5.220 -0.4276  0.3846  0.5742
  647MOL0     N85289   6.574   9.530   5.342 -0.0320 -0.1224 -1.2976
  647MOL0     C85290   6.485   9.633   5.359 -0.3701  0.4561  0.0282
  647MOL0     C85291   6.470   9.652   5.492 -0.3024  0.0165  0.8289
  647MOL0     C85292   6.385   9.756   5.559  0.5270 -0.2718 -0.5231
  647MOL0     C85293   6.250   9.695   5.594 -0.3012 -0.4906 -0.2184
  647MOL0     C85294   6.258   9.594   5.704  0.9170  0.5652 -0.0182
  647MOL0     C85295   6.236   9.642   5.846  0.9766 -0.6707  0.0743
  647MOL0     O85296   6.172   9.539   5.928 -0.1727  0.0480  0.7368
  647MOL0     C85297   6.055   9.558   5.990  0.2761 -0.4445  0.5467
  647MOL0     C85298   5.983   9.442   6.040  0.1049 -0.1707  0.5433
  647MOL0     C85299   5.864   9.468   6.108 -0.5582  0.5849 -0.6275
  647MOL0     C85300   5.815   9.594   6.132 -0.9959 -0.2406 -0.0745
  647MOL0     C85301   5.695   9.617   6.223 -0.7432 -0.8015 -0.7114
  647MOL0     O85302   5.682   9.742   6.271 -0.5678  0.0540 -0.6626
  647MOL0     C85303   5.587   9.785   6.356 -0.5941 -0.8956 -1.0034
  647MOL0     C85304   5.520   9.906   6.330 -0.3882 -0.3746 -0.3503
  647MOL0     C85305   5.441   9.975   6.431 -0.2586 -1.1245  0.2622
  647MOL0     C85306   5.441   9.923   6.566 -0.2126 -0.4574 -0.3688
  647MOL0     O85307   5.363   9.974   6.671  0.1062  0.3374 -0.0773
  647MOL0     C85308   5.235  10.029   6.627 -1.1976  0.4618 -0.5785
  647MOL0     C85309   5.162  10.033   6.765 -0.3613 -0.0461 -0.8925
  647MOL0     C85310   5.237  10.118   6.871  0.1117  1.0386 -0.6235
  647MOL0     C85311   5.157  10.154   6.996 -1.0577  0.2423 -0.5273
  647MOL0     C85312   5.229  10.238   7.107  0.3762 -0.1209 -0.0339
  647MOL0     C85313   5.273  10.378   7.059 -0.1708  0.1968 -0.2912
  647MOL0     C85314   5.314  10.461   7.176 -0.1653 -0.3328 -0.3395
  647MOL0     C85315   5.354  10.595   7.142 -0.8733 -0.7097  0.2862
  647MOL0    Cl85316   5.474  10.622   7.016  0.2126  0.4665  0.2008
  647MOL0     C85317   5.511   9.811   6.597 -0.0670  0.2378  0.3162
  647MOL0     C85318   5.590   9.740   6.488  0.6905 -0.2058 -0.4619
  647MOL0     O85319   5.619   9.519   6.255  0.6370 -0.3952 -0.4300
  647MOL0     C85320   5.875   9.701   6.069 -0.6123 -0.4935 -0.0308
  647MOL0     C85321   5.994   9.685   5.995 -0.2984  0.1209 -1.3108
  647MOL0     N85322   6.546   9.560   5.553  0.2312 -0.5277  0.7189
  647MOL0     N85323   6.602   9.485   5.470 -0.4475  0.5415 -0.7630
  647MOL0     C85324   7.461   9.378   4.524 -0.0315  0.0224  0.4171
  647MOL0     C85325   7.580   9.385   4.463  0.2564 -0.1838  0.8954
  647MOL0     C85326   7.960   9.292   4.220 -0.5054  0.1790  0.2032
  647MOL0     C85327   7.980   9.421   4.168 -0.2347 -1.2934  0.4702
  647MOL0     C85328   8.105   9.450   4.106  0.5313  0.2788 -0.3766
  647MOL0     C85329   8.204   9.350   4.086  0.1939  0.2490  0.3781
  647MOL0     O85330   8.317   9.399   4.021 -0.2306  0.8543  0.2207
  647MOL0     C85331   8.425   9.299   3.994 -0.5027 -0.2237 -0.0249
  647MOL0     C85332   8.527   9.353   3.899 -0.0837 -0.3215  0.6513
  647MOL0     C85333   8.651   9.270   3.892  0.3070  0.1660 -0.5193
  647MOL0     C85334   8.745   9.316   3.780 -0.4547 -0.4762 -0.9120
  647MOL0     C85335   8.715   9.258   3.646  0.5218  0.3233  0.1956
  647MOL0     C85336   8.682   9.211   3.534 -0.1892  0.2990  0.3144
  647MOL0     C85337   8.179   9.229   4.141 -0.0863  0.2109  0.4012
  647MOL0     C85338   8.064   9.201   4.213  0.2439  0.6299  0.8428
  647MOL0     H85339   7.538   9.192   4.200 -0.3951  0.9530 -1.0650
  647MOL0     H85340   7.321   9.171   4.296 -0.4519  0.7345 -0.1843
  647MOL0     H85341   7.291   9.318   4.743 -3.1075 -0.3250  2.6146
  647MOL0     H85342   7.283   9.158   4.710 -2.0266 -2.3491 -2.5990
  647MOL0     H85343   7.068   9.162   4.775 -2.0618  0.3633  0.2571
  647MOL0     H85344   7.027   9.244   4.627  0.6097  1.8935 -0.9045
  647MOL0     H85345   7.034   9.459   4.731 -0.5533  0.0911  0.5206
  647MOL0     H85346   7.127   9.400   4.874  3.6619  0.5552 -3.0415
  647MOL0     H85347   6.840   9.326   4.775 -0.9293  1.3552  0.6011
  647MOL0     H85348   6.930   9.251   4.914  1.3633  1.4644  1.7554
  647MOL0     H85349   6.830   9.534   4.897 -1.7312 -0.3276  0.3945
  647MOL0     H85350   6.953   9.488   5.013  0.1958 -0.6436 -0.5858
  647MOL0     H85351   6.780   9.309   5.097 -2.4221  1.1678  1.1273
  647MOL0     H85352   6.656   9.358   4.987 -0.3543 -1.5299 -0.6102
  647MOL0     H85353   6.779   9.538   5.213 -3.1713 -1.0518  2.9418
  647MOL0     H85354   6.662   9.584   5.085  0.6853  0.3803 -0.1783
  647MOL0     H85355   6.584   9.344   5.243 -0.5991  0.0883 -0.6960
  647MOL0     H85356   6.489   9.468   5.166 -0.3390  1.1405  0.6476
  647MOL0     H85357   6.452   9.704   5.284  0.9454 -0.7735 -1.7869
  647MOL0     H85358   6.390   9.854   5.511  1.8823  0.0129  0.1504
  647MOL0     H85359   6.434   9.783   5.654 -1.4204 -0.4565  0.5958
  647MOL0     H85360   6.200   9.655   5.506 -4.2184  0.5275  1.3031
  647MOL0     H85361   6.174   9.765   5.630 -3.6733 -2.5702 -2.7474
  647MOL0     H85362   6.177   9.522   5.689  0.4480  1.4134 -1.9405
  647MOL0     H85363   6.350   9.534   5.702  0.0484 -0.9266  2.1752
  647MOL0     H85364   6.185   9.739   5.841 -1.9255 -2.1330 -1.6036
  647MOL0     H85365   6.330   9.659   5.898  0.4859 -0.2410  0.8344
  647MOL0     H85366   6.019   9.339   6.040 -1.2933 -0.6952  2.1583
  647MOL0     H85367   5.818   9.382   6.154  0.7261 -0.6903 -1.6475
  647MOL0     H85368   5.546   9.972   6.248  2.0108  3.0875  2.8644
  647MOL0     H85369   5.398  10.072   6.411  1.8451 -0.1931 -0.0430
  647MOL0     H85370   5.181   9.962   6.559  0.2936 -0.3066 -1.0418
  647MOL0     H85371   5.250  10.129   6.585  0.0766  0.9882  1.0676
  647MOL0     H85372   5.144   9.929   6.794 -4.8130 -0.2330 -3.3017
  647MOL0     H85373   5.063  10.078   6.752 -0.7641 -1.2461 -2.2553
  647MOL0     H85374   5.278  10.203   6.815 -1.5647  1.1941 -1.6972
  647MOL0     H85375   5.321  10.068   6.921 -2.0403  0.9738  3.3348
  647MOL0     H85376   5.089  10.229   6.955  0.5305  1.2141 -1.4731
  647MOL0     H85377   5.097  10.071   7.034  0.7823 -0.1456  1.8125
  647MOL0     H85378   5.320  10.190   7.144  2.6126  0.8115 -3.7813
  647MOL0     H85379   5.163  10.244   7.194  0.1780 -1.6228 -0.0604
  647MOL0     H85380   5.185  10.428   7.017  0.0259  1.4006  0.6854
  647MOL0     H85381   5.354  10.363   6.986 -1.3725  0.2676 -1.6889
  647MOL0     H85382   5.230  10.473   7.246  0.8142  1.2412  0.6143
  647MOL0     H85383   5.395  10.411   7.231 -1.9162  1.0074  3.8727
  647MOL0     H85384   5.390  10.653   7.227 -0.1368 -2.9769  1.6204
  647MOL0     H85385   5.262  10.649   7.116  0.8583  1.6277 -1.3434
  647MOL0     H85386   5.500   9.765   6.694 -3.2800 -0.0286 -0.0758
  647MOL0     H85387   5.645   9.650   6.511  2.7899  1.4714  1.6954
  647MOL0     H85388   5.832   9.799   6.079 -0.5750 -0.5321  0.5117
  647MOL0     H85389   6.020   9.780   5.950 -0.2168 -0.0803 -1.6941
  647MOL0     H85390   7.458   9.436   4.616  2.1631  0.6088  0.1678
  647MOL0     H85391   7.645   9.458   4.511 -0.4324  0.3839  0.9748
  647MOL0     H85392   7.902   9.495   4.181  0.3929 -0.2871 -1.1578
  647MOL0     H85393   8.110   9.556   4.084  2.0975  0.6227  1.3546
  647MOL0     H85394   8.381   9.207   3.955 -1.3091  0.0790  0.1414
  647MOL0     H85395   8.472   9.264   4.087  2.2206 -0.4642 -1.4082
  647MOL0     H85396   8.487   9.366   3.798 -1.4680  1.3656  1.3678
  647MOL0     H85397   8.548   9.456   3.930 -1.3300  0.0106  0.4382
  647MOL0     H85398   8.643   9.163   3.870  3.7001 -0.2708 -0.1164
  647MOL0     H85399   8.705   9.280   3.986  1.0967 -0.7620 -0.8516
  647MOL0     H85400   8.729   9.424   3.777  2.3379  0.0520 -0.1211
  647MOL0     H85401   8.848   9.299   3.813 -0.4703 -2.3755 -1.7259
  647MOL0     H85402   8.656   9.181   3.434  2.3346  3.0892 -1.3439
  647MOL0     H85403   8.256   9.153   4.133  0.3355  0.4098  2.2037
  647MOL0     H85404   8.048   9.099   4.248  1.1982 -0.1577 -0.8841
  648MOL0     O85405   0.332   2.375   8.208  0.4291  0.6007 -0.2878
  648MOL0     C85406   0.364   2.444   8.304 -0.3293 -0.6973 -0.0233
  648MOL0     O85407   0.283   2.530   8.375 -0.3132  0.0559  0.1250
  648MOL0     C85408   0.155   2.536   8.330 -0.0581  0.2859 -0.3823
  648MOL0     C85409   0.054   2.468   8.393 -0.2024 -0.4351  0.3108
  648MOL0     C85410  -0.080   2.496   8.361  0.6017 -0.2159  0.1129
  648MOL0     C85411  -0.112   2.577   8.245  0.0862 -0.8362 -0.0417
  648MOL0     O85412  -0.237   2.592   8.190 -0.0692 -1.0110 -0.0635
  648MOL0     C85413  -0.318   2.478   8.161 -1.0374 -0.1152  0.6956
  648MOL0     C85414  -0.457   2.483   8.222 -0.3109 -0.1696 -0.1684
  648MOL0     C85415  -0.550   2.386   8.164  0.2310  0.2439  0.1592
  648MOL0     C85416  -0.585   2.417   8.015 -0.1080 -0.2749 -0.7578
  648MOL0     C85417  -0.720   2.364   7.969  0.3111  0.9675 -0.3650
  648MOL0     C85418  -0.765   2.407   7.832  0.2312  0.3096 -0.0700
  648MOL0     C85419  -0.907   2.370   7.809 -1.1617  0.1208 -0.5621
  648MOL0     C85420  -0.937   2.356   7.659 -0.5330  0.5990  0.2430
  648MOL0     N85421  -1.078   2.337   7.623 -0.1834 -0.0373  0.8701
  648MOL0     C85422  -1.157   2.235   7.671 -0.3026 -0.7214 -0.1724
  648MOL0     C85423  -1.283   2.263   7.643 -0.4205 -0.0433  0.2026
  648MOL0     C85424  -1.406   2.187   7.686  0.2741 -0.3257 -0.4429
  648MOL0     C85425  -1.522   2.289   7.706  0.3444  0.3664  0.8063
  648MOL0     C85426  -1.658   2.213   7.714 -0.3504 -1.1980 -0.9605
  648MOL0     C85427  -1.778   2.297   7.744  0.1281 -0.3263 -0.4858
  648MOL0     O85428  -1.894   2.203   7.753 -0.2289 -0.6964 -0.2500
  648MOL0     C85429  -2.020   2.220   7.683 -0.4934 -0.5062  0.5657
  648MOL0     C85430  -2.051   2.331   7.601  0.7263 -0.1726  0.0720
  648MOL0     C85431  -2.176   2.326   7.528 -0.9362 -0.5052  0.0703
  648MOL0     C85432  -2.266   2.225   7.540  0.1711  0.6213 -0.2316
  648MOL0     C85433  -2.394   2.239   7.466  0.3642  0.0472 -0.4996
  648MOL0     O85434  -2.382   2.285   7.340  0.1379  0.3023  0.4674
  648MOL0     C85435  -2.501   2.305   7.273 -0.1561 -0.1567 -0.6921
  648MOL0     C85436  -2.541   2.429   7.239  0.0918 -0.0166 -0.7995
  648MOL0     C85437  -2.660   2.454   7.156 -0.9189  0.9731 -0.2407
  648MOL0     C85438  -2.751   2.354   7.134  0.3119 -0.4831 -0.1776
  648MOL0     O85439  -2.863   2.394   7.061  0.5584 -0.0771 -0.1615
  648MOL0     C85440  -2.968   2.297   7.035  0.2644  1.2013  0.1320
  648MOL0     C85441  -3.079   2.328   7.139  0.2764 -0.3151 -0.0320
  648MOL0     C85442  -3.163   2.208   7.184 -0.0925 -0.2983 -0.0116
  648MOL0     C85443  -3.269   2.196   7.073  0.6324 -0.3581 -1.0520
  648MOL0     C85444  -3.375   2.093   7.107 -0.1464 -0.7021  0.0371
  648MOL0     C85445  -3.487   2.083   7.002 -0.3487 -0.3439 -0.2522
  648MOL0     C85446  -3.592   1.978   7.040 -0.0803 -0.0390  0.7041
  648MOL0     C85447  -3.708   1.952   6.935 -0.4314  0.2857  0.3873
  648MOL0    Cl85448  -3.655   1.891   6.780 -0.2714  0.3771  0.4131
  648MOL0     C85449  -2.715   2.222   7.169 -0.2261 -0.1793  1.1954
  648MOL0     C85450  -2.592   2.201   7.239  0.4311 -1.6326 -0.1453
  648MOL0     O85451  -2.497   2.212   7.528 -0.7466 -0.0301 -0.3690
  648MOL0     C85452  -2.236   2.118   7.622 -0.1615  0.1783  0.1917
  648MOL0     C85453  -2.112   2.110   7.688 -0.7451  0.3393 -0.5594
  648MOL0     N85454  -1.277   2.382   7.579  0.7433 -0.0366  0.2608
  648MOL0     N85455  -1.153   2.430   7.569 -0.1365 -0.4863  0.9308
  648MOL0     C85456  -0.013   2.632   8.170 -0.0575 -0.2538  0.8145
  648MOL0     C85457   0.118   2.608   8.214 -0.0565 -1.1543  0.2264
  648MOL0     C85458   0.505   2.430   8.335  0.3725  0.7549 -0.9207
  648MOL0     C85459   0.543   2.478   8.460  0.0193 -0.4395 -0.3164
  648MOL0     C85460   0.682   2.471   8.499  0.4132 -0.3770 -1.3736
  648MOL0     C85461   0.777   2.406   8.417 -0.1957  1.4138  0.0931
  648MOL0     O85462   0.914   2.393   8.449 -0.1311 -0.1514  0.2680
  648MOL0     C85463   0.956   2.389   8.586 -0.4810 -0.0282 -0.7173
  648MOL0     C85464   1.113   2.388   8.605  0.2806 -0.4317 -0.1069
  648MOL0     C85465   1.156   2.368   8.751 -0.2792 -0.5978  0.5044
  648MOL0     C85466   1.165   2.224   8.779 -0.3627 -0.6949  1.2592
  648MOL0     C85467   1.301   2.176   8.731  0.1506  0.1488 -0.4017
  648MOL0     C85468   1.400   2.137   8.667 -0.3752 -0.9528 -0.4119
  648MOL0     C85469   0.726   2.365   8.294 -0.9799  0.0612  0.4218
  648MOL0     C85470   0.594   2.365   8.255 -0.6082 -0.0143  0.2941
  648MOL0     H85471   0.087   2.408   8.477  1.2130 -0.7389 -0.4287
  648MOL0     H85472  -0.163   2.454   8.416  1.0796  0.9080  1.7734
  648MOL0     H85473  -0.261   2.391   8.194  0.3617  1.1267  1.7234
  648MOL0     H85474  -0.326   2.485   8.052  1.7509  1.0700  0.4711
  648MOL0     H85475  -0.492   2.587   8.216 -0.6543  0.1040  3.8756
  648MOL0     H85476  -0.443   2.464   8.329 -0.4388  1.1346  0.1069
  648MOL0     H85477  -0.643   2.398   8.219 -1.9536 -4.5886 -1.9295
  648MOL0     H85478  -0.510   2.286   8.181  2.8531  1.2830  0.7216
  648MOL0     H85479  -0.574   2.526   8.016 -1.6263 -0.0982 -1.0186
  648MOL0     H85480  -0.500   2.382   7.955  0.7576 -0.0453  0.3011
  648MOL0     H85481  -0.789   2.405   8.043  1.1981  3.1759 -0.6922
  648MOL0     H85482  -0.730   2.255   7.970 -3.2803  1.1907  0.6038
  648MOL0     H85483  -0.706   2.360   7.753 -1.2997  1.2641 -1.8719
  648MOL0     H85484  -0.759   2.515   7.813 -0.5452  0.1345 -1.5013
  648MOL0     H85485  -0.931   2.279   7.865  0.3049 -0.6339 -1.1165
  648MOL0     H85486  -0.968   2.453   7.848  1.0057  0.8396  1.4985
  648MOL0     H85487  -0.875   2.273   7.623  0.0554  0.8188  0.7371
  648MOL0     H85488  -0.897   2.442   7.606 -0.5497  0.5463  0.1443
  648MOL0     H85489  -1.133   2.139   7.716  1.5870 -0.3122 -0.2468
  648MOL0     H85490  -1.378   2.147   7.784 -0.5734 -1.5007 -0.6630
  648MOL0     H85491  -1.440   2.107   7.619  1.2950 -2.0384  1.0083
  648MOL0     H85492  -1.519   2.344   7.611  2.8033  0.3363  0.8056
  648MOL0     H85493  -1.513   2.345   7.800 -1.7182  0.8949  0.7385
  648MOL0     H85494  -1.657   2.174   7.612 -0.7825 -2.3697 -0.5371
  648MOL0     H85495  -1.655   2.137   7.793  1.5747  2.0139  2.3678
  648MOL0     H85496  -1.792   2.377   7.670  1.4894 -1.2130 -1.7550
  648MOL0     H85497  -1.764   2.341   7.843 -0.2455 -2.2016  0.4443
  648MOL0     H85498  -1.990   2.420   7.590  0.7769 -0.2594 -0.4056
  648MOL0     H85499  -2.201   2.403   7.456  0.5602  0.0757  0.1605
  648MOL0     H85500  -2.466   2.506   7.255  2.1424 -1.1496 -4.0454
  648MOL0     H85501  -2.676   2.556   7.125  1.1956  0.9890 -1.4914
  648MOL0     H85502  -2.935   2.193   7.028 -1.2078  0.6159  1.4582
  648MOL0     H85503  -3.013   2.306   6.936 -1.3225 -1.6782  0.4806
  648MOL0     H85504  -3.141   2.415   7.113  1.8196  0.4119 -1.5061
  648MOL0     H85505  -3.026   2.356   7.231 -0.0414  2.6441 -0.6352
  648MOL0     H85506  -3.210   2.228   7.280 -1.6611 -0.7195 -0.6713
  648MOL0     H85507  -3.096   2.121   7.190  0.3077  0.0623  0.9173
  648MOL0     H85508  -3.316   2.295   7.064  0.1855 -0.5504 -0.8752
  648MOL0     H85509  -3.218   2.175   6.979 -0.3469  0.3834 -1.7745
  648MOL0     H85510  -3.415   2.124   7.204 -1.0223  1.3664 -0.9232
  648MOL0     H85511  -3.337   1.992   7.122  0.1902 -0.5063  0.5377
  648MOL0     H85512  -3.431   2.045   6.915 -2.2452 -1.7001 -0.9572
  648MOL0     H85513  -3.532   2.179   6.975  0.9194 -0.3308 -2.6223
  648MOL0     H85514  -3.537   1.886   7.061  3.2602  0.9832 -2.4360
  648MOL0     H85515  -3.630   2.016   7.135  0.2243 -3.7014  2.4860
  648MOL0     H85516  -3.750   2.049   6.905 -2.1529 -0.5223  0.0731
  648MOL0     H85517  -3.790   1.894   6.978  0.5929 -1.7951 -0.3334
  648MOL0     H85518  -2.786   2.142   7.151 -0.3432  0.1144  0.3197
  648MOL0     H85519  -2.554   2.105   7.274  1.2950 -1.0443  0.5495
  648MOL0     H85520  -2.307   2.040   7.647  2.4529 -2.0969  1.1154
  648MOL0     H85521  -2.103   2.031   7.762 -2.0325  0.0792 -0.6502
  648MOL0     H85522  -0.035   2.680   8.075 -0.8814 -0.0324  1.1090
  648MOL0     H85523   0.204   2.634   8.152  1.5409 -3.5276  1.3177
  648MOL0     H85524   0.464   2.509   8.528 -1.2313 -0.2031 -1.8072
  648MOL0     H85525   0.706   2.528   8.588 -0.0534  1.1519 -2.1901
  648MOL0     H85526   0.921   2.297   8.636  0.7666  0.8175  1.9203
  648MOL0     H85527   0.910   2.478   8.629  0.1930  0.4946 -1.0781
  648MOL0     H85528   1.159   2.323   8.530  0.2088 -0.3785 -0.1961
  648MOL0     H85529   1.156   2.485   8.578 -0.0927 -0.5040 -0.9994
  648MOL0     H85530   1.076   2.403   8.818  0.5888  0.5873  0.9518
  648MOL0     H85531   1.254   2.416   8.761  1.2591 -3.4670  0.3451
  648MOL0     H85532   1.159   2.213   8.888 -0.0336 -0.7327  1.2732
  648MOL0     H85533   1.087   2.165   8.730  0.6214 -2.5254  1.8013
  648MOL0     H85534   1.492   2.122   8.614 -0.7222  2.6799 -2.4195
  648MOL0     H85535   0.804   2.339   8.224  0.3851  1.9046  1.1570
  648MOL0     H85536   0.564   2.345   8.153 -1.5438  5.7005 -0.9306
  649MOL0     O85537   4.760  10.618   5.213 -0.4503 -0.0925  0.1202
  649MOL0     C85538   4.833  10.566   5.128 -0.3920 -0.2420  0.2822
  649MOL0     O85539   4.800  10.513   5.002 -0.1345 -0.3044  0.4025
  649MOL0     C85540   4.655  10.506   4.992 -0.2734 -0.0144 -0.3996
  649MOL0     C85541   4.574  10.621   4.988  0.0227 -0.7004 -0.1083
  649MOL0     C85542   4.436  10.616   4.984  0.1949  0.7883 -0.5931
  649MOL0     C85543   4.372  10.489   4.989  0.2929  0.2890 -0.5973
  649MOL0     O85544   4.237  10.464   4.975 -0.0957 -0.2895  0.3974
  649MOL0     C85545   4.136  10.564   5.009 -0.0962  0.7389 -0.0147
  649MOL0     C85546   4.112  10.552   5.158 -0.2852  0.3394 -0.1057
  649MOL0     C85547   4.003  10.448   5.176  0.2606  0.5587  0.0292
  649MOL0     C85548   3.990  10.386   5.317 -0.6500 -0.1837  0.4028
  649MOL0     C85549   3.921  10.250   5.325  0.0361  0.5951  1.4529
  649MOL0     C85550   3.906  10.197   5.474  0.2471  0.6041 -0.2460
  649MOL0     C85551   3.809  10.292   5.563  0.3232  0.5635  0.7906
  649MOL0     C85552   3.670  10.279   5.519 -0.1301  0.2135  0.1139
  649MOL0     N85553   3.565  10.348   5.592  0.4012  1.0934 -0.5031
  649MOL0     C85554   3.483  10.279   5.683  0.6010 -0.6681 -0.6069
  649MOL0     C85555   3.393  10.369   5.722  0.0161  0.4723  0.4941
  649MOL0     C85556   3.284  10.361   5.812 -0.7378 -0.0494 -0.0610
  649MOL0     C85557   3.223  10.492   5.864  0.4271 -0.3606 -0.0594
  649MOL0     C85558   3.122  10.462   5.972  1.0541  0.1517 -0.6018
  649MOL0     C85559   2.992  10.415   5.910 -0.0113 -0.0359 -0.4437
  649MOL0     O85560   2.893  10.445   6.007  0.1335 -0.2479  0.2557
  649MOL0     C85561   2.768  10.383   6.006 -0.1926  0.5979 -0.4765
  649MOL0     C85562   2.671  10.420   6.099  0.1085 -0.2302  0.5077
  649MOL0     C85563   2.539  10.367   6.094  1.4082 -0.1445  0.0554
  649MOL0     C85564   2.509  10.287   5.983 -0.5740  1.5291 -0.0166
  649MOL0     C85565   2.377  10.239   5.960  0.4704  0.3173  0.2053
  649MOL0     O85566   2.368  10.135   5.880  0.1863  0.1800  0.3619
  649MOL0     C85567   2.243  10.085   5.855 -0.2693  0.1609 -0.6682
  649MOL0     C85568   2.157  10.041   5.961 -0.8247 -0.4350  0.0030
  649MOL0     C85569   2.032   9.976   5.933 -0.4623 -0.6207  0.0077
  649MOL0     C85570   2.012   9.926   5.806 -0.0183 -0.6768  0.0869
  649MOL0     O85571   1.894   9.867   5.771  0.4241  0.6981 -0.8258
  649MOL0     C85572   1.899   9.723   5.743  0.2209 -0.2530 -0.4553
  649MOL0     C85573   1.770   9.648   5.737 -0.4450 -0.0362 -0.2049
  649MOL0     C85574   1.778   9.503   5.690 -0.0373  0.5543  0.3049
  649MOL0     C85575   1.772   9.498   5.529  0.5534  0.0512  0.1562
  649MOL0     C85576   1.808   9.375   5.440 -0.4307  0.4898  0.5884
  649MOL0     C85577   1.945   9.316   5.475 -0.9619  1.0999 -1.1734
  649MOL0     C85578   2.066   9.406   5.486  0.3478  0.1329 -0.6238
  649MOL0     C85579   2.196   9.322   5.504  0.0291 -0.0198 -0.0478
  649MOL0    Cl85580   2.192   9.200   5.634  0.0427 -0.2451 -0.4662
  649MOL0     C85581   2.115   9.942   5.707  0.8139  1.3021 -0.1394
  649MOL0     C85582   2.229  10.021   5.736 -0.1939 -0.1819  0.3109
  649MOL0     O85583   2.285  10.288   6.020  0.2012 -0.7305 -0.5049
  649MOL0     C85584   2.608  10.247   5.892  0.1032  0.1618  0.0655
  649MOL0     C85585   2.730  10.300   5.896 -0.6237 -0.0672 -0.1731
  649MOL0     N85586   3.429  10.482   5.658  0.1219 -1.0567 -0.2664
  649MOL0     N85587   3.516  10.468   5.569  1.1454 -0.8107  0.6370
  649MOL0     C85588   4.456  10.376   4.991 -0.5057  0.3761  0.6790
  649MOL0     C85589   4.595  10.381   4.997 -0.1717 -0.7979  0.3566
  649MOL0     C85590   4.985  10.565   5.154  0.5695  0.0489  0.2342
  649MOL0     C85591   5.042  10.642   5.260 -0.0064 -0.5068  0.9288
  649MOL0     C85592   5.183  10.656   5.270 -0.7579 -0.2374 -0.0646
  649MOL0     C85593   5.272  10.618   5.166 -0.9159  0.3281 -0.6299
  649MOL0     O85594   5.405  10.655   5.155 -0.4183 -0.2407  0.5565
  649MOL0     C85595   5.501  10.546   5.185 -0.1308 -0.0483  0.5124
  649MOL0     C85596   5.579  10.498   5.068 -0.0760  0.3760 -0.4294
  649MOL0     C85597   5.662  10.373   5.117  0.4720  0.1654  0.5449
  649MOL0     C85598   5.741  10.303   5.002  0.2219 -0.5577 -0.6873
  649MOL0     C85599   5.655  10.223   4.921  0.2421  0.7531  0.4480
  649MOL0     C85600   5.571  10.158   4.860  0.5320  0.3514  0.4779
  649MOL0     C85601   5.217  10.548   5.063 -0.7089  0.9866  0.1549
  649MOL0     C85602   5.077  10.523   5.055  0.0354  0.2934 -0.6458
  649MOL0     H85603   4.618  10.720   5.001 -0.9542 -0.4096  1.1407
  649MOL0     H85604   4.390  10.713   4.966 -0.9530  0.3484 -0.1530
  649MOL0     H85605   4.051  10.539   4.945  1.0245 -0.8908 -0.9265
  649MOL0     H85606   4.157  10.667   4.979  4.3379  0.3779  1.1251
  649MOL0     H85607   4.077  10.647   5.199 -3.4891 -0.9088  0.3725
  649MOL0     H85608   4.191  10.506   5.219 -1.8356  0.8400  2.4191
  649MOL0     H85609   4.024  10.363   5.110 -0.4024  0.1612  0.3235
  649MOL0     H85610   3.904  10.476   5.140 -0.1022 -2.5726 -1.7900
  649MOL0     H85611   4.084  10.364   5.369 -1.5524  1.9699  3.1866
  649MOL0     H85612   3.944  10.467   5.373  0.2787  0.7925 -0.2091
  649MOL0     H85613   3.957  10.173   5.257 -0.3190 -0.4330  2.3952
  649MOL0     H85614   3.819  10.272   5.290  0.4667 -1.0185 -1.0312
  649MOL0     H85615   4.007  10.196   5.515  0.5093 -1.8546 -0.8083
  649MOL0     H85616   3.873  10.093   5.475  1.0698  0.2926 -1.8248
  649MOL0     H85617   3.801  10.257   5.666 -3.9486 -1.0146  0.1169
  649MOL0     H85618   3.830  10.400   5.560 -0.0769  0.7405  2.7264
  649MOL0     H85619   3.642  10.173   5.512 -0.3082  0.3512 -1.6106
  649MOL0     H85620   3.660  10.321   5.419  1.5880  1.6468  0.4820
  649MOL0     H85621   3.494  10.177   5.721 -0.3136  0.0653  1.8340
  649MOL0     H85622   3.325  10.304   5.896  1.9403  1.1855 -0.4341
  649MOL0     H85623   3.198  10.310   5.768 -2.3414  1.0025  1.7060
  649MOL0     H85624   3.187  10.544   5.774  3.2232  0.1781 -0.9531
  649MOL0     H85625   3.293  10.555   5.920  1.1733  0.0318 -1.3759
  649MOL0     H85626   3.160  10.392   6.046 -2.5510  0.7569  2.1395
  649MOL0     H85627   3.094  10.552   6.029 -0.6044 -1.4810  1.3284
  649MOL0     H85628   2.994  10.309   5.881  0.7315 -0.5311  1.3225
  649MOL0     H85629   2.970  10.475   5.821 -2.3725 -0.6427 -0.3542
  649MOL0     H85630   2.695  10.491   6.177 -1.1323 -1.4544  2.0622
  649MOL0     H85631   2.467  10.380   6.175 -0.5559  0.3724 -1.6659
  649MOL0     H85632   2.177  10.049   6.067 -0.3978 -1.2557 -0.0076
  649MOL0     H85633   1.962   9.944   6.010 -0.3941  1.9967  1.2396
  649MOL0     H85634   1.966   9.679   5.818  0.8675  1.9521  0.3467
  649MOL0     H85635   1.939   9.713   5.641  3.1529  0.4623  0.5201
  649MOL0     H85636   1.699   9.693   5.668 -1.0960  0.0436  0.5003
  649MOL0     H85637   1.740   9.655   5.842  0.5144 -1.1074  0.1651
  649MOL0     H85638   1.704   9.438   5.737  0.1558 -0.3231 -0.5553
  649MOL0     H85639   1.876   9.464   5.717  0.0101  0.3904 -0.0960
  649MOL0     H85640   1.668   9.521   5.503  0.5954 -1.1967 -1.3038
  649MOL0     H85641   1.833   9.582   5.494  1.0261 -0.9249 -1.5161
  649MOL0     H85642   1.807   9.406   5.335  0.4233  2.4286  1.1088
  649MOL0     H85643   1.726   9.305   5.459  0.7097 -1.4460 -1.2135
  649MOL0     H85644   1.967   9.235   5.405  2.1903 -0.1065  0.9644
  649MOL0     H85645   1.925   9.276   5.575 -2.6626  2.4879 -0.9105
  649MOL0     H85646   2.081   9.459   5.392  0.3664  2.0178  0.4014
  649MOL0     H85647   2.062   9.479   5.567 -1.0916  1.0296 -1.4704
  649MOL0     H85648   2.281   9.390   5.512  0.9886 -1.0264 -1.2014
  649MOL0     H85649   2.213   9.261   5.414 -1.8663 -1.6420  0.6190
  649MOL0     H85650   2.105   9.895   5.610 -0.9785  1.0533  0.1340
  649MOL0     H85651   2.300  10.042   5.656 -1.8947  1.1072 -0.9474
  649MOL0     H85652   2.583  10.186   5.806 -2.4732 -1.0037  1.5139
  649MOL0     H85653   2.804  10.251   5.833 -0.2061  0.8821 -0.4303
  649MOL0     H85654   4.408  10.279   4.994  2.7320 -1.3596  0.7413
  649MOL0     H85655   4.652  10.289   5.009 -1.6868 -1.6754  1.1561
  649MOL0     H85656   4.981  10.698   5.330  0.8648  1.5668  0.1125
  649MOL0     H85657   5.224  10.720   5.347  1.0376 -0.3461 -0.8748
  649MOL0     H85658   5.453  10.463   5.238 -1.8152  0.9026  0.5443
  649MOL0     H85659   5.569  10.585   5.261  1.7654 -4.2739  1.3108
  649MOL0     H85660   5.504  10.473   4.993 -0.0910  0.6670 -0.5135
  649MOL0     H85661   5.641  10.577   5.025  2.3947 -2.4009 -2.3634
  649MOL0     H85662   5.604  10.300   5.175 -2.6362  1.1069 -1.2117
  649MOL0     H85663   5.738  10.426   5.175  1.2675 -0.0447 -0.2734
  649MOL0     H85664   5.785  10.390   4.953 -0.9989  1.5348  1.6905
  649MOL0     H85665   5.831  10.249   5.033 -0.2090 -1.7085 -1.3590
  649MOL0     H85666   5.497  10.098   4.811  0.9729 -0.2608  0.5580
  649MOL0     H85667   5.275  10.520   4.976  3.1601  1.2678  2.4301
  649MOL0     H85668   5.029  10.467   4.976  0.4010  0.3597 -0.9188
  650MOL0     O85669   0.985   5.925   3.156 -0.2090  0.1726  0.5509
  650MOL0     C85670   0.980   5.807   3.182  0.0681 -0.0413  0.0042
  650MOL0     O85671   1.079   5.716   3.173  0.4128  0.2501 -0.1725
  650MOL0     C85672   1.203   5.743   3.130 -0.0516 -0.3677  0.4456
  650MOL0     C85673   1.312   5.698   3.207 -0.9753  0.2813  0.8540
  650MOL0     C85674   1.446   5.722   3.165  0.4540  0.4492  0.8481
  650MOL0     C85675   1.464   5.804   3.050 -0.8241 -1.2416 -0.4344
  650MOL0     O85676   1.597   5.854   3.023  0.1163  0.1888  0.0236
  650MOL0     C85677   1.601   5.995   3.044  0.1455 -0.6852  0.2141
  650MOL0     C85678   1.746   6.038   3.081 -0.1814 -0.6367  1.3245
  650MOL0     C85679   1.778   6.181   3.049 -0.6802  0.2809 -0.5652
  650MOL0     C85680   1.931   6.202   3.094  0.5040 -0.8905  0.3947
  650MOL0     C85681   2.007   6.326   3.042  0.4330  0.4025  0.2488
  650MOL0     C85682   2.125   6.353   3.127 -0.5228 -0.0254 -0.1616
  650MOL0     C85683   2.215   6.457   3.047  0.0350 -1.2128 -0.1101
  650MOL0     C85684   2.324   6.519   3.133 -1.5363  0.9076 -0.2195
  650MOL0     N85685   2.420   6.407   3.167 -0.5468  0.6569 -0.4911
  650MOL0     C85686   2.547   6.394   3.109 -0.6819  0.7766  1.0378
  650MOL0     C85687   2.620   6.318   3.195  0.6097 -0.3709  0.2189
  650MOL0     C85688   2.765   6.261   3.179  0.3413 -0.3776  0.0787
  650MOL0     C85689   2.782   6.149   3.076 -0.6820  0.4994  0.3388
  650MOL0     C85690   2.917   6.073   3.086  0.4676 -0.3110  0.6053
  650MOL0     C85691   3.003   6.077   2.948 -0.7315  0.5178 -0.1114
  650MOL0     O85692   3.054   6.214   2.923 -0.4002  0.2593  0.2384
  650MOL0     C85693   3.137   6.231   2.809  0.8820  0.1373  0.3589
  650MOL0     C85694   3.181   6.132   2.720 -0.8845  0.2045  0.0735
  650MOL0     C85695   3.254   6.164   2.603  0.0129  1.5532 -0.1781
  650MOL0     C85696   3.286   6.291   2.576 -0.3718 -0.0749 -0.7488
  650MOL0     C85697   3.374   6.325   2.464  0.2557 -0.8691 -0.4868
  650MOL0     O85698   3.415   6.458   2.451  0.2809 -0.1051  0.6235
  650MOL0     C85699   3.489   6.488   2.344 -0.7108 -0.0333  0.2039
  650MOL0     C85700   3.614   6.437   2.338 -1.0072 -0.7342  1.1264
  650MOL0     C85701   3.715   6.483   2.249  0.3337 -0.6000  0.3842
  650MOL0     C85702   3.685   6.593   2.168  0.9965  0.4295 -0.7159
  650MOL0     O85703   3.773   6.660   2.085  0.4684  0.0638 -0.2621
  650MOL0     C85704   3.881   6.579   2.033  0.1967  0.6348 -0.7441
  650MOL0     C85705   3.983   6.650   1.949 -0.2025 -0.7876  0.9611
  650MOL0     C85706   4.046   6.775   2.022  0.0492 -0.0566  0.6678
  650MOL0     C85707   4.195   6.796   1.979 -0.2379  0.9396 -0.0147
  650MOL0     C85708   4.248   6.917   2.049 -0.7771 -0.0651 -1.1862
  650MOL0     C85709   4.396   6.942   2.014 -0.3630 -0.0752  0.2331
  650MOL0     C85710   4.447   7.060   2.086 -0.0223 -0.6407  0.6908
  650MOL0     C85711   4.604   7.078   2.089 -0.1153  0.0702 -0.0256
  650MOL0    Cl85712   4.695   6.955   2.180  0.2880 -0.0047 -0.0654
  650MOL0     C85713   3.554   6.642   2.183  0.8315 -0.0592 -0.4699
  650MOL0     C85714   3.457   6.601   2.269 -0.6077 -0.3003 -0.2926
  650MOL0     O85715   3.395   6.239   2.384  0.0129  0.3946  0.2562
  650MOL0     C85716   3.240   6.389   2.670  0.2946 -0.0512  0.2842
  650MOL0     C85717   3.170   6.356   2.780  0.6985  0.3434  0.2309
  650MOL0     N85718   2.539   6.308   3.308 -0.7448  0.4810 -0.6651
  650MOL0     N85719   2.428   6.353   3.292  0.3032  0.0867 -0.5867
  650MOL0     C85720   1.354   5.852   2.975 -1.0206  0.7808 -0.7875
  650MOL0     C85721   1.226   5.817   3.008 -0.2870 -0.1686  0.1169
  650MOL0     C85722   0.846   5.781   3.234 -0.1170  0.4011  1.0363
  650MOL0     C85723   0.735   5.867   3.231 -0.0078  0.7484 -0.7235
  650MOL0     C85724   0.608   5.828   3.284  0.1589  0.3862 -0.6200
  650MOL0     C85725   0.592   5.700   3.341 -0.0160 -0.1778 -0.1718
  650MOL0     O85726   0.470   5.670   3.399 -0.2664  0.1430  0.5723
  650MOL0     C85727   0.462   5.539   3.459  0.9415  0.4720 -0.0277
  650MOL0     C85728   0.309   5.528   3.499  0.0533  0.3009 -0.2034
  650MOL0     C85729   0.280   5.615   3.622 -0.0636 -0.7256 -0.1465
  650MOL0     C85730   0.125   5.621   3.645 -0.1973 -0.7373 -0.5059
  650MOL0     C85731   0.089   5.696   3.774  1.0734  0.1025  0.1452
  650MOL0     C85732   0.054   5.754   3.879 -0.4635 -0.8777  0.2200
  650MOL0     C85733   0.706   5.620   3.333 -0.2770 -0.2268 -0.3227
  650MOL0     C85734   0.827   5.653   3.283 -0.3175  0.1169 -0.2677
  650MOL0     H85735   1.288   5.638   3.294 -1.9478  1.0178  1.1114
  650MOL0     H85736   1.528   5.688   3.228  1.2963  0.8695  0.0112
  650MOL0     H85737   1.527   6.021   3.120  1.3178  2.0470  0.5252
  650MOL0     H85738   1.570   6.054   2.957 -1.4028  0.4217  1.4700
  650MOL0     H85739   1.821   5.980   3.026 -1.8429  0.0901 -1.9972
  650MOL0     H85740   1.765   6.017   3.186 -0.2684 -1.5872  1.1555
  650MOL0     H85741   1.710   6.245   3.106 -1.3154 -1.9918  1.4025
  650MOL0     H85742   1.763   6.204   2.944 -2.8315 -0.3717 -0.4441
  650MOL0     H85743   1.943   6.208   3.202  2.4477 -0.9287  0.2117
  650MOL0     H85744   1.991   6.115   3.066  0.5491 -0.2755 -1.5554
  650MOL0     H85745   1.932   6.405   3.045  0.5709  1.1581 -5.2140
  650MOL0     H85746   2.028   6.317   2.935  0.9197  0.9354  0.2921
  650MOL0     H85747   2.178   6.257   3.125  1.1337  0.8259  0.3995
  650MOL0     H85748   2.100   6.381   3.229  0.0706  2.9382 -0.7265
  650MOL0     H85749   2.262   6.427   2.953  4.5552  5.8838 -0.9385
  650MOL0     H85750   2.151   6.544   3.026  1.0182 -1.0122 -2.5687
  650MOL0     H85751   2.271   6.545   3.225  2.8166 -0.5113  3.0720
  650MOL0     H85752   2.386   6.602   3.098 -0.6958  0.8780  1.1028
  650MOL0     H85753   2.584   6.436   3.015 -2.2453 -1.1001 -0.5022
  650MOL0     H85754   2.803   6.216   3.272  2.1591  0.9212  0.0337
  650MOL0     H85755   2.830   6.345   3.151 -0.6377 -0.3278 -2.1878
  650MOL0     H85756   2.786   6.198   2.978  0.5029 -1.4631 -0.6658
  650MOL0     H85757   2.700   6.078   3.067  0.3060 -0.4161 -2.8342
  650MOL0     H85758   2.987   6.111   3.161 -0.2769 -0.0478  1.1656
  650MOL0     H85759   2.898   5.970   3.117  1.6488 -1.1514 -1.2085
  650MOL0     H85760   2.953   6.039   2.859 -1.7049  0.2687  0.5303
  650MOL0     H85761   3.088   6.008   2.951 -1.3481 -0.2302  0.5120
  650MOL0     H85762   3.162   6.028   2.749  0.6675  0.4885  2.3987
  650MOL0     H85763   3.294   6.089   2.537 -1.6453 -0.0498  0.5551
  650MOL0     H85764   3.638   6.350   2.398 -0.3847 -0.6205  1.0425
  650MOL0     H85765   3.818   6.447   2.247 -0.2601 -2.6621 -4.1646
  650MOL0     H85766   3.838   6.499   1.972 -0.4856 -0.6251  1.2893
  650MOL0     H85767   3.947   6.542   2.112 -1.4688  0.9835  0.8790
  650MOL0     H85768   3.928   6.680   1.859 -1.8775  0.6451  2.3941
  650MOL0     H85769   4.053   6.578   1.906 -1.4263 -0.7729 -1.2214
  650MOL0     H85770   4.044   6.766   2.131  5.8532  1.7256  1.2444
  650MOL0     H85771   3.989   6.865   1.998 -0.7053 -0.6102  0.3511
  650MOL0     H85772   4.251   6.706   2.006 -3.2966 -0.3819  2.4894
  650MOL0     H85773   4.195   6.812   1.870 -1.8591  3.6069  0.2745
  650MOL0     H85774   4.245   6.886   2.153 -1.8416 -0.7758 -1.4156
  650MOL0     H85775   4.189   7.008   2.032 -2.2622 -0.5569  0.9290
  650MOL0     H85776   4.407   6.947   1.905  0.7949 -1.9647  0.2175
  650MOL0     H85777   4.454   6.857   2.051  1.8063  2.0162  1.9872
  650MOL0     H85778   4.422   7.153   2.035  3.0599  0.9075  1.7836
  650MOL0     H85779   4.413   7.064   2.189 -3.7873 -0.3938 -0.4112
  650MOL0     H85780   4.629   7.178   2.125  3.3646 -0.5691 -0.3333
  650MOL0     H85781   4.641   7.070   1.986 -2.0229 -1.2497 -0.6575
  650MOL0     H85782   3.513   6.726   2.127  1.4454 -0.1423 -1.0532
  650MOL0     H85783   3.367   6.655   2.294 -0.1961  0.5901 -0.7143
  650MOL0     H85784   3.260   6.496   2.662 -0.6430  0.2433  1.5596
  650MOL0     H85785   3.127   6.435   2.841 -0.2168  0.2027 -0.2163
  650MOL0     H85786   1.363   5.930   2.900 -1.4487  0.0178 -1.6468
  650MOL0     H85787   1.145   5.857   2.949  0.0607 -2.1182 -1.7746
  650MOL0     H85788   0.758   5.964   3.188 -0.1300  0.6324 -1.0516
  650MOL0     H85789   0.526   5.899   3.282  0.1452  0.3637 -0.8764
  650MOL0     H85790   0.532   5.530   3.542  1.5754 -2.5359 -0.7829
  650MOL0     H85791   0.469   5.459   3.385  1.9192  1.8056 -1.4378
  650MOL0     H85792   0.246   5.571   3.421 -0.8259 -0.4710  0.0739
  650MOL0     H85793   0.276   5.426   3.521  0.8682  0.0572 -0.0731
  650MOL0     H85794   0.314   5.719   3.624 -1.3328 -0.2960  0.2859
  650MOL0     H85795   0.326   5.568   3.709 -0.2540 -1.8941 -0.6581
  650MOL0     H85796   0.081   5.682   3.566 -1.2520 -0.6259  0.1523
  650MOL0     H85797   0.083   5.523   3.622  1.4545 -2.3485  2.6276
  650MOL0     H85798   0.017   5.805   3.965  0.8729  0.3913  0.0836
  650MOL0     H85799   0.700   5.523   3.381  0.9520 -0.0401  0.2545
  650MOL0     H85800   0.910   5.584   3.294 -0.3986 -0.2617 -1.7664
  651MOL0     O85801   9.302   2.962   1.846  0.1737  0.0634  0.3351
  651MOL0     C85802   9.387   3.024   1.783  0.3155 -0.4986 -0.1789
  651MOL0     O85803   9.368   3.109   1.676 -0.0414 -0.7603  0.2540
  651MOL0     C85804   9.243   3.135   1.625  0.1718  0.6641  1.3207
  651MOL0     C85805   9.131   3.181   1.700 -0.6402  0.0265  0.6195
  651MOL0     C85806   9.014   3.219   1.644 -0.3120  0.1083 -0.0049
  651MOL0     C85807   8.998   3.225   1.504  0.2750 -0.0223  0.3718
  651MOL0     O85808   8.891   3.284   1.451 -0.6399 -0.6153  0.3466
  651MOL0     C85809   8.816   3.209   1.354 -0.0983 -0.0274 -0.5466
  651MOL0     C85810   8.699   3.129   1.416  0.7619  1.4407  1.2491
  651MOL0     C85811   8.634   3.058   1.298 -0.6746  0.6487 -0.6611
  651MOL0     C85812   8.517   2.964   1.339  0.3874 -0.4429 -0.6636
  651MOL0     C85813   8.538   2.865   1.456  0.0098  0.0427 -0.0105
  651MOL0     C85814   8.403   2.791   1.480 -0.0882  1.0294 -0.6103
  651MOL0     C85815   8.421   2.689   1.593  0.7792  0.2185 -0.6103
  651MOL0     C85816   8.535   2.593   1.590 -0.1118  0.3233 -0.8500
  651MOL0     N85817   8.519   2.479   1.687 -0.4650  0.4544  1.1537
  651MOL0     C85818   8.431   2.381   1.682  1.0911 -0.5227  0.6190
  651MOL0     C85819   8.450   2.300   1.783  0.1620 -0.0509 -0.0046
  651MOL0     C85820   8.376   2.173   1.817  0.4434  0.4006  0.0832
  651MOL0     C85821   8.283   2.177   1.942 -0.1251 -0.3066 -0.4194
  651MOL0     C85822   8.182   2.058   1.938  0.6421 -0.1609  0.8712
  651MOL0     C85823   8.119   2.048   2.076 -0.2836 -0.6659  1.1221
  651MOL0     O85824   8.014   1.954   2.060 -0.0817 -0.7378 -0.2286
  651MOL0     C85825   7.945   1.914   2.173 -0.1017  0.5004  0.0075
  651MOL0     C85826   7.848   1.820   2.159  0.0328 -0.2636  0.7191
  651MOL0     C85827   7.772   1.759   2.260  0.1357 -0.7426  0.8435
  651MOL0     C85828   7.787   1.808   2.391 -0.6830  0.2956 -0.0023
  651MOL0     C85829   7.699   1.763   2.503 -0.3861 -0.3325  0.0279
  651MOL0     O85830   7.572   1.720   2.464  0.7948  0.4584 -0.1325
  651MOL0     C85831   7.475   1.693   2.560  0.0456 -0.6730  0.2045
  651MOL0     C85832   7.437   1.783   2.652  0.2728 -0.3139 -1.1448
  651MOL0     C85833   7.317   1.769   2.724 -0.7155 -0.0036  0.2071
  651MOL0     C85834   7.248   1.652   2.721 -0.0055  0.9387 -0.5376
  651MOL0     O85835   7.146   1.644   2.817  0.1185  0.7103 -0.2770
  651MOL0     C85836   7.046   1.541   2.801 -0.0112  0.5186  0.0932
  651MOL0     C85837   6.928   1.549   2.905  0.6280  0.6719 -0.2368
  651MOL0     C85838   6.876   1.406   2.919  1.3001  0.3985  0.0261
  651MOL0     C85839   6.752   1.382   3.009 -0.4603 -0.1069 -0.2074
  651MOL0     C85840   6.783   1.401   3.159 -0.7406  0.1175 -0.4579
  651MOL0     C85841   6.665   1.343   3.241  1.1117  0.4863  0.4381
  651MOL0     C85842   6.688   1.199   3.281  0.5988  0.1334  0.7408
  651MOL0     C85843   6.563   1.147   3.360 -0.2296 -0.5484 -0.4500
  651MOL0    Cl85844   6.635   1.012   3.460 -0.4100  0.0769  0.1175
  651MOL0     C85845   7.290   1.548   2.641 -0.2650 -0.4627 -1.2388
  651MOL0     C85846   7.399   1.571   2.557 -1.5807 -0.1127  0.3715
  651MOL0     O85847   7.732   1.778   2.618  0.3417  0.0147  0.0126
  651MOL0     C85848   7.898   1.898   2.412  0.3050  1.1554 -1.1009
  651MOL0     C85849   7.982   1.946   2.309 -0.0309  0.1430  0.0294
  651MOL0     N85850   8.556   2.354   1.865  0.1473  0.2731 -0.2561
  651MOL0     N85851   8.598   2.460   1.795  0.0628 -0.5883 -0.0412
  651MOL0     C85852   9.112   3.183   1.424  0.2909 -0.1531 -0.3238
  651MOL0     C85853   9.231   3.140   1.486  0.1432  0.0693 -0.8386
  651MOL0     C85854   9.522   2.994   1.832  0.0769  0.0506  0.4422
  651MOL0     C85855   9.639   3.031   1.757  1.3513 -0.0882 -1.0434
  651MOL0     C85856   9.766   2.981   1.795  0.2666  0.3846  0.5663
  651MOL0     C85857   9.786   2.913   1.913  0.1862  1.5889  0.5331
  651MOL0     O85858   9.909   2.860   1.950  1.0237 -0.3242  1.0450
  651MOL0     C85859  10.021   2.946   1.921  0.1982  0.3444 -0.1091
  651MOL0     C85860  10.131   2.924   2.021  0.3237 -0.0335  0.2793
  651MOL0     C85861  10.186   2.782   2.028 -0.4293  0.1699 -0.6438
  651MOL0     C85862  10.315   2.777   1.943  0.0838 -0.1716  0.5477
  651MOL0     C85863  10.376   2.641   1.925 -0.5531  0.3830  0.1967
  651MOL0     C85864  10.427   2.541   1.883  0.0616 -0.7014 -1.2113
  651MOL0     C85865   9.675   2.877   1.985  0.3656  1.1011  0.2286
  651MOL0     C85866   9.550   2.915   1.947 -0.2556  0.5274  1.1603
  651MOL0     H85867   9.132   3.185   1.808 -2.9288  2.6115  0.6539
  651MOL0     H85868   8.936   3.253   1.712  1.0305 -0.6946  2.0503
  651MOL0     H85869   8.881   3.149   1.291 -2.4640 -2.5928 -0.7301
  651MOL0     H85870   8.784   3.282   1.279  1.7983 -1.5640 -3.0210
  651MOL0     H85871   8.623   3.192   1.464  0.0304  0.9689  0.7478
  651MOL0     H85872   8.736   3.066   1.498 -0.5616  1.2915  1.7632
  651MOL0     H85873   8.716   3.008   1.245  1.3589  0.9466  1.9960
  651MOL0     H85874   8.595   3.136   1.233 -1.8963  0.0082 -0.7351
  651MOL0     H85875   8.432   3.030   1.360 -0.2736 -0.3080 -3.3989
  651MOL0     H85876   8.476   2.924   1.246  0.2465 -1.0644 -0.3441
  651MOL0     H85877   8.543   2.916   1.552 -0.7675  0.5583 -0.2406
  651MOL0     H85878   8.620   2.793   1.439 -0.4351 -1.3047  2.9198
  651MOL0     H85879   8.374   2.735   1.391  1.2980  4.0459 -3.1363
  651MOL0     H85880   8.320   2.855   1.512 -1.4566 -0.5261 -0.9044
  651MOL0     H85881   8.405   2.738   1.690 -0.7032  2.9021 -2.0929
  651MOL0     H85882   8.335   2.624   1.576 -1.0364  1.8702  1.6326
  651MOL0     H85883   8.619   2.650   1.633 -1.9192  0.8344  2.3534
  651MOL0     H85884   8.557   2.550   1.492  2.2333  0.0574 -0.2789
  651MOL0     H85885   8.365   2.361   1.599  1.0785  1.2510  0.1537
  651MOL0     H85886   8.442   2.087   1.831 -2.3194 -1.5683  2.0634
  651MOL0     H85887   8.311   2.153   1.731  1.1000  3.1196 -1.1633
  651MOL0     H85888   8.235   2.275   1.952  0.7266  0.1664 -0.8535
  651MOL0     H85889   8.342   2.175   2.034  4.8358  1.2393 -3.2112
  651MOL0     H85890   8.107   2.080   1.862  0.3883  0.5524  1.3147
  651MOL0     H85891   8.228   1.963   1.911 -2.1535 -1.0019 -1.4006
  651MOL0     H85892   8.075   2.145   2.103  2.7106  0.9269  0.7771
  651MOL0     H85893   8.194   2.025   2.152 -1.5362 -0.7462  2.3655
  651MOL0     H85894   7.826   1.802   2.054  3.6301 -0.9773 -0.0718
  651MOL0     H85895   7.700   1.684   2.228 -1.5775  0.5683  1.5062
  651MOL0     H85896   7.476   1.884   2.656  0.0268 -0.2384 -0.3659
  651MOL0     H85897   7.288   1.846   2.795  0.2634  1.0427 -0.4933
  651MOL0     H85898   7.103   1.454   2.835 -0.2265  0.7610  1.0815
  651MOL0     H85899   7.001   1.515   2.704  0.2423 -3.5489  0.8750
  651MOL0     H85900   6.848   1.617   2.876 -1.0582 -1.8186 -1.8467
  651MOL0     H85901   6.960   1.592   3.000 -3.6730  0.9845  1.2785
  651MOL0     H85902   6.955   1.332   2.934 -1.1140 -2.1106  1.2184
  651MOL0     H85903   6.843   1.374   2.820  1.6715  2.9769 -1.0183
  651MOL0     H85904   6.674   1.447   2.968  0.4206 -0.1548 -2.0515
  651MOL0     H85905   6.724   1.280   2.980  2.4261 -1.6005  1.7953
  651MOL0     H85906   6.782   1.510   3.171  2.7194  0.2867 -0.6054
  651MOL0     H85907   6.877   1.350   3.183 -1.0441  0.1790  0.9370
  651MOL0     H85908   6.576   1.334   3.178 -1.0308 -0.3234  3.3607
  651MOL0     H85909   6.652   1.411   3.325 -0.1207 -0.3264  0.9261
  651MOL0     H85910   6.704   1.128   3.199 -2.2596  0.9580 -0.6505
  651MOL0     H85911   6.781   1.204   3.338 -1.1922  0.7548  3.7821
  651MOL0     H85912   6.481   1.111   3.298 -2.7199 -1.2961  2.9899
  651MOL0     H85913   6.519   1.229   3.419 -0.8829 -2.0998  1.3234
  651MOL0     H85914   7.244   1.450   2.644  0.3246 -0.7304 -0.7882
  651MOL0     H85915   7.424   1.487   2.493 -0.6979 -0.9337  1.7438
  651MOL0     H85916   7.935   1.924   2.510 -1.7889 -1.0993  0.3828
  651MOL0     H85917   8.076   1.995   2.333  0.0949 -0.1390  0.1260
  651MOL0     H85918   9.112   3.184   1.315  1.2143 -0.4770 -0.3318
  651MOL0     H85919   9.314   3.103   1.427  0.2872 -3.3757  1.2308
  651MOL0     H85920   9.630   3.089   1.666  1.6105  1.1905 -0.2838
  651MOL0     H85921   9.848   3.003   1.727 -1.3117 -0.4086 -1.7223
  651MOL0     H85922   9.999   3.053   1.919 -0.0837  0.2723 -1.0320
  651MOL0     H85923  10.052   2.923   1.819 -1.7615 -0.0806 -0.6499
  651MOL0     H85924  10.221   2.983   2.003  2.2154 -1.8879  2.9453
  651MOL0     H85925  10.088   2.957   2.117  2.1605  1.0581  0.7692
  651MOL0     H85926  10.113   2.710   1.988  0.8620 -2.5608  1.5974
  651MOL0     H85927  10.204   2.750   2.131 -0.3817 -2.4838 -1.4004
  651MOL0     H85928  10.287   2.809   1.843  0.0629 -3.8134 -0.7792
  651MOL0     H85929  10.393   2.844   1.979  0.6078 -0.5906  0.1991
  651MOL0     H85930  10.471   2.458   1.832  1.2247 -1.2520  0.5635
  651MOL0     H85931   9.680   2.814   2.074 -2.4689 -2.8273 -2.0579
  651MOL0     H85932   9.467   2.868   1.998 -1.6768  0.2426 -1.2761
  652MOL0     O85933  11.172  11.103   6.910  0.1929  0.0717  0.0579
  652MOL0     C85934  11.197  11.139   7.028  0.0403  0.0344  1.8389
  652MOL0     O85935  11.141  11.084   7.135 -0.5125 -0.3720  0.1129
  652MOL0     C85936  11.066  10.974   7.108 -0.6621  0.3509 -0.8433
  652MOL0     C85937  11.117  10.849   7.052 -0.1533 -0.5979 -0.3119
  652MOL0     C85938  11.028  10.740   7.019 -0.3988 -0.9092  0.5656
  652MOL0     C85939  10.888  10.755   7.046  0.0969 -0.2408  0.7521
  652MOL0     O85940  10.792  10.664   7.017  0.2092  0.0147 -0.0951
  652MOL0     C85941  10.823  10.532   6.996 -0.0420 -0.3493 -0.1033
  652MOL0     C85942  10.701  10.466   6.945  0.8054 -0.4045  0.3822
  652MOL0     C85943  10.677  10.315   6.980 -0.8270  0.3102  0.4712
  652MOL0     C85944  10.615  10.249   6.846  0.1024  0.1554  0.3037
  652MOL0     C85945  10.490  10.317   6.786 -0.3012 -0.3796  0.8493
  652MOL0     C85946  10.414  10.213   6.711  0.1647  0.2891 -0.3013
  652MOL0     C85947  10.297  10.278   6.638  0.1055  0.9195  0.1415
  652MOL0     C85948  10.228  10.166   6.554 -0.5336  0.0065 -0.1663
  652MOL0     N85949  10.155  10.218   6.447 -0.2137  0.2790 -0.1894
  652MOL0     C85950  10.016  10.234   6.448 -0.1240 -0.0220  1.0461
  652MOL0     C85951   9.987  10.295   6.334  0.4197 -0.1528  0.4959
  652MOL0     C85952   9.839  10.331   6.291 -0.6098 -0.1292 -0.3506
  652MOL0     C85953   9.759  10.392   6.404  0.3110 -1.0742  0.1320
  652MOL0     C85954   9.637  10.463   6.345 -0.2054 -0.6308  0.7312
  652MOL0     C85955   9.526  10.372   6.300  1.1170 -0.1355 -0.1667
  652MOL0     O85956   9.458  10.311   6.412 -0.3752  0.1699  0.0654
  652MOL0     C85957   9.333  10.257   6.396 -1.0344 -0.7786 -1.0382
  652MOL0     C85958   9.253  10.241   6.510 -0.6807 -0.1804 -0.0279
  652MOL0     C85959   9.123  10.192   6.503 -0.2577 -0.6727 -0.5496
  652MOL0     C85960   9.070  10.148   6.378 -0.1533  1.2524  0.8220
  652MOL0     C85961   8.953  10.064   6.369  0.6359 -1.0735 -0.2370
  652MOL0     O85962   8.868  10.090   6.474  0.0437 -0.7064 -0.4177
  652MOL0     C85963   8.750  10.027   6.481 -0.3642  0.4834  0.4294
  652MOL0     C85964   8.719   9.964   6.601  0.3437 -0.3891  0.7386
  652MOL0     C85965   8.586   9.924   6.613 -0.8816 -0.3345  0.0594
  652MOL0     C85966   8.492   9.906   6.509 -0.4440 -0.0522  0.7573
  652MOL0     O85967   8.372   9.856   6.538  0.1661  0.4157 -0.4741
  652MOL0     C85968   8.264   9.838   6.443 -0.7493 -0.0773 -0.0957
  652MOL0     C85969   8.169   9.729   6.500  0.0679  1.1253  0.1522
  652MOL0     C85970   8.117   9.767   6.639 -1.0665 -0.1716  0.9117
  652MOL0     C85971   8.097   9.635   6.726 -0.6719 -0.1877 -0.5214
  652MOL0     C85972   8.036   9.665   6.866 -0.2913 -0.0130 -0.3705
  652MOL0     C85973   7.938   9.788   6.862 -0.0257 -0.4417 -0.4048
  652MOL0     C85974   7.868   9.810   7.000  0.2879 -0.6452  0.1611
  652MOL0     C85975   7.773   9.927   6.985 -0.4313  0.3066 -0.8835
  652MOL0    Cl85976   7.689   9.943   7.148  0.6163  0.3202  0.1720
  652MOL0     C85977   8.533   9.976   6.395  0.5897  0.0139  1.1784
  652MOL0     C85978   8.665  10.033   6.379  0.4669  0.0680 -1.0636
  652MOL0     O85979   8.932   9.995   6.272  0.3781  0.1709  0.2814
  652MOL0     C85980   9.159  10.157   6.266 -0.7516  1.4707 -0.5436
  652MOL0     C85981   9.287  10.205   6.275 -0.2303 -0.5415 -0.1752
  652MOL0     N85982  10.110  10.321   6.267  0.0906 -0.1371  0.2563
  652MOL0     N85983  10.206  10.276   6.335 -0.6736  0.4525  0.4406
  652MOL0     C85984  10.848  10.876   7.106  0.2545  0.2780 -0.4757
  652MOL0     C85985  10.931  10.987   7.138  1.3624  0.2064 -0.1801
  652MOL0     C85986  11.293  11.244   7.066 -0.9174 -0.1161  0.5325
  652MOL0     C85987  11.372  11.300   6.959 -0.3953 -0.1784 -0.0437
  652MOL0     C85988  11.476  11.387   6.990  0.4682  0.2290 -0.5476
  652MOL0     C85989  11.497  11.446   7.113 -0.0964 -0.6355  0.5915
  652MOL0     O85990  11.586  11.548   7.141 -0.1525  0.9001 -0.5494
  652MOL0     C85991  11.535  11.680   7.153  0.1568 -0.0889  0.8047
  652MOL0     C85992  11.618  11.781   7.065  0.9313  0.6766 -0.9908
  652MOL0     C85993  11.756  11.774   7.103  0.1532  0.3414  0.2051
  652MOL0     C85994  11.851  11.889   7.050 -0.5906  0.0328 -0.5601
  652MOL0     C85995  11.991  11.885   7.105 -0.0784 -0.1956 -0.6900
  652MOL0     C85996  12.109  11.882   7.134 -0.0818  0.3875 -0.2963
  652MOL0     C85997  11.412  11.397   7.222 -0.1902  0.5274 -0.2727
  652MOL0     C85998  11.319  11.292   7.198  0.0533 -0.8122 -0.0315
  652MOL0     H85999  11.223  10.850   7.029 -0.2499  3.7064 -1.3612
  652MOL0     H86000  11.075  10.653   6.975  4.0129  0.5790  1.8257
  652MOL0     H86001  10.845  10.495   7.097  2.9500  0.2670 -0.4253
  652MOL0     H86002  10.911  10.512   6.934 -0.0877 -0.0070 -0.2817
  652MOL0     H86003  10.685  10.490   6.840 -0.6727 -0.2932  0.6091
  652MOL0     H86004  10.625  10.534   6.985  1.0379  0.5966 -0.8297
  652MOL0     H86005  10.609  10.303   7.065 -1.9462  0.6107 -0.3593
  652MOL0     H86006  10.776  10.270   6.991 -1.2807 -0.8952 -0.1706
  652MOL0     H86007  10.693  10.242   6.769  1.4328 -3.7230  1.7730
  652MOL0     H86008  10.586  10.153   6.891  1.8087 -1.1211 -1.1509
  652MOL0     H86009  10.513  10.393   6.710  0.2328 -1.0306  0.3503
  652MOL0     H86010  10.423  10.366   6.858 -2.0866 -0.8532 -0.4078
  652MOL0     H86011  10.374  10.144   6.785  0.4392 -0.5225 -0.9022
  652MOL0     H86012  10.483  10.153   6.651  0.0922 -3.4907  2.9886
  652MOL0     H86013  10.220  10.317   6.704 -3.0912  0.0038 -2.7598
  652MOL0     H86014  10.336  10.361   6.578  1.9781 -0.9881 -1.4702
  652MOL0     H86015  10.167  10.104   6.620  1.2512 -1.7507 -0.0349
  652MOL0     H86016  10.303  10.092   6.522  1.7553  1.1362  2.2003
  652MOL0     H86017   9.940  10.207   6.520 -0.1233 -0.1279  1.0066
  652MOL0     H86018   9.794  10.239   6.253 -2.8035  0.4267  0.7345
  652MOL0     H86019   9.837  10.405   6.210 -2.2069 -2.9938 -3.1710
  652MOL0     H86020   9.815  10.470   6.457  1.7420 -0.1242 -2.5953
  652MOL0     H86021   9.729  10.318   6.479  2.4911 -1.1047  1.0478
  652MOL0     H86022   9.603  10.523   6.430 -1.2004  2.0886 -1.4492
  652MOL0     H86023   9.652  10.535   6.264  2.5995  2.1798  3.4800
  652MOL0     H86024   9.563  10.295   6.232  0.6826 -2.3243  1.9263
  652MOL0     H86025   9.450  10.440   6.261  0.1851  0.1581  1.9731
  652MOL0     H86026   9.289  10.272   6.608 -2.4638 -1.5598  1.1101
  652MOL0     H86027   9.053  10.194   6.586  0.4261  5.0556  0.2725
  652MOL0     H86028   8.799   9.936   6.669  1.1296 -1.6048 -0.6282
  652MOL0     H86029   8.546   9.883   6.705 -1.0328  1.4975  0.8502
  652MOL0     H86030   8.307   9.815   6.346 -1.2503 -1.6142  0.0125
  652MOL0     H86031   8.202   9.929   6.441 -0.4144  0.2724  2.2416
  652MOL0     H86032   8.219   9.632   6.492 -0.5293  0.9267 -1.6289
  652MOL0     H86033   8.094   9.726   6.421  1.2215 -4.0333 -1.1008
  652MOL0     H86034   8.020   9.814   6.620 -0.8871 -1.3651 -4.8124
  652MOL0     H86035   8.186   9.832   6.692  0.2409 -1.0156  0.2852
  652MOL0     H86036   8.035   9.565   6.669 -1.1346  0.0025 -0.2525
  652MOL0     H86037   8.199   9.599   6.742 -0.3332  1.3486  1.0567
  652MOL0     H86038   8.119   9.698   6.928 -2.9511  1.9949  2.4365
  652MOL0     H86039   7.990   9.576   6.912  0.8312 -0.1944  0.4552
  652MOL0     H86040   7.860   9.772   6.786  0.9174  0.0750 -1.5115
  652MOL0     H86041   7.992   9.878   6.831 -0.9627  0.4316  0.4098
  652MOL0     H86042   7.813   9.720   7.029 -0.4992 -0.0011  0.7039
  652MOL0     H86043   7.934   9.840   7.082 -3.1538  4.8564  1.4267
  652MOL0     H86044   7.682   9.909   6.926 -1.1077 -0.9863  0.4658
  652MOL0     H86045   7.826  10.016   6.950 -0.4812  2.2134  3.2834
  652MOL0     H86046   8.472   9.980   6.305  2.6842 -2.2495 -0.4439
  652MOL0     H86047   8.699  10.102   6.302  1.3620  0.5506 -0.2595
  652MOL0     H86048   9.137  10.106   6.172  0.4662 -3.8556  1.6654
  652MOL0     H86049   9.348  10.199   6.186  3.0009 -2.0707  1.9240
  652MOL0     H86050  10.743  10.871   7.135  0.0295 -1.9433 -1.4532
  652MOL0     H86051  10.901  11.080   7.187  0.4794 -1.4866  2.7290
  652MOL0     H86052  11.357  11.274   6.855  0.5352 -0.7638 -0.0431
  652MOL0     H86053  11.551  11.416   6.917  2.2052 -0.9478  0.6886
  652MOL0     H86054  11.540  11.703   7.260  0.2254 -1.3418  1.0852
  652MOL0     H86055  11.430  11.686   7.122  0.5779  0.8196 -0.5439
  652MOL0     H86056  11.603  11.764   6.958 -2.8566 -3.6818 -0.1058
  652MOL0     H86057  11.578  11.882   7.076  0.2242  0.3039  0.0097
  652MOL0     H86058  11.787  11.673   7.073 -0.4395 -0.3396  1.7968
  652MOL0     H86059  11.767  11.780   7.212 -3.1704 -0.3503  0.6618
  652MOL0     H86060  11.842  11.882   6.941  0.7754  2.7047 -0.9082
  652MOL0     H86061  11.816  11.990   7.075 -2.4925 -0.9552  1.0757
  652MOL0     H86062  12.212  11.865   7.155  0.0339 -0.0082 -1.1383
  652MOL0     H86063  11.423  11.439   7.322  1.5131 -0.8209  0.1587
  652MOL0     H86064  11.260  11.245   7.276  1.2846  1.4127  2.4028
  653MOL0     O86065  10.879   8.052   8.155 -0.6251 -0.2164 -0.1345
  653MOL0     C86066  10.971   7.997   8.213 -0.3117 -0.5019 -0.4966
  653MOL0     O86067  10.964   7.894   8.294 -0.2674 -0.2738 -0.7759
  653MOL0     C86068  10.841   7.825   8.310 -1.6702 -0.5843 -0.1685
  653MOL0     C86069  10.795   7.801   8.436  0.3433  0.4137 -0.4011
  653MOL0     C86070  10.675   7.729   8.455  0.3997  0.3649 -0.6480
  653MOL0     C86071  10.594   7.687   8.346 -0.1582 -0.3276  0.8183
  653MOL0     O86072  10.488   7.598   8.371 -0.2733  0.0409 -0.5139
  653MOL0     C86073  10.523   7.465   8.426  0.1737  0.2927 -0.2408
  653MOL0     C86074  10.421   7.432   8.541  0.3350 -0.4984 -0.3105
  653MOL0     C86075  10.447   7.516   8.667 -0.2851 -0.7430  0.5656
  653MOL0     C86076  10.573   7.474   8.745  1.1531  0.3459  0.3652
  653MOL0     C86077  10.605   7.568   8.858 -0.0878 -0.0164 -0.1664
  653MOL0     C86078  10.730   7.521   8.933 -0.1913 -0.0186 -0.0218
  653MOL0     C86079  10.759   7.621   9.044 -0.6738  0.0343 -0.4867
  653MOL0     C86080  10.868   7.568   9.134  0.3982  0.4019 -0.3274
  653MOL0     N86081  10.918   7.669   9.225 -1.4754  0.0201 -0.3687
  653MOL0     C86082  10.936   7.804   9.205 -0.5050 -1.1439 -0.4010
  653MOL0     C86083  10.994   7.845   9.311 -0.0260 -0.6583 -0.1589
  653MOL0     C86084  11.037   7.988   9.326 -0.6391  0.2653 -0.6287
  653MOL0     C86085  11.186   7.985   9.356 -0.2679 -0.3543  0.2092
  653MOL0     C86086  11.246   8.121   9.390 -0.6188  0.3421 -0.9527
  653MOL0     C86087  11.381   8.127   9.456 -0.4239 -0.3437  0.4514
  653MOL0     O86088  11.415   8.270   9.479  0.0148  0.5850 -0.9500
  653MOL0     C86089  11.533   8.297   9.535  0.0530 -0.7002 -0.0147
  653MOL0     C86090  11.648   8.305   9.455 -0.2128  0.0069 -0.4446
  653MOL0     C86091  11.770   8.347   9.509 -0.3577 -0.0271 -0.0927
  653MOL0     C86092  11.789   8.385   9.642  0.5755 -0.4341  0.6625
  653MOL0     C86093  11.906   8.444   9.696  0.2427 -0.1937 -0.2800
  653MOL0     O86094  11.898   8.525   9.815  0.1450 -0.4801 -0.1283
  653MOL0     C86095  12.012   8.572   9.871 -1.3906 -0.2404  0.2122
  653MOL0     C86096  12.030   8.523   9.998 -0.1094 -0.2633  0.4158
  653MOL0     C86097  12.132   8.574  10.071 -0.7388  0.3059 -0.4707
  653MOL0     C86098  12.234   8.667  10.017  1.3169  0.0614 -1.1659
  653MOL0     O86099  12.332   8.723  10.094 -0.0936 -0.1749 -0.2531
  653MOL0     C86100  12.296   8.778  10.225  0.7655  0.0212  0.3771
  653MOL0     C86101  12.326   8.929  10.230 -0.8396 -0.3720  0.6403
  653MOL0     C86102  12.248   9.013  10.130 -0.1016 -0.3543  0.8153
  653MOL0     C86103  12.305   9.154  10.097  0.8899  0.2327  0.1976
  653MOL0     C86104  12.239   9.208   9.975  0.7701 -0.2378  0.2136
  653MOL0     C86105  12.308   9.343   9.934 -1.1789  0.0966 -0.0923
  653MOL0     C86106  12.445   9.315   9.870  0.0880 -0.9296 -0.3223
  653MOL0     C86107  12.539   9.432   9.873 -0.0025  0.6699 -0.5819
  653MOL0    Cl86108  12.673   9.400   9.759 -0.4363 -0.5062  0.1173
  653MOL0     C86109  12.214   8.709   9.892 -0.0716 -0.3518  1.5988
  653MOL0     C86110  12.099   8.666   9.816 -0.6413  0.9652 -0.2466
  653MOL0     O86111  12.011   8.420   9.640 -0.0804 -0.1978 -0.3495
  653MOL0     C86112  11.675   8.357   9.727  0.5247 -0.3278  0.9973
  653MOL0     C86113  11.549   8.319   9.674  0.2704 -0.1649 -1.0336
  653MOL0     N86114  11.007   7.751   9.401  0.5944  0.0976  0.2355
  653MOL0     N86115  10.977   7.641   9.346 -0.3197 -0.0397  0.3014
  653MOL0     C86116  10.627   7.729   8.224 -0.6638  0.5094  0.5470
  653MOL0     C86117  10.748   7.794   8.209 -0.0855  0.8246 -0.2399
  653MOL0     C86118  11.112   8.047   8.190  0.0543 -0.6040  0.2398
  653MOL0     C86119  11.140   8.146   8.091  0.5136 -0.3834 -0.7735
  653MOL0     C86120  11.268   8.192   8.067  0.7826  0.3134 -0.7562
  653MOL0     C86121  11.371   8.140   8.148 -0.0739 -0.2815  0.3742
  653MOL0     O86122  11.504   8.184   8.137 -0.2731  0.7446  0.2388
  653MOL0     C86123  11.533   8.326   8.143  0.3230  0.8867  0.4425
  653MOL0     C86124  11.683   8.344   8.178 -0.2280  0.1459  0.4300
  653MOL0     C86125  11.739   8.478   8.127 -0.0982  0.3423  0.5832
  653MOL0     C86126  11.872   8.502   8.190  0.2368  0.2787 -0.0311
  653MOL0     C86127  11.920   8.630   8.134 -0.3502 -0.3409  0.2033
  653MOL0     C86128  11.952   8.739   8.103 -0.3357  0.5516  0.8764
  653MOL0     C86129  11.346   8.044   8.247 -0.6875  0.1163  0.2681
  653MOL0     C86130  11.219   7.999   8.267  0.3634 -0.4320  0.4232
  653MOL0     H86131  10.851   7.828   8.525  1.0444  0.3183 -0.8018
  653MOL0     H86132  10.638   7.684   8.547 -2.2466 -1.5321 -2.4863
  653MOL0     H86133  10.629   7.471   8.453  1.4700 -6.1997 -2.2648
  653MOL0     H86134  10.512   7.383   8.355 -1.1503 -1.5984  1.9836
  653MOL0     H86135  10.438   7.327   8.568 -0.0941  0.7599  6.7564
  653MOL0     H86136  10.324   7.469   8.505  0.8162  3.0292  1.5826
  653MOL0     H86137  10.361   7.522   8.733  0.7851  2.2026  1.8445
  653MOL0     H86138  10.462   7.621   8.642 -0.4106 -0.4889  1.5604
  653MOL0     H86139  10.561   7.373   8.784 -1.6037 -0.0607 -1.2608
  653MOL0     H86140  10.661   7.468   8.680  2.3724  0.9446  1.8931
  653MOL0     H86141  10.526   7.573   8.935  1.8165 -2.5319  2.1664
  653MOL0     H86142  10.637   7.668   8.830  0.2379  0.5242  1.9282
  653MOL0     H86143  10.812   7.496   8.865  0.4026  0.2889  0.5597
  653MOL0     H86144  10.707   7.425   8.981 -0.8542 -0.5745 -1.4026
  653MOL0     H86145  10.794   7.716   9.002 -1.3224  0.0511 -1.0064
  653MOL0     H86146  10.671   7.651   9.101  0.4498  0.1266  1.2554
  653MOL0     H86147  10.952   7.542   9.069  0.0182  4.8292 -3.0055
  653MOL0     H86148  10.834   7.491   9.204  1.0670  3.4044  3.6795
  653MOL0     H86149  10.926   7.859   9.112  0.3718 -1.9144 -0.9665
  653MOL0     H86150  10.982   8.027   9.412 -2.0689  0.8928 -1.7964
  653MOL0     H86151  11.011   8.050   9.240  3.8522  3.0834 -0.2951
  653MOL0     H86152  11.227   7.945   9.262  0.3306 -0.7214  0.6223
  653MOL0     H86153  11.211   7.914   9.435  0.8077  2.7074  2.7857
  653MOL0     H86154  11.243   8.168   9.292 -0.6088 -1.4687 -1.8549
  653MOL0     H86155  11.176   8.171   9.457 -1.7385  1.1149 -2.6350
  653MOL0     H86156  11.456   8.098   9.382 -0.7971  2.9783 -1.4561
  653MOL0     H86157  11.383   8.060   9.542 -1.1759 -0.7798  0.1398
  653MOL0     H86158  11.630   8.276   9.352  5.1733  0.7307 -1.8506
  653MOL0     H86159  11.857   8.341   9.444 -1.9374 -0.3040 -2.2836
  653MOL0     H86160  11.978   8.434  10.033  0.7319 -0.5081  1.0826
  653MOL0     H86161  12.143   8.536  10.171  0.6746 -0.1919 -0.8009
  653MOL0     H86162  12.345   8.716  10.301  0.9207 -2.0230 -1.2663
  653MOL0     H86163  12.188   8.764  10.234  1.1499 -2.7347  1.9757
  653MOL0     H86164  12.432   8.942  10.211 -1.0764  0.4451 -0.1683
  653MOL0     H86165  12.311   8.974  10.329 -2.3545  0.0316  0.2516
  653MOL0     H86166  12.146   9.022  10.169  0.9354  0.1866  3.6522
  653MOL0     H86167  12.241   8.961  10.034 -0.6579  2.8667 -1.0450
  653MOL0     H86168  12.284   9.208  10.190 -0.0879 -1.6993  1.1510
  653MOL0     H86169  12.414   9.150  10.086  1.3859  2.1916  3.3473
  653MOL0     H86170  12.132   9.223   9.988  1.0567  0.0676  2.5707
  653MOL0     H86171  12.267   9.141   9.893 -1.0755 -2.3904  1.2224
  653MOL0     H86172  12.333   9.398  10.025  2.6991 -0.9330 -0.3288
  653MOL0     H86173  12.246   9.402   9.865 -1.1132 -1.2065 -1.3174
  653MOL0     H86174  12.494   9.233   9.922  0.2296 -1.1296 -0.7688
  653MOL0     H86175  12.418   9.280   9.771  0.2553 -3.2104  0.3945
  653MOL0     H86176  12.569   9.465   9.973 -5.2349 -1.6499  2.1213
  653MOL0     H86177  12.491   9.525   9.841 -1.6819  0.3750  0.9416
  653MOL0     H86178  12.289   8.759   9.832  0.7665 -2.4897  0.7391
  653MOL0     H86179  12.072   8.718   9.725 -1.6208  1.1334  0.1314
  653MOL0     H86180  11.695   8.378   9.831 -2.4629 -2.2537  2.0924
  653MOL0     H86181  11.467   8.330   9.744 -0.4194  2.6166 -2.1778
  653MOL0     H86182  10.547   7.718   8.152 -0.9422  0.4881  0.8596
  653MOL0     H86183  10.766   7.826   8.107  0.3904  4.3018  0.7985
  653MOL0     H86184  11.064   8.185   8.024  1.0738 -0.5619 -1.5189
  653MOL0     H86185  11.289   8.260   7.985 -1.5602 -2.4410 -3.9048
  653MOL0     H86186  11.467   8.381   8.211 -3.3930  0.6341 -2.5999
  653MOL0     H86187  11.508   8.371   8.047 -2.5075  0.6485  0.9645
  653MOL0     H86188  11.702   8.357   8.285  1.4346  3.4866 -0.1582
  653MOL0     H86189  11.743   8.266   8.132  0.8739  0.8268  0.6933
  653MOL0     H86190  11.670   8.560   8.151 -0.8150 -0.1533  0.2719
  653MOL0     H86191  11.752   8.462   8.019 -0.5585  1.0821  0.4089
  653MOL0     H86192  11.873   8.511   8.299  2.3115  0.8398 -0.0545
  653MOL0     H86193  11.946   8.431   8.152 -1.9476 -2.4443  0.4979
  653MOL0     H86194  11.993   8.833   8.071 -0.1279 -0.3677 -1.7962
  653MOL0     H86195  11.431   7.997   8.294  2.8880  1.6735 -3.9366
  653MOL0     H86196  11.219   7.914   8.334  4.5219 -2.1763 -1.4082
  654MOL0     O86197   4.176   3.431   0.413  0.0443 -0.9566  0.0898
  654MOL0     C86198   4.220   3.460   0.523 -1.0036  0.0604  0.0934
  654MOL0     O86199   4.144   3.460   0.640  0.5150 -0.2342 -0.2128
  654MOL0     C86200   4.005   3.466   0.653  0.2025 -1.5252 -0.4867
  654MOL0     C86201   3.919   3.508   0.558  0.4840  0.7645 -0.2402
  654MOL0     C86202   3.782   3.486   0.582  0.2512  0.2944 -0.0166
  654MOL0     C86203   3.726   3.459   0.705  0.4278  0.2467  0.4736
  654MOL0     O86204   3.588   3.439   0.708  0.1993 -0.9826  0.1546
  654MOL0     C86205   3.519   3.466   0.827  0.6208  0.4327  0.1503
  654MOL0     C86206   3.370   3.481   0.801 -0.4560  0.7950 -0.5318
  654MOL0     C86207   3.282   3.484   0.922  1.2350  0.4397 -0.2961
  654MOL0     C86208   3.136   3.520   0.875  0.5860 -0.6100 -0.6302
  654MOL0     C86209   3.025   3.432   0.940 -0.3044  0.1284 -0.0094
  654MOL0     C86210   2.985   3.475   1.079  0.4413 -0.4775  0.9401
  654MOL0     C86211   3.071   3.426   1.194 -0.3721 -0.0092 -0.1692
  654MOL0     C86212   3.025   3.470   1.331  0.1625 -0.8699  0.0214
  654MOL0     N86213   3.103   3.429   1.440 -0.2644 -0.8469  0.2841
  654MOL0     C86214   3.163   3.302   1.459 -0.3757 -0.1456  0.2615
  654MOL0     C86215   3.230   3.289   1.577  0.4174 -0.4946 -0.5553
  654MOL0     C86216   3.291   3.171   1.657 -0.2085 -0.1761 -0.7591
  654MOL0     C86217   3.177   3.076   1.705 -0.2669  0.6244 -0.9120
  654MOL0     C86218   3.141   3.133   1.843  0.9210 -0.6682  0.8401
  654MOL0     C86219   3.074   3.021   1.926  0.4912  0.1892  0.8046
  654MOL0     O86220   2.986   3.094   2.008 -0.7327  0.4167  0.6025
  654MOL0     C86221   2.887   3.035   2.084  1.0015 -0.5509  0.9733
  654MOL0     C86222   2.793   3.124   2.141  0.0160 -0.1094  0.1288
  654MOL0     C86223   2.688   3.067   2.207  0.2183 -1.5741  0.6536
  654MOL0     C86224   2.660   2.931   2.208 -0.3620 -0.3521 -0.7286
  654MOL0     C86225   2.547   2.875   2.271  0.3788  0.1926 -0.0326
  654MOL0     O86226   2.505   2.746   2.237 -0.2034  1.0193 -0.5872
  654MOL0     C86227   2.406   2.691   2.299  0.0746 -0.0528 -0.0924
  654MOL0     C86228   2.294   2.760   2.340  0.1715  0.1685 -0.4888
  654MOL0     C86229   2.196   2.693   2.425  0.6593 -0.4861  0.5158
  654MOL0     C86230   2.204   2.560   2.452  0.0770  0.2697 -0.3486
  654MOL0     O86231   2.104   2.507   2.524 -0.5479  0.1826 -0.1436
  654MOL0     C86232   2.074   2.377   2.503  0.3139  0.9007  0.1686
  654MOL0     C86233   2.003   2.341   2.375 -0.3677 -0.0603 -0.2848
  654MOL0     C86234   1.936   2.205   2.362  0.5425  0.5843  0.9382
  654MOL0     C86235   1.861   2.157   2.488 -0.3892  1.1582  0.5735
  654MOL0     C86236   1.762   2.038   2.459 -0.0665  0.7134 -0.4045
  654MOL0     C86237   1.819   1.920   2.385 -0.0297 -0.5108  0.2130
  654MOL0     C86238   1.705   1.809   2.371  1.3421 -0.2952 -0.2633
  654MOL0     C86239   1.762   1.685   2.310  0.1763 -0.6314  0.7454
  654MOL0    Cl86240   1.802   1.714   2.135 -0.0282 -0.2426  0.1820
  654MOL0     C86241   2.320   2.485   2.410 -0.0017 -0.4555 -0.0761
  654MOL0     C86242   2.421   2.555   2.334  0.2961 -0.8035  0.0278
  654MOL0     O86243   2.493   2.946   2.364 -0.0907  0.2184  0.3031
  654MOL0     C86244   2.749   2.851   2.146 -0.0697 -0.3612  0.1702
  654MOL0     C86245   2.861   2.905   2.086  0.1104 -0.7416 -0.9193
  654MOL0     N86246   3.208   3.412   1.637  0.4310  0.4143  0.4331
  654MOL0     N86247   3.140   3.491   1.554 -0.2691 -0.0694  0.3830
  654MOL0     C86248   3.817   3.439   0.816  0.6115  0.5554  0.5031
  654MOL0     C86249   3.947   3.439   0.784 -0.5038  0.5847  0.3396
  654MOL0     C86250   4.371   3.478   0.534 -0.0673  0.2148 -0.0172
  654MOL0     C86251   4.453   3.439   0.428 -0.1597  0.2439 -0.1963
  654MOL0     C86252   4.584   3.430   0.452 -0.0747 -0.1982  0.4195
  654MOL0     C86253   4.648   3.461   0.569 -0.3301 -0.1667  0.1174
  654MOL0     O86254   4.780   3.435   0.583 -0.0631 -0.1713  0.2799
  654MOL0     C86255   4.842   3.450   0.708 -0.3343 -0.3287 -0.1538
  654MOL0     C86256   4.990   3.409   0.698  0.0642  0.7065  0.4965
  654MOL0     C86257   5.014   3.268   0.643 -0.2160  0.6549 -0.2726
  654MOL0     C86258   5.165   3.234   0.630 -0.0664  0.2826  0.0727
  654MOL0     C86259   5.229   3.323   0.534  1.5924  0.4651 -0.0316
  654MOL0     C86260   5.278   3.404   0.466 -1.0683 -0.6182 -0.2063
  654MOL0     C86261   4.557   3.511   0.669 -0.2956  0.3698  0.4135
  654MOL0     C86262   4.426   3.520   0.651  0.7172  0.2916  0.0123
  654MOL0     H86263   3.964   3.537   0.463  0.4724 -0.4776 -0.6425
  654MOL0     H86264   3.712   3.506   0.501  1.3862  0.2695 -1.0256
  654MOL0     H86265   3.556   3.556   0.877  2.7148 -0.6829  0.7055
  654MOL0     H86266   3.539   3.385   0.898  0.8454  0.8928  0.6181
  654MOL0     H86267   3.347   3.401   0.730 -1.9135  0.3291  0.4052
  654MOL0     H86268   3.355   3.581   0.759  1.7867  0.1812 -3.0476
  654MOL0     H86269   3.306   3.574   0.979 -0.3682  2.5816 -2.7505
  654MOL0     H86270   3.282   3.393   0.981 -2.1587  0.1799 -0.4963
  654MOL0     H86271   3.122   3.626   0.901  1.7860 -0.8354  1.0349
  654MOL0     H86272   3.138   3.504   0.767 -1.0233 -0.6720 -0.6801
  654MOL0     H86273   3.063   3.329   0.941  2.2813  0.9268 -2.3004
  654MOL0     H86274   2.938   3.430   0.873 -1.3588  0.3913  1.3113
  654MOL0     H86275   2.886   3.432   1.099 -0.1658  1.4570  2.3902
  654MOL0     H86276   2.974   3.584   1.078 -3.3177 -0.6777 -1.5634
  654MOL0     H86277   3.068   3.317   1.193 -0.5188 -0.0041 -0.3692
  654MOL0     H86278   3.175   3.454   1.175  0.0256 -1.9972 -1.2445
  654MOL0     H86279   2.918   3.457   1.344 -0.2674  3.0196  2.0483
  654MOL0     H86280   3.041   3.579   1.332  1.1288 -0.9175  3.7942
  654MOL0     H86281   3.160   3.221   1.387  0.3263 -2.2103  2.4054
  654MOL0     H86282   3.357   3.201   1.740 -0.8405  3.0864 -1.3018
  654MOL0     H86283   3.356   3.117   1.587 -0.5249  2.1151 -2.9743
  654MOL0     H86284   3.207   2.971   1.721  1.6421  1.2508 -0.0105
  654MOL0     H86285   3.091   3.083   1.638 -1.0815  0.4776  0.0887
  654MOL0     H86286   3.233   3.139   1.901  0.9481  0.9408  0.6956
  654MOL0     H86287   3.097   3.234   1.846  1.1638 -0.5333  0.0183
  654MOL0     H86288   3.146   2.953   1.973 -1.0653 -3.9972 -2.1897
  654MOL0     H86289   3.019   2.961   1.852  1.6512 -0.0954  0.1409
  654MOL0     H86290   2.807   3.231   2.133  1.8931 -0.2957  0.6142
  654MOL0     H86291   2.613   3.128   2.256  0.8404 -0.7522  0.6073
  654MOL0     H86292   2.280   2.861   2.303 -0.5559 -0.3125 -1.5954
  654MOL0     H86293   2.113   2.750   2.465 -0.3721 -2.0189  0.6571
  654MOL0     H86294   2.012   2.352   2.589 -0.6759  1.6730 -0.3099
  654MOL0     H86295   2.149   2.303   2.533 -1.6365 -0.0661  3.1115
  654MOL0     H86296   2.067   2.359   2.288 -1.0097  3.0917 -0.2295
  654MOL0     H86297   1.927   2.419   2.385  0.6120  0.7274  1.2240
  654MOL0     H86298   2.011   2.129   2.338  0.8897  1.1181  0.2665
  654MOL0     H86299   1.877   2.219   2.270  1.2042  1.0864  0.5741
  654MOL0     H86300   1.935   2.119   2.558 -1.1790  0.2999  0.9509
  654MOL0     H86301   1.799   2.241   2.521  0.4474  1.2116  2.1061
  654MOL0     H86302   1.681   2.079   2.398  1.5408  3.5468 -0.8722
  654MOL0     H86303   1.725   1.994   2.552 -2.1523 -2.2217 -2.4397
  654MOL0     H86304   1.902   1.883   2.445  0.0725 -0.3690  0.1588
  654MOL0     H86305   1.858   1.952   2.288 -0.6122 -1.7369 -0.4535
  654MOL0     H86306   1.649   1.784   2.462 -1.5126  0.4612 -1.6975
  654MOL0     H86307   1.631   1.849   2.301  1.4919 -1.0034 -0.8367
  654MOL0     H86308   1.686   1.608   2.322 -0.7177  0.4963  3.0291
  654MOL0     H86309   1.855   1.660   2.363  1.6650  1.1185 -0.8860
  654MOL0     H86310   2.341   2.379   2.415  2.2614 -0.2148 -2.4113
  654MOL0     H86311   2.509   2.505   2.295 -0.0810 -0.9095 -0.7033
  654MOL0     H86312   2.740   2.743   2.139  1.0383 -0.5501  1.3969
  654MOL0     H86313   2.924   2.825   2.047  1.8920 -1.1418  2.4102
  654MOL0     H86314   3.768   3.414   0.910 -3.7973  0.8247 -1.4588
  654MOL0     H86315   4.021   3.412   0.859  1.6090 -0.0101 -1.8019
  654MOL0     H86316   4.401   3.411   0.338  0.5919  0.9767 -0.8874
  654MOL0     H86317   4.634   3.417   0.356 -1.8817 -1.0778 -0.4464
  654MOL0     H86318   4.793   3.379   0.774 -1.8196  1.3129  0.6016
  654MOL0     H86319   4.818   3.549   0.748 -1.4788 -1.1162  1.1778
  654MOL0     H86320   5.040   3.485   0.637 -0.7101  0.5172 -0.3823
  654MOL0     H86321   5.033   3.409   0.799  0.6269 -1.1579  0.3046
  654MOL0     H86322   4.972   3.250   0.544 -2.7535 -3.2048  1.2704
  654MOL0     H86323   4.977   3.198   0.719 -2.4135  2.8155  0.7951
  654MOL0     H86324   5.204   3.246   0.732 -1.0353 -1.3461  0.6748
  654MOL0     H86325   5.179   3.132   0.592 -1.2464 -0.4509  1.4924
  654MOL0     H86326   5.328   3.482   0.412 -0.8751  0.3091  1.2399
  654MOL0     H86327   4.597   3.531   0.768  0.0307 -1.5572  0.7227
  654MOL0     H86328   4.367   3.541   0.740  0.2585 -1.9125  0.2848
  655MOL0     O86329   4.022  10.089   0.124 -0.1022 -0.1649  0.5265
  655MOL0     C86330   4.095  10.176   0.069 -0.3261 -0.7616 -0.5497
  655MOL0     O86331   4.056  10.300   0.032  0.4573  0.0912  1.0582
  655MOL0     C86332   3.930  10.338   0.076 -0.4959 -0.4448  0.2380
  655MOL0     C86333   3.909  10.405   0.202 -0.1814  0.0235 -0.9994
  655MOL0     C86334   3.777  10.451   0.237  0.2037  0.4011 -0.7047
  655MOL0     C86335   3.670  10.427   0.156  0.9607  0.0916 -0.0841
  655MOL0     O86336   3.549  10.475   0.192  0.5211  0.4011 -0.4402
  655MOL0     C86337   3.497  10.444   0.321  0.6418 -0.2787 -0.3003
  655MOL0     C86338   3.347  10.454   0.341  0.3835  0.4550  0.6124
  655MOL0     C86339   3.292  10.436   0.483 -0.3643 -0.5449 -0.0010
  655MOL0     C86340   3.145  10.478   0.492  0.0581  1.0109  0.1257
  655MOL0     C86341   3.081  10.487   0.631 -0.2267  0.1392  0.0369
  655MOL0     C86342   2.943  10.557   0.610 -0.6529  0.2548 -0.7560
  655MOL0     C86343   2.855  10.541   0.733  0.4933  0.8298 -0.5615
  655MOL0     C86344   2.794  10.409   0.746  0.5828 -0.0099  0.5886
  655MOL0     N86345   2.721  10.350   0.627  0.2870  0.3570 -0.4351
  655MOL0     C86346   2.616  10.406   0.564  0.4510 -0.1368  0.2351
  655MOL0     C86347   2.591  10.330   0.460  0.3404  0.1427 -0.3161
  655MOL0     C86348   2.488  10.370   0.359 -0.3345  0.3754 -0.2860
  655MOL0     C86349   2.355  10.314   0.406 -0.7116  0.5646  0.3105
  655MOL0     C86350   2.362  10.164   0.431  0.8676  0.6037 -0.4867
  655MOL0     C86351   2.398  10.091   0.302  0.5801 -0.2151 -0.5820
  655MOL0     O86352   2.346   9.955   0.309 -1.0517  0.6591  0.0596
  655MOL0     C86353   2.219   9.934   0.257  0.3012 -0.0689  0.8609
  655MOL0     C86354   2.167   9.805   0.253 -0.0814 -0.7008 -0.4051
  655MOL0     C86355   2.040   9.772   0.198 -0.4456 -0.9692 -0.7409
  655MOL0     C86356   1.945   9.872   0.175  0.0218 -0.0583 -0.4436
  655MOL0     C86357   1.802   9.834   0.143 -0.4526  0.2155  0.6005
  655MOL0     O86358   1.763   9.703   0.142 -0.4746  0.0440  0.2823
  655MOL0     C86359   1.640   9.674   0.095 -0.9778  0.9870 -0.1650
  655MOL0     C86360   1.620   9.661  -0.044 -0.0020  0.1096 -0.1853
  655MOL0     C86361   1.497   9.618  -0.091  0.0046 -0.2642 -0.4688
  655MOL0     C86362   1.386   9.607  -0.001  0.3300  0.3490 -0.3559
  655MOL0     O86363   1.260   9.558  -0.036 -0.0093 -0.1352  0.5361
  655MOL0     C86364   1.255   9.449  -0.127 -0.3793  0.0810  0.1147
  655MOL0     C86365   1.162   9.344  -0.070  0.2739  0.0011 -0.0833
  655MOL0     C86366   1.118   9.238  -0.169 -0.5195  0.1099  0.0227
  655MOL0     C86367   1.024   9.138  -0.101 -0.2836 -0.2927  0.5056
  655MOL0     C86368   0.967   9.027  -0.187  1.3210 -0.0377  0.5620
  655MOL0     C86369   0.878   8.936  -0.101  0.2878  0.0647  0.0759
  655MOL0     C86370   0.801   8.830  -0.177 -0.1043  0.1167  0.3035
  655MOL0     C86371   0.703   8.765  -0.081  0.2948 -0.5081  0.7322
  655MOL0    Cl86372   0.613   8.643  -0.168 -0.0432 -0.6116 -0.2293
  655MOL0     C86373   1.404   9.639   0.139  0.4337  0.0102  0.1271
  655MOL0     C86374   1.535   9.663   0.180  0.4893 -0.8125 -0.0094
  655MOL0     O86375   1.743   9.928   0.099  0.8541  0.0911  0.2002
  655MOL0     C86376   1.987  10.008   0.190  0.5095 -0.7654  0.3128
  655MOL0     C86377   2.127  10.031   0.218  1.0739 -0.3347 -1.0511
  655MOL0     N86378   2.691  10.240   0.448  0.1167 -0.7239 -0.2471
  655MOL0     N86379   2.769  10.252   0.552  0.1205  0.2320 -0.5629
  655MOL0     C86380   3.699  10.368   0.032 -0.0237  0.3552 -0.6516
  655MOL0     C86381   3.824  10.309  -0.005  0.7160  0.0067 -0.6246
  655MOL0     C86382   4.236  10.134   0.056 -0.6164  0.1707 -0.0704
  655MOL0     C86383   4.286  10.016   0.111 -0.6849 -0.2292  0.6811
  655MOL0     C86384   4.417   9.975   0.094  0.1563  0.9480 -0.4701
  655MOL0     C86385   4.508  10.051   0.024  0.1726  0.0425 -1.3142
  655MOL0     O86386   4.642  10.013   0.024  0.5848 -0.2776 -1.0814
  655MOL0     C86387   4.678   9.949  -0.093  0.5466  1.0270 -0.8967
  655MOL0     C86388   4.805   9.881  -0.050 -0.4010  0.1712  0.7794
  655MOL0     C86389   4.853   9.764  -0.141  0.5221 -1.0275 -0.7577
  655MOL0     C86390   4.998   9.745  -0.106 -0.3233 -0.4109 -1.1868
  655MOL0     C86391   5.049   9.613  -0.142  0.1983  0.5615 -0.0083
  655MOL0     C86392   5.074   9.497  -0.169  0.8888 -0.8981  0.6706
  655MOL0     C86393   4.464  10.166  -0.039 -0.2160 -0.1337  0.2231
  655MOL0     C86394   4.329  10.209  -0.021  0.0699  0.1424  0.3517
  655MOL0     H86395   3.993  10.410   0.271  0.8284 -0.4143 -2.1387
  655MOL0     H86396   3.769  10.504   0.331 -0.7716  3.6304 -2.4617
  655MOL0     H86397   3.539  10.520   0.388  3.2406 -1.5983 -0.2976
  655MOL0     H86398   3.529  10.344   0.351 -2.2420 -0.7038  1.6875
  655MOL0     H86399   3.304  10.371   0.284  0.2525 -0.0380  1.4137
  655MOL0     H86400   3.301  10.541   0.295 -2.4792 -1.5079 -0.5635
  655MOL0     H86401   3.356  10.497   0.548  0.1949 -0.7331 -0.3738
  655MOL0     H86402   3.297  10.334   0.522  2.1046 -0.2047  0.7742
  655MOL0     H86403   3.137  10.580   0.454 -0.9042  0.5820 -0.8674
  655MOL0     H86404   3.074  10.415   0.438  0.0563 -1.0271  2.3208
  655MOL0     H86405   3.146  10.552   0.690  0.4312 -1.6606  1.3903
  655MOL0     H86406   3.078  10.386   0.675  1.4380  0.8551  1.9766
  655MOL0     H86407   2.901  10.519   0.517  3.7305 -3.9946 -1.4458
  655MOL0     H86408   2.948  10.662   0.579 -0.1382  0.1906 -0.8988
  655MOL0     H86409   2.900  10.557   0.832  0.1318  0.5201 -0.3414
  655MOL0     H86410   2.766  10.600   0.708  0.3183 -0.3336 -2.8788
  655MOL0     H86411   2.723  10.410   0.830 -0.1628  0.4797 -0.0290
  655MOL0     H86412   2.863  10.333   0.785  0.2436  0.5265  2.3086
  655MOL0     H86413   2.563  10.496   0.596 -0.6590 -1.3242  1.8880
  655MOL0     H86414   2.510  10.323   0.263 -1.3122 -1.5087  0.3725
  655MOL0     H86415   2.480  10.478   0.344  0.6076  0.0649 -4.0357
  655MOL0     H86416   2.283  10.321   0.324  2.3940  1.5967 -2.5577
  655MOL0     H86417   2.338  10.376   0.494 -1.2251  1.0878 -0.1504
  655MOL0     H86418   2.440  10.137   0.503  0.1341 -2.7376 -0.8031
  655MOL0     H86419   2.269  10.119   0.466 -0.4334  1.2810 -2.8543
  655MOL0     H86420   2.507  10.084   0.296  0.4106 -3.6377 -2.2510
  655MOL0     H86421   2.361  10.136   0.210  0.0216  0.5049 -0.0114
  655MOL0     H86422   2.236   9.730   0.292 -1.1548  0.4493  4.4642
  655MOL0     H86423   2.005   9.669   0.193  1.7141 -1.8110  0.2910
  655MOL0     H86424   1.700   9.674  -0.116  0.3124  0.9497  0.3062
  655MOL0     H86425   1.479   9.592  -0.195  2.5124 -1.8010 -0.5999
  655MOL0     H86426   1.349   9.396  -0.146  0.8969  1.3536  2.3863
  655MOL0     H86427   1.221   9.493  -0.221 -1.8595  3.6612  2.0978
  655MOL0     H86428   1.071   9.399  -0.042  0.9469  1.8410 -1.3047
  655MOL0     H86429   1.205   9.301   0.021 -0.2610  0.2250  0.2800
  655MOL0     H86430   1.205   9.181  -0.203 -0.5021  0.1916 -0.0702
  655MOL0     H86431   1.080   9.284  -0.261  1.2015  0.9837 -0.2937
  655MOL0     H86432   1.091   9.098  -0.025  0.9416  2.1622  0.8316
  655MOL0     H86433   0.948   9.197  -0.048  1.7317  1.0555  2.0403
  655MOL0     H86434   1.057   8.973  -0.217  0.5908 -1.2008  0.4128
  655MOL0     H86435   0.925   9.065  -0.280  2.0520 -1.0234 -0.1873
  655MOL0     H86436   0.805   9.006  -0.059 -0.3364 -0.6706  0.2250
  655MOL0     H86437   0.931   8.892  -0.016 -1.3436 -1.5893  0.2994
  655MOL0     H86438   0.743   8.878  -0.256  0.7660 -1.5305 -1.4306
  655MOL0     H86439   0.870   8.759  -0.224  2.8800  2.0352  1.5229
  655MOL0     H86440   0.626   8.837  -0.053 -0.5842 -1.8750  1.9154
  655MOL0     H86441   0.753   8.717   0.003 -1.7262 -3.7353  0.2559
  655MOL0     H86442   1.318   9.628   0.204  0.1927 -1.4808 -0.3969
  655MOL0     H86443   1.561   9.683   0.283 -1.1400 -1.0302  0.4635
  655MOL0     H86444   1.909  10.082   0.178  0.5111 -1.0303 -1.8413
  655MOL0     H86445   2.149  10.138   0.218  0.7786 -0.2259  1.1893
  655MOL0     H86446   3.615  10.357  -0.036 -1.0895  2.6875  0.1896
  655MOL0     H86447   3.842  10.248  -0.093  0.5993 -0.4723 -0.3137
  655MOL0     H86448   4.221   9.958   0.176 -0.9963  3.6033  4.2081
  655MOL0     H86449   4.457   9.889   0.148 -0.0713 -0.4677 -2.4692
  655MOL0     H86450   4.695  10.017  -0.177 -0.5140  2.0769 -0.2948
  655MOL0     H86451   4.592   9.885  -0.111 -0.0841  0.4815  3.1281
  655MOL0     H86452   4.882   9.957  -0.042  0.3203 -0.4278 -0.1944
  655MOL0     H86453   4.789   9.834   0.047  0.2655 -0.9190  0.3812
  655MOL0     H86454   4.838   9.786  -0.247  4.5755 -0.8741 -1.4373
  655MOL0     H86455   4.808   9.672  -0.102  5.3956 -3.1402  0.5613
  655MOL0     H86456   5.050   9.825  -0.159 -0.0522 -0.2521 -0.6855
  655MOL0     H86457   5.013   9.759   0.001  0.0104 -1.3033 -1.1103
  655MOL0     H86458   5.090   9.405  -0.222  3.9582  0.0240 -0.2051
  655MOL0     H86459   4.536  10.218  -0.101  0.9249 -2.8996 -0.9691
  655MOL0     H86460   4.286  10.302  -0.059 -2.0311  0.1131  2.4479
  656MOL0     O86461   5.261   9.511   8.173 -0.4090 -0.3070  0.2391
  656MOL0     C86462   5.251   9.631   8.175  0.4286 -0.5774 -0.3970
  656MOL0     O86463   5.331   9.720   8.118  0.5373  0.4826 -0.0649
  656MOL0     C86464   5.440   9.690   8.040  1.0671 -0.5864  0.8970
  656MOL0     C86465   5.514   9.574   8.036 -0.8973 -0.8415  0.3665
  656MOL0     C86466   5.625   9.553   7.941 -0.2796  0.3438 -0.1699
  656MOL0     C86467   5.655   9.657   7.853  0.3204 -0.4184  0.6380
  656MOL0     O86468   5.752   9.628   7.760 -0.1767 -0.9581 -0.0595
  656MOL0     C86469   5.788   9.737   7.670  0.4984  0.0924  0.1460
  656MOL0     C86470   5.867   9.680   7.558 -0.6268  0.0628 -0.0880
  656MOL0     C86471   5.914   9.785   7.456  0.0367 -0.2664 -0.8460
  656MOL0     C86472   5.956   9.720   7.323 -0.3650  0.3702  0.4085
  656MOL0     C86473   6.004   9.830   7.225  0.3392  0.5864 -0.3733
  656MOL0     C86474   6.009   9.782   7.087 -0.2048 -0.4147  0.2857
  656MOL0     C86475   6.085   9.885   7.001  0.0954 -0.2597  0.0338
  656MOL0     C86476   6.088   9.850   6.850  1.1277 -0.1804 -0.7841
  656MOL0     N86477   6.183   9.912   6.765 -0.0659  0.6684 -0.3117
  656MOL0     C86478   6.261  10.027   6.793 -0.5561  0.7947  0.0018
  656MOL0     C86479   6.354  10.029   6.694 -0.2063 -1.0999  0.5136
  656MOL0     C86480   6.460  10.136   6.683 -0.4461 -0.5886 -0.2747
  656MOL0     C86481   6.467  10.189   6.543 -0.5373 -0.5396 -0.0683
  656MOL0     C86482   6.549  10.114   6.442  0.5718  0.3697 -0.2683
  656MOL0     C86483   6.701  10.124   6.449  0.3724  0.2982 -0.2243
  656MOL0     O86484   6.737  10.232   6.359  0.0565 -0.9483 -0.0886
  656MOL0     C86485   6.872  10.230   6.312  0.1086 -0.6203  0.2704
  656MOL0     C86486   6.899  10.268   6.175  0.2879 -0.2266  0.4141
  656MOL0     C86487   7.027  10.288   6.128  0.0098 -0.2807  1.1168
  656MOL0     C86488   7.134  10.287   6.212 -1.2494  0.6594  0.1046
  656MOL0     C86489   7.275  10.314   6.168  0.0833 -0.2903  0.0340
  656MOL0     O86490   7.286  10.341   6.029  0.4060 -1.0332 -0.1915
  656MOL0     C86491   7.406  10.391   6.003 -0.4298 -0.6694  0.8735
  656MOL0     C86492   7.413  10.529   5.978 -0.5325 -0.8922 -0.0226
  656MOL0     C86493   7.531  10.586   5.912  0.7049  0.2882  0.1236
  656MOL0     C86494   7.636  10.496   5.878  0.6107 -0.0762 -0.2145
  656MOL0     O86495   7.750  10.537   5.821 -0.0193  0.6661 -0.5782
  656MOL0     C86496   7.747  10.644   5.725  0.1442 -0.1392  0.1017
  656MOL0     C86497   7.885  10.658   5.661 -0.6081 -0.4404  0.8297
  656MOL0     C86498   7.902  10.544   5.560  0.2324 -0.7572 -1.0509
  656MOL0     C86499   8.048  10.510   5.547 -0.3176 -0.1795 -0.5862
  656MOL0     C86500   8.153  10.620   5.529  0.4437  0.1112  0.0113
  656MOL0     C86501   8.296  10.568   5.498 -0.2372 -0.7238  0.9047
  656MOL0     C86502   8.296  10.454   5.399 -0.7664 -0.0309 -0.3095
  656MOL0     C86503   8.446  10.419   5.351 -0.1372  0.2020  0.8751
  656MOL0    Cl86504   8.563  10.441   5.475 -0.5928  0.1068 -0.0845
  656MOL0     C86505   7.625  10.361   5.907 -0.5266 -0.2339  0.9869
  656MOL0     C86506   7.512  10.309   5.966 -0.2240 -0.3401 -0.4653
  656MOL0     O86507   7.365  10.325   6.247  0.4829  0.0534  0.3914
  656MOL0     C86508   7.107  10.251   6.343  0.6343 -0.5436  0.3599
  656MOL0     C86509   6.985  10.222   6.393 -0.4129 -0.0627 -0.2201
  656MOL0     N86510   6.344   9.919   6.610 -0.0023  0.5335  0.8116
  656MOL0     N86511   6.238   9.853   6.649 -0.4113  0.0484 -1.3830
  656MOL0     C86512   5.578   9.775   7.868 -0.8120 -0.7075  1.1052
  656MOL0     C86513   5.474   9.794   7.959 -1.0265 -1.4716 -0.1724
  656MOL0     C86514   5.126   9.665   8.245  0.6381 -0.8627 -0.3329
  656MOL0     C86515   5.091   9.798   8.265  0.1763  0.7455  0.0476
  656MOL0     C86516   4.975   9.832   8.334  0.6178  0.6341 -0.0135
  656MOL0     C86517   4.886   9.736   8.382  0.4447  0.5236  0.5861
  656MOL0     O86518   4.771   9.777   8.442  0.3164 -0.9620  0.5570
  656MOL0     C86519   4.696   9.694   8.530  0.0949  0.5392  0.5206
  656MOL0     C86520   4.576   9.621   8.457  0.0931 -0.6128 -0.0423
  656MOL0     C86521   4.460   9.710   8.433  0.1280  0.3038 -0.1854
  656MOL0     C86522   4.325   9.635   8.441 -1.0204 -1.3181 -0.2022
  656MOL0     C86523   4.306   9.560   8.318  0.3484  0.1815  0.2069
  656MOL0     C86524   4.281   9.498   8.222  0.1284  0.3182 -1.0988
  656MOL0     C86525   4.915   9.604   8.346 -0.2279  0.3714  0.2091
  656MOL0     C86526   5.034   9.563   8.281  0.9651 -0.2423  0.5586
  656MOL0     H86527   5.484   9.480   8.082  0.2977 -0.2698  2.4391
  656MOL0     H86528   5.692   9.469   7.928 -0.6499  0.0905 -0.4870
  656MOL0     H86529   5.854   9.802   7.728  1.4693  0.0730 -0.9123
  656MOL0     H86530   5.704   9.795   7.632 -1.2296 -0.7314  2.4734
  656MOL0     H86531   5.811   9.602   7.506  0.2624  0.6090 -1.9432
  656MOL0     H86532   5.964   9.639   7.587  0.7718  4.0019  1.5502
  656MOL0     H86533   6.001   9.843   7.486 -0.4379  2.3204 -3.8688
  656MOL0     H86534   5.825   9.848   7.442  0.0783 -0.0461 -0.1441
  656MOL0     H86535   6.032   9.642   7.332 -3.5833 -3.2116 -0.8317
  656MOL0     H86536   5.875   9.659   7.282  0.3001 -1.2812  1.4748
  656MOL0     H86537   6.111   9.849   7.237  0.3361  3.3329 -3.2628
  656MOL0     H86538   5.950   9.924   7.243 -1.6076 -0.5096 -0.3092
  656MOL0     H86539   5.910   9.766   7.046  0.3432  0.2312 -1.3774
  656MOL0     H86540   6.064   9.688   7.100  0.0169 -0.3218  0.0257
  656MOL0     H86541   6.050   9.988   6.999  5.0423  1.6886 -1.6295
  656MOL0     H86542   6.190   9.889   7.031 -0.0295  0.6586  0.3579
  656MOL0     H86543   5.989   9.870   6.810  0.1448  2.1014  2.3813
  656MOL0     H86544   6.108   9.743   6.841 -0.4050 -0.3340 -3.3616
  656MOL0     H86545   6.265  10.092   6.880  4.4650 -0.2555  0.8536
  656MOL0     H86546   6.557  10.096   6.715 -1.5819 -1.5140  2.3200
  656MOL0     H86547   6.449  10.227   6.743  1.2275  0.9740 -2.1601
  656MOL0     H86548   6.515  10.286   6.560 -0.3308 -0.8923  1.5476
  656MOL0     H86549   6.370  10.229   6.512  0.1427  2.5059  1.3410
  656MOL0     H86550   6.519  10.010   6.457  1.0974  0.5227  2.4288
  656MOL0     H86551   6.500  10.136   6.347 -1.2269 -2.7418 -0.1908
  656MOL0     H86552   6.745  10.029   6.416  1.9093  0.6765  0.6069
  656MOL0     H86553   6.735  10.144   6.551  2.8367 -2.9467 -0.2515
  656MOL0     H86554   6.812  10.287   6.114  0.2705 -0.2401  0.4341
  656MOL0     H86555   7.038  10.304   6.021 -2.1601 -3.9839  0.1611
  656MOL0     H86556   7.323  10.588   5.995  0.6619  0.6949  1.1198
  656MOL0     H86557   7.530  10.689   5.878  0.7306  0.0463 -0.6127
  656MOL0     H86558   7.719  10.729   5.788 -1.0388  2.4354 -3.5585
  656MOL0     H86559   7.676  10.625   5.644  1.8038  2.6183 -2.1653
  656MOL0     H86560   7.965  10.663   5.735  0.7863  2.7797 -0.7018
  656MOL0     H86561   7.883  10.753   5.608 -0.7349 -1.4171 -1.0086
  656MOL0     H86562   7.868  10.569   5.459  1.0980 -0.9073 -1.3876
  656MOL0     H86563   7.850  10.459   5.604  1.3008 -1.1176 -0.4666
  656MOL0     H86564   8.085  10.455   5.634  0.9154  2.0250  0.3372
  656MOL0     H86565   8.041  10.436   5.467  0.2732  1.1439 -1.9005
  656MOL0     H86566   8.156  10.693   5.611 -0.6801 -0.7146  0.8306
  656MOL0     H86567   8.127  10.658   5.431 -1.9955 -0.7224  0.2557
  656MOL0     H86568   8.349  10.540   5.589 -1.8288 -0.0256  2.1076
  656MOL0     H86569   8.349  10.654   5.458  2.8676 -1.0480  3.8576
  656MOL0     H86570   8.251  10.364   5.442 -2.5245  0.0058 -1.9009
  656MOL0     H86571   8.234  10.485   5.313 -0.7236  0.4150 -0.1813
  656MOL0     H86572   8.480  10.482   5.269 -2.2934  1.4346  0.8567
  656MOL0     H86573   8.455  10.320   5.306 -1.4965 -1.1503  3.3435
  656MOL0     H86574   7.705  10.291   5.883  0.0283 -0.1981  2.6391
  656MOL0     H86575   7.516  10.204   5.994  1.1252 -0.5671 -1.4031
  656MOL0     H86576   7.194  10.239   6.407  0.6370 -3.3310 -0.0566
  656MOL0     H86577   6.974  10.215   6.501 -1.7274 -0.4153 -0.3579
  656MOL0     H86578   5.590   9.862   7.805  1.2203 -1.1471  0.7886
  656MOL0     H86579   5.418   9.887   7.956  2.1413  0.5385 -1.0683
  656MOL0     H86580   5.169   9.863   8.227 -0.0006  2.1598  1.9245
  656MOL0     H86581   4.954   9.936   8.357 -2.4542 -0.1552  1.2211
  656MOL0     H86582   4.656   9.760   8.608  1.4623  1.6684  0.3147
  656MOL0     H86583   4.760   9.622   8.582 -1.4034 -1.0557  0.2314
  656MOL0     H86584   4.612   9.567   8.369 -1.8136 -1.5973 -0.2752
  656MOL0     H86585   4.541   9.533   8.513  3.0458 -1.5329  0.5248
  656MOL0     H86586   4.464   9.753   8.332 -0.9254  0.6289 -0.1005
  656MOL0     H86587   4.455   9.803   8.491 -1.8356  1.3308 -1.8508
  656MOL0     H86588   4.303   9.564   8.522  1.5775  1.2661  3.0294
  656MOL0     H86589   4.243   9.706   8.454 -1.0146 -1.4463  0.5824
  656MOL0     H86590   4.263   9.457   8.125 -1.9297 -0.2736 -0.5210
  656MOL0     H86591   4.847   9.528   8.382  0.7326  0.9017  3.4229
  656MOL0     H86592   5.039   9.456   8.264  0.6650 -0.5360  2.1807
  657MOL0     O86593   9.504  10.723   1.827  0.3701 -0.0539 -0.6430
  657MOL0     C86594   9.611  10.703   1.887 -0.2524 -0.2331 -0.6561
  657MOL0     O86595   9.616  10.651   2.012  0.0699 -0.2967  0.0756
  657MOL0     C86596   9.507  10.651   2.087  0.0067  1.0351 -0.5632
  657MOL0     C86597   9.445  10.530   2.114  0.1845  0.1266 -0.8699
  657MOL0     C86598   9.317  10.522   2.194 -1.2682  0.0871 -0.6146
  657MOL0     C86599   9.257  10.643   2.229 -0.1999  0.0570 -0.6450
  657MOL0     O86600   9.141  10.637   2.301 -0.5135  0.2372 -0.3529
  657MOL0     C86601   9.031  10.716   2.245  1.2974  0.6215  0.5464
  657MOL0     C86602   8.895  10.628   2.246  0.0482 -0.6822 -0.4297
  657MOL0     C86603   8.892  10.553   2.381  1.1646 -0.4076  0.0003
  657MOL0     C86604   8.752  10.496   2.392  0.4052  0.4980 -0.2149
  657MOL0     C86605   8.739  10.435   2.530  0.6891  1.4620 -0.4460
  657MOL0     C86606   8.587  10.384   2.542 -0.2369 -0.3464 -0.1736
  657MOL0     C86607   8.572  10.304   2.671  0.0226  0.3891  0.4710
  657MOL0     C86608   8.457  10.209   2.677  0.1039  1.0253  0.3600
  657MOL0     N86609   8.319  10.264   2.689 -0.1974  0.3549 -0.6213
  657MOL0     C86610   8.226  10.252   2.792 -0.3324  0.1029 -0.2498
  657MOL0     C86611   8.126  10.334   2.760  0.9765 -0.0557 -0.4406
  657MOL0     C86612   7.997  10.333   2.831 -0.0153 -0.2090  0.8330
  657MOL0     C86613   7.876  10.379   2.739 -1.2139  0.5168 -0.3421
  657MOL0     C86614   7.735  10.403   2.814 -0.1678  0.6457 -0.2713
  657MOL0     C86615   7.713  10.347   2.955  0.3217 -0.3545  0.0579
  657MOL0     O86616   7.571  10.350   2.998 -0.5948  0.2120  0.6818
  657MOL0     C86617   7.489  10.240   2.969  0.3191  0.5072  0.4672
  657MOL0     C86618   7.529  10.113   2.915 -0.8598 -0.7773 -0.5986
  657MOL0     C86619   7.436  10.002   2.918  0.6264 -0.7172 -0.1743
  657MOL0     C86620   7.296  10.011   2.963  0.2855 -0.1511 -0.0639
  657MOL0     C86621   7.200   9.897   2.944  0.3893  0.4067 -0.3681
  657MOL0     O86622   7.064   9.916   2.914 -0.1356 -0.1366  0.2905
  657MOL0     C86623   7.027  10.011   2.819 -0.3540 -1.3609  0.0994
  657MOL0     C86624   7.098  10.027   2.700 -0.1307  0.1071  0.7677
  657MOL0     C86625   7.044  10.125   2.606  0.1541 -0.0709 -0.8958
  657MOL0     C86626   6.948  10.218   2.648  0.0112  0.6260 -0.1595
  657MOL0     O86627   6.884  10.303   2.578 -0.2940  0.0847  0.9029
  657MOL0     C86628   6.964  10.411   2.529  0.4559  0.0911 -0.1484
  657MOL0     C86629   6.876  10.534   2.504  0.1251 -0.2232  0.2992
  657MOL0     C86630   6.958  10.657   2.490 -0.7159 -1.0764  0.4260
  657MOL0     C86631   6.877  10.789   2.472 -0.0911 -0.0001 -0.1258
  657MOL0     C86632   6.974  10.908   2.436 -0.4466  0.0420 -0.8280
  657MOL0     C86633   7.067  10.946   2.541 -0.7641 -0.7432 -0.2876
  657MOL0     C86634   7.148  11.077   2.496 -0.6629 -0.6406  1.3127
  657MOL0     C86635   7.283  11.048   2.427 -0.0751  0.1797 -0.7943
  657MOL0    Cl86636   7.381  10.942   2.543  0.0091 -0.2656 -0.1618
  657MOL0     C86637   6.893  10.205   2.768  0.0888  0.0368  0.0284
  657MOL0     C86638   6.926  10.097   2.854 -0.3285  0.2778 -0.5024
  657MOL0     O86639   7.255   9.788   2.957  0.2809  0.0301  0.0132
  657MOL0     C86640   7.262  10.139   3.019 -0.6121  0.4435 -0.6144
  657MOL0     C86641   7.362  10.242   3.018 -0.0142  0.7675 -0.5667
  657MOL0     N86642   8.153  10.384   2.636  0.3000  0.4339  0.2880
  657MOL0     N86643   8.269  10.342   2.593 -0.4369  0.4501 -0.0123
  657MOL0     C86644   9.321  10.766   2.207  0.2672  0.5414  0.8233
  657MOL0     C86645   9.451  10.774   2.136 -0.2727  0.5474  0.4119
  657MOL0     C86646   9.737  10.750   1.831 -0.5976  0.2351 -0.7658
  657MOL0     C86647   9.742  10.812   1.708 -0.0015 -0.2364  0.3465
  657MOL0     C86648   9.860  10.856   1.654  0.3620  0.0638  0.4141
  657MOL0     C86649   9.981  10.845   1.719  0.0918  0.1328 -0.1277
  657MOL0     O86650  10.100  10.887   1.672  0.1973  0.0613  0.4378
  657MOL0     C86651  10.119  10.925   1.536 -0.4434 -0.4056  0.1282
  657MOL0     C86652  10.264  10.947   1.492  0.3711  0.1785 -0.7821
  657MOL0     C86653  10.290  11.065   1.403 -1.2473  0.3092 -0.2193
  657MOL0     C86654  10.411  11.033   1.305 -0.4779 -0.7845 -0.0614
  657MOL0     C86655  10.437  11.141   1.211 -0.1216 -0.3173  0.3263
  657MOL0     C86656  10.466  11.220   1.126 -0.5853 -1.2296 -0.5875
  657MOL0     C86657   9.983  10.775   1.843  0.1789  0.5066 -0.3835
  657MOL0     C86658   9.860  10.729   1.897 -0.2832  0.1146 -0.6574
  657MOL0     H86659   9.485  10.434   2.084 -1.2307  0.1200 -2.9878
  657MOL0     H86660   9.262  10.430   2.213  0.9855 -0.9472  1.5179
  657MOL0     H86661   9.056  10.738   2.140 -1.6420 -2.3025 -0.9568
  657MOL0     H86662   9.004  10.808   2.298 -0.7588  0.8445 -0.7743
  657MOL0     H86663   8.897  10.552   2.168 -0.5598  0.9412 -2.0883
  657MOL0     H86664   8.811  10.695   2.225  1.1485  0.7552 -0.3650
  657MOL0     H86665   8.900  10.623   2.465 -0.0779 -1.3903  0.9800
  657MOL0     H86666   8.974  10.481   2.371  0.8735 -0.3839 -3.7997
  657MOL0     H86667   8.688  10.584   2.382 -1.3810 -0.3818  2.4447
  657MOL0     H86668   8.735  10.429   2.307  1.5425  0.4472 -0.4166
  657MOL0     H86669   8.776  10.493   2.615  0.6216  0.1678  0.4931
  657MOL0     H86670   8.794  10.341   2.534  1.3297  1.6360 -3.1795
  657MOL0     H86671   8.567  10.317   2.457 -2.4704 -1.2600  0.9894
  657MOL0     H86672   8.509  10.461   2.539  0.3470  0.2372 -0.5859
  657MOL0     H86673   8.665  10.255   2.698  0.1928 -0.0555 -0.8641
  657MOL0     H86674   8.554  10.379   2.749  3.8993  2.0033  0.0136
  657MOL0     H86675   8.471  10.143   2.764  0.9771 -1.4595 -1.5499
  657MOL0     H86676   8.469  10.137   2.596 -1.4754  0.7128  0.3721
  657MOL0     H86677   8.225  10.174   2.868 -0.4417 -0.9969 -1.3525
  657MOL0     H86678   8.012  10.399   2.916  1.8626  0.5559 -0.0330
  657MOL0     H86679   7.985  10.232   2.871  0.2283 -0.5457  0.0896
  657MOL0     H86680   7.855  10.306   2.661  2.0727 -1.0775  0.0749
  657MOL0     H86681   7.904  10.467   2.681 -0.6452 -0.7631 -2.0837
  657MOL0     H86682   7.710  10.510   2.810  0.0292  0.7835  1.3219
  657MOL0     H86683   7.663  10.359   2.746 -1.2463  0.6801  0.8186
  657MOL0     H86684   7.770  10.408   3.025 -0.9623 -1.6783  2.3839
  657MOL0     H86685   7.746  10.242   2.953 -1.3200 -0.9057  0.5004
  657MOL0     H86686   7.630  10.098   2.878  0.3063  1.6584  1.3305
  657MOL0     H86687   7.456   9.903   2.879 -1.1438 -1.3287  0.3530
  657MOL0     H86688   7.171   9.948   2.688 -1.3329 -1.0378  0.7905
  657MOL0     H86689   7.098  10.139   2.513 -0.0908  4.1911 -0.5983
  657MOL0     H86690   7.005  10.383   2.431 -0.7810  2.6715 -1.4879
  657MOL0     H86691   7.041  10.439   2.602 -0.4539  3.4402 -0.3280
  657MOL0     H86692   6.818  10.537   2.597  0.1656  0.9332  0.3053
  657MOL0     H86693   6.806  10.520   2.422  0.3981 -1.3860  0.2480
  657MOL0     H86694   7.027  10.645   2.406  0.4781  1.7561  0.8793
  657MOL0     H86695   7.011  10.673   2.584 -0.4645 -2.7847  0.6027
  657MOL0     H86696   6.813  10.798   2.383 -1.5406 -1.4107  0.7313
  657MOL0     H86697   6.812  10.811   2.558 -1.1729  1.9489 -1.3500
  657MOL0     H86698   6.906  10.992   2.418  0.8958  2.1901  2.9905
  657MOL0     H86699   7.032  10.879   2.348  0.1461 -0.5636 -0.2485
  657MOL0     H86700   7.128  10.861   2.574  1.2481  0.3236 -1.0860
  657MOL0     H86701   7.009  10.971   2.630 -0.1216 -0.2798  0.0060
  657MOL0     H86702   7.088  11.129   2.421  3.3820 -0.1295 -1.9380
  657MOL0     H86703   7.167  11.137   2.585  1.1275  1.0110 -0.0815
  657MOL0     H86704   7.332  11.144   2.407  0.6921 -0.6238 -2.9848
  657MOL0     H86705   7.265  10.992   2.335  0.1324  1.7131 -1.8027
  657MOL0     H86706   6.811  10.272   2.792  1.8150  2.2073  0.1920
  657MOL0     H86707   6.872  10.063   2.941  2.8946  2.5031  2.6451
  657MOL0     H86708   7.161  10.164   3.050 -0.4470 -0.1421  0.4270
  657MOL0     H86709   7.314  10.334   3.047  1.7841  1.9448 -1.1638
  657MOL0     H86710   9.276  10.862   2.229  1.2079  0.8456  1.4929
  657MOL0     H86711   9.502  10.870   2.126  4.7770 -1.8666 -0.2483
  657MOL0     H86712   9.647  10.821   1.655 -0.5816  1.5744  1.5991
  657MOL0     H86713   9.840  10.907   1.561 -0.1144  1.6632  1.3513
  657MOL0     H86714  10.067  11.021   1.522  0.0026 -0.5967 -4.2124
  657MOL0     H86715  10.074  10.851   1.470  0.3787 -0.1145 -0.7819
  657MOL0     H86716  10.318  10.941   1.587 -0.1269 -1.4026 -0.5577
  657MOL0     H86717  10.288  10.859   1.431 -1.2197  0.0726 -1.3055
  657MOL0     H86718  10.308  11.161   1.453 -0.5640 -0.0089  0.1622
  657MOL0     H86719  10.197  11.076   1.347 -1.1742 -3.2731 -1.2460
  657MOL0     H86720  10.503  11.009   1.358 -0.8555 -1.0123  0.4885
  657MOL0     H86721  10.386  10.939   1.254  1.2465 -1.7111  0.7314
  657MOL0     H86722  10.485  11.290   1.048  2.6011 -0.1880  0.9570
  657MOL0     H86723  10.076  10.748   1.891 -2.0836 -4.7578  1.8334
  657MOL0     H86724   9.851  10.661   1.981 -2.9277  1.5112  0.2951
  658MOL0     O86725   8.694   6.761   7.576 -0.1920  0.0472 -0.6782
  658MOL0     C86726   8.687   6.882   7.588 -0.0038  0.3647 -0.7721
  658MOL0     O86727   8.755   6.971   7.519  0.2384 -0.2158 -0.2822
  658MOL0     C86728   8.829   6.934   7.414  0.5416  0.5281  0.9524
  658MOL0     C86729   8.961   6.980   7.390 -0.3223  0.9840  0.2501
  658MOL0     C86730   9.044   6.932   7.286  0.2798 -0.9216  0.4908
  658MOL0     C86731   8.978   6.845   7.190 -0.6070  0.1796 -0.2963
  658MOL0     O86732   9.067   6.801   7.095 -1.0086  0.7116 -0.2763
  658MOL0     C86733   9.010   6.756   6.976  0.7804 -0.4561 -0.7480
  658MOL0     C86734   9.123   6.741   6.876 -0.5661  0.4509  0.1496
  658MOL0     C86735   9.117   6.615   6.776  0.9722 -0.1503  0.4552
  658MOL0     C86736   9.098   6.477   6.849 -0.5045 -0.8890 -0.4381
  658MOL0     C86737   9.108   6.361   6.752  0.6487  0.1316 -0.1616
  658MOL0     C86738   9.088   6.225   6.823  0.3844 -0.4299  0.0925
  658MOL0     C86739   8.943   6.216   6.869  0.2341  0.1154  0.6271
  658MOL0     C86740   8.878   6.081   6.823 -0.0304 -0.0757  0.2833
  658MOL0     N86741   8.775   6.059   6.926  0.6983  0.6620 -0.0717
  658MOL0     C86742   8.765   5.937   7.004 -0.9761 -0.1211  0.7090
  658MOL0     C86743   8.660   5.960   7.086  0.3426 -0.8855  0.0524
  658MOL0     C86744   8.613   5.856   7.182 -0.0131 -0.3934 -0.3768
  658MOL0     C86745   8.574   5.914   7.319 -0.1128 -0.0307  0.5244
  658MOL0     C86746   8.558   5.783   7.401  0.0662  0.9937  0.5015
  658MOL0     C86747   8.550   5.821   7.550  0.3035  0.8186 -0.5725
  658MOL0     O86748   8.533   5.711   7.643  0.4705  0.0610 -0.8369
  658MOL0     C86749   8.625   5.668   7.736  0.6547 -0.0525 -0.4504
  658MOL0     C86750   8.614   5.542   7.799  0.5186  0.3230  0.0843
  658MOL0     C86751   8.711   5.487   7.883 -0.1123  0.9108 -0.2977
  658MOL0     C86752   8.830   5.556   7.902  0.6564  0.6480 -0.3133
  658MOL0     C86753   8.931   5.501   7.995  0.7363 -0.4682  1.1722
  658MOL0     O86754   9.003   5.595   8.051  0.3026 -0.5697 -0.0792
  658MOL0     C86755   9.135   5.571   8.093  0.7178  0.7149 -0.1562
  658MOL0     C86756   9.223   5.494   8.027  0.5471  0.2123 -0.2063
  658MOL0     C86757   9.357   5.486   8.063 -0.8287 -0.3037 -0.1366
  658MOL0     C86758   9.405   5.563   8.164  0.6226 -0.3176 -0.3947
  658MOL0     O86759   9.534   5.587   8.210 -0.1208  0.0530  0.4310
  658MOL0     C86760   9.631   5.568   8.104 -0.2029 -0.0529 -0.6101
  658MOL0     C86761   9.656   5.694   8.019  0.8650  1.2040 -0.5603
  658MOL0     C86762   9.800   5.696   7.963  0.1833  0.6511  1.2077
  658MOL0     C86763   9.825   5.577   7.874  0.1333  0.5353 -0.1529
  658MOL0     C86764   9.968   5.572   7.818 -0.3160  0.1087 -0.5856
  658MOL0     C86765   9.991   5.463   7.707 -0.2296  0.4037  0.5047
  658MOL0     C86766  10.142   5.471   7.667 -0.0530 -0.2955  0.1908
  658MOL0     C86767  10.184   5.380   7.545  0.3848 -0.2640  0.1696
  658MOL0    Cl86768  10.208   5.217   7.604 -0.2204  0.0535  0.1062
  658MOL0     C86769   9.318   5.654   8.230  0.2495 -0.2235 -0.0992
  658MOL0     C86770   9.175   5.649   8.199  0.1146 -0.3341 -0.5153
  658MOL0     O86771   8.918   5.390   8.036  0.1294 -0.2533  0.0925
  658MOL0     C86772   8.836   5.676   7.831 -0.5159 -0.5141 -0.2919
  658MOL0     C86773   8.741   5.735   7.758  0.3658 -0.0523 -1.1515
  658MOL0     N86774   8.611   6.086   7.065  0.1607 -0.0006 -0.0663
  658MOL0     N86775   8.679   6.147   6.976  0.0105  0.3558 -0.2795
  658MOL0     C86776   8.843   6.813   7.198  0.7866 -0.7420  0.9878
  658MOL0     C86777   8.771   6.855   7.305 -0.0793 -0.0814 -1.3261
  658MOL0     C86778   8.579   6.933   7.680 -0.3885 -0.6150  0.0699
  658MOL0     C86779   8.494   6.853   7.762  0.6689 -0.3104 -0.4144
  658MOL0     C86780   8.411   6.902   7.863 -0.2343 -0.7121 -0.4213
  658MOL0     C86781   8.414   7.041   7.903 -0.5062  0.1908  1.3836
  658MOL0     O86782   8.346   7.097   8.005  0.7335  0.0478 -0.4492
  658MOL0     C86783   8.281   7.015   8.096  0.9962 -0.3778 -0.8017
  658MOL0     C86784   8.220   7.106   8.208  0.4997 -0.9498  0.2993
  658MOL0     C86785   8.122   7.209   8.151 -0.4300 -0.2449 -1.7911
  658MOL0     C86786   8.061   7.304   8.253 -0.0644 -0.0631  0.8462
  658MOL0     C86787   7.981   7.226   8.348  0.2304 -0.3134 -0.0363
  658MOL0     C86788   7.928   7.154   8.436 -0.7486  0.9396 -0.4249
  658MOL0     C86789   8.491   7.126   7.817 -0.2417 -1.0242  0.2951
  658MOL0     C86790   8.565   7.075   7.709  0.6610  0.1510  0.1600
  658MOL0     H86791   9.003   7.045   7.467  1.4516  1.6938 -1.2486
  658MOL0     H86792   9.145   6.962   7.260 -0.8976  0.7488 -2.8002
  658MOL0     H86793   8.939   6.837   6.958 -2.5763 -2.3089  2.7781
  658MOL0     H86794   8.950   6.666   6.993  1.3447 -0.3587  2.3682
  658MOL0     H86795   9.224   6.733   6.917 -0.0605 -0.4099 -1.2014
  658MOL0     H86796   9.133   6.837   6.825  2.9581  0.8233  1.2415
  658MOL0     H86797   9.211   6.601   6.721  0.3345  0.9718 -0.9678
  658MOL0     H86798   9.037   6.630   6.704  0.1975 -2.7136  0.6735
  658MOL0     H86799   9.164   6.464   6.936 -0.9079 -1.8281 -0.2596
  658MOL0     H86800   8.997   6.476   6.891 -0.0044 -0.4620  0.8501
  658MOL0     H86801   9.206   6.349   6.706  0.4851 -1.3694 -0.1403
  658MOL0     H86802   9.039   6.383   6.670 -0.1938  0.8829  0.7266
  658MOL0     H86803   9.164   6.205   6.899  0.0179 -0.4712  0.4497
  658MOL0     H86804   9.110   6.151   6.746  3.1644  1.2917 -0.9030
  658MOL0     H86805   8.955   6.217   6.978  0.6935  2.3694  0.6093
  658MOL0     H86806   8.870   6.295   6.848 -0.9564 -0.9392  0.6622
  658MOL0     H86807   8.949   5.999   6.812  0.9558  0.5141  1.9729
  658MOL0     H86808   8.831   6.096   6.725  1.7323  1.6713 -0.3678
  658MOL0     H86809   8.833   5.852   6.996 -1.0615 -0.3984  2.5611
  658MOL0     H86810   8.697   5.788   7.200 -1.2734 -1.7729  0.5578
  658MOL0     H86811   8.527   5.799   7.146  0.4545 -2.9348  2.1086
  658MOL0     H86812   8.487   5.980   7.313  0.4966  0.7750  0.3871
  658MOL0     H86813   8.648   5.985   7.357  0.3587 -0.1099 -0.2175
  658MOL0     H86814   8.464   5.738   7.366 -0.8363  3.0069  0.1690
  658MOL0     H86815   8.636   5.709   7.382 -0.6994  0.6556 -1.6375
  658MOL0     H86816   8.465   5.888   7.567  0.6569  1.5732 -1.6972
  658MOL0     H86817   8.644   5.873   7.570  1.4816 -0.9044 -1.4079
  658MOL0     H86818   8.522   5.486   7.797  1.0079 -0.5474  1.1174
  658MOL0     H86819   8.693   5.388   7.922  1.8220  1.1518  1.4045
  658MOL0     H86820   9.185   5.435   7.945  1.2316  1.6301 -1.5861
  658MOL0     H86821   9.423   5.418   8.010  1.2618  1.5395 -0.0053
  658MOL0     H86822   9.598   5.487   8.038 -1.4720  1.8876 -2.4960
  658MOL0     H86823   9.721   5.524   8.148 -0.9775  0.1036  1.2201
  658MOL0     H86824   9.638   5.779   8.087  1.1230  0.0765  0.9714
  658MOL0     H86825   9.588   5.693   7.934 -0.5487 -4.5440  0.2531
  658MOL0     H86826   9.876   5.683   8.041  0.2121  0.5280  1.1587
  658MOL0     H86827   9.825   5.790   7.913 -1.9537  2.6836  3.6717
  658MOL0     H86828   9.821   5.482   7.928  1.9521 -3.2983 -5.8263
  658MOL0     H86829   9.746   5.562   7.800  1.1050  1.6914 -1.4904
  658MOL0     H86830  10.025   5.547   7.908 -2.0565  3.2250  1.5893
  658MOL0     H86831   9.994   5.670   7.777  2.7970  0.1479  1.1185
  658MOL0     H86832   9.927   5.493   7.623  1.9511  0.2971 -1.3108
  658MOL0     H86833   9.967   5.360   7.736 -0.0579  0.2575  0.1375
  658MOL0     H86834  10.161   5.575   7.639 -0.3469 -0.1574  0.4922
  658MOL0     H86835  10.207   5.451   7.752 -0.6192  2.4631  1.3962
  658MOL0     H86836  10.276   5.420   7.502  0.0129  0.8424  0.3585
  658MOL0     H86837  10.118   5.381   7.457  0.7846  0.6391 -0.1288
  658MOL0     H86838   9.348   5.717   8.314  0.6969  2.2787 -2.0211
  658MOL0     H86839   9.102   5.706   8.254 -1.5202 -0.6687 -2.2438
  658MOL0     H86840   8.931   5.727   7.847 -0.3028 -0.5491 -1.3741
  658MOL0     H86841   8.762   5.834   7.719 -0.3132  0.8512  0.6555
  658MOL0     H86842   8.788   6.755   7.125  3.7345  0.4436 -2.5301
  658MOL0     H86843   8.666   6.838   7.329  0.1369  0.2507 -0.0977
  658MOL0     H86844   8.507   6.747   7.745  0.3683 -0.2062 -1.3214
  658MOL0     H86845   8.343   6.842   7.922 -1.4773  2.6223  1.8530
  658MOL0     H86846   8.357   6.953   8.145  1.4711  0.3363 -0.6299
  658MOL0     H86847   8.197   6.956   8.057 -0.7226  1.5921 -0.2723
  658MOL0     H86848   8.164   7.043   8.277 -3.0280 -0.7133 -2.0825
  658MOL0     H86849   8.304   7.158   8.256  1.2115  0.3845 -2.2209
  658MOL0     H86850   8.044   7.157   8.095 -0.9116 -3.5351  1.5200
  658MOL0     H86851   8.183   7.265   8.079  1.9162 -1.3455 -0.8037
  658MOL0     H86852   8.126   7.362   8.319  1.6633 -1.7608  0.7134
  658MOL0     H86853   7.996   7.371   8.196 -0.7109 -0.3303  1.2556
  658MOL0     H86854   7.880   7.089   8.506  1.6874 -2.3522 -1.5506
  658MOL0     H86855   8.495   7.227   7.856 -3.3792 -0.2304 -1.0859
  658MOL0     H86856   8.608   7.148   7.641  0.7695  0.0213  0.0872
  659MOL0     O86857   1.050   9.913   6.371  0.5521 -0.2890  0.2014
  659MOL0     C86858   0.997   9.921   6.486 -1.1742 -0.5282  0.1797
  659MOL0     O86859   0.902  10.007   6.525 -0.3527  0.8031  0.1302
  659MOL0     C86860   0.819  10.054   6.442 -1.1158  0.1790  0.4577
  659MOL0     C86861   0.841  10.114   6.317  0.2252  0.4403 -0.5920
  659MOL0     C86862   0.737  10.179   6.249 -0.2702  0.4564 -0.1304
  659MOL0     C86863   0.603  10.171   6.284 -0.6213 -0.3378 -0.4566
  659MOL0     O86864   0.504  10.229   6.212  0.5219 -0.3245  0.1755
  659MOL0     C86865   0.383  10.150   6.195  0.1970  0.2315  0.0973
  659MOL0     C86866   0.402  10.004   6.148 -1.0172 -0.0745 -0.1258
  659MOL0     C86867   0.296   9.951   6.066 -0.5519 -0.7785  0.7592
  659MOL0     C86868   0.164   9.956   6.138 -0.9411  0.1337  0.0320
  659MOL0     C86869   0.066   9.851   6.080  0.0747  0.1986  0.6209
  659MOL0     C86870   0.104   9.704   6.115  0.2091  0.4390  0.1872
  659MOL0     C86871   0.010   9.596   6.059  0.0256  0.7271  0.1895
  659MOL0     C86872   0.076   9.518   5.942 -0.1406 -0.2433 -0.5555
  659MOL0     N86873   0.127   9.603   5.833  0.0972 -0.2139 -0.3492
  659MOL0     C86874   0.259   9.629   5.794  0.1018 -0.6538  0.4816
  659MOL0     C86875   0.260   9.728   5.699 -0.4643 -0.5735 -0.7625
  659MOL0     C86876   0.393   9.781   5.630  0.5476 -0.4511  0.1809
  659MOL0     C86877   0.470   9.870   5.722  0.7114  0.4861  0.5297
  659MOL0     C86878   0.603   9.923   5.662 -0.8798 -0.4355 -0.5989
  659MOL0     C86879   0.651  10.066   5.717  0.3110  1.4709 -0.0956
  659MOL0     O86880   0.783  10.087   5.663 -0.2175  0.1680 -0.1406
  659MOL0     C86881   0.815  10.219   5.665 -0.7762  0.0494 -0.2467
  659MOL0     C86882   0.843  10.287   5.784  0.1962  0.3039  0.2805
  659MOL0     C86883   0.883  10.417   5.787  0.9676  0.4021 -0.4336
  659MOL0     C86884   0.904  10.497   5.680  0.2076 -0.5727  1.5867
  659MOL0     C86885   0.961  10.635   5.690 -0.4370  0.2555 -0.1596
  659MOL0     O86886   0.929  10.715   5.583  0.0022 -0.5231  0.4578
  659MOL0     C86887   0.973  10.849   5.582 -0.4751  0.9109  0.3277
  659MOL0     C86888   0.977  10.935   5.693  0.0654 -0.0762  0.4978
  659MOL0     C86889   1.023  11.068   5.690  0.0169 -0.3735  0.2493
  659MOL0     C86890   1.068  11.118   5.569  0.2588 -0.3783  0.1682
  659MOL0     O86891   1.109  11.251   5.568 -0.0343  0.4768 -0.4237
  659MOL0     C86892   1.233  11.282   5.508  0.2990 -1.7617 -0.6300
  659MOL0     C86893   1.214  11.359   5.378  0.0200  0.6477  0.7618
  659MOL0     C86894   1.097  11.457   5.358 -0.3151 -0.2530 -0.0210
  659MOL0     C86895   1.111  11.543   5.226 -0.3321 -0.0448  0.3381
  659MOL0     C86896   1.009  11.661   5.207 -0.3916  0.3362 -0.4213
  659MOL0     C86897   0.866  11.630   5.244 -0.0969 -0.1666 -0.5279
  659MOL0     C86898   0.784  11.749   5.198 -0.0925  0.7441  0.5671
  659MOL0     C86899   0.794  11.878   5.262 -0.8416  0.1187 -0.3340
  659MOL0    Cl86900   0.663  11.981   5.186 -0.2377 -0.5049 -0.4923
  659MOL0     C86901   1.062  11.035   5.457  0.9574 -0.7147 -0.0802
  659MOL0     C86902   1.018  10.902   5.457 -0.5818 -0.5152 -0.1957
  659MOL0     O86903   1.016  10.670   5.797  0.9089 -0.4048 -0.4170
  659MOL0     C86904   0.882  10.436   5.553  0.0533  1.0417 -0.4247
  659MOL0     C86905   0.826  10.300   5.544 -0.2832 -0.2039  0.1254
  659MOL0     N86906   0.128   9.763   5.679 -0.8615  0.5034  0.7553
  659MOL0     N86907   0.053   9.687   5.745 -0.2957  0.5154 -0.1916
  659MOL0     C86908   0.577  10.105   6.404 -0.1181  0.6397 -1.0057
  659MOL0     C86909   0.684  10.051   6.488  0.0177 -0.6800 -0.0165
  659MOL0     C86910   1.048   9.835   6.581  0.2756  0.1522 -0.5859
  659MOL0     C86911   1.172   9.754   6.561  0.3349 -0.5214  0.5566
  659MOL0     C86912   1.211   9.677   6.667 -0.9632 -0.7902 -0.0016
  659MOL0     C86913   1.138   9.658   6.782  0.2978  0.8727 -0.0797
  659MOL0     O86914   1.175   9.580   6.895 -0.4067 -0.1461  0.5552
  659MOL0     C86915   1.268   9.474   6.881  1.2240 -0.2443 -0.8601
  659MOL0     C86916   1.285   9.382   6.993  0.7481  0.5693  0.7371
  659MOL0     C86917   1.301   9.457   7.125 -0.1932 -0.2291 -1.3570
  659MOL0     C86918   1.375   9.363   7.226  0.5890 -0.9058  0.0595
  659MOL0     C86919   1.518   9.357   7.192 -0.5699  0.8558 -1.0659
  659MOL0     C86920   1.636   9.338   7.183  0.9588 -0.0363  0.8575
  659MOL0     C86921   1.030   9.742   6.804 -0.3584  1.2487  0.3258
  659MOL0     C86922   0.989   9.828   6.707  0.2190  0.1161 -0.5503
  659MOL0     H86923   0.936  10.109   6.266  0.0361 -1.4071 -0.8393
  659MOL0     H86924   0.757  10.219   6.150 -4.4894 -1.3266 -1.9796
  659MOL0     H86925   0.327  10.206   6.120  1.4006  1.8107  0.3215
  659MOL0     H86926   0.310  10.158   6.276  1.5897 -0.0506  1.4417
  659MOL0     H86927   0.411   9.945   6.240 -2.5030  1.3201  0.9832
  659MOL0     H86928   0.502  10.002   6.102 -0.2239  1.5094  1.3861
  659MOL0     H86929   0.323   9.850   6.034  1.6059 -0.1591  0.4875
  659MOL0     H86930   0.293  10.001   5.969 -0.2853 -2.5492 -0.1974
  659MOL0     H86931   0.172   9.928   6.244  0.9888 -3.2608 -0.8540
  659MOL0     H86932   0.127  10.058   6.135 -0.7470  0.2292  0.7013
  659MOL0     H86933   0.062   9.852   5.970 -1.2703  0.5170  0.6500
  659MOL0     H86934  -0.036   9.883   6.105 -0.9597 -1.4078 -1.2620
  659MOL0     H86935   0.090   9.696   6.223 -2.6135 -0.0902 -0.1244
  659MOL0     H86936   0.209   9.678   6.097 -0.0020 -0.6754  0.5171
  659MOL0     H86937  -0.009   9.528   6.143 -0.1796  0.4843 -0.0525
  659MOL0     H86938  -0.087   9.639   6.034  0.0874  0.3189 -0.7986
  659MOL0     H86939   0.012   9.436   5.910 -0.6256 -0.5351  1.0911
  659MOL0     H86940   0.163   9.471   5.987 -0.3576 -0.8386 -0.7505
  659MOL0     H86941   0.347   9.585   5.839 -0.1464 -0.5554  1.0726
  659MOL0     H86942   0.358   9.846   5.550  0.8972 -0.3321  0.1243
  659MOL0     H86943   0.452   9.702   5.583  0.6595  0.6003 -1.5016
  659MOL0     H86944   0.490   9.827   5.821 -2.2850  3.3236  2.5648
  659MOL0     H86945   0.410   9.956   5.754 -0.7178 -0.4437  0.4178
  659MOL0     H86946   0.684   9.850   5.674  2.3122  2.9278  0.3789
  659MOL0     H86947   0.585   9.935   5.555  0.8264  0.8566 -0.7823
  659MOL0     H86948   0.656  10.063   5.826  0.7387 -2.0851 -0.0891
  659MOL0     H86949   0.573  10.139   5.693 -0.1004  0.7499 -1.0385
  659MOL0     H86950   0.849  10.226   5.874 -1.8354  0.1552  0.3663
  659MOL0     H86951   0.902  10.469   5.880 -0.7005  0.9964 -0.3849
  659MOL0     H86952   0.944  10.920   5.795 -1.2020  2.2381  0.5118
  659MOL0     H86953   1.025  11.133   5.777  2.4025  1.8262 -1.2962
  659MOL0     H86954   1.295  11.192   5.493  2.2046 -1.1225  2.5206
  659MOL0     H86955   1.284  11.354   5.572 -0.4382 -0.6205 -1.3037
  659MOL0     H86956   1.224  11.285   5.298 -0.5824  0.0925  1.1925
  659MOL0     H86957   1.307  11.413   5.356 -0.0164  0.4525  0.1193
  659MOL0     H86958   1.093  11.523   5.444 -0.9972 -0.7718  0.3525
  659MOL0     H86959   1.006  11.396   5.351 -1.6774  1.5967  0.9626
  659MOL0     H86960   1.215  11.571   5.209  0.8441 -3.7358  0.4061
  659MOL0     H86961   1.091  11.471   5.145  1.6198  1.7409 -1.8539
  659MOL0     H86962   1.020  11.688   5.102 -1.0078  0.6570 -0.4096
  659MOL0     H86963   1.044  11.744   5.269  1.0570 -0.9609  0.5860
  659MOL0     H86964   0.861  11.623   5.353  1.2842 -0.0536 -0.4384
  659MOL0     H86965   0.822  11.541   5.198  1.2339 -2.2215  1.9163
  659MOL0     H86966   0.794  11.757   5.089 -1.3274 -1.1405  0.2460
  659MOL0     H86967   0.679  11.719   5.206  0.0335  0.4094  0.9541
  659MOL0     H86968   0.894  11.922   5.262 -1.2374  1.4543  3.8767
  659MOL0     H86969   0.785  11.860   5.369  2.6973  3.8826  0.8523
  659MOL0     H86970   1.095  11.074   5.361  2.2746 -0.6264  0.3870
  659MOL0     H86971   1.016  10.836   5.371 -1.5002 -1.1319  0.2724
  659MOL0     H86972   0.894  10.479   5.454  2.6738  0.5448 -0.3751
  659MOL0     H86973   0.794  10.256   5.450 -1.2353 -2.3196  1.3658
  659MOL0     H86974   0.477  10.093   6.443  0.2474  3.2956  1.0359
  659MOL0     H86975   0.658  10.010   6.586  2.3377  0.7685  1.2791
  659MOL0     H86976   1.217   9.756   6.463 -0.5026  0.0931  0.1678
  659MOL0     H86977   1.305   9.623   6.663 -1.4319 -1.5388 -1.7904
  659MOL0     H86978   1.365   9.514   6.851  0.7166  1.4639 -0.3106
  659MOL0     H86979   1.236   9.419   6.791 -0.1139 -0.1896 -0.4334
  659MOL0     H86980   1.200   9.313   7.001  0.4264  0.7709 -0.6027
  659MOL0     H86981   1.369   9.322   6.956 -1.8943 -1.7728 -1.9971
  659MOL0     H86982   1.200   9.486   7.155  0.2616  5.5257 -4.1045
  659MOL0     H86983   1.354   9.552   7.121 -1.7445  0.8072  0.9426
  659MOL0     H86984   1.365   9.386   7.332  0.7596 -1.3452  0.1751
  659MOL0     H86985   1.331   9.263   7.216  1.2673 -1.0155 -2.4573
  659MOL0     H86986   1.734   9.309   7.149 -0.2453 -0.9491 -2.1828
  659MOL0     H86987   0.986   9.733   6.903 -1.3494  1.8377 -0.0472
  659MOL0     H86988   0.913   9.897   6.743  0.2063 -1.5650  3.0140
  660MOL0     O86989  10.928   5.115  11.255  0.6600  0.0570  0.6381
  660MOL0     C86990  10.861   5.022  11.222 -0.8487  0.4511  0.6737
  660MOL0     O86991  10.888   4.886  11.238 -0.1078  0.0823 -0.1595
  660MOL0     C86992  11.013   4.837  11.219 -0.0361  0.3545  1.1568
  660MOL0     C86993  11.035   4.711  11.270 -0.0849 -0.4108 -0.2202
  660MOL0     C86994  11.164   4.663  11.246 -1.0509 -0.2652 -0.1515
  660MOL0     C86995  11.266   4.726  11.171  0.8896  0.3940 -0.4049
  660MOL0     O86996  11.385   4.663  11.170 -0.4073 -0.0471 -0.1889
  660MOL0     C86997  11.484   4.699  11.075 -0.6958  0.5565 -0.5074
  660MOL0     C86998  11.593   4.590  11.084 -0.1239  0.5124 -0.4262
  660MOL0     C86999  11.706   4.605  10.988  0.1445  0.3310  0.1444
  660MOL0     C87000  11.795   4.734  11.025  0.0195  0.2452  1.0353
  660MOL0     C87001  11.913   4.751  10.934 -0.0875 -0.3202 -0.3819
  660MOL0     C87002  12.003   4.631  10.946 -0.3515 -0.3203  0.1672
  660MOL0     C87003  12.123   4.645  10.857  0.6894 -0.2304  0.0903
  660MOL0     C87004  12.186   4.510  10.858  0.5323  0.4957 -0.3380
  660MOL0     N87005  12.302   4.487  10.779 -0.2500 -0.8416  0.2881
  660MOL0     C87006  12.391   4.387  10.813 -0.4082  0.3182 -0.1998
  660MOL0     C87007  12.475   4.390  10.704  0.2490  0.1539 -0.0127
  660MOL0     C87008  12.586   4.291  10.664  0.0404 -0.2782  0.6815
  660MOL0     C87009  12.615   4.185  10.763 -0.4657 -0.3976  0.2903
  660MOL0     C87010  12.702   4.229  10.880  0.5655 -0.2018  0.2178
  660MOL0     C87011  12.846   4.280  10.861 -0.6555  0.3419  0.5663
  660MOL0     O87012  12.855   4.420  10.819  0.6957  0.1085  0.2564
  660MOL0     C87013  12.973   4.463  10.788 -0.7915 -0.1091 -0.4696
  660MOL0     C87014  13.095   4.393  10.818 -0.0415 -0.9439  0.1844
  660MOL0     C87015  13.226   4.450  10.793 -0.6616 -0.1789 -0.0557
  660MOL0     C87016  13.233   4.584  10.743  1.0834  0.5147 -0.2287
  660MOL0     C87017  13.361   4.638  10.706  0.3828 -0.2228  0.7755
  660MOL0     O87018  13.341   4.759  10.636 -0.4869  0.3665  0.4822
  660MOL0     C87019  13.447   4.792  10.544  0.5267 -0.0766 -0.3929
  660MOL0     C87020  13.519   4.910  10.574 -0.0644 -0.7615  0.7316
  660MOL0     C87021  13.619   4.946  10.489  0.2351 -0.6085  0.2568
  660MOL0     C87022  13.661   4.883  10.370  0.2269 -1.2469 -0.7959
  660MOL0     O87023  13.769   4.939  10.308 -0.1492 -0.9945 -0.4667
  660MOL0     C87024  13.809   4.862  10.200 -0.0443  0.0000  0.5508
  660MOL0     C87025  13.942   4.922  10.157  0.1812  0.5646  0.0013
  660MOL0     C87026  14.065   4.877  10.233  0.2405 -0.7170  0.8319
  660MOL0     C87027  14.196   4.917  10.175 -0.1015 -0.1387 -1.2724
  660MOL0     C87028  14.308   4.843  10.240 -0.2960  0.1431 -0.6374
  660MOL0     C87029  14.450   4.852  10.170 -0.3571  0.1670 -0.8255
  660MOL0     C87030  14.568   4.814  10.260  0.6039 -0.8529  0.0338
  660MOL0     C87031  14.698   4.836  10.185  0.3454  0.5124 -0.9396
  660MOL0    Cl87032  14.715   4.698  10.077  0.0370 -0.3743  0.1242
  660MOL0     C87033  13.585   4.764  10.337 -0.2691 -0.5149  0.4197
  660MOL0     C87034  13.485   4.723  10.429  0.0171 -0.6081  0.3146
  660MOL0     O87035  13.468   4.587  10.739 -0.2779 -0.5917  0.4989
  660MOL0     C87036  13.111   4.656  10.727 -0.6708 -0.4494 -0.4437
  660MOL0     C87037  12.982   4.600  10.747 -0.5044  1.0573 -0.2267
  660MOL0     N87038  12.444   4.512  10.637  0.2374  1.2229 -0.3169
  660MOL0     N87039  12.339   4.565  10.669 -0.5070 -0.0438 -0.8101
  660MOL0     C87040  11.231   4.849  11.113 -0.9077  0.4111 -0.1607
  660MOL0     C87041  11.104   4.902  11.129  0.0376  0.1892 -0.1470
  660MOL0     C87042  10.720   5.060  11.180 -0.3389  0.1161  0.3218
  660MOL0     C87043  10.653   5.184  11.202  0.1794 -0.1146 -1.4099
  660MOL0     C87044  10.521   5.209  11.169 -0.2286  0.2654  0.5891
  660MOL0     C87045  10.446   5.107  11.104 -0.7666  0.4398  0.4277
  660MOL0     O87046  10.317   5.126  11.065  0.0574  0.9111 -0.0721
  660MOL0     C87047  10.257   5.253  11.085  0.5231 -0.0113  0.2772
  660MOL0     C87048  10.137   5.249  10.989  0.6118 -0.2144  0.1720
  660MOL0     C87049  10.019   5.177  11.050 -0.7775 -0.3348 -0.4551
  660MOL0     C87050   9.890   5.182  10.971  0.4381 -0.4897  0.1696
  660MOL0     C87051   9.780   5.114  11.038  0.7371  0.4135 -0.0263
  660MOL0     C87052   9.683   5.060  11.095 -0.1444  0.0550 -0.0845
  660MOL0     C87053  10.502   4.984  11.072 -0.4971 -0.2242 -0.4747
  660MOL0     C87054  10.637   4.959  11.105 -0.0835 -0.5573 -0.4146
  660MOL0     H87055  10.972   4.650  11.333  0.2725 -2.3020 -1.6259
  660MOL0     H87056  11.200   4.563  11.267 -0.7372 -0.2591 -0.6288
  660MOL0     H87057  11.538   4.789  11.107  0.6638 -1.1615  2.3888
  660MOL0     H87058  11.446   4.709  10.973 -1.1981 -2.5737 -0.7274
  660MOL0     H87059  11.546   4.492  11.074 -1.8632  1.0559  1.6533
  660MOL0     H87060  11.638   4.595  11.184 -2.4948 -1.8614  0.8638
  660MOL0     H87061  11.669   4.600  10.885  0.5662 -0.1196  0.0117
  660MOL0     H87062  11.760   4.511  11.003 -1.6488 -0.6123  0.9686
  660MOL0     H87063  11.726   4.818  11.013 -3.8835 -2.9765 -2.0001
  660MOL0     H87064  11.828   4.745  11.129  0.7696 -0.7733  0.9289
  660MOL0     H87065  11.962   4.848  10.948 -2.7951  0.9760  0.9586
  660MOL0     H87066  11.879   4.764  10.831 -1.2931  2.6098  0.2557
  660MOL0     H87067  11.955   4.542  10.906 -2.3914 -0.0176  1.7393
  660MOL0     H87068  12.025   4.620  11.053 -0.3875  1.2576  0.3698
  660MOL0     H87069  12.092   4.677  10.757  0.9659  1.5577  0.5357
  660MOL0     H87070  12.191   4.726  10.886 -1.5130  1.4883  0.7906
  660MOL0     H87071  12.113   4.437  10.822  0.3580  1.1976 -1.4505
  660MOL0     H87072  12.217   4.501  10.962  0.3408  2.8210 -0.0325
  660MOL0     H87073  12.398   4.329  10.904 -0.4960  0.9941  0.2496
  660MOL0     H87074  12.667   4.348  10.618 -0.0066 -1.5384 -1.0520
  660MOL0     H87075  12.539   4.248  10.575  0.5619 -0.2975  0.4132
  660MOL0     H87076  12.675   4.108  10.714  1.3165 -0.0768  1.8395
  660MOL0     H87077  12.524   4.132  10.795 -0.7783 -0.3572 -0.5181
  660MOL0     H87078  12.652   4.308  10.937 -0.6607  1.1948 -2.5664
  660MOL0     H87079  12.713   4.142  10.945  1.6548 -0.9494 -0.9436
  660MOL0     H87080  12.892   4.216  10.786 -1.1084 -0.8788  1.2970
  660MOL0     H87081  12.895   4.260  10.957  1.1058  0.6762 -0.2248
  660MOL0     H87082  13.091   4.286  10.835 -0.4380 -0.8444  0.7609
  660MOL0     H87083  13.315   4.389  10.801 -1.8084 -2.4234 -2.5813
  660MOL0     H87084  13.511   4.951  10.674 -0.8231  1.0922 -0.0472
  660MOL0     H87085  13.675   5.031  10.526  0.4627 -0.7752  0.3001
  660MOL0     H87086  13.743   4.876  10.113  0.4635 -0.7486  0.0304
  660MOL0     H87087  13.815   4.756  10.228 -0.9181 -0.1968  0.0385
  660MOL0     H87088  13.926   5.028  10.177 -0.7547  0.4329  0.0081
  660MOL0     H87089  13.966   4.908  10.051  1.4142  4.1340 -0.2938
  660MOL0     H87090  14.070   4.768  10.236  2.2296 -0.6574  1.6750
  660MOL0     H87091  14.072   4.908  10.338 -0.1212 -1.4467  1.0766
  660MOL0     H87092  14.197   4.914  10.066 -0.3818  1.0801 -1.3305
  660MOL0     H87093  14.213   5.024  10.190 -0.5014 -0.4867  2.5062
  660MOL0     H87094  14.286   4.736  10.240 -1.2958  0.3389 -1.0448
  660MOL0     H87095  14.314   4.880  10.343 -2.4498  0.1894 -0.4684
  660MOL0     H87096  14.471   4.953  10.134  0.0108  0.4307  0.0745
  660MOL0     H87097  14.441   4.790  10.080  0.0443 -0.6777 -0.2983
  660MOL0     H87098  14.573   4.870  10.353 -1.8708 -0.6289  0.0857
  660MOL0     H87099  14.581   4.708  10.286  0.9704 -0.3966  1.8297
  660MOL0     H87100  14.776   4.838  10.262  0.0465 -2.5048 -0.4132
  660MOL0     H87101  14.715   4.922  10.120  1.2323  0.7207 -0.4472
  660MOL0     H87102  13.610   4.707  10.249 -0.7765  1.6854 -1.2447
  660MOL0     H87103  13.435   4.628  10.412  1.6951 -2.0844  3.0157
  660MOL0     H87104  13.124   4.758  10.692 -0.8137 -0.6225 -1.0147
  660MOL0     H87105  12.895   4.655  10.711 -0.4111  0.1698 -1.8538
  660MOL0     H87106  11.315   4.903  11.071  0.1899  1.9543  3.6103
  660MOL0     H87107  11.074   4.993  11.078 -0.6830 -2.1176 -4.2799
  660MOL0     H87108  10.725   5.260  11.231 -0.0753 -0.5294  0.4714
  660MOL0     H87109  10.482   5.308  11.192  0.0182  0.7404 -0.9572
  660MOL0     H87110  10.319   5.333  11.042 -1.3280 -0.1232 -2.8644
  660MOL0     H87111  10.231   5.275  11.189 -0.9775  0.1169 -0.1137
  660MOL0     H87112  10.104   5.352  10.971 -0.6216 -0.5022  0.6615
  660MOL0     H87113  10.173   5.193  10.902 -0.7144 -1.4516  0.3705
  660MOL0     H87114  10.001   5.212  11.152  1.4159 -1.9524  0.5625
  660MOL0     H87115  10.051   5.074  11.067 -0.1062  0.0501  0.6993
  660MOL0     H87116   9.852   5.283  10.958  0.4892 -0.6797 -1.7955
  660MOL0     H87117   9.907   5.140  10.871 -0.4226  1.3705 -0.8034
  660MOL0     H87118   9.600   5.013  11.144  1.0639 -1.0046  1.0686
  660MOL0     H87119  10.441   4.916  11.013  2.9552 -2.0139 -2.2762
  660MOL0     H87120  10.671   4.856  11.096 -2.5163 -1.2895 -1.8854
  661MOL0     O87121   3.589   8.203   2.652  0.0284 -0.1290 -0.5952
  661MOL0     C87122   3.557   8.318   2.684 -0.5682 -0.4632 -0.8503
  661MOL0     O87123   3.643   8.412   2.742 -0.4864  0.2842  0.3207
  661MOL0     C87124   3.771   8.377   2.759  0.1719  0.4524 -0.2509
  661MOL0     C87125   3.871   8.453   2.707  0.1161  0.2298  0.1897
  661MOL0     C87126   4.008   8.406   2.715 -0.1529 -0.4720  0.0755
  661MOL0     C87127   4.037   8.277   2.770 -1.1457 -0.2961 -0.1241
  661MOL0     O87128   4.169   8.225   2.774 -0.4344  0.7917  0.2873
  661MOL0     C87129   4.269   8.310   2.713  0.3126  1.0527  0.2468
  661MOL0     C87130   4.386   8.212   2.709 -0.2796 -0.2977  0.3666
  661MOL0     C87131   4.514   8.295   2.667 -0.7658  0.4569 -0.7799
  661MOL0     C87132   4.623   8.225   2.589 -0.4915 -0.1027  0.0577
  661MOL0     C87133   4.700   8.126   2.677 -0.3740  0.4396  0.9570
  661MOL0     C87134   4.850   8.139   2.664 -0.1194 -0.4440 -0.1477
  661MOL0     C87135   4.932   8.034   2.752  0.9070 -1.0838  0.5053
  661MOL0     C87136   4.935   7.889   2.698 -0.3994  0.6756 -0.3986
  661MOL0     N87137   4.996   7.801   2.801  0.3244 -0.3569  0.2685
  661MOL0     C87138   4.978   7.785   2.942  0.3622 -0.3501  0.2491
  661MOL0     C87139   5.097   7.732   2.980 -0.1599 -0.2429  0.4424
  661MOL0     C87140   5.143   7.684   3.114 -0.9270 -0.8131  0.1070
  661MOL0     C87141   5.141   7.535   3.118 -0.6520  1.0384  0.5741
  661MOL0     C87142   5.086   7.508   3.254  0.2268 -0.0667 -0.5756
  661MOL0     C87143   4.926   7.514   3.250 -1.0685 -0.3085 -0.1574
  661MOL0     O87144   4.864   7.387   3.266 -0.0586 -0.3757 -0.2240
  661MOL0     C87145   4.730   7.355   3.243 -0.0820  0.0599  0.1840
  661MOL0     C87146   4.697   7.222   3.235 -0.7071 -0.0461 -0.0407
  661MOL0     C87147   4.564   7.187   3.206  0.8719 -0.2568 -0.3253
  661MOL0     C87148   4.473   7.285   3.155  0.3851  0.4085 -0.2114
  661MOL0     C87149   4.345   7.243   3.105 -0.3356  0.3747  0.7807
  661MOL0     O87150   4.295   7.320   3.002 -0.5660  0.3659 -0.3969
  661MOL0     C87151   4.177   7.284   2.953  0.7427  0.1967  1.0230
  661MOL0     C87152   4.175   7.235   2.818 -0.3313 -0.9317 -1.0478
  661MOL0     C87153   4.056   7.188   2.768  0.3519 -0.5652  0.6704
  661MOL0     C87154   3.941   7.215   2.839  0.1499 -0.7173  0.1861
  661MOL0     O87155   3.826   7.185   2.768  0.2462  0.5968  0.2403
  661MOL0     C87156   3.697   7.252   2.786 -0.2672 -0.5344 -0.3560
  661MOL0     C87157   3.617   7.260   2.665 -0.2136 -0.0640 -0.7178
  661MOL0     C87158   3.589   7.126   2.593 -0.5002  0.4083 -0.1825
  661MOL0     C87159   3.501   7.027   2.669  0.1870 -0.4394  0.1319
  661MOL0     C87160   3.410   6.951   2.572 -0.8946  1.3579  1.3656
  661MOL0     C87161   3.293   6.888   2.644  1.0593  0.5863  0.3408
  661MOL0     C87162   3.185   6.831   2.541 -0.2165 -0.8242 -0.7355
  661MOL0     C87163   3.071   6.766   2.617  0.0682  0.1786  0.1691
  661MOL0    Cl87164   2.958   6.709   2.493  0.1152 -0.1508 -0.1243
  661MOL0     C87165   3.933   7.259   2.964  0.2608  0.0354 -0.5769
  661MOL0     C87166   4.057   7.290   3.026 -0.5874 -0.1717 -0.0891
  661MOL0     O87167   4.285   7.145   3.142 -0.7281 -0.9171 -0.4093
  661MOL0     C87168   4.519   7.416   3.136 -0.1227  0.4447 -0.7715
  661MOL0     C87169   4.641   7.450   3.194  0.0470  0.1390  1.4159
  661MOL0     N87170   5.183   7.727   2.867 -0.2506  0.1585 -0.0099
  661MOL0     N87171   5.122   7.775   2.767  0.1725 -0.1860  0.7447
  661MOL0     C87172   3.935   8.210   2.831  0.1950  0.0963 -0.9139
  661MOL0     C87173   3.809   8.262   2.831  0.2480  0.5802  0.1091
  661MOL0     C87174   3.407   8.356   2.648  0.2845  0.0924  0.1950
  661MOL0     C87175   3.319   8.261   2.600 -0.6572 -0.6014  0.6458
  661MOL0     C87176   3.188   8.293   2.587 -0.7903 -0.0992  0.6919
  661MOL0     C87177   3.138   8.426   2.604  0.6031 -0.4240  0.6354
  661MOL0     O87178   3.014   8.460   2.549  0.4805 -0.0522  0.6191
  661MOL0     C87179   2.896   8.378   2.552 -0.0127  0.0921  0.3708
  661MOL0     C87180   2.818   8.399   2.681  0.0496  0.3549 -0.0133
  661MOL0     C87181   2.676   8.378   2.650 -0.5468 -0.3607  0.1798
  661MOL0     C87182   2.573   8.406   2.767 -0.2531  1.0289 -0.0264
  661MOL0     C87183   2.614   8.299   2.868  0.5010 -0.2426  0.1599
  661MOL0     C87184   2.656   8.225   2.953 -1.0788 -1.1591  0.5298
  661MOL0     C87185   3.224   8.523   2.642 -0.6814  0.0927 -0.4815
  661MOL0     C87186   3.358   8.492   2.671 -0.3168 -0.3100 -0.3179
  661MOL0     H87187   3.849   8.542   2.648 -1.1220  1.0856  1.8444
  661MOL0     H87188   4.071   8.474   2.659  0.4727 -3.1546 -2.7223
  661MOL0     H87189   4.294   8.395   2.777  0.0349  1.9406 -0.7820
  661MOL0     H87190   4.238   8.344   2.613  0.7021 -1.2782 -0.7246
  661MOL0     H87191   4.366   8.146   2.624 -1.5354  0.9175 -0.3248
  661MOL0     H87192   4.406   8.148   2.795  0.9921 -2.5532 -1.4936
  661MOL0     H87193   4.538   8.329   2.768 -1.3730  1.9328 -1.1143
  661MOL0     H87194   4.475   8.385   2.619 -0.0585  1.8448  1.1227
  661MOL0     H87195   4.600   8.177   2.493 -0.2515  0.7785 -0.4499
  661MOL0     H87196   4.696   8.302   2.561  2.1030 -1.9703  1.2090
  661MOL0     H87197   4.677   8.024   2.644  1.0212 -0.0723  1.5092
  661MOL0     H87198   4.675   8.137   2.783 -1.2774  0.6552  0.7270
  661MOL0     H87199   4.876   8.239   2.699 -1.0895  0.6502 -2.3479
  661MOL0     H87200   4.882   8.131   2.559  1.7742  1.9897  0.1530
  661MOL0     H87201   5.028   8.078   2.780 -0.4932  1.4927  1.6338
  661MOL0     H87202   4.884   8.033   2.850 -0.4968 -0.4926 -0.1586
  661MOL0     H87203   4.976   7.886   2.596  0.7113 -0.7617  0.0554
  661MOL0     H87204   4.836   7.846   2.685  0.3106 -1.1763 -0.0050
  661MOL0     H87205   4.896   7.818   3.004  0.3893 -0.4911  0.3602
  661MOL0     H87206   5.077   7.735   3.186 -3.1242 -3.1218 -0.1198
  661MOL0     H87207   5.243   7.726   3.122 -1.1432 -0.5371  1.7783
  661MOL0     H87208   5.248   7.512   3.110 -0.3378  2.7314 -1.0274
  661MOL0     H87209   5.084   7.487   3.038  2.0061  1.3323 -1.6656
  661MOL0     H87210   5.106   7.401   3.267 -0.6912  0.0813  3.3121
  661MOL0     H87211   5.143   7.553   3.336  1.6024 -1.7139 -0.5548
  661MOL0     H87212   4.879   7.548   3.157 -0.4550 -0.4712 -0.5332
  661MOL0     H87213   4.897   7.587   3.327  2.2627  2.9484 -1.6723
  661MOL0     H87214   4.771   7.145   3.252  0.7575  1.2910 -0.1103
  661MOL0     H87215   4.528   7.086   3.220  0.5072 -0.4125 -2.1111
  661MOL0     H87216   4.269   7.235   2.764  0.0001  0.9101 -0.5433
  661MOL0     H87217   4.052   7.141   2.670  0.6361 -0.4906  0.6224
  661MOL0     H87218   3.713   7.350   2.832  2.6163 -0.4893 -1.2571
  661MOL0     H87219   3.646   7.185   2.856 -2.7081  0.3242 -1.2333
  661MOL0     H87220   3.673   7.309   2.585 -1.4290  0.5964 -1.1915
  661MOL0     H87221   3.522   7.314   2.672 -2.4513 -3.5374 -1.4365
  661MOL0     H87222   3.683   7.078   2.568  0.0934  1.5374 -0.1746
  661MOL0     H87223   3.548   7.154   2.495 -0.3411 -1.6985 -0.9114
  661MOL0     H87224   3.556   6.962   2.738 -1.5632 -1.3445  0.7260
  661MOL0     H87225   3.432   7.085   2.731 -0.0220 -2.8663  2.3149
  661MOL0     H87226   3.470   6.887   2.507 -1.8220  1.6026  0.2491
  661MOL0     H87227   3.368   7.028   2.507 -1.1638  0.4333  0.4051
  661MOL0     H87228   3.247   6.965   2.706  1.0827  0.0376  1.0439
  661MOL0     H87229   3.326   6.819   2.722 -2.5971 -1.0861  0.6197
  661MOL0     H87230   3.147   6.914   2.481  1.3205 -1.8987 -3.3219
  661MOL0     H87231   3.230   6.767   2.465 -1.4516  3.0066 -5.1718
  661MOL0     H87232   3.035   6.823   2.702  0.5488 -2.4641  2.2917
  661MOL0     H87233   3.099   6.672   2.667  0.3858 -0.1003 -0.5160
  661MOL0     H87234   3.840   7.281   3.016 -0.1209 -2.8221  0.0793
  661MOL0     H87235   4.062   7.331   3.126  0.7048 -2.3599  0.8164
  661MOL0     H87236   4.459   7.493   3.088 -0.8634 -0.5749 -1.5406
  661MOL0     H87237   4.676   7.552   3.179  0.6477 -0.2684 -0.2026
  661MOL0     H87238   3.978   8.120   2.873  0.4560 -0.6138 -2.6050
  661MOL0     H87239   3.718   8.210   2.861 -1.9012  3.8463 -0.2741
  661MOL0     H87240   3.354   8.162   2.571  0.9921  0.0243  0.3501
  661MOL0     H87241   3.116   8.218   2.553 -0.9241  0.1880  0.3328
  661MOL0     H87242   2.911   8.272   2.528  2.3321  0.6355 -0.8011
  661MOL0     H87243   2.836   8.430   2.477  0.5300 -1.9456 -1.5785
  661MOL0     H87244   2.844   8.320   2.752  1.9410  0.9565  0.0317
  661MOL0     H87245   2.840   8.498   2.723  0.8147  0.6646 -1.1053
  661MOL0     H87246   2.670   8.272   2.624 -1.1909 -0.8669  2.2324
  661MOL0     H87247   2.646   8.439   2.564 -1.3094 -2.0661 -0.8030
  661MOL0     H87248   2.579   8.510   2.800  1.9596  0.6520  0.9551
  661MOL0     H87249   2.468   8.379   2.750  0.2755 -0.7999 -0.6576
  661MOL0     H87250   2.687   8.159   3.031 -0.0588  0.0483  1.1922
  661MOL0     H87251   3.193   8.625   2.663  0.6729  0.1807  1.2767
  661MOL0     H87252   3.427   8.566   2.710 -1.2936 -1.5177  4.3103
  662MOL0     O87253   5.815   3.889   9.541  0.0987  0.3442 -0.1117
  662MOL0     C87254   5.838   3.792   9.611  0.5377  0.5074 -0.8609
  662MOL0     O87255   5.943   3.695   9.586  0.5261  0.5384 -0.3689
  662MOL0     C87256   6.026   3.723   9.475  0.5110  0.5445  0.2598
  662MOL0     C87257   5.986   3.776   9.347 -0.2624  0.0185  0.5513
  662MOL0     C87258   6.081   3.789   9.252 -1.3511  1.1502  0.1151
  662MOL0     C87259   6.212   3.750   9.264  0.2578 -0.2093  0.9199
  662MOL0     O87260   6.292   3.758   9.151 -0.1630 -1.0346  0.4956
  662MOL0     C87261   6.420   3.826   9.155 -0.2175  0.0519 -0.3428
  662MOL0     C87262   6.395   3.971   9.168 -0.6987 -0.5862  0.1175
  662MOL0     C87263   6.324   4.037   9.051 -0.4521  1.0479  0.5053
  662MOL0     C87264   6.337   4.185   9.059  0.7703  0.0473  1.0223
  662MOL0     C87265   6.272   4.266   8.940  0.1672 -0.3899  1.1255
  662MOL0     C87266   6.294   4.416   8.958 -0.2775  0.6706 -0.3886
  662MOL0     C87267   6.261   4.486   8.831 -0.1385 -0.1303 -0.2741
  662MOL0     C87268   6.124   4.477   8.782 -0.1875  0.4123 -0.3409
  662MOL0     N87269   6.025   4.550   8.856  0.1880  0.2436 -1.1109
  662MOL0     C87270   5.990   4.524   8.984 -0.3240 -0.4260  1.1723
  662MOL0     C87271   5.892   4.620   9.012  1.1471  0.3983 -0.0306
  662MOL0     C87272   5.810   4.623   9.144 -0.9421 -0.3153  0.1433
  662MOL0     C87273   5.692   4.714   9.132  0.0107 -0.5558  0.1517
  662MOL0     C87274   5.629   4.727   9.268 -0.1665 -0.0525 -0.1934
  662MOL0     C87275   5.529   4.839   9.293  0.0831 -0.2377 -0.5119
  662MOL0     O87276   5.496   4.841   9.429 -0.7385  0.1880 -0.3552
  662MOL0     C87277   5.570   4.905   9.530 -0.6294  0.0898 -0.1036
  662MOL0     C87278   5.523   4.915   9.662 -0.8647 -0.4028  0.0083
  662MOL0     C87279   5.598   4.980   9.764 -0.3980  0.1788  0.9663
  662MOL0     C87280   5.732   5.024   9.737 -0.0425  0.2680 -0.0622
  662MOL0     C87281   5.810   5.093   9.844 -1.0436 -0.2243 -0.0019
  662MOL0     O87282   5.931   5.134   9.818  0.4415 -0.5528 -0.7035
  662MOL0     C87283   5.997   5.213   9.915  1.4548  0.7398  0.3158
  662MOL0     C87284   6.016   5.169  10.049 -0.0043 -0.4735 -0.2348
  662MOL0     C87285   6.092   5.252  10.140  0.3967  0.3297 -0.6124
  662MOL0     C87286   6.128   5.384  10.098  1.3281 -0.5109 -1.0094
  662MOL0     O87287   6.183   5.465  10.196 -0.0199 -0.3794  0.3532
  662MOL0     C87288   6.118   5.596  10.208 -0.5491 -0.2673 -0.0840
  662MOL0     C87289   6.198   5.679  10.314 -0.0185 -0.2682  0.2621
  662MOL0     C87290   6.167   5.621  10.457  0.2129  0.1362 -0.3826
  662MOL0     C87291   6.248   5.690  10.566 -0.8025  0.5437  0.1284
  662MOL0     C87292   6.248   5.840  10.557  0.0919 -0.7865 -0.3978
  662MOL0     C87293   6.108   5.895  10.581 -0.5889 -0.3381 -0.3967
  662MOL0     C87294   6.059   5.901  10.734 -0.5174  0.0410  1.0050
  662MOL0     C87295   6.136   6.004  10.816  0.4847  0.0727  0.3096
  662MOL0    Cl87296   6.041   6.026  10.980 -0.4037 -0.2588 -0.6413
  662MOL0     C87297   6.092   5.434   9.969 -0.1675 -0.9035 -0.1595
  662MOL0     C87298   6.038   5.344   9.878  0.4308  0.1892 -0.3554
  662MOL0     O87299   5.740   5.137   9.932  0.4677 -0.9482  0.1314
  662MOL0     C87300   5.779   5.020   9.612 -0.1416  0.0155  0.0603
  662MOL0     C87301   5.698   4.962   9.509  0.2411  0.1238  0.7361
  662MOL0     N87302   5.865   4.696   8.897  0.3211 -0.4540  0.1787
  662MOL0     N87303   5.945   4.647   8.802  0.3506 -0.8397  0.1477
  662MOL0     C87304   6.262   3.689   9.382  0.7298  0.6752  0.1344
  662MOL0     C87305   6.159   3.679   9.483 -0.8690 -0.0289  0.2770
  662MOL0     C87306   5.773   3.764   9.745 -1.0086  0.7384  0.2673
  662MOL0     C87307   5.802   3.655   9.821  0.0878  0.0844 -0.4661
  662MOL0     C87308   5.735   3.629   9.942  0.3783 -0.0424  0.4997
  662MOL0     C87309   5.634   3.717   9.991 -0.6312  0.4896  0.5011
  662MOL0     O87310   5.558   3.701  10.109  0.1910  0.1171  0.4068
  662MOL0     C87311   5.587   3.602  10.208  0.3177 -0.0930  0.5355
  662MOL0     C87312   5.454   3.568  10.277 -1.0309 -0.4564 -0.5894
  662MOL0     C87313   5.413   3.698  10.348  0.2906 -0.4456  0.9740
  662MOL0     C87314   5.292   3.672  10.444 -0.8911 -0.7856 -0.9923
  662MOL0     C87315   5.340   3.656  10.581  0.3407  0.5312 -0.0056
  662MOL0     C87316   5.359   3.646  10.700  0.2452  0.1356  0.0662
  662MOL0     C87317   5.617   3.830   9.917 -0.6284  0.1383  0.2537
  662MOL0     C87318   5.680   3.856   9.795 -0.6306  0.3094  0.5931
  662MOL0     H87319   5.886   3.816   9.334 -0.4379 -0.2514  1.0476
  662MOL0     H87320   6.049   3.840   9.162  2.5191  4.7527  0.4740
  662MOL0     H87321   6.479   3.803   9.066 -0.8215  0.9503 -0.9844
  662MOL0     H87322   6.486   3.790   9.235  0.4542  0.2992 -0.7775
  662MOL0     H87323   6.494   4.018   9.179 -0.2759 -1.5641  0.5554
  662MOL0     H87324   6.336   3.991   9.258 -1.0786  1.4799 -0.5378
  662MOL0     H87325   6.217   4.016   9.062 -0.0655 -1.0847  0.7555
  662MOL0     H87326   6.363   3.998   8.956 -0.7362 -0.3966  0.9530
  662MOL0     H87327   6.280   4.210   9.149 -3.3126  0.0773 -1.3374
  662MOL0     H87328   6.442   4.215   9.071  0.6303  0.7920  0.4538
  662MOL0     H87329   6.166   4.239   8.947 -0.1441  1.1301  3.2713
  662MOL0     H87330   6.311   4.232   8.844 -3.5833 -1.4488 -0.2104
  662MOL0     H87331   6.398   4.434   8.986  1.0737 -4.4378 -1.0974
  662MOL0     H87332   6.227   4.454   9.037  0.8203 -1.4391  1.6972
  662MOL0     H87333   6.268   4.589   8.867  0.9059 -0.6888  1.1988
  662MOL0     H87334   6.323   4.449   8.748 -0.6770 -1.6413 -0.0220
  662MOL0     H87335   6.092   4.373   8.782  0.9390 -0.0503 -3.2640
  662MOL0     H87336   6.114   4.520   8.682 -1.2309  2.3052  0.5332
  662MOL0     H87337   6.021   4.441   9.047 -0.6957 -1.1909  0.3715
  662MOL0     H87338   5.874   4.652   9.228 -0.3598 -1.1124 -0.0209
  662MOL0     H87339   5.778   4.522   9.172 -0.5442 -0.4454  0.1365
  662MOL0     H87340   5.636   4.666   9.051  0.1820 -2.7483  1.2561
  662MOL0     H87341   5.731   4.814   9.110 -0.2914 -0.5624 -0.4324
  662MOL0     H87342   5.581   4.630   9.280 -0.4967  0.3915  3.0582
  662MOL0     H87343   5.706   4.752   9.342  1.0008  0.3085 -1.4968
  662MOL0     H87344   5.445   4.817   9.226 -0.2320  1.7450 -0.8187
  662MOL0     H87345   5.567   4.935   9.257  0.4743 -1.1783 -2.7976
  662MOL0     H87346   5.430   4.867   9.694  0.2201 -2.4951  0.2221
  662MOL0     H87347   5.564   4.971   9.867 -0.6631  0.9296  0.9485
  662MOL0     H87348   5.976   5.075  10.088 -3.3660  1.2116  0.7791
  662MOL0     H87349   6.112   5.212  10.239 -2.2490 -1.6930 -0.7722
  662MOL0     H87350   6.013   5.591  10.239 -0.2985  1.5021  1.2256
  662MOL0     H87351   6.119   5.649  10.112 -0.9695  0.5208  0.3319
  662MOL0     H87352   6.149   5.777  10.317 -1.8306 -1.1295  0.6876
  662MOL0     H87353   6.306   5.683  10.301  0.1763 -1.9213  1.0982
  662MOL0     H87354   6.173   5.512  10.458 -1.0438  0.0529 -0.2016
  662MOL0     H87355   6.060   5.636  10.472  0.4297  0.4026  1.0268
  662MOL0     H87356   6.238   5.646  10.665  0.3624  1.0638  0.4936
  662MOL0     H87357   6.346   5.648  10.540 -0.2858  1.6282  0.2884
  662MOL0     H87358   6.283   5.868  10.457 -0.7626 -2.3637 -1.1797
  662MOL0     H87359   6.315   5.880  10.634 -2.2487  0.9612  0.8461
  662MOL0     H87360   6.031   5.845  10.521 -1.1035  0.6813 -0.6059
  662MOL0     H87361   6.123   5.994  10.537  2.1922 -0.4328  0.1496
  662MOL0     H87362   5.956   5.938  10.726 -0.5042  0.0409  0.8168
  662MOL0     H87363   6.064   5.800  10.775  2.3327 -1.9883 -3.5274
  662MOL0     H87364   6.140   6.104  10.771 -2.3669 -0.1828 -0.7192
  662MOL0     H87365   6.240   5.980  10.841  0.6814  3.5465  3.7484
  662MOL0     H87366   6.129   5.530   9.936 -2.1066  0.7059  1.9899
  662MOL0     H87367   6.011   5.384   9.781 -0.2666  0.0408 -0.2289
  662MOL0     H87368   5.868   5.078   9.594 -0.4624  0.5392  0.1588
  662MOL0     H87369   5.742   4.962   9.410 -1.2734  2.0847 -0.0140
  662MOL0     H87370   6.359   3.643   9.399  0.9327  1.6655  1.9616
  662MOL0     H87371   6.174   3.624   9.575  0.1839 -0.9882 -0.4455
  662MOL0     H87372   5.876   3.578   9.801 -0.1206 -0.9473  2.3815
  662MOL0     H87373   5.750   3.530   9.985  3.4616 -1.1032 -2.5389
  662MOL0     H87374   5.671   3.635  10.269  1.8150  0.4340 -1.7246
  662MOL0     H87375   5.627   3.512  10.160  0.0160  0.4493 -0.7935
  662MOL0     H87376   5.385   3.536  10.198 -1.3768  0.1659 -0.5454
  662MOL0     H87377   5.471   3.486  10.347  2.1665  0.2275 -0.4204
  662MOL0     H87378   5.380   3.762  10.266 -2.7881 -0.2293  2.2563
  662MOL0     H87379   5.504   3.739  10.394  0.3536  2.0083 -1.1506
  662MOL0     H87380   5.228   3.761  10.444 -1.4269 -1.0450  2.5199
  662MOL0     H87381   5.246   3.579  10.407 -0.6190 -1.8984  1.2893
  662MOL0     H87382   5.373   3.637  10.806 -1.7398 -0.6752  0.2949
  662MOL0     H87383   5.548   3.906   9.953 -1.9967 -0.5835 -0.7456
  662MOL0     H87384   5.649   3.941   9.737 -0.8546  0.4621  0.9331
  663MOL0     O87385   1.952   5.524   2.021 -0.2085 -0.3840  0.6863
  663MOL0     C87386   1.901   5.540   1.912  0.9448 -0.6076 -0.2248
  663MOL0     O87387   1.767   5.582   1.897  0.1791 -0.3821  0.1339
  663MOL0     C87388   1.682   5.601   2.002 -0.3386 -0.6644  0.0712
  663MOL0     C87389   1.597   5.704   1.991  0.3782  0.9267 -0.0181
  663MOL0     C87390   1.485   5.719   2.080 -0.2514 -0.3540 -0.6848
  663MOL0     C87391   1.474   5.634   2.186 -0.2637  0.1144 -0.6423
  663MOL0     O87392   1.371   5.652   2.274  0.1710 -0.2418  0.3966
  663MOL0     C87393   1.353   5.775   2.343 -0.3885 -0.3391 -0.1855
  663MOL0     C87394   1.211   5.821   2.313 -0.6077 -0.4379 -0.2067
  663MOL0     C87395   1.101   5.736   2.374 -0.2821  1.7160  0.1626
  663MOL0     C87396   0.962   5.794   2.338  0.2160 -0.2813 -0.4032
  663MOL0     C87397   0.847   5.713   2.388 -0.8188 -0.3165 -0.2488
  663MOL0     C87398   0.717   5.752   2.335  1.2605 -0.8048  0.7817
  663MOL0     C87399   0.600   5.656   2.351  0.5692  0.0968 -0.4643
  663MOL0     C87400   0.542   5.645   2.495 -0.0113  0.3787 -0.8958
  663MOL0     N87401   0.431   5.558   2.479  0.0656  0.4515  0.0577
  663MOL0     C87402   0.421   5.436   2.421  0.0533  0.5999  0.3292
  663MOL0     C87403   0.283   5.404   2.425 -0.3382  0.4376 -0.7629
  663MOL0     C87404   0.214   5.274   2.385 -0.8345  0.2765  0.6024
  663MOL0     C87405   0.056   5.278   2.392 -0.5510 -0.3020  0.7433
  663MOL0     C87406   0.014   5.211   2.525  0.0879  0.2602 -0.1963
  663MOL0     C87407   0.044   5.273   2.658  0.1185  1.2805  0.5510
  663MOL0     O87408  -0.041   5.200   2.753 -0.0249  0.4766 -0.5206
  663MOL0     C87409  -0.030   5.227   2.879 -0.2271  0.0834 -0.3487
  663MOL0     C87410  -0.137   5.182   2.955  0.9389 -0.4799 -0.1514
  663MOL0     C87411  -0.146   5.209   3.089 -0.0713 -0.3281 -0.1519
  663MOL0     C87412  -0.053   5.287   3.158 -0.4493 -0.6771 -0.2657
  663MOL0     C87413  -0.079   5.330   3.297  0.0045 -0.4027  0.4932
  663MOL0     O87414  -0.203   5.309   3.349  0.9434  0.4437  0.0422
  663MOL0     C87415  -0.220   5.327   3.481  0.1228  0.1027  0.1207
  663MOL0     C87416  -0.249   5.224   3.571  0.1078  0.7766 -0.2279
  663MOL0     C87417  -0.281   5.247   3.704 -0.1292 -0.7325  0.0483
  663MOL0     C87418  -0.293   5.380   3.751  0.4854 -0.3504  0.7322
  663MOL0     O87419  -0.338   5.411   3.880 -0.1820  0.1578  0.0041
  663MOL0     C87420  -0.238   5.499   3.954 -0.4865  0.2467 -0.3868
  663MOL0     C87421  -0.097   5.441   3.954 -0.1689  0.2813 -0.3994
  663MOL0     C87422  -0.086   5.305   4.012 -0.5253  0.6309 -0.5544
  663MOL0     C87423   0.042   5.238   3.956  1.2440  1.1438  0.2253
  663MOL0     C87424   0.169   5.298   4.006  0.8056 -0.5029  0.3923
  663MOL0     C87425   0.204   5.269   4.148 -0.0288 -0.7516 -0.2502
  663MOL0     C87426   0.345   5.325   4.186  0.3213 -0.0674  0.7290
  663MOL0     C87427   0.348   5.431   4.292 -0.0790  0.5739  0.3069
  663MOL0    Cl87428   0.517   5.458   4.318  0.6595  0.5220 -0.1888
  663MOL0     C87429  -0.275   5.488   3.652  0.8058 -0.4362 -0.0911
  663MOL0     C87430  -0.234   5.460   3.523  0.2734  0.2993  0.4161
  663MOL0     O87431   0.019   5.374   3.352 -0.5512 -0.2081 -0.9487
  663MOL0     C87432   0.059   5.326   3.086 -0.8072 -0.0518  0.2977
  663MOL0     C87433   0.068   5.306   2.945  1.1375  0.2930 -0.0505
  663MOL0     N87434   0.223   5.502   2.489 -0.7587 -0.6874  0.5122
  663MOL0     N87435   0.308   5.593   2.522 -0.3104 -0.6193 -0.3495
  663MOL0     C87436   1.559   5.524   2.196  0.9422  0.2332 -0.1942
  663MOL0     C87437   1.657   5.507   2.105  0.3599 -0.8015 -0.7138
  663MOL0     C87438   1.980   5.534   1.789  0.2267 -0.6821 -0.4326
  663MOL0     C87439   1.919   5.529   1.658  0.4303  0.3928  0.3218
  663MOL0     C87440   1.990   5.539   1.541 -0.9765 -0.3288  1.1991
  663MOL0     C87441   2.125   5.559   1.548 -0.8003  0.2338  0.0492
  663MOL0     O87442   2.187   5.565   1.425  0.0544 -0.4871  0.2654
  663MOL0     C87443   2.331   5.556   1.426 -1.3546 -0.0495  0.6579
  663MOL0     C87444   2.392   5.541   1.290 -0.0870  0.3095  0.8061
  663MOL0     C87445   2.543   5.539   1.297  0.2635 -0.7952 -0.3523
  663MOL0     C87446   2.605   5.529   1.158  0.8996  0.4478  0.0957
  663MOL0     C87447   2.750   5.545   1.163 -0.1714 -0.5355  0.4103
  663MOL0     C87448   2.871   5.576   1.152 -0.1812  0.2896 -0.4516
  663MOL0     C87449   2.192   5.546   1.678 -0.4905  0.3702  0.8131
  663MOL0     C87450   2.117   5.525   1.793  0.3461  0.0599  0.4672
  663MOL0     H87451   1.615   5.765   1.903 -0.0046  1.0656 -0.0004
  663MOL0     H87452   1.412   5.797   2.059  0.1434 -0.2780 -1.8181
  663MOL0     H87453   1.425   5.854   2.322  0.7692 -2.0234 -3.2789
  663MOL0     H87454   1.367   5.753   2.450  3.1075  1.3471 -0.1671
  663MOL0     H87455   1.201   5.842   2.206 -2.2346  0.2993  0.0560
  663MOL0     H87456   1.194   5.910   2.375 -2.3014 -2.8543  3.1417
  663MOL0     H87457   1.124   5.726   2.480 -1.5803 -3.1199  0.2078
  663MOL0     H87458   1.099   5.633   2.339 -1.3134  1.6989  0.2458
  663MOL0     H87459   0.965   5.897   2.377 -0.2505 -1.5536  3.4435
  663MOL0     H87460   0.944   5.797   2.230 -0.5752  0.4003 -0.2714
  663MOL0     H87461   0.843   5.718   2.497 -1.3758 -2.3497 -0.1250
  663MOL0     H87462   0.871   5.609   2.361  1.5780  0.6745 -2.3471
  663MOL0     H87463   0.735   5.767   2.228 -1.4104  2.4155  0.5858
  663MOL0     H87464   0.685   5.850   2.371 -0.6156 -1.0299 -0.1422
  663MOL0     H87465   0.518   5.684   2.285 -0.4421  3.6272  1.9984
  663MOL0     H87466   0.633   5.553   2.333 -2.2625 -1.0997  0.6431
  663MOL0     H87467   0.503   5.741   2.531  0.4918  0.0588  0.5723
  663MOL0     H87468   0.621   5.618   2.566 -2.1390 -1.2881  0.9931
  663MOL0     H87469   0.504   5.380   2.381 -0.8797  0.2930 -1.2850
  663MOL0     H87470   0.256   5.193   2.445  2.4248  0.7255 -0.8729
  663MOL0     H87471   0.238   5.241   2.283 -0.3667  2.5172 -0.0560
  663MOL0     H87472   0.017   5.218   2.309  0.8327 -4.0180  2.5351
  663MOL0     H87473   0.014   5.379   2.388  0.0112 -0.0771  0.3474
  663MOL0     H87474  -0.096   5.208   2.527 -0.1638  2.4942  4.9249
  663MOL0     H87475   0.051   5.109   2.515 -2.6298 -0.7219 -1.3105
  663MOL0     H87476   0.027   5.381   2.657 -2.4697  0.9467 -0.7896
  663MOL0     H87477   0.148   5.251   2.681 -0.9324 -3.8944  1.6028
  663MOL0     H87478  -0.211   5.122   2.903  2.6143 -2.1387 -0.7852
  663MOL0     H87479  -0.226   5.163   3.146 -2.2357  1.9714 -1.1251
  663MOL0     H87480  -0.244   5.120   3.541  1.1270  0.2318  1.6861
  663MOL0     H87481  -0.297   5.161   3.768 -0.7958 -0.9471 -0.3976
  663MOL0     H87482  -0.269   5.517   4.058 -0.3813 -0.6190 -0.1973
  663MOL0     H87483  -0.235   5.599   3.910 -0.3124  0.9767  1.1945
  663MOL0     H87484  -0.038   5.519   4.003 -1.9878  3.4023 -2.7645
  663MOL0     H87485  -0.047   5.441   3.857  2.1454  0.6090  0.7264
  663MOL0     H87486  -0.174   5.256   3.970 -1.2790  1.2523  0.2762
  663MOL0     H87487  -0.085   5.294   4.121  2.3407  2.6094 -0.2634
  663MOL0     H87488   0.037   5.130   3.975 -0.5195  1.1228 -0.1339
  663MOL0     H87489   0.028   5.237   3.848 -0.0871 -1.5708  0.3127
  663MOL0     H87490   0.174   5.407   3.990 -0.1474 -0.9175 -4.1993
  663MOL0     H87491   0.243   5.259   3.936  0.4949 -2.6094  1.1630
  663MOL0     H87492   0.203   5.160   4.155  4.1754 -1.0250 -1.5508
  663MOL0     H87493   0.130   5.325   4.207  0.6144  1.0133 -1.0534
  663MOL0     H87494   0.402   5.239   4.222  0.6247  1.1734  3.3769
  663MOL0     H87495   0.398   5.357   4.096  0.9349 -0.6862  0.8612
  663MOL0     H87496   0.311   5.394   4.388  1.0645 -1.6116 -0.0109
  663MOL0     H87497   0.307   5.522   4.248  2.0492  1.8503  0.8187
  663MOL0     H87498  -0.290   5.590   3.687  2.2904  0.6589 -2.4061
  663MOL0     H87499  -0.237   5.531   3.441 -0.2581  0.7329  0.8040
  663MOL0     H87500   0.147   5.372   3.129 -0.1398 -0.9040 -0.1218
  663MOL0     H87501   0.143   5.343   2.876 -0.4222  2.2173 -0.8216
  663MOL0     H87502   1.548   5.449   2.274 -3.0663 -1.8215 -2.3653
  663MOL0     H87503   1.738   5.436   2.122  1.7816  0.8846 -0.1725
  663MOL0     H87504   1.811   5.532   1.655  0.2798  1.3570  3.2138
  663MOL0     H87505   1.940   5.521   1.447  3.3723 -0.1512 -1.4524
  663MOL0     H87506   2.358   5.481   1.501  1.0204  1.7046  1.7254
  663MOL0     H87507   2.381   5.646   1.465  2.8365 -0.4474 -3.0041
  663MOL0     H87508   2.347   5.459   1.233  1.8476  1.4487 -2.6671
  663MOL0     H87509   2.365   5.630   1.232  0.3601 -2.5059 -4.2321
  663MOL0     H87510   2.573   5.449   1.353 -1.0052 -1.1021 -0.1477
  663MOL0     H87511   2.586   5.626   1.348  0.2909  0.3799 -2.2854
  663MOL0     H87512   2.586   5.431   1.112  2.5634 -0.6359  1.6308
  663MOL0     H87513   2.553   5.601   1.094 -1.1506 -1.1265 -0.1334
  663MOL0     H87514   2.971   5.602   1.124  0.3531 -1.0770  0.0873
  663MOL0     H87515   2.299   5.560   1.692 -0.5159  0.1452  1.2257
  663MOL0     H87516   2.162   5.527   1.891 -3.7069  0.9358  2.5313
  664MOL0     O87517   9.332  10.643   0.640  0.1523 -0.3560 -0.4272
  664MOL0     C87518   9.386  10.567   0.722 -0.5918  0.1140 -0.0876
  664MOL0     O87519   9.496  10.490   0.694 -0.0815 -0.4979 -0.6631
  664MOL0     C87520   9.544  10.492   0.574  0.1638 -0.6009 -0.1388
  664MOL0     C87521   9.550  10.370   0.513  0.5586 -0.7304  0.4629
  664MOL0     C87522   9.613  10.357   0.388 -0.1402 -0.2728 -0.5742
  664MOL0     C87523   9.670  10.469   0.335  0.0292 -0.8056 -0.0738
  664MOL0     O87524   9.725  10.456   0.212 -0.0090  0.2423  0.6030
  664MOL0     C87525   9.857  10.408   0.213  0.1443 -0.9395  0.0572
  664MOL0     C87526   9.931  10.472   0.094  0.0955 -0.0640  0.0828
  664MOL0     C87527   9.890  10.615   0.052  0.4216 -0.2349  1.2476
  664MOL0     C87528   9.982  10.666  -0.055 -0.2923  0.0583  0.1240
  664MOL0     C87529  10.016  10.811  -0.045 -0.5273  0.2704 -0.2041
  664MOL0     C87530   9.898  10.905  -0.090 -0.1125  0.0565 -0.1371
  664MOL0     C87531   9.927  11.054  -0.069  0.3330  0.4524  0.0615
  664MOL0     C87532   9.805  11.130  -0.024 -0.2472  0.5885  0.4367
  664MOL0     N87533   9.803  11.139   0.119 -0.6695  0.2847 -0.0547
  664MOL0     C87534   9.748  11.043   0.202  0.1562 -0.3112 -0.6305
  664MOL0     C87535   9.781  11.079   0.330  0.1429 -0.8375 -0.4925
  664MOL0     C87536   9.751  10.990   0.449 -0.7726  0.0798 -0.5126
  664MOL0     C87537   9.656  11.055   0.551  0.5125  0.1295  0.3613
  664MOL0     C87538   9.594  10.944   0.629  0.2804 -0.0097  0.5461
  664MOL0     C87539   9.498  11.006   0.725  0.4318  0.2784 -0.1314
  664MOL0     O87540   9.478  10.918   0.837  0.2482 -0.7884 -0.2361
  664MOL0     C87541   9.366  10.943   0.918 -0.3927  0.8059  0.0499
  664MOL0     C87542   9.264  11.046   0.896 -0.8768  0.5182 -0.3734
  664MOL0     C87543   9.161  11.048   0.981 -0.0707 -0.4439 -0.8053
  664MOL0     C87544   9.135  10.952   1.083 -0.3109 -0.1637 -0.0731
  664MOL0     C87545   9.003  10.942   1.157 -0.2316  1.2131  0.3977
  664MOL0     O87546   8.969  10.814   1.185  0.3215  0.6420  0.1375
  664MOL0     C87547   8.859  10.800   1.270 -0.8957 -0.2099  1.3353
  664MOL0     C87548   8.887  10.825   1.407 -0.6839 -0.4157 -0.7986
  664MOL0     C87549   8.793  10.795   1.505  0.3855  0.1097 -0.2830
  664MOL0     C87550   8.673  10.734   1.474  0.0441  0.0769  0.6286
  664MOL0     O87551   8.579  10.709   1.569 -0.5658 -0.0541  0.4015
  664MOL0     C87552   8.628  10.685   1.703 -0.7036 -0.0047  0.4399
  664MOL0     C87553   8.522  10.619   1.777  0.7214 -0.2200 -0.8485
  664MOL0     C87554   8.550  10.613   1.925 -0.0118  0.4059 -0.1685
  664MOL0     C87555   8.424  10.587   2.011  0.3902  0.1649  0.2600
  664MOL0     C87556   8.463  10.510   2.138 -0.2851 -0.1079 -0.3379
  664MOL0     C87557   8.344  10.478   2.221  0.7330  0.4012  0.3993
  664MOL0     C87558   8.270  10.608   2.249  0.7590  0.1040  0.1001
  664MOL0     C87559   8.162  10.590   2.347 -0.6863 -0.2620 -0.0834
  664MOL0    Cl87560   8.038  10.719   2.328 -0.1625  0.0234  0.0946
  664MOL0     C87561   8.642  10.717   1.337  0.0624 -0.2352 -0.1634
  664MOL0     C87562   8.737  10.738   1.232  0.4376  0.6270 -0.5018
  664MOL0     O87563   8.938  11.043   1.178  0.3962 -0.6299 -0.4411
  664MOL0     C87564   9.227  10.852   1.096  0.1210  0.1493 -0.5545
  664MOL0     C87565   9.338  10.851   1.016  0.0048 -0.5595  0.8626
  664MOL0     N87566   9.858  11.186   0.324  0.0326  0.1044 -0.2731
  664MOL0     N87567   9.872  11.224   0.196  0.3029 -0.6426 -0.1730
  664MOL0     C87568   9.677  10.593   0.406  0.5354 -0.1401  0.2886
  664MOL0     C87569   9.616  10.607   0.527  0.1399 -0.3204 -0.5357
  664MOL0     C87570   9.328  10.527   0.844  0.3648  0.1615 -0.2046
  664MOL0     C87571   9.400  10.464   0.945  0.6279 -0.4034  0.0180
  664MOL0     C87572   9.345  10.414   1.058 -0.1398  0.0957  0.1663
  664MOL0     C87573   9.206  10.418   1.084  0.1705  0.5646  1.3322
  664MOL0     O87574   9.133  10.347   1.173  0.4919 -0.9104 -0.6353
  664MOL0     C87575   9.199  10.285   1.279  0.3249  0.7676 -0.5692
  664MOL0     C87576   9.220  10.131   1.242 -0.5042  0.5225  0.0728
  664MOL0     C87577   9.252  10.051   1.371  0.0571  0.4896 -0.4673
  664MOL0     C87578   9.179   9.914   1.367 -0.5847  0.4089  0.0760
  664MOL0     C87579   9.216   9.823   1.472 -0.3979  0.0408 -0.1877
  664MOL0     C87580   9.250   9.758   1.565 -0.6593 -0.6223 -0.9267
  664MOL0     C87581   9.134  10.500   0.990  0.0425 -1.2849  0.7159
  664MOL0     C87582   9.196  10.555   0.876  0.5233 -0.6565 -0.7338
  664MOL0     H87583   9.496  10.280   0.537  1.0395 -1.4018 -0.8929
  664MOL0     H87584   9.608  10.265   0.330 -2.3683 -0.0261 -0.8957
  664MOL0     H87585   9.856  10.299   0.200  1.2208 -0.8151 -1.2722
  664MOL0     H87586   9.912  10.429   0.305 -1.6622 -2.4766  1.5698
  664MOL0     H87587   9.922  10.415   0.001 -1.9508  0.5530 -0.1495
  664MOL0     H87588  10.034  10.473   0.129  0.3512 -0.3365 -0.6376
  664MOL0     H87589   9.893  10.674   0.144 -1.7369 -2.4632  2.8891
  664MOL0     H87590   9.795  10.615  -0.002  2.4369  0.9803 -2.7170
  664MOL0     H87591  10.076  10.611  -0.043 -2.9013 -4.7668  1.1410
  664MOL0     H87592   9.951  10.633  -0.155  0.7251 -2.0206  0.4224
  664MOL0     H87593  10.094  10.822  -0.120  0.5331 -0.4486  0.7575
  664MOL0     H87594  10.057  10.844   0.051  2.2009 -1.1087 -0.7961
  664MOL0     H87595   9.815  10.868  -0.029  1.3762 -3.6503 -0.0795
  664MOL0     H87596   9.883  10.899  -0.198  0.5993  0.2594 -0.2475
  664MOL0     H87597  10.010  11.058   0.002  0.3687  1.0499 -0.0129
  664MOL0     H87598   9.976  11.100  -0.156 -1.3398  3.8816  0.7920
  664MOL0     H87599   9.711  11.079  -0.048  0.4945  0.6144 -3.0146
  664MOL0     H87600   9.807  11.227  -0.074 -1.2071 -0.8806 -2.7169
  664MOL0     H87601   9.688  10.955   0.181  0.3808 -0.8120  0.7336
  664MOL0     H87602   9.849  10.985   0.497  0.9406 -0.1634 -3.7464
  664MOL0     H87603   9.706  10.893   0.427 -1.3525  0.3232 -0.4244
  664MOL0     H87604   9.565  11.092   0.504 -1.1368 -2.1940  1.5268
  664MOL0     H87605   9.708  11.128   0.614 -0.6807  1.6457 -0.3524
  664MOL0     H87606   9.530  10.879   0.568  0.1089  0.0558  0.6577
  664MOL0     H87607   9.669  10.881   0.677  0.7279 -1.4409 -1.8660
  664MOL0     H87608   9.404  11.031   0.675  0.6217  0.5430 -0.3540
  664MOL0     H87609   9.541  11.095   0.771 -1.8642  2.0498 -1.2263
  664MOL0     H87610   9.260  11.123   0.819  0.1505  2.9719  1.8557
  664MOL0     H87611   9.088  11.127   0.973 -0.7226 -0.7694  1.3181
  664MOL0     H87612   8.971  10.885   1.442 -1.4582 -0.2669  0.9107
  664MOL0     H87613   8.817  10.817   1.609  1.9648 -0.1795 -0.5523
  664MOL0     H87614   8.651  10.786   1.738  1.4415  0.0233 -0.9063
  664MOL0     H87615   8.720  10.628   1.713 -1.1740 -1.1159 -1.2303
  664MOL0     H87616   8.525  10.517   1.739 -1.0468 -0.2405 -0.9782
  664MOL0     H87617   8.428  10.673   1.761 -0.7516 -2.5359 -0.4619
  664MOL0     H87618   8.594  10.706   1.962  1.2698  0.3043 -1.3424
  664MOL0     H87619   8.618  10.531   1.950 -1.4076 -0.0286  2.6471
  664MOL0     H87620   8.384  10.686   2.036  0.8502  1.2522 -2.8229
  664MOL0     H87621   8.357  10.528   1.948  2.9170 -1.6848 -0.9016
  664MOL0     H87622   8.532  10.574   2.194 -0.3162 -0.2741 -0.1048
  664MOL0     H87623   8.524  10.427   2.103 -0.1176  0.6478 -1.9138
  664MOL0     H87624   8.380  10.412   2.301  1.2823 -0.9769 -0.9292
  664MOL0     H87625   8.288  10.414   2.152  1.7167 -0.2904  0.2147
  664MOL0     H87626   8.338  10.680   2.296  1.2254 -1.4181  1.8807
  664MOL0     H87627   8.231  10.643   2.153 -4.4870 -2.4705  0.9010
  664MOL0     H87628   8.206  10.589   2.447  0.9453  0.6177 -0.7452
  664MOL0     H87629   8.134  10.488   2.321  0.9094  0.2320 -4.5724
  664MOL0     H87630   8.544  10.680   1.309 -0.5089  0.9761  0.2007
  664MOL0     H87631   8.712  10.716   1.129  0.3360 -0.9088 -0.1721
  664MOL0     H87632   9.210  10.765   1.159 -0.2916  0.1869 -0.6114
  664MOL0     H87633   9.402  10.763   1.010  2.7874  1.2202  2.3293
  664MOL0     H87634   9.725  10.676   0.354 -1.8145 -0.9012 -3.4767
  664MOL0     H87635   9.625  10.695   0.590  1.9700  1.4941 -3.1282
  664MOL0     H87636   9.503  10.441   0.921  1.5975  0.3463  3.0682
  664MOL0     H87637   9.417  10.361   1.120 -0.3367  0.4902  0.7366
  664MOL0     H87638   9.129  10.283   1.364  1.2343  0.4384  0.1937
  664MOL0     H87639   9.299  10.322   1.301  1.4778 -1.3797 -1.8253
  664MOL0     H87640   9.133  10.089   1.191 -0.2953 -1.2898  1.1491
  664MOL0     H87641   9.292  10.123   1.160 -1.0693 -0.5937 -0.3292
  664MOL0     H87642   9.226  10.107   1.461 -1.1240 -0.1876 -0.3725
  664MOL0     H87643   9.357  10.024   1.358 -0.1988 -0.3215 -0.9163
  664MOL0     H87644   9.071   9.929   1.359 -0.8217 -1.7043 -2.0065
  664MOL0     H87645   9.206   9.859   1.276  0.7460  0.9867  0.0943
  664MOL0     H87646   9.297   9.713   1.650  0.2253 -0.2418 -1.1923
  664MOL0     H87647   9.027  10.496   1.005 -0.2959 -0.3290 -1.1962
  664MOL0     H87648   9.140  10.607   0.800 -1.8051 -2.0228 -0.0449
  665MOL0     O87649   8.510   9.504   6.890  0.6740 -0.1805  0.2451
  665MOL0     C87650   8.483   9.392   6.849  0.2971 -0.0919  0.2426
  665MOL0     O87651   8.532   9.336   6.737  0.4795  0.1979 -0.7290
  665MOL0     C87652   8.654   9.374   6.684  0.9039 -0.0242 -0.1003
  665MOL0     C87653   8.779   9.330   6.737 -0.4459 -0.0112 -0.3935
  665MOL0     C87654   8.900   9.389   6.702 -0.0858  0.8117 -0.2507
  665MOL0     C87655   8.899   9.492   6.604 -0.9174  0.0623  0.1352
  665MOL0     O87656   9.021   9.542   6.548  0.5648 -0.7245 -0.2904
  665MOL0     C87657   9.020   9.672   6.491  0.2415  0.0016 -0.2611
  665MOL0     C87658   9.160   9.712   6.422 -0.3279 -0.0311 -0.6253
  665MOL0     C87659   9.278   9.699   6.518 -1.4151  0.4863  0.0324
  665MOL0     C87660   9.270   9.817   6.618 -0.3197 -0.2834  0.3040
  665MOL0     C87661   9.413   9.872   6.635  0.5855  0.2354 -0.5010
  665MOL0     C87662   9.419  10.003   6.714  0.0882 -0.2794 -0.0145
  665MOL0     C87663   9.549  10.017   6.784 -0.0685  0.5642 -0.1653
  665MOL0     C87664   9.602  10.157   6.816 -1.1389  0.7502 -0.1185
  665MOL0     N87665   9.756  10.144   6.819  0.4798 -0.0307 -0.4963
  665MOL0     C87666   9.834  10.113   6.925 -0.0942 -0.4010 -0.6022
  665MOL0     C87667   9.966  10.122   6.889 -0.4536  0.1198  0.1918
  665MOL0     C87668  10.096  10.102   6.969 -0.4111 -0.5240  0.6122
  665MOL0     C87669  10.090  10.181   7.095  0.4615 -0.2370 -0.9017
  665MOL0     C87670  10.207  10.287   7.096  0.2753 -0.0872 -0.0983
  665MOL0     C87671  10.164  10.405   7.186 -0.3655 -0.6279  0.3205
  665MOL0     O87672  10.255  10.520   7.157  0.0033 -0.1079 -0.2409
  665MOL0     C87673  10.375  10.532   7.233 -0.0943  0.2945 -0.9258
  665MOL0     C87674  10.433  10.429   7.315  0.1088  0.5957 -0.0630
  665MOL0     C87675  10.561  10.445   7.364 -0.1800 -0.2050 -0.9774
  665MOL0     C87676  10.636  10.560   7.342 -0.2595 -1.0336 -0.8401
  665MOL0     C87677  10.775  10.566   7.380  0.5646  0.7986 -1.0652
  665MOL0     O87678  10.800  10.675   7.454  0.4003 -0.4797  0.0984
  665MOL0     C87679  10.926  10.710   7.484  0.1089 -0.0305  0.3719
  665MOL0     C87680  10.965  10.839   7.447 -0.3684  0.3930 -0.4615
  665MOL0     C87681  11.095  10.881   7.453  0.8369  0.8282  0.2928
  665MOL0     C87682  11.197  10.798   7.492 -0.8051  0.6377 -0.4721
  665MOL0     O87683  11.332  10.842   7.508  0.5007  0.1017  0.3974
  665MOL0     C87684  11.380  10.940   7.413  0.5324  0.2591 -0.7547
  665MOL0     C87685  11.532  10.939   7.392  0.8651 -0.6761 -0.8966
  665MOL0     C87686  11.594  11.031   7.284 -0.4821 -0.2861  0.4192
  665MOL0     C87687  11.598  10.960   7.142  0.3837 -0.1609  0.1454
  665MOL0     C87688  11.661  11.044   7.026 -0.8679  0.1174 -0.5252
  665MOL0     C87689  11.804  11.067   7.058 -0.6432 -0.5579  1.3482
  665MOL0     C87690  11.874  11.160   6.956  0.2929 -0.5700 -0.0043
  665MOL0     C87691  11.844  11.311   6.947 -0.3952 -0.8070 -0.6287
  665MOL0    Cl87692  11.983  11.402   7.011 -0.4964  0.1535  0.0858
  665MOL0     C87693  11.162  10.665   7.532 -0.3923 -0.0865  0.1333
  665MOL0     C87694  11.029  10.628   7.540 -0.0425  0.4363  0.0510
  665MOL0     O87695  10.847  10.468   7.359 -0.0261 -0.0169  0.8777
  665MOL0     C87696  10.575  10.664   7.273 -0.2437 -0.0591  0.4350
  665MOL0     C87697  10.451  10.648   7.215  0.4391 -0.1951  0.8435
  665MOL0     N87698   9.967  10.156   6.757  0.3404 -0.0532  0.1709
  665MOL0     N87699   9.844  10.168   6.717 -0.9509 -0.4001  0.2961
  665MOL0     C87700   8.776   9.534   6.558 -0.2327  0.0701  0.0317
  665MOL0     C87701   8.656   9.476   6.593  0.2510 -1.0411  0.2182
  665MOL0     C87702   8.369   9.319   6.905 -0.0708 -0.3762 -0.7986
  665MOL0     C87703   8.333   9.192   6.853  0.4586 -0.3619 -0.6995
  665MOL0     C87704   8.230   9.122   6.913  0.7186 -0.0496  0.4275
  665MOL0     C87705   8.162   9.166   7.027 -0.0929 -0.2265  0.1293
  665MOL0     O87706   8.066   9.083   7.082  0.1945 -0.2224 -0.1132
  665MOL0     C87707   8.106   9.024   7.210 -0.3434  0.0813  0.7163
  665MOL0     C87708   8.004   8.925   7.270  0.4102  0.1680 -0.1776
  665MOL0     C87709   7.988   8.800   7.180  0.1363 -0.9669  0.0752
  665MOL0     C87710   7.879   8.712   7.233  0.3241  0.1732  0.4316
  665MOL0     C87711   7.828   8.607   7.140 -0.2593 -0.3803 -0.9464
  665MOL0     C87712   7.774   8.519   7.073 -0.0528 -0.1572 -0.2620
  665MOL0     C87713   8.187   9.296   7.068  0.2670  0.1599  0.2292
  665MOL0     C87714   8.295   9.374   7.004  1.5674  0.1390 -0.3662
  665MOL0     H87715   8.791   9.250   6.809 -1.5474  1.1430  1.1542
  665MOL0     H87716   8.997   9.355   6.739  0.7054  2.2336 -0.9589
  665MOL0     H87717   8.992   9.746   6.567  0.7024  1.4248 -1.4409
  665MOL0     H87718   8.944   9.661   6.413 -1.7163  0.1185  1.5332
  665MOL0     H87719   9.151   9.811   6.378 -3.1762  0.2150  0.2963
  665MOL0     H87720   9.173   9.647   6.335  2.5070  3.6990 -3.2995
  665MOL0     H87721   9.369   9.679   6.462 -1.9528 -1.0219 -0.3559
  665MOL0     H87722   9.258   9.611   6.580 -0.8595 -0.1249 -0.6399
  665MOL0     H87723   9.216   9.902   6.575 -0.3674 -1.2077 -1.5592
  665MOL0     H87724   9.235   9.792   6.718 -3.1704 -0.2765 -0.6003
  665MOL0     H87725   9.448   9.882   6.532 -0.9199 -3.1588 -1.4793
  665MOL0     H87726   9.473   9.790   6.676 -1.2811 -1.9021 -1.8469
  665MOL0     H87727   9.343   9.984   6.791 -0.4781 -1.9814 -0.9245
  665MOL0     H87728   9.392  10.089   6.653 -1.8048  0.2352  1.4445
  665MOL0     H87729   9.550   9.967   6.881  0.2316 -1.1803 -1.0239
  665MOL0     H87730   9.625   9.965   6.725  0.0827  0.5404  0.0475
  665MOL0     H87731   9.579  10.196   6.916 -0.6631 -0.2971  0.4093
  665MOL0     H87732   9.573  10.227   6.737  0.8132  1.4048 -0.3067
  665MOL0     H87733   9.790  10.079   7.019 -2.3803  2.7468 -0.3837
  665MOL0     H87734  10.163  10.153   6.900 -1.1929  1.0323  0.9520
  665MOL0     H87735  10.134  10.001   6.983  1.2293  0.1702  1.3718
  665MOL0     H87736  10.106  10.119   7.184  0.5776 -1.2687 -1.6297
  665MOL0     H87737   9.993  10.230   7.099  0.5216 -0.1592 -0.0872
  665MOL0     H87738  10.302  10.245   7.130  0.5663 -0.2799 -1.1142
  665MOL0     H87739  10.231  10.328   6.997 -1.6677 -1.0984 -1.0491
  665MOL0     H87740  10.156  10.387   7.294 -0.9948  1.2661  0.6138
  665MOL0     H87741  10.061  10.436   7.168 -0.3468  1.0290  2.6207
  665MOL0     H87742  10.375  10.337   7.321  0.9618  0.0904  0.6693
  665MOL0     H87743  10.599  10.354   7.407 -0.9666 -1.3496 -2.5793
  665MOL0     H87744  10.895  10.907   7.398 -1.2584  0.8003  1.2680
  665MOL0     H87745  11.116  10.984   7.426  3.5184  0.1924 -0.3742
  665MOL0     H87746  11.355  11.046   7.424  0.1803  0.1345 -0.3530
  665MOL0     H87747  11.339  10.913   7.315 -1.6428  2.2402 -0.4855
  665MOL0     H87748  11.570  10.836   7.393  2.5570 -0.0617 -0.3442
  665MOL0     H87749  11.562  10.981   7.488  1.1841 -0.8045 -0.9396
  665MOL0     H87750  11.693  11.072   7.306 -0.7169  2.0835 -2.3504
  665MOL0     H87751  11.528  11.117   7.269 -1.0949 -0.8586 -0.2659
  665MOL0     H87752  11.639  10.859   7.150  0.3105 -0.2427 -0.4296
  665MOL0     H87753  11.493  10.949   7.113 -0.2865  5.0999 -0.3488
  665MOL0     H87754  11.601  11.135   7.022 -1.7140 -0.4188 -0.2398
  665MOL0     H87755  11.657  10.987   6.932  3.1446 -3.1697  0.9977
  665MOL0     H87756  11.863  10.976   7.066  0.3836 -0.3175 -2.1099
  665MOL0     H87757  11.815  11.125   7.151  1.5219  1.3776 -0.0169
  665MOL0     H87758  11.982  11.150   6.973  0.4017 -0.4927 -0.6348
  665MOL0     H87759  11.864  11.111   6.859 -0.9688  2.3269 -1.4627
  665MOL0     H87760  11.756  11.333   7.008  0.0585  0.7936 -0.5240
  665MOL0     H87761  11.816  11.355   6.851  2.0249  1.5585 -0.3464
  665MOL0     H87762  11.223  10.584   7.571  2.1682  0.4268 -2.4959
  665MOL0     H87763  11.002  10.531   7.579 -0.1388  0.7992  0.9006
  665MOL0     H87764  10.637  10.747   7.238 -1.7861  1.1921  0.5623
  665MOL0     H87765  10.415  10.720   7.142  2.5000  0.5398  0.4703
  665MOL0     H87766   8.768   9.625   6.500  0.7252  0.3197  0.2690
  665MOL0     H87767   8.561   9.516   6.560  1.7165  1.8429 -0.9100
  665MOL0     H87768   8.392   9.152   6.771 -1.5672 -1.9835 -1.4740
  665MOL0     H87769   8.184   9.037   6.864  2.6721 -0.4793 -0.7700
  665MOL0     H87770   8.131   9.103   7.281  0.6720 -0.0736  0.5453
  665MOL0     H87771   8.198   8.967   7.192  0.8788  0.8359  3.9483
  665MOL0     H87772   8.041   8.893   7.368 -2.6474  1.8942  1.6918
  665MOL0     H87773   7.905   8.967   7.289  0.4360 -0.5587  1.7931
  665MOL0     H87774   8.079   8.742   7.163  1.1715  0.3726  0.8686
  665MOL0     H87775   7.959   8.838   7.081  0.3312  3.9883  1.6369
  665MOL0     H87776   7.915   8.666   7.326  0.1157  0.5121  0.6777
  665MOL0     H87777   7.792   8.768   7.266 -0.5055 -1.1625  0.5927
  665MOL0     H87778   7.728   8.437   7.023  0.6591 -0.4618 -0.4292
  665MOL0     H87779   8.140   9.339   7.156 -3.5280  0.6069 -1.8022
  665MOL0     H87780   8.321   9.476   7.032  3.0161  0.1687 -1.6570
  666MOL0     O87781   4.490   8.109   4.985 -0.4585 -0.1319  0.0175
  666MOL0     C87782   4.363   8.116   4.973 -0.1764 -0.6269  0.4406
  666MOL0     O87783   4.292   8.195   4.879 -0.4160 -0.2959  0.3032
  666MOL0     C87784   4.376   8.280   4.816  0.1126 -0.0203 -0.8631
  666MOL0     C87785   4.407   8.408   4.870 -0.2833  0.0892 -0.2246
  666MOL0     C87786   4.488   8.489   4.793  0.2619 -0.3939  0.6450
  666MOL0     C87787   4.548   8.450   4.671 -0.2244 -0.6395  0.6125
  666MOL0     O87788   4.625   8.528   4.588  0.0930 -0.4535 -0.1964
  666MOL0     C87789   4.635   8.666   4.623 -0.3021  0.4852  0.1993
  666MOL0     C87790   4.718   8.736   4.506 -0.0423 -0.0363 -0.0726
  666MOL0     C87791   4.869   8.740   4.536  0.4579 -0.4872  0.2560
  666MOL0     C87792   4.927   8.605   4.574  1.1331 -0.3243  0.9621
  666MOL0     C87793   5.060   8.633   4.617 -0.7317  0.6669 -0.6985
  666MOL0     C87794   5.149   8.504   4.646 -0.5142 -0.3689 -0.6086
  666MOL0     C87795   5.291   8.521   4.705  0.1508  0.1791 -0.2313
  666MOL0     C87796   5.385   8.610   4.622 -1.0637  0.8249  0.0183
  666MOL0     N87797   5.401   8.554   4.487  0.1003  0.0524  0.9846
  666MOL0     C87798   5.519   8.487   4.460  0.1014 -0.7968  0.1251
  666MOL0     C87799   5.522   8.466   4.327 -0.7245  0.6551 -0.0532
  666MOL0     C87800   5.647   8.407   4.260  1.0297  0.2718  0.2612
  666MOL0     C87801   5.598   8.317   4.147  0.8273 -0.4321  0.3194
  666MOL0     C87802   5.697   8.218   4.095 -0.1016 -0.9288  0.0527
  666MOL0     C87803   5.829   8.278   4.047 -0.1538  0.2827  0.3663
  666MOL0     O87804   5.932   8.173   4.044 -0.4206  0.6248 -0.1384
  666MOL0     C87805   6.039   8.192   3.964 -0.4517  0.1893 -0.0349
  666MOL0     C87806   6.153   8.264   4.004 -0.3670  0.2681  0.0929
  666MOL0     C87807   6.254   8.276   3.906  0.2272  0.7690 -0.6425
  666MOL0     C87808   6.243   8.246   3.774  0.7857  0.1097 -0.5534
  666MOL0     C87809   6.358   8.262   3.681  0.7032  0.0089 -1.0670
  666MOL0     O87810   6.339   8.233   3.544  0.3054 -0.3250  0.6000
  666MOL0     C87811   6.432   8.264   3.454 -0.7273  1.0504 -0.1151
  666MOL0     C87812   6.391   8.324   3.335  0.2443  0.6115  0.6331
  666MOL0     C87813   6.479   8.371   3.234 -0.1572 -0.5947  0.1241
  666MOL0     C87814   6.615   8.341   3.263 -0.1708 -0.4109 -0.0837
  666MOL0     O87815   6.717   8.383   3.180 -0.6417 -0.3994 -0.3665
  666MOL0     C87816   6.691   8.474   3.073 -0.1649 -0.8385  0.2519
  666MOL0     C87817   6.817   8.536   3.009  0.0696 -0.4870 -0.0316
  666MOL0     C87818   6.880   8.660   3.087 -0.1032 -0.3039  0.1112
  666MOL0     C87819   6.995   8.716   2.999 -0.2834 -0.2872 -0.0862
  666MOL0     C87820   7.015   8.860   3.044 -0.4558  0.2787 -0.7568
  666MOL0     C87821   7.105   8.933   2.940 -1.2373  0.5331  0.3443
  666MOL0     C87822   7.130   9.087   2.973  0.2774  0.6689  0.0027
  666MOL0     C87823   7.189   9.160   2.854 -0.2040 -0.5257  0.0278
  666MOL0    Cl87824   7.085   9.161   2.700  0.5417 -0.0277 -0.1672
  666MOL0     C87825   6.654   8.258   3.374 -0.3393 -0.5013 -0.0017
  666MOL0     C87826   6.563   8.226   3.473 -0.0495 -0.4824  0.4192
  666MOL0     O87827   6.467   8.304   3.725  0.7294  0.0316 -0.6061
  666MOL0     C87828   6.120   8.177   3.738 -0.6579 -0.5818 -0.2750
  666MOL0     C87829   6.021   8.161   3.823  0.0392 -0.3782 -0.5092
  666MOL0     N87830   5.402   8.512   4.275 -0.4464  0.6423 -0.5303
  666MOL0     N87831   5.331   8.573   4.369  0.0536  0.5375  0.0057
  666MOL0     C87832   4.528   8.324   4.624  0.7100 -0.5352  0.4883
  666MOL0     C87833   4.443   8.238   4.700 -0.3985  0.7596  0.8850
  666MOL0     C87834   4.292   7.996   5.015  0.5429 -1.4183  0.0253
  666MOL0     C87835   4.181   7.951   4.952 -0.9550  0.2243 -0.1497
  666MOL0     C87836   4.111   7.841   4.998 -0.1891  0.0078 -0.5739
  666MOL0     C87837   4.158   7.764   5.106 -1.0089 -0.2172  0.3944
  666MOL0     O87838   4.100   7.656   5.161 -0.6190  0.2676  0.7933
  666MOL0     C87839   4.007   7.583   5.076 -0.3041 -0.0331 -0.0626
  666MOL0     C87840   3.994   7.434   5.113 -0.1047  0.5801  0.0693
  666MOL0     C87841   4.134   7.376   5.089 -0.9067  1.2585 -1.0900
  666MOL0     C87842   4.197   7.386   4.949  0.8930 -0.3430 -0.5212
  666MOL0     C87843   4.111   7.315   4.858  0.0093  0.8410 -0.6759
  666MOL0     C87844   4.051   7.264   4.767  0.4504  0.3937  0.4872
  666MOL0     C87845   4.272   7.817   5.178 -0.5734  1.0093  0.1046
  666MOL0     C87846   4.336   7.928   5.127 -0.1669 -0.7793 -0.3120
  666MOL0     H87847   4.360   8.437   4.964 -2.0466 -1.3337 -0.6249
  666MOL0     H87848   4.510   8.585   4.838  0.2655  0.2635 -0.6839
  666MOL0     H87849   4.688   8.683   4.717  1.4606  0.1388 -0.6835
  666MOL0     H87850   4.534   8.708   4.622  0.4962  2.6340  1.6555
  666MOL0     H87851   4.690   8.838   4.478  1.4586  0.0399 -1.4625
  666MOL0     H87852   4.725   8.679   4.413  6.8653 -0.1824 -0.0132
  666MOL0     H87853   4.884   8.820   4.609 -0.7957  2.5369 -2.5062
  666MOL0     H87854   4.922   8.789   4.453  2.9561  0.8233  2.4729
  666MOL0     H87855   4.870   8.555   4.653  0.2459 -0.0602  0.5124
  666MOL0     H87856   4.936   8.537   4.489 -3.8782  0.1972 -0.3467
  666MOL0     H87857   5.051   8.694   4.707  0.3695  0.6614 -0.5745
  666MOL0     H87858   5.102   8.703   4.544 -2.1992  2.2906 -0.0547
  666MOL0     H87859   5.159   8.461   4.546  0.0694  0.2708 -0.8352
  666MOL0     H87860   5.092   8.432   4.704 -0.7199  1.9989  2.3913
  666MOL0     H87861   5.279   8.569   4.803  1.9933  2.7483 -1.1558
  666MOL0     H87862   5.337   8.422   4.713  2.4327  1.2184  0.2456
  666MOL0     H87863   5.475   8.597   4.683  0.2903 -1.7972 -2.3136
  666MOL0     H87864   5.357   8.716   4.618  0.3368  1.1913 -0.9041
  666MOL0     H87865   5.583   8.450   4.539 -1.2325 -1.3288  0.9814
  666MOL0     H87866   5.709   8.340   4.321 -0.7382 -3.2763 -1.5696
  666MOL0     H87867   5.716   8.483   4.222 -0.7899  0.9304 -1.9602
  666MOL0     H87868   5.556   8.372   4.062 -0.1745 -2.2282 -0.3865
  666MOL0     H87869   5.508   8.267   4.185  0.5037  1.2003  1.8800
  666MOL0     H87870   5.716   8.142   4.172 -2.0828  1.1736  2.8028
  666MOL0     H87871   5.656   8.169   4.006  1.5763 -0.1972 -1.1761
  666MOL0     H87872   5.868   8.365   4.100  3.2106 -1.1448  0.4319
  666MOL0     H87873   5.816   8.323   3.948 -0.9434  0.4598  0.5415
  666MOL0     H87874   6.154   8.289   4.109  2.2440 -0.1174  0.2208
  666MOL0     H87875   6.341   8.330   3.943 -0.0176  0.4542  0.4144
  666MOL0     H87876   6.284   8.343   3.336 -0.0376 -0.8634  1.8051
  666MOL0     H87877   6.447   8.430   3.149 -0.1600 -0.0681  0.4869
  666MOL0     H87878   6.629   8.561   3.100 -1.6748 -1.7951 -0.0328
  666MOL0     H87879   6.636   8.411   3.003  0.8348 -1.1913 -0.2277
  666MOL0     H87880   6.773   8.584   2.921  1.6622  0.6735 -0.2225
  666MOL0     H87881   6.886   8.459   2.975  0.4464 -0.3935  0.5104
  666MOL0     H87882   6.906   8.641   3.191 -2.2070  1.2512  0.9849
  666MOL0     H87883   6.801   8.735   3.098  0.4039  0.3575 -0.6309
  666MOL0     H87884   7.088   8.658   3.006 -1.3117 -1.8640  1.1730
  666MOL0     H87885   6.956   8.716   2.897 -3.4864  5.0043  0.7842
  666MOL0     H87886   7.067   8.859   3.141  1.1105  1.5509 -1.5311
  666MOL0     H87887   6.917   8.907   3.053 -0.2127  0.8955 -1.2827
  666MOL0     H87888   7.073   8.914   2.837  0.9224  0.3458 -0.3404
  666MOL0     H87889   7.204   8.890   2.959 -2.0697 -1.5206  0.2592
  666MOL0     H87890   7.030   9.133   2.980  0.5342  1.4763 -1.2912
  666MOL0     H87891   7.193   9.100   3.061  1.3720 -2.1174 -0.2767
  666MOL0     H87892   7.283   9.110   2.825 -0.4245 -0.9347  0.0095
  666MOL0     H87893   7.197   9.268   2.868 -0.9257 -0.6278  1.3239
  666MOL0     H87894   6.754   8.219   3.389  0.0209  0.0844 -0.7959
  666MOL0     H87895   6.586   8.177   3.567 -0.4675 -0.8041  0.3604
  666MOL0     H87896   6.096   8.143   3.637 -2.9820 -0.3142  0.1235
  666MOL0     H87897   5.927   8.109   3.803 -2.0539  3.3025 -1.2492
  666MOL0     H87898   4.572   8.284   4.533 -0.6972  2.0628 -1.4605
  666MOL0     H87899   4.445   8.136   4.663  0.8294  0.0355  2.8109
  666MOL0     H87900   4.137   8.011   4.874 -1.2845 -0.3673 -0.4294
  666MOL0     H87901   4.018   7.816   4.948 -0.7340  0.5980  0.1339
  666MOL0     H87902   4.031   7.588   4.969 -1.4769 -0.9788 -0.3923
  666MOL0     H87903   3.909   7.631   5.089  0.6460  1.4332  2.3639
  666MOL0     H87904   3.974   7.420   5.220  3.6185 -0.1108  0.7858
  666MOL0     H87905   3.921   7.384   5.048 -0.1217  1.6273 -0.7554
  666MOL0     H87906   4.134   7.274   5.128  3.8240  0.2428 -2.9693
  666MOL0     H87907   4.200   7.424   5.162 -1.9582 -3.1381  3.2629
  666MOL0     H87908   4.202   7.490   4.916  3.4095  0.7851  2.8016
  666MOL0     H87909   4.296   7.339   4.951  1.8286  1.4363 -1.6906
  666MOL0     H87910   3.982   7.229   4.693 -0.6496  1.8682  0.7753
  666MOL0     H87911   4.300   7.782   5.277  4.0929 -0.1974 -1.3669
  666MOL0     H87912   4.414   7.986   5.176 -3.4677  0.7788  3.7235
  667MOL0     O87913   2.346   5.471   8.946  1.0647  0.3931  0.6803
  667MOL0     C87914   2.348   5.451   8.822  0.4495 -0.4744 -0.2722
  667MOL0     O87915   2.236   5.418   8.745 -0.0733 -0.0478 -0.1996
  667MOL0     C87916   2.116   5.438   8.806  0.8519  0.6269  0.2817
  667MOL0     C87917   2.081   5.387   8.929  0.0822  0.3747 -0.1450
  667MOL0     C87918   1.951   5.405   8.971  0.4003  0.5265 -0.5548
  667MOL0     C87919   1.850   5.475   8.903 -0.3391 -0.2987  0.1529
  667MOL0     O87920   1.723   5.506   8.945 -0.3431 -0.3204 -0.4565
  667MOL0     C87921   1.654   5.392   9.016 -0.1496  0.2721  0.0765
  667MOL0     C87922   1.512   5.433   9.052 -0.3333 -0.5080 -0.0820
  667MOL0     C87923   1.414   5.460   8.934 -0.0399  0.0168  0.5354
  667MOL0     C87924   1.293   5.548   8.973  1.1222 -0.3884 -0.3452
  667MOL0     C87925   1.212   5.486   9.088  0.5001  0.2687  0.2140
  667MOL0     C87926   1.077   5.569   9.126 -0.2967 -0.8797 -0.2043
  667MOL0     C87927   1.074   5.726   9.100 -1.3260 -0.1148  0.1725
  667MOL0     C87928   0.937   5.791   9.143 -0.3064 -0.2713 -0.0466
  667MOL0     N87929   0.809   5.726   9.081 -0.3949 -0.8527  0.0749
  667MOL0     C87930   0.757   5.614   9.137  0.3919 -0.9314 -0.3583
  667MOL0     C87931   0.627   5.620   9.121  0.0238  0.3050 -0.0036
  667MOL0     C87932   0.529   5.511   9.174  0.5349 -0.4769 -0.1534
  667MOL0     C87933   0.502   5.543   9.322 -0.2932  0.2324  0.2545
  667MOL0     C87934   0.402   5.450   9.378  0.5396  0.6013  0.0053
  667MOL0     C87935   0.255   5.482   9.364  0.2005 -0.3194 -0.3292
  667MOL0     O87936   0.173   5.371   9.423 -0.1008 -0.8886  0.0758
  667MOL0     C87937   0.049   5.358   9.378 -0.1041  0.9176 -0.4022
  667MOL0     C87938  -0.017   5.233   9.413  0.1516 -0.2641 -0.1229
  667MOL0     C87939  -0.147   5.216   9.385  0.5058  0.0786  0.0521
  667MOL0     C87940  -0.227   5.309   9.324 -0.5975 -0.2870  0.8031
  667MOL0     C87941  -0.369   5.287   9.288  0.2824  0.0171  0.3282
  667MOL0     O87942  -0.417   5.342   9.168  0.5163 -0.1108  0.5401
  667MOL0     C87943  -0.543   5.320   9.142 -0.6827  0.0027 -0.2239
  667MOL0     C87944  -0.646   5.400   9.188 -0.7087 -0.1331  0.1862
  667MOL0     C87945  -0.781   5.378   9.153  0.3094  0.4244 -1.3529
  667MOL0     C87946  -0.819   5.263   9.077  0.0316 -0.3075 -0.1648
  667MOL0     O87947  -0.947   5.226   9.056  0.9730 -0.8986 -0.2333
  667MOL0     C87948  -1.055   5.289   9.126  0.3088 -0.0856 -0.0658
  667MOL0     C87949  -1.183   5.203   9.103 -0.2946 -0.7686 -0.9793
  667MOL0     C87950  -1.303   5.279   9.171  0.4536 -0.4591  0.7200
  667MOL0     C87951  -1.429   5.200   9.155 -0.2111 -0.7274 -0.5298
  667MOL0     C87952  -1.541   5.269   9.250  0.2651  0.3000  0.3448
  667MOL0     C87953  -1.683   5.226   9.216 -0.0948 -0.4745 -0.5190
  667MOL0     C87954  -1.768   5.252   9.340  0.1111 -0.0169 -0.3302
  667MOL0     C87955  -1.917   5.239   9.307  0.1132  0.9548  0.0301
  667MOL0    Cl87956  -1.940   5.079   9.235  0.8368 -0.6129  0.1428
  667MOL0     C87957  -0.716   5.176   9.041 -0.3226 -0.4556 -0.3478
  667MOL0     C87958  -0.586   5.211   9.063 -0.6387 -0.2398 -0.5448
  667MOL0     O87959  -0.425   5.204   9.358  0.6484 -0.7830 -0.2122
  667MOL0     C87960  -0.165   5.417   9.272 -0.5189  0.0437  0.4396
  667MOL0     C87961  -0.027   5.446   9.296  0.1400 -0.7339 -0.2352
  667MOL0     N87962   0.601   5.750   9.069 -0.2377  1.2390  1.3412
  667MOL0     N87963   0.714   5.804   9.033 -0.2966  0.0554  0.3093
  667MOL0     C87964   1.889   5.529   8.778 -0.0048 -0.6165 -0.4357
  667MOL0     C87965   2.018   5.501   8.734  0.1715 -0.3901 -0.5631
  667MOL0     C87966   2.473   5.480   8.754 -0.1372 -0.6119  0.3314
  667MOL0     C87967   2.477   5.464   8.614  0.2802  0.2337  0.4205
  667MOL0     C87968   2.595   5.489   8.542 -0.3878  0.6048 -0.7642
  667MOL0     C87969   2.711   5.534   8.608  0.6711  0.0867 -0.0374
  667MOL0     O87970   2.825   5.544   8.529 -0.2485 -0.7086  0.7127
  667MOL0     C87971   2.949   5.511   8.582 -0.3364  0.3978 -0.4472
  667MOL0     C87972   3.020   5.397   8.499  0.1931 -0.1404  0.5317
  667MOL0     C87973   3.156   5.362   8.559  0.3377 -0.1599  0.1027
  667MOL0     C87974   3.266   5.464   8.546 -1.0930  0.7677 -0.8301
  667MOL0     C87975   3.382   5.419   8.626 -0.4026  0.3837  0.1272
  667MOL0     C87976   3.472   5.384   8.696 -0.9279  0.0669  0.1586
  667MOL0     C87977   2.696   5.551   8.753  0.2175  0.8937  0.8898
  667MOL0     C87978   2.587   5.517   8.827  0.3334 -0.5974  0.3218
  667MOL0     H87979   2.151   5.324   8.984  1.1925  1.9726  0.3210
  667MOL0     H87980   1.935   5.373   9.073 -0.4903  1.7790 -0.2725
  667MOL0     H87981   1.706   5.364   9.108 -2.0953 -0.8289  0.8867
  667MOL0     H87982   1.667   5.306   8.949  2.4220 -1.6300  2.7896
  667MOL0     H87983   1.526   5.529   9.102  3.1719 -2.1963  2.6154
  667MOL0     H87984   1.473   5.365   9.129  2.9876  0.6522  2.8796
  667MOL0     H87985   1.392   5.361   8.895  1.2851 -0.5430  1.1574
  667MOL0     H87986   1.463   5.506   8.848 -2.4824  0.2408 -0.8328
  667MOL0     H87987   1.321   5.651   8.994 -0.3211  0.6484 -3.0817
  667MOL0     H87988   1.222   5.552   8.890  1.4926  0.4175 -0.6258
  667MOL0     H87989   1.279   5.475   9.173  1.3785 -2.7640 -0.7775
  667MOL0     H87990   1.188   5.385   9.055 -2.5999  1.0981 -0.4699
  667MOL0     H87991   1.044   5.559   9.230 -1.5353  2.5153 -0.1433
  667MOL0     H87992   0.998   5.522   9.068 -0.6593 -2.8558  1.7370
  667MOL0     H87993   1.155   5.771   9.159 -0.7142 -0.7007 -0.2124
  667MOL0     H87994   1.090   5.759   8.997  0.0941 -1.3027 -0.0198
  667MOL0     H87995   0.952   5.899   9.137  2.3805 -0.5483  0.2343
  667MOL0     H87996   0.915   5.776   9.249  0.0672  1.1492  0.2604
  667MOL0     H87997   0.802   5.535   9.196  0.7523 -1.3513 -1.1805
  667MOL0     H87998   0.575   5.412   9.164 -0.2333 -0.7826 -0.7126
  667MOL0     H87999   0.428   5.516   9.133 -0.8318  0.4037  2.9885
  667MOL0     H88000   0.469   5.646   9.308  1.8824  0.9097 -0.2868
  667MOL0     H88001   0.600   5.549   9.369 -0.1302 -0.1339 -0.0320
  667MOL0     H88002   0.414   5.347   9.343 -2.0062  0.3233 -0.2615
  667MOL0     H88003   0.412   5.437   9.487  0.0046 -0.4859 -0.0585
  667MOL0     H88004   0.234   5.500   9.258  3.3366 -0.5192 -1.0721
  667MOL0     H88005   0.233   5.571   9.423  1.9213  2.1591 -3.1676
  667MOL0     H88006   0.028   5.158   9.478  1.5388  2.5508  2.3905
  667MOL0     H88007  -0.189   5.121   9.417 -0.1356  0.6368  0.9204
  667MOL0     H88008  -0.635   5.482   9.258 -0.1817 -1.6160  1.9080
  667MOL0     H88009  -0.861   5.438   9.196 -0.0563 -1.7588  1.2245
  667MOL0     H88010  -1.065   5.385   9.073  0.7327  0.4524  0.8127
  667MOL0     H88011  -1.030   5.318   9.228  3.2058 -0.8379 -0.4902
  667MOL0     H88012  -1.177   5.102   9.145 -3.6613 -1.7080 -2.4651
  667MOL0     H88013  -1.184   5.181   8.995  0.7062 -0.2429 -1.1111
  667MOL0     H88014  -1.322   5.371   9.116  1.7372 -0.3866  0.3583
  667MOL0     H88015  -1.281   5.302   9.275  2.3941 -0.6273  0.3798
  667MOL0     H88016  -1.459   5.198   9.050 -1.2826  0.7636 -0.2870
  667MOL0     H88017  -1.406   5.102   9.198  0.5044  0.9981  3.5162
  667MOL0     H88018  -1.551   5.377   9.265 -3.3896  0.2851 -0.9542
  667MOL0     H88019  -1.528   5.235   9.353  0.2176  3.8024  1.6437
  667MOL0     H88020  -1.688   5.118   9.199  0.5587 -0.1688 -2.9630
  667MOL0     H88021  -1.735   5.261   9.127  0.4002 -1.3019 -1.1461
  667MOL0     H88022  -1.739   5.185   9.421  1.5489  2.1607  1.0665
  667MOL0     H88023  -1.765   5.352   9.384  0.8865 -1.1788  2.4451
  667MOL0     H88024  -1.947   5.313   9.232 -1.4577  1.5828  1.2326
  667MOL0     H88025  -1.983   5.249   9.393 -1.8312  1.8936 -1.4905
  667MOL0     H88026  -0.755   5.089   8.989  0.9259 -1.6290  0.6294
  667MOL0     H88027  -0.512   5.151   9.010  0.3787 -1.1040  1.7365
  667MOL0     H88028  -0.216   5.497   9.219  2.5797  0.9997 -1.4042
  667MOL0     H88029   0.020   5.542   9.273  1.7944 -2.2398 -3.9830
  667MOL0     H88030   1.821   5.576   8.708 -1.8839 -4.7417 -1.6575
  667MOL0     H88031   2.046   5.541   8.637 -1.3254  1.4054 -0.3053
  667MOL0     H88032   2.393   5.429   8.554  1.0435 -1.5855  0.3295
  667MOL0     H88033   2.604   5.464   8.437  2.9349  0.2925 -0.4960
  667MOL0     H88034   2.941   5.481   8.687  0.2992 -0.7535 -0.7098
  667MOL0     H88035   3.015   5.598   8.580  0.6880 -0.2739  1.3203
  667MOL0     H88036   2.946   5.316   8.493 -2.7545  2.3671  0.6236
  667MOL0     H88037   3.033   5.436   8.398 -0.1476 -2.3694 -0.4434
  667MOL0     H88038   3.185   5.268   8.511  2.1165  1.5532 -2.4261
  667MOL0     H88039   3.144   5.323   8.660  2.0669 -2.2843 -0.4382
  667MOL0     H88040   3.293   5.485   8.442  2.1697 -0.6336 -0.3707
  667MOL0     H88041   3.233   5.557   8.593 -0.7160 -0.8275  2.9008
  667MOL0     H88042   3.553   5.349   8.757  0.2640 -1.1678 -2.0136
  667MOL0     H88043   2.790   5.584   8.798 -0.1592  0.9598  1.6487
  667MOL0     H88044   2.593   5.534   8.934  2.0542 -0.2984  0.1977
  668MOL0     O88045   4.909   2.294   4.105 -0.8745  0.6627 -0.9029
  668MOL0     C88046   4.916   2.281   4.228  0.0820  0.3544 -0.9860
  668MOL0     O88047   4.822   2.329   4.321 -0.2818  0.1135  0.0767
  668MOL0     C88048   4.718   2.419   4.282 -0.5238 -0.5224 -0.4932
  668MOL0     C88049   4.599   2.422   4.349  0.3717  0.9918 -0.2389
  668MOL0     C88050   4.493   2.511   4.337  0.0680  0.5628  0.3231
  668MOL0     C88051   4.517   2.612   4.246  0.1953 -0.6286 -0.5627
  668MOL0     O88052   4.405   2.701   4.236 -0.0382  0.0052  0.6469
  668MOL0     C88053   4.403   2.792   4.126  0.0702  0.4680  0.3291
  668MOL0     C88054   4.280   2.884   4.117  0.2991 -0.1887 -0.5837
  668MOL0     C88055   4.138   2.806   4.128 -0.5457  0.2638  0.2185
  668MOL0     C88056   4.029   2.916   4.150  0.6920  0.2292  0.3086
  668MOL0     C88057   3.905   2.854   4.202  0.5424  0.6915  0.0085
  668MOL0     C88058   3.900   2.867   4.358 -0.0850  0.5058 -0.1837
  668MOL0     C88059   3.791   2.782   4.420  0.0023 -0.1575  0.2717
  668MOL0     C88060   3.812   2.766   4.574 -0.2918 -0.4553 -0.2187
  668MOL0     N88061   3.723   2.676   4.646 -0.5953  0.3487  0.2022
  668MOL0     C88062   3.591   2.643   4.627  0.1108 -0.5691 -0.0113
  668MOL0     C88063   3.554   2.552   4.725 -0.8000 -0.2630 -0.0847
  668MOL0     C88064   3.406   2.501   4.740 -0.3648 -0.5538  0.0324
  668MOL0     C88065   3.340   2.551   4.875 -0.8909 -0.9350  0.0628
  668MOL0     C88066   3.392   2.481   4.994  0.3013  0.0040 -0.8555
  668MOL0     C88067   3.310   2.530   5.118 -0.2911 -0.0840  0.4045
  668MOL0     O88068   3.342   2.454   5.238 -1.2665 -0.4165  1.0748
  668MOL0     C88069   3.281   2.500   5.358  0.2877  0.0523 -0.1991
  668MOL0     C88070   3.195   2.609   5.372  0.0716  0.6581 -0.0239
  668MOL0     C88071   3.155   2.651   5.501  0.3801  0.8196  0.5261
  668MOL0     C88072   3.206   2.585   5.624  0.0295  0.9543  0.5733
  668MOL0     C88073   3.188   2.644   5.756 -0.4002  0.4323 -0.2913
  668MOL0     O88074   3.224   2.561   5.863  0.0668  0.4696  0.1029
  668MOL0     C88075   3.206   2.615   5.988 -0.0396  0.1527 -0.0992
  668MOL0     C88076   3.118   2.554   6.086 -0.6857  0.4309 -1.4201
  668MOL0     C88077   3.113   2.609   6.219  0.6560  0.5907  0.3655
  668MOL0     C88078   3.194   2.716   6.257 -0.2693  1.4294 -0.6080
  668MOL0     O88079   3.188   2.763   6.388 -0.0050  0.3014 -0.0818
  668MOL0     C88080   3.299   2.829   6.463  0.8161 -0.6611 -0.1863
  668MOL0     C88081   3.346   2.753   6.586 -0.0247  0.3684 -0.4693
  668MOL0     C88082   3.406   2.610   6.558 -0.7027  0.1542  0.5675
  668MOL0     C88083   3.466   2.553   6.687 -0.2257 -0.0053 -0.5440
  668MOL0     C88084   3.537   2.418   6.676  0.1874  0.4770 -0.2238
  668MOL0     C88085   3.466   2.301   6.619 -0.1413  1.5033  0.6433
  668MOL0     C88086   3.536   2.171   6.609 -0.8554 -0.0908  0.7945
  668MOL0     C88087   3.662   2.180   6.525  0.3750 -0.3856  1.0633
  668MOL0    Cl88088   3.737   2.037   6.483  0.4452 -0.0034 -0.9182
  668MOL0     C88089   3.281   2.768   6.161  0.3461 -1.1285 -0.2682
  668MOL0     C88090   3.288   2.725   6.033  0.2909 -0.3066 -0.1794
  668MOL0     O88091   3.147   2.761   5.765 -0.7699  0.1235  0.3080
  668MOL0     C88092   3.288   2.473   5.600  0.4155 -0.1114 -0.0755
  668MOL0     C88093   3.325   2.435   5.469  0.3093  0.0219  0.2134
  668MOL0     N88094   3.664   2.518   4.793 -1.0754 -0.0054 -0.2693
  668MOL0     N88095   3.763   2.586   4.750 -0.7072 -0.7253  0.7349
  668MOL0     C88096   4.639   2.619   4.175 -0.9888 -0.3777 -0.0287
  668MOL0     C88097   4.736   2.519   4.197  0.5727 -0.5967  0.1307
  668MOL0     C88098   5.005   2.175   4.280 -0.2856  0.1051  0.1255
  668MOL0     C88099   4.990   2.128   4.409  0.1604 -0.7882 -0.0997
  668MOL0     C88100   5.077   2.031   4.454  0.8330 -0.4352 -0.6471
  668MOL0     C88101   5.185   1.982   4.377 -0.3247  0.9830 -0.2979
  668MOL0     O88102   5.266   1.876   4.422 -0.2734 -0.3810 -0.4392
  668MOL0     C88103   5.239   1.795   4.545 -0.0161  0.9179  0.7801
  668MOL0     C88104   5.127   1.697   4.524  0.1070 -1.0637  0.3403
  668MOL0     C88105   5.102   1.595   4.635 -0.0034  0.8139  0.7172
  668MOL0     C88106   4.982   1.506   4.611 -0.9838  0.8030  0.0162
  668MOL0     C88107   4.980   1.414   4.722 -0.1516  0.3329 -0.5298
  668MOL0     C88108   4.992   1.336   4.815  0.1800 -0.3409  0.4954
  668MOL0     C88109   5.202   2.027   4.244  0.1957  0.3394  0.4644
  668MOL0     C88110   5.111   2.126   4.193 -0.3682 -0.4599  0.5602
  668MOL0     H88111   4.578   2.342   4.419 -0.5640  1.5621  0.1674
  668MOL0     H88112   4.400   2.497   4.392  1.7873 -0.1109  3.2877
  668MOL0     H88113   4.387   2.726   4.040  0.8090 -3.3695  2.8571
  668MOL0     H88114   4.492   2.856   4.126 -0.2169  0.9774 -2.4304
  668MOL0     H88115   4.290   2.943   4.026 -0.7853 -0.7864 -1.1144
  668MOL0     H88116   4.286   2.944   4.209 -1.6191  0.0953 -0.6111
  668MOL0     H88117   4.150   2.755   4.224 -1.7855 -0.1567  0.1670
  668MOL0     H88118   4.114   2.732   4.052 -0.4764 -2.6550  2.8453
  668MOL0     H88119   4.072   2.994   4.212  2.7257 -1.3242  0.9773
  668MOL0     H88120   4.006   2.979   4.063  1.9691  0.7796  0.3504
  668MOL0     H88121   3.889   2.749   4.180 -3.6068  1.4306 -1.2265
  668MOL0     H88122   3.824   2.908   4.153 -0.9372 -0.9619  0.5575
  668MOL0     H88123   3.876   2.970   4.386 -3.1667  0.3456 -1.7759
  668MOL0     H88124   3.996   2.837   4.400 -1.2346 -2.4002  0.6102
  668MOL0     H88125   3.699   2.841   4.411 -1.5124 -2.3118  0.7017
  668MOL0     H88126   3.789   2.682   4.376  0.3319 -0.1089  0.1442
  668MOL0     H88127   3.794   2.867   4.615  0.0412  0.1822 -1.5978
  668MOL0     H88128   3.913   2.734   4.600 -0.7613 -1.7686  0.0579
  668MOL0     H88129   3.528   2.693   4.553 -1.9752  0.0039  2.0096
  668MOL0     H88130   3.403   2.392   4.747  1.0861 -0.5791  0.8829
  668MOL0     H88131   3.338   2.550   4.670 -0.3701  2.6628  2.0778
  668MOL0     H88132   3.233   2.535   4.860 -1.1636  1.1116 -0.4814
  668MOL0     H88133   3.362   2.657   4.886  2.0696 -1.5917  1.1598
  668MOL0     H88134   3.369   2.375   4.976 -2.7787 -0.1400  2.6974
  668MOL0     H88135   3.498   2.507   4.999  0.1884  0.2626  0.5955
  668MOL0     H88136   3.203   2.515   5.100  0.3197 -1.2874 -3.0022
  668MOL0     H88137   3.326   2.637   5.131  2.8729 -0.3526 -0.2834
  668MOL0     H88138   3.158   2.667   5.289 -0.6192  1.5157  0.8542
  668MOL0     H88139   3.087   2.736   5.499  1.2582  1.5234 -0.4550
  668MOL0     H88140   3.048   2.476   6.060 -0.3990 -0.0183 -0.8693
  668MOL0     H88141   3.038   2.570   6.288 -0.4390  1.4762 -0.2736
  668MOL0     H88142   3.274   2.928   6.500  3.2423 -0.3406  0.7080
  668MOL0     H88143   3.382   2.854   6.397  1.2717  3.1022  1.5763
  668MOL0     H88144   3.259   2.740   6.651 -0.9156 -1.4653 -1.9212
  668MOL0     H88145   3.420   2.809   6.643  0.9171 -2.3435  1.1325
  668MOL0     H88146   3.495   2.634   6.499  0.6597 -1.7143  1.7238
  668MOL0     H88147   3.345   2.543   6.497  0.6863  1.9323 -3.0690
  668MOL0     H88148   3.539   2.622   6.731 -2.2946  1.1041  1.3190
  668MOL0     H88149   3.376   2.533   6.745 -2.2121 -0.7211 -3.6364
  668MOL0     H88150   3.556   2.393   6.781 -0.5164  0.4306 -0.1048
  668MOL0     H88151   3.630   2.435   6.621 -0.2251  2.1002 -0.4711
  668MOL0     H88152   3.449   2.335   6.517 -0.1289  0.8303  0.4193
  668MOL0     H88153   3.371   2.294   6.672 -0.0010 -0.0769  0.7247
  668MOL0     H88154   3.572   2.131   6.705 -2.4045  0.4993  1.6680
  668MOL0     H88155   3.473   2.102   6.553  2.0295 -1.7876 -0.5959
  668MOL0     H88156   3.730   2.243   6.582 -1.2707  2.8429 -0.3241
  668MOL0     H88157   3.620   2.233   6.439  2.6730 -2.7549 -1.7426
  668MOL0     H88158   3.335   2.858   6.189 -1.8613 -0.4368  2.1284
  668MOL0     H88159   3.332   2.781   5.951 -1.8130  0.5398 -0.8081
  668MOL0     H88160   3.335   2.409   5.674 -0.5237 -0.2780  0.4049
  668MOL0     H88161   3.393   2.351   5.461  0.6906  0.3116  0.3748
  668MOL0     H88162   4.661   2.694   4.100  0.8943  0.0144  0.8623
  668MOL0     H88163   4.822   2.531   4.132  1.0341  0.8080  0.9632
  668MOL0     H88164   4.908   2.155   4.475  1.1203  0.4408  0.6255
  668MOL0     H88165   5.079   1.998   4.558 -0.6804  3.1111  0.6941
  668MOL0     H88166   5.205   1.860   4.626 -2.9539 -0.3176  0.6791
  668MOL0     H88167   5.326   1.737   4.578 -1.6408 -1.6978  0.8091
  668MOL0     H88168   5.034   1.753   4.512  0.5628 -0.6611 -1.7116
  668MOL0     H88169   5.147   1.655   4.424  0.7487  0.2659 -0.1149
  668MOL0     H88170   5.093   1.640   4.735  1.1117  0.6021  0.9297
  668MOL0     H88171   5.189   1.529   4.635 -1.3990 -1.2783  3.5346
  668MOL0     H88172   4.890   1.564   4.619 -3.2604 -2.3811 -0.7172
  668MOL0     H88173   4.986   1.455   4.514 -0.2270  1.3233 -0.2367
  668MOL0     H88174   5.011   1.273   4.900  0.7869 -2.2163 -0.9839
  668MOL0     H88175   5.285   2.000   4.180 -0.8914 -0.5601 -0.6068
  668MOL0     H88176   5.113   2.146   4.086  0.6633 -2.6954  0.0991
  669MOL0     O88177   0.114  10.125   7.011 -0.0010 -0.5322  0.1545
  669MOL0     C88178   0.062  10.015   6.996  1.4521 -0.7701 -0.2790
  669MOL0     O88179   0.122   9.886   7.004  0.0579 -0.3507 -0.2933
  669MOL0     C88180   0.245   9.873   7.071  0.5545 -0.8046 -0.0336
  669MOL0     C88181   0.328   9.770   7.025  1.0479  0.7562 -0.5966
  669MOL0     C88182   0.436   9.725   7.104 -0.1730  0.5637 -0.0339
  669MOL0     C88183   0.467   9.781   7.229  0.3466 -0.4125 -0.4380
  669MOL0     O88184   0.574   9.746   7.307  0.9200  0.7513  1.1831
  669MOL0     C88185   0.688   9.690   7.243  0.1295  0.4453 -0.6014
  669MOL0     C88186   0.811   9.705   7.327  0.6162  0.0051  0.4181
  669MOL0     C88187   0.943   9.664   7.258  0.4516 -0.1001  0.5944
  669MOL0     C88188   1.061   9.682   7.358 -0.0757  1.0711  0.2540
  669MOL0     C88189   1.073   9.824   7.400 -0.1732 -0.4563 -0.7726
  669MOL0     C88190   1.194   9.851   7.492 -0.2318 -1.1919  0.5801
  669MOL0     C88191   1.187   9.772   7.622  0.3190  0.8477 -0.1944
  669MOL0     C88192   1.296   9.804   7.724  0.5308 -1.1028 -0.3756
  669MOL0     N88193   1.275   9.745   7.857  0.1481 -0.4102  0.6191
  669MOL0     C88194   1.181   9.785   7.950 -0.8565  1.2396 -0.2842
  669MOL0     C88195   1.181   9.698   8.046  0.0871 -0.4187 -0.2144
  669MOL0     C88196   1.090   9.703   8.169 -0.2618  0.6492  0.0963
  669MOL0     C88197   1.091   9.575   8.249  0.3023 -0.1413  0.3852
  669MOL0     C88198   0.947   9.562   8.301  0.1693  0.1476 -0.0669
  669MOL0     C88199   0.926   9.662   8.421 -0.4883 -1.1169 -1.0983
  669MOL0     O88200   0.857   9.775   8.377  0.0240  0.7068  0.2012
  669MOL0     C88201   0.720   9.767   8.367  0.4876  0.0531 -0.2599
  669MOL0     C88202   0.636   9.687   8.443 -0.2490 -0.9168 -0.1916
  669MOL0     C88203   0.494   9.674   8.402 -0.9330  0.4224  0.7766
  669MOL0     C88204   0.435   9.755   8.304 -0.5581  0.3860  0.0630
  669MOL0     C88205   0.300   9.731   8.259  0.8884  0.7028  0.0238
  669MOL0     O88206   0.279   9.794   8.142  0.1289 -0.6977  0.0232
  669MOL0     C88207   0.149   9.795   8.097  0.0187 -0.0400  0.0647
  669MOL0     C88208   0.135   9.779   7.955 -0.6440  0.1677 -0.8595
  669MOL0     C88209   0.018   9.750   7.889 -0.0578  0.2710  0.6599
  669MOL0     C88210  -0.099   9.742   7.972  0.2861  0.7638  0.5191
  669MOL0     O88211  -0.222   9.717   7.914 -0.3029 -0.3828 -0.7231
  669MOL0     C88212  -0.247   9.689   7.779  0.5038 -0.1854 -0.1490
  669MOL0     C88213  -0.387   9.620   7.765 -0.2070  0.2061  0.3457
  669MOL0     C88214  -0.429   9.580   7.622  0.1161 -0.0855  0.6104
  669MOL0     C88215  -0.576   9.547   7.641  1.1575 -0.6553  0.0137
  669MOL0     C88216  -0.638   9.493   7.512 -0.1007 -0.1551  0.3130
  669MOL0     C88217  -0.783   9.458   7.539  0.7358 -0.8556 -0.2452
  669MOL0     C88218  -0.834   9.370   7.415 -0.8598 -0.1806  0.0070
  669MOL0     C88219  -0.976   9.321   7.461 -0.0416 -0.4168  0.0048
  669MOL0    Cl88220  -1.061   9.452   7.542 -0.1465  0.5081  0.0001
  669MOL0     C88221  -0.083   9.763   8.109 -0.1946  0.0576  0.7527
  669MOL0     C88222   0.033   9.795   8.170 -0.7744  1.1108 -0.2092
  669MOL0     O88223   0.222   9.658   8.326 -0.0637  0.5732  0.4241
  669MOL0     C88224   0.528   9.829   8.233  0.9635 -0.2729  0.0266
  669MOL0     C88225   0.665   9.827   8.257  0.0808 -0.0034 -0.4294
  669MOL0     N88226   1.282   9.611   8.027  0.2048  0.0023 -0.3434
  669MOL0     N88227   1.345   9.641   7.914  0.4125 -0.0995 -0.2996
  669MOL0     C88228   0.389   9.893   7.266 -0.3378 -0.1833 -0.1738
  669MOL0     C88229   0.268   9.930   7.195 -0.4110 -0.6142  0.0263
  669MOL0     C88230  -0.090  10.017   6.985  0.1743 -0.8791  0.8183
  669MOL0     C88231  -0.153  10.134   6.953  0.8049 -0.3249  0.7958
  669MOL0     C88232  -0.293  10.135   6.935  0.0721 -0.2460  0.1854
  669MOL0     C88233  -0.368  10.022   6.939 -0.3827  0.5026 -0.5324
  669MOL0     O88234  -0.500  10.026   6.904 -0.2301  0.4017  0.6568
  669MOL0     C88235  -0.593   9.920   6.913 -1.0255 -0.2143 -0.8759
  669MOL0     C88236  -0.649   9.911   6.778 -1.0444 -0.5085  0.2184
  669MOL0     C88237  -0.794   9.868   6.791  0.1433 -0.5540  0.2352
  669MOL0     C88238  -0.844   9.819   6.649  0.5221 -1.1537 -0.4566
  669MOL0     C88239  -0.994   9.806   6.640  0.0933 -0.5947 -0.2101
  669MOL0     C88240  -1.117   9.789   6.652 -0.8182 -0.3998 -0.1739
  669MOL0     C88241  -0.298   9.904   6.977  0.2919  0.1286 -0.0598
  669MOL0     C88242  -0.166   9.899   7.005  0.2795 -0.1421 -0.7936
  669MOL0     H88243   0.302   9.733   6.926  2.6086  1.2973 -1.2431
  669MOL0     H88244   0.509   9.664   7.052 -0.0139  1.7336 -1.2398
  669MOL0     H88245   0.696   9.740   7.146 -0.1150 -0.1848 -0.9518
  669MOL0     H88246   0.671   9.586   7.214 -0.9445  0.8723 -1.5890
  669MOL0     H88247   0.798   9.657   7.425 -2.6282 -1.2387 -0.4964
  669MOL0     H88248   0.809   9.812   7.348 -0.3784 -0.2310  1.6945
  669MOL0     H88249   0.956   9.721   7.165  1.0668  0.4226  0.9942
  669MOL0     H88250   0.926   9.566   7.214  1.3763  1.5607 -4.1495
  669MOL0     H88251   1.048   9.611   7.440  2.1323 -0.0598 -0.2898
  669MOL0     H88252   1.155   9.657   7.308 -0.3585  1.6203 -0.5739
  669MOL0     H88253   0.983   9.844   7.459  0.0873  3.5420 -1.4805
  669MOL0     H88254   1.081   9.891   7.315  2.6822  2.3976  1.4963
  669MOL0     H88255   1.182   9.956   7.518 -1.3439 -1.0043 -0.5832
  669MOL0     H88256   1.290   9.840   7.442  0.2314 -1.7021  1.5601
  669MOL0     H88257   1.092   9.799   7.669  0.0545  0.8175 -0.7077
  669MOL0     H88258   1.189   9.667   7.592  0.6514 -0.2814  3.2792
  669MOL0     H88259   1.305   9.913   7.728 -1.9471 -0.8549  0.2865
  669MOL0     H88260   1.389   9.759   7.689  2.2359  2.1277 -0.4021
  669MOL0     H88261   1.126   9.878   7.941 -2.3691  0.2313 -2.5876
  669MOL0     H88262   0.992   9.713   8.123 -0.7859 -1.8702  0.5281
  669MOL0     H88263   1.113   9.782   8.241 -0.1077 -0.6811  1.5705
  669MOL0     H88264   1.164   9.583   8.331 -0.4998 -1.7929  1.3334
  669MOL0     H88265   1.113   9.488   8.186  1.8732 -0.3444  1.1603
  669MOL0     H88266   0.865   9.577   8.230 -0.8427 -2.4260  0.4504
  669MOL0     H88267   0.939   9.456   8.325  2.1549  0.1816  0.9676
  669MOL0     H88268   1.018   9.701   8.464 -2.4818  1.0311  1.5402
  669MOL0     H88269   0.874   9.608   8.500  1.1780 -0.2980  0.6235
  669MOL0     H88270   0.665   9.636   8.534  3.0121  1.4179  0.2424
  669MOL0     H88271   0.434   9.604   8.459  0.2855 -2.1457 -0.8903
  669MOL0     H88272   0.225   9.775   7.895 -1.1952  2.0548 -1.9090
  669MOL0     H88273   0.022   9.732   7.782  0.6437 -0.7329  0.8424
  669MOL0     H88274  -0.172   9.617   7.746  1.1272 -1.1043  2.9235
  669MOL0     H88275  -0.241   9.779   7.718  1.3492  0.7961  1.3154
  669MOL0     H88276  -0.448   9.702   7.806  0.2979  0.6504  0.2122
  669MOL0     H88277  -0.390   9.532   7.829 -3.1888  0.7845  1.1958
  669MOL0     H88278  -0.367   9.498   7.585  2.3553  1.5170  0.5473
  669MOL0     H88279  -0.418   9.669   7.559  3.6577 -1.0771 -0.4136
  669MOL0     H88280  -0.591   9.471   7.718 -1.9211  1.3406  1.5664
  669MOL0     H88281  -0.628   9.636   7.676 -2.2829 -1.7658 -1.8267
  669MOL0     H88282  -0.587   9.397   7.505 -1.0812 -0.9792  3.1332
  669MOL0     H88283  -0.622   9.575   7.440 -2.9219  1.9986  1.9047
  669MOL0     H88284  -0.823   9.557   7.560  4.0667  1.0243 -1.9488
  669MOL0     H88285  -0.794   9.407   7.636 -0.0300  2.0238  1.2794
  669MOL0     H88286  -0.842   9.428   7.322 -0.9522  0.4017  0.3684
  669MOL0     H88287  -0.778   9.282   7.381  0.6728  0.6836  0.2147
  669MOL0     H88288  -0.959   9.253   7.545  1.2468  0.4666  0.4911
  669MOL0     H88289  -1.037   9.270   7.386  0.0015 -1.7830  0.8628
  669MOL0     H88290  -0.180   9.758   8.157 -0.3706 -3.5102  0.2633
  669MOL0     H88291   0.048   9.827   8.273  1.9992  0.4581 -0.3383
  669MOL0     H88292   0.493   9.872   8.140  2.2548 -1.7694 -1.2133
  669MOL0     H88293   0.735   9.858   8.180  0.1450  0.4248 -0.2003
  669MOL0     H88294   0.425   9.960   7.343 -0.2466 -0.2539 -0.1553
  669MOL0     H88295   0.208  10.007   7.243 -0.0784  0.4270 -1.1799
  669MOL0     H88296  -0.105  10.228   6.930 -2.8430  1.4924 -0.2227
  669MOL0     H88297  -0.332  10.236   6.921 -0.3873 -0.2355  1.3756
  669MOL0     H88298  -0.661   9.933   6.998 -0.4802  0.1050 -0.4858
  669MOL0     H88299  -0.547   9.823   6.933  1.2675  1.1374  0.8394
  669MOL0     H88300  -0.646  10.006   6.724  0.3216  0.2748  1.5962
  669MOL0     H88301  -0.589   9.842   6.717 -2.3316 -1.3986 -0.0808
  669MOL0     H88302  -0.850   9.956   6.824 -0.4095 -0.9691  0.4106
  669MOL0     H88303  -0.799   9.791   6.867 -1.8702 -0.5015  0.2181
  669MOL0     H88304  -0.819   9.897   6.577 -0.9195 -2.9748 -3.1062
  669MOL0     H88305  -0.802   9.721   6.623  2.2648 -0.8114  0.8763
  669MOL0     H88306  -1.220   9.762   6.668 -0.3740 -1.2735  1.4274
  669MOL0     H88307  -0.357   9.814   6.991  2.1236 -1.2322 -0.7865
  669MOL0     H88308  -0.121   9.802   7.023 -0.1365 -0.2445 -0.3024
  670MOL0     O88309   8.769   7.871   5.009 -0.4064 -0.6450 -0.7604
  670MOL0     C88310   8.735   7.827   4.900 -0.2424 -0.2101  0.1245
  670MOL0     O88311   8.619   7.855   4.838 -0.3194 -0.5488 -0.1462
  670MOL0     C88312   8.525   7.934   4.889 -1.2128 -0.8651 -0.0909
  670MOL0     C88313   8.484   7.935   5.028 -0.5106 -0.0618 -0.1054
  670MOL0     C88314   8.378   8.025   5.069 -0.1848  0.9748 -0.3309
  670MOL0     C88315   8.316   8.113   4.974  0.8638  0.3193 -0.6587
  670MOL0     O88316   8.219   8.201   5.011  0.0437 -0.0764  0.0586
  670MOL0     C88317   8.272   8.329   5.019  0.1672 -0.6768 -0.0933
  670MOL0     C88318   8.169   8.435   4.996 -0.0812  0.8204  0.1016
  670MOL0     C88319   8.096   8.429   4.861 -0.8519 -1.0926  0.4555
  670MOL0     C88320   7.988   8.532   4.861 -0.0388  0.3983 -0.1593
  670MOL0     C88321   7.908   8.508   4.735  0.1153  0.4818 -0.0311
  670MOL0     C88322   7.758   8.545   4.778  0.3329  0.5664 -0.1638
  670MOL0     C88323   7.672   8.515   4.649 -0.3511  0.3626  0.6295
  670MOL0     C88324   7.518   8.505   4.654  0.4193 -0.5665 -0.7796
  670MOL0     N88325   7.465   8.470   4.523 -0.7170  0.2012 -0.1737
  670MOL0     C88326   7.456   8.555   4.415  0.8157  0.4873  0.6614
  670MOL0     C88327   7.467   8.480   4.297 -0.3604  0.1190 -0.3805
  670MOL0     C88328   7.496   8.521   4.153 -0.5562 -0.9982 -0.1619
  670MOL0     C88329   7.605   8.443   4.076 -0.0016  0.1560 -0.6711
  670MOL0     C88330   7.740   8.454   4.161 -0.1808 -0.1735  0.2503
  670MOL0     C88331   7.831   8.343   4.115  0.0939  0.2314 -0.0396
  670MOL0     O88332   7.938   8.330   4.214 -0.0205 -0.0508 -0.0810
  670MOL0     C88333   8.021   8.223   4.186 -0.9775  0.1235 -0.2274
  670MOL0     C88334   7.977   8.093   4.153  0.1386 -0.2831  0.1750
  670MOL0     C88335   8.064   7.999   4.107 -0.6904  0.1987 -0.1621
  670MOL0     C88336   8.204   8.028   4.087 -0.0365 -0.2827  0.9903
  670MOL0     C88337   8.293   7.939   4.012  0.7340 -0.0178 -0.1889
  670MOL0     O88338   8.425   7.952   4.029 -0.4717  0.3699  0.6359
  670MOL0     C88339   8.515   7.882   3.957  0.9424 -0.4201 -0.3774
  670MOL0     C88340   8.527   7.746   3.977 -0.3095  0.4889  0.2915
  670MOL0     C88341   8.625   7.681   3.895  0.1579 -0.3172  0.4109
  670MOL0     C88342   8.699   7.746   3.794 -0.4244 -0.3372 -0.5399
  670MOL0     O88343   8.784   7.689   3.699  0.9929  0.5389  0.8692
  670MOL0     C88344   8.792   7.544   3.705 -0.3247 -0.5345 -0.3239
  670MOL0     C88345   8.908   7.498   3.626 -0.2519  1.2349  1.0162
  670MOL0     C88346   9.036   7.565   3.668  0.1316  0.2660  0.5684
  670MOL0     C88347   9.157   7.488   3.604  0.8329 -0.0852  0.1176
  670MOL0     C88348   9.291   7.520   3.664  0.6852  0.1008  0.6286
  670MOL0     C88349   9.402   7.485   3.568 -0.0885 -0.2550  0.1214
  670MOL0     C88350   9.542   7.475   3.629 -0.1295 -1.0637  0.0532
  670MOL0     C88351   9.560   7.362   3.721  0.5927  0.2273  0.0552
  670MOL0    Cl88352   9.566   7.196   3.658 -0.1300  0.1686  0.1832
  670MOL0     C88353   8.676   7.887   3.775  0.1462 -0.4538 -0.4192
  670MOL0     C88354   8.585   7.952   3.862  0.1433 -0.0432  0.7633
  670MOL0     O88355   8.235   7.850   3.947  0.3541  0.1633 -0.0197
  670MOL0     C88356   8.248   8.155   4.136  0.0036  0.4148  0.0835
  670MOL0     C88357   8.157   8.247   4.183 -0.2426 -0.0231 -0.1692
  670MOL0     N88358   7.477   8.348   4.352  0.1319 -0.3209  0.5767
  670MOL0     N88359   7.478   8.348   4.478 -0.2644  0.0084  0.0852
  670MOL0     C88360   8.357   8.106   4.843  0.3593  0.0943  0.1681
  670MOL0     C88361   8.456   8.020   4.802 -0.4990  0.1477  0.0053
  670MOL0     C88362   8.819   7.727   4.838  0.0799 -0.5111  0.6090
  670MOL0     C88363   8.960   7.723   4.855 -0.3192 -0.1414  0.0602
  670MOL0     C88364   9.031   7.623   4.778 -0.9761  0.2253  0.4520
  670MOL0     C88365   8.973   7.538   4.683  0.4418  1.0036  0.8469
  670MOL0     O88366   9.064   7.441   4.625  0.2020 -0.1112  0.5247
  670MOL0     C88367   9.007   7.308   4.600  0.1742  0.9109  0.6225
  670MOL0     C88368   8.959   7.243   4.729  0.1230 -0.4244  0.4068
  670MOL0     C88369   9.072   7.193   4.807  0.5512 -1.1248  0.2488
  670MOL0     C88370   9.029   7.105   4.924 -0.5592 -0.8626  0.3204
  670MOL0     C88371   8.963   6.978   4.889  0.8004 -0.2177  0.6667
  670MOL0     C88372   8.909   6.882   4.838 -0.3368  0.4027  0.5044
  670MOL0     C88373   8.835   7.536   4.680  0.5687  0.3893  0.3430
  670MOL0     C88374   8.753   7.630   4.752 -0.2259 -1.3338 -0.1687
  670MOL0     H88375   8.534   7.879   5.106 -1.4398  0.4790  0.9152
  670MOL0     H88376   8.352   8.018   5.174  0.9610 -0.8199 -0.1098
  670MOL0     H88377   8.357   8.343   4.952  0.0574  1.7230  0.1808
  670MOL0     H88378   8.311   8.347   5.120  1.9744 -0.9830 -0.7086
  670MOL0     H88379   8.214   8.535   5.005 -1.9697  1.5205  3.5184
  670MOL0     H88380   8.100   8.431   5.081  0.4304 -1.6959  0.4798
  670MOL0     H88381   8.061   8.327   4.845  3.5926 -2.6833 -0.4761
  670MOL0     H88382   8.166   8.453   4.781 -0.2539 -1.0158  0.9891
  670MOL0     H88383   7.936   8.518   4.956  1.8934  1.0597  1.0606
  670MOL0     H88384   8.015   8.638   4.860 -1.0463  0.6906 -2.4668
  670MOL0     H88385   7.905   8.400   4.718 -0.4337 -0.3692  4.2726
  670MOL0     H88386   7.929   8.563   4.643 -1.8472  1.9349  0.3171
  670MOL0     H88387   7.748   8.651   4.802 -1.5927  0.3242  0.2417
  670MOL0     H88388   7.723   8.497   4.870 -4.0452  0.6735 -1.5737
  670MOL0     H88389   7.692   8.581   4.564 -0.6649 -2.2308 -1.6146
  670MOL0     H88390   7.702   8.419   4.606 -0.6342 -0.9801  3.2481
  670MOL0     H88391   7.475   8.597   4.695  0.4876 -1.0394  0.3905
  670MOL0     H88392   7.495   8.425   4.725  4.0261  0.1457  1.4856
  670MOL0     H88393   7.465   8.663   4.415  1.4641  0.4367  0.2442
  670MOL0     H88394   7.529   8.625   4.162 -0.3461 -1.1849  1.7199
  670MOL0     H88395   7.405   8.522   4.093 -0.9149  2.8380  0.2057
  670MOL0     H88396   7.622   8.488   3.978 -2.1231  3.4720  0.2951
  670MOL0     H88397   7.585   8.336   4.065  0.3754  0.0622 -0.4822
  670MOL0     H88398   7.792   8.548   4.143  0.1975  0.2326  3.0391
  670MOL0     H88399   7.728   8.431   4.267 -0.1513  1.5507  0.6450
  670MOL0     H88400   7.864   8.361   4.012  0.3122  1.9954  0.3183
  670MOL0     H88401   7.768   8.253   4.113  1.5170 -1.0568  3.6666
  670MOL0     H88402   7.871   8.069   4.156  0.1473 -0.4260 -0.4988
  670MOL0     H88403   8.028   7.907   4.063 -0.5718 -0.5907  1.3492
  670MOL0     H88404   8.468   7.698   4.056 -2.1824  0.3588 -1.1163
  670MOL0     H88405   8.644   7.575   3.902  3.1630  0.1508  1.2065
  670MOL0     H88406   8.701   7.491   3.676 -2.3531  2.4308  0.0798
  670MOL0     H88407   8.811   7.519   3.810  0.1357  1.0750  0.0159
  670MOL0     H88408   8.893   7.524   3.521 -0.0535 -0.1035  0.6302
  670MOL0     H88409   8.921   7.389   3.633 -0.9698  1.0978  0.4227
  670MOL0     H88410   9.049   7.556   3.776  3.4292 -0.4230  0.1955
  670MOL0     H88411   9.038   7.669   3.634  0.9263 -0.0706 -0.4494
  670MOL0     H88412   9.136   7.381   3.615  1.3677 -0.2197 -0.1323
  670MOL0     H88413   9.159   7.507   3.496 -0.8882 -0.1830  0.0485
  670MOL0     H88414   9.296   7.464   3.758 -1.9128  2.2351  2.1847
  670MOL0     H88415   9.311   7.625   3.688  2.2151 -0.4692  2.0576
  670MOL0     H88416   9.406   7.547   3.478  2.0814  2.3092  1.8484
  670MOL0     H88417   9.370   7.386   3.532  0.0594 -2.7676  5.8203
  670MOL0     H88418   9.606   7.460   3.541  0.0568 -0.8173  0.1475
  670MOL0     H88419   9.565   7.571   3.675 -0.3270 -0.3111 -1.3744
  670MOL0     H88420   9.489   7.377   3.803  1.8724  1.0955  1.0400
  670MOL0     H88421   9.662   7.382   3.755  1.0500  0.3151 -1.2750
  670MOL0     H88422   8.735   7.953   3.713  0.1464  1.7502  1.7656
  670MOL0     H88423   8.582   8.061   3.864  0.5156 -0.0265  0.4579
  670MOL0     H88424   8.353   8.173   4.155  0.0424 -0.9879  1.3293
  670MOL0     H88425   8.203   8.339   4.218  0.5976 -0.4820 -0.0334
  670MOL0     H88426   8.310   8.178   4.776 -0.0374  0.0690  0.4184
  670MOL0     H88427   8.485   8.027   4.697  0.4547  1.2381  0.3125
  670MOL0     H88428   9.017   7.793   4.914 -1.7461  3.8711 -2.8520
  670MOL0     H88429   9.137   7.612   4.795 -0.6381 -0.8418 -2.0082
  670MOL0     H88430   9.082   7.248   4.547  0.8379  0.5750  1.9187
  670MOL0     H88431   8.922   7.313   4.531  0.1831  1.3962  0.6421
  670MOL0     H88432   8.899   7.308   4.793 -1.0014 -3.1677  2.3939
  670MOL0     H88433   8.888   7.164   4.702  0.1820  0.4285 -2.5188
  670MOL0     H88434   9.132   7.278   4.841  1.7561 -0.9191 -2.1704
  670MOL0     H88435   9.139   7.132   4.746  1.1633  1.9795 -2.4690
  670MOL0     H88436   9.126   7.070   4.962  1.8510 -0.6706 -4.8135
  670MOL0     H88437   8.973   7.160   5.001 -0.9231  1.5535 -1.5510
  670MOL0     H88438   8.865   6.794   4.795  2.7531 -0.9745 -0.0704
  670MOL0     H88439   8.776   7.466   4.620  1.0294  0.5386 -0.2945
  670MOL0     H88440   8.647   7.635   4.731  0.2016 -0.3716 -2.2914
  671MOL0     O88441   4.904   0.743   5.007  0.2244 -0.3537  0.0711
  671MOL0     C88442   4.973   0.678   4.937  0.2314 -0.1763  0.4457
  671MOL0     O88443   4.951   0.544   4.908 -0.2761  0.3474 -0.2823
  671MOL0     C88444   4.865   0.470   4.979  0.1173 -0.2490 -0.2323
  671MOL0     C88445   4.750   0.511   5.040 -0.3033  0.1731 -0.1114
  671MOL0     C88446   4.654   0.418   5.094  0.1251  0.0727  0.0013
  671MOL0     C88447   4.697   0.278   5.095 -0.2337 -0.6747  0.4656
  671MOL0     O88448   4.597   0.205   5.162 -0.2041  0.4973  0.7221
  671MOL0     C88449   4.605   0.056   5.169  0.6228 -0.0068 -0.2981
  671MOL0     C88450   4.504   0.021   5.280 -0.0906 -0.2701  0.5098
  671MOL0     C88451   4.361   0.025   5.208 -0.6033  0.4639  0.5688
  671MOL0     C88452   4.250  -0.048   5.292  0.1319 -1.0404 -0.0250
  671MOL0     C88453   4.111   0.008   5.258 -0.4931  0.8612  0.2554
  671MOL0     C88454   4.002  -0.085   5.324 -0.7554  1.0606 -0.2486
  671MOL0     C88455   3.988  -0.071   5.478 -0.6155  0.7231 -0.8635
  671MOL0     C88456   3.854  -0.129   5.519  0.9257 -0.3552  0.0465
  671MOL0     N88457   3.840  -0.130   5.663 -0.5768 -0.2885 -0.3365
  671MOL0     C88458   3.724  -0.161   5.740 -0.9930  0.3222 -0.8657
  671MOL0     C88459   3.775  -0.129   5.866 -0.3066 -0.1347 -0.0297
  671MOL0     C88460   3.685  -0.123   5.992  0.2131 -0.4027  0.5435
  671MOL0     C88461   3.604   0.005   5.967  0.2847 -0.8909 -0.2406
  671MOL0     C88462   3.511   0.034   6.087  0.0493 -0.2257 -0.0755
  671MOL0     C88463   3.585   0.114   6.196 -0.3339  0.7227  0.9285
  671MOL0     O88464   3.480   0.182   6.277  0.2520  0.3585  0.4887
  671MOL0     C88465   3.486   0.325   6.269  0.4836 -1.2236  0.6166
  671MOL0     C88466   3.443   0.381   6.387  0.3241 -0.0036 -0.5202
  671MOL0     C88467   3.440   0.514   6.402 -0.5488 -0.7008 -0.0536
  671MOL0     C88468   3.472   0.603   6.299 -0.7647 -0.9530 -0.3217
  671MOL0     C88469   3.467   0.750   6.316  0.4470 -0.3917 -1.5049
  671MOL0     O88470   3.482   0.832   6.213  0.3439 -0.3070 -0.8592
  671MOL0     C88471   3.508   0.960   6.230  0.9271  0.0848 -0.1296
  671MOL0     C88472   3.455   1.051   6.132 -0.6101 -0.1226 -0.3216
  671MOL0     C88473   3.490   1.190   6.130  0.2939  0.2314  0.0245
  671MOL0     C88474   3.588   1.239   6.216  0.2851  0.0099 -0.7814
  671MOL0     O88475   3.616   1.376   6.201  0.5668 -0.0045 -0.5853
  671MOL0     C88476   3.707   1.437   6.285  0.1064 -0.2824 -0.3481
  671MOL0     C88477   3.632   1.472   6.411  0.1051  1.2786 -0.2988
  671MOL0     C88478   3.713   1.540   6.515 -0.6988 -0.3540  0.2702
  671MOL0     C88479   3.666   1.524   6.655 -0.5148 -0.1145  0.2574
  671MOL0     C88480   3.563   1.633   6.681  0.4698  0.4571  0.3604
  671MOL0     C88481   3.511   1.595   6.806  0.4295 -0.1065 -0.6110
  671MOL0     C88482   3.374   1.653   6.834 -0.4026 -1.0761  0.3457
  671MOL0     C88483   3.266   1.579   6.757  0.0691 -0.5533 -0.9273
  671MOL0    Cl88484   3.128   1.695   6.752 -0.3458  0.1377 -0.0567
  671MOL0     C88485   3.643   1.150   6.315 -0.4261 -0.8975  0.0659
  671MOL0     C88486   3.608   1.014   6.319  0.5081  0.5441  0.5666
  671MOL0     O88487   3.454   0.781   6.438  0.4702  0.1357  0.4245
  671MOL0     C88488   3.514   0.545   6.175 -0.1088 -0.1032 -0.4841
  671MOL0     C88489   3.517   0.407   6.156  0.4273 -0.8820  0.2940
  671MOL0     N88490   3.907  -0.104   5.863  0.6588 -0.1996 -0.9164
  671MOL0     N88491   3.941  -0.109   5.742 -0.2837 -0.1280 -0.8211
  671MOL0     C88492   4.820   0.234   5.035  0.1187 -0.8760 -0.4493
  671MOL0     C88493   4.894   0.328   4.977 -0.0648  0.1936 -0.1654
  671MOL0     C88494   5.092   0.748   4.869  0.1713  0.4997  0.1043
  671MOL0     C88495   5.176   0.677   4.777  0.4863 -0.4212 -0.2983
  671MOL0     C88496   5.290   0.735   4.711  0.2899  0.1652  0.1316
  671MOL0     C88497   5.326   0.867   4.736 -0.4185  0.6973 -0.4017
  671MOL0     O88498   5.433   0.923   4.667 -0.0635 -0.3578  0.1868
  671MOL0     C88499   5.496   1.035   4.726 -1.2863  0.0019 -0.7714
  671MOL0     C88500   5.638   1.060   4.660 -0.4198  0.6269  0.9230
  671MOL0     C88501   5.710   1.200   4.706  0.2789  0.6932 -0.0936
  671MOL0     C88502   5.867   1.186   4.686  0.1733  0.4539  0.6839
  671MOL0     C88503   5.946   1.305   4.740 -0.2997  0.1408 -0.0463
  671MOL0     C88504   6.021   1.402   4.768  0.0812  0.5349  0.3820
  671MOL0     C88505   5.255   0.938   4.831 -0.1546 -0.2738 -0.4516
  671MOL0     C88506   5.133   0.887   4.886  0.0675  0.0955  0.5061
  671MOL0     H88507   4.728   0.617   5.046 -0.2012  0.1360  1.1854
  671MOL0     H88508   4.557   0.452   5.130 -2.1930  0.4923 -5.6140
  671MOL0     H88509   4.706   0.025   5.195  0.3472  0.0589  0.9064
  671MOL0     H88510   4.579   0.015   5.071  1.3340  0.9693 -0.9158
  671MOL0     H88511   4.496   0.080   5.371  0.5352 -1.5356  1.4277
  671MOL0     H88512   4.529  -0.078   5.321 -1.3106 -0.3609  1.0626
  671MOL0     H88513   4.365  -0.019   5.108  0.5761 -0.6705  1.0764
  671MOL0     H88514   4.341   0.128   5.178  1.1513  0.6555 -0.0680
  671MOL0     H88515   4.255  -0.153   5.264 -0.5745 -1.1841  0.3688
  671MOL0     H88516   4.255  -0.044   5.401  2.3426  2.0221 -0.1017
  671MOL0     H88517   4.087   0.009   5.152  3.9187 -1.3739 -1.0031
  671MOL0     H88518   4.102   0.109   5.299  0.6871  0.4869  1.5249
  671MOL0     H88519   4.024  -0.190   5.304  1.5847  1.0051  1.9909
  671MOL0     H88520   3.906  -0.064   5.276 -0.4756  2.2493 -0.3290
  671MOL0     H88521   4.078  -0.120   5.514 -0.6185  0.3485 -1.3476
  671MOL0     H88522   3.988   0.034   5.507 -1.0420 -0.1967  2.9077
  671MOL0     H88523   3.845  -0.230   5.477  1.0226 -1.0893  1.7275
  671MOL0     H88524   3.771  -0.078   5.469  0.9277  0.6992  1.0946
  671MOL0     H88525   3.619  -0.181   5.719 -0.6862 -0.1461 -1.9550
  671MOL0     H88526   3.751  -0.105   6.078  0.2186  3.1433 -0.0505
  671MOL0     H88527   3.620  -0.207   6.018  0.0243  0.0983  1.7795
  671MOL0     H88528   3.535  -0.019   5.885  1.2269 -2.0606 -0.7299
  671MOL0     H88529   3.675   0.087   5.950  2.2548 -1.8235  2.7127
  671MOL0     H88530   3.423   0.092   6.056  1.4096  1.0777 -1.7331
  671MOL0     H88531   3.462  -0.054   6.130 -0.1723 -0.2010 -0.2718
  671MOL0     H88532   3.651   0.188   6.149  1.6309 -1.6716 -0.3155
  671MOL0     H88533   3.642   0.043   6.257 -0.1611  1.3305  1.4907
  671MOL0     H88534   3.424   0.311   6.468 -2.3462  0.3030 -0.8132
  671MOL0     H88535   3.415   0.562   6.496 -0.6775 -2.5734  0.9065
  671MOL0     H88536   3.388   1.013   6.055 -0.9768 -2.5177  1.0665
  671MOL0     H88537   3.441   1.254   6.058 -1.3036 -0.1968  0.6589
  671MOL0     H88538   3.746   1.533   6.250 -0.2911 -1.1613 -3.4467
  671MOL0     H88539   3.784   1.361   6.302 -1.1373 -1.3107  0.9431
  671MOL0     H88540   3.605   1.374   6.454  3.0201 -0.2401 -1.6891
  671MOL0     H88541   3.539   1.530   6.407 -1.1861 -0.5808  0.7343
  671MOL0     H88542   3.724   1.645   6.487  2.0367 -0.5399  0.3409
  671MOL0     H88543   3.809   1.487   6.512 -0.4717  0.0799 -0.5768
  671MOL0     H88544   3.632   1.421   6.659  0.3552 -0.4709 -0.8736
  671MOL0     H88545   3.752   1.533   6.723  0.5008 -0.3332 -0.9517
  671MOL0     H88546   3.484   1.629   6.606 -0.9045 -0.0505  1.7997
  671MOL0     H88547   3.599   1.735   6.672  1.9332 -0.0131  0.5599
  671MOL0     H88548   3.588   1.622   6.879  3.1828 -4.7759 -1.3434
  671MOL0     H88549   3.493   1.487   6.815  3.7401 -0.7660 -0.4263
  671MOL0     H88550   3.360   1.648   6.942  2.0383 -1.4525  0.7032
  671MOL0     H88551   3.375   1.758   6.803  0.4256 -1.1006  0.2706
  671MOL0     H88552   3.240   1.489   6.813  1.2272 -0.0869  0.4231
  671MOL0     H88553   3.297   1.549   6.657  2.0189  0.5009 -0.7043
  671MOL0     H88554   3.719   1.176   6.388  1.0662 -2.8887 -0.6735
  671MOL0     H88555   3.664   0.946   6.382 -0.7897 -1.6794 -0.5662
  671MOL0     H88556   3.536   0.603   6.086 -0.0077  1.5063  0.5310
  671MOL0     H88557   3.534   0.373   6.055 -2.3029 -1.9414  0.1231
  671MOL0     H88558   4.835   0.127   5.027 -0.1641 -0.9133 -0.5126
  671MOL0     H88559   4.976   0.283   4.923 -1.6757 -1.8083 -1.1023
  671MOL0     H88560   5.152   0.573   4.757 -0.4966 -0.1433 -0.5785
  671MOL0     H88561   5.351   0.686   4.636 -1.1875 -0.4691 -0.6962
  671MOL0     H88562   5.520   1.018   4.831 -0.8576  2.4315 -0.4282
  671MOL0     H88563   5.436   1.127   4.725  1.0404  1.6013 -1.7114
  671MOL0     H88564   5.687   0.965   4.681 -4.5644 -1.5373  2.0646
  671MOL0     H88565   5.621   1.069   4.553  2.5830  2.3095  0.4908
  671MOL0     H88566   5.688   1.230   4.809  0.6447  1.0828 -0.1244
  671MOL0     H88567   5.664   1.280   4.647 -2.5654 -0.2764  0.6219
  671MOL0     H88568   5.903   1.091   4.725 -1.7563 -0.9064 -0.7097
  671MOL0     H88569   5.890   1.187   4.579  0.7046  0.8132  0.7957
  671MOL0     H88570   6.078   1.491   4.784  1.5235 -0.6517  2.3811
  671MOL0     H88571   5.286   1.040   4.848 -0.1694 -0.4305  0.5693
  671MOL0     H88572   5.061   0.946   4.942 -1.8444  0.8556 -2.4894
  672MOL0     O88573   9.871   3.353   1.772 -0.0628 -0.3142  0.1671
  672MOL0     C88574   9.966   3.365   1.693  0.3182 -0.7037 -0.2107
  672MOL0     O88575   9.958   3.424   1.561  1.4329 -1.0589  0.2355
  672MOL0     C88576   9.837   3.473   1.514  0.1739  0.1040 -0.3676
  672MOL0     C88577   9.744   3.387   1.458 -0.6597  0.3051  0.1804
  672MOL0     C88578   9.616   3.440   1.415 -0.1213 -0.6170  0.4603
  672MOL0     C88579   9.596   3.573   1.442  0.1178 -0.4069  0.0154
  672MOL0     O88580   9.477   3.636   1.412 -0.2178 -0.2173 -0.4203
  672MOL0     C88581   9.353   3.563   1.418 -0.3559  0.8082 -0.5063
  672MOL0     C88582   9.226   3.643   1.396  0.6311 -0.4022 -0.0740
  672MOL0     C88583   9.102   3.564   1.355  0.3888 -0.3089 -0.4547
  672MOL0     C88584   8.985   3.656   1.315  0.1094 -0.4916 -0.2969
  672MOL0     C88585   8.849   3.601   1.363 -0.4459  0.2964  0.5811
  672MOL0     C88586   8.730   3.685   1.327  0.1889  0.8011  0.1613
  672MOL0     C88587   8.610   3.616   1.394 -0.4694  0.2969 -0.4550
  672MOL0     C88588   8.478   3.629   1.324  0.4105  0.1131  0.4652
  672MOL0     N88589   8.369   3.543   1.374  0.1623  0.4885 -0.2275
  672MOL0     C88590   8.345   3.504   1.506  0.5538 -0.0020 -0.3314
  672MOL0     C88591   8.289   3.388   1.507  0.0366 -0.2894  0.0828
  672MOL0     C88592   8.287   3.303   1.633  0.3726  0.4967  0.4613
  672MOL0     C88593   8.217   3.168   1.612 -0.9716 -0.8563 -0.5404
  672MOL0     C88594   8.069   3.199   1.582 -0.6593 -0.3629 -0.2300
  672MOL0     C88595   7.985   3.264   1.696 -0.1031 -0.4006 -0.2755
  672MOL0     O88596   7.849   3.232   1.651  0.1258 -0.3109 -0.0180
  672MOL0     C88597   7.741   3.274   1.729  0.0515  0.1499 -0.5275
  672MOL0     C88598   7.747   3.338   1.859  0.5559  0.3022  0.4100
  672MOL0     C88599   7.628   3.365   1.929 -0.3749  0.3536 -0.4574
  672MOL0     C88600   7.505   3.335   1.874  0.0665  0.2168 -0.3968
  672MOL0     C88601   7.390   3.380   1.948 -0.4309  0.3671 -0.0560
  672MOL0     O88602   7.281   3.303   1.927  0.7468  0.2706 -0.4725
  672MOL0     C88603   7.170   3.350   1.990  0.0061  0.4191 -0.3715
  672MOL0     C88604   7.159   3.361   2.130  0.4320 -0.1119 -0.0190
  672MOL0     C88605   7.034   3.396   2.195 -0.6958  0.2596 -0.3832
  672MOL0     C88606   6.926   3.427   2.117 -0.5660  0.2362 -0.6954
  672MOL0     O88607   6.807   3.482   2.176  0.3116 -0.0034  0.3706
  672MOL0     C88608   6.765   3.459   2.316  0.3827 -1.3387 -0.8172
  672MOL0     C88609   6.619   3.519   2.332  0.0648  0.0581  0.6048
  672MOL0     C88610   6.536   3.478   2.209 -0.3326 -0.6858 -1.4783
  672MOL0     C88611   6.389   3.525   2.229 -0.8324  0.4267  0.3038
  672MOL0     C88612   6.306   3.481   2.105 -0.4796 -0.0706 -0.7284
  672MOL0     C88613   6.209   3.603   2.097  0.2558 -0.4202 -0.5974
  672MOL0     C88614   6.112   3.591   1.986  0.0092 -0.0488 -0.8233
  672MOL0     C88615   6.006   3.484   2.017  0.1403 -0.4381  0.4614
  672MOL0    Cl88616   5.895   3.488   1.875 -0.1765  0.2379 -0.4693
  672MOL0     C88617   6.936   3.432   1.977  1.3553  0.4759  0.0721
  672MOL0     C88618   7.057   3.396   1.918 -0.2586 -0.1056 -1.8834
  672MOL0     O88619   7.401   3.478   2.023  0.6528  0.2778  0.2613
  672MOL0     C88620   7.501   3.261   1.751  0.2239 -0.3940 -0.6996
  672MOL0     C88621   7.618   3.226   1.687  1.2815 -0.3516  0.6025
  672MOL0     N88622   8.281   3.347   1.377  0.5947  0.2389  0.1441
  672MOL0     N88623   8.322   3.439   1.299 -0.6101  0.2513 -0.7382
  672MOL0     C88624   9.696   3.658   1.494  0.5680 -0.6536 -0.7627
  672MOL0     C88625   9.818   3.606   1.538  0.3053 -0.5123 -0.8807
  672MOL0     C88626  10.099   3.345   1.751  0.1376 -0.2875  0.1378
  672MOL0     C88627  10.125   3.319   1.884  0.6524 -0.1535  0.7627
  672MOL0     C88628  10.246   3.287   1.936  0.3760  0.0960 -0.2989
  672MOL0     C88629  10.352   3.285   1.849 -0.4373 -0.2287 -1.1424
  672MOL0     O88630  10.475   3.237   1.872 -0.0046  0.7546  0.1613
  672MOL0     C88631  10.478   3.101   1.899  1.2476  1.2703 -0.6206
  672MOL0     C88632  10.575   3.029   1.808 -0.1605  0.1301  0.0142
  672MOL0     C88633  10.555   3.032   1.659 -0.1165  0.6806 -0.4434
  672MOL0     C88634  10.499   2.906   1.606 -0.1994  0.2757 -0.5727
  672MOL0     C88635  10.579   2.794   1.605 -0.4891 -0.7757  0.5453
  672MOL0     C88636  10.659   2.710   1.575 -0.7243 -0.3590  0.1424
  672MOL0     C88637  10.330   3.320   1.719  0.2073  0.2120  0.5082
  672MOL0     C88638  10.206   3.356   1.668 -0.0412 -0.1158 -0.3972
  672MOL0     H88639   9.766   3.282   1.441 -0.7239  0.1001  1.2700
  672MOL0     H88640   9.540   3.381   1.364  0.0249 -1.0256  0.7114
  672MOL0     H88641   9.337   3.507   1.510 -1.2721  1.2961 -0.3575
  672MOL0     H88642   9.348   3.498   1.330  1.4037  3.1032 -2.4725
  672MOL0     H88643   9.253   3.714   1.318  0.3350 -1.4185 -1.1278
  672MOL0     H88644   9.211   3.712   1.480  0.2706  0.6369 -0.9735
  672MOL0     H88645   9.082   3.499   1.441  0.5368  0.2340 -0.0084
  672MOL0     H88646   9.113   3.487   1.277 -0.5297  2.1172 -3.1695
  672MOL0     H88647   9.002   3.761   1.343  0.1699  0.1193 -2.4402
  672MOL0     H88648   8.989   3.669   1.206  1.0396  4.7307  0.0921
  672MOL0     H88649   8.851   3.593   1.472 -0.2884 -0.7590  0.5034
  672MOL0     H88650   8.833   3.502   1.321  0.5709 -0.7108  2.4427
  672MOL0     H88651   8.725   3.691   1.218 -0.6682  2.3376  0.2594
  672MOL0     H88652   8.751   3.783   1.369  1.9130  1.2386 -1.5916
  672MOL0     H88653   8.635   3.511   1.409  1.3465  1.0701  3.1848
  672MOL0     H88654   8.607   3.660   1.494 -0.7018 -2.3174  0.7534
  672MOL0     H88655   8.495   3.608   1.218  1.9787 -3.1155  1.2316
  672MOL0     H88656   8.453   3.736   1.317 -0.5557 -0.1838 -1.0378
  672MOL0     H88657   8.368   3.558   1.597  0.9072 -2.1338  0.9325
  672MOL0     H88658   8.243   3.360   1.714 -0.7498  0.7854 -0.3279
  672MOL0     H88659   8.386   3.286   1.676 -1.2473  2.3494  5.6436
  672MOL0     H88660   8.230   3.099   1.696  3.4700 -0.7346 -0.9016
  672MOL0     H88661   8.277   3.123   1.533  2.4900  2.5473 -0.1329
  672MOL0     H88662   8.055   3.248   1.485  1.2319  1.3795  0.3045
  672MOL0     H88663   8.029   3.097   1.582  2.5553 -1.7587 -0.2532
  672MOL0     H88664   7.997   3.372   1.703  0.0213 -0.4691  0.8828
  672MOL0     H88665   7.997   3.219   1.795  2.2388 -0.7352 -0.6502
  672MOL0     H88666   7.848   3.351   1.898  0.8831 -1.0394  0.0776
  672MOL0     H88667   7.633   3.414   2.026 -0.8777  1.6575 -1.0637
  672MOL0     H88668   7.247   3.335   2.187  0.9895  2.0680  0.2018
  672MOL0     H88669   7.030   3.401   2.303  1.0693 -0.0211 -0.2701
  672MOL0     H88670   6.819   3.528   2.382 -2.4086  0.2351 -0.0149
  672MOL0     H88671   6.761   3.355   2.348 -0.3820 -1.5658 -1.6004
  672MOL0     H88672   6.614   3.628   2.337 -0.1529 -0.0092  3.1907
  672MOL0     H88673   6.570   3.475   2.420 -2.9345 -0.5971 -1.2233
  672MOL0     H88674   6.541   3.373   2.178 -0.7317 -0.1528 -3.4564
  672MOL0     H88675   6.582   3.525   2.122 -1.8160 -0.1576 -2.0094
  672MOL0     H88676   6.346   3.474   2.315 -1.0379  0.9580  0.5153
  672MOL0     H88677   6.379   3.633   2.236 -2.5640  0.2396  1.0335
  672MOL0     H88678   6.258   3.386   2.131  2.5066 -0.8159  2.7253
  672MOL0     H88679   6.366   3.478   2.013 -0.3664  0.0830 -0.6583
  672MOL0     H88680   6.253   3.700   2.072 -2.0994  1.1520  0.9697
  672MOL0     H88681   6.158   3.623   2.192 -0.0185 -1.2102 -0.5697
  672MOL0     H88682   6.058   3.684   1.963 -0.5902 -0.8371 -2.8073
  672MOL0     H88683   6.166   3.569   1.894  2.0523 -1.2788  0.6099
  672MOL0     H88684   5.947   3.495   2.108  3.0754  0.6341  2.3347
  672MOL0     H88685   6.051   3.384   2.023  0.9911 -0.0326  0.8425
  672MOL0     H88686   6.851   3.459   1.915  0.4637 -0.7195  0.7261
  672MOL0     H88687   7.062   3.416   1.811 -0.1646 -1.4951 -2.1677
  672MOL0     H88688   7.406   3.225   1.713  1.3635 -1.3637 -2.7630
  672MOL0     H88689   7.628   3.163   1.599  1.2770 -0.1191  0.4333
  672MOL0     H88690   9.668   3.761   1.515 -1.1520 -1.5628  1.9207
  672MOL0     H88691   9.903   3.658   1.580 -0.4218  0.8584 -1.0507
  672MOL0     H88692  10.044   3.330   1.956 -0.4265 -0.6762 -0.3353
  672MOL0     H88693  10.255   3.243   2.035 -0.3287 -0.0464 -0.2902
  672MOL0     H88694  10.382   3.057   1.873  2.8205 -1.9506 -1.4755
  672MOL0     H88695  10.503   3.083   2.004  0.0496  0.7126 -0.4199
  672MOL0     H88696  10.664   3.088   1.830 -0.1509 -0.2973  1.2067
  672MOL0     H88697  10.592   2.925   1.839  0.9623  0.5706  0.9509
  672MOL0     H88698  10.654   3.043   1.614  2.2683  0.1507  4.0145
  672MOL0     H88699  10.487   3.110   1.625 -1.4263  0.9393  2.4896
  672MOL0     H88700  10.408   2.874   1.659  0.3262 -0.9877 -0.4097
  672MOL0     H88701  10.476   2.923   1.500  2.3075 -1.8644 -1.5579
  672MOL0     H88702  10.731   2.633   1.556 -0.0199  0.0666  0.9946
  672MOL0     H88703  10.407   3.338   1.644  0.1803  1.5849  0.7819
  672MOL0     H88704  10.193   3.375   1.562  1.2776 -1.1090 -0.7701
  673MOL0     O88705   9.205   9.693   9.469 -0.1837  0.2812  0.6039
  673MOL0     C88706   9.292   9.728   9.557  0.6077 -0.1055  0.7348
  673MOL0     O88707   9.258   9.754   9.684 -0.9147 -0.5383  0.3678
  673MOL0     C88708   9.133   9.736   9.726  0.7209 -0.1557 -0.5627
  673MOL0     C88709   9.086   9.614   9.772 -0.4055 -0.1170 -0.2736
  673MOL0     C88710   8.966   9.611   9.838  0.7925 -0.2906  0.2053
  673MOL0     C88711   8.883   9.725   9.861 -0.0268 -0.3850 -0.2469
  673MOL0     O88712   8.778   9.727   9.947  0.1797 -0.2265 -0.0081
  673MOL0     C88713   8.668   9.641   9.910 -0.2625 -0.5071 -0.1785
  673MOL0     C88714   8.525   9.683   9.972 -0.0759  0.1739 -0.0877
  673MOL0     C88715   8.472   9.829   9.938  0.1770  0.0201  0.1374
  673MOL0     C88716   8.355   9.857  10.021  0.5569 -0.1954 -0.7909
  673MOL0     C88717   8.325  10.001  10.049  0.0685 -0.1823  0.3950
  673MOL0     C88718   8.272  10.063   9.912  0.0810 -0.1844  0.2396
  673MOL0     C88719   8.137  10.021   9.880  1.1318 -0.4831 -0.4258
  673MOL0     C88720   8.098  10.080   9.749  0.4531  0.6411  0.0016
  673MOL0     N88721   7.977  10.015   9.693  0.4834  0.4720  0.3193
  673MOL0     C88722   7.851  10.032   9.743  0.5058  0.0018 -0.4881
  673MOL0     C88723   7.764   9.997   9.651 -1.0026  1.1935 -0.8355
  673MOL0     C88724   7.615  10.005   9.659 -0.4078  0.2913 -0.2265
  673MOL0     C88725   7.553  10.145   9.703 -0.5956  0.2229 -0.1069
  673MOL0     C88726   7.518  10.148   9.847  0.3262 -0.3062 -0.6638
  673MOL0     C88727   7.402  10.242   9.890  0.0742  0.0598  0.4109
  673MOL0     O88728   7.380  10.214  10.024 -0.0494  0.6312 -0.1945
  673MOL0     C88729   7.277  10.281  10.097 -0.3397 -0.5592 -0.2719
  673MOL0     C88730   7.215  10.387  10.050 -0.0969  0.0761  0.0037
  673MOL0     C88731   7.095  10.437  10.105  0.4362  0.2188  0.1194
  673MOL0     C88732   7.046  10.383  10.225 -0.3827 -0.3340 -0.7607
  673MOL0     C88733   6.936  10.447  10.301  0.0801  0.0152 -0.0004
  673MOL0     O88734   6.891  10.568  10.247 -0.3757  0.7079 -0.3132
  673MOL0     C88735   6.781  10.628  10.281  0.0794  0.0021  0.1099
  673MOL0     C88736   6.783  10.765  10.317  0.9028 -0.4729  0.3284
  673MOL0     C88737   6.653  10.827  10.338  0.1609 -0.9953  0.5667
  673MOL0     C88738   6.531  10.757  10.323  0.5541 -0.2584 -0.0978
  673MOL0     O88739   6.416  10.801  10.377  0.2918 -0.5685 -0.9427
  673MOL0     C88740   6.302  10.803  10.293 -0.7012 -0.0534  0.0108
  673MOL0     C88741   6.196  10.904  10.344  0.7107  1.2967  0.1444
  673MOL0     C88742   6.064  10.897  10.254 -0.0895  0.0497  0.3738
  673MOL0     C88743   5.951  10.971  10.315 -0.2727 -0.0370 -0.5746
  673MOL0     C88744   5.825  10.958  10.235  0.7241  1.1053 -0.5982
  673MOL0     C88745   5.712  11.024  10.311 -0.4117  0.3321  0.0765
  673MOL0     C88746   5.582  10.996  10.236 -0.7116 -0.1069 -0.2894
  673MOL0     C88747   5.454  11.055  10.298 -0.4962  0.0731  0.3925
  673MOL0    Cl88748   5.317  11.014  10.206 -0.1965 -0.4320  0.3443
  673MOL0     C88749   6.533  10.623  10.302 -0.0274 -1.0349 -0.7983
  673MOL0     C88750   6.655  10.560  10.273  0.6823 -0.3502  0.6923
  673MOL0     O88751   6.894  10.399  10.406 -0.4702  0.7029 -0.5918
  673MOL0     C88752   7.114  10.274  10.275 -0.3473  0.4512 -0.9100
  673MOL0     C88753   7.235  10.227  10.222 -0.2237 -0.2051  0.7141
  673MOL0     N88754   7.839   9.946   9.543 -0.0091  0.2066  0.5497
  673MOL0     N88755   7.956   9.976   9.564 -0.1906  0.2241  0.2330
  673MOL0     C88756   8.934   9.851   9.837 -0.2111 -0.2091  0.3219
  673MOL0     C88757   9.054   9.852   9.752  0.5805  0.3356  0.0190
  673MOL0     C88758   9.443   9.738   9.517  0.2743  0.0845 -0.3530
  673MOL0     C88759   9.501   9.722   9.385  0.3591  0.5220  0.6301
  673MOL0     C88760   9.634   9.749   9.360 -0.1292 -0.4209 -0.7283
  673MOL0     C88761   9.714   9.787   9.464  0.1131 -0.1946  0.7536
  673MOL0     O88762   9.850   9.803   9.466  0.1472  0.0933 -0.8598
  673MOL0     C88763   9.914   9.758   9.344 -0.4379  0.9592  0.0579
  673MOL0     C88764  10.067   9.738   9.369  0.2299 -0.5658 -0.0225
  673MOL0     C88765  10.129   9.857   9.431 -0.9595  0.0922  0.5117
  673MOL0     C88766  10.140   9.960   9.311 -0.5451  0.6296 -0.5114
  673MOL0     C88767  10.210  10.082   9.355  0.7330 -0.3493 -0.1114
  673MOL0     C88768  10.267  10.181   9.392  0.1064 -0.0530  1.0135
  673MOL0     C88769   9.667   9.804   9.590  0.4060 -0.1253 -0.5869
  673MOL0     C88770   9.530   9.772   9.620  0.8025 -0.4519  0.7140
  673MOL0     H88771   9.135   9.518   9.751 -0.2732  0.2382 -1.7237
  673MOL0     H88772   8.920   9.518   9.870 -2.1867  1.9680  3.2564
  673MOL0     H88773   8.703   9.543   9.943 -2.3411 -0.6177  1.9364
  673MOL0     H88774   8.651   9.633   9.802 -1.9332 -2.2236  0.1645
  673MOL0     H88775   8.522   9.677  10.081  3.3562  1.9790  0.2404
  673MOL0     H88776   8.462   9.603   9.931 -0.6238  1.2183 -1.3568
  673MOL0     H88777   8.465   9.844   9.830 -1.1394  1.4577  0.3890
  673MOL0     H88778   8.558   9.887   9.974  0.5930 -2.1173  2.9880
  673MOL0     H88779   8.271   9.803   9.975  0.5309  0.8801 -2.0686
  673MOL0     H88780   8.370   9.805  10.116  0.9392 -2.4310 -1.9828
  673MOL0     H88781   8.420  10.049  10.071  1.0955 -1.7715 -0.3438
  673MOL0     H88782   8.254  10.028  10.128  0.7345  1.1941  0.5432
  673MOL0     H88783   8.344  10.036   9.834 -2.7200  1.2155 -3.0602
  673MOL0     H88784   8.275  10.171   9.926  3.0422  0.1395 -1.9958
  673MOL0     H88785   8.136   9.913   9.863  0.2741 -0.2653 -1.9352
  673MOL0     H88786   8.059  10.046   9.954  1.1278 -1.6883 -0.0099
  673MOL0     H88787   8.184  10.063   9.684  1.2708  4.0503  0.0292
  673MOL0     H88788   8.079  10.187   9.744  0.4941  0.5815 -2.5391
  673MOL0     H88789   7.825  10.071   9.841 -0.7123 -1.7557 -0.0637
  673MOL0     H88790   7.574   9.930   9.727 -0.1477  0.0663 -0.3154
  673MOL0     H88791   7.582   9.977   9.558  1.7014  0.0514 -0.9008
  673MOL0     H88792   7.462  10.166   9.645 -0.5153 -0.2093 -0.3980
  673MOL0     H88793   7.630  10.222   9.697 -1.1990  0.7548 -1.7178
  673MOL0     H88794   7.496  10.048   9.885  0.9468 -0.7845 -1.5339
  673MOL0     H88795   7.604  10.172   9.910 -0.8931 -1.8038  1.6871
  673MOL0     H88796   7.309  10.237   9.833 -1.3682  1.6317  2.5061
  673MOL0     H88797   7.443  10.341   9.866  1.2782 -1.1644 -3.3674
  673MOL0     H88798   7.263  10.431   9.963  1.2666  0.3560  0.8596
  673MOL0     H88799   7.054  10.528  10.062  0.3682  0.8747  1.5076
  673MOL0     H88800   6.866  10.832  10.339  1.0454 -0.4271 -0.3471
  673MOL0     H88801   6.652  10.927  10.380 -0.2338 -0.2112 -1.2227
  673MOL0     H88802   6.251  10.707  10.288  2.0494 -1.7158  1.5881
  673MOL0     H88803   6.333  10.826  10.191  1.0375 -1.5448  0.1581
  673MOL0     H88804   6.250  10.999  10.352  2.1096  0.5286  0.2058
  673MOL0     H88805   6.172  10.869  10.445  1.6393  0.9726  0.2669
  673MOL0     H88806   6.031  10.793  10.251  1.3314 -0.3995 -0.8369
  673MOL0     H88807   6.088  10.935  10.154  2.7474 -0.5436  0.7432
  673MOL0     H88808   5.935  10.938  10.418  3.1079 -1.3457 -0.3663
  673MOL0     H88809   5.985  11.075  10.315 -1.3367  0.3379  0.3750
  673MOL0     H88810   5.804  10.851  10.229 -1.8884  1.5854 -1.3570
  673MOL0     H88811   5.827  10.998  10.133 -0.2738  1.8303 -0.3506
  673MOL0     H88812   5.724  11.133  10.314 -3.6159  0.7625  1.2245
  673MOL0     H88813   5.713  10.986  10.413  3.1972 -3.1467 -1.0010
  673MOL0     H88814   5.581  11.030  10.132 -0.4735 -0.2327 -0.3338
  673MOL0     H88815   5.561  10.888  10.237 -0.3735 -0.1782  0.9415
  673MOL0     H88816   5.465  11.162  10.320  1.8642 -0.0540  0.0646
  673MOL0     H88817   5.438  11.004  10.393 -2.4600 -0.7162 -0.3004
  673MOL0     H88818   6.437  10.573  10.305  0.5006 -2.0769 -0.4736
  673MOL0     H88819   6.652  10.454  10.250 -0.0167 -0.4055  1.0068
  673MOL0     H88820   7.089  10.235  10.373  3.2549 -1.5519 -0.6280
  673MOL0     H88821   7.288  10.139  10.256 -0.8920 -0.0667  2.2171
  673MOL0     H88822   8.877   9.938   9.869 -0.3716 -0.5774  1.0699
  673MOL0     H88823   9.092   9.947   9.716  0.0002 -0.1294 -1.9343
  673MOL0     H88824   9.457   9.673   9.299  1.1248 -0.3938  0.7433
  673MOL0     H88825   9.685   9.745   9.264  1.7024 -0.6965  0.2211
  673MOL0     H88826   9.891   9.828   9.262 -0.9230 -1.7169 -2.2622
  673MOL0     H88827   9.879   9.657   9.321 -0.2700  0.2555  2.6190
  673MOL0     H88828  10.081   9.666   9.450 -2.8153  1.6900  2.7767
  673MOL0     H88829  10.126   9.704   9.284  2.1496 -2.3809  1.9265
  673MOL0     H88830  10.220   9.824   9.482  1.4693  3.0565 -1.4930
  673MOL0     H88831  10.070   9.907   9.508 -1.3573  2.8422 -1.4239
  673MOL0     H88832  10.202   9.919   9.230 -1.5933  1.2319 -1.6597
  673MOL0     H88833  10.039   9.977   9.273  0.2511 -0.6732 -3.5463
  673MOL0     H88834  10.305  10.281   9.405 -1.4685  0.3816  2.7922
  673MOL0     H88835   9.723   9.825   9.681  1.6491 -0.0442 -1.3532
  673MOL0     H88836   9.506   9.785   9.725 -3.0573 -1.5715  0.1352
  674MOL0     O88837  11.193   8.708   9.007 -0.3371 -0.3311  0.3975
  674MOL0     C88838  11.254   8.659   8.905  0.5296 -0.1223 -0.8276
  674MOL0     O88839  11.183   8.617   8.793  0.3029  0.4726  0.0309
  674MOL0     C88840  11.048   8.625   8.803 -0.3756  0.0851  0.7257
  674MOL0     C88841  10.966   8.518   8.753 -0.3707 -0.1538 -0.1897
  674MOL0     C88842  10.823   8.533   8.751  0.4385 -0.0830  0.6446
  674MOL0     C88843  10.766   8.656   8.797  0.1788  0.3416  1.3299
  674MOL0     O88844  10.625   8.664   8.788 -0.0475 -0.0721  0.4205
  674MOL0     C88845  10.570   8.786   8.852  0.5493  0.3554 -0.3899
  674MOL0     C88846  10.422   8.779   8.839 -0.3300  1.1610  0.5537
  674MOL0     C88847  10.360   8.893   8.898  0.2421 -0.0899 -0.3681
  674MOL0     C88848  10.209   8.861   8.914 -0.1725 -0.2019  1.1192
  674MOL0     C88849  10.195   8.759   9.027  0.1492  0.4816  0.9591
  674MOL0     C88850  10.047   8.739   9.045  0.4695 -0.0978 -0.1937
  674MOL0     C88851  10.020   8.646   9.170 -0.6467  0.4551 -0.2542
  674MOL0     C88852  10.041   8.719   9.306 -0.2928  0.2729  0.1142
  674MOL0     N88853   9.925   8.799   9.353 -0.4254  0.8056  0.5834
  674MOL0     C88854   9.826   8.735   9.432 -0.7760 -1.1962  0.2827
  674MOL0     C88855   9.760   8.842   9.481  0.4449 -0.1954 -0.5348
  674MOL0     C88856   9.651   8.853   9.583 -0.7526  0.9775  0.5801
  674MOL0     C88857   9.516   8.809   9.507 -0.3370 -1.0938 -0.6749
  674MOL0     C88858   9.446   8.933   9.452  0.3797  0.2103 -0.4946
  674MOL0     C88859   9.321   8.914   9.366 -0.6944  0.8165  0.0643
  674MOL0     O88860   9.242   8.831   9.446  0.8915 -0.7745  0.7762
  674MOL0     C88861   9.120   8.799   9.403  0.5963  0.5838 -0.8116
  674MOL0     C88862   9.056   8.812   9.278  0.7283  0.5752 -0.0113
  674MOL0     C88863   8.926   8.752   9.256 -0.3317 -0.4674 -0.4299
  674MOL0     C88864   8.861   8.692   9.359  0.0323 -0.3871 -0.2549
  674MOL0     C88865   8.738   8.630   9.335  1.1376  0.4152 -0.3112
  674MOL0     O88866   8.662   8.593   9.445 -0.9521 -0.8731 -0.0729
  674MOL0     C88867   8.527   8.587   9.440 -0.4492 -0.1585  0.1087
  674MOL0     C88868   8.464   8.497   9.529 -0.9162 -0.7612  0.0221
  674MOL0     C88869   8.328   8.495   9.530  0.3677 -0.7160 -1.1198
  674MOL0     C88870   8.249   8.580   9.456  0.3569 -0.4021  0.4725
  674MOL0     O88871   8.115   8.561   9.477 -0.0679  0.0004  0.2885
  674MOL0     C88872   8.022   8.591   9.370 -0.1961 -0.6719 -0.7251
  674MOL0     C88873   7.894   8.498   9.395 -0.9377 -0.5680 -0.2143
  674MOL0     C88874   7.905   8.352   9.343  0.0145 -0.9255  0.7581
  674MOL0     C88875   8.031   8.289   9.409 -0.2800 -0.6621  0.0740
  674MOL0     C88876   8.032   8.150   9.378  0.2497  0.3808  0.3154
  674MOL0     C88877   8.125   8.080   9.477 -0.6577 -0.3590  0.8102
  674MOL0     C88878   8.198   7.952   9.415  0.2277 -0.2591 -0.0106
  674MOL0     C88879   8.103   7.829   9.436  0.7130 -0.4221  0.9756
  674MOL0    Cl88880   8.092   7.792   9.605  0.3111 -0.1242 -0.1698
  674MOL0     C88881   8.310   8.667   9.371  0.2486  0.4438 -0.4117
  674MOL0     C88882   8.449   8.667   9.352 -0.4386  0.4534  0.1733
  674MOL0     O88883   8.713   8.599   9.218  0.2260 -0.2126  0.8434
  674MOL0     C88884   8.910   8.711   9.489 -0.4064  0.3912  0.5726
  674MOL0     C88885   9.035   8.761   9.509 -0.4987  0.8576  0.4589
  674MOL0     N88886   9.820   8.961   9.433  0.1762  0.3847 -0.4196
  674MOL0     N88887   9.921   8.937   9.363 -0.0882 -0.2541  0.1574
  674MOL0     C88888  10.850   8.764   8.840 -0.9240  0.4114 -0.0472
  674MOL0     C88889  10.983   8.746   8.836  0.2378  0.0317  0.0329
  674MOL0     C88890  11.397   8.634   8.915  0.6918  0.2870  0.1907
  674MOL0     C88891  11.480   8.619   8.805 -0.1831  0.1801 -0.4178
  674MOL0     C88892  11.614   8.590   8.807 -0.6128 -0.9269  0.7467
  674MOL0     C88893  11.679   8.573   8.934  0.3663  0.2617  0.8727
  674MOL0     O88894  11.811   8.553   8.921 -0.6841  0.0741 -0.7770
  674MOL0     C88895  11.891   8.511   9.038 -1.3700 -0.4636 -1.4296
  674MOL0     C88896  11.974   8.635   9.086 -0.1982 -0.0942  0.7605
  674MOL0     C88897  12.088   8.596   9.173  0.3408 -0.4432  0.4300
  674MOL0     C88898  12.192   8.710   9.176  0.2525 -0.5530 -0.4573
  674MOL0     C88899  12.319   8.655   9.213 -0.2898  0.5827 -0.2470
  674MOL0     C88900  12.415   8.612   9.259  0.1417 -0.5214  0.2336
  674MOL0     C88901  11.611   8.618   9.045 -0.2143 -0.0745  0.4148
  674MOL0     C88902  11.470   8.633   9.036  0.2470  0.8768 -0.8581
  674MOL0     H88903  11.020   8.438   8.702  0.3411 -0.5854  1.1798
  674MOL0     H88904  10.761   8.456   8.707  0.7701  0.7650 -1.4492
  674MOL0     H88905  10.595   8.879   8.801 -3.6101  0.3434 -2.8820
  674MOL0     H88906  10.608   8.800   8.954  1.6093 -2.7756 -0.2230
  674MOL0     H88907  10.405   8.677   8.877 -1.5715  0.2714 -2.1439
  674MOL0     H88908  10.397   8.778   8.733 -0.1332 -2.1478  0.4314
  674MOL0     H88909  10.372   8.988   8.845 -0.1277  0.4361  0.4806
  674MOL0     H88910  10.406   8.902   8.997  1.3830  1.9532 -1.0355
  674MOL0     H88911  10.149   8.951   8.934 -0.5994 -0.1821 -0.1606
  674MOL0     H88912  10.172   8.811   8.825  3.2794 -2.1370  0.6053
  674MOL0     H88913  10.247   8.796   9.116  1.3173 -2.1836  1.4927
  674MOL0     H88914  10.237   8.663   8.996 -0.2872  0.8234 -0.8308
  674MOL0     H88915   9.997   8.691   8.960 -1.1810  2.9820 -1.1107
  674MOL0     H88916  10.000   8.836   9.062 -1.4920 -0.8701 -0.9595
  674MOL0     H88917   9.924   8.593   9.175 -0.1761 -0.4660 -0.7989
  674MOL0     H88918  10.087   8.560   9.177  0.8210  1.6202  0.7267
  674MOL0     H88919  10.131   8.781   9.311  0.1352 -0.2267 -1.1651
  674MOL0     H88920  10.048   8.632   9.372 -4.2006  0.0395  0.4905
  674MOL0     H88921   9.810   8.629   9.446  0.9889 -1.4383  0.7729
  674MOL0     H88922   9.647   8.956   9.619 -1.1482  1.8077 -1.6416
  674MOL0     H88923   9.675   8.781   9.661  0.6161 -1.5803 -2.0105
  674MOL0     H88924   9.452   8.778   9.590 -0.2197 -1.3986 -0.6923
  674MOL0     H88925   9.519   8.734   9.427 -1.2074 -2.3323  0.3998
  674MOL0     H88926   9.425   9.002   9.534 -2.2633 -1.7709  0.6654
  674MOL0     H88927   9.521   8.984   9.391  0.4888  2.0831  1.1056
  674MOL0     H88928   9.345   8.852   9.279 -1.5136 -1.3781  1.3367
  674MOL0     H88929   9.271   9.005   9.331 -0.4500  0.8537 -0.1859
  674MOL0     H88930   9.107   8.845   9.189 -2.0519  1.6324 -1.3295
  674MOL0     H88931   8.889   8.751   9.154  1.6267  0.4182 -1.1944
  674MOL0     H88932   8.521   8.421   9.582 -0.1279  0.5523  1.1375
  674MOL0     H88933   8.273   8.426   9.593  1.9083 -0.2950  0.7882
  674MOL0     H88934   8.054   8.572   9.268  2.3037 -0.9160  0.0268
  674MOL0     H88935   7.998   8.698   9.375 -1.6703 -1.0026 -0.4076
  674MOL0     H88936   7.812   8.548   9.343  0.1520  0.3879 -1.0611
  674MOL0     H88937   7.868   8.505   9.501 -1.4156 -3.2936 -0.0712
  674MOL0     H88938   7.913   8.353   9.234 -2.7675  1.1444  0.4735
  674MOL0     H88939   7.825   8.290   9.385 -0.3544  0.6702  2.5210
  674MOL0     H88940   8.122   8.338   9.375 -0.7298  0.2289  0.1283
  674MOL0     H88941   8.014   8.306   9.516 -1.3529 -1.5052  0.0638
  674MOL0     H88942   8.070   8.136   9.276 -1.4257 -0.4025 -0.2498
  674MOL0     H88943   7.931   8.112   9.397  1.5144 -2.9035  1.1774
  674MOL0     H88944   8.068   8.053   9.567  1.5265 -0.6827  2.1645
  674MOL0     H88945   8.206   8.147   9.507  0.6583 -2.9841  3.6747
  674MOL0     H88946   8.221   7.965   9.309  0.6325 -1.1924 -0.0471
  674MOL0     H88947   8.292   7.950   9.471  0.6279  0.5959 -0.6261
  674MOL0     H88948   8.149   7.738   9.396 -1.2327  0.2991 -3.4513
  674MOL0     H88949   8.003   7.833   9.394  0.9158  0.1702  0.5334
  674MOL0     H88950   8.240   8.735   9.325 -1.2274 -0.7001  0.0790
  674MOL0     H88951   8.489   8.736   9.278 -1.1610  0.3276 -0.3579
  674MOL0     H88952   8.869   8.682   9.586  1.1355 -0.9538  0.8795
  674MOL0     H88953   9.075   8.767   9.610  1.6808 -1.7840 -0.1143
  674MOL0     H88954  10.813   8.859   8.876  0.2193  1.1952 -0.8658
  674MOL0     H88955  11.054   8.826   8.853  2.0363 -1.6338  0.6613
  674MOL0     H88956  11.429   8.627   8.709  1.8323  2.6431 -1.4291
  674MOL0     H88957  11.671   8.556   8.721  2.9585 -0.9960  2.9420
  674MOL0     H88958  11.963   8.438   9.000  1.8575  2.5177 -1.5174
  674MOL0     H88959  11.842   8.481   9.131  1.7381 -1.9834 -0.1193
  674MOL0     H88960  12.008   8.672   8.989 -0.3862 -0.2735  0.6269
  674MOL0     H88961  11.908   8.706   9.138 -1.2423 -1.0285  0.7394
  674MOL0     H88962  12.129   8.496   9.154  1.8840  0.0442  1.0226
  674MOL0     H88963  12.041   8.585   9.272 -1.1504 -1.0098 -0.3203
  674MOL0     H88964  12.207   8.750   9.076 -1.8072 -3.1179 -1.9026
  674MOL0     H88965  12.162   8.792   9.243 -0.1857 -1.8179  0.9568
  674MOL0     H88966  12.494   8.560   9.310 -0.0825 -0.2903  0.8232
  674MOL0     H88967  11.668   8.636   9.136  0.5767  0.0104 -0.0828
  674MOL0     H88968  11.424   8.651   9.133  3.8801  2.9085  0.6583
  675MOL0     O88969   8.430   0.367   8.295  0.3689  0.2324  0.5451
  675MOL0     C88970   8.535   0.370   8.229  0.7204 -0.5929  0.3563
  675MOL0     O88971   8.545   0.392   8.092 -0.8337  0.8908 -0.2524
  675MOL0     C88972   8.424   0.395   8.033  0.6170 -0.1688  0.3955
  675MOL0     C88973   8.377   0.280   7.971 -1.1097 -0.4360 -0.1574
  675MOL0     C88974   8.251   0.276   7.902 -0.0296  0.3508  0.3692
  675MOL0     C88975   8.159   0.386   7.909 -0.3033  0.0828 -0.1490
  675MOL0     O88976   8.039   0.383   7.836 -0.6861  0.3557 -0.6333
  675MOL0     C88977   7.917   0.421   7.909 -0.5342  0.1824  0.5371
  675MOL0     C88978   7.815   0.479   7.819 -0.3617 -0.2161 -0.0301
  675MOL0     C88979   7.678   0.485   7.889 -0.1870 -0.0346  0.2635
  675MOL0     C88980   7.574   0.498   7.781 -0.0996  0.0787  0.5984
  675MOL0     C88981   7.596   0.620   7.678  0.4271 -0.0487  0.0095
  675MOL0     C88982   7.481   0.639   7.579 -0.1936  0.9199  0.1856
  675MOL0     C88983   7.526   0.722   7.458  0.5532  0.6041  0.0598
  675MOL0     C88984   7.405   0.774   7.372  0.1517 -0.0608 -0.6088
  675MOL0     N88985   7.301   0.672   7.330 -0.6065  0.8300 -0.4552
  675MOL0     C88986   7.168   0.678   7.342 -0.0718  0.4749  0.4234
  675MOL0     C88987   7.129   0.554   7.298  0.2361 -0.7803 -0.3255
  675MOL0     C88988   6.994   0.477   7.312 -1.2338 -0.3899 -0.0659
  675MOL0     C88989   6.930   0.441   7.177 -0.0851 -0.5929  0.5119
  675MOL0     C88990   6.872   0.553   7.104 -0.0668 -0.5683  0.6162
  675MOL0     C88991   6.712   0.539   7.119 -0.0668 -0.8331  0.7239
  675MOL0     O88992   6.665   0.659   7.042 -0.6126 -0.4391 -0.1008
  675MOL0     C88993   6.545   0.717   7.071  0.0205  0.0950  0.1650
  675MOL0     C88994   6.447   0.660   7.154 -0.2747  0.7839  0.4279
  675MOL0     C88995   6.322   0.721   7.181 -0.9709  0.5773  0.2767
  675MOL0     C88996   6.304   0.846   7.121  0.4726  0.7207  0.5498
  675MOL0     C88997   6.179   0.933   7.137  0.5257  0.1188  0.3959
  675MOL0     O88998   6.175   1.067   7.085  0.2659  0.4418 -0.7923
  675MOL0     C88999   6.049   1.130   7.089  1.0969 -0.6914  0.8969
  675MOL0     C89000   5.927   1.061   7.078 -0.4855 -0.0726 -0.0842
  675MOL0     C89001   5.808   1.140   7.070  0.8758 -0.4175 -0.2790
  675MOL0     C89002   5.814   1.275   7.092  0.7553  0.3652 -1.0252
  675MOL0     O89003   5.694   1.346   7.103  0.2420  0.0459  0.5376
  675MOL0     C89004   5.574   1.280   7.155  0.3475  0.0401 -0.1187
  675MOL0     C89005   5.449   1.367   7.142 -0.7193  0.3999 -0.7815
  675MOL0     C89006   5.324   1.279   7.150 -0.6174  0.5854  0.2045
  675MOL0     C89007   5.200   1.368   7.111  0.6978  0.8033  0.8315
  675MOL0     C89008   5.081   1.293   7.173 -0.2029 -0.8332 -0.4787
  675MOL0     C89009   4.959   1.378   7.140  0.9663  0.3704 -0.4682
  675MOL0     C89010   4.824   1.313   7.169  1.1984  0.5460  0.6924
  675MOL0     C89011   4.728   1.349   7.059 -0.6976 -0.3662  0.1042
  675MOL0    Cl89012   4.719   1.518   7.045 -0.0161 -0.2210  0.2489
  675MOL0     C89013   5.928   1.345   7.113  0.3588 -0.4412  0.4211
  675MOL0     C89014   6.043   1.276   7.105 -1.0908 -0.7254  0.1835
  675MOL0     O89015   6.084   0.877   7.187 -0.6262 -0.0475  0.2422
  675MOL0     C89016   6.399   0.897   7.033  0.1236  0.2497  1.1958
  675MOL0     C89017   6.518   0.830   7.009  0.2949 -0.2131 -0.1901
  675MOL0     N89018   7.238   0.486   7.248 -0.3792  0.0385  0.7217
  675MOL0     N89019   7.340   0.561   7.272  0.4730 -0.0101  0.9517
  675MOL0     C89020   8.208   0.499   7.984  0.1892  0.3740 -0.3855
  675MOL0     C89021   8.327   0.499   8.045 -0.2642 -0.6086  0.5693
  675MOL0     C89022   8.655   0.343   8.303 -0.6808  0.7085 -0.4357
  675MOL0     C89023   8.778   0.381   8.241 -0.7186 -0.5517  0.4333
  675MOL0     C89024   8.897   0.366   8.304  0.2073 -0.3370 -0.5453
  675MOL0     C89025   8.900   0.310   8.434 -0.1268  0.1652  0.5212
  675MOL0     O89026   9.021   0.299   8.503  1.0152 -0.2815 -0.4922
  675MOL0     C89027   9.052   0.166   8.550 -0.3594  0.9159  0.7277
  675MOL0     C89028   9.187   0.125   8.611  1.6751 -0.2436 -0.0333
  675MOL0     C89029   9.203   0.186   8.748 -0.0790  0.2604 -0.1052
  675MOL0     C89030   9.342   0.155   8.823 -1.0523 -0.4348 -0.1390
  675MOL0     C89031   9.332   0.202   8.963 -0.2095  0.4998 -0.7249
  675MOL0     C89032   9.320   0.260   9.067  0.1406 -0.0521 -1.5581
  675MOL0     C89033   8.785   0.271   8.498  0.8940 -0.4787 -0.6527
  675MOL0     C89034   8.660   0.287   8.429  0.6905  0.9304 -0.2645
  675MOL0     H89035   8.442   0.193   7.965  0.7669  0.6487  2.4612
  675MOL0     H89036   8.212   0.192   7.844 -1.7233  1.9895 -0.9779
  675MOL0     H89037   7.939   0.506   7.974 -1.8685 -0.2366  1.5889
  675MOL0     H89038   7.876   0.335   7.963 -0.8076  0.5985  1.0055
  675MOL0     H89039   7.805   0.411   7.734 -1.7471 -0.7360  0.5211
  675MOL0     H89040   7.844   0.581   7.793 -2.0083 -0.6327 -4.2615
  675MOL0     H89041   7.676   0.559   7.970 -3.6080 -0.4489  0.7218
  675MOL0     H89042   7.650   0.391   7.937 -0.3803  0.2191  0.6545
  675MOL0     H89043   7.563   0.405   7.723 -2.0110  1.0909 -0.7930
  675MOL0     H89044   7.472   0.514   7.817 -0.5333 -2.0265  0.4603
  675MOL0     H89045   7.685   0.596   7.620  1.1015 -0.2356  1.0950
  675MOL0     H89046   7.615   0.710   7.736 -1.7799 -0.7823  2.0397
  675MOL0     H89047   7.386   0.681   7.614 -1.5602 -0.9547 -1.0727
  675MOL0     H89048   7.457   0.539   7.543 -1.8955  1.0479  0.8658
  675MOL0     H89049   7.592   0.804   7.487 -1.1007  1.4825  1.6078
  675MOL0     H89050   7.578   0.656   7.389 -2.1267 -0.7882 -0.7585
  675MOL0     H89051   7.448   0.815   7.280 -1.1868  2.2739 -0.2683
  675MOL0     H89052   7.367   0.854   7.436  2.0592 -1.1422  2.1039
  675MOL0     H89053   7.116   0.754   7.399 -0.5867  0.7314 -0.3725
  675MOL0     H89054   6.937   0.551   7.369 -0.3470 -1.1008  1.8082
  675MOL0     H89055   7.004   0.393   7.380 -2.1977 -0.0371  0.5274
  675MOL0     H89056   6.852   0.364   7.186  1.3336 -2.0528  0.9121
  675MOL0     H89057   7.009   0.391   7.120  0.2897 -2.4401  2.5225
  675MOL0     H89058   6.899   0.647   7.154  0.1865  0.2607 -0.9983
  675MOL0     H89059   6.921   0.555   7.006 -0.2678 -0.3036  0.5157
  675MOL0     H89060   6.685   0.546   7.225  2.1659 -1.9034  1.4234
  675MOL0     H89061   6.674   0.452   7.066 -0.1681 -0.0792 -0.4837
  675MOL0     H89062   6.467   0.562   7.196  1.5157  0.8024 -0.2754
  675MOL0     H89063   6.249   0.674   7.247  2.0091 -0.5296  2.9962
  675MOL0     H89064   5.933   0.958   7.046 -3.6068 -0.0666 -1.0571
  675MOL0     H89065   5.711   1.092   7.069 -0.7111  2.1328  3.8910
  675MOL0     H89066   5.600   1.246   7.255  1.1798  2.1564  0.4406
  675MOL0     H89067   5.554   1.192   7.093  2.8182  0.7608 -2.0925
  675MOL0     H89068   5.460   1.419   7.046 -0.7211  0.3971 -0.7836
  675MOL0     H89069   5.446   1.439   7.225 -1.8528  0.6898 -1.0590
  675MOL0     H89070   5.325   1.248   7.255 -0.5932 -1.7739 -0.4275
  675MOL0     H89071   5.340   1.189   7.089  2.6839  1.3402 -0.2629
  675MOL0     H89072   5.189   1.473   7.140 -1.1025  0.0341  3.2254
  675MOL0     H89073   5.195   1.356   7.002  1.2086  0.2298  0.8667
  675MOL0     H89074   5.098   1.289   7.281  2.1218  2.6294 -0.5600
  675MOL0     H89075   5.067   1.191   7.137 -0.3843 -1.2947  0.8568
  675MOL0     H89076   4.965   1.399   7.033 -1.7897  2.2651 -0.3921
  675MOL0     H89077   4.952   1.478   7.186  0.2345  0.1817 -0.1485
  675MOL0     H89078   4.851   1.208   7.175 -1.4240 -0.2697 -0.1790
  675MOL0     H89079   4.788   1.353   7.265  0.9469 -1.0069  1.2624
  675MOL0     H89080   4.632   1.310   7.092  0.5765 -0.8117  3.7380
  675MOL0     H89081   4.760   1.289   6.973  2.3786  0.2741  0.6917
  675MOL0     H89082   5.928   1.452   7.131  0.7690 -0.4616  0.5513
  675MOL0     H89083   6.135   1.332   7.091 -0.4508 -2.4088 -3.8956
  675MOL0     H89084   6.375   0.992   6.985  0.3187 -0.1567  0.2877
  675MOL0     H89085   6.590   0.865   6.936 -1.2905  0.7829 -1.3296
  675MOL0     H89086   8.137   0.582   7.990 -2.2015 -1.6497  1.3425
  675MOL0     H89087   8.357   0.582   8.108 -2.7921 -0.1633  1.2769
  675MOL0     H89088   8.786   0.426   8.142 -2.8678 -0.5874  0.1980
  675MOL0     H89089   8.992   0.409   8.274  1.3035 -0.1323  2.8076
  675MOL0     H89090   9.047   0.102   8.462  1.3424 -0.5552  1.6347
  675MOL0     H89091   8.975   0.129   8.617 -0.6851  2.0223  0.9913
  675MOL0     H89092   9.180   0.016   8.619  0.3506 -0.4311 -2.5686
  675MOL0     H89093   9.271   0.156   8.547  0.8019  0.5617 -0.8234
  675MOL0     H89094   9.133   0.133   8.814  0.9432  0.3309  1.0848
  675MOL0     H89095   9.196   0.295   8.759 -1.7267 -0.0124  2.5531
  675MOL0     H89096   9.376   0.051   8.823  4.8221  1.1191  1.9223
  675MOL0     H89097   9.416   0.202   8.758  0.0186 -0.2488  1.1618
  675MOL0     H89098   9.328   0.309   9.163  2.2514 -1.2428 -1.0691
  675MOL0     H89099   8.787   0.212   8.589  3.8206  1.7625  0.8977
  675MOL0     H89100   8.571   0.254   8.481  1.0568  0.7323  0.2460
  676MOL0     O89101   7.581   3.859   9.976  0.0174 -0.0100 -0.4746
  676MOL0     C89102   7.589   3.859   9.857 -0.3018  0.0425 -0.8395
  676MOL0     O89103   7.597   3.743   9.778  0.4731 -0.0131  0.5634
  676MOL0     C89104   7.559   3.644   9.853 -0.5850  0.6994 -0.2276
  676MOL0     C89105   7.428   3.605   9.878 -0.1450  0.1399  0.1522
  676MOL0     C89106   7.389   3.493   9.946 -0.0716  0.0594 -0.5023
  676MOL0     C89107   7.493   3.410  10.002  0.1448 -0.0999 -0.0623
  676MOL0     O89108   7.464   3.288  10.049 -0.1841 -0.1707  0.5098
  676MOL0     C89109   7.356   3.277  10.147  0.4069 -0.1039 -0.2758
  676MOL0     C89110   7.402   3.274  10.291 -0.1445 -0.0671 -0.0830
  676MOL0     C89111   7.528   3.197  10.303 -0.4171 -0.5117 -0.3167
  676MOL0     C89112   7.558   3.187  10.452  0.8532  0.0559 -1.1376
  676MOL0     C89113   7.702   3.134  10.478  0.1840 -0.6907 -0.0769
  676MOL0     C89114   7.747   3.153  10.621  0.6305 -0.2617  0.2332
  676MOL0     C89115   7.899   3.131  10.647 -0.2877 -0.7306 -0.6932
  676MOL0     C89116   7.935   3.142  10.803 -0.3392 -0.7166  0.0143
  676MOL0     N89117   8.078   3.148  10.829  0.3192  0.2972  0.0234
  676MOL0     C89118   8.134   3.057  10.924 -0.2449 -0.0803 -1.0394
  676MOL0     C89119   8.261   3.114  10.940  0.7103  0.0326  0.3680
  676MOL0     C89120   8.380   3.078  11.020  0.6328 -0.1600 -0.3723
  676MOL0     C89121   8.405   3.172  11.139 -1.1524 -0.5968 -0.4427
  676MOL0     C89122   8.461   3.307  11.100 -0.5193  0.2799 -0.4063
  676MOL0     C89123   8.582   3.348  11.181  0.0886 -0.6408  0.2042
  676MOL0     O89124   8.549   3.339  11.327  0.4195  0.6825  0.8265
  676MOL0     C89125   8.654   3.383  11.413  0.1868 -0.1992  0.7612
  676MOL0     C89126   8.638   3.371  11.553  0.0591 -0.6678  0.1624
  676MOL0     C89127   8.734   3.404  11.651  0.5873  0.4438 -0.2794
  676MOL0     C89128   8.865   3.454  11.604  0.6656 -0.1392 -0.2911
  676MOL0     C89129   8.974   3.500  11.699  0.1050 -0.0097 -0.4191
  676MOL0     O89130   9.060   3.588  11.644 -0.6019  0.3240  0.1349
  676MOL0     C89131   9.173   3.632  11.709  0.2295  0.3186 -0.5296
  676MOL0     C89132   9.237   3.547  11.805  1.0523 -0.6144  0.6852
  676MOL0     C89133   9.344   3.590  11.877  0.0564 -0.8069  0.1877
  676MOL0     C89134   9.397   3.717  11.862 -0.0347 -0.8338 -0.5031
  676MOL0     O89135   9.518   3.760  11.906  0.3111  1.0666 -0.4324
  676MOL0     C89136   9.608   3.655  11.937 -0.1690  0.6016 -0.4670
  676MOL0     C89137   9.745   3.708  11.942  0.4390  1.0359  0.3736
  676MOL0     C89138   9.762   3.791  12.068 -0.9779  0.2154 -0.1284
  676MOL0     C89139   9.904   3.862  12.051 -0.6477 -0.1718 -0.5346
  676MOL0     C89140  10.024   3.765  12.040  0.3511  0.0368  0.4020
  676MOL0     C89141  10.163   3.832  12.048  0.3173  0.6151  0.7117
  676MOL0     C89142  10.193   3.866  12.194 -1.1623 -0.0241  0.1826
  676MOL0     C89143  10.342   3.917  12.194 -0.1659  0.2026 -0.8652
  676MOL0    Cl89144  10.396   3.912  12.371 -0.0601 -0.0607 -0.2147
  676MOL0     C89145   9.324   3.806  11.774  0.0338  0.7261 -0.0653
  676MOL0     C89146   9.207   3.766  11.706 -0.0808 -0.1638  0.8329
  676MOL0     O89147   8.977   3.456  11.813 -0.0755 -0.1388 -0.1931
  676MOL0     C89148   8.884   3.468  11.459  0.0631  0.2075  0.0640
  676MOL0     C89149   8.789   3.428  11.370  0.2669  0.5697 -0.1461
  676MOL0     N89150   8.271   3.221  10.847 -0.2775  0.1949 -1.0510
  676MOL0     N89151   8.163   3.244  10.785 -0.1983 -0.9128  0.8147
  676MOL0     C89152   7.619   3.432   9.975  0.2370 -0.7913 -0.1027
  676MOL0     C89153   7.651   3.551   9.903  0.0888  1.2096  0.5310
  676MOL0     C89154   7.610   3.991   9.796 -0.0184  0.9474 -0.9060
  676MOL0     C89155   7.660   4.103   9.877  0.6425 -0.7776  0.5015
  676MOL0     C89156   7.643   4.243   9.835  1.1100  0.2147 -0.7399
  676MOL0     C89157   7.572   4.265   9.716 -1.0950 -0.1128 -1.0996
  676MOL0     O89158   7.547   4.390   9.672  0.5989  0.0376  0.2850
  676MOL0     C89159   7.629   4.496   9.710 -0.6618  0.1268  0.0140
  676MOL0     C89160   7.601   4.616   9.613 -0.1194 -0.1717  0.0663
  676MOL0     C89161   7.472   4.691   9.632  0.2494  0.2652 -0.1685
  676MOL0     C89162   7.452   4.802   9.532 -0.6147  0.4274 -0.2506
  676MOL0     C89163   7.320   4.862   9.551 -0.8567  1.1887 -0.6354
  676MOL0     C89164   7.232   4.935   9.566  0.9547  0.2915  0.2434
  676MOL0     C89165   7.520   4.165   9.642  0.4548 -0.0820  0.1707
  676MOL0     C89166   7.547   4.029   9.674  0.6372 -0.6615  0.2752
  676MOL0     H89167   7.353   3.674   9.840  0.8297  1.7923  1.1736
  676MOL0     H89168   7.285   3.466   9.962  0.4495 -0.9548  1.6350
  676MOL0     H89169   7.297   3.187  10.127 -3.3514  1.6226  1.9775
  676MOL0     H89170   7.274   3.348  10.135 -0.6470 -1.3139 -0.4410
  676MOL0     H89171   7.319   3.233  10.350 -1.1953  0.5190 -1.1287
  676MOL0     H89172   7.414   3.377  10.328 -0.6909 -0.7325  2.1317
  676MOL0     H89173   7.606   3.252  10.250  0.0861 -0.1785  0.7222
  676MOL0     H89174   7.511   3.100  10.257  2.4023 -1.9035  1.2949
  676MOL0     H89175   7.543   3.283  10.502 -0.5319 -0.7150  0.0122
  676MOL0     H89176   7.485   3.123  10.503  1.4324  1.7422  2.0223
  676MOL0     H89177   7.771   3.180  10.406  2.2783 -2.1795  0.8679
  676MOL0     H89178   7.695   3.028  10.454 -2.3088 -0.8807  1.1330
  676MOL0     H89179   7.699   3.073  10.679  0.5727  0.5480  1.3499
  676MOL0     H89180   7.715   3.251  10.658 -0.5398  0.5554 -2.6523
  676MOL0     H89181   7.930   3.035  10.605  2.0364 -0.3471  0.0329
  676MOL0     H89182   7.959   3.209  10.600  1.8393 -0.4481  2.2486
  676MOL0     H89183   7.896   3.051  10.849  1.2388 -0.2994  2.3196
  676MOL0     H89184   7.897   3.235  10.846  2.3576  0.4256  0.1491
  676MOL0     H89185   8.098   2.966  10.970  1.5084 -0.3753 -0.1487
  676MOL0     H89186   8.470   3.069  10.959  0.4270 -0.2392 -0.6665
  676MOL0     H89187   8.366   2.978  11.064  0.3498 -0.4036 -1.0003
  676MOL0     H89188   8.478   3.121  11.202 -1.6349  2.4632  2.9282
  676MOL0     H89189   8.308   3.168  11.191 -0.4777 -1.0241  0.8248
  676MOL0     H89190   8.496   3.304  10.996 -0.5286  0.7659 -0.4256
  676MOL0     H89191   8.392   3.391  11.089  1.7303  1.8920 -4.2262
  676MOL0     H89192   8.616   3.447  11.149  1.4587 -1.1603 -0.0002
  676MOL0     H89193   8.667   3.284  11.159 -0.3032 -0.0063 -3.7405
  676MOL0     H89194   8.539   3.344  11.588  0.0349  1.3713  1.8620
  676MOL0     H89195   8.708   3.377  11.753  2.7189 -0.2293  0.1407
  676MOL0     H89196   9.208   3.443  11.813  0.7102 -0.7955 -1.9390
  676MOL0     H89197   9.393   3.523  11.948  1.2471 -1.9616 -1.6343
  676MOL0     H89198   9.603   3.576  11.862  2.7894 -0.7301  0.5869
  676MOL0     H89199   9.574   3.607  12.029  1.0868  2.1728  0.8931
  676MOL0     H89200   9.781   3.760  11.853  1.1746  2.8975  1.6931
  676MOL0     H89201   9.809   3.622  11.966 -1.0016  0.1531  1.1989
  676MOL0     H89202   9.744   3.736  12.161  0.5434  0.2468  0.2045
  676MOL0     H89203   9.682   3.866  12.070 -2.8595 -1.6381  3.2816
  676MOL0     H89204   9.907   3.918  11.958  0.1933 -0.4052 -0.6530
  676MOL0     H89205   9.919   3.925  12.139 -2.7192 -0.9707  0.4774
  676MOL0     H89206  10.021   3.711  11.945  0.5282  2.0746 -0.8333
  676MOL0     H89207  10.027   3.682  12.111 -2.6362  0.2852  0.9313
  676MOL0     H89208  10.158   3.921  11.985 -1.0936  1.0750  1.4333
  676MOL0     H89209  10.244   3.766  12.016  0.6102  1.3520 -0.1049
  676MOL0     H89210  10.126   3.942  12.236 -1.7449 -1.7860  2.7030
  676MOL0     H89211  10.193   3.769  12.245 -3.3423 -0.7513 -1.0950
  676MOL0     H89212  10.343   4.015  12.145  1.2964  1.0214  0.6949
  676MOL0     H89213  10.402   3.849  12.132 -1.7161  0.2925 -2.5556
  676MOL0     H89214   9.369   3.904  11.769 -2.6149  2.2035  2.2460
  676MOL0     H89215   9.160   3.833  11.635  2.0442 -0.2712 -0.7786
  676MOL0     H89216   8.980   3.499  11.419 -0.6998  0.8203 -1.3512
  676MOL0     H89217   8.815   3.431  11.264  3.2657  1.1717  0.5067
  676MOL0     H89218   7.695   3.364  10.011  0.0682 -0.7212  0.4047
  676MOL0     H89219   7.759   3.564   9.895  0.1220  2.6524  2.7209
  676MOL0     H89220   7.703   4.092   9.976  1.2827  1.3271  0.5042
  676MOL0     H89221   7.666   4.327   9.899 -4.0652 -0.2755  2.3897
  676MOL0     H89222   7.730   4.456   9.698 -1.2667 -1.9613  1.5538
  676MOL0     H89223   7.613   4.517   9.816 -1.1514 -1.5609  0.2894
  676MOL0     H89224   7.680   4.691   9.617 -2.9368  2.9447  1.0718
  676MOL0     H89225   7.607   4.576   9.511  0.1279  1.6704 -0.6742
  676MOL0     H89226   7.479   4.729   9.734  0.4705  2.5999 -1.0065
  676MOL0     H89227   7.390   4.618   9.629 -1.1807  1.8417 -1.5880
  676MOL0     H89228   7.530   4.878   9.539 -0.3999  0.0576  2.0297
  676MOL0     H89229   7.454   4.760   9.431  0.6404  1.0953 -0.5283
  676MOL0     H89230   7.163   5.016   9.553 -0.1506 -0.6889 -0.1941
  676MOL0     H89231   7.465   4.180   9.550 -0.1222 -1.0716  0.3455
  676MOL0     H89232   7.502   3.961   9.602 -1.3047  2.5034 -1.7237
  677MOL0     O89233   1.262   6.435   1.949 -0.2124  0.3332  0.8358
  677MOL0     C89234   1.366   6.435   1.884 -0.0199  0.5786 -0.5834
  677MOL0     O89235   1.378   6.431   1.750 -0.3203 -0.2993  0.3116
  677MOL0     C89236   1.258   6.421   1.675 -0.3055  0.3526  0.2591
  677MOL0     C89237   1.144   6.334   1.706 -0.6134 -1.0346  0.0642
  677MOL0     C89238   1.036   6.313   1.624  0.4384 -0.1305 -0.1165
  677MOL0     C89239   1.035   6.374   1.498  0.4636 -0.2391  0.2557
  677MOL0     O89240   0.917   6.382   1.421  0.3402  0.2250 -0.0165
  677MOL0     C89241   0.796   6.328   1.483  0.1770  0.2751  0.2177
  677MOL0     C89242   0.693   6.347   1.369 -0.2696 -0.5390  0.4775
  677MOL0     C89243   0.562   6.288   1.406  0.3061 -0.0514  0.6492
  677MOL0     C89244   0.465   6.346   1.294 -0.9408  0.1850 -0.4168
  677MOL0     C89245   0.320   6.285   1.316 -0.4822 -0.3514 -0.2187
  677MOL0     C89246   0.312   6.150   1.256  0.0133  0.1861  0.3090
  677MOL0     C89247   0.165   6.117   1.216  0.5239  0.7784 -0.3894
  677MOL0     C89248   0.079   6.104   1.345  0.1306 -0.2894 -0.7104
  677MOL0     N89249  -0.060   6.102   1.298 -0.0629  0.6693  0.8800
  677MOL0     C89250  -0.122   6.221   1.266 -0.4022  0.8653 -0.3604
  677MOL0     C89251  -0.240   6.173   1.194  0.2885  0.7033 -0.4077
  677MOL0     C89252  -0.343   6.256   1.114 -0.2934  0.2910 -0.2326
  677MOL0     C89253  -0.422   6.330   1.226 -0.1674 -0.7217  1.0442
  677MOL0     C89254  -0.563   6.369   1.169 -0.2488  0.3639  0.1569
  677MOL0     C89255  -0.654   6.422   1.280  0.1745  0.2296 -0.5523
  677MOL0     O89256  -0.617   6.553   1.334 -0.4557 -0.9056  0.0560
  677MOL0     C89257  -0.685   6.629   1.418  0.6235 -0.9062  0.4315
  677MOL0     C89258  -0.629   6.749   1.464  0.7420  1.0700 -1.2617
  677MOL0     C89259  -0.683   6.822   1.574  0.4466  0.5034  0.0559
  677MOL0     C89260  -0.803   6.774   1.634  0.4814 -0.0258  0.0177
  677MOL0     C89261  -0.881   6.856   1.729 -0.1814  0.0323 -0.3549
  677MOL0     O89262  -0.844   6.992   1.749 -0.2808  0.5380  0.4499
  677MOL0     C89263  -0.920   7.079   1.814  0.1278  0.2421 -0.3976
  677MOL0     C89264  -0.968   7.187   1.749 -0.3314 -0.8749  0.9861
  677MOL0     C89265  -1.052   7.276   1.815  0.2811 -0.1152  0.7076
  677MOL0     C89266  -1.063   7.261   1.955  0.2063  0.8027 -0.8189
  677MOL0     O89267  -1.127   7.359   2.036 -0.4198  0.2081 -0.1388
  677MOL0     C89268  -1.216   7.459   1.980 -0.5343  0.4235 -0.1379
  677MOL0     C89269  -1.132   7.574   1.927 -0.5409  0.3322 -0.9252
  677MOL0     C89270  -1.127   7.711   1.993 -0.0210  0.1944 -0.1538
  677MOL0     C89271  -1.271   7.772   2.008  0.0451  0.2737  0.9044
  677MOL0     C89272  -1.263   7.909   2.050 -0.4734  0.9449  0.0635
  677MOL0     C89273  -1.396   7.992   2.086  0.0712  0.3186  0.7086
  677MOL0     C89274  -1.501   7.985   1.980 -0.3405 -0.6344  0.3317
  677MOL0     C89275  -1.625   8.040   2.035  0.6891  0.1948 -0.1585
  677MOL0    Cl89276  -1.713   7.910   2.123 -0.4968  0.2425  0.1026
  677MOL0     C89277  -1.024   7.145   2.023 -0.0943 -0.2617 -0.0470
  677MOL0     C89278  -0.953   7.053   1.945 -1.0094  0.6561  0.2897
  677MOL0     O89279  -0.973   6.801   1.788 -0.2519  0.2303 -0.6558
  677MOL0     C89280  -0.860   6.650   1.584 -0.0714 -0.3317  0.7030
  677MOL0     C89281  -0.803   6.586   1.476 -0.0145  0.1084 -0.1267
  677MOL0     N89282  -0.243   6.035   1.192 -0.2495  0.0137 -0.7125
  677MOL0     N89283  -0.133   5.993   1.245  0.2622  0.0842 -0.5937
  677MOL0     C89284   1.144   6.441   1.464  0.2188 -0.4700 -0.0747
  677MOL0     C89285   1.259   6.469   1.549  1.1574 -1.3369 -1.0297
  677MOL0     C89286   1.491   6.442   1.958 -0.7019 -0.3605 -0.9695
  677MOL0     C89287   1.614   6.414   1.893 -0.0283 -0.6447 -0.1628
  677MOL0     C89288   1.733   6.400   1.962  0.3500  0.3124 -0.1094
  677MOL0     C89289   1.743   6.425   2.100 -0.2013  0.1081  0.6728
  677MOL0     O89290   1.874   6.405   2.141 -0.6135 -0.5954 -0.0075
  677MOL0     C89291   1.900   6.405   2.280 -0.8748  0.6928 -0.3673
  677MOL0     C89292   2.042   6.343   2.304 -0.0231 -0.0740  0.3362
  677MOL0     C89293   2.155   6.444   2.287  0.0116  0.7673 -0.0433
  677MOL0     C89294   2.292   6.373   2.299  0.3570  0.3595 -0.6458
  677MOL0     C89295   2.404   6.457   2.304  0.1908  1.3388  0.5895
  677MOL0     C89296   2.493   6.536   2.322  0.1484 -0.9362 -1.0862
  677MOL0     C89297   1.627   6.480   2.168 -0.1234  0.4757  1.2543
  677MOL0     C89298   1.507   6.463   2.097  0.2556 -0.3590  0.1666
  677MOL0     H89299   1.140   6.286   1.803  1.7279  0.9549  1.2448
  677MOL0     H89300   0.950   6.251   1.647 -0.2883 -0.5802 -3.4866
  677MOL0     H89301   0.780   6.401   1.562  0.1395  1.2478 -0.6647
  677MOL0     H89302   0.800   6.226   1.522 -0.7157  0.1827  0.0844
  677MOL0     H89303   0.723   6.292   1.280 -2.0031 -0.7964  0.0254
  677MOL0     H89304   0.687   6.455   1.350  0.6565 -0.4244  0.7667
  677MOL0     H89305   0.538   6.322   1.507 -0.4825  1.8079 -0.1168
  677MOL0     H89306   0.552   6.179   1.404 -0.3187  0.0064  0.0742
  677MOL0     H89307   0.454   6.455   1.297  2.7821  0.6540  0.0008
  677MOL0     H89308   0.502   6.325   1.193 -0.6895  1.3121 -0.5793
  677MOL0     H89309   0.257   6.360   1.267  0.8600  1.7864  1.1862
  677MOL0     H89310   0.292   6.286   1.422 -2.0459 -0.8734 -0.5901
  677MOL0     H89311   0.345   6.074   1.327 -2.3159 -1.3999 -0.1974
  677MOL0     H89312   0.373   6.148   1.165 -1.6648  0.6835 -0.9005
  677MOL0     H89313   0.122   6.198   1.157  0.7747 -0.0344 -1.7212
  677MOL0     H89314   0.168   6.025   1.156  2.1317  0.7138 -0.2632
  677MOL0     H89315   0.093   6.193   1.406  0.3548  0.0587 -1.2572
  677MOL0     H89316   0.112   6.017   1.403 -0.4608  0.5624  0.9357
  677MOL0     H89317  -0.084   6.323   1.260 -1.1320  1.0534 -2.2805
  677MOL0     H89318  -0.402   6.197   1.044 -0.0277 -2.1399  1.4352
  677MOL0     H89319  -0.288   6.319   1.043  0.8883 -1.9293 -1.3855
  677MOL0     H89320  -0.372   6.426   1.240 -0.3160  0.1135 -2.8249
  677MOL0     H89321  -0.436   6.259   1.308  0.0127 -0.7298  1.0672
  677MOL0     H89322  -0.558   6.450   1.096  4.2266  0.5308  0.3262
  677MOL0     H89323  -0.614   6.279   1.134  0.3996 -0.6795  1.7521
  677MOL0     H89324  -0.657   6.362   1.372 -3.1371  1.8318  0.5349
  677MOL0     H89325  -0.757   6.428   1.244 -0.2486 -0.1427  0.5349
  677MOL0     H89326  -0.534   6.788   1.431  2.1639 -0.5918  0.6486
  677MOL0     H89327  -0.629   6.911   1.606  2.7218  0.6596 -3.5988
  677MOL0     H89328  -0.944   7.195   1.644 -0.3870  2.5613  1.1461
  677MOL0     H89329  -1.083   7.357   1.749 -1.5254 -0.7913  0.7024
  677MOL0     H89330  -1.274   7.497   2.065  2.1481 -0.0633  2.0593
  677MOL0     H89331  -1.291   7.415   1.914 -0.8643 -0.3867  0.7583
  677MOL0     H89332  -1.163   7.589   1.823  3.1327 -2.8859 -2.7628
  677MOL0     H89333  -1.029   7.536   1.928 -0.9507 -1.2098 -3.9308
  677MOL0     H89334  -1.077   7.777   1.921  1.7635  0.0203  0.8826
  677MOL0     H89335  -1.082   7.711   2.093 -1.7762 -0.4571  0.6760
  677MOL0     H89336  -1.313   7.771   1.907  0.3391  1.5252  0.7505
  677MOL0     H89337  -1.342   7.715   2.068  0.5522  2.0820  3.3484
  677MOL0     H89338  -1.209   7.958   1.969 -0.7088  0.0479 -0.6516
  677MOL0     H89339  -1.207   7.914   2.143 -0.8543  2.5158  0.2330
  677MOL0     H89340  -1.377   8.099   2.099 -0.4791  0.3483  1.3050
  677MOL0     H89341  -1.431   7.957   2.184  0.5223 -2.0564  0.0889
  677MOL0     H89342  -1.456   8.048   1.902 -0.1783  0.6649  1.4347
  677MOL0     H89343  -1.526   7.884   1.947 -0.2531 -0.5742  0.0722
  677MOL0     H89344  -1.690   8.082   1.957 -3.8742  2.5756  4.3072
  677MOL0     H89345  -1.605   8.128   2.097 -1.6741  2.1528 -1.9824
  677MOL0     H89346  -1.040   7.136   2.130  0.1874 -0.7179 -0.0418
  677MOL0     H89347  -0.907   6.981   2.012 -0.0117  1.1898  0.2057
  677MOL0     H89348  -0.955   6.612   1.621  1.2258 -1.7827  2.7061
  677MOL0     H89349  -0.857   6.501   1.436  3.1225 -2.7601  1.3151
  677MOL0     H89350   1.144   6.482   1.364 -3.7283 -0.3709 -0.1871
  677MOL0     H89351   1.343   6.519   1.502  0.7862  0.6945  0.3763
  677MOL0     H89352   1.602   6.384   1.789 -1.8857 -0.1820 -0.1229
  677MOL0     H89353   1.825   6.374   1.911 -0.2257 -0.5192 -0.7506
  677MOL0     H89354   1.830   6.341   2.335 -0.2331  0.7499  0.5358
  677MOL0     H89355   1.905   6.506   2.321 -2.3275  0.6068  0.0967
  677MOL0     H89356   2.045   6.303   2.406  1.3064  1.6200  1.0013
  677MOL0     H89357   2.053   6.263   2.230  3.1500  0.9865 -0.4881
  677MOL0     H89358   2.151   6.522   2.364  1.2515  1.3608 -0.5534
  677MOL0     H89359   2.143   6.492   2.190  0.4087  2.1259  0.5523
  677MOL0     H89360   2.282   6.304   2.384 -0.4410 -0.6627 -1.5399
  677MOL0     H89361   2.312   6.320   2.206  0.5029  0.9618 -0.9630
  677MOL0     H89362   2.557   6.621   2.310  0.0338 -0.4645  1.1690
  677MOL0     H89363   1.637   6.495   2.275  0.5349  2.7730  0.9322
  677MOL0     H89364   1.417   6.462   2.157 -0.7834 -0.0305 -1.3454
  678MOL0     O89365   9.057   0.265   1.625 -0.0548  0.6796  0.9283
  678MOL0     C89366   9.057   0.146   1.604 -0.2928 -0.2423  0.1240
  678MOL0     O89367   9.156   0.080   1.543 -0.1493  0.2291 -0.5170
  678MOL0     C89368   9.263   0.147   1.494  0.7696  0.4351 -0.5549
  678MOL0     C89369   9.269   0.270   1.427 -0.5778  0.1740 -0.0946
  678MOL0     C89370   9.394   0.319   1.381 -1.2715  0.2462  0.7134
  678MOL0     C89371   9.513   0.260   1.423  0.3511  0.6401 -0.5784
  678MOL0     O89372   9.629   0.301   1.383 -0.4557  0.8684  0.1541
  678MOL0     C89373   9.649   0.271   1.242  0.3508 -0.9266  0.5551
  678MOL0     C89374   9.798   0.292   1.211 -1.0194 -0.0891  0.3752
  678MOL0     C89375   9.835   0.270   1.058  0.7419  0.0306  0.1587
  678MOL0     C89376   9.835   0.118   1.022 -0.0935 -0.0946 -0.4272
  678MOL0     C89377   9.951   0.097   0.920 -0.0581 -0.7856 -0.9627
  678MOL0     C89378  10.080   0.064   1.003  0.5585  0.2209  0.1761
  678MOL0     C89379  10.175  -0.017   0.922 -0.5271  0.0189 -0.5647
  678MOL0     C89380  10.222   0.045   0.797 -0.2744 -0.1517 -0.1305
  678MOL0     N89381  10.323   0.148   0.829 -0.0201  0.6033  0.1571
  678MOL0     C89382  10.296   0.260   0.901 -0.9138 -0.0257  0.0902
  678MOL0     C89383  10.417   0.308   0.932 -0.5458 -0.9311  0.8562
  678MOL0     C89384  10.451   0.440   1.009  0.8823  0.2903 -0.7368
  678MOL0     C89385  10.460   0.423   1.161 -0.6582  0.3513  0.4306
  678MOL0     C89386  10.355   0.335   1.228 -0.1323 -1.0937 -0.3057
  678MOL0     C89387  10.208   0.389   1.213  0.1597 -1.1954  0.2945
  678MOL0     O89388  10.212   0.531   1.220  0.6117 -0.5461 -0.4201
  678MOL0     C89389  10.148   0.582   1.321  0.5453  0.6870 -0.5171
  678MOL0     C89390  10.055   0.684   1.296  0.7217  0.7357 -0.4032
  678MOL0     C89391   9.974   0.745   1.394  0.0725  1.1497 -0.3339
  678MOL0     C89392   9.973   0.691   1.525  1.1706  0.0733 -0.0249
  678MOL0     C89393   9.879   0.755   1.622 -0.3849  0.9545 -0.5879
  678MOL0     O89394   9.777   0.831   1.583  0.2950  0.1217  0.2099
  678MOL0     C89395   9.680   0.869   1.680 -0.5615  0.1310 -0.3181
  678MOL0     C89396   9.571   0.786   1.699  0.2690  0.2405  0.4320
  678MOL0     C89397   9.467   0.832   1.782 -0.6828  0.5706 -0.3008
  678MOL0     C89398   9.473   0.952   1.855 -0.2026 -0.4542  0.2621
  678MOL0     O89399   9.366   0.988   1.930  0.0834  0.6018  0.4421
  678MOL0     C89400   9.408   1.019   2.065 -0.1323  0.0366  1.0222
  678MOL0     C89401   9.286   1.061   2.137 -0.5146  0.2703 -0.2041
  678MOL0     C89402   9.316   1.134   2.272 -0.1039  0.5145 -0.4091
  678MOL0     C89403   9.402   1.057   2.372  0.2411 -0.8621 -0.2064
  678MOL0     C89404   9.414   1.134   2.505  1.0772 -0.3273  0.1161
  678MOL0     C89405   9.505   1.044   2.599 -0.0660  0.8122 -0.2727
  678MOL0     C89406   9.628   0.981   2.530 -0.3579 -0.6007  0.1645
  678MOL0     C89407   9.724   0.913   2.626 -0.2217  0.2809  0.6349
  678MOL0    Cl89408   9.665   0.747   2.654  0.7033  0.5425  0.0759
  678MOL0     C89409   9.590   1.029   1.840 -0.8873 -0.4534 -0.6068
  678MOL0     C89410   9.692   0.984   1.754 -0.0885 -0.4589  0.0964
  678MOL0     O89411   9.890   0.714   1.739  0.3544  0.0965 -0.0959
  678MOL0     C89412  10.076   0.592   1.548  0.3701  0.3314  0.5567
  678MOL0     C89413  10.157   0.537   1.452  0.2172 -0.3883  0.1441
  678MOL0     N89414  10.513   0.233   0.871 -0.6333  0.3437  0.5910
  678MOL0     N89415  10.459   0.125   0.820  0.4087  0.5243 -0.5448
  678MOL0     C89416   9.507   0.139   1.489 -0.3971 -0.1204  0.0439
  678MOL0     C89417   9.378   0.087   1.530  0.6066 -0.3323  0.0757
  678MOL0     C89418   8.950   0.058   1.655 -0.2506  0.1376  0.4372
  678MOL0     C89419   8.935  -0.070   1.591 -0.3350  0.4618 -0.1286
  678MOL0     C89420   8.843  -0.160   1.645  1.2679  0.0915 -0.5407
  678MOL0     C89421   8.768  -0.127   1.759  0.2207 -0.0512  0.4786
  678MOL0     O89422   8.701  -0.233   1.820  0.8754 -0.0698 -0.1804
  678MOL0     C89423   8.599  -0.191   1.921  0.2877  0.3597 -0.0580
  678MOL0     C89424   8.539  -0.325   1.977 -0.8480  0.1587  0.2297
  678MOL0     C89425   8.422  -0.313   2.078  0.9639  1.0095  0.0341
  678MOL0     C89426   8.281  -0.285   2.017  0.5850  0.7223 -0.1785
  678MOL0     C89427   8.171  -0.290   2.111 -0.4961 -0.5578  0.1189
  678MOL0     C89428   8.091  -0.270   2.199 -0.5253  0.6567  0.4034
  678MOL0     C89429   8.778   0.008   1.811 -0.4320 -0.2237 -0.5384
  678MOL0     C89430   8.863   0.104   1.757 -0.7218  0.7466 -0.3620
  678MOL0     H89431   9.171   0.313   1.410 -0.8267  0.2404  1.3376
  678MOL0     H89432   9.385   0.405   1.315  0.0729 -0.6319 -0.6688
  678MOL0     H89433   9.584   0.328   1.175 -0.5208 -1.2447  1.1131
  678MOL0     H89434   9.623   0.170   1.209  0.0817 -0.0941 -1.9820
  678MOL0     H89435   9.851   0.210   1.262 -3.2108 -3.6865 -2.6102
  678MOL0     H89436   9.835   0.390   1.243 -1.3741  0.7900 -1.7693
  678MOL0     H89437   9.941   0.297   1.059  0.8637 -0.3526 -1.2856
  678MOL0     H89438   9.777   0.325   0.984  0.4679 -0.7007 -0.1767
  678MOL0     H89439   9.858   0.052   1.106  2.7219 -1.1642 -1.9010
  678MOL0     H89440   9.730   0.101   0.993  0.7599  0.1194 -4.2385
  678MOL0     H89441   9.967   0.189   0.862  0.5501 -0.1781  0.1446
  678MOL0     H89442   9.920   0.017   0.852 -0.7056 -0.3871 -1.1418
  678MOL0     H89443  10.051  -0.007   1.082 -0.6144  0.5911  0.0971
  678MOL0     H89444  10.111   0.153   1.058 -4.7494  0.4808  3.4616
  678MOL0     H89445  10.264  -0.032   0.984 -0.9045  2.6177  0.7424
  678MOL0     H89446  10.121  -0.110   0.899 -1.4324  0.1269  1.0073
  678MOL0     H89447  10.136   0.074   0.736 -1.4443  0.7830  1.8648
  678MOL0     H89448  10.270  -0.031   0.735  0.1674  0.3706 -0.4459
  678MOL0     H89449  10.205   0.310   0.929 -2.4423 -0.3899 -3.6778
  678MOL0     H89450  10.369   0.512   0.998  0.3549  0.3713  2.5002
  678MOL0     H89451  10.535   0.488   0.959 -1.7381  2.4422 -3.4066
  678MOL0     H89452  10.484   0.518   1.209  1.0771  0.9830 -1.5388
  678MOL0     H89453  10.555   0.370   1.173 -0.8722 -0.0700  0.3090
  678MOL0     H89454  10.352   0.229   1.200 -2.3971 -0.6289 -2.0358
  678MOL0     H89455  10.382   0.347   1.334 -1.7915  0.4687 -0.0248
  678MOL0     H89456  10.131   0.342   1.275 -1.6259  1.6931  0.4330
  678MOL0     H89457  10.181   0.366   1.110 -0.4650 -0.4385  0.2864
  678MOL0     H89458  10.054   0.726   1.196  3.2181  2.7046  0.2898
  678MOL0     H89459   9.912   0.828   1.362  1.1756  1.8331 -0.7646
  678MOL0     H89460   9.556   0.690   1.649 -3.4882  0.4452  0.8791
  678MOL0     H89461   9.382   0.769   1.807  0.0621 -0.1630  0.4285
  678MOL0     H89462   9.475   1.105   2.067 -0.2771  0.4200 -2.6979
  678MOL0     H89463   9.465   0.944   2.120  2.0662  0.3129 -0.7675
  678MOL0     H89464   9.223   0.971   2.140 -1.3466  0.8251 -0.6608
  678MOL0     H89465   9.227   1.133   2.080  0.6550  0.8379 -0.7377
  678MOL0     H89466   9.228   1.172   2.325  1.1868  1.2904  1.2654
  678MOL0     H89467   9.360   1.229   2.241 -0.3320  1.3433  1.6704
  678MOL0     H89468   9.360   0.957   2.391 -0.1116 -0.9669 -1.4672
  678MOL0     H89469   9.501   1.048   2.328  1.1199 -0.7857  1.6768
  678MOL0     H89470   9.315   1.157   2.546 -0.2608  0.6163 -3.2941
  678MOL0     H89471   9.458   1.234   2.495 -0.7225  0.7912  2.2763
  678MOL0     H89472   9.438   0.973   2.649  0.6089 -0.7899 -1.5738
  678MOL0     H89473   9.535   1.113   2.678 -1.7901  2.9601 -1.4054
  678MOL0     H89474   9.594   0.915   2.449  0.4182 -0.6436 -0.1309
  678MOL0     H89475   9.691   1.059   2.487 -1.4085 -0.6449 -1.5703
  678MOL0     H89476   9.723   0.968   2.721  0.2236 -0.5526  1.1360
  678MOL0     H89477   9.829   0.898   2.600 -0.3060 -2.1320  1.3897
  678MOL0     H89478   9.618   1.123   1.886  2.1880 -1.4761 -0.1857
  678MOL0     H89479   9.782   1.043   1.751  0.6910 -1.4452  2.1899
  678MOL0     H89480  10.069   0.544   1.645  2.5567 -1.9029 -0.2860
  678MOL0     H89481  10.231   0.463   1.482  1.8991  0.5401 -1.5187
  678MOL0     H89482   9.603   0.095   1.517 -0.3959  0.5271  1.0757
  678MOL0     H89483   9.366  -0.011   1.575 -0.4468 -1.5001 -2.5501
  678MOL0     H89484   9.008  -0.096   1.515  1.5211 -1.1474  2.0774
  678MOL0     H89485   8.828  -0.256   1.596 -2.3577 -0.0661  0.5388
  678MOL0     H89486   8.517  -0.140   1.869  0.8069  1.6215  0.3344
  678MOL0     H89487   8.625  -0.124   2.003  0.2177  0.4619 -0.1194
  678MOL0     H89488   8.523  -0.388   1.889  2.4562 -0.0537 -0.3738
  678MOL0     H89489   8.612  -0.384   2.033 -0.2466 -1.6400 -2.2993
  678MOL0     H89490   8.445  -0.234   2.150 -0.3003  2.0910 -0.6880
  678MOL0     H89491   8.415  -0.405   2.135  1.6172  0.4943 -0.6954
  678MOL0     H89492   8.285  -0.192   1.959 -0.0456 -0.3079 -1.9349
  678MOL0     H89493   8.255  -0.365   1.948  2.0523  0.1554 -0.1045
  678MOL0     H89494   8.038  -0.230   2.283  0.0159 -0.2243  1.1801
  678MOL0     H89495   8.718   0.052   1.890 -0.5247 -0.8348 -0.2609
  678MOL0     H89496   8.886   0.204   1.792  0.3182  0.3125  0.2786
  679MOL0     O89497   3.265  10.336   8.626  0.1058  0.1031 -0.8059
  679MOL0     C89498   3.291  10.397   8.526  0.3239 -0.1916 -0.0834
  679MOL0     O89499   3.214  10.497   8.475  0.1069  0.2426 -0.1771
  679MOL0     C89500   3.117  10.546   8.561  0.1460  0.4357  0.3579
  679MOL0     C89501   3.159  10.630   8.661  0.4473 -0.3129 -0.1820
  679MOL0     C89502   3.063  10.695   8.739  0.0855  0.4845  0.1841
  679MOL0     C89503   2.927  10.670   8.716  0.9444  0.5635 -0.2523
  679MOL0     O89504   2.845  10.741   8.793  0.7661  0.1528  0.4010
  679MOL0     C89505   2.795  10.858   8.740  0.3025 -0.6203  0.3290
  679MOL0     C89506   2.688  10.913   8.849 -0.6253  0.3796  1.0709
  679MOL0     C89507   2.550  10.908   8.788  0.0822  0.1674 -0.4472
  679MOL0     C89508   2.443  10.994   8.873  0.8386 -0.1406  0.8093
  679MOL0     C89509   2.403  10.951   9.021  0.2601  0.6688 -0.2014
  679MOL0     C89510   2.315  11.058   9.091 -0.8648  0.1864 -0.9243
  679MOL0     C89511   2.293  11.006   9.237  0.3547 -0.0558 -0.7273
  679MOL0     C89512   2.168  11.060   9.302 -0.8138 -0.2262  0.2501
  679MOL0     N89513   2.172  11.059   9.445 -0.1708  0.1434  0.4929
  679MOL0     C89514   2.190  10.948   9.527 -0.1000 -0.3484  0.0647
  679MOL0     C89515   2.220  11.005   9.650  0.5721  0.0237 -0.8912
  679MOL0     C89516   2.252  10.922   9.769  0.3338  0.2689  1.4778
  679MOL0     C89517   2.395  10.854   9.764 -0.8484  0.4416  0.0616
  679MOL0     C89518   2.405  10.749   9.661  0.3306 -0.0291  0.8409
  679MOL0     C89519   2.534  10.666   9.669  0.1244  0.0282  0.0686
  679MOL0     O89520   2.531  10.587   9.792 -0.1024 -0.0013 -1.3559
  679MOL0     C89521   2.626  10.497   9.800  0.2422 -0.7944 -0.2986
  679MOL0     C89522   2.730  10.528   9.883  0.3075 -0.0334  0.1233
  679MOL0     C89523   2.850  10.438   9.886  0.0017  1.0424 -0.0499
  679MOL0     C89524   2.844  10.317   9.814 -0.4118  0.7871 -0.3090
  679MOL0     C89525   2.973  10.239   9.817  0.1280  0.9904  0.9902
  679MOL0     O89526   3.057  10.258   9.922 -0.4949 -0.4471  0.1938
  679MOL0     C89527   3.178  10.191   9.927  0.5554  0.9758  0.4590
  679MOL0     C89528   3.252  10.148   9.821  0.1176  0.2020  0.0489
  679MOL0     C89529   3.366  10.060   9.828  0.1615  0.3064 -0.6330
  679MOL0     C89530   3.417  10.034   9.951 -0.1038  0.3465 -1.2985
  679MOL0     O89531   3.534   9.968   9.969 -0.0880  0.0739 -1.2134
  679MOL0     C89532   3.612   9.920   9.856 -0.2121 -0.3424 -0.0399
  679MOL0     C89533   3.749   9.870   9.902  0.5854  0.1666 -1.0263
  679MOL0     C89534   3.835   9.986   9.935  0.6753  0.5497 -0.5537
  679MOL0     C89535   3.973   9.949   9.995  0.4761  0.1122  0.3301
  679MOL0     C89536   4.068   9.901   9.881  0.1948  0.5519 -0.5390
  679MOL0     C89537   4.209   9.893   9.928 -0.1484 -0.0094 -1.5501
  679MOL0     C89538   4.312   9.835   9.827  0.4123  0.6400  0.4828
  679MOL0     C89539   4.451   9.819   9.884  0.1840  0.3505 -0.1796
  679MOL0    Cl89540   4.571   9.779   9.764  0.0290  0.1842  0.1440
  679MOL0     C89541   3.356  10.084  10.066 -0.2997  0.5356  0.1166
  679MOL0     C89542   3.234  10.163  10.049 -1.0306  0.7983  0.3440
  679MOL0     O89543   2.980  10.158   9.726 -0.0423  0.2177 -0.7453
  679MOL0     C89544   2.736  10.290   9.732 -0.1753  0.1146  0.5819
  679MOL0     C89545   2.631  10.386   9.728 -0.8432 -0.8460  0.3684
  679MOL0     N89546   2.204  11.141   9.643  0.3022  0.4023 -0.3578
  679MOL0     N89547   2.172  11.173   9.522 -0.7571  0.3722  0.2499
  679MOL0     C89548   2.889  10.572   8.621  0.2108 -0.9827 -0.3168
  679MOL0     C89549   2.982  10.506   8.539 -0.1664 -0.0748 -0.0543
  679MOL0     C89550   3.406  10.343   8.451 -0.4159 -0.7849 -0.3750
  679MOL0     C89551   3.485  10.440   8.388 -0.1114 -0.8038  0.8723
  679MOL0     C89552   3.600  10.406   8.315  0.1393  0.0113  0.8817
  679MOL0     C89553   3.651  10.274   8.310 -0.3335 -0.1477  0.6415
  679MOL0     O89554   3.760  10.234   8.238 -0.7068  0.7100  0.0009
  679MOL0     C89555   3.857  10.328   8.192 -0.6926  0.1544 -0.7110
  679MOL0     C89556   3.945  10.385   8.305  0.3185 -0.1475 -0.5370
  679MOL0     C89557   4.068  10.293   8.332  0.6619 -1.4229  0.4807
  679MOL0     C89558   4.167  10.350   8.429 -0.5273 -0.8278 -0.5549
  679MOL0     C89559   4.119  10.400   8.561 -0.2644 -0.1541 -0.9349
  679MOL0     C89560   4.093  10.431   8.668 -0.2195 -0.5122  0.3523
  679MOL0     C89561   3.570  10.177   8.372 -0.3466  0.1762  0.2795
  679MOL0     C89562   3.452  10.211   8.445  0.2767 -0.4866 -0.2120
  679MOL0     H89563   3.263  10.660   8.666  1.4042 -2.7932 -2.5327
  679MOL0     H89564   3.084  10.779   8.804  0.9870  0.7763 -0.4724
  679MOL0     H89565   2.736  10.837   8.650  0.0686  2.1397 -0.2399
  679MOL0     H89566   2.865  10.942   8.733 -2.5078  1.7637 -2.0952
  679MOL0     H89567   2.720  11.015   8.872  1.8763 -0.2072  0.4645
  679MOL0     H89568   2.694  10.858   8.944  1.5247  1.0262  1.3595
  679MOL0     H89569   2.514  10.806   8.771 -1.4406  0.8318 -1.4486
  679MOL0     H89570   2.538  10.959   8.692 -1.3721  1.1543  0.2203
  679MOL0     H89571   2.468  11.100   8.877 -1.4968  0.5072 -0.0640
  679MOL0     H89572   2.355  10.983   8.809  1.6527  2.6427 -0.9664
  679MOL0     H89573   2.494  10.943   9.081  0.7610 -0.1481 -1.0412
  679MOL0     H89574   2.361  10.850   9.015  1.9078 -0.1130  0.6349
  679MOL0     H89575   2.215  11.058   9.047 -1.6990  1.2876  0.8772
  679MOL0     H89576   2.366  11.155   9.091  0.3312 -0.3969  0.1688
  679MOL0     H89577   2.265  10.900   9.235 -3.0921  0.6105  2.0213
  679MOL0     H89578   2.380  11.026   9.300  0.9596  2.2861 -2.1481
  679MOL0     H89579   2.089  10.988   9.279 -0.7396 -0.0632 -0.5198
  679MOL0     H89580   2.141  11.157   9.261  0.1127 -0.1846 -0.2972
  679MOL0     H89581   2.185  10.844   9.494 -2.0558 -0.8649  1.7729
  679MOL0     H89582   2.179  10.841   9.776  0.4413 -0.2133 -1.5792
  679MOL0     H89583   2.225  10.982   9.857  1.0652  2.6067  0.1901
  679MOL0     H89584   2.398  10.792   9.855  4.1586 -0.6281 -0.5780
  679MOL0     H89585   2.475  10.927   9.777 -0.5041 -0.1028  1.1481
  679MOL0     H89586   2.315  10.687   9.668 -0.2505  0.3735 -1.9175
  679MOL0     H89587   2.402  10.795   9.561 -1.5023 -2.6665 -0.4480
  679MOL0     H89588   2.623  10.727   9.652 -0.1563  1.1661  2.3095
  679MOL0     H89589   2.531  10.594   9.586  0.5322 -1.7828  1.5574
  679MOL0     H89590   2.723  10.612   9.951 -0.0103 -1.2232  1.6108
  679MOL0     H89591   2.926  10.450   9.962  1.6604 -1.0435 -1.2668
  679MOL0     H89592   3.223  10.174   9.720  0.1246 -3.6817 -1.1126
  679MOL0     H89593   3.423  10.028   9.742 -0.6881  0.3612 -1.2298
  679MOL0     H89594   3.636  10.001   9.786 -0.9715 -0.5563 -0.5701
  679MOL0     H89595   3.562   9.841   9.799 -1.1468 -2.0107  2.8967
  679MOL0     H89596   3.789   9.800   9.829 -0.2824 -1.0616 -0.3465
  679MOL0     H89597   3.728   9.814   9.994  0.6412  1.6277 -0.0755
  679MOL0     H89598   3.782  10.052  10.004 -0.5452 -2.6378  1.8050
  679MOL0     H89599   3.853  10.045   9.845  0.0243  1.4464 -0.1218
  679MOL0     H89600   4.011  10.045  10.032 -0.3895  1.3115 -1.6904
  679MOL0     H89601   3.978   9.882  10.081  0.6406 -2.1728 -1.3452
  679MOL0     H89602   4.054   9.961   9.790  1.3529  0.6510 -0.6620
  679MOL0     H89603   4.035   9.801   9.850 -1.3111  0.8683 -0.0671
  679MOL0     H89604   4.223   9.827  10.014 -2.4669  1.5850  0.1713
  679MOL0     H89605   4.245   9.992   9.957  0.5763 -0.1512 -1.9298
  679MOL0     H89606   4.275   9.739   9.788 -0.1987  0.9040  0.4028
  679MOL0     H89607   4.335   9.909   9.750 -0.7997 -0.8242 -1.3901
  679MOL0     H89608   4.456   9.742   9.962 -1.0651  1.4628  1.0542
  679MOL0     H89609   4.493   9.909   9.929  3.9675 -1.9464  1.3851
  679MOL0     H89610   3.402  10.066  10.162 -0.4233  0.2625  0.1251
  679MOL0     H89611   3.177  10.209  10.129 -2.3430  0.5965 -0.4553
  679MOL0     H89612   2.727  10.202   9.669 -1.7557 -0.3340  1.3862
  679MOL0     H89613   2.551  10.355   9.662  1.2647 -1.5152 -2.0685
  679MOL0     H89614   2.787  10.536   8.607 -0.2442 -0.0061  0.3294
  679MOL0     H89615   2.941  10.441   8.462 -1.6589  1.5360 -0.6889
  679MOL0     H89616   3.472  10.548   8.387 -1.4034 -0.9518  0.0235
  679MOL0     H89617   3.648  10.480   8.251  0.3935 -0.4131  0.5744
  679MOL0     H89618   3.810  10.406   8.133  2.5599  1.5150 -1.7529
  679MOL0     H89619   3.924  10.283   8.117  1.3707 -1.1686  1.7431
  679MOL0     H89620   3.975  10.486   8.277  0.3121 -0.4438 -1.6832
  679MOL0     H89621   3.898  10.386   8.404 -0.2641 -0.2024 -0.8114
  679MOL0     H89622   4.121  10.265   8.240  2.5020  2.3712  0.2296
  679MOL0     H89623   4.023  10.206   8.382  0.8857 -1.5877  0.3979
  679MOL0     H89624   4.231  10.266   8.457 -0.9728 -1.0912 -0.2989
  679MOL0     H89625   4.214  10.435   8.379 -1.2949  0.5471  0.9742
  679MOL0     H89626   4.044  10.453   8.761 -1.0494 -1.3201  0.1240
  679MOL0     H89627   3.617  10.080   8.380  0.8772  0.9148  3.6332
  679MOL0     H89628   3.400  10.132   8.499 -4.8800  1.4135 -1.8231
  680MOL0     O89629   9.809   7.256   9.643 -0.1666 -1.1061 -0.5077
  680MOL0     C89630   9.712   7.231   9.586  1.0552  1.4041  1.6239
  680MOL0     O89631   9.704   7.126   9.491  0.5135  0.3165  0.0142
  680MOL0     C89632   9.824   7.079   9.439  0.1563 -0.0046 -0.6368
  680MOL0     C89633   9.945   7.147   9.422 -0.7726  0.5389  0.7999
  680MOL0     C89634  10.064   7.083   9.391 -0.1304 -0.9258 -0.4064
  680MOL0     C89635  10.062   6.953   9.342  0.1927  0.5039 -0.0117
  680MOL0     O89636  10.173   6.889   9.283  0.9819  0.1979  0.0183
  680MOL0     C89637  10.312   6.941   9.306  0.3244 -0.0170  1.5248
  680MOL0     C89638  10.369   6.925   9.453 -0.6615  0.0984 -0.3173
  680MOL0     C89639  10.461   7.041   9.478 -0.1896 -0.6196 -0.2724
  680MOL0     C89640  10.538   7.031   9.606 -0.4317 -0.2032  0.2517
  680MOL0     C89641  10.616   7.160   9.615  0.2780 -0.1934  0.2015
  680MOL0     C89642  10.684   7.189   9.752  0.1136  0.9872 -0.2845
  680MOL0     C89643  10.744   7.326   9.774 -0.0469 -0.9889  0.5132
  680MOL0     C89644  10.809   7.323   9.911  0.3771  0.8830 -0.3201
  680MOL0     N89645  10.715   7.301  10.027 -0.0094 -0.3372  1.2114
  680MOL0     C89646  10.668   7.419  10.100 -0.1708 -0.0822  0.4444
  680MOL0     C89647  10.627   7.373  10.220 -0.0781 -0.5553  0.4812
  680MOL0     C89648  10.563   7.448  10.338  1.1887 -0.3431 -0.4664
  680MOL0     C89649  10.537   7.598  10.308  0.2347  0.9708  0.3690
  680MOL0     C89650  10.480   7.658  10.437 -0.5367  0.4109  0.1941
  680MOL0     C89651  10.431   7.796  10.418  0.2013  0.8735 -0.2536
  680MOL0     O89652  10.296   7.777  10.363 -0.3540  0.2082  0.6689
  680MOL0     C89653  10.196   7.789  10.458 -0.1302  0.4752  0.0757
  680MOL0     C89654  10.089   7.704  10.458  0.1811 -0.2816 -0.7586
  680MOL0     C89655   9.990   7.713  10.560 -0.0773 -0.5217 -0.6277
  680MOL0     C89656   9.987   7.822  10.656  0.1233 -0.9086 -0.4981
  680MOL0     C89657   9.885   7.835  10.763  0.8128  0.1197 -0.1626
  680MOL0     O89658   9.786   7.746  10.758  0.1925 -0.4281 -0.2739
  680MOL0     C89659   9.682   7.767  10.849 -0.1143 -0.7322  0.8550
  680MOL0     C89660   9.552   7.810  10.795 -0.6919 -0.7736  0.0915
  680MOL0     C89661   9.450   7.805  10.892  0.9456  0.3592 -0.0311
  680MOL0     C89662   9.465   7.760  11.025 -0.3924 -0.6219  0.3967
  680MOL0     O89663   9.353   7.740  11.098  0.0762 -0.3437 -0.2337
  680MOL0     C89664   9.322   7.608  11.110  1.1559  0.6352 -0.6844
  680MOL0     C89665   9.169   7.605  11.153 -1.3607  0.2726  0.1582
  680MOL0     C89666   9.090   7.698  11.065 -0.3352  0.3131 -0.4615
  680MOL0     C89667   8.944   7.683  11.059  0.2780  0.2013  0.6591
  680MOL0     C89668   8.884   7.806  10.986 -0.2878  0.4861 -0.1983
  680MOL0     C89669   8.730   7.786  10.979  0.4125  0.0958 -0.1174
  680MOL0     C89670   8.661   7.844  11.097  0.6652  0.4001  0.5482
  680MOL0     C89671   8.513   7.826  11.101  0.1100  0.3632 -0.0443
  680MOL0    Cl89672   8.430   7.946  10.994  0.4024  0.1284  0.1157
  680MOL0     C89673   9.591   7.717  11.065 -0.5835  0.0110  0.2784
  680MOL0     C89674   9.703   7.730  10.979 -0.2826  0.4165 -0.2008
  680MOL0     O89675   9.895   7.910  10.853 -0.1355 -0.6543  1.0335
  680MOL0     C89676  10.077   7.925  10.632  0.4871  0.5480  0.6623
  680MOL0     C89677  10.181   7.909  10.534 -0.0915 -0.0754  0.3452
  680MOL0     N89678  10.640   7.233  10.219 -1.1105 -0.8104 -0.0918
  680MOL0     N89679  10.696   7.195  10.101 -0.5959 -0.5850  0.2140
  680MOL0     C89680   9.940   6.886   9.347  0.3168  0.5347  0.9680
  680MOL0     C89681   9.823   6.945   9.401 -1.0007  0.6926 -0.5842
  680MOL0     C89682   9.599   7.312   9.636  0.0410  1.3459  0.3317
  680MOL0     C89683   9.473   7.316   9.580  0.1692  0.0415 -0.0137
  680MOL0     C89684   9.354   7.365   9.650  0.2296 -0.2928 -0.0481
  680MOL0     C89685   9.367   7.436   9.766  0.2738  0.3296 -0.2616
  680MOL0     O89686   9.250   7.485   9.824 -0.4656  0.0921 -0.8715
  680MOL0     C89687   9.202   7.414   9.945 -0.5846  0.1541 -1.4969
  680MOL0     C89688   9.049   7.415   9.948 -0.1595  0.0267  0.1208
  680MOL0     C89689   9.000   7.332  10.069  0.6602 -0.0017 -0.4807
  680MOL0     C89690   8.853   7.308  10.063  0.5104  0.5196 -0.3345
  680MOL0     C89691   8.790   7.442  10.087  0.1138  0.1506  0.5858
  680MOL0     C89692   8.730   7.548  10.086  0.3272 -0.1761  0.2011
  680MOL0     C89693   9.491   7.440   9.826 -0.7429 -0.1953 -0.3440
  680MOL0     C89694   9.598   7.374   9.764 -0.3752 -0.1014 -0.3199
  680MOL0     H89695   9.959   7.250   9.454 -0.6529  0.8401 -0.1951
  680MOL0     H89696  10.158   7.138   9.393 -0.3981 -0.4590 -0.5911
  680MOL0     H89697  10.322   7.046   9.279  3.0633 -0.7724 -0.9116
  680MOL0     H89698  10.380   6.885   9.241 -4.5394 -0.4487 -3.9348
  680MOL0     H89699  10.415   6.826   9.463  0.4592  0.8175  3.3274
  680MOL0     H89700  10.289   6.912   9.526  1.1381 -0.2784  1.7041
  680MOL0     H89701  10.399   7.131   9.477  0.7036  0.0046 -0.0237
  680MOL0     H89702  10.540   7.035   9.402  0.2033 -2.3589  0.2142
  680MOL0     H89703  10.462   7.027   9.685 -1.7399  0.7433 -0.9163
  680MOL0     H89704  10.609   6.949   9.619 -1.2529 -0.6243  2.5259
  680MOL0     H89705  10.550   7.245   9.598  3.6267  2.4781 -0.6272
  680MOL0     H89706  10.703   7.157   9.548  1.5487 -3.1080  1.7707
  680MOL0     H89707  10.761   7.112   9.769 -1.5120 -0.1604  2.7194
  680MOL0     H89708  10.608   7.175   9.829 -2.5168  7.2333 -1.1380
  680MOL0     H89709  10.819   7.340   9.695  1.2844 -0.0870  1.8902
  680MOL0     H89710  10.665   7.402   9.773 -1.0091 -1.9230  1.4806
  680MOL0     H89711  10.872   7.412   9.920  0.5094  0.9257 -1.5904
  680MOL0     H89712  10.871   7.233   9.910 -2.1409 -0.9668  0.0162
  680MOL0     H89713  10.653   7.520  10.065  0.7479  0.8474  2.5674
  680MOL0     H89714  10.629   7.432  10.424  0.6723 -1.3868 -0.2409
  680MOL0     H89715  10.473   7.392  10.366  2.3373 -1.7628  0.5785
  680MOL0     H89716  10.470   7.610  10.222  0.6712 -1.0334 -0.2884
  680MOL0     H89717  10.632   7.644  10.280 -0.0136 -0.7894 -4.1825
  680MOL0     H89718  10.408   7.579  10.460  0.4799 -1.1504 -1.6643
  680MOL0     H89719  10.568   7.648  10.501  1.0744 -0.6525 -2.0410
  680MOL0     H89720  10.501   7.850  10.354  1.6978  0.6279  1.0942
  680MOL0     H89721  10.441   7.847  10.515  0.1387  1.4931 -0.5647
  680MOL0     H89722  10.078   7.626  10.383  0.9182  0.2635 -1.4566
  680MOL0     H89723   9.913   7.636  10.559  2.2874 -3.0748  0.2320
  680MOL0     H89724   9.540   7.838  10.691 -0.5418 -2.3542 -0.3859
  680MOL0     H89725   9.349   7.829  10.860  2.1620  2.2072 -2.9541
  680MOL0     H89726   9.387   7.573  11.192 -1.4599  0.5622  1.5103
  680MOL0     H89727   9.336   7.539  11.026  1.8786  0.2548 -0.2648
  680MOL0     H89728   9.155   7.628  11.259 -3.8185 -1.6546  0.3516
  680MOL0     H89729   9.135   7.501  11.145  0.8761 -0.7276  2.1845
  680MOL0     H89730   9.124   7.708  10.961  0.2844  1.0493 -0.1926
  680MOL0     H89731   9.105   7.801  11.100 -1.3554  0.8289 -1.4466
  680MOL0     H89732   8.905   7.590  11.016  0.0996  0.8408 -0.5987
  680MOL0     H89733   8.916   7.687  11.165 -0.9616 -0.4693  0.3840
  680MOL0     H89734   8.916   7.807  10.881 -2.9249  2.5123 -1.0892
  680MOL0     H89735   8.897   7.898  11.044  2.1481  0.9558 -1.3344
  680MOL0     H89736   8.716   7.679  10.960  0.3666  0.0343  0.2478
  680MOL0     H89737   8.698   7.842  10.891  1.3733  1.3820  0.3246
  680MOL0     H89738   8.703   7.801  11.189 -2.4555  0.8877  2.3360
  680MOL0     H89739   8.687   7.950  11.095  2.1047  0.1286  2.0071
  680MOL0     H89740   8.480   7.833  11.205 -0.7562 -1.3884 -0.1602
  680MOL0     H89741   8.481   7.728  11.065 -3.3302  1.1608  0.4400
  680MOL0     H89742   9.609   7.667  11.159 -1.0209  2.4561  1.7544
  680MOL0     H89743   9.799   7.693  11.014 -0.7929 -3.7781 -2.5494
  680MOL0     H89744  10.089   8.003  10.706 -0.3191  0.8214  0.5120
  680MOL0     H89745  10.253   7.990  10.534 -1.5724  1.2999  0.2721
  680MOL0     H89746   9.933   6.782   9.319 -1.5704  1.1975 -1.3690
  680MOL0     H89747   9.742   6.874   9.409 -0.3199  0.1082  1.5377
  680MOL0     H89748   9.468   7.268   9.483 -1.3791 -1.1206  0.6066
  680MOL0     H89749   9.252   7.357   9.613  0.0729 -0.9217  0.4923
  680MOL0     H89750   9.243   7.465  10.033 -1.6863 -2.0343  0.3790
  680MOL0     H89751   9.244   7.313   9.946  3.2381  1.5400  1.5472
  680MOL0     H89752   9.016   7.519   9.953  0.2712  0.1143  1.5973
  680MOL0     H89753   9.026   7.369   9.851 -0.0848  0.9080 -0.3219
  680MOL0     H89754   9.023   7.380  10.165  1.1514 -0.4955 -0.3459
  680MOL0     H89755   9.044   7.232  10.072  0.2845 -0.1512  0.7216
  680MOL0     H89756   8.810   7.252   9.980 -3.3767  0.6642  1.3333
  680MOL0     H89757   8.829   7.256  10.157  3.1654  3.8191  2.4507
  680MOL0     H89758   8.660   7.628  10.086  0.1803 -0.2737  1.6859
  680MOL0     H89759   9.507   7.476   9.927  1.9030 -3.3445  0.5266
  680MOL0     H89760   9.690   7.365   9.821  0.0242  0.6757 -0.8316
  681MOL0     O89761   6.316   1.308   9.475  0.0500  0.1296  0.6223
  681MOL0     C89762   6.425   1.366   9.467 -0.0999 -0.1905  0.2316
  681MOL0     O89763   6.449   1.504   9.480 -0.4760 -0.1692  0.0926
  681MOL0     C89764   6.347   1.580   9.531 -0.9278 -1.6469 -0.0920
  681MOL0     C89765   6.278   1.669   9.439  0.8443  0.2879 -1.0311
  681MOL0     C89766   6.168   1.744   9.489 -0.4072  0.9499  0.8932
  681MOL0     C89767   6.146   1.757   9.627  0.5441  0.2477  0.8479
  681MOL0     O89768   6.053   1.850   9.675 -0.5176 -0.0101 -0.3948
  681MOL0     C89769   6.014   1.844   9.814 -0.1704  0.5206  0.8203
  681MOL0     C89770   5.905   1.941   9.851  0.1422  0.3519 -0.1173
  681MOL0     C89771   5.761   1.908   9.800  0.1185 -0.2601 -0.9092
  681MOL0     C89772   5.735   1.979   9.674 -0.6833 -0.1423  0.9012
  681MOL0     C89773   5.589   1.952   9.633  0.6850 -0.2036 -0.1633
  681MOL0     C89774   5.541   2.038   9.516 -0.3880  0.4604 -0.1533
  681MOL0     C89775   5.627   2.022   9.391  0.0409 -0.6123 -0.3195
  681MOL0     C89776   5.621   2.161   9.312 -0.1146  0.5089  0.0955
  681MOL0     N89777   5.689   2.148   9.186 -0.0142 -1.1574 -0.2979
  681MOL0     C89778   5.646   2.091   9.068 -0.2405  0.3114 -0.2352
  681MOL0     C89779   5.741   2.116   8.973  0.1481  0.6259 -0.5285
  681MOL0     C89780   5.726   2.094   8.825  0.1583 -0.0767 -0.1834
  681MOL0     C89781   5.750   1.945   8.788  0.6756 -0.1298  0.2330
  681MOL0     C89782   5.705   1.917   8.645 -0.2853  0.7534  0.1080
  681MOL0     C89783   5.744   2.017   8.535 -0.7127 -0.5006 -0.4115
  681MOL0     O89784   5.650   2.115   8.534  0.5771 -0.0906  0.7828
  681MOL0     C89785   5.646   2.201   8.425  0.1330 -0.9864 -0.8833
  681MOL0     C89786   5.744   2.231   8.335 -0.3936 -0.6178  0.3647
  681MOL0     C89787   5.722   2.301   8.222 -0.0673  0.2212  0.4036
  681MOL0     C89788   5.598   2.356   8.189  0.2642  0.3336  0.8022
  681MOL0     C89789   5.575   2.442   8.066  0.1272  0.5313 -0.2521
  681MOL0     O89790   5.688   2.480   7.984 -0.7346 -0.5034 -0.5393
  681MOL0     C89791   5.667   2.572   7.888  0.8073  0.1188  0.6786
  681MOL0     C89792   5.693   2.538   7.759  0.8841 -0.2011 -0.3120
  681MOL0     C89793   5.680   2.631   7.664 -0.6479 -0.6782  1.2473
  681MOL0     C89794   5.668   2.770   7.692  0.8669  0.4597 -0.4804
  681MOL0     O89795   5.642   2.866   7.599 -0.3373 -0.9033 -0.6164
  681MOL0     C89796   5.648   2.846   7.464  0.4031 -0.6887 -0.2839
  681MOL0     C89797   5.564   2.955   7.390 -0.1308  1.0729  0.5356
  681MOL0     C89798   5.582   2.949   7.232  0.4669  0.9305  0.0926
  681MOL0     C89799   5.477   3.036   7.173  0.0030 -0.4123  0.3956
  681MOL0     C89800   5.400   2.959   7.057 -0.6395 -0.1097  0.3956
  681MOL0     C89801   5.276   3.025   6.994 -0.0111 -1.2856 -1.0873
  681MOL0     C89802   5.213   2.938   6.887  0.2062  0.4199  0.0694
  681MOL0     C89803   5.178   3.024   6.767  0.5528  0.0790 -0.4054
  681MOL0    Cl89804   5.348   3.078   6.724 -0.3394  0.0636 -0.3941
  681MOL0     C89805   5.668   2.808   7.825  0.3635 -0.0450  0.1939
  681MOL0     C89806   5.666   2.706   7.921  0.4204  0.4440 -0.4162
  681MOL0     O89807   5.458   2.469   8.047  0.8595  0.3438  0.7719
  681MOL0     C89808   5.501   2.342   8.285 -0.3124  0.3415  0.2327
  681MOL0     C89809   5.525   2.263   8.401 -0.2099 -0.2369  0.7312
  681MOL0     N89810   5.843   2.185   9.047  0.3226 -0.5092 -1.2037
  681MOL0     N89811   5.811   2.208   9.172 -0.0436 -0.7644  0.3174
  681MOL0     C89812   6.221   1.675   9.708 -0.8162  0.1332 -0.9606
  681MOL0     C89813   6.317   1.587   9.663 -0.1944  1.1791  1.0435
  681MOL0     C89814   6.544   1.286   9.422  0.3421 -1.0945  0.0049
  681MOL0     C89815   6.672   1.337   9.418 -0.5458 -0.6970  0.1791
  681MOL0     C89816   6.788   1.264   9.408 -0.4876  0.9292 -0.3485
  681MOL0     C89817   6.776   1.124   9.386  0.0913  0.5552 -0.0012
  681MOL0     O89818   6.875   1.031   9.373 -0.3409 -0.2324  0.1417
  681MOL0     C89819   7.013   1.063   9.389 -0.1970 -0.1142 -0.5439
  681MOL0     C89820   7.069   1.130   9.260 -0.1206  0.1093 -0.5219
  681MOL0     C89821   7.218   1.160   9.282  0.7450 -0.7942 -0.2183
  681MOL0     C89822   7.259   1.282   9.364 -0.0722  0.0688  0.7033
  681MOL0     C89823   7.403   1.270   9.365 -0.1896  0.3184  0.0027
  681MOL0     C89824   7.528   1.261   9.357 -0.5586 -0.6092 -0.1261
  681MOL0     C89825   6.646   1.071   9.379 -0.5822 -0.3505  0.1433
  681MOL0     C89826   6.533   1.150   9.398 -0.6554  0.1250 -0.0446
  681MOL0     H89827   6.305   1.664   9.333  2.0713  2.6602 -0.9090
  681MOL0     H89828   6.103   1.794   9.418 -1.9799  0.1129  1.6983
  681MOL0     H89829   6.096   1.873   9.881 -0.3266  4.1264 -0.3436
  681MOL0     H89830   5.978   1.743   9.832 -0.1404  0.7201  2.1559
  681MOL0     H89831   5.935   2.044   9.827 -0.9380  1.0608  1.4336
  681MOL0     H89832   5.892   1.948   9.959  3.4578 -0.3691  0.4321
  681MOL0     H89833   5.685   1.938   9.873 -0.2025 -1.8161 -0.5805
  681MOL0     H89834   5.752   1.800   9.794  1.5361 -0.4416 -0.0473
  681MOL0     H89835   5.752   2.087   9.682 -0.4281  0.1370 -2.1192
  681MOL0     H89836   5.805   1.942   9.598 -0.6819  3.1453 -0.8850
  681MOL0     H89837   5.509   1.952   9.708 -0.9257 -1.9863 -1.7643
  681MOL0     H89838   5.585   1.847   9.600 -1.0043 -0.3131  0.3266
  681MOL0     H89839   5.538   2.142   9.549 -1.0591 -0.2218  2.1362
  681MOL0     H89840   5.440   2.009   9.486 -0.4116 -0.5367  0.8209
  681MOL0     H89841   5.733   2.000   9.402  0.4874  1.7468  0.5395
  681MOL0     H89842   5.587   1.944   9.325  0.1215 -1.8675  1.0724
  681MOL0     H89843   5.657   2.249   9.366  4.4395 -1.1505  0.1633
  681MOL0     H89844   5.515   2.182   9.291  0.9517  4.1277 -2.7085
  681MOL0     H89845   5.550   2.054   9.036 -0.2972  1.9266 -2.1087
  681MOL0     H89846   5.802   2.154   8.773 -0.4879  0.0358 -1.0177
  681MOL0     H89847   5.630   2.133   8.789  1.0220  3.9256  1.2755
  681MOL0     H89848   5.697   1.876   8.853  0.9704 -0.5787  0.0094
  681MOL0     H89849   5.854   1.912   8.793  0.1401 -2.1149 -0.7760
  681MOL0     H89850   5.731   1.812   8.626 -2.8128 -0.6255  3.3378
  681MOL0     H89851   5.596   1.914   8.643 -0.2783 -0.1300  0.4076
  681MOL0     H89852   5.756   1.961   8.442  2.8411  1.6782 -1.4403
  681MOL0     H89853   5.840   2.061   8.562 -2.1831  1.1644  2.7869
  681MOL0     H89854   5.842   2.184   8.340 -1.5649 -3.2039  0.8674
  681MOL0     H89855   5.799   2.305   8.146  1.2494  0.0680  1.6764
  681MOL0     H89856   5.713   2.433   7.743 -1.7076 -1.0408  1.2550
  681MOL0     H89857   5.680   2.593   7.562 -1.6989  2.5402 -0.0768
  681MOL0     H89858   5.612   2.752   7.421 -0.2643 -0.2713 -0.6392
  681MOL0     H89859   5.756   2.848   7.443  0.5863 -2.1175  0.4160
  681MOL0     H89860   5.582   3.058   7.423  1.0798  0.5325  1.6352
  681MOL0     H89861   5.457   2.938   7.407  0.3990 -2.2153  1.2098
  681MOL0     H89862   5.565   2.845   7.204  4.8951  0.3978 -1.3796
  681MOL0     H89863   5.679   2.976   7.188 -0.3189  0.5104 -1.9897
  681MOL0     H89864   5.396   3.062   7.241 -0.3262 -0.7017  0.1171
  681MOL0     H89865   5.521   3.130   7.137 -2.2639  1.4823  2.2477
  681MOL0     H89866   5.354   2.868   7.097 -1.7496  0.2300 -0.0545
  681MOL0     H89867   5.471   2.920   6.983 -2.6242  2.0692 -2.9093
  681MOL0     H89868   5.306   3.126   6.966 -1.2279 -1.0306 -1.5190
  681MOL0     H89869   5.207   3.036   7.079  1.7410 -0.8709  0.3553
  681MOL0     H89870   5.297   2.874   6.857 -0.6308 -0.7997  0.2436
  681MOL0     H89871   5.124   2.880   6.914  0.7051 -0.1777  0.4732
  681MOL0     H89872   5.113   3.106   6.800 -1.3095 -2.7953  3.8585
  681MOL0     H89873   5.130   2.959   6.694 -0.8770  2.0209 -1.2622
  681MOL0     H89874   5.658   2.914   7.844 -0.1397 -0.1806  0.7000
  681MOL0     H89875   5.654   2.732   8.026  2.9805 -1.9395  0.5961
  681MOL0     H89876   5.406   2.394   8.278 -1.0422 -0.6295  2.1917
  681MOL0     H89877   5.448   2.241   8.475 -1.1348  3.4996  1.0958
  681MOL0     H89878   6.208   1.691   9.814 -1.2479  0.6341 -1.0854
  681MOL0     H89879   6.389   1.528   9.718  3.2144  2.9334 -1.2086
  681MOL0     H89880   6.674   1.445   9.426  1.2316 -0.7102  0.4630
  681MOL0     H89881   6.883   1.315   9.393  0.9335 -0.8356  1.9323
  681MOL0     H89882   7.069   0.974   9.419 -0.3099  0.3772  1.2110
  681MOL0     H89883   7.010   1.129   9.476  1.0224  0.9385 -1.2577
  681MOL0     H89884   7.053   1.063   9.175  0.3943 -1.7230  0.7593
  681MOL0     H89885   7.028   1.229   9.239 -0.5981  0.2463  0.9513
  681MOL0     H89886   7.244   1.192   9.181 -0.8520  2.6026  0.3067
  681MOL0     H89887   7.270   1.070   9.315  2.0574  0.7361  2.1206
  681MOL0     H89888   7.238   1.379   9.319  1.3831 -0.6455 -1.6568
  681MOL0     H89889   7.213   1.278   9.464 -0.7602  2.6252  0.5666
  681MOL0     H89890   7.634   1.249   9.350 -0.6985 -1.7291 -0.4638
  681MOL0     H89891   6.631   0.965   9.362  0.4685 -1.1124  3.2612
  681MOL0     H89892   6.438   1.099   9.410 -1.9517  2.8057  1.9978
  682MOL0     O89893   6.014   8.829   7.915 -0.4239  0.6703  0.3018
  682MOL0     C89894   6.018   8.712   7.877  0.6139 -0.8506 -0.6252
  682MOL0     O89895   6.020   8.675   7.743 -0.8014 -0.1913 -0.6322
  682MOL0     C89896   6.022   8.773   7.651  0.8188 -0.2628  0.7184
  682MOL0     C89897   5.911   8.801   7.572 -0.5460  0.2663  0.6234
  682MOL0     C89898   5.906   8.905   7.480 -0.2648 -0.2779  0.9181
  682MOL0     C89899   6.020   8.992   7.471 -0.3454 -0.4956 -0.6302
  682MOL0     O89900   6.015   9.106   7.392 -0.2555  0.3251 -0.3741
  682MOL0     C89901   6.009   9.061   7.253  0.0003 -0.0512 -0.0514
  682MOL0     C89902   6.002   9.181   7.160  0.1041  0.3604  0.2814
  682MOL0     C89903   6.143   9.224   7.122 -0.1295  0.2454  1.0841
  682MOL0     C89904   6.145   9.348   7.033  0.5743  1.0658 -0.2149
  682MOL0     C89905   6.287   9.392   6.993  0.6123 -0.7148 -0.0552
  682MOL0     C89906   6.267   9.528   6.913 -0.8631 -0.6089  0.2989
  682MOL0     C89907   6.399   9.588   6.858  0.7171 -0.7903 -0.0415
  682MOL0     C89908   6.451   9.509   6.738 -0.1989  0.4596 -0.0323
  682MOL0     N89909   6.586   9.546   6.686 -0.0739 -0.1424  0.3638
  682MOL0     C89910   6.617   9.668   6.627 -0.1918  0.3293  0.2598
  682MOL0     C89911   6.750   9.641   6.595  0.4379 -0.2104 -0.3235
  682MOL0     C89912   6.828   9.743   6.511  0.8212  1.2447 -0.4116
  682MOL0     C89913   6.934   9.833   6.575  0.9257 -0.7381 -0.8716
  682MOL0     C89914   7.068   9.760   6.577 -0.4169 -0.2379 -0.2624
  682MOL0     C89915   7.162   9.769   6.451 -0.0769 -0.5899 -0.0963
  682MOL0     O89916   7.216   9.903   6.428  0.5585  0.3065 -0.6968
  682MOL0     C89917   7.336   9.917   6.367 -1.5153 -0.4188  0.0556
  682MOL0     C89918   7.356   9.868   6.231 -0.3976 -0.1888  0.5394
  682MOL0     C89919   7.475   9.884   6.173 -0.3786 -0.0286  0.8276
  682MOL0     C89920   7.579   9.964   6.226 -0.0065 -0.3433 -0.1305
  682MOL0     C89921   7.688  10.026   6.148 -0.0202  0.3014  1.2463
  682MOL0     O89922   7.770  10.113   6.213 -0.0097 -0.7189 -0.1841
  682MOL0     C89923   7.884  10.156   6.156 -0.3980 -0.3927 -0.6904
  682MOL0     C89924   7.986  10.069   6.129  0.2313  0.1221 -0.3428
  682MOL0     C89925   8.092  10.115   6.047 -0.9620  0.6082  0.8066
  682MOL0     C89926   8.102  10.248   6.005 -0.2527  0.6500 -0.2331
  682MOL0     O89927   8.205  10.308   5.941 -0.0185  0.0968  0.2652
  682MOL0     C89928   8.335  10.247   5.912  0.2358 -0.5659 -0.5625
  682MOL0     C89929   8.435  10.359   5.903 -0.5864 -0.0706  0.9097
  682MOL0     C89930   8.574  10.300   5.902 -0.0460 -0.3541  0.3369
  682MOL0     C89931   8.673  10.410   5.903  0.8257  0.5481 -0.9080
  682MOL0     C89932   8.811  10.343   5.924 -0.3288  0.2491 -0.2004
  682MOL0     C89933   8.926  10.428   5.862  0.0483  0.0827 -0.9263
  682MOL0     C89934   9.057  10.368   5.932 -0.5645  0.8912  0.5325
  682MOL0     C89935   9.192  10.412   5.864  0.1733 -0.7931  0.1529
  682MOL0    Cl89936   9.322  10.345   5.962 -0.4108  0.5792 -0.4123
  682MOL0     C89937   7.998  10.334   6.043  1.1831 -0.7177  0.6295
  682MOL0     C89938   7.885  10.286   6.110  0.0655 -0.6673 -0.6942
  682MOL0     O89939   7.713   9.988   6.032 -0.3962 -0.2354  0.0927
  682MOL0     C89940   7.563  10.008   6.362 -0.7898  0.4587 -0.4810
  682MOL0     C89941   7.441   9.978   6.428  0.0701  0.4248 -0.4327
  682MOL0     N89942   6.793   9.509   6.627  0.2582 -0.3481 -0.2407
  682MOL0     N89943   6.692   9.458   6.681 -0.1258  0.1686  0.8481
  682MOL0     C89944   6.122   8.973   7.564 -0.3831 -0.5240  0.4192
  682MOL0     C89945   6.129   8.865   7.644  0.4198  0.3875  1.1950
  682MOL0     C89946   6.022   8.594   7.974 -0.2689  1.5793  0.4445
  682MOL0     C89947   6.105   8.585   8.086  0.1091  0.7858  0.4071
  682MOL0     C89948   6.085   8.473   8.174 -0.4001 -1.0094  0.4596
  682MOL0     C89949   5.983   8.380   8.166 -0.0674  0.2119  0.7883
  682MOL0     O89950   5.975   8.276   8.256 -0.2539 -0.1721  0.6465
  682MOL0     C89951   5.900   8.161   8.225 -0.9357  0.8023 -0.4362
  682MOL0     C89952   5.904   8.038   8.322  0.3970  0.8439 -0.4592
  682MOL0     C89953   5.845   8.064   8.469 -0.0026 -0.0301 -0.1605
  682MOL0     C89954   5.859   7.929   8.548 -0.2101  0.0279 -0.4886
  682MOL0     C89955   5.742   7.845   8.529  0.3327 -0.5269 -0.0363
  682MOL0     C89956   5.659   7.758   8.501 -0.5454 -0.0736  0.0549
  682MOL0     C89957   5.907   8.390   8.049  0.0059 -0.2286  0.7422
  682MOL0     C89958   5.919   8.493   7.958 -0.0931 -0.6706 -0.6584
  682MOL0     H89959   5.818   8.746   7.581  0.3921 -1.0680  3.5081
  682MOL0     H89960   5.814   8.927   7.427  0.0741  1.3565  0.9398
  682MOL0     H89961   5.922   8.995   7.242 -1.4035  1.5057  1.1310
  682MOL0     H89962   6.099   9.005   7.228 -0.5696 -0.3472 -1.5839
  682MOL0     H89963   5.939   9.266   7.188 -0.6596  0.6474 -2.0994
  682MOL0     H89964   5.947   9.149   7.071  1.0165  1.9667 -0.9126
  682MOL0     H89965   6.193   9.138   7.077  2.4468  2.8157 -1.4095
  682MOL0     H89966   6.201   9.248   7.212 -0.3857 -0.2117  1.3692
  682MOL0     H89967   6.090   9.308   6.948  3.0666 -2.5442 -0.3586
  682MOL0     H89968   6.073   9.421   7.071 -1.5799 -1.5429  1.0570
  682MOL0     H89969   6.343   9.313   6.942 -0.0977 -1.0331 -0.3622
  682MOL0     H89970   6.344   9.411   7.084 -0.5833  2.0609  0.2003
  682MOL0     H89971   6.220   9.599   6.982 -0.0070 -0.2107  0.4937
  682MOL0     H89972   6.191   9.515   6.836 -1.8985  0.5750  1.0784
  682MOL0     H89973   6.387   9.694   6.834  2.8859 -0.5263 -0.1545
  682MOL0     H89974   6.475   9.603   6.935 -0.5576  3.5887  0.6463
  682MOL0     H89975   6.380   9.514   6.656 -1.1857  1.3582  0.8525
  682MOL0     H89976   6.450   9.411   6.786  2.2862  1.0777  1.4697
  682MOL0     H89977   6.565   9.762   6.614  2.4722  2.0879  1.3167
  682MOL0     H89978   6.756   9.806   6.459 -0.7072  0.9166  1.2120
  682MOL0     H89979   6.883   9.691   6.431 -2.5682 -3.4595 -0.1071
  682MOL0     H89980   6.889   9.860   6.671  3.1872 -2.6249  0.8377
  682MOL0     H89981   6.946   9.927   6.520  3.3120 -0.3057  0.2734
  682MOL0     H89982   7.137   9.801   6.651 -1.5883 -0.0481  0.7718
  682MOL0     H89983   7.045   9.661   6.619 -0.0544 -1.1476 -2.1223
  682MOL0     H89984   7.104   9.744   6.361 -5.4330 -0.7688  2.9794
  682MOL0     H89985   7.244   9.698   6.468  1.7709  2.0034  2.7309
  682MOL0     H89986   7.267   9.823   6.189 -3.0307  3.8942  1.1807
  682MOL0     H89987   7.490   9.838   6.076 -2.1899 -0.7708  0.8660
  682MOL0     H89988   7.979   9.967   6.164  0.9757  0.2020  0.0650
  682MOL0     H89989   8.169  10.045   6.016  0.2517  1.8819  0.8279
  682MOL0     H89990   8.335  10.189   5.819 -3.3258 -1.2694 -0.2498
  682MOL0     H89991   8.366  10.182   5.994 -1.5983 -1.5112 -0.5785
  682MOL0     H89992   8.426  10.425   5.989  3.0244  1.6691  0.1217
  682MOL0     H89993   8.418  10.432   5.823 -3.3450  0.8747  2.2448
  682MOL0     H89994   8.591  10.249   5.807  0.3653  3.4711 -1.8937
  682MOL0     H89995   8.582  10.229   5.985  0.7757  1.8022  2.2258
  682MOL0     H89996   8.673  10.468   5.810  2.8149  1.9199 -0.1238
  682MOL0     H89997   8.650  10.478   5.985 -4.5007 -2.2876  0.4333
  682MOL0     H89998   8.809  10.247   5.872 -3.1178  0.1858 -0.1103
  682MOL0     H89999   8.826  10.335   6.032  1.6075  1.9832 -0.2739
  682MOL0     H90000   8.916  10.531   5.897 -1.5934 -0.7786  1.3710
  682MOL0     H90001   8.936  10.422   5.753 -1.5999 -0.8133 -1.0575
  682MOL0     H90002   9.051  10.385   6.040 -0.7430  1.4122  0.4439
  682MOL0     H90003   9.053  10.260   5.916 -0.0352  1.1249 -1.3873
  682MOL0     H90004   9.205  10.520   5.860 -1.5589 -0.5312  0.9100
  682MOL0     H90005   9.195  10.366   5.764  0.9730 -2.4353  0.9013
  682MOL0     H90006   8.007  10.438   6.015 -1.3238 -1.5038 -4.1299
  682MOL0     H90007   7.800  10.351   6.130 -0.7554 -2.1245  0.8184
  682MOL0     H90008   7.633  10.079   6.406 -1.1989  0.5247  0.0751
  682MOL0     H90009   7.430  10.012   6.530  1.1245  2.0508 -0.8201
  682MOL0     H90010   6.197   9.051   7.562 -1.0132  0.2000  2.7130
  682MOL0     H90011   6.207   8.840   7.715  1.4203  1.2868  0.4345
  682MOL0     H90012   6.190   8.649   8.107  3.6141 -3.7615  1.8130
  682MOL0     H90013   6.146   8.483   8.263 -0.7642  2.2622  0.4527
  682MOL0     H90014   5.921   8.140   8.120  0.0505  0.5034 -0.1851
  682MOL0     H90015   5.795   8.190   8.243 -0.2196  2.3765  1.6509
  682MOL0     H90016   5.847   7.961   8.269  0.7146  0.8105 -0.7623
  682MOL0     H90017   6.008   8.005   8.335  0.8018  1.1342 -2.4895
  682MOL0     H90018   5.737   8.077   8.458 -0.2446 -1.6717  0.1570
  682MOL0     H90019   5.900   8.142   8.523  1.1949 -1.1738  0.3212
  682MOL0     H90020   5.951   7.882   8.512 -0.9599 -2.2875  0.4071
  682MOL0     H90021   5.881   7.948   8.654  2.0136  1.6088 -1.1505
  682MOL0     H90022   5.572   7.696   8.498 -0.8039 -0.1150  3.5997
  682MOL0     H90023   5.838   8.310   8.025  2.9446 -2.8879  0.5146
  682MOL0     H90024   5.847   8.490   7.877  1.1590 -1.6821 -1.7768
  683MOL0     O90025   6.227   1.482  10.939 -0.2278 -0.7041 -0.3840
  683MOL0     C90026   6.330   1.428  10.904  0.4795  0.2989 -0.0745
  683MOL0     O90027   6.448   1.490  10.872  0.0572  0.2847  0.2165
  683MOL0     C90028   6.472   1.630  10.873 -0.3642 -1.1176  0.0150
  683MOL0     C90029   6.512   1.702  10.758  0.2033 -0.7260  0.2023
  683MOL0     C90030   6.543   1.840  10.750  0.0737 -0.5815 -0.1015
  683MOL0     C90031   6.504   1.918  10.865  0.3989  0.2781 -0.1347
  683MOL0     O90032   6.511   2.055  10.879 -0.1431 -0.8086  0.4414
  683MOL0     C90033   6.542   2.130  10.765  0.3063 -0.8149 -0.0122
  683MOL0     C90034   6.417   2.146  10.675 -0.2481 -0.3372  0.2492
  683MOL0     C90035   6.453   2.194  10.530  0.3865 -0.0485 -0.0704
  683MOL0     C90036   6.323   2.246  10.465  0.1106  0.9443 -1.0649
  683MOL0     C90037   6.332   2.283  10.316  0.3487  0.3387 -0.3704
  683MOL0     C90038   6.203   2.342  10.262 -0.6602  0.1553  0.2036
  683MOL0     C90039   6.156   2.470  10.332 -0.6540  0.2527  0.1338
  683MOL0     C90040   6.243   2.588  10.304 -0.4080 -0.3607 -0.7153
  683MOL0     N90041   6.291   2.658  10.426 -0.1129 -0.0055 -0.7096
  683MOL0     C90042   6.227   2.748  10.505 -0.4436  0.5802  0.2085
  683MOL0     C90043   6.306   2.762  10.613  0.5233  0.2342 -0.5628
  683MOL0     C90044   6.311   2.868  10.727  0.1431  0.2297  0.3934
  683MOL0     C90045   6.367   2.996  10.659  0.1897  0.5571 -0.0756
  683MOL0     C90046   6.506   2.980  10.579  0.6059  0.0309 -0.8325
  683MOL0     C90047   6.548   3.109  10.512  0.4348  0.4166 -0.4750
  683MOL0     O90048   6.582   3.207  10.612 -0.5304 -0.0145  0.5442
  683MOL0     C90049   6.523   3.329  10.599 -0.8329 -0.0330  0.1816
  683MOL0     C90050   6.538   3.414  10.486 -0.2979  0.8070 -0.2041
  683MOL0     C90051   6.485   3.543  10.484 -0.0951  0.7177  0.2178
  683MOL0     C90052   6.396   3.578  10.583 -0.0363 -0.3718  0.1364
  683MOL0     C90053   6.340   3.716  10.582 -1.0750  0.1038 -0.1431
  683MOL0     O90054   6.258   3.744  10.683 -0.0238 -0.6875 -0.8494
  683MOL0     C90055   6.227   3.878  10.698  0.5751  0.8971 -0.5027
  683MOL0     C90056   6.327   3.970  10.724 -0.4967 -0.7783 -0.2631
  683MOL0     C90057   6.291   4.093  10.777 -0.8792  0.1459 -0.6674
  683MOL0     C90058   6.164   4.119  10.824  0.7817 -0.5661  0.9478
  683MOL0     O90059   6.140   4.232  10.892 -1.3788 -0.1209  0.1543
  683MOL0     C90060   6.132   4.214  11.031  0.3528  0.0682  0.4512
  683MOL0     C90061   6.183   4.331  11.104  0.6038 -0.8794  0.2490
  683MOL0     C90062   6.097   4.459  11.093  0.3423  0.4980 -0.0620
  683MOL0     C90063   5.980   4.450  11.197  0.4376 -0.2416 -0.5585
  683MOL0     C90064   5.922   4.590  11.211 -0.9085  0.5547  0.4067
  683MOL0     C90065   5.851   4.611  11.344  0.2663  0.7543  0.0190
  683MOL0     C90066   5.835   4.761  11.356  0.5611 -0.4433 -0.1400
  683MOL0     C90067   5.783   4.783  11.496  0.4565 -0.1207 -0.0705
  683MOL0    Cl90068   5.769   4.954  11.549 -0.1834  0.1660  0.1883
  683MOL0     C90069   6.068   4.024  10.810 -0.1585  0.0362  0.6446
  683MOL0     C90070   6.093   3.907  10.734 -0.1506 -0.2268  0.7619
  683MOL0     O90071   6.383   3.793  10.497  0.6003  0.5882  0.6641
  683MOL0     C90072   6.367   3.490  10.688  0.9739  0.5260  0.4759
  683MOL0     C90073   6.443   3.368  10.701  1.2940  0.1390 -0.5255
  683MOL0     N90074   6.404   2.665  10.609 -0.2068 -0.1564  1.0197
  683MOL0     N90075   6.384   2.598  10.505 -0.1735 -0.5132  0.8142
  683MOL0     C90076   6.454   1.851  10.971  1.5844 -0.5236 -0.0841
  683MOL0     C90077   6.428   1.706  10.978 -1.5545  0.7455 -0.6597
  683MOL0     C90078   6.324   1.281  10.874  1.3848  0.3895  0.4465
  683MOL0     C90079   6.216   1.200  10.922  0.0130 -0.7459  0.6756
  683MOL0     C90080   6.209   1.067  10.880  0.1568  0.2316  0.2853
  683MOL0     C90081   6.296   1.024  10.779  0.0134 -0.5927 -0.4452
  683MOL0     O90082   6.279   0.905  10.720 -0.2210 -0.4883  0.4652
  683MOL0     C90083   6.151   0.831  10.742  0.9703 -0.5429 -0.2198
  683MOL0     C90084   6.145   0.703  10.651 -0.1100 -0.1226 -0.3766
  683MOL0     C90085   6.016   0.625  10.662  0.0981 -0.6766  1.0858
  683MOL0     C90086   6.032   0.542  10.790  0.3422  0.2402  0.5325
  683MOL0     C90087   5.909   0.461  10.826  0.1169  0.7827 -1.1709
  683MOL0     C90088   5.818   0.380  10.845  1.1839 -0.2708  0.2744
  683MOL0     C90089   6.399   1.100  10.737 -0.5007 -0.1176 -0.0895
  683MOL0     C90090   6.420   1.227  10.792 -0.2845  1.2353 -0.2368
  683MOL0     H90091   6.545   1.647  10.670  2.7950  2.2803 -0.8956
  683MOL0     H90092   6.587   1.891  10.664  1.9439 -0.1300  1.0672
  683MOL0     H90093   6.633   2.099  10.713 -0.2764  0.0674 -1.6421
  683MOL0     H90094   6.576   2.231  10.790  0.9482 -1.0200 -0.0350
  683MOL0     H90095   6.354   2.212  10.737  0.6247 -2.1468  3.2662
  683MOL0     H90096   6.365   2.050  10.674 -1.6569  0.3624  1.4954
  683MOL0     H90097   6.499   2.126  10.459  1.9766  0.8859  0.0191
  683MOL0     H90098   6.521   2.280  10.532  0.7469 -0.3416  1.2126
  683MOL0     H90099   6.270   2.151  10.459  1.3058  0.1218  0.6229
  683MOL0     H90100   6.267   2.310  10.534  0.3397 -1.4812  1.5522
  683MOL0     H90101   6.335   2.190  10.258 -2.0882 -1.6681  2.4414
  683MOL0     H90102   6.418   2.349  10.299 -0.4184  1.2396 -0.8220
  683MOL0     H90103   6.119   2.272  10.265  0.4666 -1.7473 -4.0445
  683MOL0     H90104   6.232   2.369  10.160  0.8084 -4.5797 -0.8982
  683MOL0     H90105   6.054   2.491  10.301 -0.6736 -0.2734 -0.1692
  683MOL0     H90106   6.145   2.449  10.439  0.1444 -1.3543 -0.0553
  683MOL0     H90107   6.199   2.653  10.227 -1.4072 -2.3896 -1.9504
  683MOL0     H90108   6.329   2.542  10.254  0.3130  0.7774 -0.5739
  683MOL0     H90109   6.138   2.805  10.478 -1.6967 -0.1989  2.4855
  683MOL0     H90110   6.363   2.840  10.820  2.2032  1.6072 -0.2728
  683MOL0     H90111   6.211   2.897  10.760 -0.6435 -0.4087 -1.3285
  683MOL0     H90112   6.402   3.067  10.735  4.3607 -0.2663 -0.9817
  683MOL0     H90113   6.292   3.046  10.597 -0.6272 -0.8856 -0.2848
  683MOL0     H90114   6.574   2.941  10.655  1.6126 -1.1602 -2.2697
  683MOL0     H90115   6.483   2.912  10.496 -1.3906  1.9810 -1.9912
  683MOL0     H90116   6.468   3.139  10.443  0.9516  0.9876 -0.8469
  683MOL0     H90117   6.633   3.085  10.448  2.3603 -2.5895  2.8586
  683MOL0     H90118   6.610   3.382  10.412 -2.4839  1.9393 -2.9934
  683MOL0     H90119   6.511   3.604  10.398 -0.1070  2.0091  1.0898
  683MOL0     H90120   6.432   3.959  10.699 -0.7515 -2.1448 -0.8243
  683MOL0     H90121   6.361   4.170  10.807  0.7117 -1.7677  0.8335
  683MOL0     H90122   6.182   4.124  11.066 -0.4956 -0.0278  1.4728
  683MOL0     H90123   6.026   4.203  11.056 -0.1355  2.0811 -0.4941
  683MOL0     H90124   6.277   4.358  11.056  0.4876 -0.6428  0.1522
  683MOL0     H90125   6.196   4.300  11.208 -2.2606 -1.3137  0.5738
  683MOL0     H90126   6.067   4.490  10.993 -0.3131 -0.2397 -0.1008
  683MOL0     H90127   6.156   4.548  11.119 -2.5089  2.3491  0.5684
  683MOL0     H90128   5.914   4.363  11.186  0.7417 -0.6256  0.5262
  683MOL0     H90129   6.035   4.429  11.290  0.2302 -0.3348 -0.4562
  683MOL0     H90130   5.852   4.601  11.127  0.1726  1.6016 -0.3927
  683MOL0     H90131   6.002   4.663  11.193 -1.5650  1.1945  0.0329
  683MOL0     H90132   5.928   4.583  11.417  1.2713 -0.4317 -1.4395
  683MOL0     H90133   5.757   4.557  11.355 -0.4097  1.9827  0.4734
  683MOL0     H90134   5.925   4.822  11.344 -0.3973  0.9405 -0.4704
  683MOL0     H90135   5.753   4.790  11.290 -0.2072  1.4809  1.5954
  683MOL0     H90136   5.849   4.732  11.568 -0.6811 -0.2539  0.9203
  683MOL0     H90137   5.688   4.731  11.486  1.3404 -1.5758 -1.2945
  683MOL0     H90138   5.972   4.045  10.855 -0.7837 -0.7767 -0.2718
  683MOL0     H90139   6.012   3.841  10.705 -1.3293  1.7304 -0.6794
  683MOL0     H90140   6.301   3.513  10.771 -1.0371 -1.4798 -0.4790
  683MOL0     H90141   6.439   3.306  10.790 -2.5723 -0.6117 -1.0373
  683MOL0     H90142   6.418   1.906  11.058 -1.0451 -0.4639 -1.1090
  683MOL0     H90143   6.397   1.663  11.073  1.8037 -0.0630  0.2016
  683MOL0     H90144   6.140   1.236  10.990  1.2736  0.4147  1.5129
  683MOL0     H90145   6.127   1.014  10.928 -2.0501  1.4775 -1.9290
  683MOL0     H90146   6.065   0.896  10.723  0.2184 -0.7349  2.1186
  683MOL0     H90147   6.139   0.797  10.845  0.4477 -2.6763 -0.9435
  683MOL0     H90148   6.147   0.724  10.544 -3.2640  1.6360 -0.2099
  683MOL0     H90149   6.235   0.644  10.674 -0.1528  0.2697  0.9147
  683MOL0     H90150   6.003   0.571  10.568 -2.8521  4.3458 -1.8681
  683MOL0     H90151   5.933   0.696  10.663 -0.4156 -1.2672  1.2842
  683MOL0     H90152   6.117   0.475  10.776 -1.8081 -2.0281 -3.1771
  683MOL0     H90153   6.055   0.598  10.881  1.5309 -1.8819  1.6166
  683MOL0     H90154   5.747   0.304  10.867  2.5592 -1.4486  0.8104
  683MOL0     H90155   6.466   1.049  10.669  0.2824 -0.3656  0.8388
  683MOL0     H90156   6.507   1.285  10.764  0.2114  1.6926  2.0328
  684MOL0     O90157   4.168   0.766  10.859  0.2991 -0.2210 -0.1788
  684MOL0     C90158   4.281   0.824  10.879  0.3186 -0.3239  1.0873
  684MOL0     O90159   4.293   0.956  10.915 -0.7093  0.1222 -0.8153
  684MOL0     C90160   4.175   1.022  10.920 -0.1343 -0.3608  0.8869
  684MOL0     C90161   4.073   1.001  11.020  0.3435 -0.6512  0.3256
  684MOL0     C90162   3.953   1.077  11.016  0.1745 -0.5637  0.5699
  684MOL0     C90163   3.939   1.175  10.912  0.3538  0.6956 -0.2950
  684MOL0     O90164   3.826   1.252  10.905 -0.9160 -0.4338 -0.2912
  684MOL0     C90165   3.701   1.179  10.902 -0.3917 -0.0903  0.6138
  684MOL0     C90166   3.591   1.285  10.906  0.0671  0.2254 -0.0815
  684MOL0     C90167   3.456   1.218  10.872  0.2152  0.4281  0.2715
  684MOL0     C90168   3.355   1.323  10.914  1.1769 -0.4434 -0.5416
  684MOL0     C90169   3.277   1.388  10.795  0.9992  0.7514  0.4220
  684MOL0     C90170   3.201   1.288  10.708 -0.1720 -0.0833  0.0380
  684MOL0     C90171   3.120   1.334  10.587  1.1708 -0.4905  0.5159
  684MOL0     C90172   3.185   1.372  10.457 -0.3479 -0.3493  0.4383
  684MOL0     N90173   3.071   1.426  10.385 -0.2159  0.5962  0.5985
  684MOL0     C90174   3.040   1.553  10.374  0.0935  0.3038  0.2120
  684MOL0     C90175   2.977   1.568  10.250 -0.8336  0.3097 -0.0370
  684MOL0     C90176   2.921   1.690  10.179  0.7253 -0.0822 -0.1828
  684MOL0     C90177   2.938   1.822  10.253 -0.8789  0.4684 -1.0102
  684MOL0     C90178   3.076   1.886  10.208  0.4875 -0.8908  0.1480
  684MOL0     C90179   3.090   2.030  10.272 -0.0178 -0.2186 -0.9336
  684MOL0     O90180   3.226   2.070  10.280  0.4438  0.7353  0.0206
  684MOL0     C90181   3.280   2.189  10.309  0.4603 -0.2316  0.5187
  684MOL0     C90182   3.230   2.303  10.275  0.7911  0.1798 -0.1576
  684MOL0     C90183   3.296   2.426  10.292 -0.3820  0.0517  0.3797
  684MOL0     C90184   3.424   2.422  10.347 -0.5009 -0.2099 -0.0222
  684MOL0     C90185   3.502   2.557  10.361  0.8381  0.5130 -0.8371
  684MOL0     O90186   3.602   2.552  10.450  0.3292  0.0811  0.6286
  684MOL0     C90187   3.694   2.650  10.443 -0.1006 -1.1377 -0.1852
  684MOL0     C90188   3.682   2.773  10.513  0.6124 -0.0201  0.0833
  684MOL0     C90189   3.780   2.874  10.501 -0.5862  0.8018 -0.7931
  684MOL0     C90190   3.909   2.839  10.456 -0.9202  0.3697  0.1803
  684MOL0     O90191   4.021   2.921  10.449  0.1185  0.3704 -0.6216
  684MOL0     C90192   4.018   3.044  10.522 -1.0604 -0.2602 -0.1011
  684MOL0     C90193   4.172   3.081  10.544 -0.1898 -1.2502  0.1841
  684MOL0     C90194   4.207   3.171  10.657  0.1593 -1.3871  0.7184
  684MOL0     C90195   4.191   3.096  10.786  0.1779 -0.2259 -0.4485
  684MOL0     C90196   4.297   2.977  10.805 -0.4657  0.3452  0.5383
  684MOL0     C90197   4.329   2.927  10.949  0.7020  0.2024 -0.5168
  684MOL0     C90198   4.197   2.894  11.024 -0.0366  0.0970 -0.6956
  684MOL0     C90199   4.229   2.836  11.174 -0.0000  0.4979  0.1094
  684MOL0    Cl90200   4.069   2.858  11.259  0.4418 -0.4766 -0.1772
  684MOL0     C90201   3.927   2.713  10.412  0.6696  0.1454 -0.2609
  684MOL0     C90202   3.818   2.627  10.389 -0.8285  0.9497 -0.1430
  684MOL0     O90203   3.469   2.654  10.301 -0.4549 -0.4663  0.3751
  684MOL0     C90204   3.484   2.299  10.384  0.1573  0.1172  0.4195
  684MOL0     C90205   3.408   2.183  10.365 -0.0086  0.1891 -0.2142
  684MOL0     N90206   2.961   1.444  10.192  0.3125 -0.0190  0.7051
  684MOL0     N90207   3.007   1.358  10.283  0.1684  0.4898 -0.8140
  684MOL0     C90208   4.029   1.197  10.811 -0.0793 -0.2353 -0.2686
  684MOL0     C90209   4.149   1.127  10.825  0.1102  0.3263 -0.3631
  684MOL0     C90210   4.402   0.739  10.866 -0.5127 -0.0019 -0.6712
  684MOL0     C90211   4.529   0.793  10.880 -0.5243 -0.0479  0.0881
  684MOL0     C90212   4.636   0.716  10.872 -0.6539 -0.4502  0.1623
  684MOL0     C90213   4.626   0.578  10.856  0.1758  0.4886 -1.0967
  684MOL0     O90214   4.733   0.500  10.842  0.1641  0.3259 -0.6092
  684MOL0     C90215   4.859   0.553  10.871  0.9481 -0.5903  0.0533
  684MOL0     C90216   4.964   0.433  10.874 -0.2723 -0.7666  1.0693
  684MOL0     C90217   5.104   0.484  10.827  0.3021 -0.2109 -0.0135
  684MOL0     C90218   5.218   0.413  10.898 -0.1964  0.1785  0.1211
  684MOL0     C90219   5.192   0.274  10.927  0.3648  0.1958 -0.1745
  684MOL0     C90220   5.185   0.166  10.978 -0.2082  0.2727 -0.3207
  684MOL0     C90221   4.502   0.518  10.850 -0.5663  0.3574 -0.6174
  684MOL0     C90222   4.390   0.598  10.846 -0.3672 -0.2439 -0.8179
  684MOL0     H90223   4.090   0.942  11.109  0.6281  0.7757  1.2583
  684MOL0     H90224   3.879   1.077  11.095  0.7357  1.3856  1.1535
  684MOL0     H90225   3.684   1.102  10.978 -0.0181 -1.7030 -0.8615
  684MOL0     H90226   3.701   1.123  10.808  0.5013 -0.8831  1.0708
  684MOL0     H90227   3.616   1.360  10.831  1.7913  0.5843  0.7986
  684MOL0     H90228   3.599   1.320  11.009  0.8871 -0.4377  0.0846
  684MOL0     H90229   3.444   1.130  10.935  1.0599  1.3848  1.8222
  684MOL0     H90230   3.444   1.192  10.766 -1.6432 -0.4803  0.6526
  684MOL0     H90231   3.292   1.275  10.989  2.4606 -0.1825  0.7366
  684MOL0     H90232   3.403   1.404  10.969  0.1686  0.5362 -1.0599
  684MOL0     H90233   3.352   1.438  10.733  2.2469 -1.1808  0.2643
  684MOL0     H90234   3.205   1.459  10.835 -1.8598 -0.8468 -1.4886
  684MOL0     H90235   3.130   1.229  10.766  0.9580  1.9733  3.8588
  684MOL0     H90236   3.274   1.219  10.664  1.1915  1.7577 -0.7369
  684MOL0     H90237   3.066   1.245  10.552  1.7206 -1.0821  1.1385
  684MOL0     H90238   3.049   1.408  10.625 -1.3071 -1.9285 -1.0421
  684MOL0     H90239   3.221   1.282  10.406  0.3473 -0.6273  1.3933
  684MOL0     H90240   3.264   1.447  10.466 -0.7393 -0.1044  1.9189
  684MOL0     H90241   3.079   1.634  10.435 -0.7562  0.2310  0.8639
  684MOL0     H90242   2.815   1.670  10.159  0.6080  1.7175 -1.6836
  684MOL0     H90243   2.963   1.703  10.079  0.2277 -1.0112 -0.5311
  684MOL0     H90244   2.933   1.801  10.360  0.6669 -1.6499 -1.2995
  684MOL0     H90245   2.857   1.893  10.231 -1.1875  0.9799  1.4951
  684MOL0     H90246   3.163   1.829  10.242  0.8143 -1.5596 -1.7003
  684MOL0     H90247   3.087   1.897  10.100  3.4570 -2.4938  0.1882
  684MOL0     H90248   3.056   2.028  10.376 -0.1914  0.3093 -0.9762
  684MOL0     H90249   3.034   2.111  10.223 -2.1936  0.1238  1.8316
  684MOL0     H90250   3.127   2.300  10.244  0.4758  1.1282  0.7523
  684MOL0     H90251   3.255   2.523  10.263 -1.0452  0.1023  1.4502
  684MOL0     H90252   3.592   2.798  10.568 -0.0492 -0.6983 -0.6588
  684MOL0     H90253   3.742   2.970  10.537  1.6176  1.4677 -0.0469
  684MOL0     H90254   3.976   3.048  10.623  0.7301  1.7580  0.6349
  684MOL0     H90255   3.958   3.121  10.473  0.0111 -0.5720 -1.9836
  684MOL0     H90256   4.203   3.133  10.454 -3.0827  2.3111  1.0285
  684MOL0     H90257   4.235   2.992  10.550  0.9117 -0.4795  0.3331
  684MOL0     H90258   4.138   3.254  10.639  1.4748 -0.1467  1.2765
  684MOL0     H90259   4.304   3.218  10.643 -0.6041 -0.3062 -1.3605
  684MOL0     H90260   4.208   3.169  10.866  2.5242 -1.6054  0.4263
  684MOL0     H90261   4.093   3.052  10.807 -0.0988  1.4730  2.3558
  684MOL0     H90262   4.389   3.019  10.762 -0.7312  2.1792  1.6378
  684MOL0     H90263   4.277   2.889  10.744  0.4994  0.1012  0.5525
  684MOL0     H90264   4.378   3.009  11.001  0.2691 -0.7256  1.4525
  684MOL0     H90265   4.402   2.845  10.949  0.8864  0.3492  0.6851
  684MOL0     H90266   4.156   2.994  11.042 -1.2878 -0.7686  1.6160
  684MOL0     H90267   4.127   2.835  10.965 -1.0874 -0.7727  1.3312
  684MOL0     H90268   4.311   2.888  11.224  0.4930 -0.8135  0.7099
  684MOL0     H90269   4.250   2.729  11.165 -0.6036  0.2187  1.6510
  684MOL0     H90270   4.026   2.684  10.378  0.2706  1.4902 -2.8548
  684MOL0     H90271   3.854   2.529  10.359 -0.6427  0.8240  0.4595
  684MOL0     H90272   3.587   2.297  10.419 -0.0015  0.0188  0.8901
  684MOL0     H90273   3.447   2.090  10.404  3.0820  1.6825  0.5020
  684MOL0     H90274   4.026   1.278  10.739  2.1892 -0.2151 -0.4274
  684MOL0     H90275   4.222   1.162  10.753  0.2151  1.2060  0.1633
  684MOL0     H90276   4.538   0.900  10.889  0.0594 -0.2493  2.6205
  684MOL0     H90277   4.729   0.768  10.892 -1.1095  0.1022  0.8919
  684MOL0     H90278   4.860   0.607  10.966 -0.9395  1.0283 -0.7681
  684MOL0     H90279   4.896   0.619  10.791  4.0428 -1.9342  0.2255
  684MOL0     H90280   4.964   0.401  10.979 -1.0127 -2.1122  0.6875
  684MOL0     H90281   4.918   0.356  10.812  1.6387 -1.0572 -0.0671
  684MOL0     H90282   5.114   0.592  10.836  1.9932 -0.4068  0.9658
  684MOL0     H90283   5.112   0.466  10.720  1.8380  3.9798 -0.7863
  684MOL0     H90284   5.317   0.422  10.852 -0.5711  0.8216 -0.5907
  684MOL0     H90285   5.225   0.460  10.996 -2.6491  1.2325 -0.1281
  684MOL0     H90286   5.173   0.081  11.041  0.0832 -0.3279 -1.0589
  684MOL0     H90287   4.496   0.410  10.846  0.9757  0.1294  1.3293
  684MOL0     H90288   4.298   0.542  10.832  1.3802 -3.3322 -0.9052
  685MOL0     O90289   9.527   2.260   2.354  0.1126 -0.5247  0.8076
  685MOL0     C90290   9.639   2.297   2.355 -0.0029 -0.6068 -0.1528
  685MOL0     O90291   9.720   2.294   2.468 -0.0731 -0.3763 -0.0552
  685MOL0     C90292   9.669   2.217   2.580 -0.3945 -0.0570  0.3358
  685MOL0     C90293   9.658   2.072   2.574  0.0171  0.0407 -0.6036
  685MOL0     C90294   9.599   1.994   2.677  0.3021 -0.0811  0.2810
  685MOL0     C90295   9.558   2.061   2.796  0.1153 -1.4789 -0.3132
  685MOL0     O90296   9.498   1.988   2.890  0.4649 -1.1286 -0.0867
  685MOL0     C90297   9.400   2.060   2.969 -0.1035 -0.7093 -0.3742
  685MOL0     C90298   9.308   1.960   3.035 -0.0749 -1.2204  0.1710
  685MOL0     C90299   9.213   2.034   3.134  0.1140  0.6299 -0.1468
  685MOL0     C90300   9.107   1.927   3.197 -0.6649  0.3074 -1.1372
  685MOL0     C90301   9.048   1.973   3.329 -0.8974 -0.6087  0.5143
  685MOL0     C90302   8.976   1.863   3.401 -0.2991  0.5902 -0.1641
  685MOL0     C90303   8.837   1.900   3.440  0.2404 -0.2791  0.4591
  685MOL0     C90304   8.824   2.020   3.532 -0.6505  0.5787 -0.3467
  685MOL0     N90305   8.880   1.995   3.668 -0.4623 -0.3274 -0.2509
  685MOL0     C90306   8.811   1.971   3.784 -0.1302 -0.3232 -0.6208
  685MOL0     C90307   8.901   1.913   3.863 -0.1634  0.5821  0.1847
  685MOL0     C90308   8.859   1.857   3.998 -0.4065  0.2008 -0.6484
  685MOL0     C90309   8.721   1.800   4.002  0.3396 -0.3009 -0.3287
  685MOL0     C90310   8.699   1.757   4.151 -0.2279 -0.1014 -0.6189
  685MOL0     C90311   8.556   1.701   4.194  0.5746 -0.1769 -0.4774
  685MOL0     O90312   8.454   1.760   4.122 -0.2162 -0.2728 -0.5053
  685MOL0     C90313   8.329   1.729   4.153 -0.9998  0.4299 -0.1667
  685MOL0     C90314   8.285   1.634   4.245  0.7697  0.1474 -0.6494
  685MOL0     C90315   8.146   1.620   4.274  0.4477  0.2329  0.4657
  685MOL0     C90316   8.050   1.706   4.228 -0.6100  0.3227  1.0168
  685MOL0     C90317   7.911   1.696   4.284  0.3497 -0.1380  0.8128
  685MOL0     O90318   7.883   1.605   4.381  0.0256  1.2180  0.9115
  685MOL0     C90319   7.759   1.575   4.426  0.1023  0.9054 -0.7251
  685MOL0     C90320   7.727   1.441   4.425 -0.4454  0.4398 -0.5677
  685MOL0     C90321   7.592   1.408   4.460 -0.3633 -0.1192  0.4819
  685MOL0     C90322   7.504   1.497   4.523 -0.1895  0.4881  0.0956
  685MOL0     O90323   7.381   1.459   4.567 -0.7811  0.4305  0.1466
  685MOL0     C90324   7.309   1.357   4.493  0.3103 -0.1611  0.1147
  685MOL0     C90325   7.254   1.415   4.355 -0.1340 -0.7046 -0.6755
  685MOL0     C90326   7.150   1.535   4.367 -0.3910 -0.1215  1.0918
  685MOL0     C90327   7.032   1.506   4.452  0.4690  0.7840 -0.1543
  685MOL0     C90328   6.922   1.618   4.434  0.6138  0.6593 -0.2430
  685MOL0     C90329   6.936   1.713   4.546  0.3590 -0.0779 -0.1142
  685MOL0     C90330   6.835   1.823   4.540 -0.3555 -0.7606  0.1481
  685MOL0     C90331   6.694   1.770   4.552  0.9306 -0.8875 -0.5869
  685MOL0    Cl90332   6.608   1.871   4.680  0.1328  0.0619 -0.3713
  685MOL0     C90333   7.548   1.627   4.539  0.5035 -1.0171  1.3174
  685MOL0     C90334   7.672   1.668   4.489  0.3071  0.2705  0.2025
  685MOL0     O90335   7.826   1.768   4.231  0.2230  0.2207 -0.7341
  685MOL0     C90336   8.088   1.788   4.123  0.3449  0.4327  0.1312
  685MOL0     C90337   8.225   1.799   4.088  0.2995 -0.2166 -1.1176
  685MOL0     N90338   9.032   1.925   3.812 -0.3642 -0.1493  0.1091
  685MOL0     N90339   9.018   1.976   3.695  0.4069 -0.1546  0.1478
  685MOL0     C90340   9.567   2.198   2.799  0.5861 -0.5714 -0.4679
  685MOL0     C90341   9.616   2.275   2.693  0.6600  0.7226 -0.3317
  685MOL0     C90342   9.679   2.370   2.234  0.0633 -0.0790 -1.1299
  685MOL0     C90343   9.788   2.457   2.243 -0.0905 -0.8660  0.7234
  685MOL0     C90344   9.831   2.532   2.136 -0.0588 -0.2051  0.2143
  685MOL0     C90345   9.762   2.530   2.013  0.5060 -0.4594 -0.1569
  685MOL0     O90346   9.823   2.600   1.918  0.0903 -0.0882 -0.1117
  685MOL0     C90347   9.772   2.612   1.779  0.7240  0.8772  0.1320
  685MOL0     C90348   9.795   2.495   1.682 -0.8314 -0.0268 -0.0807
  685MOL0     C90349   9.933   2.517   1.612 -0.0590  0.1995  0.2012
  685MOL0     C90350  10.053   2.560   1.702 -1.4351  0.4395  0.1800
  685MOL0     C90351  10.189   2.570   1.630  0.4193  0.1198  0.4396
  685MOL0     C90352  10.290   2.582   1.562 -0.7568  0.0462 -0.6442
  685MOL0     C90353   9.645   2.450   2.007  0.0116 -0.7588  0.4587
  685MOL0     C90354   9.606   2.363   2.115  0.4141 -0.1272 -0.3677
  685MOL0     H90355   9.694   2.019   2.486  0.3407 -2.1514  0.7708
  685MOL0     H90356   9.583   1.887   2.669 -1.0097  0.0128  1.4138
  685MOL0     H90357   9.335   2.121   2.905  1.8529  0.3097 -1.4932
  685MOL0     H90358   9.444   2.124   3.046 -1.0498  1.6604 -1.6934
  685MOL0     H90359   9.361   1.885   3.094  3.2874  0.3936 -0.5899
  685MOL0     H90360   9.248   1.916   2.955  1.8007 -1.5524 -1.1020
  685MOL0     H90361   9.158   2.110   3.078 -0.0423 -1.3314 -2.8735
  685MOL0     H90362   9.264   2.080   3.219 -2.8157 -0.1133  2.1808
  685MOL0     H90363   9.019   1.900   3.138 -0.4656 -1.7998 -0.5697
  685MOL0     H90364   9.155   1.832   3.222  2.0216  1.8259 -0.0470
  685MOL0     H90365   8.972   2.047   3.300 -1.1218 -1.4612 -1.2358
  685MOL0     H90366   9.125   2.016   3.394 -0.5071  0.7853 -0.7961
  685MOL0     H90367   9.040   1.834   3.486 -1.5422  2.7344  1.6164
  685MOL0     H90368   8.964   1.786   3.325  0.7529  0.3913 -0.1462
  685MOL0     H90369   8.770   1.917   3.355 -0.9967  2.6855  1.8788
  685MOL0     H90370   8.785   1.822   3.498 -0.5585  0.2791  0.5144
  685MOL0     H90371   8.715   2.028   3.542 -0.9216 -0.7838 -1.7302
  685MOL0     H90372   8.874   2.110   3.496  0.7737  0.2253  0.6498
  685MOL0     H90373   8.708   1.999   3.800  0.6175  1.7849  1.0336
  685MOL0     H90374   8.860   1.941   4.068 -1.2200  1.1247 -1.6935
  685MOL0     H90375   8.926   1.777   4.030 -1.8562 -1.1329 -0.8074
  685MOL0     H90376   8.721   1.716   3.931  0.5990  0.3954 -1.1681
  685MOL0     H90377   8.639   1.868   3.975  2.0330  2.2378  0.5707
  685MOL0     H90378   8.773   1.678   4.165 -0.1435 -0.0708 -0.8895
  685MOL0     H90379   8.726   1.843   4.214  0.4234 -3.1924  3.7616
  685MOL0     H90380   8.541   1.704   4.302  1.1092 -2.9623 -0.2463
  685MOL0     H90381   8.552   1.595   4.167  0.8138 -0.7705  1.6654
  685MOL0     H90382   8.353   1.581   4.311 -0.7177 -1.2712 -0.2055
  685MOL0     H90383   8.121   1.538   4.341  0.3091 -0.8062 -0.8110
  685MOL0     H90384   7.797   1.365   4.392  0.5658  0.2109  1.9505
  685MOL0     H90385   7.561   1.304   4.459  0.3849 -0.3516 -0.9117
  685MOL0     H90386   7.221   1.332   4.552 -1.1540  1.5985 -1.1864
  685MOL0     H90387   7.364   1.263   4.483 -0.9747 -0.7123 -3.0909
  685MOL0     H90388   7.208   1.331   4.303 -1.5820 -0.8961  0.8067
  685MOL0     H90389   7.339   1.435   4.290 -1.1642  1.7995 -1.3378
  685MOL0     H90390   7.125   1.565   4.264 -2.5002 -0.5555  1.4399
  685MOL0     H90391   7.210   1.620   4.403  0.1936 -0.9802  2.1980
  685MOL0     H90392   6.986   1.408   4.435  0.8172  1.0754 -3.4757
  685MOL0     H90393   7.050   1.493   4.559  1.1349  1.0108 -0.2379
  685MOL0     H90394   6.819   1.584   4.418 -0.1891  3.0764 -0.6146
  685MOL0     H90395   6.945   1.666   4.339  1.2039  0.3615 -0.2537
  685MOL0     H90396   7.037   1.754   4.551 -0.1327  1.0236  1.8084
  685MOL0     H90397   6.920   1.659   4.640 -2.2034  3.5770  1.7915
  685MOL0     H90398   6.850   1.902   4.614 -3.4831 -0.6001  0.7424
  685MOL0     H90399   6.852   1.877   4.447  2.4709 -2.5205 -0.5102
  685MOL0     H90400   6.695   1.668   4.591  1.9441 -0.7855 -0.3181
  685MOL0     H90401   6.636   1.777   4.460  0.7722 -1.4815 -0.5375
  685MOL0     H90402   7.497   1.714   4.580  2.4123  1.6855 -1.5569
  685MOL0     H90403   7.697   1.774   4.487 -2.7674  1.0535 -0.6530
  685MOL0     H90404   8.015   1.850   4.071  2.0083  2.3705 -0.0091
  685MOL0     H90405   8.252   1.872   4.013  0.6453 -1.9235 -2.7366
  685MOL0     H90406   9.542   2.263   2.882  0.9134  0.2035 -0.9609
  685MOL0     H90407   9.610   2.382   2.712 -3.7595  0.3795  1.5855
  685MOL0     H90408   9.841   2.476   2.336 -1.1135  0.7186  1.0229
  685MOL0     H90409   9.910   2.606   2.143 -1.4925  1.7433 -2.2993
  685MOL0     H90410   9.807   2.706   1.735  0.1581  1.5008  0.9832
  685MOL0     H90411   9.666   2.630   1.799  0.7875  0.1843  1.2090
  685MOL0     H90412   9.793   2.398   1.732 -1.2887  0.6708  1.3041
  685MOL0     H90413   9.726   2.498   1.597  0.4148  0.1717 -1.1205
  685MOL0     H90414   9.910   2.582   1.527 -0.4831 -1.5360 -1.0666
  685MOL0     H90415   9.950   2.419   1.567 -3.0598  0.4074 -1.6462
  685MOL0     H90416  10.039   2.658   1.748 -0.8078  0.7100 -0.2020
  685MOL0     H90417  10.056   2.485   1.782 -1.9957  4.0377  3.9347
  685MOL0     H90418  10.371   2.600   1.495 -0.5870  1.6244 -0.0551
  685MOL0     H90419   9.581   2.450   1.920  1.3261 -1.9331 -0.5467
  685MOL0     H90420   9.527   2.289   2.104  1.1145 -0.7269 -1.6632
  686MOL0     O90421   0.933   6.487   2.908 -0.3910 -0.6678  0.0459
  686MOL0     C90422   0.902   6.444   3.015  0.0982  0.9729 -0.7583
  686MOL0     O90423   0.986   6.439   3.134 -0.5755  0.3646  0.7263
  686MOL0     C90424   1.125   6.461   3.138 -0.1002  0.3076  0.4731
  686MOL0     C90425   1.185   6.541   3.233 -0.1984  0.0041 -1.2162
  686MOL0     C90426   1.322   6.559   3.236 -0.0551 -0.1969  0.6474
  686MOL0     C90427   1.409   6.497   3.145 -0.5303  0.0416  0.5796
  686MOL0     O90428   1.543   6.502   3.144  0.5997 -0.4535  0.6344
  686MOL0     C90429   1.612   6.573   3.241 -0.6798  0.0421  0.4082
  686MOL0     C90430   1.763   6.568   3.203  0.2761  0.2172 -0.4213
  686MOL0     C90431   1.855   6.632   3.299 -0.1398 -0.8491  0.1818
  686MOL0     C90432   1.840   6.583   3.443 -0.4072  0.2471 -0.7607
  686MOL0     C90433   1.968   6.649   3.529  0.6544  0.3828  1.1420
  686MOL0     C90434   1.990   6.577   3.652 -0.1200  0.3561 -0.2709
  686MOL0     C90435   2.121   6.627   3.715 -0.8086  0.2547  0.3232
  686MOL0     C90436   2.127   6.565   3.856 -0.5167  0.3033 -0.2461
  686MOL0     N90437   2.023   6.619   3.946 -0.8035  0.2755  1.2546
  686MOL0     C90438   1.932   6.550   4.023 -0.1142 -0.4022  0.7042
  686MOL0     C90439   1.865   6.651   4.085 -0.7916 -0.6094  0.4547
  686MOL0     C90440   1.750   6.640   4.178  0.4921  0.4786  0.5378
  686MOL0     C90441   1.632   6.577   4.108 -0.3323 -0.0443 -0.7576
  686MOL0     C90442   1.584   6.677   3.993 -0.5864 -0.1012  0.0711
  686MOL0     C90443   1.451   6.630   3.942 -0.2213  0.5604 -0.3140
  686MOL0     O90444   1.467   6.515   3.856  0.2560  0.3991 -0.0017
  686MOL0     C90445   1.360   6.429   3.832  0.2229  0.0215 -0.4873
  686MOL0     C90446   1.225   6.455   3.862  0.0422  0.0562  0.2407
  686MOL0     C90447   1.129   6.350   3.849  0.9121  0.3212 -0.2120
  686MOL0     C90448   1.163   6.223   3.803  0.6110  0.1078  0.8608
  686MOL0     C90449   1.070   6.117   3.790  0.4132  0.1851  0.4357
  686MOL0     O90450   1.097   6.001   3.726 -0.0234 -0.2136  0.1269
  686MOL0     C90451   0.997   5.911   3.704 -0.2508  0.4383  0.5502
  686MOL0     C90452   1.043   5.776   3.694  0.6528 -0.1027  0.0945
  686MOL0     C90453   0.958   5.668   3.691 -0.0004  0.3154 -0.1456
  686MOL0     C90454   0.819   5.691   3.668  0.5944 -0.2021 -0.2568
  686MOL0     O90455   0.740   5.583   3.678  0.2721 -0.4555  0.4204
  686MOL0     C90456   0.708   5.559   3.811  0.3274 -0.4992  0.0849
  686MOL0     C90457   0.646   5.666   3.907  0.8783  0.2876  0.0574
  686MOL0     C90458   0.508   5.703   3.862  0.7414 -0.3686 -0.3517
  686MOL0     C90459   0.456   5.815   3.949 -0.1411 -0.7380 -0.5370
  686MOL0     C90460   0.477   5.960   3.891  0.0004  1.0644 -0.5380
  686MOL0     C90461   0.425   6.067   3.975 -0.0541 -0.1433 -0.9526
  686MOL0     C90462   0.460   6.213   3.938  0.0686 -0.5410  0.7268
  686MOL0     C90463   0.609   6.240   3.900  1.1018 -0.4125 -0.4474
  686MOL0    Cl90464   0.704   6.206   4.046 -0.5629  0.2750  0.4001
  686MOL0     C90465   0.765   5.828   3.664 -0.5050  0.4089 -0.2307
  686MOL0     C90466   0.860   5.933   3.683  0.9768 -0.1336 -0.8236
  686MOL0     O90467   0.960   6.145   3.832  0.6559  0.2845 -0.2213
  686MOL0     C90468   1.295   6.209   3.765  0.8149  0.5062  0.6884
  686MOL0     C90469   1.392   6.309   3.773  0.7904 -0.1821 -0.1679
  686MOL0     N90470   1.929   6.772   4.066 -0.2540  0.4693  0.0397
  686MOL0     N90471   2.021   6.751   3.981 -0.8911  0.8736 -0.0398
  686MOL0     C90472   1.350   6.393   3.072 -0.3967  0.1318 -0.5424
  686MOL0     C90473   1.212   6.381   3.058 -0.4068 -0.5363 -0.5454
  686MOL0     C90474   0.772   6.376   3.017  0.0949 -0.2470 -0.5253
  686MOL0     C90475   0.672   6.401   2.918  0.4683 -0.3585 -0.4571
  686MOL0     C90476   0.545   6.335   2.913  0.7619 -0.3825  0.0979
  686MOL0     C90477   0.510   6.237   3.015 -0.3330 -0.3574 -0.5779
  686MOL0     O90478   0.384   6.189   3.022  0.9423 -0.0330 -0.4884
  686MOL0     C90479   0.340   6.116   3.137  0.1595  0.8682  0.7243
  686MOL0     C90480   0.194   6.083   3.116  0.5449  0.1790 -0.2934
  686MOL0     C90481   0.118   6.019   3.237  0.0593  0.2494 -1.2666
  686MOL0     C90482   0.167   5.875   3.256 -0.0513 -0.0307 -0.6093
  686MOL0     C90483   0.098   5.774   3.190 -0.0802 -0.5550 -0.4789
  686MOL0     C90484   0.028   5.704   3.121  0.6186  0.4680  0.3664
  686MOL0     C90485   0.601   6.231   3.119  0.3488 -0.0469  0.2678
  686MOL0     C90486   0.728   6.293   3.120 -0.4881  0.1718  0.7877
  686MOL0     H90487   1.124   6.603   3.298  1.1590 -0.0439  0.1619
  686MOL0     H90488   1.354   6.640   3.302  0.8188  0.3842 -0.4564
  686MOL0     H90489   1.591   6.535   3.341 -2.3277  1.1524  0.5203
  686MOL0     H90490   1.590   6.680   3.241  1.9120  0.6320  0.6784
  686MOL0     H90491   1.770   6.624   3.109 -5.4776 -1.5208 -2.3045
  686MOL0     H90492   1.774   6.460   3.196  0.4154  0.2956 -1.6517
  686MOL0     H90493   1.842   6.740   3.289 -0.5143 -0.7441  1.5290
  686MOL0     H90494   1.951   6.596   3.263  0.4766  1.9922 -1.3007
  686MOL0     H90495   1.755   6.629   3.495 -0.8054  2.0673 -2.9053
  686MOL0     H90496   1.838   6.473   3.446  1.0674  0.1803  2.5327
  686MOL0     H90497   1.955   6.757   3.540  3.8110  0.9526  0.2644
  686MOL0     H90498   2.056   6.635   3.466 -0.8583  1.9583 -1.5162
  686MOL0     H90499   1.995   6.470   3.627 -1.0636  0.4296 -0.8250
  686MOL0     H90500   1.899   6.581   3.712 -1.0544 -1.7131 -1.4394
  686MOL0     H90501   2.209   6.608   3.651 -1.4790 -2.5456  0.0879
  686MOL0     H90502   2.123   6.736   3.723  0.0361  0.2992 -0.2593
  686MOL0     H90503   2.221   6.598   3.902  1.3355 -0.6377 -3.1168
  686MOL0     H90504   2.121   6.456   3.862 -0.7546  0.3795  2.3454
  686MOL0     H90505   1.895   6.448   4.026  0.0147 -0.5396 -1.2379
  686MOL0     H90506   1.721   6.737   4.219 -0.0018  1.4143 -1.8473
  686MOL0     H90507   1.785   6.571   4.256  0.4080  1.0228  1.0582
  686MOL0     H90508   1.554   6.587   4.184 -1.1436  0.4843 -1.6157
  686MOL0     H90509   1.657   6.474   4.081 -0.8976  0.3017 -2.8297
  686MOL0     H90510   1.578   6.780   4.030 -0.3269 -0.0006 -0.1633
  686MOL0     H90511   1.657   6.669   3.913 -0.4018 -1.8181  0.3748
  686MOL0     H90512   1.398   6.711   3.891 -3.0701  1.7715  4.0095
  686MOL0     H90513   1.377   6.602   4.019 -2.8553  3.5544 -1.5457
  686MOL0     H90514   1.199   6.544   3.917  2.3742  1.6110 -1.0051
  686MOL0     H90515   1.026   6.367   3.877  0.1395 -2.8803 -0.6555
  686MOL0     H90516   1.146   5.748   3.680  0.1899 -1.8069 -0.1512
  686MOL0     H90517   1.006   5.573   3.708  1.0015  1.1188  1.8168
  686MOL0     H90518   0.796   5.525   3.868  0.6942  3.7837  2.5086
  686MOL0     H90519   0.640   5.475   3.798  2.2618 -1.7102 -3.9426
  686MOL0     H90520   0.716   5.750   3.909  1.2236 -0.0043  1.8026
  686MOL0     H90521   0.641   5.619   4.006 -1.4444 -1.7063 -0.8981
  686MOL0     H90522   0.445   5.617   3.887 -0.2501  1.0392  2.3596
  686MOL0     H90523   0.501   5.743   3.760 -2.6300 -0.3233 -0.2350
  686MOL0     H90524   0.348   5.801   3.959 -0.3344  0.2042 -1.2028
  686MOL0     H90525   0.503   5.799   4.046  0.6634 -1.9156 -1.0881
  686MOL0     H90526   0.435   5.961   3.790 -3.0640 -0.7110  0.5923
  686MOL0     H90527   0.585   5.973   3.885 -0.2378  2.7428 -3.5785
  686MOL0     H90528   0.462   6.044   4.075 -3.7962 -1.8845  0.2080
  686MOL0     H90529   0.315   6.065   3.979 -0.0429  0.5574  0.2551
  686MOL0     H90530   0.414   6.244   3.844  4.6903 -3.7806 -3.0402
  686MOL0     H90531   0.430   6.281   4.018 -0.3888  0.4171 -0.2423
  686MOL0     H90532   0.633   6.337   3.855  2.0053 -1.4235 -2.2545
  686MOL0     H90533   0.635   6.168   3.822 -0.8376 -1.7344  0.0592
  686MOL0     H90534   0.658   5.838   3.673 -0.4796 -0.6327  1.7932
  686MOL0     H90535   0.826   6.036   3.687  1.3756 -0.0216  1.4748
  686MOL0     H90536   1.333   6.114   3.729  0.3996  0.4896  0.2898
  686MOL0     H90537   1.498   6.289   3.767  0.6507 -0.8639 -0.5492
  686MOL0     H90538   1.422   6.322   3.031 -0.5298 -1.0754  1.2067
  686MOL0     H90539   1.169   6.305   2.994  2.3460 -3.5929  0.9511
  686MOL0     H90540   0.696   6.467   2.835  0.9728  0.2267  0.1446
  686MOL0     H90541   0.490   6.340   2.820  0.2599 -2.9474  0.1746
  686MOL0     H90542   0.354   6.179   3.225  1.6839 -0.1040  1.2007
  686MOL0     H90543   0.395   6.024   3.157 -1.1948 -0.0695  0.3250
  686MOL0     H90544   0.135   6.175   3.108  0.0212  0.1082  2.0546
  686MOL0     H90545   0.183   6.019   3.028  2.7261  2.3817 -2.3597
  686MOL0     H90546   0.009   6.013   3.230 -0.2613  1.8124  1.0538
  686MOL0     H90547   0.139   6.088   3.319  0.0767  1.5944 -2.3853
  686MOL0     H90548   0.271   5.861   3.227  0.6146  1.8309  0.6647
  686MOL0     H90549   0.162   5.848   3.362 -0.4646  2.6062  0.1221
  686MOL0     H90550  -0.037   5.634   3.073 -0.1505  0.5605  1.2263
  686MOL0     H90551   0.574   6.167   3.202 -1.0404 -2.2393 -1.7420
  686MOL0     H90552   0.801   6.271   3.197  1.3299  2.6497 -0.0793
  687MOL0     O90553   6.289  11.036   8.286  0.6978  0.0808 -1.0403
  687MOL0     C90554   6.309  10.925   8.343 -0.8593  0.4463 -0.6251
  687MOL0     O90555   6.219  10.849   8.406  0.9018 -0.2543  0.1411
  687MOL0     C90556   6.085  10.883   8.399  0.0440 -0.4504  0.1287
  687MOL0     C90557   6.026  10.897   8.273  0.6735 -0.2709 -0.0943
  687MOL0     C90558   5.889  10.911   8.278 -0.2713 -0.7556 -0.1785
  687MOL0     C90559   5.807  10.912   8.392 -0.2064  0.5549  1.4558
  687MOL0     O90560   5.671  10.932   8.378  0.6813  0.0827  0.5563
  687MOL0     C90561   5.617  11.044   8.296  1.0515  0.1433 -0.0095
  687MOL0     C90562   5.643  11.186   8.355  1.1326  0.7566  0.1090
  687MOL0     C90563   5.578  11.217   8.491 -0.2801 -0.7502  0.1887
  687MOL0     C90564   5.663  11.151   8.606 -0.5129 -0.4077 -0.2922
  687MOL0     C90565   5.616  11.181   8.747 -0.5605 -0.1773 -0.5642
  687MOL0     C90566   5.521  11.072   8.794  0.9420 -0.3312 -0.5972
  687MOL0     C90567   5.500  11.063   8.941  0.1002  0.4298  0.4069
  687MOL0     C90568   5.483  11.197   9.007 -0.2772  0.4380  0.1993
  687MOL0     N90569   5.412  11.188   9.134 -0.6849 -0.2758 -0.6700
  687MOL0     C90570   5.462  11.110   9.239  0.8959  0.4603  0.9293
  687MOL0     C90571   5.346  11.075   9.301  0.7913  0.0751 -0.7909
  687MOL0     C90572   5.328  10.976   9.417 -0.3489 -0.3678 -0.3759
  687MOL0     C90573   5.392  11.020   9.554 -0.1254  0.4422  1.2411
  687MOL0     C90574   5.344  10.929   9.664  0.2561  0.1235  0.2413
  687MOL0     C90575   5.369  10.996   9.800  0.1982  0.6652  0.1176
  687MOL0     O90576   5.508  11.036   9.817 -1.3765 -0.0703  0.3887
  687MOL0     C90577   5.606  10.946   9.838 -0.5126  0.5254  0.0585
  687MOL0     C90578   5.599  10.826   9.905  0.2328 -0.0142 -0.0354
  687MOL0     C90579   5.703  10.743   9.910  0.1347  0.4895  0.5596
  687MOL0     C90580   5.826  10.775   9.851  0.5180  0.2486 -0.9811
  687MOL0     C90581   5.932  10.674   9.855 -0.2636  0.5576  0.2020
  687MOL0     O90582   6.062  10.721   9.865  0.5371  0.2805  0.3971
  687MOL0     C90583   6.170  10.642   9.898 -0.1693 -0.6065  0.2000
  687MOL0     C90584   6.294  10.693   9.866  0.8433 -0.3473 -0.1651
  687MOL0     C90585   6.407  10.615   9.902 -0.5503 -0.1372  0.3632
  687MOL0     C90586   6.404  10.496   9.971  0.2828 -0.1963 -0.2296
  687MOL0     O90587   6.514  10.430  10.005 -0.5921 -0.2722  0.1539
  687MOL0     C90588   6.634  10.451   9.927  0.2102 -0.6011 -0.4112
  687MOL0     C90589   6.705  10.334   9.874 -0.0561  0.4388  0.3337
  687MOL0     C90590   6.767  10.245   9.983 -0.2259  0.9530  1.0525
  687MOL0     C90591   6.853  10.137   9.909  0.5173  0.2604  0.8717
  687MOL0     C90592   6.896  10.010   9.994 -0.0019 -0.4876  0.8053
  687MOL0     C90593   6.970   9.913   9.910 -0.5646  0.1574  0.5670
  687MOL0     C90594   7.040   9.805   9.991 -0.1058 -0.2517  0.4011
  687MOL0     C90595   7.172   9.861  10.050 -0.5020  0.4098  0.0170
  687MOL0    Cl90596   7.273   9.731  10.134 -1.0166 -0.4825 -0.0141
  687MOL0     C90597   6.283  10.456  10.012  0.2001  0.0252 -0.0816
  687MOL0     C90598   6.163  10.531   9.982 -0.2497  0.1810  0.1675
  687MOL0     O90599   5.903  10.549   9.848  1.0894  0.0570 -0.1566
  687MOL0     C90600   5.845  10.895   9.789  0.1545 -0.4885 -0.5660
  687MOL0     C90601   5.728  10.978   9.784  0.3163 -0.6262  0.4900
  687MOL0     N90602   5.248  11.116   9.229 -0.0307 -0.0859 -0.6614
  687MOL0     N90603   5.280  11.187   9.138  1.2181  0.1343 -0.1460
  687MOL0     C90604   5.867  10.892   8.516 -0.1222  0.2530 -0.2763
  687MOL0     C90605   6.006  10.888   8.518  0.3417  0.0640 -0.2703
  687MOL0     C90606   6.448  10.870   8.351  0.2242  0.7872 -0.6726
  687MOL0     C90607   6.560  10.933   8.303 -1.0149 -1.3949 -0.6238
  687MOL0     C90608   6.694  10.910   8.337  0.4096 -0.1489 -0.0696
  687MOL0     C90609   6.718  10.798   8.415 -0.1400  0.0809 -0.9717
  687MOL0     O90610   6.847  10.754   8.436  0.7746  0.5130  0.1069
  687MOL0     C90611   6.875  10.659   8.538  0.6173 -0.2203 -0.3347
  687MOL0     C90612   7.028  10.620   8.545  1.2962 -0.2999 -0.3699
  687MOL0     C90613   7.040  10.471   8.571 -0.5098 -0.9184  0.3002
  687MOL0     C90614   7.175  10.424   8.583 -0.7388  0.2032 -0.2752
  687MOL0     C90615   7.193  10.306   8.656  0.5561 -0.6671 -0.6679
  687MOL0     C90616   7.229  10.211   8.726  0.1939 -0.1259  1.1188
  687MOL0     C90617   6.602  10.731   8.475  0.6551 -0.6368  0.4338
  687MOL0     C90618   6.466  10.769   8.444 -0.3051 -0.0460 -1.0829
  687MOL0     H90619   6.077  10.905   8.177  0.4434  0.6423 -0.1503
  687MOL0     H90620   5.831  10.921   8.187  0.6096  2.0623 -0.5322
  687MOL0     H90621   5.511  11.015   8.300  1.0080  0.3947  1.1058
  687MOL0     H90622   5.646  11.023   8.193  1.8401 -2.3922  0.6608
  687MOL0     H90623   5.602  11.260   8.286  3.5524 -0.6507 -3.1333
  687MOL0     H90624   5.752  11.200   8.353  1.2037  0.4778  1.1028
  687MOL0     H90625   5.480  11.171   8.503 -0.9933  1.2430  2.6858
  687MOL0     H90626   5.582  11.326   8.501 -1.5509 -0.6276 -0.4151
  687MOL0     H90627   5.666  11.042   8.596  1.0940 -0.5262  1.0338
  687MOL0     H90628   5.766  11.182   8.589 -0.1963 -1.0039  0.4676
  687MOL0     H90629   5.574  11.282   8.752 -2.4056 -0.9350  0.2155
  687MOL0     H90630   5.701  11.172   8.816 -0.1457 -1.7230 -1.2179
  687MOL0     H90631   5.554  10.971   8.770 -0.5337 -0.9816 -0.0568
  687MOL0     H90632   5.425  11.071   8.741 -0.3228  1.3561  1.4693
  687MOL0     H90633   5.405  11.010   8.953 -1.2972  3.2959  4.8094
  687MOL0     H90634   5.587  11.009   8.980 -1.2479 -1.3653  1.0712
  687MOL0     H90635   5.426  11.265   8.943 -0.3358  0.1843 -0.0187
  687MOL0     H90636   5.581  11.244   9.015  1.0798 -1.9181 -1.4372
  687MOL0     H90637   5.568  11.092   9.253  1.1125  0.3026 -0.6483
  687MOL0     H90638   5.350  10.871   9.398 -4.7864 -1.3564 -1.3797
  687MOL0     H90639   5.219  10.981   9.429 -0.2421  0.8871  0.2792
  687MOL0     H90640   5.371  11.124   9.581  1.0155  1.6917 -2.1255
  687MOL0     H90641   5.501  11.011   9.543 -0.4032 -1.7081 -0.5332
  687MOL0     H90642   5.236  10.919   9.654  0.3398  1.1821 -2.9246
  687MOL0     H90643   5.407  10.840   9.656  1.5060  1.0570 -0.8175
  687MOL0     H90644   5.323  10.940   9.881 -1.2875 -0.3394 -1.3609
  687MOL0     H90645   5.308  11.087   9.807 -2.0966 -0.5869 -1.9511
  687MOL0     H90646   5.512  10.807   9.967  0.3137 -0.1824  0.0281
  687MOL0     H90647   5.702  10.659   9.979  1.4349 -1.0426 -1.1785
  687MOL0     H90648   6.286  10.790   9.817  1.4684  0.6051  1.5345
  687MOL0     H90649   6.494  10.675   9.876  0.2741 -0.7385  1.6540
  687MOL0     H90650   6.707  10.500   9.992  0.1523  2.3894 -2.3918
  687MOL0     H90651   6.613  10.515   9.841  0.2278 -0.4181 -0.2801
  687MOL0     H90652   6.785  10.365   9.806  0.2628 -3.4757 -1.3278
  687MOL0     H90653   6.626  10.294   9.809  2.2047  0.6115 -2.7509
  687MOL0     H90654   6.695  10.200  10.051  0.0502 -1.6291 -0.2544
  687MOL0     H90655   6.837  10.314  10.031  1.2618 -0.4428  0.9749
  687MOL0     H90656   6.794  10.092   9.829  0.7086  1.3861  0.0843
  687MOL0     H90657   6.944  10.185   9.872 -0.3700  0.0219 -1.8354
  687MOL0     H90658   6.807   9.957  10.030 -0.0405 -2.5823 -2.0509
  687MOL0     H90659   6.959  10.054  10.072  1.1968 -2.0703  0.7667
  687MOL0     H90660   7.045   9.957   9.844 -1.7987 -2.3828 -2.8736
  687MOL0     H90661   6.896   9.858   9.851 -0.0738  0.4732 -0.3534
  687MOL0     H90662   6.969   9.755  10.057 -0.2356 -1.9394 -0.9626
  687MOL0     H90663   7.077   9.725   9.926 -3.1394  0.7090 -2.8832
  687MOL0     H90664   7.142   9.931  10.128 -0.3073  0.4216  0.0829
  687MOL0     H90665   7.227   9.925   9.979  1.4586 -0.8026  0.3576
  687MOL0     H90666   6.283  10.371  10.080  3.1932  1.9839  2.6248
  687MOL0     H90667   6.069  10.494  10.024  1.2484 -4.7379 -0.1508
  687MOL0     H90668   5.939  10.928   9.747 -0.0317  0.2929 -0.3875
  687MOL0     H90669   5.717  11.079   9.745 -3.3793 -1.6097 -1.4778
  687MOL0     H90670   5.818  10.882   8.613  3.6555 -0.0466  1.8135
  687MOL0     H90671   6.048  10.890   8.619  0.0128  1.0897 -0.1414
  687MOL0     H90672   6.543  11.011   8.230  2.1801 -1.2085 -1.3131
  687MOL0     H90673   6.781  10.949   8.286 -0.8160  1.6717 -0.9171
  687MOL0     H90674   6.815  10.569   8.520 -2.5819  1.2495  1.8639
  687MOL0     H90675   6.845  10.703   8.634  1.2095 -1.1937  0.3129
  687MOL0     H90676   7.077  10.645   8.450  1.3301  1.1053 -0.0054
  687MOL0     H90677   7.063  10.687   8.624  2.1267  0.0431 -1.0138
  687MOL0     H90678   6.986  10.416   8.494 -0.3842 -0.3668 -0.1865
  687MOL0     H90679   6.980  10.458   8.662 -1.3539  1.8569  0.2447
  687MOL0     H90680   7.210  10.402   8.481 -0.1522 -0.0016 -0.0340
  687MOL0     H90681   7.238  10.500   8.630 -3.3333  2.5039 -0.2143
  687MOL0     H90682   7.288  10.139   8.780  3.7262  2.2334  0.7511
  687MOL0     H90683   6.606  10.651   8.548 -1.3028 -1.6443 -0.4785
  687MOL0     H90684   6.383  10.714   8.487  0.3903  0.9941  1.7892
  688MOL0     O90685   7.570   1.177   6.636  0.6877  0.1537  0.0409
  688MOL0     C90686   7.543   1.281   6.689  0.0406 -0.6608  0.4576
  688MOL0     O90687   7.442   1.373   6.648  0.1299  0.6111 -0.0788
  688MOL0     C90688   7.337   1.321   6.571 -0.2674 -0.8162 -0.1581
  688MOL0     C90689   7.266   1.214   6.620 -0.2588  0.4467 -0.5547
  688MOL0     C90690   7.159   1.162   6.557  0.0532  0.4201  0.8184
  688MOL0     C90691   7.105   1.229   6.442  0.5892 -0.2375  0.6945
  688MOL0     O90692   6.993   1.190   6.380  0.5962 -0.4906 -0.4879
  688MOL0     C90693   6.876   1.276   6.388 -0.0279  0.5325  0.4092
  688MOL0     C90694   6.749   1.204   6.355  0.1470  0.9860 -1.2077
  688MOL0     C90695   6.621   1.290   6.363  1.3645  0.6690  0.3362
  688MOL0     C90696   6.490   1.211   6.345 -0.2847  0.2302 -0.7845
  688MOL0     C90697   6.383   1.287   6.267 -0.0874 -0.0522  1.3548
  688MOL0     C90698   6.312   1.392   6.352  0.2941  0.3223  0.5596
  688MOL0     C90699   6.203   1.477   6.269 -0.9665  0.3337  0.3825
  688MOL0     C90700   6.253   1.544   6.140 -0.4040  0.5784  0.3604
  688MOL0     N90701   6.360   1.646   6.152 -0.4860  0.4288 -0.5505
  688MOL0     C90702   6.497   1.629   6.160  0.2845 -0.0238  0.5990
  688MOL0     C90703   6.547   1.748   6.186  1.0385 -1.2714 -0.5436
  688MOL0     C90704   6.691   1.778   6.204  0.2279 -0.0280 -0.2612
  688MOL0     C90705   6.760   1.788   6.074  0.5486  0.0605 -0.4913
  688MOL0     C90706   6.911   1.817   6.094  0.6160 -0.4232 -0.3443
  688MOL0     C90707   6.923   1.963   6.140  0.6052  0.3825 -0.1284
  688MOL0     O90708   7.060   1.999   6.147 -0.7397  0.7025 -0.0143
  688MOL0     C90709   7.081   2.132   6.180  0.8727  0.9759  0.1135
  688MOL0     C90710   7.209   2.178   6.160  0.1551  1.3740 -0.1123
  688MOL0     C90711   7.238   2.304   6.183 -0.0973 -0.4506  0.3672
  688MOL0     C90712   7.154   2.395   6.252  0.0689  0.3909  0.9257
  688MOL0     C90713   7.198   2.519   6.296 -0.8626  0.3562 -0.1982
  688MOL0     O90714   7.111   2.587   6.369  0.3091  0.4904 -0.4546
  688MOL0     C90715   7.112   2.720   6.375 -1.1332 -0.1111 -0.0204
  688MOL0     C90716   7.175   2.769   6.487  0.0651 -0.2787  0.6258
  688MOL0     C90717   7.156   2.906   6.520 -0.4310  0.1632 -0.5015
  688MOL0     C90718   7.090   2.984   6.429 -0.0266 -0.3010  0.2100
  688MOL0     O90719   7.059   3.118   6.448 -0.0757  0.0786  0.1423
  688MOL0     C90720   7.185   3.190   6.453 -0.0466  0.9445 -0.7659
  688MOL0     C90721   7.176   3.340   6.437  0.3658 -0.3866  0.5653
  688MOL0     C90722   7.112   3.399   6.557 -0.6991 -0.3692 -0.4434
  688MOL0     C90723   7.088   3.546   6.547  0.3116  0.0540 -0.9256
  688MOL0     C90724   6.959   3.577   6.627 -0.5838  0.0294  0.3511
  688MOL0     C90725   6.957   3.723   6.667 -0.6094  0.7126 -0.9736
  688MOL0     C90726   6.848   3.763   6.757  0.5526 -0.6344 -0.3551
  688MOL0     C90727   6.834   3.912   6.779 -0.5228  0.1393  0.1782
  688MOL0    Cl90728   6.981   3.969   6.869 -0.0031 -0.0713 -0.2481
  688MOL0     C90729   7.030   2.932   6.310 -0.1143  0.3239 -0.5733
  688MOL0     C90730   7.039   2.796   6.283  0.2739  0.3771 -0.0887
  688MOL0     O90731   7.313   2.565   6.265  0.1926  0.6738  0.6078
  688MOL0     C90732   7.018   2.346   6.270 -0.3436 -0.3075 -0.5202
  688MOL0     C90733   6.972   2.236   6.211 -0.9083  0.3221  0.5830
  688MOL0     N90734   6.442   1.844   6.188 -0.5568  0.0416 -0.0126
  688MOL0     N90735   6.330   1.778   6.182 -0.7483  0.6832  0.5647
  688MOL0     C90736   7.185   1.341   6.397  0.2573 -0.6143  0.4692
  688MOL0     C90737   7.301   1.390   6.449 -0.8986 -0.5823 -0.4851
  688MOL0     C90738   7.634   1.329   6.798 -0.0241 -0.6484 -0.1635
  688MOL0     C90739   7.733   1.247   6.862  1.2759 -0.2745 -0.3291
  688MOL0     C90740   7.820   1.290   6.957 -0.0304  0.0029  0.5257
  688MOL0     C90741   7.806   1.420   7.010  0.5048 -0.0152 -0.0881
  688MOL0     O90742   7.885   1.465   7.112  0.2652  0.5107 -0.1249
  688MOL0     C90743   7.995   1.385   7.154 -0.9889  0.4524 -0.4509
  688MOL0     C90744   8.092   1.476   7.235  0.2863 -0.1868  0.4390
  688MOL0     C90745   8.223   1.404   7.263  1.4651 -0.3171 -0.0076
  688MOL0     C90746   8.311   1.504   7.351 -0.2274 -0.8821 -0.2843
  688MOL0     C90747   8.445   1.443   7.357 -0.8424  0.3798  1.2705
  688MOL0     C90748   8.547   1.382   7.339  0.5205 -0.5903 -0.5746
  688MOL0     C90749   7.704   1.501   6.958  0.0683  0.1235 -0.0361
  688MOL0     C90750   7.636   1.464   6.844 -0.5608 -0.5905 -0.3196
  688MOL0     H90751   7.281   1.149   6.706 -1.7383 -1.8962 -1.9625
  688MOL0     H90752   7.111   1.072   6.596  2.4425 -1.5446 -0.4786
  688MOL0     H90753   6.872   1.349   6.306 -1.1699  2.5932  2.1999
  688MOL0     H90754   6.879   1.336   6.479 -2.8034 -0.1449  1.0460
  688MOL0     H90755   6.745   1.122   6.427  2.9254  0.0171 -2.0323
  688MOL0     H90756   6.772   1.170   6.254  0.9611  2.0489 -1.3934
  688MOL0     H90757   6.634   1.370   6.289  2.5665  0.8231  0.6891
  688MOL0     H90758   6.625   1.339   6.460 -0.4321  3.5401 -0.8829
  688MOL0     H90759   6.518   1.117   6.298 -0.3149 -1.3302  2.1036
  688MOL0     H90760   6.458   1.184   6.446  1.4881 -3.6698 -1.1036
  688MOL0     H90761   6.312   1.207   6.246  2.4741 -2.0030 -0.5672
  688MOL0     H90762   6.421   1.330   6.174 -2.6547 -1.3765 -0.4097
  688MOL0     H90763   6.373   1.472   6.397 -1.3497  0.9620  1.7245
  688MOL0     H90764   6.256   1.353   6.437 -0.3672  2.6257  1.2627
  688MOL0     H90765   6.114   1.415   6.257 -0.3833 -0.7329  1.3727
  688MOL0     H90766   6.159   1.550   6.336 -2.7427  1.7512 -2.1593
  688MOL0     H90767   6.175   1.596   6.084  0.8314 -0.9668 -3.1000
  688MOL0     H90768   6.299   1.465   6.081  0.5600 -0.4163  2.3295
  688MOL0     H90769   6.546   1.535   6.137 -2.5241 -1.8355  1.4616
  688MOL0     H90770   6.732   1.706   6.276 -1.8813  2.3261  3.5954
  688MOL0     H90771   6.691   1.875   6.255 -0.3691 -1.0755  1.8486
  688MOL0     H90772   6.720   1.865   6.006  1.1124 -1.2093 -2.3274
  688MOL0     H90773   6.752   1.691   6.025 -2.3638  0.6992 -1.4962
  688MOL0     H90774   6.940   1.749   6.175  0.7605 -1.1498 -0.9960
  688MOL0     H90775   6.961   1.799   5.998  2.2038 -0.2752  0.4322
  688MOL0     H90776   6.868   1.981   6.233  3.2648 -2.7731  2.2949
  688MOL0     H90777   6.883   2.024   6.058 -3.4040 -2.0751 -0.3177
  688MOL0     H90778   7.267   2.096   6.118  0.1190  1.3451 -0.1057
  688MOL0     H90779   7.338   2.338   6.159 -0.8913  2.0604  0.3233
  688MOL0     H90780   7.232   2.694   6.540  2.7131 -0.9607 -2.8367
  688MOL0     H90781   7.195   2.933   6.618 -2.0541  1.5988 -0.2083
  688MOL0     H90782   7.244   3.156   6.367 -1.0980  1.6785 -1.8095
  688MOL0     H90783   7.236   3.183   6.549  1.0982 -0.1989 -1.4354
  688MOL0     H90784   7.123   3.355   6.343  1.6165  0.4941 -0.0393
  688MOL0     H90785   7.278   3.376   6.420  0.7842 -0.6434  2.3539
  688MOL0     H90786   7.168   3.383   6.650 -1.5521  0.8403  0.3032
  688MOL0     H90787   7.017   3.345   6.562 -1.2540  0.5772 -0.5495
  688MOL0     H90788   7.174   3.608   6.574 -0.1092  0.1775  0.1510
  688MOL0     H90789   7.066   3.566   6.441  2.0255 -1.5371 -1.6427
  688MOL0     H90790   6.966   3.505   6.709  3.1706 -2.2114 -1.6592
  688MOL0     H90791   6.872   3.557   6.564  2.5362  0.6597 -4.7121
  688MOL0     H90792   6.941   3.773   6.572  1.0448  1.1414 -1.0558
  688MOL0     H90793   7.049   3.746   6.721  0.0456 -2.3828 -0.5508
  688MOL0     H90794   6.746   3.729   6.734 -0.0469 -1.7396  3.2815
  688MOL0     H90795   6.864   3.716   6.854  0.9679 -1.2959 -0.7327
  688MOL0     H90796   6.746   3.934   6.841 -1.3545  2.3235 -1.6514
  688MOL0     H90797   6.827   3.972   6.688  5.5389 -1.2462 -1.6671
  688MOL0     H90798   6.969   2.996   6.247  1.6485  4.4687  1.5263
  688MOL0     H90799   6.999   2.741   6.198  1.1890  0.7464 -0.7899
  688MOL0     H90800   6.947   2.413   6.318  1.0659  2.2754 -1.7805
  688MOL0     H90801   6.867   2.207   6.211 -0.7748 -0.9959 -4.2059
  688MOL0     H90802   7.146   1.403   6.317  0.7764  0.1084  0.7635
  688MOL0     H90803   7.364   1.473   6.419  1.8067 -2.3378 -0.0107
  688MOL0     H90804   7.737   1.142   6.834 -1.4735 -0.3399 -0.8175
  688MOL0     H90805   7.893   1.212   6.976 -1.2503 -1.8606 -1.9594
  688MOL0     H90806   8.049   1.337   7.072  2.1238  3.2216 -0.2355
  688MOL0     H90807   7.967   1.302   7.221 -1.7739 -0.8566 -2.3205
  688MOL0     H90808   8.099   1.572   7.185  1.4194  0.9898  2.6863
  688MOL0     H90809   8.048   1.506   7.331  1.2184 -0.2052  0.8856
  688MOL0     H90810   8.259   1.385   7.161  1.1657 -0.7209 -0.0391
  688MOL0     H90811   8.215   1.316   7.326  0.8727  0.8351  1.6029
  688MOL0     H90812   8.319   1.604   7.307  2.7993 -0.9350 -0.1108
  688MOL0     H90813   8.274   1.503   7.454  1.4600 -0.1472  0.3612
  688MOL0     H90814   8.642   1.340   7.312  1.2308 -0.6165  1.7531
  688MOL0     H90815   7.694   1.599   7.002  0.3776 -0.8721  2.4434
  688MOL0     H90816   7.561   1.530   6.801 -0.7350  2.8544  4.3906
  689MOL0     O90817   3.892   6.048   0.946 -0.6702 -0.2780 -0.7139
  689MOL0     C90818   3.851   5.936   0.930  0.0194 -0.5719 -0.2017
  689MOL0     O90819   3.921   5.828   0.904 -0.1139  0.2974 -0.4059
  689MOL0     C90820   4.055   5.838   0.903 -1.3903 -0.3140 -0.5297
  689MOL0     C90821   4.117   5.873   0.783 -0.1603  0.3307 -0.6353
  689MOL0     C90822   4.258   5.881   0.782 -0.5462 -0.6972  0.2630
  689MOL0     C90823   4.334   5.863   0.899  0.1127 -0.0614 -0.3231
  689MOL0     O90824   4.471   5.867   0.918 -0.4394  0.3135  0.1560
  689MOL0     C90825   4.558   5.893   0.804  0.7636 -0.2320  0.3096
  689MOL0     C90826   4.698   5.883   0.860  0.0224 -0.2374 -0.4743
  689MOL0     C90827   4.811   5.886   0.751  0.0861  1.1597  1.2672
  689MOL0     C90828   4.866   6.027   0.717  0.7155 -0.8386 -0.1677
  689MOL0     C90829   4.978   6.011   0.618 -0.0994  0.0005  0.0315
  689MOL0     C90830   5.078   5.893   0.636  0.0857  0.7444  0.3499
  689MOL0     C90831   5.213   5.931   0.580  1.0232  0.4186  0.5325
  689MOL0     C90832   5.334   5.833   0.591  0.0367 -0.3182 -0.0093
  689MOL0     N90833   5.451   5.862   0.507  0.5003 -0.2649 -0.2003
  689MOL0     C90834   5.570   5.905   0.551 -0.6964 -1.1569 -1.2339
  689MOL0     C90835   5.652   5.905   0.439 -0.1345 -0.0910  0.4970
  689MOL0     C90836   5.798   5.935   0.429 -0.3340 -0.6145 -0.2552
  689MOL0     C90837   5.866   5.866   0.555  0.4474  0.5475  0.6375
  689MOL0     C90838   5.864   5.700   0.563 -0.3549 -1.1855 -0.9337
  689MOL0     C90839   5.915   5.657   0.700  0.0975 -0.0697 -0.1424
  689MOL0     O90840   6.059   5.653   0.680  0.5003 -0.4676 -0.4975
  689MOL0     C90841   6.142   5.643   0.790 -0.6595  0.2749  0.4611
  689MOL0     C90842   6.092   5.607   0.917 -0.1185 -0.4503  0.1576
  689MOL0     C90843   6.178   5.584   1.026  0.2496 -0.3905 -0.1986
  689MOL0     C90844   6.318   5.605   1.006  0.2955 -0.3507 -0.1429
  689MOL0     C90845   6.417   5.597   1.112 -0.2455  0.3407 -0.1539
  689MOL0     O90846   6.552   5.626   1.096 -0.7447 -0.4302  0.6784
  689MOL0     C90847   6.637   5.589   1.197 -0.6518 -0.4550 -0.1648
  689MOL0     C90848   6.699   5.464   1.181 -1.6830 -0.5719 -0.0452
  689MOL0     C90849   6.783   5.412   1.277  0.3719 -1.2242  1.0257
  689MOL0     C90850   6.810   5.493   1.393  0.1921  0.1367  0.2095
  689MOL0     O90851   6.890   5.445   1.493 -0.2805  0.0864 -0.8913
  689MOL0     C90852   7.024   5.423   1.452  0.2452  0.7141  0.5262
  689MOL0     C90853   7.068   5.314   1.550  0.4202 -0.4019 -0.3438
  689MOL0     C90854   7.173   5.235   1.479 -0.3438 -1.0763 -0.8086
  689MOL0     C90855   7.228   5.140   1.580  0.6770 -0.0777 -0.2443
  689MOL0     C90856   7.360   5.083   1.530 -0.0089 -0.3300 -0.2237
  689MOL0     C90857   7.416   4.994   1.640  1.1629 -0.9662 -0.1055
  689MOL0     C90858   7.564   4.965   1.623 -0.1047 -0.4970 -0.4509
  689MOL0     C90859   7.624   4.850   1.695  0.4209  0.3613  0.8905
  689MOL0    Cl90860   7.611   4.849   1.861 -0.2157  0.2532 -0.3356
  689MOL0     C90861   6.752   5.613   1.414  0.3549  0.1388 -1.0999
  689MOL0     C90862   6.656   5.662   1.322  0.4670 -0.0501  0.0231
  689MOL0     O90863   6.369   5.562   1.222  0.0658 -0.2330  0.4669
  689MOL0     C90864   6.365   5.643   0.884 -0.8783  0.0716  0.5210
  689MOL0     C90865   6.275   5.663   0.776  0.0290  0.5217 -0.5928
  689MOL0     N90866   5.584   5.845   0.333  0.4790  1.0513 -0.3825
  689MOL0     N90867   5.460   5.824   0.381  0.6246  0.6529  0.1363
  689MOL0     C90868   4.263   5.846   1.018 -0.0925  0.1639 -0.0380
  689MOL0     C90869   4.128   5.832   1.020 -0.9374 -1.1195 -0.4302
  689MOL0     C90870   3.702   5.921   0.926 -0.3703 -1.0324 -0.2364
  689MOL0     C90871   3.643   5.820   0.853  0.9535 -0.6026  0.2413
  689MOL0     C90872   3.503   5.803   0.852  0.0532  0.2567  0.4877
  689MOL0     C90873   3.414   5.892   0.913  0.0610 -0.0115 -0.6624
  689MOL0     O90874   3.284   5.860   0.906 -0.6338 -0.2863  0.5692
  689MOL0     C90875   3.208   5.920   1.009  0.5538  0.3861 -0.1186
  689MOL0     C90876   3.056   5.878   1.006 -0.5210 -0.4775 -0.2951
  689MOL0     C90877   2.985   5.919   0.878  0.3318 -0.1679 -0.0238
  689MOL0     C90878   2.843   5.865   0.886 -0.0154  0.2874  0.2979
  689MOL0     C90879   2.768   5.914   0.765  0.3308 -0.3687 -0.4604
  689MOL0     C90880   2.711   5.954   0.668 -0.4562  0.4435  0.4666
  689MOL0     C90881   3.469   5.998   0.977 -0.3835 -0.2233  0.1062
  689MOL0     C90882   3.614   6.009   0.986 -0.0338 -0.5033 -0.1595
  689MOL0     H90883   4.068   5.896   0.689  2.1390  0.6534 -1.8141
  689MOL0     H90884   4.311   5.897   0.688 -0.0935  1.0426  0.7892
  689MOL0     H90885   4.546   5.998   0.777 -0.4610 -0.0173  1.5205
  689MOL0     H90886   4.537   5.817   0.728  3.0827 -1.1572  0.5181
  689MOL0     H90887   4.707   5.792   0.922  2.5563  1.0659  1.2696
  689MOL0     H90888   4.700   5.971   0.925 -3.6346  0.1241 -0.6729
  689MOL0     H90889   4.770   5.837   0.663  0.6959  0.6125  1.2827
  689MOL0     H90890   4.889   5.828   0.802  0.9369  2.8493  1.9839
  689MOL0     H90891   4.784   6.083   0.671  1.0478  0.3995  0.7030
  689MOL0     H90892   4.903   6.077   0.807 -3.4098  1.0834  0.6987
  689MOL0     H90893   5.031   6.107   0.623 -1.7296  1.0739 -1.8164
  689MOL0     H90894   4.941   5.994   0.516  1.3799 -0.5670 -0.4396
  689MOL0     H90895   5.036   5.804   0.587  0.3674  1.3564 -1.0702
  689MOL0     H90896   5.099   5.876   0.742  1.2184 -2.8195 -0.2848
  689MOL0     H90897   5.189   5.947   0.475  0.0770 -0.9592  0.5159
  689MOL0     H90898   5.242   6.031   0.615 -1.7284  1.6373 -0.4355
  689MOL0     H90899   5.292   5.735   0.567 -1.5399 -0.1214  1.6878
  689MOL0     H90900   5.377   5.832   0.692 -1.5342  0.4051  0.6911
  689MOL0     H90901   5.600   5.930   0.653  0.4046  2.2180 -2.2692
  689MOL0     H90902   5.798   6.044   0.441 -2.6738 -0.8429  4.2685
  689MOL0     H90903   5.845   5.905   0.335 -1.1697  1.5105 -1.4172
  689MOL0     H90904   5.822   5.907   0.647  1.9836 -1.4797  2.3459
  689MOL0     H90905   5.971   5.894   0.548  0.1454  1.5373 -0.2758
  689MOL0     H90906   5.763   5.658   0.553  0.0726 -1.9427 -2.2115
  689MOL0     H90907   5.924   5.661   0.480  0.7589 -1.1602 -0.1652
  689MOL0     H90908   5.886   5.557   0.733  0.4550  0.7602  2.9735
  689MOL0     H90909   5.885   5.728   0.776  0.5562 -1.2949  1.2385
  689MOL0     H90910   5.992   5.574   0.942  1.4550 -2.0117  5.7135
  689MOL0     H90911   6.144   5.534   1.116  1.9990 -0.7718  0.2985
  689MOL0     H90912   6.699   5.408   1.088 -1.8669 -1.1635  0.3018
  689MOL0     H90913   6.831   5.315   1.277  1.6677 -0.7014  4.0203
  689MOL0     H90914   7.078   5.518   1.451  0.8682  0.3955 -1.7392
  689MOL0     H90915   7.019   5.384   1.350 -0.3430  2.0978  0.0086
  689MOL0     H90916   6.983   5.255   1.587 -1.7822  3.5624  1.5139
  689MOL0     H90917   7.110   5.376   1.630  0.4962  0.2039 -0.8474
  689MOL0     H90918   7.255   5.297   1.442  1.3893 -0.7359  3.1414
  689MOL0     H90919   7.134   5.173   1.397 -0.8282 -0.1530 -1.2842
  689MOL0     H90920   7.241   5.192   1.675  0.3932 -1.5381  0.6317
  689MOL0     H90921   7.152   5.062   1.595 -0.0592  0.4121 -1.2962
  689MOL0     H90922   7.443   5.149   1.503 -0.6457  1.3107  1.6177
  689MOL0     H90923   7.352   5.018   1.442 -0.9304 -1.7018  0.8224
  689MOL0     H90924   7.355   4.903   1.638 -0.4621 -0.0143 -4.5717
  689MOL0     H90925   7.397   5.040   1.737 -2.1604  1.5525 -1.7371
  689MOL0     H90926   7.592   4.951   1.518  1.5426  3.4550 -0.7358
  689MOL0     H90927   7.622   5.052   1.657  2.4725 -1.9662 -0.8160
  689MOL0     H90928   7.727   4.841   1.657 -0.4370  0.1740 -1.6150
  689MOL0     H90929   7.571   4.760   1.663  2.0016 -0.6137  0.9010
  689MOL0     H90930   6.782   5.671   1.501 -0.8232  2.5918 -2.2626
  689MOL0     H90931   6.604   5.756   1.338  0.1243  0.9078 -4.9827
  689MOL0     H90932   6.469   5.664   0.862 -0.2180  0.5512  3.6263
  689MOL0     H90933   6.314   5.682   0.677  0.0950 -1.3886 -0.9725
  689MOL0     H90934   4.324   5.827   1.105  0.0621 -0.5163 -0.2869
  689MOL0     H90935   4.083   5.802   1.114  3.3723 -3.0766  1.2764
  689MOL0     H90936   3.700   5.749   0.794 -0.1598  0.5060 -2.3071
  689MOL0     H90937   3.471   5.721   0.788  1.0270 -0.0256  0.3501
  689MOL0     H90938   3.216   6.028   0.998 -0.7710  0.4850 -0.3245
  689MOL0     H90939   3.256   5.894   1.104 -1.1589  2.8726  1.5543
  689MOL0     H90940   3.053   5.772   1.033 -0.6012  0.0285  1.9080
  689MOL0     H90941   3.012   5.927   1.094 -2.6718 -3.1451  0.2693
  689MOL0     H90942   3.044   5.897   0.789  2.8557  2.6027  0.7651
  689MOL0     H90943   2.977   6.028   0.881 -2.7557 -0.2726  3.9750
  689MOL0     H90944   2.848   5.756   0.880 -0.1704  0.1090  2.6556
  689MOL0     H90945   2.787   5.898   0.974  2.3348  2.4269  1.1068
  689MOL0     H90946   2.660   5.986   0.579 -0.6453 -1.6375 -0.2496
  689MOL0     H90947   3.412   6.085   1.010  1.9305  1.0725  0.9413
  689MOL0     H90948   3.656   6.097   1.033 -1.3407 -0.7403  1.5229
  690MOL0     O90949   8.088   1.664   1.446  0.6937  0.2500 -0.3723
  690MOL0     C90950   8.049   1.678   1.563 -1.0207 -0.8334  0.3264
  690MOL0     O90951   8.110   1.758   1.659  0.7143  0.2838  0.6176
  690MOL0     C90952   8.221   1.827   1.614  0.1496  0.2414 -0.4407
  690MOL0     C90953   8.352   1.776   1.608  0.6815 -0.3159 -1.1849
  690MOL0     C90954   8.465   1.834   1.549  0.5567  0.1399  0.5836
  690MOL0     C90955   8.448   1.970   1.515  0.6357  0.3221 -0.3414
  690MOL0     O90956   8.554   2.051   1.464  1.3536  0.0170 -1.1011
  690MOL0     C90957   8.687   2.007   1.472  0.2223 -0.6215  0.9341
  690MOL0     C90958   8.772   2.123   1.435  0.5468 -0.5142  0.1650
  690MOL0     C90959   8.768   2.231   1.542  0.0932  0.1199 -0.1787
  690MOL0     C90960   8.853   2.350   1.493  0.1614 -1.2426  0.5218
  690MOL0     C90961   8.885   2.451   1.604 -0.7580 -0.1712 -0.1749
  690MOL0     C90962   8.922   2.589   1.545 -1.4166  0.5857  0.1144
  690MOL0     C90963   8.983   2.679   1.656 -0.2044  0.4075 -0.2510
  690MOL0     C90964   9.032   2.824   1.606  1.0295  0.1804  0.2610
  690MOL0     N90965   9.130   2.812   1.507 -0.3826 -0.6831  0.3798
  690MOL0     C90966   9.260   2.786   1.524  0.2953 -0.2187 -1.1299
  690MOL0     C90967   9.317   2.783   1.405 -0.5195 -0.2982 -0.3405
  690MOL0     C90968   9.458   2.756   1.386 -0.5690  0.1910 -0.6900
  690MOL0     C90969   9.548   2.873   1.430  0.4162  0.2506  0.6438
  690MOL0     C90970   9.676   2.876   1.338 -0.4061  0.6742 -0.7873
  690MOL0     C90971   9.785   2.774   1.374  0.1091 -0.1543 -0.3748
  690MOL0     O90972   9.871   2.847   1.465 -0.5191  0.3193 -0.5331
  690MOL0     C90973   9.978   2.917   1.417  0.2049  0.3760 -0.6337
  690MOL0     C90974  10.078   2.955   1.514  0.2246 -1.0143  0.1704
  690MOL0     C90975  10.176   3.050   1.483 -0.0410  0.0046 -0.0239
  690MOL0     C90976  10.201   3.072   1.342 -0.2953  0.0405  1.0704
  690MOL0     C90977  10.299   3.168   1.298 -0.3544 -0.4398 -0.1678
  690MOL0     O90978  10.369   3.143   1.185 -0.0231  0.0830 -0.1965
  690MOL0     C90979  10.454   3.248   1.144  0.4213  0.4214 -0.4320
  690MOL0     C90980  10.389   3.350   1.081  0.0879  0.7176 -0.2276
  690MOL0     C90981  10.463   3.447   1.023  0.3299  0.7300  0.1162
  690MOL0     C90982  10.602   3.427   1.020 -0.0655 -0.3336  0.1060
  690MOL0     O90983  10.691   3.516   0.960 -0.3247 -0.0939 -0.6499
  690MOL0     C90984  10.635   3.646   0.941 -0.9288 -0.9096 -0.0675
  690MOL0     C90985  10.747   3.747   0.919 -1.0228 -0.4463 -0.0005
  690MOL0     C90986  10.832   3.778   1.049  0.0444  0.4207  0.1877
  690MOL0     C90987  10.928   3.886   1.020 -0.6219  0.9204  0.0411
  690MOL0     C90988  10.974   3.954   1.155  0.6285  0.7887  0.4716
  690MOL0     C90989  11.086   4.050   1.127  0.0733  0.0564 -0.1457
  690MOL0     C90990  11.226   3.991   1.118  0.1690  0.1595 -0.7852
  690MOL0     C90991  11.323   4.090   1.061 -0.3226  0.0760 -0.2044
  690MOL0    Cl90992  11.272   4.153   0.903  0.2193 -0.2364  0.0964
  690MOL0     C90993  10.669   3.317   1.068 -0.1139 -0.6533  0.7379
  690MOL0     C90994  10.589   3.216   1.123 -0.6241  0.3119  0.4859
  690MOL0     O90995  10.286   3.274   1.361 -0.4976  0.2250 -0.8243
  690MOL0     C90996  10.117   3.010   1.250 -0.3694 -0.0278  0.1725
  690MOL0     C90997   9.996   2.952   1.282 -0.2198  0.2156 -0.4769
  690MOL0     N90998   9.219   2.805   1.310 -0.2976  0.1629  0.0282
  690MOL0     N90999   9.114   2.825   1.376  0.0959 -0.6254  0.8174
  690MOL0     C91000   8.314   2.021   1.515 -0.3580 -0.2126  0.5847
  690MOL0     C91001   8.205   1.951   1.564  0.3691 -0.4763 -0.1109
  690MOL0     C91002   7.927   1.608   1.605  0.9324  0.8421  0.4432
  690MOL0     C91003   7.877   1.494   1.533 -0.0419 -0.5496 -0.0432
  690MOL0     C91004   7.765   1.426   1.576 -0.1510 -0.5222 -0.4822
  690MOL0     C91005   7.681   1.476   1.684  0.1454  1.1383  0.6490
  690MOL0     O91006   7.554   1.430   1.725  0.5025 -0.0976 -0.8621
  690MOL0     C91007   7.472   1.351   1.638 -0.4391  0.6728 -0.6873
  690MOL0     C91008   7.493   1.194   1.635  0.6235 -0.8258  0.8018
  690MOL0     C91009   7.447   1.128   1.766  0.4125 -0.9991  0.0175
  690MOL0     C91010   7.415   0.984   1.757  0.1493 -0.3939  0.9420
  690MOL0     C91011   7.399   0.936   1.887 -0.5950 -0.5419 -0.6536
  690MOL0     C91012   7.400   0.912   2.002  0.1682  0.9113  0.7593
  690MOL0     C91013   7.730   1.582   1.758  0.2903  0.0816  0.3658
  690MOL0     C91014   7.852   1.647   1.717  0.4088  0.1351  0.8310
  690MOL0     H91015   8.366   1.674   1.641  0.0246  0.0888  0.4288
  690MOL0     H91016   8.553   1.772   1.544 -0.9621 -2.2513  1.5003
  690MOL0     H91017   8.707   1.939   1.389 -1.7831  1.1545 -1.1353
  690MOL0     H91018   8.709   1.960   1.569  1.0334 -2.3186 -0.0291
  690MOL0     H91019   8.739   2.161   1.338  4.4259  1.2218 -0.7088
  690MOL0     H91020   8.876   2.099   1.411  0.8354  1.0865 -0.2749
  690MOL0     H91021   8.819   2.197   1.632  0.4076 -0.0792 -0.4307
  690MOL0     H91022   8.666   2.257   1.573 -0.3787 -1.3711 -0.3779
  690MOL0     H91023   8.947   2.318   1.447 -0.2404 -0.9841 -0.5021
  690MOL0     H91024   8.798   2.403   1.415  0.1322 -0.5667  0.9867
  690MOL0     H91025   8.961   2.398   1.664 -2.5434 -2.8440 -0.1305
  690MOL0     H91026   8.793   2.470   1.660 -0.2088  1.1885  0.3161
  690MOL0     H91027   8.828   2.634   1.512 -0.1128  3.4434 -0.0141
  690MOL0     H91028   8.990   2.579   1.460 -3.4885  1.1169 -1.7013
  690MOL0     H91029   8.906   2.694   1.733 -1.1225  3.3474 -1.6072
  690MOL0     H91030   9.072   2.640   1.706 -0.7214  0.3586  0.6646
  690MOL0     H91031   9.056   2.889   1.691 -0.3601  0.2780  0.6165
  690MOL0     H91032   8.943   2.868   1.559 -0.1786 -0.0536  2.1979
  690MOL0     H91033   9.303   2.763   1.621 -1.6411 -1.8370 -0.5898
  690MOL0     H91034   9.472   2.729   1.281 -0.1005 -1.8728 -0.1390
  690MOL0     H91035   9.491   2.675   1.451  1.3223  3.2616  2.5432
  690MOL0     H91036   9.572   2.866   1.536  1.3976 -2.4160  0.3110
  690MOL0     H91037   9.493   2.965   1.407  0.5205  0.3263  0.6923
  690MOL0     H91038   9.648   2.858   1.234 -1.7164 -0.2240 -0.3154
  690MOL0     H91039   9.718   2.977   1.345  1.6015  0.1523 -3.6843
  690MOL0     H91040   9.833   2.744   1.280 -3.4117 -3.6657 -1.3312
  690MOL0     H91041   9.746   2.683   1.420  1.5304  0.3805  2.0529
  690MOL0     H91042  10.076   2.922   1.617  2.5671  0.9324  0.9274
  690MOL0     H91043  10.241   3.085   1.563 -1.7510  1.0765  0.9712
  690MOL0     H91044  10.280   3.351   1.085  0.0890 -0.3304  2.1425
  690MOL0     H91045  10.407   3.532   0.985  2.2247  0.8688 -2.6737
  690MOL0     H91046  10.585   3.683   1.031 -1.4692 -0.6298 -0.4764
  690MOL0     H91047  10.568   3.654   0.855  0.0179  0.2533 -0.7216
  690MOL0     H91048  10.700   3.844   0.903  3.0382  1.9418  1.0246
  690MOL0     H91049  10.806   3.723   0.831 -1.0536 -0.1156 -0.1133
  690MOL0     H91050  10.890   3.687   1.063  0.2073 -0.0917 -2.9710
  690MOL0     H91051  10.754   3.798   1.123 -0.5429 -0.8277 -0.0657
  690MOL0     H91052  11.012   3.838   0.968 -0.4856  2.2954 -1.0633
  690MOL0     H91053  10.889   3.962   0.951 -0.9421  0.9483  0.2503
  690MOL0     H91054  11.008   3.871   1.218 -3.4439  0.0761  2.0552
  690MOL0     H91055  10.891   4.006   1.204 -0.2112  0.5846 -0.6795
  690MOL0     H91056  11.083   4.133   1.199  1.1285  3.7087 -3.9508
  690MOL0     H91057  11.065   4.095   1.030 -1.1473 -0.6846 -0.2482
  690MOL0     H91058  11.251   3.961   1.221 -0.8161 -1.0245 -0.8753
  690MOL0     H91059  11.236   3.904   1.052  0.8348 -0.0582 -0.4106
  690MOL0     H91060  11.425   4.053   1.052  0.2853  1.8243 -0.8653
  690MOL0     H91061  11.331   4.164   1.141  4.1173  0.0172 -0.3482
  690MOL0     H91062  10.773   3.311   1.039  0.4487  3.6807  1.2178
  690MOL0     H91063  10.630   3.122   1.158 -1.0559  0.4678  1.4551
  690MOL0     H91064  10.141   3.021   1.144 -0.7711 -2.8308 -0.3024
  690MOL0     H91065   9.925   2.920   1.207  0.0276 -0.4301 -0.4433
  690MOL0     H91066   8.307   2.118   1.468  1.6459 -0.1422  0.3459
  690MOL0     H91067   8.111   2.005   1.562  1.1442  1.0431  1.4648
  690MOL0     H91068   7.941   1.435   1.468  0.3939 -0.7492  0.5494
  690MOL0     H91069   7.737   1.335   1.524  4.4171 -1.5642 -1.6213
  690MOL0     H91070   7.499   1.371   1.534  1.6978 -1.4726 -0.6503
  690MOL0     H91071   7.369   1.381   1.656  0.0192  1.7273  0.2322
  690MOL0     H91072   7.441   1.149   1.551  4.2157 -1.5733 -1.2323
  690MOL0     H91073   7.601   1.184   1.622  0.5996  0.4950 -0.7437
  690MOL0     H91074   7.359   1.189   1.786  0.1985  0.8064 -4.9256
  690MOL0     H91075   7.525   1.151   1.839  0.9910  0.4266 -0.9942
  690MOL0     H91076   7.320   0.971   1.704  0.9945 -0.0806 -0.7049
  690MOL0     H91077   7.499   0.935   1.706  1.4494  3.3179 -0.8814
  690MOL0     H91078   7.394   0.875   2.103 -0.4757  4.6188  2.2721
  690MOL0     H91079   7.682   1.632   1.842 -1.4791  0.2631 -0.7189
  690MOL0     H91080   7.887   1.735   1.770 -0.6196  0.2363  1.3644
  691MOL0     O91081  11.320   0.640   3.657  0.8413 -0.2225  0.5011
  691MOL0     C91082  11.399   0.557   3.619  0.2811 -0.0720  1.2317
  691MOL0     O91083  11.398   0.422   3.655 -1.1104  0.2696  0.2642
  691MOL0     C91084  11.295   0.383   3.741  0.6155 -0.3155 -0.3761
  691MOL0     C91085  11.166   0.372   3.690 -0.7744  0.5382  0.6296
  691MOL0     C91086  11.059   0.344   3.776  0.0057  0.9010 -0.3974
  691MOL0     C91087  11.084   0.321   3.914  0.1284  0.5187  0.0973
  691MOL0     O91088  10.994   0.293   4.018  0.3868  0.0585  0.5983
  691MOL0     C91089  10.859   0.342   4.009  0.2127  0.5778  0.6529
  691MOL0     C91090  10.758   0.219   4.003  0.1501  0.7835  0.1219
  691MOL0     C91091  10.679   0.196   3.872 -0.1119  0.3287  0.7927
  691MOL0     C91092  10.585   0.309   3.847  0.1120  0.4220  0.1549
  691MOL0     C91093  10.496   0.280   3.729  0.0584  0.4394  0.0324
  691MOL0     C91094  10.424   0.411   3.680 -0.1648  0.0230  0.6263
  691MOL0     C91095  10.342   0.495   3.768  0.2608  0.4888 -0.0385
  691MOL0     C91096  10.382   0.642   3.775 -1.4277  0.2832  0.0216
  691MOL0     N91097  10.426   0.697   3.645  0.8205 -1.0907  0.0793
  691MOL0     C91098  10.553   0.724   3.595 -0.0796 -0.3949 -0.1672
  691MOL0     C91099  10.525   0.802   3.486 -0.4863  0.5695 -0.1445
  691MOL0     C91100  10.649   0.856   3.411  0.4997  0.5586  0.2488
  691MOL0     C91101  10.634   0.993   3.344  0.0385  0.3068  0.1838
  691MOL0     C91102  10.635   1.103   3.446  0.7570  0.1610 -0.0775
  691MOL0     C91103  10.627   1.237   3.379 -0.0247 -0.6317  0.0769
  691MOL0     O91104  10.727   1.252   3.281 -0.0459 -0.4536 -0.1622
  691MOL0     C91105  10.836   1.335   3.308 -0.3383  0.6113 -0.7794
  691MOL0     C91106  10.950   1.306   3.236 -0.2806  0.1285 -0.4809
  691MOL0     C91107  11.078   1.362   3.271 -0.0574  0.1349  0.7695
  691MOL0     C91108  11.087   1.462   3.365  0.3122 -1.0460 -0.7586
  691MOL0     C91109  11.216   1.524   3.408  0.2310 -0.2796  0.1749
  691MOL0     O91110  11.329   1.497   3.331  0.0308  0.5707 -0.1771
  691MOL0     C91111  11.452   1.547   3.365 -0.5663  0.8725 -0.0518
  691MOL0     C91112  11.475   1.677   3.346  0.1439 -0.9916 -0.2275
  691MOL0     C91113  11.602   1.731   3.397  0.4489 -0.6186  0.7665
  691MOL0     C91114  11.706   1.652   3.439  0.8745  0.3055  0.6169
  691MOL0     O91115  11.828   1.690   3.470 -0.0637 -0.0859 -0.2111
  691MOL0     C91116  11.873   1.799   3.388  0.1386  0.2944  0.7367
  691MOL0     C91117  12.013   1.835   3.434 -0.9792 -0.2309 -0.0451
  691MOL0     C91118  12.103   1.710   3.409 -0.5024  0.3824  0.0986
  691MOL0     C91119  12.234   1.740   3.473 -0.3952  0.8027 -0.3261
  691MOL0     C91120  12.333   1.624   3.463  0.2331  0.9248 -0.2786
  691MOL0     C91121  12.467   1.668   3.482 -0.2207 -0.3244 -0.2382
  691MOL0     C91122  12.568   1.564   3.454 -0.3965 -0.4259  0.0834
  691MOL0     C91123  12.705   1.627   3.415  0.1272 -0.5531 -0.8663
  691MOL0    Cl91124  12.723   1.683   3.246 -0.4408  0.6249  0.1409
  691MOL0     C91125  11.672   1.515   3.456  0.0490 -1.3002 -0.4216
  691MOL0     C91126  11.546   1.466   3.424  0.5061 -0.1175  0.8298
  691MOL0     O91127  11.219   1.590   3.511 -0.0740  0.1048 -0.5045
  691MOL0     C91128  10.967   1.505   3.427 -0.5022  0.0514  1.1197
  691MOL0     C91129  10.850   1.432   3.397  0.5386  0.6628 -0.5515
  691MOL0     N91130  10.389   0.818   3.463 -0.1586 -0.1701 -0.4876
  691MOL0     N91131  10.329   0.752   3.571 -0.0950 -0.1456  0.4754
  691MOL0     C91132  11.214   0.318   3.955  0.3421  1.0286 -0.5764
  691MOL0     C91133  11.316   0.358   3.873  0.1293 -0.6039  0.0909
  691MOL0     C91134  11.478   0.597   3.507  0.3665 -1.1893 -0.7331
  691MOL0     C91135  11.475   0.733   3.458 -1.2268 -0.2984 -0.2941
  691MOL0     C91136  11.569   0.782   3.372  0.2239  0.0558  0.3948
  691MOL0     C91137  11.672   0.692   3.315  0.2254  0.2053  0.3535
  691MOL0     O91138  11.764   0.760   3.236  0.2868  0.2973  0.5162
  691MOL0     C91139  11.887   0.698   3.250 -0.7578  0.3688  0.8428
  691MOL0     C91140  12.000   0.797   3.244  0.4516 -0.0406  0.2038
  691MOL0     C91141  12.120   0.746   3.162 -0.0136 -0.1381 -0.4239
  691MOL0     C91142  12.246   0.835   3.186 -0.2407  0.4698  0.4343
  691MOL0     C91143  12.303   0.816   3.322  0.0483 -0.1019  0.3672
  691MOL0     C91144  12.351   0.797   3.432  0.2011  0.3813 -0.4396
  691MOL0     C91145  11.670   0.557   3.359  0.5352  0.2190  0.0668
  691MOL0     C91146  11.567   0.509   3.447 -0.7306 -0.2991  0.5450
  691MOL0     H91147  11.159   0.395   3.584 -0.4351 -0.7237  0.3250
  691MOL0     H91148  10.956   0.338   3.743 -0.1125 -1.3483  0.2290
  691MOL0     H91149  10.851   0.401   3.917 -0.0084 -0.4434  0.0043
  691MOL0     H91150  10.831   0.411   4.089 -5.0933  0.3495 -0.6172
  691MOL0     H91151  10.681   0.221   4.081 -0.4968 -1.0916 -0.4015
  691MOL0     H91152  10.810   0.125   4.026 -3.9989 -2.4091 -2.0644
  691MOL0     H91153  10.633   0.097   3.872  1.1745 -0.4377 -3.3559
  691MOL0     H91154  10.744   0.178   3.786 -3.0178  0.3521 -1.5722
  691MOL0     H91155  10.517   0.327   3.932 -0.8123 -1.7445 -0.0596
  691MOL0     H91156  10.640   0.402   3.827  0.4916  0.1096 -0.2657
  691MOL0     H91157  10.423   0.206   3.764 -1.0321  0.7098 -1.5661
  691MOL0     H91158  10.547   0.239   3.642 -1.9514 -2.1299 -0.0694
  691MOL0     H91159  10.379   0.386   3.584  0.7898 -0.5465  0.3122
  691MOL0     H91160  10.509   0.474   3.655 -2.3942  3.0133  0.0285
  691MOL0     H91161  10.242   0.491   3.723  0.5855  0.3214 -0.7627
  691MOL0     H91162  10.336   0.455   3.869  0.0402  2.5130  0.7897
  691MOL0     H91163  10.477   0.635   3.828  0.4246 -1.0664 -3.1870
  691MOL0     H91164  10.304   0.697   3.829  0.1283 -0.0688  2.8229
  691MOL0     H91165  10.650   0.700   3.637 -0.0898  1.4683  1.0251
  691MOL0     H91166  10.673   0.785   3.331  0.4821 -0.1776  0.8899
  691MOL0     H91167  10.734   0.845   3.479  0.8434  1.5016 -0.0197
  691MOL0     H91168  10.536   0.995   3.297 -0.0085  0.9782  0.2987
  691MOL0     H91169  10.700   1.015   3.260  0.9327  2.9874  1.4490
  691MOL0     H91170  10.553   1.092   3.518  2.1050  2.0266  1.8644
  691MOL0     H91171  10.732   1.100   3.497  1.4953 -3.0938 -1.4060
  691MOL0     H91172  10.639   1.317   3.453 -0.8886 -1.2125  0.8656
  691MOL0     H91173  10.529   1.246   3.330 -0.7039  1.2526  1.6497
  691MOL0     H91174  10.944   1.232   3.157  0.4489 -0.8625  0.3661
  691MOL0     H91175  11.167   1.332   3.216 -1.9314 -4.4605 -0.3071
  691MOL0     H91176  11.398   1.735   3.297  1.3555  0.3204 -0.6590
  691MOL0     H91177  11.609   1.839   3.405 -2.7299 -0.4558  4.4141
  691MOL0     H91178  11.808   1.886   3.397 -2.6528 -1.4053 -1.2098
  691MOL0     H91179  11.865   1.765   3.284 -0.7984 -0.6936  1.1029
  691MOL0     H91180  12.024   1.866   3.539  2.8040  0.5143 -0.5174
  691MOL0     H91181  12.046   1.918   3.371  2.0656 -2.5671 -1.8084
  691MOL0     H91182  12.108   1.681   3.304 -2.0098  1.8819 -0.4192
  691MOL0     H91183  12.059   1.624   3.461  0.1019  0.5861  0.9747
  691MOL0     H91184  12.263   1.830   3.418  0.4252  1.4881  1.1607
  691MOL0     H91185  12.231   1.776   3.577  0.2576  1.4655 -0.5268
  691MOL0     H91186  12.338   1.582   3.362  1.5280 -1.5862  0.7288
  691MOL0     H91187  12.312   1.542   3.533  1.2544 -0.3180 -1.3740
  691MOL0     H91188  12.483   1.706   3.583 -1.3159 -3.5957  1.3046
  691MOL0     H91189  12.474   1.755   3.416 -1.4914 -1.0713 -1.4096
  691MOL0     H91190  12.566   1.502   3.544  0.8275 -1.6893 -0.7069
  691MOL0     H91191  12.534   1.492   3.379  1.3401 -0.0602 -1.1097
  691MOL0     H91192  12.781   1.553   3.442  0.4217 -0.1545 -0.5982
  691MOL0     H91193  12.714   1.717   3.475  3.2008  0.3264 -2.4477
  691MOL0     H91194  11.752   1.446   3.481  1.5028  0.1258 -1.0126
  691MOL0     H91195  11.529   1.359   3.425  0.7623 -0.3147 -2.5978
  691MOL0     H91196  10.976   1.581   3.504  2.6210  0.5766  0.3735
  691MOL0     H91197  10.769   1.479   3.451 -0.9342 -1.7840 -0.4916
  691MOL0     H91198  11.235   0.294   4.058  0.8342 -2.8134 -1.4288
  691MOL0     H91199  11.415   0.386   3.908  0.4067 -1.8409  0.3494
  691MOL0     H91200  11.405   0.807   3.496 -0.1694 -0.4936  2.2348
  691MOL0     H91201  11.560   0.885   3.340 -1.4899 -0.2295 -0.1683
  691MOL0     H91202  11.900   0.643   3.157  0.5444  3.7503 -1.1636
  691MOL0     H91203  11.914   0.627   3.329  1.2094 -0.5001 -0.5211
  691MOL0     H91204  11.977   0.891   3.192 -1.4579 -0.2197  0.6331
  691MOL0     H91205  12.027   0.807   3.349  0.1708  2.6378  0.1015
  691MOL0     H91206  12.097   0.746   3.055  1.3445  3.5018 -0.8734
  691MOL0     H91207  12.156   0.647   3.192  0.7722  0.5831  1.1980
  691MOL0     H91208  12.320   0.811   3.109 -0.9480  0.8544 -0.3885
  691MOL0     H91209  12.206   0.936   3.181  0.0099  0.7764  3.1212
  691MOL0     H91210  12.388   0.773   3.529  2.0940 -4.7350 -2.0663
  691MOL0     H91211  11.739   0.479   3.327  1.0058  0.9841 -0.8649
  691MOL0     H91212  11.580   0.408   3.485 -3.5962 -0.7889  0.4547
  692MOL0     O91213   0.750   0.351   0.780  0.5462 -0.2085 -1.0073
  692MOL0     C91214   0.785   0.350   0.903 -0.4394 -0.1766  0.1393
  692MOL0     O91215   0.697   0.332   1.006 -0.0864 -0.5069  0.2817
  692MOL0     C91216   0.564   0.301   0.984 -0.4545 -0.7794  0.0775
  692MOL0     C91217   0.474   0.396   1.043  0.4075  0.7530  1.0840
  692MOL0     C91218   0.339   0.370   1.031  0.6157 -0.5241 -0.7167
  692MOL0     C91219   0.290   0.253   0.967 -0.1165  0.4389  0.6349
  692MOL0     O91220   0.155   0.248   0.969 -0.2762 -0.7983 -0.2982
  692MOL0     C91221   0.089   0.125   0.935  1.0510 -1.2108 -0.1499
  692MOL0     C91222   0.084   0.020   1.043  0.0151  0.4486 -0.6268
  692MOL0     C91223   0.034   0.072   1.179  0.1939 -0.0561  0.4256
  692MOL0     C91224  -0.112   0.133   1.183 -0.4738 -0.2080 -0.0378
  692MOL0     C91225  -0.176   0.117   1.316  0.5692  0.6115  0.7171
  692MOL0     C91226  -0.106   0.229   1.404  0.3232 -0.3267  0.4862
  692MOL0     C91227  -0.169   0.236   1.550  0.8591  0.9290 -0.1517
  692MOL0     C91228  -0.104   0.337   1.635  0.9025 -1.3590 -0.8258
  692MOL0     N91229  -0.165   0.361   1.769  0.8806 -0.2679 -1.1620
  692MOL0     C91230  -0.282   0.427   1.804  0.1487 -1.1387  0.6784
  692MOL0     C91231  -0.303   0.396   1.931  0.4015 -0.5082  0.1103
  692MOL0     C91232  -0.419   0.437   2.017 -0.1698 -0.6193  0.9045
  692MOL0     C91233  -0.551   0.366   2.021 -0.2086 -0.9708 -0.8908
  692MOL0     C91234  -0.637   0.395   1.894  0.9117  0.5975 -0.6394
  692MOL0     C91235  -0.780   0.401   1.930 -0.0286  0.2000 -0.2042
  692MOL0     O91236  -0.824   0.280   1.993 -0.4318 -0.7466  0.7747
  692MOL0     C91237  -0.949   0.279   2.043 -0.2145  0.9720 -0.0431
  692MOL0     C91238  -0.967   0.177   2.132 -0.6159  0.8306  0.7853
  692MOL0     C91239  -1.089   0.159   2.194 -0.3685  0.2565 -0.1282
  692MOL0     C91240  -1.198   0.243   2.164 -0.1954 -0.3951 -0.5236
  692MOL0     C91241  -1.331   0.224   2.216  0.1842  0.0047 -0.4687
  692MOL0     O91242  -1.435   0.320   2.202 -0.2447 -0.0062  0.3444
  692MOL0     C91243  -1.548   0.298   2.260  0.1951 -0.0520 -0.3331
  692MOL0     C91244  -1.599   0.388   2.363  0.4780  0.6303  0.3040
  692MOL0     C91245  -1.733   0.363   2.410 -0.7205 -0.7029  0.1065
  692MOL0     C91246  -1.817   0.262   2.354 -0.0641 -0.1386 -0.1648
  692MOL0     O91247  -1.947   0.248   2.415 -0.1400  1.0117 -1.2287
  692MOL0     C91248  -2.044   0.156   2.368  0.2151 -0.3269 -0.6660
  692MOL0     C91249  -2.158   0.108   2.458  0.7735 -1.1272 -0.1594
  692MOL0     C91250  -2.216   0.234   2.529  0.7174  0.0533 -0.1279
  692MOL0     C91251  -2.326   0.196   2.630 -0.5443 -1.0598 -0.2155
  692MOL0     C91252  -2.444   0.124   2.568 -0.2136 -1.1559 -0.4393
  692MOL0     C91253  -2.536   0.081   2.680 -0.4412  0.8450 -0.3547
  692MOL0     C91254  -2.666   0.014   2.626 -0.3968  0.1706  0.6295
  692MOL0     C91255  -2.790   0.021   2.712 -1.0182 -0.3323 -1.0388
  692MOL0    Cl91256  -2.931  -0.046   2.637  0.4075  0.1540  0.2316
  692MOL0     C91257  -1.771   0.189   2.247 -1.0053  0.1111  0.5294
  692MOL0     C91258  -1.641   0.216   2.196  1.1870 -1.2478 -0.3257
  692MOL0     O91259  -1.344   0.127   2.293  0.0593 -0.6290 -0.4858
  692MOL0     C91260  -1.180   0.355   2.076 -0.3736  0.4715 -0.4411
  692MOL0     C91261  -1.053   0.365   2.018 -1.0293 -0.7304  0.2093
  692MOL0     N91262  -0.213   0.299   1.973 -0.7244 -0.4900  1.3131
  692MOL0     N91263  -0.144   0.267   1.864 -0.2680 -0.0177  0.4271
  692MOL0     C91264   0.386   0.159   0.916  0.2693  0.1540 -0.0340
  692MOL0     C91265   0.523   0.185   0.930  0.5019  1.0147 -0.5021
  692MOL0     C91266   0.929   0.363   0.924 -0.1213 -0.1227 -0.5777
  692MOL0     C91267   1.021   0.329   0.819  0.4484 -0.3154  1.2650
  692MOL0     C91268   1.155   0.325   0.851 -0.1627  0.0623 -0.2564
  692MOL0     C91269   1.201   0.348   0.985 -0.1474 -0.5907 -0.4003
  692MOL0     O91270   1.329   0.363   1.024  0.3520  0.4704 -0.5999
  692MOL0     C91271   1.424   0.274   0.967 -0.2203 -0.1119 -1.0797
  692MOL0     C91272   1.560   0.263   1.049 -0.6753  0.5648  0.4187
  692MOL0     C91273   1.633   0.400   1.057  0.3813  0.3446  0.7104
  692MOL0     C91274   1.754   0.411   1.148 -0.8925  0.1633 -0.0674
  692MOL0     C91275   1.815   0.549   1.143 -0.3447  0.4850 -0.6387
  692MOL0     C91276   1.862   0.655   1.142 -1.1099 -0.0473 -1.0367
  692MOL0     C91277   1.109   0.410   1.072 -1.0750 -0.1241 -0.9475
  692MOL0     C91278   0.973   0.409   1.048 -0.4648  0.2845  0.2638
  692MOL0     H91279   0.514   0.488   1.082  2.6743  0.4694 -0.4012
  692MOL0     H91280   0.281   0.454   1.069 -1.0320 -2.4722  1.3340
  692MOL0     H91281   0.137   0.084   0.846  1.4985 -1.5908  0.2515
  692MOL0     H91282  -0.015   0.154   0.923  0.7330 -1.9090  0.7938
  692MOL0     H91283   0.185  -0.017   1.061 -1.0761 -1.4977  2.1639
  692MOL0     H91284   0.015  -0.058   1.011 -2.3815  1.3059  2.0165
  692MOL0     H91285   0.099   0.145   1.229 -3.4383  4.4072 -0.6340
  692MOL0     H91286   0.028  -0.015   1.244 -0.1919 -0.0978  0.3344
  692MOL0     H91287  -0.105   0.239   1.156  2.3693 -0.6740 -1.5743
  692MOL0     H91288  -0.159   0.065   1.111  1.3882 -0.7633 -0.8012
  692MOL0     H91289  -0.167   0.018   1.362  0.9451  1.3478  2.2904
  692MOL0     H91290  -0.283   0.138   1.308  0.6391  2.0406  2.7248
  692MOL0     H91291  -0.102   0.329   1.360  0.6472 -1.6780 -2.8183
  692MOL0     H91292  -0.002   0.210   1.434  0.0493 -1.0219  1.0438
  692MOL0     H91293  -0.272   0.272   1.536 -1.3216 -3.6014  2.0967
  692MOL0     H91294  -0.175   0.139   1.600  3.9605  0.6888 -0.0966
  692MOL0     H91295  -0.094   0.441   1.602 -0.6417 -0.3976  1.4486
  692MOL0     H91296   0.002   0.314   1.649  3.0064  4.0631 -4.2343
  692MOL0     H91297  -0.340   0.479   1.727  2.5350 -0.9122 -1.0608
  692MOL0     H91298  -0.442   0.539   1.986 -1.3802 -0.3187  2.6187
  692MOL0     H91299  -0.372   0.438   2.116  2.1546  0.8100 -0.1302
  692MOL0     H91300  -0.592   0.416   2.109  1.2285  0.8238 -1.1774
  692MOL0     H91301  -0.549   0.259   2.044  2.1684 -0.6582  0.6249
  692MOL0     H91302  -0.608   0.489   1.847  2.3705  0.5836  0.1645
  692MOL0     H91303  -0.610   0.314   1.825  0.3816 -0.2029  0.0683
  692MOL0     H91304  -0.844   0.413   1.843 -3.7671  2.3988  2.5389
  692MOL0     H91305  -0.790   0.487   1.997  0.9499 -0.1235  0.3697
  692MOL0     H91306  -0.894   0.100   2.152 -2.0344 -0.5815  0.7891
  692MOL0     H91307  -1.089   0.083   2.272 -1.8760  3.8994  3.7974
  692MOL0     H91308  -1.542   0.460   2.420 -0.3308  1.0463  0.6178
  692MOL0     H91309  -1.769   0.429   2.488 -0.7168 -1.9623  1.2032
  692MOL0     H91310  -1.987   0.065   2.344 -1.2324 -1.8423  1.2858
  692MOL0     H91311  -2.083   0.204   2.278  1.9663 -0.3477 -1.4858
  692MOL0     H91312  -2.118   0.039   2.533  0.5489  0.1282  1.1526
  692MOL0     H91313  -2.238   0.068   2.394  0.7559 -0.2079 -0.7210
  692MOL0     H91314  -2.263   0.296   2.452  2.6236 -2.2936 -3.4761
  692MOL0     H91315  -2.131   0.278   2.581  2.0144 -1.6407 -0.7092
  692MOL0     H91316  -2.276   0.126   2.697  2.1287  0.8729 -0.0401
  692MOL0     H91317  -2.364   0.277   2.693  2.8675 -0.7932  1.6973
  692MOL0     H91318  -2.421   0.029   2.518 -0.6859 -1.3100 -0.3654
  692MOL0     H91319  -2.493   0.201   2.508 -0.3886 -0.4428  0.6033
  692MOL0     H91320  -2.560   0.172   2.736 -0.9479 -1.0264  2.7568
  692MOL0     H91321  -2.486   0.017   2.754 -0.3240  1.0652 -0.2426
  692MOL0     H91322  -2.693   0.050   2.526 -0.1569 -0.5281  0.3006
  692MOL0     H91323  -2.645  -0.092   2.608 -0.1121  0.3462 -0.1027
  692MOL0     H91324  -2.816   0.125   2.731  2.1343  0.5239 -0.8095
  692MOL0     H91325  -2.768  -0.012   2.814 -0.0190  4.2306  0.4512
  692MOL0     H91326  -1.824   0.116   2.187  3.3705 -3.0660  0.0411
  692MOL0     H91327  -1.622   0.164   2.103  3.4188 -1.2253  0.0607
  692MOL0     H91328  -1.268   0.416   2.056 -0.8392  0.2563  0.8646
  692MOL0     H91329  -1.041   0.452   1.953  2.9723 -0.5711  0.9077
  692MOL0     H91330   0.350   0.063   0.880  0.7212 -2.1025  4.8194
  692MOL0     H91331   0.591   0.117   0.879 -0.2810 -0.3774  0.2527
  692MOL0     H91332   0.994   0.303   0.717  4.2580 -0.6284  0.2040
  692MOL0     H91333   1.231   0.287   0.784 -0.7543  1.3850 -1.7370
  692MOL0     H91334   1.425   0.304   0.861 -4.3074  0.5920 -1.1055
  692MOL0     H91335   1.384   0.172   0.968 -1.9343  0.5046  1.4907
  692MOL0     H91336   1.524   0.230   1.147 -0.8536 -0.0062  0.1611
  692MOL0     H91337   1.621   0.185   1.004 -1.5737 -0.7479  1.3884
  692MOL0     H91338   1.564   0.482   1.077  0.1287 -0.1349  1.8788
  692MOL0     H91339   1.672   0.418   0.956  1.7490  0.3740  1.2151
  692MOL0     H91340   1.721   0.407   1.252 -2.1885  0.5380 -0.4466
  692MOL0     H91341   1.826   0.329   1.139 -1.2296 -0.3327  1.4368
  692MOL0     H91342   1.920   0.744   1.137  1.4645 -1.4607  1.1417
  692MOL0     H91343   1.160   0.435   1.164  0.8689 -1.4054 -1.6195
  692MOL0     H91344   0.906   0.444   1.126 -1.3426  0.5437 -0.5853
  693MOL0     O91345   8.640  10.964  10.496  0.6055  0.5004  0.2129
  693MOL0     C91346   8.661  10.882  10.401  0.9060 -0.3983  0.5597
  693MOL0     O91347   8.582  10.785  10.350 -0.7916 -0.0745  0.1283
  693MOL0     C91348   8.466  10.757  10.416  1.5774 -0.2795 -0.3650
  693MOL0     C91349   8.359  10.845  10.436  0.3197 -0.2472  0.7014
  693MOL0     C91350   8.247  10.811  10.502 -0.6311 -0.7511 -0.3193
  693MOL0     C91351   8.234  10.684  10.559  0.0535 -0.6554 -0.1696
  693MOL0     O91352   8.122  10.645  10.638 -0.2018  0.1949  0.3927
  693MOL0     C91353   8.103  10.505  10.651 -0.5226 -0.0205 -0.1257
  693MOL0     C91354   7.953  10.466  10.683  0.4201 -0.7322  0.0597
  693MOL0     C91355   7.940  10.414  10.829 -0.1063  0.4387 -0.2283
  693MOL0     C91356   7.789  10.398  10.863 -0.3716  0.6123  0.8132
  693MOL0     C91357   7.784  10.364  11.006 -0.3841  0.1592 -0.1475
  693MOL0     C91358   7.641  10.325  11.058 -1.1457  0.4494 -0.7463
  693MOL0     C91359   7.573  10.439  11.130 -0.2483 -0.2168 -0.3378
  693MOL0     C91360   7.431  10.397  11.183 -0.3640 -0.0710  0.2130
  693MOL0     N91361   7.360  10.518  11.229 -0.3395  0.4610 -0.2473
  693MOL0     C91362   7.387  10.580  11.346 -0.5450  0.0404  0.7034
  693MOL0     C91363   7.273  10.646  11.368  0.6608  0.7684 -0.1206
  693MOL0     C91364   7.241  10.737  11.482 -0.0051  0.0603 -0.7473
  693MOL0     C91365   7.129  10.673  11.559  0.7216 -0.1977 -0.9512
  693MOL0     C91366   6.994  10.688  11.495 -1.0231  1.1873  0.9470
  693MOL0     C91367   6.881  10.645  11.589 -1.0555 -0.2952 -1.3647
  693MOL0     O91368   6.747  10.661  11.519 -0.8078 -0.4536 -0.6778
  693MOL0     C91369   6.636  10.618  11.596 -0.8661  0.5811  0.1874
  693MOL0     C91370   6.517  10.635  11.537  1.2372  0.2640  0.3867
  693MOL0     C91371   6.399  10.596  11.595  0.5066 -0.3334  0.4746
  693MOL0     C91372   6.393  10.545  11.725  0.1934  0.8940  0.4214
  693MOL0     C91373   6.256  10.506  11.781  0.4144  0.3407 -0.4177
  693MOL0     O91374   6.152  10.506  11.693 -0.3283 -0.0963  0.0559
  693MOL0     C91375   6.034  10.443  11.728 -0.9185  0.6758 -0.3811
  693MOL0     C91376   6.025  10.306  11.709 -0.5318  0.9967  1.0297
  693MOL0     C91377   5.911  10.235  11.746 -0.1821  0.1143 -0.6887
  693MOL0     C91378   5.793  10.305  11.752  0.8821  0.4695  0.6895
  693MOL0     O91379   5.664  10.253  11.758 -0.3717  0.1059 -0.2358
  693MOL0     C91380   5.636  10.114  11.734  0.0712  0.4444 -0.1271
  693MOL0     C91381   5.680  10.030  11.859 -0.0470  1.2387 -0.0823
  693MOL0     C91382   5.604  10.059  11.988 -0.1280 -0.0113 -0.1816
  693MOL0     C91383   5.465   9.995  11.982  0.0198  0.4411 -0.6919
  693MOL0     C91384   5.469   9.877  12.086 -0.3843  0.3465 -0.7852
  693MOL0     C91385   5.326   9.813  12.089 -0.5161  0.5184 -0.0725
  693MOL0     C91386   5.297   9.713  12.213 -0.6172 -0.4082 -0.4963
  693MOL0     C91387   5.284   9.778  12.353  0.4624 -0.1795  0.3532
  693MOL0    Cl91388   5.117   9.822  12.388 -0.0611 -0.1900 -0.2020
  693MOL0     C91389   5.791  10.442  11.750 -0.4698  0.6357 -0.9249
  693MOL0     C91390   5.915  10.518  11.752  0.2957 -0.2106  0.1501
  693MOL0     O91391   6.252  10.467  11.898  1.0690 -0.1675  0.0838
  693MOL0     C91392   6.512  10.516  11.792 -1.1407 -0.2240 -0.1344
  693MOL0     C91393   6.641  10.552  11.728 -0.1602 -0.2382  1.4705
  693MOL0     N91394   7.185  10.637  11.252  0.2700 -0.8793 -0.4349
  693MOL0     N91395   7.243  10.558  11.169 -0.5360  0.3810 -0.5913
  693MOL0     C91396   8.339  10.593  10.536 -0.0969 -1.2275 -0.1131
  693MOL0     C91397   8.456  10.629  10.470 -0.7748 -0.1819  0.1942
  693MOL0     C91398   8.778  10.895  10.310  0.9664  0.2804  0.6230
  693MOL0     C91399   8.788  10.827  10.188  0.0997  0.1425 -0.6519
  693MOL0     C91400   8.912  10.823  10.124 -0.3855  0.0255 -0.1605
  693MOL0     C91401   9.022  10.899  10.172  0.2763  0.4057 -1.3595
  693MOL0     O91402   9.128  10.888  10.087  0.3042 -0.1512 -0.7009
  693MOL0     C91403   9.248  10.962  10.099  0.1932 -0.6518  0.1577
  693MOL0     C91404   9.248  11.086  10.017 -0.1310  0.3119 -0.3402
  693MOL0     C91405   9.214  11.217  10.099 -1.3284 -0.5665  0.1072
  693MOL0     C91406   9.322  11.271  10.203  0.2604  0.7495  0.6046
  693MOL0     C91407   9.444  11.290  10.126 -0.0267  0.0826  0.4634
  693MOL0     C91408   9.555  11.298  10.074  0.1344  0.1120  0.3706
  693MOL0     C91409   9.008  10.975  10.291  0.7731 -0.1495 -0.5934
  693MOL0     C91410   8.884  10.961  10.360 -0.7478 -0.0895  0.3476
  693MOL0     H91411   8.376  10.945  10.400 -2.5772  0.3274  0.6668
  693MOL0     H91412   8.164  10.878  10.524  0.4044 -0.2916  2.6720
  693MOL0     H91413   8.165  10.463  10.730 -1.4388 -0.4542  0.3776
  693MOL0     H91414   8.128  10.449  10.561  1.1599 -1.5217  1.2039
  693MOL0     H91415   7.912  10.397  10.608  2.3909 -0.0671 -1.7131
  693MOL0     H91416   7.893  10.557  10.673  0.2808 -0.7414  0.7764
  693MOL0     H91417   7.992  10.484  10.895 -1.5931  2.8154 -1.4626
  693MOL0     H91418   7.988  10.316  10.841 -0.1147  0.6726  2.1194
  693MOL0     H91419   7.738  10.493  10.846 -0.0089  0.8328  0.9620
  693MOL0     H91420   7.749  10.321  10.796 -2.5721  1.7355  0.7606
  693MOL0     H91421   7.832  10.443  11.064  2.4838 -2.8294  1.9793
  693MOL0     H91422   7.854  10.281  11.025  0.2704  0.9944  1.2763
  693MOL0     H91423   7.668  10.250  11.133  1.6191 -0.2686 -2.3047
  693MOL0     H91424   7.575  10.274  10.987 -1.9046  0.4327 -0.0407
  693MOL0     H91425   7.629  10.487  11.211  1.7358 -0.0404 -1.7420
  693MOL0     H91426   7.557  10.515  11.053 -4.0647 -2.8101 -2.4309
  693MOL0     H91427   7.447  10.321  11.260 -0.5841 -2.8224 -2.2668
  693MOL0     H91428   7.360  10.350  11.115 -1.5802 -0.3696  1.6332
  693MOL0     H91429   7.477  10.581  11.407 -1.0226 -0.7898  1.4580
  693MOL0     H91430   7.214  10.838  11.449 -0.2078  0.3207  0.1911
  693MOL0     H91431   7.324  10.738  11.553 -0.9766  2.1818  0.4577
  693MOL0     H91432   7.124  10.731  11.652 -1.9580 -0.3496 -0.9068
  693MOL0     H91433   7.158  10.569  11.579  1.9244  0.6127  1.9059
  693MOL0     H91434   6.978  10.793  11.470 -0.9412  0.9007 -0.3527
  693MOL0     H91435   6.993  10.616  11.413 -0.4809 -2.5462  3.9223
  693MOL0     H91436   6.883  10.714  11.673 -0.3234 -0.7762 -0.9807
  693MOL0     H91437   6.903  10.546  11.632 -1.2052 -0.0550 -0.7300
  693MOL0     H91438   6.496  10.689  11.445  1.5188  1.8972  1.2563
  693MOL0     H91439   6.319  10.604  11.522  1.1393 -0.7031 -0.2898
  693MOL0     H91440   6.107  10.246  11.669 -0.2026  2.0119  0.1328
  693MOL0     H91441   5.907  10.129  11.721  0.0218  1.0449 -5.7302
  693MOL0     H91442   5.684  10.079  11.642  0.5384 -0.8307  0.5774
  693MOL0     H91443   5.527  10.105  11.726 -0.6142  3.0599  3.5605
  693MOL0     H91444   5.789  10.018  11.857 -0.3345 -2.5580 -1.0291
  693MOL0     H91445   5.649   9.928  11.834  0.2310  0.3489  2.8181
  693MOL0     H91446   5.599  10.168  11.996 -0.3557  0.0377 -0.8898
  693MOL0     H91447   5.662  10.021  12.073  1.8235 -0.5367 -1.6664
  693MOL0     H91448   5.386  10.061  12.021  1.5221  0.2199  3.0673
  693MOL0     H91449   5.440   9.947  11.887  0.1306 -1.7591  0.3327
  693MOL0     H91450   5.497   9.918  12.183  1.4214  2.4748 -2.0947
  693MOL0     H91451   5.539   9.801  12.050  1.9381  1.8143  0.4338
  693MOL0     H91452   5.314   9.763  11.993 -0.0227  2.3589 -1.1493
  693MOL0     H91453   5.249   9.891  12.093 -5.0786 -3.5072 -0.6710
  693MOL0     H91454   5.203   9.661  12.195 -0.2863 -1.1591 -0.1181
  693MOL0     H91455   5.388   9.653  12.205 -0.2665  0.1443 -0.7163
  693MOL0     H91456   5.349   9.865  12.367  0.1498  0.0534  0.3658
  693MOL0     H91457   5.310   9.705  12.430  1.5500 -0.8271 -0.5923
  693MOL0     H91458   5.693  10.485  11.768 -0.3596 -0.0328  1.7104
  693MOL0     H91459   5.901  10.625  11.760  0.4779 -0.0642 -1.2088
  693MOL0     H91460   6.516  10.466  11.888  1.5207  1.5889  0.8098
  693MOL0     H91461   6.734  10.535  11.780  0.5136  0.7338  0.6443
  693MOL0     H91462   8.336  10.493  10.578  0.4702 -0.7780  1.0490
  693MOL0     H91463   8.545  10.568  10.481  0.7423  1.6948 -1.0247
  693MOL0     H91464   8.713  10.770  10.135  1.7741 -4.1746  1.1491
  693MOL0     H91465   8.924  10.781  10.025  0.1616 -1.0928  0.3704
  693MOL0     H91466   9.329  10.905  10.054  0.0553  1.9832 -3.8713
  693MOL0     H91467   9.268  10.991  10.203 -0.2636  0.6179 -0.0863
  693MOL0     H91468   9.345  11.102   9.969 -0.3923  1.8937 -0.3853
  693MOL0     H91469   9.170  11.076   9.941 -0.4285 -0.1260  0.0209
  693MOL0     H91470   9.122  11.201  10.156 -0.7788 -1.4005  0.7854
  693MOL0     H91471   9.187  11.292  10.024 -3.7447 -0.1783  1.2417
  693MOL0     H91472   9.284  11.357  10.258 -0.6812 -0.0906  1.3035
  693MOL0     H91473   9.345  11.191  10.273 -1.8586  0.5217  1.1222
  693MOL0     H91474   9.647  11.303  10.020  0.3740 -1.7765  0.5198
  693MOL0     H91475   9.089  11.033  10.335 -0.4193  0.6239  0.6723
  693MOL0     H91476   8.883  11.007  10.458  2.9471 -0.2162  0.5482
  694MOL0     O91477  10.827  10.335   4.808 -0.5089 -0.4097 -0.0108
  694MOL0     C91478  10.812  10.423   4.721  0.4182 -0.2762  0.6998
  694MOL0     O91479  10.704  10.502   4.698 -0.5791  0.2776 -0.6525
  694MOL0     C91480  10.589  10.484   4.770  0.6508 -0.0241  0.1674
  694MOL0     C91481  10.521  10.369   4.805 -0.0388 -0.2677 -0.0316
  694MOL0     C91482  10.394  10.373   4.862 -0.5655 -0.2405 -1.1819
  694MOL0     C91483  10.333  10.488   4.885 -0.3388  0.0126  0.1275
  694MOL0     O91484  10.199  10.507   4.924  0.3651 -0.3211 -0.1221
  694MOL0     C91485  10.119  10.387   4.931 -0.1355 -0.8338 -0.2469
  694MOL0     C91486  10.063  10.345   4.788 -0.6972  0.2969 -0.2746
  694MOL0     C91487   9.971  10.221   4.792 -0.1726 -0.6197 -1.4521
  694MOL0     C91488   9.859  10.225   4.901  0.4213  0.1436  0.2552
  694MOL0     C91489   9.751  10.123   4.868  0.9468 -0.7912 -0.5647
  694MOL0     C91490   9.658  10.091   4.982 -0.1775 -0.0585  0.7255
  694MOL0     C91491   9.545  10.190   4.992 -0.7315 -0.2353 -0.3257
  694MOL0     C91492   9.460  10.146   5.112 -0.3162 -0.2166 -0.2805
  694MOL0     N91493   9.339  10.234   5.130  0.5262  0.6985 -0.1600
  694MOL0     C91494   9.215  10.191   5.171 -0.4962  0.0193 -0.4289
  694MOL0     C91495   9.140  10.302   5.171 -0.5723  0.7465 -0.9454
  694MOL0     C91496   8.989  10.313   5.202  0.4711 -0.6458  0.1497
  694MOL0     C91497   8.932  10.223   5.304  0.0396 -0.4391 -0.6481
  694MOL0     C91498   8.971  10.259   5.437  0.4407  0.3185 -0.0303
  694MOL0     C91499   8.937  10.157   5.543  1.2052 -0.1134  0.1767
  694MOL0     O91500   8.800  10.176   5.575 -1.0203  0.0872  0.2852
  694MOL0     C91501   8.733  10.084   5.643  0.7302  1.3378  0.2749
  694MOL0     C91502   8.592  10.069   5.608 -0.3614 -0.2384 -0.6923
  694MOL0     C91503   8.508   9.999   5.692 -0.7164  0.0669 -0.6198
  694MOL0     C91504   8.557   9.920   5.799  0.1634 -0.0447 -0.4362
  694MOL0     C91505   8.467   9.826   5.866  0.1745  0.1010  0.3432
  694MOL0     O91506   8.329   9.858   5.866 -0.4273  0.4608  0.1526
  694MOL0     C91507   8.241   9.799   5.953 -0.1803  0.2074  0.7870
  694MOL0     C91508   8.110   9.795   5.897  0.4620 -0.2797 -0.1093
  694MOL0     C91509   8.007   9.730   5.969 -0.0121 -0.8046  0.4571
  694MOL0     C91510   8.034   9.675   6.096 -0.2204  0.0178  0.1233
  694MOL0     O91511   7.938   9.605   6.166  0.1049  0.9283  0.0019
  694MOL0     C91512   7.800   9.629   6.140 -0.3818 -0.8986  0.6804
  694MOL0     C91513   7.721   9.538   6.238 -0.0700 -0.4384  0.5589
  694MOL0     C91514   7.727   9.587   6.379 -0.3702  0.1485 -0.1180
  694MOL0     C91515   7.643   9.492   6.463 -0.5535 -0.5006 -0.4502
  694MOL0     C91516   7.627   9.572   6.591 -1.0408 -0.3838  0.6114
  694MOL0     C91517   7.511   9.661   6.587  0.3391 -0.2604 -0.5115
  694MOL0     C91518   7.514   9.766   6.698 -0.1231 -0.0489 -0.3052
  694MOL0     C91519   7.494   9.687   6.829  0.5815  0.4492 -0.7165
  694MOL0    Cl91520   7.415   9.800   6.940  0.2485  0.4082 -0.6229
  694MOL0     C91521   8.159   9.677   6.155  0.2729 -0.1762 -0.3255
  694MOL0     C91522   8.262   9.733   6.076  0.5324 -0.1802  0.2935
  694MOL0     O91523   8.518   9.726   5.911 -0.7249  0.5785  0.0237
  694MOL0     C91524   8.697   9.927   5.831  0.0281  0.8875 -0.1997
  694MOL0     C91525   8.783  10.014   5.756  0.3241 -0.6265  0.3544
  694MOL0     N91526   9.216  10.409   5.122  0.2490  1.0215 -0.5111
  694MOL0     N91527   9.334  10.364   5.095 -0.6806  0.2168 -0.5327
  694MOL0     C91528  10.390  10.607   4.842 -0.8796  0.4686  0.1037
  694MOL0     C91529  10.523  10.610   4.790  0.3218  0.6597 -0.4882
  694MOL0     C91530  10.920  10.437   4.623 -0.9830  0.6700  0.1503
  694MOL0     C91531  11.042  10.359   4.635 -0.0348  0.2309  0.4210
  694MOL0     C91532  11.132  10.347   4.525 -0.3410 -0.2562  0.7066
  694MOL0     C91533  11.127  10.432   4.416  0.8405 -0.3588  0.1915
  694MOL0     O91534  11.210  10.424   4.314 -0.0776  0.1729 -0.0293
  694MOL0     C91535  11.342  10.475   4.333  0.0809  0.2528 -0.1528
  694MOL0     C91536  11.420  10.449   4.214 -0.2628  0.7079  0.4584
  694MOL0     C91537  11.374  10.534   4.091  0.4745 -0.0856  0.3559
  694MOL0     C91538  11.455  10.504   3.968 -0.1871  0.4430 -0.3387
  694MOL0     C91539  11.390  10.549   3.849  1.4343 -0.5188  0.4109
  694MOL0     C91540  11.331  10.560   3.752  1.1658 -0.1058  0.4973
  694MOL0     C91541  11.019  10.520   4.412 -0.4811  0.4397  0.6355
  694MOL0     C91542  10.918  10.519   4.504  0.0017 -0.3125 -0.4918
  694MOL0     H91543  10.577  10.277   4.790  0.5070 -0.1124  0.9371
  694MOL0     H91544  10.351  10.275   4.882 -0.5313  0.2844  1.9467
  694MOL0     H91545  10.041  10.415   5.003 -0.3632 -1.5594 -0.2026
  694MOL0     H91546  10.174  10.309   4.985 -0.9014 -0.7622  0.6648
  694MOL0     H91547  10.151  10.318   4.728 -0.5268  0.3188 -0.0391
  694MOL0     H91548  10.025  10.430   4.732  0.6269 -0.8432 -3.0907
  694MOL0     H91549  10.034  10.132   4.807  0.8007  0.4747  1.6322
  694MOL0     H91550   9.922  10.215   4.694  1.2754 -4.3069 -2.1215
  694MOL0     H91551   9.892  10.217   5.005 -2.3545  0.6572  1.2675
  694MOL0     H91552   9.815  10.325   4.899  3.6763  1.7064 -0.0198
  694MOL0     H91553   9.792  10.028   4.832  2.1859  0.0091 -1.3709
  694MOL0     H91554   9.691  10.166   4.787  0.2772 -1.0237 -0.1919
  694MOL0     H91555   9.713  10.091   5.077 -0.2960  0.2535  0.7938
  694MOL0     H91556   9.627   9.987   4.964  0.3553  0.3103 -3.0449
  694MOL0     H91557   9.590  10.289   5.004 -1.2024  0.0454 -0.8131
  694MOL0     H91558   9.487  10.189   4.899 -1.1360 -1.4855 -0.0740
  694MOL0     H91559   9.517  10.155   5.205 -0.7411  2.8216 -0.2118
  694MOL0     H91560   9.431  10.042   5.096 -1.0929 -0.2260  1.0291
  694MOL0     H91561   9.185  10.097   5.215 -1.1868  2.0187  3.9446
  694MOL0     H91562   8.939  10.274   5.112 -1.6472  0.6035  0.7302
  694MOL0     H91563   8.950  10.415   5.207 -1.5748 -1.1350 -2.9174
  694MOL0     H91564   8.956  10.117   5.288 -1.9757 -1.2308  1.1437
  694MOL0     H91565   8.824  10.237   5.295  0.4292  2.0330 -2.3261
  694MOL0     H91566   9.080  10.261   5.425  0.5180 -1.0815  0.3274
  694MOL0     H91567   8.935  10.360   5.462 -1.3926  0.1490 -1.7443
  694MOL0     H91568   8.995  10.164   5.636 -0.0572 -0.4997  1.0228
  694MOL0     H91569   8.956  10.056   5.506  0.7778  1.2011 -4.1585
  694MOL0     H91570   8.556  10.114   5.516 -1.4205 -0.1257 -0.2374
  694MOL0     H91571   8.403   9.986   5.668 -0.6059 -0.4164 -0.8472
  694MOL0     H91572   8.088   9.814   5.792 -3.2760  1.7754  0.8620
  694MOL0     H91573   7.908   9.726   5.924 -0.4828 -0.5184  1.4459
  694MOL0     H91574   7.776   9.602   6.037 -1.6822  0.1815  0.6612
  694MOL0     H91575   7.772   9.734   6.158 -1.0550 -0.6158 -1.6943
  694MOL0     H91576   7.751   9.433   6.230  0.8308 -0.1360 -0.3662
  694MOL0     H91577   7.616   9.549   6.212 -0.0157 -1.4003 -0.1441
  694MOL0     H91578   7.688   9.688   6.388 -3.1545 -0.8391 -0.1152
  694MOL0     H91579   7.830   9.578   6.414 -0.0915 -1.8222 -1.2381
  694MOL0     H91580   7.547   9.468   6.417 -0.4157  0.0282 -1.0251
  694MOL0     H91581   7.690   9.396   6.484 -1.0417 -1.1758 -2.2865
  694MOL0     H91582   7.718   9.632   6.600  0.8781 -2.3079 -3.4672
  694MOL0     H91583   7.623   9.511   6.682 -0.8708  0.9501  1.5514
  694MOL0     H91584   7.422   9.598   6.588  0.0739  0.0087  2.8297
  694MOL0     H91585   7.518   9.730   6.502 -2.3763  1.8558  0.8272
  694MOL0     H91586   7.599   9.835   6.690 -1.0886  0.9989 -2.2355
  694MOL0     H91587   7.423   9.825   6.681 -0.3442  0.5337  2.3631
  694MOL0     H91588   7.594   9.655   6.858  0.8660 -0.0502 -2.1630
  694MOL0     H91589   7.433   9.598   6.812  0.0330  0.7317 -0.2885
  694MOL0     H91590   8.177   9.623   6.247 -1.0765 -0.5216 -0.2340
  694MOL0     H91591   8.365   9.715   6.105  1.5308  3.8279 -0.1458
  694MOL0     H91592   8.743   9.866   5.907  1.4041 -0.1838 -1.8226
  694MOL0     H91593   8.890  10.002   5.768  0.7430 -0.1146 -2.2813
  694MOL0     H91594  10.328  10.696   4.840 -0.6667  0.6428  0.8992
  694MOL0     H91595  10.561  10.705   4.753 -0.5140  0.3334 -2.2917
  694MOL0     H91596  11.068  10.319   4.732 -1.6289  3.4568  2.3368
  694MOL0     H91597  11.221  10.285   4.526  0.5658  0.9826  2.2963
  694MOL0     H91598  11.391  10.424   4.416  4.3600  0.9348 -2.0434
  694MOL0     H91599  11.329  10.579   4.366 -1.3591 -1.1179  4.3011
  694MOL0     H91600  11.523  10.484   4.227  0.6052 -0.7829 -1.6787
  694MOL0     H91601  11.405  10.340   4.207 -1.7745  0.7767  2.0466
  694MOL0     H91602  11.375  10.642   4.112 -2.8546  0.2291 -0.4657
  694MOL0     H91603  11.270  10.516   4.061 -0.1745 -0.2150  2.4875
  694MOL0     H91604  11.556  10.545   3.969  0.1114 -0.1058 -2.4724
  694MOL0     H91605  11.464  10.396   3.951  3.1785  0.9515 -2.7612
  694MOL0     H91606  11.268  10.562   3.665  2.5821 -1.7327 -0.6244
  694MOL0     H91607  10.996  10.566   4.316 -0.6626 -1.3909 -0.2611
  694MOL0     H91608  10.828  10.579   4.491  1.6721  2.2296 -1.1023
  695MOL0     O91609   5.258   2.785  10.721 -0.6190  0.2286 -1.0259
  695MOL0     C91610   5.366   2.732  10.693  0.9130  0.3110 -0.8593
  695MOL0     O91611   5.433   2.744  10.578 -0.1999  0.1180 -0.2315
  695MOL0     C91612   5.372   2.805  10.472  0.4553 -0.0632  0.1125
  695MOL0     C91613   5.432   2.929  10.425 -0.6947  0.2293  0.4979
  695MOL0     C91614   5.373   2.995  10.318 -0.0805 -0.1329 -1.4347
  695MOL0     C91615   5.265   2.936  10.259  0.1353 -0.2087 -0.1327
  695MOL0     O91616   5.211   3.008  10.154 -0.2168  0.5980  0.1235
  695MOL0     C91617   5.113   2.944  10.069  0.4065 -0.8215  0.1302
  695MOL0     C91618   4.965   2.952  10.111  0.2945 -0.5008  0.6026
  695MOL0     C91619   4.918   3.088  10.151  0.4870  0.6720  0.3240
  695MOL0     C91620   4.769   3.078  10.181 -0.6039 -0.2248 -0.1166
  695MOL0     C91621   4.709   3.219  10.212  0.3386  0.2152  0.1433
  695MOL0     C91622   4.580   3.219  10.280  0.4957 -1.1064 -0.1485
  695MOL0     C91623   4.512   3.364  10.286  0.4785  0.1470 -0.1880
  695MOL0     C91624   4.476   3.424  10.143 -0.0264 -0.2748  0.2144
  695MOL0     N91625   4.514   3.564  10.129 -1.2180  0.3010  1.3422
  695MOL0     C91626   4.646   3.610  10.112  0.7965  0.2545  0.6532
  695MOL0     C91627   4.638   3.743  10.107 -0.1136  0.0791 -0.0932
  695MOL0     C91628   4.741   3.853  10.085 -0.1429  0.3909 -0.0524
  695MOL0     C91629   4.729   3.926   9.942 -0.0413  0.3210  0.6222
  695MOL0     C91630   4.583   3.965   9.914 -0.9463 -0.8149 -0.0367
  695MOL0     C91631   4.578   4.051   9.788 -0.2651 -0.7872  0.2938
  695MOL0     O91632   4.582   3.967   9.675  0.3646  0.6081  0.7743
  695MOL0     C91633   4.636   4.018   9.559  0.9986 -0.0270 -0.1032
  695MOL0     C91634   4.737   3.941   9.507 -0.6774 -0.3788 -0.9374
  695MOL0     C91635   4.800   3.986   9.389  0.3547 -0.8082  0.6438
  695MOL0     C91636   4.756   4.100   9.324  0.6737  0.5096  0.7831
  695MOL0     C91637   4.811   4.139   9.192  0.1238 -0.8428  0.2716
  695MOL0     O91638   4.814   4.273   9.160 -0.0281 -0.4433  0.4989
  695MOL0     C91639   4.845   4.320   9.027  0.6365  0.3778 -0.0539
  695MOL0     C91640   4.818   4.457   9.012  0.3024  0.1838  0.3121
  695MOL0     C91641   4.807   4.518   8.895  0.0252 -0.5237  0.1387
  695MOL0     C91642   4.834   4.443   8.774  0.6605 -0.7403 -0.0549
  695MOL0     O91643   4.830   4.515   8.662 -0.5533 -0.4727 -0.1756
  695MOL0     C91644   4.931   4.615   8.636  0.8842 -0.0162  0.3889
  695MOL0     C91645   5.039   4.568   8.530  0.5546 -0.3023  0.4426
  695MOL0     C91646   4.981   4.526   8.390 -0.5469  0.6517  0.0177
  695MOL0     C91647   5.102   4.460   8.312  0.2398  0.6299  0.0451
  695MOL0     C91648   5.031   4.391   8.190 -0.1396  0.3552 -0.4320
  695MOL0     C91649   5.141   4.348   8.088 -0.2081  0.1802 -0.1649
  695MOL0     C91650   5.099   4.230   7.990 -0.1509 -0.3083 -0.2696
  695MOL0     C91651   5.147   4.232   7.839 -0.5091  0.7733 -0.2107
  695MOL0    Cl91652   5.103   4.386   7.753 -0.7566 -0.0060 -0.0001
  695MOL0     C91653   4.855   4.303   8.784  0.2267  0.3064  0.8691
  695MOL0     C91654   4.874   4.248   8.913 -0.6677 -0.0161  1.0677
  695MOL0     O91655   4.864   4.047   9.129 -0.0297  0.3534  0.1223
  695MOL0     C91656   4.665   4.184   9.390  0.6308  0.1447  0.3861
  695MOL0     C91657   4.605   4.141   9.510  0.9711 -0.7841 -1.0419
  695MOL0     N91658   4.503   3.769  10.154  0.7232 -0.5838 -0.1389
  695MOL0     N91659   4.435   3.667  10.135 -0.0150 -0.5725  0.4919
  695MOL0     C91660   5.204   2.810  10.303 -0.9283  0.3196 -1.0287
  695MOL0     C91661   5.262   2.752  10.415 -0.0036 -0.4206 -0.2644
  695MOL0     C91662   5.431   2.649  10.799  0.4681  0.3002  0.5994
  695MOL0     C91663   5.397   2.672  10.931 -0.2537  0.9860 -0.1361
  695MOL0     C91664   5.462   2.594  11.032 -0.0466 -0.9392  0.7348
  695MOL0     C91665   5.562   2.496  10.999  1.0653  0.3920 -0.1253
  695MOL0     O91666   5.633   2.443  11.111 -0.5456 -0.8665  0.0889
  695MOL0     C91667   5.729   2.349  11.088 -1.1462 -0.8328  0.0357
  695MOL0     C91668   5.825   2.364  11.209 -0.3768  1.2418  0.5935
  695MOL0     C91669   5.898   2.496  11.205  0.5475  1.0834 -0.3180
  695MOL0     C91670   6.001   2.520  11.320 -0.2203 -0.0283  0.5915
  695MOL0     C91671   6.139   2.525  11.263 -0.4883  0.0447  0.7869
  695MOL0     C91672   6.261   2.506  11.227  0.2864 -0.4136 -1.0944
  695MOL0     C91673   5.585   2.471  10.868  0.0335 -0.2997 -0.3827
  695MOL0     C91674   5.518   2.537  10.769 -0.1590 -0.0080 -0.4815
  695MOL0     H91675   5.528   2.966  10.460  0.4466 -0.8248 -1.3692
  695MOL0     H91676   5.415   3.089  10.284  0.1516 -0.2254 -1.4054
  695MOL0     H91677   5.135   2.837  10.066  1.9001 -0.5227 -0.5031
  695MOL0     H91678   5.125   2.979   9.966  2.0703 -2.4536 -0.2910
  695MOL0     H91679   4.948   2.886  10.196  0.9676 -0.0618  1.0843
  695MOL0     H91680   4.904   2.911  10.030 -0.2260  3.0801 -1.0215
  695MOL0     H91681   4.928   3.161  10.071 -2.1314  3.6154  2.4247
  695MOL0     H91682   4.980   3.125  10.233  1.3751 -0.5289  0.2261
  695MOL0     H91683   4.719   3.037  10.093  2.1481 -1.6463 -1.1516
  695MOL0     H91684   4.741   3.006  10.259 -0.7762 -2.0795 -1.7891
  695MOL0     H91685   4.706   3.281  10.121  1.1149 -1.0802 -0.8012
  695MOL0     H91686   4.786   3.267  10.272  0.9985  3.5194 -3.0108
  695MOL0     H91687   4.604   3.173  10.377  1.7545 -3.3796 -1.4597
  695MOL0     H91688   4.507   3.155  10.230 -1.4628  1.1361 -0.2995
  695MOL0     H91689   4.427   3.353  10.354  2.8452 -1.6211  2.7728
  695MOL0     H91690   4.570   3.439  10.341 -3.4351  2.1956  1.5374
  695MOL0     H91691   4.367   3.422  10.138 -0.0509 -1.4577  0.9919
  695MOL0     H91692   4.510   3.368  10.055  1.7300 -1.6560  1.6977
  695MOL0     H91693   4.736   3.557  10.083  0.7133  1.8760 -3.0701
  695MOL0     H91694   4.840   3.807  10.095  0.0112  0.0111 -2.5222
  695MOL0     H91695   4.725   3.924  10.166 -2.4661 -1.5566  1.3146
  695MOL0     H91696   4.768   3.867   9.858  1.7771  2.4277 -0.1130
  695MOL0     H91697   4.794   4.014   9.949  1.1995 -0.5624  0.5729
  695MOL0     H91698   4.525   3.873   9.899  0.5668 -1.9401  0.7887
  695MOL0     H91699   4.549   4.016  10.005  0.2345  0.3161 -0.2054
  695MOL0     H91700   4.669   4.111   9.783  0.8126 -2.4248 -2.9599
  695MOL0     H91701   4.485   4.108   9.790 -0.7754 -1.6036  2.0747
  695MOL0     H91702   4.762   3.844   9.549  0.6929  0.2941 -0.1258
  695MOL0     H91703   4.882   3.930   9.345  0.4626  0.2961 -0.6372
  695MOL0     H91704   4.801   4.519   9.099  1.5443 -0.7025  1.2380
  695MOL0     H91705   4.780   4.623   8.885 -2.3838 -0.9280  1.4432
  695MOL0     H91706   4.982   4.669   8.716  4.7735  1.6192 -2.8308
  695MOL0     H91707   4.867   4.685   8.581  1.4968 -3.0318 -4.8376
  695MOL0     H91708   5.098   4.487   8.573  2.5015  0.9697  0.2918
  695MOL0     H91709   5.113   4.645   8.508 -2.2929  2.2352 -1.0379
  695MOL0     H91710   4.930   4.608   8.339  0.3724  0.0939 -1.8820
  695MOL0     H91711   4.905   4.449   8.410 -0.1583  0.3715  0.4475
  695MOL0     H91712   5.164   4.543   8.276 -0.1590  0.5939 -0.7511
  695MOL0     H91713   5.156   4.388   8.374  0.5916  0.6872 -0.1942
  695MOL0     H91714   4.959   4.462   8.146 -0.8023 -0.4910 -0.7332
  695MOL0     H91715   4.977   4.303   8.226  1.5954 -0.6599 -0.1882
  695MOL0     H91716   5.226   4.316   8.149 -1.3167 -2.9062 -0.0282
  695MOL0     H91717   5.178   4.431   8.027 -0.7150  0.8461  0.4140
  695MOL0     H91718   5.125   4.135   8.036  0.0150 -1.9921 -3.5534
  695MOL0     H91719   4.990   4.224   7.993 -0.3321  0.1311 -2.9372
  695MOL0     H91720   5.103   4.145   7.789  1.9684 -1.5116  1.3173
  695MOL0     H91721   5.255   4.215   7.835 -0.4754  1.0883 -3.5750
  695MOL0     H91722   4.864   4.242   8.695 -0.3737  1.1573  0.1942
  695MOL0     H91723   4.907   4.146   8.930  2.4845  0.7213  0.0880
  695MOL0     H91724   4.634   4.275   9.341 -2.2874 -2.1060 -2.3640
  695MOL0     H91725   4.524   4.202   9.550  0.6840 -0.9770 -1.3222
  695MOL0     H91726   5.117   2.772  10.251 -0.7116 -0.5469 -0.7751
  695MOL0     H91727   5.230   2.658  10.459  0.0742  0.2770  1.3520
  695MOL0     H91728   5.314   2.734  10.961  0.7839  1.1982  2.6432
  695MOL0     H91729   5.432   2.612  11.135  0.4930 -2.1545  1.1150
  695MOL0     H91730   5.788   2.365  10.997  1.1514 -1.3442  1.3611
  695MOL0     H91731   5.685   2.250  11.075 -3.0068  0.1408 -1.8689
  695MOL0     H91732   5.773   2.350  11.304  0.3683  1.9862  1.1223
  695MOL0     H91733   5.891   2.278  11.203 -1.4958  0.3232  1.0788
  695MOL0     H91734   5.820   2.571  11.222  0.0677  0.2325  1.4973
  695MOL0     H91735   5.929   2.517  11.102 -0.2907  2.0435 -0.3938
  695MOL0     H91736   5.985   2.613  11.376 -1.5697  1.5342 -2.1507
  695MOL0     H91737   5.992   2.440  11.394  2.2107  0.7103  1.7845
  695MOL0     H91738   6.367   2.491  11.216  0.7869  1.1544  0.9901
  695MOL0     H91739   5.654   2.391  10.841  1.6098  1.7425 -2.8877
  695MOL0     H91740   5.547   2.517  10.666 -1.8777  0.6726 -1.1283
  696MOL0     O91741   1.355  10.138   7.857 -0.0930 -0.8877 -0.2091
  696MOL0     C91742   1.402  10.234   7.918  0.0068 -0.6425 -0.3224
  696MOL0     O91743   1.460  10.219   8.041 -0.3215  0.0705  0.5741
  696MOL0     C91744   1.508  10.106   8.101 -0.6879 -1.0930 -0.6755
  696MOL0     C91745   1.614  10.125   8.191 -0.8686  0.2721 -0.1260
  696MOL0     C91746   1.692  10.015   8.240  0.6714 -0.2362 -0.1813
  696MOL0     C91747   1.637   9.891   8.233 -0.8486 -0.8849  0.5647
  696MOL0     O91748   1.719   9.798   8.301  0.5210 -0.2969 -0.0139
  696MOL0     C91749   1.639   9.714   8.390  0.3118 -0.8813  1.2304
  696MOL0     C91750   1.731   9.595   8.414 -0.6493 -1.6724 -0.3622
  696MOL0     C91751   1.849   9.644   8.498  0.2743  0.0947  0.5317
  696MOL0     C91752   1.931   9.517   8.546  0.1779 -0.3689 -0.2872
  696MOL0     C91753   1.964   9.400   8.458  0.4939  0.6135 -0.6385
  696MOL0     C91754   2.044   9.438   8.344  0.8230  0.7121  0.9533
  696MOL0     C91755   2.089   9.320   8.258 -0.2675 -0.6191 -1.3393
  696MOL0     C91756   2.157   9.214   8.342 -1.1219  0.4953  0.6203
  696MOL0     N91757   2.289   9.250   8.389 -0.8866 -0.5724  0.2663
  696MOL0     C91758   2.406   9.190   8.352 -0.1858  0.0293 -0.4646
  696MOL0     C91759   2.494   9.257   8.440 -0.4485  0.2365  0.0787
  696MOL0     C91760   2.634   9.193   8.446 -0.0305 -0.3078 -0.9335
  696MOL0     C91761   2.745   9.281   8.513 -0.3804  0.4593 -0.6140
  696MOL0     C91762   2.747   9.286   8.666 -0.0707 -0.6756  0.7440
  696MOL0     C91763   2.710   9.158   8.746  0.0998  0.4201 -0.5043
  696MOL0     O91764   2.770   9.040   8.694  0.5464  0.1340  0.1026
  696MOL0     C91765   2.899   9.016   8.724  0.3955 -0.4181  0.8720
  696MOL0     C91766   2.984   9.024   8.623 -0.3909  0.9248  0.8117
  696MOL0     C91767   3.123   9.037   8.645  0.5297  0.5479  0.4330
  696MOL0     C91768   3.171   9.039   8.778  0.2492  0.1427 -0.2524
  696MOL0     C91769   3.313   9.038   8.806  0.3595 -0.4117 -0.7499
  696MOL0     O91770   3.390   9.000   8.698  0.4043 -0.2093 -0.2514
  696MOL0     C91771   3.526   9.013   8.698  0.3396  0.8856 -0.1297
  696MOL0     C91772   3.595   9.111   8.618 -0.0850  0.4346  0.4443
  696MOL0     C91773   3.737   9.092   8.598  0.0952 -1.0982 -0.4312
  696MOL0     C91774   3.812   8.995   8.660  0.2801  0.9262  0.5373
  696MOL0     O91775   3.942   8.991   8.620 -0.8367  0.5192  0.1742
  696MOL0     C91776   4.008   8.874   8.570  0.4989  0.3792  0.5720
  696MOL0     C91777   3.941   8.810   8.446 -0.2715 -0.3729  1.2406
  696MOL0     C91778   4.042   8.725   8.368 -0.2514  0.5547  0.0542
  696MOL0     C91779   4.085   8.605   8.450  0.1404 -0.1213 -0.3293
  696MOL0     C91780   4.172   8.523   8.364  0.0489 -0.0292 -0.2380
  696MOL0     C91781   4.205   8.397   8.446 -0.1203  0.7956  0.9269
  696MOL0     C91782   4.280   8.293   8.363  0.3521 -0.3138  0.0504
  696MOL0     C91783   4.421   8.331   8.353 -0.1428 -0.5335 -0.0114
  696MOL0    Cl91784   4.487   8.178   8.294  0.2506 -0.2100  0.3165
  696MOL0     C91785   3.738   8.898   8.734  0.1537 -0.1909 -0.1133
  696MOL0     C91786   3.602   8.910   8.759  0.5773  0.5809  0.3875
  696MOL0     O91787   3.359   9.078   8.913  0.4187 -0.3739 -0.0380
  696MOL0     C91788   3.078   9.017   8.883 -1.2539 -0.6616 -0.4733
  696MOL0     C91789   2.945   9.018   8.853 -0.6436 -0.5130  0.0295
  696MOL0     N91790   2.442   9.351   8.513 -1.0067 -0.2560 -0.0356
  696MOL0     N91791   2.318   9.349   8.477 -0.1106  0.5079 -0.1092
  696MOL0     C91792   1.535   9.861   8.144 -0.1086 -0.4272  0.1675
  696MOL0     C91793   1.465   9.973   8.086 -0.1772  0.1395  0.5309
  696MOL0     C91794   1.399  10.370   7.867 -0.2991  0.3629  0.4587
  696MOL0     C91795   1.361  10.397   7.733  0.6084 -0.6835  0.1298
  696MOL0     C91796   1.350  10.527   7.691 -0.3493 -0.4830  0.4384
  696MOL0     C91797   1.394  10.636   7.766  0.1586  0.3679 -0.0141
  696MOL0     O91798   1.399  10.756   7.700  0.9465  0.5440  0.0780
  696MOL0     C91799   1.420  10.874   7.770 -1.0295  0.5548 -0.4074
  696MOL0     C91800   1.418  10.995   7.687  0.8992  0.1453 -0.1305
  696MOL0     C91801   1.276  10.998   7.614 -0.6383 -0.6667 -0.7798
  696MOL0     C91802   1.220  11.133   7.575 -1.3894  0.0823 -0.2557
  696MOL0     C91803   1.082  11.116   7.527  0.0307  0.6667 -0.8553
  696MOL0     C91804   0.970  11.077   7.509 -0.0499 -0.2247  0.2869
  696MOL0     C91805   1.435  10.609   7.892 -0.0129  0.6678 -0.9835
  696MOL0     C91806   1.435  10.476   7.950 -0.3782 -0.2671  0.1236
  696MOL0     H91807   1.668  10.220   8.195  0.3131 -0.3595 -0.4858
  696MOL0     H91808   1.778  10.034   8.303  0.4896  2.4094 -0.6214
  696MOL0     H91809   1.553   9.681   8.331  0.2651  1.2815 -0.0173
  696MOL0     H91810   1.603   9.767   8.479 -0.6769  0.9176 -0.1618
  696MOL0     H91811   1.767   9.557   8.318 -1.9571 -0.3840 -1.4167
  696MOL0     H91812   1.675   9.528   8.479 -1.1561 -1.0584 -0.1511
  696MOL0     H91813   1.828   9.712   8.582 -0.7456 -0.1306  0.4727
  696MOL0     H91814   1.902   9.712   8.431 -1.5981  1.4703  0.3644
  696MOL0     H91815   2.021   9.555   8.596 -0.6222  3.1502 -1.2258
  696MOL0     H91816   1.867   9.466   8.619  0.4292 -0.8423 -0.3931
  696MOL0     H91817   1.880   9.338   8.425  1.4768 -0.5389 -1.0617
  696MOL0     H91818   2.019   9.332   8.525 -0.8163  3.9505  4.3190
  696MOL0     H91819   2.127   9.492   8.390  2.2242 -1.2713  0.8971
  696MOL0     H91820   1.979   9.498   8.280  4.3642  0.4582 -3.4485
  696MOL0     H91821   1.999   9.273   8.218 -0.8827 -1.6425  1.0877
  696MOL0     H91822   2.152   9.348   8.173  2.8185 -0.8455  0.7138
  696MOL0     H91823   2.170   9.133   8.270 -1.0776  3.8544 -3.4889
  696MOL0     H91824   2.100   9.176   8.428  0.6700  0.1875  1.7329
  696MOL0     H91825   2.417   9.106   8.284  0.4242 -0.0187 -0.3075
  696MOL0     H91826   2.662   9.162   8.345 -1.2693 -0.6140 -1.2098
  696MOL0     H91827   2.625   9.108   8.515 -1.2480  0.7447  0.2510
  696MOL0     H91828   2.737   9.382   8.471 -0.9700  2.0639  3.0134
  696MOL0     H91829   2.838   9.231   8.484 -0.8236 -0.3977 -0.5812
  696MOL0     H91830   2.850   9.317   8.689 -0.1986  1.0255 -0.7441
  696MOL0     H91831   2.686   9.370   8.701  0.5983  0.0076  0.2960
  696MOL0     H91832   2.600   9.155   8.743  0.0874  1.0303 -2.9491
  696MOL0     H91833   2.729   9.179   8.852  1.2888  0.9835 -0.8200
  696MOL0     H91834   2.951   9.010   8.520  2.9575 -0.7697 -0.1700
  696MOL0     H91835   3.187   9.048   8.557 -0.0056  0.8336  0.0737
  696MOL0     H91836   3.527   9.177   8.566  1.0196 -0.0495 -1.7317
  696MOL0     H91837   3.797   9.158   8.536  0.6193 -1.2838 -0.1283
  696MOL0     H91838   4.015   8.806   8.656  0.1407  2.0956  2.0064
  696MOL0     H91839   4.113   8.891   8.545  1.1939  0.2956  3.1363
  696MOL0     H91840   3.911   8.899   8.390  2.6432  2.7947  4.1792
  696MOL0     H91841   3.851   8.754   8.472  0.6532 -1.4635  2.2317
  696MOL0     H91842   4.133   8.783   8.349  1.1419 -1.3459  0.4789
  696MOL0     H91843   3.987   8.697   8.277 -0.6691  0.2080  0.4092
  696MOL0     H91844   4.151   8.649   8.525  1.6939 -0.6705 -1.3191
  696MOL0     H91845   4.008   8.538   8.487  0.2055 -1.3853 -2.3535
  696MOL0     H91846   4.270   8.569   8.351  0.1375 -0.5348 -1.4396
  696MOL0     H91847   4.131   8.491   8.268  0.4664  1.3655 -0.8998
  696MOL0     H91848   4.109   8.351   8.472 -2.7737  2.9992 -3.7770
  696MOL0     H91849   4.267   8.427   8.531  0.5981 -0.3773  0.8333
  696MOL0     H91850   4.275   8.194   8.408  5.1603 -0.5423  0.5238
  696MOL0     H91851   4.242   8.268   8.263  1.6423 -1.0320 -0.2745
  696MOL0     H91852   4.457   8.371   8.449 -0.6420  0.0164 -0.0466
  696MOL0     H91853   4.439   8.414   8.284 -3.0180  0.6821  0.5900
  696MOL0     H91854   3.789   8.814   8.779 -0.1035  0.9526  2.5109
  696MOL0     H91855   3.544   8.829   8.802 -1.7551  2.3373  0.7105
  696MOL0     H91856   3.115   9.012   8.985  0.6562 -0.2735 -1.0932
  696MOL0     H91857   2.865   9.016   8.927 -0.5360 -1.5825  0.1364
  696MOL0     H91858   1.500   9.761   8.123 -4.0922  1.0817 -1.3017
  696MOL0     H91859   1.382   9.945   8.022 -0.6696  2.2890  0.1579
  696MOL0     H91860   1.327  10.321   7.664 -1.3426 -0.5783  0.8895
  696MOL0     H91861   1.321  10.546   7.588  1.8567 -1.3224 -0.4006
  696MOL0     H91862   1.524  10.869   7.806 -0.4263 -1.1221 -2.2109
  696MOL0     H91863   1.357  10.873   7.860  2.1889  2.3419  2.0938
  696MOL0     H91864   1.428  11.085   7.748  2.2338  0.0196 -0.1466
  696MOL0     H91865   1.500  10.994   7.615  0.9547 -1.3180 -0.0852
  696MOL0     H91866   1.196  10.944   7.665 -1.1418  1.6222  1.0410
  696MOL0     H91867   1.290  10.937   7.525  2.2811 -2.0464  0.4776
  696MOL0     H91868   1.217  11.194   7.666  2.7080 -0.9095  0.7287
  696MOL0     H91869   1.285  11.180   7.502  3.9233  0.1494  3.8900
  696MOL0     H91870   0.870  11.040   7.496 -0.7939  1.1505  1.6653
  696MOL0     H91871   1.477  10.680   7.962 -0.9678 -0.7884  1.1735
  696MOL0     H91872   1.463  10.469   8.054  1.4827  1.8332 -0.1473
  697MOL0     O91873   3.459   3.670   0.381  0.1349 -1.2584 -0.5661
  697MOL0     C91874   3.355   3.705   0.323 -0.5751 -0.4866  0.4930
  697MOL0     O91875   3.351   3.795   0.221 -0.6597  0.1116 -0.0665
  697MOL0     C91876   3.464   3.818   0.168 -0.8859  0.8137 -0.1721
  697MOL0     C91877   3.490   3.781   0.037 -0.1562 -0.3065 -1.0216
  697MOL0     C91878   3.592   3.833  -0.035 -0.0556 -0.0924 -0.4295
  697MOL0     C91879   3.688   3.916   0.027 -0.4344 -0.0193  0.0517
  697MOL0     O91880   3.809   3.951  -0.028 -0.0374 -0.3048  0.3344
  697MOL0     C91881   3.823   3.925  -0.171 -0.3808  0.4852 -0.3930
  697MOL0     C91882   3.938   4.006  -0.230 -0.7018 -0.6360  0.7906
  697MOL0     C91883   4.078   3.970  -0.181  0.8656 -0.5441  0.2226
  697MOL0     C91884   4.191   4.025  -0.279  0.2958 -0.3709  0.2722
  697MOL0     C91885   4.314   4.007  -0.204 -0.4543 -0.1126 -0.7040
  697MOL0     C91886   4.450   4.029  -0.279 -0.6097 -0.4009 -0.4857
  697MOL0     C91887   4.440   4.157  -0.370  1.0924  0.6860 -0.8320
  697MOL0     C91888   4.580   4.194  -0.419 -0.3320 -0.9448 -0.0208
  697MOL0     N91889   4.585   4.301  -0.520 -0.0984  0.3965  0.1170
  697MOL0     C91890   4.643   4.294  -0.648  0.2173 -0.1443  0.6751
  697MOL0     C91891   4.655   4.423  -0.690  0.5622  0.6336  0.1418
  697MOL0     C91892   4.714   4.479  -0.806  1.1614  0.0503  0.4863
  697MOL0     C91893   4.867   4.472  -0.804  0.2146  0.4937 -0.8659
  697MOL0     C91894   4.928   4.579  -0.898  0.6523  0.5911  0.8816
  697MOL0     C91895   5.082   4.592  -0.898  0.0438  1.0792 -0.3628
  697MOL0     O91896   5.168   4.477  -0.865 -0.4713 -0.1045 -0.2912
  697MOL0     C91897   5.237   4.427  -0.968 -0.1942 -0.3478  0.6669
  697MOL0     C91898   5.355   4.370  -0.929  0.4401  0.5293  0.6854
  697MOL0     C91899   5.459   4.331  -1.019  0.3432 -0.0094  0.4610
  697MOL0     C91900   5.427   4.326  -1.153 -0.4131  0.0235 -0.2815
  697MOL0     C91901   5.530   4.276  -1.245  0.6487  0.7365  1.2313
  697MOL0     O91902   5.654   4.235  -1.189  0.2112 -0.0545  0.6939
  697MOL0     C91903   5.740   4.175  -1.274 -0.3157 -0.2206  0.6146
  697MOL0     C91904   5.783   4.228  -1.394  0.1165 -0.1443  1.0473
  697MOL0     C91905   5.881   4.170  -1.469  0.3497  0.3722 -0.3465
  697MOL0     C91906   5.947   4.057  -1.412 -0.1112 -0.2413  0.6712
  697MOL0     O91907   6.048   4.002  -1.488 -0.1108  0.0929 -0.0544
  697MOL0     C91908   6.126   3.888  -1.443 -0.4593  0.4709 -0.2837
  697MOL0     C91909   6.212   3.839  -1.560  1.3184  0.7117  0.4136
  697MOL0     C91910   6.264   3.695  -1.540 -0.3913 -0.8285  0.2691
  697MOL0     C91911   6.384   3.658  -1.621 -0.5636  0.4638  0.3504
  697MOL0     C91912   6.454   3.518  -1.601  0.3821  0.4543  1.3134
  697MOL0     C91913   6.379   3.405  -1.664  0.6015 -0.1935  0.0429
  697MOL0     C91914   6.443   3.267  -1.634 -0.4902  0.5670 -0.1967
  697MOL0     C91915   6.362   3.152  -1.701  0.4079  0.6397  0.7180
  697MOL0    Cl91916   6.199   3.144  -1.615  0.2309  0.2111 -0.0967
  697MOL0     C91917   5.909   4.005  -1.287  0.2102  0.2809 -0.0362
  697MOL0     C91918   5.805   4.068  -1.222  0.5912  0.1158  0.0370
  697MOL0     O91919   5.490   4.252  -1.363  0.1922  0.0707 -0.2832
  697MOL0     C91920   5.302   4.359  -1.202  0.0222 -0.3153 -0.9529
  697MOL0     C91921   5.218   4.430  -1.109 -1.0505 -0.7862 -0.2770
  697MOL0     N91922   4.623   4.508  -0.582  0.1432 -0.4215  0.6306
  697MOL0     N91923   4.595   4.432  -0.484 -0.2435 -0.4549 -0.1856
  697MOL0     C91924   3.674   3.938   0.161  0.5033 -0.5432 -1.3700
  697MOL0     C91925   3.552   3.905   0.232 -0.3438 -0.1849  0.2869
  697MOL0     C91926   3.222   3.645   0.360 -0.8558 -0.4121  0.1480
  697MOL0     C91927   3.102   3.692   0.294 -0.0643 -0.2804 -0.3866
  697MOL0     C91928   2.981   3.636   0.328  0.5131 -0.3850  0.2885
  697MOL0     C91929   2.982   3.524   0.419  0.0906 -0.1548 -0.1327
  697MOL0     O91930   2.855   3.483   0.448  0.5930  0.2650 -0.2184
  697MOL0     C91931   2.836   3.355   0.503 -0.6046 -0.7220 -0.9382
  697MOL0     C91932   2.693   3.318   0.497 -0.7465 -0.2090 -0.0381
  697MOL0     C91933   2.593   3.411   0.564 -0.0010 -0.3732 -0.8325
  697MOL0     C91934   2.444   3.384   0.531 -0.0811  0.4456  0.2250
  697MOL0     C91935   2.419   3.239   0.538  0.0531 -0.2521  1.2231
  697MOL0     C91936   2.386   3.121   0.537  0.3038  0.5867 -0.1741
  697MOL0     C91937   3.105   3.461   0.462 -0.4790  0.1233  0.6655
  697MOL0     C91938   3.220   3.527   0.440 -0.4901 -1.3390  0.4163
  697MOL0     H91939   3.420   3.711  -0.009 -2.4495 -0.4925  2.3077
  697MOL0     H91940   3.595   3.793  -0.136 -2.2740 -4.3428  0.9373
  697MOL0     H91941   3.727   3.951  -0.218  0.6213 -0.3574 -3.0990
  697MOL0     H91942   3.854   3.821  -0.182  1.0803  0.7946  0.6188
  697MOL0     H91943   3.933   4.115  -0.217  1.7534 -0.2177 -1.0485
  697MOL0     H91944   3.932   3.988  -0.338  1.0749  0.7431  0.3995
  697MOL0     H91945   4.081   3.861  -0.174 -0.3965 -0.6995 -1.1968
  697MOL0     H91946   4.092   4.006  -0.079 -1.0675 -2.8115  1.3915
  697MOL0     H91947   4.191   3.966  -0.371  3.6903  1.1955 -0.8929
  697MOL0     H91948   4.178   4.131  -0.300 -1.6164 -0.5612  0.2969
  697MOL0     H91949   4.324   3.907  -0.161  0.3390  1.3175  2.8709
  697MOL0     H91950   4.308   4.074  -0.117 -0.4196 -2.0345  0.8466
  697MOL0     H91951   4.476   3.949  -0.349 -0.9614  0.6530 -1.8518
  697MOL0     H91952   4.529   4.037  -0.204 -2.1865  0.3579  1.1531
  697MOL0     H91953   4.363   4.136  -0.445 -1.7381 -1.6024  2.4052
  697MOL0     H91954   4.393   4.242  -0.319  1.2005  2.2314 -3.1468
  697MOL0     H91955   4.639   4.109  -0.453  1.9455  0.4932  0.1017
  697MOL0     H91956   4.630   4.227  -0.327  2.4580 -3.7511 -0.3800
  697MOL0     H91957   4.672   4.205  -0.703 -0.1298 -0.6605  1.3207
  697MOL0     H91958   4.661   4.574  -0.814  1.7235  0.2474 -1.4219
  697MOL0     H91959   4.695   4.415  -0.893 -0.1801  0.5116  0.4237
  697MOL0     H91960   4.908   4.376  -0.838 -1.9740 -0.9664  0.3226
  697MOL0     H91961   4.894   4.496  -0.701 -1.6581 -0.4161 -0.1009
  697MOL0     H91962   4.896   4.548  -0.998  3.0093 -0.7187  0.4716
  697MOL0     H91963   4.884   4.677  -0.879  1.0466  0.8600  0.4515
  697MOL0     H91964   5.096   4.662  -0.814 -3.4509 -0.2470  1.5421
  697MOL0     H91965   5.114   4.636  -0.993 -1.0661 -2.4690 -2.5534
  697MOL0     H91966   5.392   4.366  -0.827  1.4684  0.5680  0.3311
  697MOL0     H91967   5.554   4.321  -0.967  0.9224 -0.6606 -0.6980
  697MOL0     H91968   5.727   4.309  -1.440 -1.3737  0.3296  3.5193
  697MOL0     H91969   5.921   4.205  -1.563  2.2693 -0.1253  0.2516
  697MOL0     H91970   6.066   3.801  -1.414  1.7977 -0.8571  0.7308
  697MOL0     H91971   6.189   3.923  -1.361  2.4597 -0.4208 -1.9850
  697MOL0     H91972   6.294   3.909  -1.576  0.7909  0.8308 -2.1282
  697MOL0     H91973   6.152   3.835  -1.651 -0.0081 -0.4190  1.3029
  697MOL0     H91974   6.190   3.625  -1.581 -0.9785  0.2316 -0.5506
  697MOL0     H91975   6.278   3.667  -1.436  1.5195  2.7102  1.0997
  697MOL0     H91976   6.376   3.661  -1.730  0.5338 -0.3523  0.2238
  697MOL0     H91977   6.460   3.729  -1.587  0.2567 -1.0299  1.8264
  697MOL0     H91978   6.468   3.504  -1.493 -1.2766  1.3571  1.6844
  697MOL0     H91979   6.556   3.514  -1.640 -0.6651  0.8723 -1.7358
  697MOL0     H91980   6.391   3.416  -1.772 -0.0408 -3.1753 -0.4395
  697MOL0     H91981   6.274   3.405  -1.635  0.7903  0.4712  0.7381
  697MOL0     H91982   6.545   3.281  -1.671 -0.6759  2.1986 -0.1620
  697MOL0     H91983   6.441   3.247  -1.527 -1.6222 -0.7106 -0.4274
  697MOL0     H91984   6.419   3.059  -1.691  0.4645  0.3170 -1.9520
  697MOL0     H91985   6.348   3.172  -1.808 -0.2819 -0.5577  0.5615
  697MOL0     H91986   5.961   3.920  -1.243 -2.7471 -1.8036 -0.2697
  697MOL0     H91987   5.772   4.035  -1.124  0.1743 -1.7989 -0.7098
  697MOL0     H91988   5.270   4.343  -1.304  4.1676 -3.5582 -2.0486
  697MOL0     H91989   5.122   4.474  -1.132  0.4195  2.7643 -0.1966
  697MOL0     H91990   3.743   3.992   0.225 -1.7271 -0.9820  1.6724
  697MOL0     H91991   3.540   3.948   0.331 -0.0121 -2.2149  1.2715
  697MOL0     H91992   3.107   3.764   0.214 -1.5918 -2.1231 -2.2624
  697MOL0     H91993   2.892   3.665   0.274  1.6475 -0.5390 -1.7756
  697MOL0     H91994   2.879   3.351   0.603  1.4612 -2.9540 -1.7877
  697MOL0     H91995   2.891   3.273   0.455  2.0996 -0.4196  1.3728
  697MOL0     H91996   2.678   3.304   0.390  0.1337  0.4603 -0.2595
  697MOL0     H91997   2.677   3.214   0.527  0.9255 -0.9772 -1.6383
  697MOL0     H91998   2.609   3.513   0.528 -1.9334 -0.6674 -2.7245
  697MOL0     H91999   2.612   3.413   0.672 -0.6629  3.7522 -0.6299
  697MOL0     H92000   2.382   3.446   0.596  0.5857 -0.8700  2.2090
  697MOL0     H92001   2.438   3.424   0.429 -0.0566 -0.0462  0.0318
  697MOL0     H92002   2.370   3.015   0.538  1.8978  0.3235  0.8658
  697MOL0     H92003   3.124   3.363   0.505  1.1269 -1.7786 -3.7861
  697MOL0     H92004   3.317   3.485   0.468  1.0248  3.1101  2.8475
  698MOL0     O92005   1.874   0.878   3.167  0.3138 -0.1647  0.4613
  698MOL0     C92006   1.924   0.779   3.109 -0.2576  0.4178  0.2519
  698MOL0     O92007   1.947   0.771   2.977  0.0903  0.2386  0.9183
  698MOL0     C92008   1.914   0.864   2.886  0.5798 -0.1168  0.2292
  698MOL0     C92009   2.018   0.953   2.841  0.7310  0.5084 -0.2589
  698MOL0     C92010   1.996   1.024   2.729  0.1044  0.0593 -0.0506
  698MOL0     C92011   1.870   1.029   2.675  0.3094  0.4124  0.0997
  698MOL0     O92012   1.844   1.086   2.551  0.4204 -0.5472  0.3870
  698MOL0     C92013   1.915   1.213   2.509 -0.1516  0.2754 -0.8566
  698MOL0     C92014   2.049   1.201   2.443 -0.1873  0.6835 -0.4553
  698MOL0     C92015   2.044   1.202   2.291 -0.6961  0.1818 -0.2080
  698MOL0     C92016   1.982   1.068   2.252  0.2408  0.0185  0.2943
  698MOL0     C92017   1.972   1.047   2.094 -0.7265 -0.5601 -0.3440
  698MOL0     C92018   2.100   1.077   2.008  0.0932 -0.4047 -0.3556
  698MOL0     C92019   2.212   0.975   1.996 -0.1852 -0.9754  0.3313
  698MOL0     C92020   2.338   1.017   1.922 -0.2084 -0.1967 -0.7191
  698MOL0     N92021   2.315   1.009   1.780 -0.0493 -0.0429 -0.1605
  698MOL0     C92022   2.343   0.913   1.694 -0.0888  0.3561 -0.2910
  698MOL0     C92023   2.285   0.939   1.579 -0.3213 -0.0706  0.2831
  698MOL0     C92024   2.290   0.848   1.470 -0.2936  0.2238 -0.3466
  698MOL0     C92025   2.176   0.746   1.469  0.1430  0.1175 -0.1394
  698MOL0     C92026   2.175   0.647   1.355  0.3315  0.0020 -0.4785
  698MOL0     C92027   2.068   0.548   1.384 -0.4753 -1.5250  0.3156
  698MOL0     O92028   2.124   0.458   1.494  0.1099  0.2261  0.4034
  698MOL0     C92029   2.062   0.334   1.505 -0.2460 -0.1817  0.2082
  698MOL0     C92030   1.927   0.311   1.459  0.7752 -0.4347  0.3490
  698MOL0     C92031   1.876   0.181   1.471 -0.7193  0.0276 -0.2879
  698MOL0     C92032   1.949   0.077   1.537  0.8910 -0.2213 -0.7473
  698MOL0     C92033   1.877  -0.060   1.556  0.2918 -0.1725  0.7158
  698MOL0     O92034   1.773  -0.085   1.474  0.1458 -0.1826 -0.1606
  698MOL0     C92035   1.749  -0.218   1.458  0.3657 -0.8080 -0.1525
  698MOL0     C92036   1.798  -0.271   1.343 -0.2230  0.1612 -0.6067
  698MOL0     C92037   1.788  -0.406   1.323  1.1603 -0.4261  0.8259
  698MOL0     C92038   1.723  -0.492   1.412 -0.1210 -1.0562 -0.6702
  698MOL0     O92039   1.698  -0.621   1.399  0.0245  0.1161 -0.7117
  698MOL0     C92040   1.806  -0.695   1.346 -1.0272  0.7492  0.4847
  698MOL0     C92041   1.809  -0.842   1.390 -0.4819  0.2329 -0.4479
  698MOL0     C92042   1.681  -0.916   1.357 -0.1159  0.2706  0.3369
  698MOL0     C92043   1.679  -1.061   1.414 -0.3078 -0.0005  0.0513
  698MOL0     C92044   1.530  -1.109   1.426  0.5994 -0.7625  1.2684
  698MOL0     C92045   1.457  -1.130   1.292 -0.4504  0.3516 -0.2358
  698MOL0     C92046   1.312  -1.170   1.309 -1.1943 -0.2017 -0.2348
  698MOL0     C92047   1.245  -1.157   1.172  0.3872  0.4219  0.0211
  698MOL0    Cl92048   1.276  -1.290   1.069 -0.0868  0.4300 -0.2459
  698MOL0     C92049   1.677  -0.437   1.531  0.2553  0.0423  1.0273
  698MOL0     C92050   1.697  -0.301   1.554  1.1032 -0.7770  0.3892
  698MOL0     O92051   1.916  -0.128   1.646 -0.7532  0.8191  0.1301
  698MOL0     C92052   2.076   0.100   1.579 -0.5818  0.2125  0.7984
  698MOL0     C92053   2.139   0.226   1.558 -0.0954  0.6671  0.0251
  698MOL0     N92054   2.223   1.064   1.592 -0.3687  0.6688  0.4647
  698MOL0     N92055   2.234   1.099   1.720 -1.1878  0.8806  0.3947
  698MOL0     C92056   1.763   0.954   2.729 -1.0702 -0.0264  0.1645
  698MOL0     C92057   1.783   0.873   2.843  0.5088  0.5892  0.3272
  698MOL0     C92058   1.922   0.644   3.174 -0.3561 -0.3492 -0.1009
  698MOL0     C92059   1.892   0.637   3.310  1.6617  0.2629 -0.1931
  698MOL0     C92060   1.868   0.513   3.379 -0.4377 -0.4315  0.4302
  698MOL0     C92061   1.889   0.389   3.310  0.3822 -0.1579  0.7433
  698MOL0     O92062   1.867   0.260   3.367 -0.4833 -0.1250  1.1261
  698MOL0     C92063   1.911   0.236   3.504 -0.1537  0.3260 -0.0379
  698MOL0     C92064   1.801   0.170   3.588  0.5843  0.7135 -0.9832
  698MOL0     C92065   1.657   0.225   3.558 -0.4774  0.1306  0.0536
  698MOL0     C92066   1.546   0.182   3.661  0.5144 -0.0154 -0.4837
  698MOL0     C92067   1.520   0.038   3.637 -0.2055  0.0965  0.0989
  698MOL0     C92068   1.506  -0.084   3.617 -0.5689 -0.0065  0.4989
  698MOL0     C92069   1.931   0.399   3.174  0.6986  0.0843 -0.0723
  698MOL0     C92070   1.943   0.526   3.105 -0.3967 -0.0876  0.1022
  698MOL0     H92071   2.114   0.936   2.890  0.6792 -4.0357 -1.2365
  698MOL0     H92072   2.080   1.078   2.687  0.7268 -0.6305  0.2728
  698MOL0     H92073   1.920   1.274   2.600 -0.5764 -0.7219 -0.1356
  698MOL0     H92074   1.850   1.259   2.434 -2.4601 -0.4689  0.5605
  698MOL0     H92075   2.119   1.126   2.480 -0.2374  0.2968 -1.1288
  698MOL0     H92076   2.095   1.294   2.479 -2.5541  2.0375 -0.6896
  698MOL0     H92077   2.146   1.218   2.254 -0.3458 -0.3725  0.4896
  698MOL0     H92078   1.984   1.286   2.255 -0.7113 -0.3215 -1.4380
  698MOL0     H92079   2.045   0.989   2.295 -0.7872 -0.7244  0.4748
  698MOL0     H92080   1.878   1.060   2.285 -0.2110 -0.1867 -1.1178
  698MOL0     H92081   1.886   1.095   2.046  0.3697  1.3459 -0.4776
  698MOL0     H92082   1.945   0.941   2.084 -0.7927 -0.4565 -1.3757
  698MOL0     H92083   2.136   1.180   2.023 -2.3655  0.5781 -0.6447
  698MOL0     H92084   2.058   1.071   1.907 -0.6429  1.3580 -0.2098
  698MOL0     H92085   2.240   0.963   2.102  1.8646  0.4884  0.0126
  698MOL0     H92086   2.173   0.882   1.954 -0.1285 -1.1110  0.5779
  698MOL0     H92087   2.422   0.951   1.943 -0.9089 -2.2209 -3.6707
  698MOL0     H92088   2.365   1.122   1.939  3.4326 -1.2980  1.2815
  698MOL0     H92089   2.410   0.827   1.696 -0.6116 -0.1067  2.8756
  698MOL0     H92090   2.386   0.795   1.468 -1.9643 -3.0640 -0.4406
  698MOL0     H92091   2.278   0.908   1.379 -2.4709  0.1962 -0.1300
  698MOL0     H92092   2.076   0.789   1.477  1.4413  3.0248  3.6098
  698MOL0     H92093   2.185   0.689   1.562 -1.9649 -1.0132 -0.5792
  698MOL0     H92094   2.172   0.709   1.265  1.1915  0.2976 -0.3074
  698MOL0     H92095   2.272   0.598   1.347  1.4285  2.2639 -2.5703
  698MOL0     H92096   2.042   0.491   1.294 -0.6048  0.4954 -0.9968
  698MOL0     H92097   1.976   0.600   1.412  0.6985  0.1738  1.1929
  698MOL0     H92098   1.857   0.393   1.443  3.2789  1.7304 -0.1948
  698MOL0     H92099   1.781   0.148   1.428 -0.2116 -0.4075 -1.1106
  698MOL0     H92100   1.850  -0.200   1.281  1.2742  1.2481  1.7448
  698MOL0     H92101   1.821  -0.442   1.226 -0.6041  0.8854 -0.3110
  698MOL0     H92102   1.902  -0.651   1.371  0.8138 -0.7013 -3.2224
  698MOL0     H92103   1.802  -0.689   1.236  0.7005  0.0479  0.3631
  698MOL0     H92104   1.825  -0.841   1.498  0.3183 -0.7584 -0.5416
  698MOL0     H92105   1.898  -0.897   1.357  1.5299  4.4242 -2.8576
  698MOL0     H92106   1.663  -0.911   1.249 -2.6622 -2.0210  0.5391
  698MOL0     H92107   1.595  -0.871   1.407 -0.8066  1.8815 -2.1237
  698MOL0     H92108   1.725  -1.134   1.346  2.1723  0.1758  1.4131
  698MOL0     H92109   1.718  -1.073   1.515 -0.5315 -0.1663  0.1189
  698MOL0     H92110   1.476  -1.031   1.480 -1.0541 -1.3560  0.5517
  698MOL0     H92111   1.520  -1.197   1.489 -0.5599 -0.2835  1.7691
  698MOL0     H92112   1.513  -1.196   1.225 -1.2386 -0.1412 -0.4314
  698MOL0     H92113   1.448  -1.031   1.246  0.3537  1.3518  1.6335
  698MOL0     H92114   1.307  -1.275   1.340 -3.7993  0.5468  2.3663
  698MOL0     H92115   1.264  -1.099   1.377  0.2591  0.9868 -0.3981
  698MOL0     H92116   1.262  -1.060   1.124  1.4219  0.3826  0.2781
  698MOL0     H92117   1.137  -1.147   1.179  0.5191  1.6539  0.6180
  698MOL0     H92118   1.636  -0.507   1.603 -1.8719  1.0146  0.8609
  698MOL0     H92119   1.662  -0.262   1.649  1.1797  2.5547 -0.8088
  698MOL0     H92120   2.128   0.013   1.616  3.3274  1.6158 -0.8681
  698MOL0     H92121   2.246   0.238   1.570  0.4443 -2.6571 -0.3300
  698MOL0     H92122   1.670   0.948   2.673 -0.9109 -1.9725  0.0535
  698MOL0     H92123   1.705   0.809   2.884 -0.7291  2.2569  0.7034
  698MOL0     H92124   1.871   0.731   3.359 -0.8901 -0.0912 -0.4827
  698MOL0     H92125   1.824   0.508   3.478 -1.8209 -3.0378 -0.2214
  698MOL0     H92126   1.935   0.332   3.550  0.1039  0.0160  0.4786
  698MOL0     H92127   1.993   0.163   3.503 -1.1702 -0.8608  0.0026
  698MOL0     H92128   1.804   0.061   3.576  1.3669  0.9048 -2.8723
  698MOL0     H92129   1.820   0.195   3.693 -1.4412 -0.1329 -0.3570
  698MOL0     H92130   1.624   0.196   3.457 -0.3607 -1.0234  0.3334
  698MOL0     H92131   1.652   0.334   3.554 -0.5188  0.1776  1.1816
  698MOL0     H92132   1.581   0.191   3.764 -0.1059 -4.1172  0.2603
  698MOL0     H92133   1.458   0.246   3.646 -1.8976 -2.9926 -0.0076
  698MOL0     H92134   1.506  -0.188   3.589  1.0614  0.0053  0.3358
  698MOL0     H92135   1.921   0.309   3.115 -2.0391  1.5234 -2.0649
  698MOL0     H92136   1.956   0.525   2.998 -0.9285 -0.8529  0.0336
  699MOL0     O92137   2.066   0.896   0.271  0.3428 -0.0158 -0.4325
  699MOL0     C92138   2.142   0.859   0.182 -0.2263 -0.5161 -0.0714
  699MOL0     O92139   2.111   0.846   0.052 -0.0319 -0.1720 -0.3510
  699MOL0     C92140   1.980   0.855   0.010 -0.5838  0.2563  1.6109
  699MOL0     C92141   1.959   0.879  -0.128 -0.3256 -0.0320 -0.3014
  699MOL0     C92142   1.828   0.865  -0.186 -0.2731  1.0684  0.8433
  699MOL0     C92143   1.721   0.832  -0.105  0.3208 -0.2678 -0.2119
  699MOL0     O92144   1.592   0.838  -0.144  0.6488 -0.2017  0.2630
  699MOL0     C92145   1.546   0.751  -0.240 -0.5356  0.7689 -0.1803
  699MOL0     C92146   1.528   0.609  -0.199 -0.2339  0.5581  0.7749
  699MOL0     C92147   1.435   0.588  -0.077  0.5753  0.3495  0.6925
  699MOL0     C92148   1.456   0.441  -0.032  0.0790 -0.3924  0.1130
  699MOL0     C92149   1.339   0.385   0.055  0.2197  0.8351 -0.6701
  699MOL0     C92150   1.397   0.292   0.157 -0.1654  0.0411 -0.3568
  699MOL0     C92151   1.299   0.220   0.249 -0.6904 -0.6127 -0.3545
  699MOL0     C92152   1.247   0.324   0.351 -0.2313 -0.5069  0.7087
  699MOL0     N92153   1.168   0.251   0.453 -0.3496  0.6017 -0.0227
  699MOL0     C92154   1.031   0.233   0.452  0.7551  0.2230 -0.1932
  699MOL0     C92155   1.004   0.112   0.511  0.0631 -0.6012 -0.4670
  699MOL0     C92156   0.872   0.045   0.539  0.4932 -0.3824 -0.6233
  699MOL0     C92157   0.742   0.128   0.523  0.7399 -0.1389  0.6219
  699MOL0     C92158   0.633   0.032   0.581 -0.0188  0.3680  0.5419
  699MOL0     C92159   0.493   0.101   0.599 -0.2828 -0.6709 -0.3916
  699MOL0     O92160   0.419   0.088   0.483  0.2959 -0.2926  0.3132
  699MOL0     C92161   0.285   0.128   0.482 -0.4630 -0.1166 -0.5537
  699MOL0     C92162   0.207   0.181   0.590  0.7257  0.1375  0.3126
  699MOL0     C92163   0.076   0.230   0.558  0.8031  0.8044  0.2974
  699MOL0     C92164   0.024   0.238   0.428  0.1813  0.0205  0.2301
  699MOL0     C92165  -0.118   0.297   0.406 -0.7260 -0.5430 -0.6006
  699MOL0     O92166  -0.156   0.317   0.276  0.2765 -0.1859  0.5541
  699MOL0     C92167  -0.286   0.388   0.257 -0.6141 -0.0224  0.0384
  699MOL0     C92168  -0.271   0.522   0.211 -0.3937 -0.0238  0.4522
  699MOL0     C92169  -0.389   0.590   0.160  1.0116  0.5168  1.1845
  699MOL0     C92170  -0.510   0.531   0.164  0.2251  0.2703  0.0037
  699MOL0     O92171  -0.610   0.601   0.104 -0.0555  0.2002  1.2133
  699MOL0     C92172  -0.749   0.564   0.123  0.1057 -1.1955 -0.3303
  699MOL0     C92173  -0.807   0.474   0.004 -0.5273  0.5908  0.3004
  699MOL0     C92174  -0.955   0.432   0.028 -1.3526  1.3438  0.0195
  699MOL0     C92175  -1.060   0.543   0.009 -0.8650  0.2019  0.1708
  699MOL0     C92176  -1.203   0.500  -0.006  0.0227  0.6446 -0.2242
  699MOL0     C92177  -1.293   0.620  -0.002  0.5559 -0.8278  0.3191
  699MOL0     C92178  -1.444   0.586   0.027 -0.7807 -0.4011 -0.1362
  699MOL0     C92179  -1.551   0.691  -0.004 -0.0472  0.5073  0.7671
  699MOL0    Cl92180  -1.496   0.852   0.075 -0.2479  0.2858  0.1268
  699MOL0     C92181  -0.527   0.400   0.216  0.1374  1.5048  0.2146
  699MOL0     C92182  -0.412   0.332   0.271  0.3062  0.1684  0.4154
  699MOL0     O92183  -0.181   0.332   0.502  0.1941  0.5684  0.2814
  699MOL0     C92184   0.103   0.190   0.323  1.1165 -0.1507 -0.1063
  699MOL0     C92185   0.231   0.142   0.355  0.6170 -0.7687 -0.6476
  699MOL0     N92186   1.132   0.061   0.541 -0.2595  0.6065  0.8875
  699MOL0     N92187   1.224   0.140   0.504  0.1357  0.7473 -0.5088
  699MOL0     C92188   1.741   0.817   0.033 -0.0684 -0.4302 -0.0056
  699MOL0     C92189   1.866   0.833   0.088  0.0608 -0.4250  0.1567
  699MOL0     C92190   2.282   0.839   0.224 -0.5556 -1.0106 -0.3593
  699MOL0     C92191   2.340   0.915   0.332 -0.8596  0.6567  0.4149
  699MOL0     C92192   2.478   0.913   0.360  0.1616  0.6015 -0.6602
  699MOL0     C92193   2.559   0.839   0.288 -0.5619  1.2136  0.6329
  699MOL0     O92194   2.694   0.835   0.322 -0.7034 -0.9097 -0.3124
  699MOL0     C92195   2.787   0.763   0.245 -0.3575  0.9747 -0.0838
  699MOL0     C92196   2.925   0.754   0.313 -0.2836  0.0645  1.0599
  699MOL0     C92197   2.896   0.689   0.461 -0.5895  0.4941  0.0396
  699MOL0     C92198   3.017   0.602   0.497 -0.4201  0.9295  0.4243
  699MOL0     C92199   3.031   0.603   0.646 -0.3298  1.4751 -0.7667
  699MOL0     C92200   3.027   0.601   0.767 -0.6821 -0.3077  0.0939
  699MOL0     C92201   2.504   0.764   0.174  0.3148  0.1175  0.1375
  699MOL0     C92202   2.372   0.768   0.143 -0.1018  0.6913  0.0786
  699MOL0     H92203   2.040   0.903  -0.196 -0.6912 -2.4778 -1.7358
  699MOL0     H92204   1.815   0.878  -0.293  1.9177  0.1409  0.4003
  699MOL0     H92205   1.628   0.753  -0.313  0.1570 -1.1291  0.4946
  699MOL0     H92206   1.463   0.797  -0.295  0.0525 -0.8642 -2.6001
  699MOL0     H92207   1.630   0.577  -0.176 -0.4849 -1.0398 -0.1821
  699MOL0     H92208   1.490   0.567  -0.292  0.9751  0.3076  0.3812
  699MOL0     H92209   1.331   0.604  -0.104 -0.3625 -2.9985  1.8082
  699MOL0     H92210   1.463   0.664  -0.003  0.2243  0.6027  0.5663
  699MOL0     H92211   1.476   0.379  -0.120  1.5964  1.3984 -0.8870
  699MOL0     H92212   1.546   0.440   0.029  1.1698 -0.2742 -1.4249
  699MOL0     H92213   1.267   0.341  -0.014  0.8037  2.5738 -2.4622
  699MOL0     H92214   1.295   0.463   0.117 -1.6856 -0.8765  0.2602
  699MOL0     H92215   1.478   0.343   0.210 -1.9093  1.7826  0.7757
  699MOL0     H92216   1.447   0.208   0.109 -1.5544 -3.5797  3.8817
  699MOL0     H92217   1.210   0.186   0.196 -0.9415  2.2232 -1.9414
  699MOL0     H92218   1.354   0.135   0.292  0.1721 -2.6583 -4.9414
  699MOL0     H92219   1.181   0.403   0.315  0.0863  0.9180  3.0463
  699MOL0     H92220   1.332   0.376   0.397  1.4096  0.8643 -3.4743
  699MOL0     H92221   0.961   0.309   0.420 -1.1029 -0.3650  2.1658
  699MOL0     H92222   0.886   0.012   0.642 -1.4950 -1.7139 -0.7341
  699MOL0     H92223   0.869  -0.045   0.478 -3.6528 -2.1596  1.8138
  699MOL0     H92224   0.719   0.139   0.417 -0.3233  1.4883  0.9842
  699MOL0     H92225   0.750   0.230   0.563 -0.9102 -0.1478  1.0217
  699MOL0     H92226   0.630  -0.055   0.515  1.5189  0.0848  0.8048
  699MOL0     H92227   0.662  -0.017   0.674 -2.6254  2.0983  2.4112
  699MOL0     H92228   0.507   0.205   0.630 -0.1562 -1.5000  2.5661
  699MOL0     H92229   0.440   0.053   0.682  0.2480  1.1726  1.0811
  699MOL0     H92230   0.256   0.203   0.685  1.0782  1.1455 -0.0917
  699MOL0     H92231   0.013   0.261   0.641  0.5021 -0.9144  0.7485
  699MOL0     H92232  -0.171   0.565   0.208 -0.4463  0.0613 -0.4185
  699MOL0     H92233  -0.373   0.686   0.111  0.9564 -1.0900 -2.2671
  699MOL0     H92234  -0.817   0.650   0.117 -0.8546 -1.7869  1.4181
  699MOL0     H92235  -0.769   0.519   0.220  1.2919  2.5515  1.8388
  699MOL0     H92236  -0.754   0.379  -0.002  3.2128  2.5294 -0.6373
  699MOL0     H92237  -0.785   0.504  -0.099  1.4267 -2.8434 -0.4541
  699MOL0     H92238  -0.967   0.388   0.128 -2.1545 -0.8119 -0.9638
  699MOL0     H92239  -0.970   0.355  -0.048  0.3369  0.0914  0.8894
  699MOL0     H92240  -1.061   0.621   0.086 -0.5914  1.3386 -0.9433
  699MOL0     H92241  -1.034   0.601  -0.080  0.6641 -1.1607 -0.3267
  699MOL0     H92242  -1.227   0.421   0.065 -1.0348  0.0566 -1.2059
  699MOL0     H92243  -1.219   0.462  -0.107  1.9900  0.5806 -0.5638
  699MOL0     H92244  -1.271   0.681  -0.090  5.6494  2.8012  3.5471
  699MOL0     H92245  -1.272   0.676   0.090 -1.2856  2.3486 -1.0438
  699MOL0     H92246  -1.455   0.496  -0.034  1.2429 -1.3982  0.8550
  699MOL0     H92247  -1.445   0.562   0.134  0.4099 -0.2195 -0.0739
  699MOL0     H92248  -1.652   0.653   0.013  1.4883 -4.8287  0.0776
  699MOL0     H92249  -1.549   0.703  -0.113  3.9170 -2.2235  0.3154
  699MOL0     H92250  -0.624   0.354   0.227 -0.6430  3.5399  3.1266
  699MOL0     H92251  -0.430   0.228   0.296  3.5850 -1.9298 -4.4267
  699MOL0     H92252   0.077   0.192   0.217 -1.0924  0.2661  0.3991
  699MOL0     H92253   0.297   0.113   0.274  2.4742  0.1167  0.4788
  699MOL0     H92254   1.662   0.828   0.106  1.7707  1.2336  1.8455
  699MOL0     H92255   1.858   0.817   0.195 -0.3709 -1.7421 -0.0439
  699MOL0     H92256   2.273   0.972   0.395 -2.4920 -0.0846 -0.5796
  699MOL0     H92257   2.502   0.959   0.455 -2.6627  0.1085  0.3989
  699MOL0     H92258   2.812   0.825   0.158  1.5446  1.0909  0.5035
  699MOL0     H92259   2.749   0.666   0.212 -0.5372  1.0987 -0.2503
  699MOL0     H92260   2.995   0.704   0.246 -0.6890  1.6790 -0.6559
  699MOL0     H92261   2.969   0.854   0.319 -1.5647  0.8643 -1.5254
  699MOL0     H92262   2.802   0.633   0.469  0.3895 -1.1438  0.7121
  699MOL0     H92263   2.890   0.770   0.533  1.5606 -0.3718  1.2804
  699MOL0     H92264   3.002   0.502   0.455 -0.1515  0.7831  0.6771
  699MOL0     H92265   3.105   0.644   0.447 -0.8477  0.0526 -1.1456
  699MOL0     H92266   3.016   0.604   0.873 -5.1344 -3.0301 -0.0342
  699MOL0     H92267   2.561   0.700   0.108 -1.1757  2.4816 -3.8411
  699MOL0     H92268   2.320   0.705   0.072 -1.7173 -1.2581  2.8200
  700MOL0     O92269   4.810   6.337   2.610 -0.6928  0.6124 -0.1873
  700MOL0     C92270   4.794   6.459   2.622  0.4203 -0.7800  0.1473
  700MOL0     O92271   4.670   6.516   2.671  0.4909  0.5978 -0.5373
  700MOL0     C92272   4.557   6.437   2.688 -1.4084 -0.4235 -0.1302
  700MOL0     C92273   4.519   6.322   2.616 -0.9823 -0.3637  0.3719
  700MOL0     C92274   4.397   6.266   2.622 -0.1028  0.9920 -0.7297
  700MOL0     C92275   4.302   6.320   2.706 -0.0781  0.3616  0.5109
  700MOL0     O92276   4.176   6.272   2.713  0.7667  0.2375 -0.1348
  700MOL0     C92277   4.151   6.127   2.708 -0.4227 -0.7785  0.4042
  700MOL0     C92278   4.032   6.107   2.805  0.3215 -0.1363  0.1851
  700MOL0     C92279   3.940   5.988   2.748 -0.2560  0.0755  0.2604
  700MOL0     C92280   3.815   5.977   2.835  0.6344 -0.1944 -0.4503
  700MOL0     C92281   3.706   5.888   2.774 -0.2894 -0.0521 -1.2326
  700MOL0     C92282   3.611   5.841   2.885 -0.0513 -0.5073 -0.1888
  700MOL0     C92283   3.478   5.794   2.827  0.0799 -0.1965  0.0875
  700MOL0     C92284   3.369   5.768   2.940 -0.1232  0.0251 -0.2380
  700MOL0     N92285   3.262   5.692   2.860  0.2560  0.0831 -0.4225
  700MOL0     C92286   3.269   5.571   2.796 -0.6385 -0.1293  0.4388
  700MOL0     C92287   3.156   5.570   2.724 -0.4206  0.3946  0.3352
  700MOL0     C92288   3.139   5.447   2.642 -1.6290 -0.5940 -0.1979
  700MOL0     C92289   2.997   5.398   2.646 -1.1992  0.9827  0.7283
  700MOL0     C92290   2.941   5.367   2.788  0.0683 -0.3118  0.0944
  700MOL0     C92291   2.794   5.337   2.776  0.6350 -0.1864  0.5562
  700MOL0     O92292   2.721   5.316   2.894  0.6084  0.5104 -0.8974
  700MOL0     C92293   2.584   5.337   2.889  0.7892 -1.1432 -0.0648
  700MOL0     C92294   2.526   5.353   3.016 -0.0057  0.6081 -0.6855
  700MOL0     C92295   2.386   5.362   3.034  0.4749  0.6065 -0.2925
  700MOL0     C92296   2.310   5.389   2.918  1.0257  0.6867  0.1654
  700MOL0     C92297   2.160   5.414   2.932  0.5167 -0.5574 -0.2584
  700MOL0     O92298   2.114   5.448   3.054 -0.1840 -0.0020 -0.0607
  700MOL0     C92299   1.980   5.441   3.087  0.2867 -0.1099 -0.4754
  700MOL0     C92300   1.947   5.381   3.204  0.6026  0.1411 -0.0259
  700MOL0     C92301   1.814   5.378   3.237  0.0284 -0.4394  0.3310
  700MOL0     C92302   1.721   5.458   3.175 -0.0472 -0.5602  0.1742
  700MOL0     O92303   1.596   5.470   3.205 -0.3734 -0.1516 -0.6933
  700MOL0     C92304   1.523   5.368   3.279 -1.1624 -0.2705  0.7796
  700MOL0     C92305   1.477   5.248   3.201 -1.4121 -0.6376 -0.5581
  700MOL0     C92306   1.406   5.144   3.282 -0.1115 -0.4025  0.4543
  700MOL0     C92307   1.387   5.004   3.209 -0.6189 -0.4224 -0.6787
  700MOL0     C92308   1.316   5.010   3.070 -0.0011  0.0244 -0.4168
  700MOL0     C92309   1.164   5.034   3.073  0.6122 -0.1330 -0.1099
  700MOL0     C92310   1.121   5.130   2.952 -0.4930 -0.0689 -0.1450
  700MOL0     C92311   1.152   5.277   2.977 -0.3829 -0.8114  0.3468
  700MOL0    Cl92312   1.119   5.313   3.151 -0.2761 -0.2289  0.0326
  700MOL0     C92313   1.764   5.538   3.068  0.5185  0.6675 -1.0994
  700MOL0     C92314   1.888   5.524   3.013 -0.5018  0.7166 -0.0915
  700MOL0     O92315   2.086   5.379   2.834  0.7843  0.2117 -0.7315
  700MOL0     C92316   2.366   5.363   2.792  0.7658 -0.0881 -0.4738
  700MOL0     C92317   2.502   5.345   2.773 -0.5627 -0.0245 -0.3715
  700MOL0     N92318   3.080   5.681   2.746 -0.0898  0.4803  0.7479
  700MOL0     N92319   3.153   5.756   2.817 -0.1825 -0.1266  0.3016
  700MOL0     C92320   4.325   6.445   2.765 -0.3595  0.1172 -0.1128
  700MOL0     C92321   4.464   6.497   2.765 -0.0014  0.2115  0.7272
  700MOL0     C92322   4.901   6.556   2.588 -0.3755  0.3604 -0.1032
  700MOL0     C92323   5.039   6.517   2.563  0.3640  0.6923 -0.0320
  700MOL0     C92324   5.144   6.608   2.552  0.3883  0.6353  1.0533
  700MOL0     C92325   5.127   6.737   2.555 -0.2065 -0.7795 -0.7472
  700MOL0     O92326   5.223   6.831   2.551  0.2751  0.0288 -1.1475
  700MOL0     C92327   5.363   6.802   2.563  0.7372 -0.7497 -0.5346
  700MOL0     C92328   5.457   6.929   2.588  0.1867 -0.2576 -0.8363
  700MOL0     C92329   5.393   7.037   2.690 -0.7507 -0.2459  0.5906
  700MOL0     C92330   5.437   7.180   2.664 -0.2996  0.0795  0.6005
  700MOL0     C92331   5.368   7.256   2.772  0.0258 -0.4798 -0.3851
  700MOL0     C92332   5.308   7.337   2.847  0.6134  0.5699  0.4055
  700MOL0     C92333   4.995   6.779   2.575 -0.6721  0.8882  0.1190
  700MOL0     C92334   4.888   6.694   2.590  0.0768 -0.0580  0.8312
  700MOL0     H92335   4.587   6.279   2.543 -1.8294 -0.7705 -0.2048
  700MOL0     H92336   4.370   6.180   2.562  0.6470  1.5262 -1.8705
  700MOL0     H92337   4.237   6.068   2.738  1.4900  0.8294 -1.5715
  700MOL0     H92338   4.123   6.089   2.609 -0.7028 -2.6602  1.1657
  700MOL0     H92339   3.972   6.197   2.808  1.4539  0.6771 -0.5196
  700MOL0     H92340   4.065   6.071   2.903  0.1814  0.6507  0.5211
  700MOL0     H92341   3.998   5.895   2.751 -1.3538 -0.6683 -0.7482
  700MOL0     H92342   3.908   5.995   2.643 -1.0634 -1.1052  0.4034
  700MOL0     H92343   3.841   5.942   2.935  2.5969  0.9760 -0.5015
  700MOL0     H92344   3.779   6.080   2.839 -0.8759 -0.6983 -0.6244
  700MOL0     H92345   3.749   5.800   2.725  0.6537 -0.3230  0.0329
  700MOL0     H92346   3.655   5.955   2.704  0.1330  2.5739  0.8385
  700MOL0     H92347   3.585   5.927   2.948  0.0822 -1.9421  1.9115
  700MOL0     H92348   3.663   5.771   2.950  1.2238 -1.3034 -1.9931
  700MOL0     H92349   3.435   5.876   2.769 -1.5193 -0.7729  0.3950
  700MOL0     H92350   3.488   5.710   2.758 -0.6520  0.0811 -0.3795
  700MOL0     H92351   3.339   5.869   2.969  2.2716  0.8503 -0.4038
  700MOL0     H92352   3.395   5.712   3.030 -4.4256  1.8445  2.4367
  700MOL0     H92353   3.346   5.496   2.798  1.0485  1.4361  4.0291
  700MOL0     H92354   3.211   5.370   2.671 -1.2292 -0.8110 -1.6507
  700MOL0     H92355   3.160   5.464   2.536  1.1822  0.3515  0.4474
  700MOL0     H92356   2.981   5.315   2.577 -1.0114  0.4574  1.3040
  700MOL0     H92357   2.940   5.481   2.603 -1.3575  0.3566 -0.3061
  700MOL0     H92358   2.983   5.276   2.831 -0.9650 -0.5903  0.5513
  700MOL0     H92359   2.951   5.454   2.853 -2.1584 -0.2322  0.3975
  700MOL0     H92360   2.765   5.255   2.709 -3.6976  0.3879  1.4168
  700MOL0     H92361   2.755   5.427   2.728  2.1714  1.7160  2.6616
  700MOL0     H92362   2.599   5.336   3.094 -2.8439  0.4639  2.1646
  700MOL0     H92363   2.344   5.379   3.133 -0.9123  0.9091 -0.9118
  700MOL0     H92364   2.026   5.334   3.262 -0.3080 -3.8598 -1.7115
  700MOL0     H92365   1.783   5.325   3.326 -0.5807  0.2142  0.5153
  700MOL0     H92366   1.428   5.413   3.311 -1.0284  0.4476  0.1908
  700MOL0     H92367   1.573   5.335   3.370  0.5938  1.5177  0.5384
  700MOL0     H92368   1.566   5.197   3.164 -0.8262 -0.3985  0.5016
  700MOL0     H92369   1.410   5.280   3.119  0.1312  0.1218 -1.5684
  700MOL0     H92370   1.307   5.179   3.312 -0.1003  0.0144  0.0110
  700MOL0     H92371   1.454   5.121   3.378 -0.8725  1.8938  1.4604
  700MOL0     H92372   1.485   4.958   3.194 -0.8573 -0.8720 -0.8841
  700MOL0     H92373   1.340   4.932   3.277  1.7344 -1.3959  0.0120
  700MOL0     H92374   1.333   4.915   3.019  0.1468  1.0067 -2.3028
  700MOL0     H92375   1.361   5.093   3.014  0.5669  0.8356  1.1596
  700MOL0     H92376   1.141   5.069   3.174  0.9770  1.0243 -0.4113
  700MOL0     H92377   1.114   4.937   3.066  3.0832 -1.3780 -2.5846
  700MOL0     H92378   1.172   5.098   2.861  0.4283  2.2017 -0.4844
  700MOL0     H92379   1.012   5.119   2.946 -0.2668 -4.3107  0.4853
  700MOL0     H92380   1.088   5.336   2.910 -1.4516 -1.7500  0.5147
  700MOL0     H92381   1.256   5.293   2.948  0.2519 -2.1044  1.7784
  700MOL0     H92382   1.685   5.594   3.018  0.4278  2.0399  0.4776
  700MOL0     H92383   1.923   5.578   2.926 -0.2837  2.0874  0.8214
  700MOL0     H92384   2.311   5.367   2.698 -0.0651 -2.8757 -0.1820
  700MOL0     H92385   2.541   5.346   2.672  1.2545  0.6692  0.3093
  700MOL0     H92386   4.249   6.486   2.831  0.9524  1.1720  0.8020
  700MOL0     H92387   4.492   6.590   2.813  1.8342  0.6939 -1.1430
  700MOL0     H92388   5.054   6.410   2.560 -3.4288 -0.0432  1.0763
  700MOL0     H92389   5.249   6.580   2.540  0.6246  0.4893  3.1994
  700MOL0     H92390   5.387   6.741   2.475  1.1118 -0.2426 -0.7919
  700MOL0     H92391   5.375   6.737   2.650  1.7663  3.0105  2.3997
  700MOL0     H92392   5.554   6.902   2.631  0.4768 -0.6689 -1.7174
  700MOL0     H92393   5.465   6.988   2.497 -0.6879  1.2370  0.0147
  700MOL0     H92394   5.419   7.015   2.794  0.3308 -1.1630  0.1512
  700MOL0     H92395   5.284   7.042   2.681 -0.6065  0.0410 -1.3103
  700MOL0     H92396   5.545   7.198   2.662 -0.5555  1.6704 -0.1923
  700MOL0     H92397   5.386   7.216   2.574  0.9199 -2.7003 -1.3497
  700MOL0     H92398   5.280   7.411   2.919 -1.5550 -1.4626  1.8080
  700MOL0     H92399   4.966   6.883   2.566  1.0222  1.2823 -1.2162
  700MOL0     H92400   4.796   6.748   2.608  1.7186  1.7230  5.1115
  701MOL0     O92401   3.949   9.332   7.960 -0.9406 -0.5029 -0.1995
  701MOL0     C92402   3.998   9.445   7.979 -1.6425 -0.9943 -0.1639
  701MOL0     O92403   3.968   9.527   8.080  0.1762 -0.2378 -0.4829
  701MOL0     C92404   3.852   9.496   8.155  0.2939  0.6820  0.2806
  701MOL0     C92405   3.843   9.510   8.297 -0.9911  0.4232  0.1087
  701MOL0     C92406   3.731   9.485   8.368  0.3493 -0.2874  0.0376
  701MOL0     C92407   3.617   9.432   8.301 -0.1245 -0.5629  0.1834
  701MOL0     O92408   3.494   9.394   8.357  0.5061  0.4620 -0.3008
  701MOL0     C92409   3.458   9.438   8.488 -0.4370 -0.4722  0.6082
  701MOL0     C92410   3.310   9.421   8.501 -0.3625 -0.9379  0.4217
  701MOL0     C92411   3.273   9.445   8.651  0.7478 -0.6452 -0.3469
  701MOL0     C92412   3.130   9.404   8.683 -0.0374 -0.2623  0.3244
  701MOL0     C92413   3.084   9.426   8.826  0.0005  0.2169 -0.5013
  701MOL0     C92414   3.111   9.560   8.901  0.5294  0.5587  0.8468
  701MOL0     C92415   3.028   9.564   9.028 -0.4613 -0.4560 -0.6690
  701MOL0     C92416   3.028   9.702   9.100 -0.2519  0.2301 -0.3544
  701MOL0     N92417   2.934   9.789   9.036 -0.3024 -0.0369  0.0633
  701MOL0     C92418   2.969   9.869   8.934  0.9532 -0.4545  0.7949
  701MOL0     C92419   2.849   9.898   8.874  0.5022  0.0709 -0.3169
  701MOL0     C92420   2.829   9.973   8.749  1.3355  0.3914 -0.1129
  701MOL0     C92421   2.731  10.090   8.774 -0.9227 -0.0719  0.1395
  701MOL0     C92422   2.778  10.208   8.856  0.8340 -0.3921 -0.2944
  701MOL0     C92423   2.675  10.322   8.870  0.2420 -0.1206  0.5117
  701MOL0     O92424   2.646  10.384   8.742  0.0873 -0.1371  0.0265
  701MOL0     C92425   2.537  10.476   8.742 -0.1884  0.2912  0.9345
  701MOL0     C92426   2.509  10.549   8.621 -0.8023  0.0906 -0.6663
  701MOL0     C92427   2.410  10.647   8.614 -0.0654  0.1222 -0.4160
  701MOL0     C92428   2.319  10.662   8.721 -0.3422  0.0792  0.0738
  701MOL0     C92429   2.212  10.756   8.718 -1.1198  0.7219 -0.5245
  701MOL0     O92430   2.131  10.758   8.827 -0.0534 -1.1190 -0.6759
  701MOL0     C92431   2.014  10.832   8.826 -0.2958 -0.1885 -0.4992
  701MOL0     C92432   1.969  10.890   8.942 -0.2320  0.2461  0.6873
  701MOL0     C92433   1.847  10.955   8.947  0.8989  0.5619  0.7782
  701MOL0     C92434   1.762  10.965   8.835 -0.1992 -0.8545  0.3272
  701MOL0     O92435   1.646  11.029   8.847  0.1867 -0.9010  0.3738
  701MOL0     C92436   1.534  11.008   8.761  0.5412 -0.4048  0.4265
  701MOL0     C92437   1.416  11.062   8.839  0.5280 -0.7233 -0.7099
  701MOL0     C92438   1.290  11.070   8.745  0.2501 -0.7045  0.3132
  701MOL0     C92439   1.145  11.092   8.816 -0.3992  1.1371  0.1147
  701MOL0     C92440   1.139  11.247   8.854  0.3053 -0.1921  0.0911
  701MOL0     C92441   1.038  11.271   8.964 -0.3401  1.3788  0.2689
  701MOL0     C92442   1.027  11.416   9.005 -0.0975 -0.3171 -0.5029
  701MOL0     C92443   0.936  11.443   9.128 -0.3441  0.6810 -0.6281
  701MOL0    Cl92444   1.007  11.379   9.292  0.4670  0.2865 -0.1430
  701MOL0     C92445   1.813  10.915   8.719  0.3011 -0.8457  0.5624
  701MOL0     C92446   1.929  10.844   8.715 -0.6566 -0.6785  0.4784
  701MOL0     O92447   2.207  10.818   8.616 -0.1345 -0.0621  0.2235
  701MOL0     C92448   2.345  10.580   8.839  0.3593 -0.2575 -1.1225
  701MOL0     C92449   2.454  10.499   8.850 -0.8756  0.7466  0.7555
  701MOL0     N92450   2.754   9.830   8.946  0.4688  0.5298  0.3905
  701MOL0     N92451   2.807   9.785   9.054 -0.1905  0.9634  0.9364
  701MOL0     C92452   3.620   9.424   8.158 -1.2302  0.7589 -0.1051
  701MOL0     C92453   3.732   9.451   8.090 -0.0112 -0.4896 -0.2158
  701MOL0     C92454   4.096   9.496   7.881 -0.5710 -0.2185  0.1370
  701MOL0     C92455   4.111   9.430   7.757 -0.0227  0.2751 -0.1120
  701MOL0     C92456   4.203   9.468   7.656  0.4505 -0.4827  0.3244
  701MOL0     C92457   4.289   9.576   7.693 -0.9369 -0.3832  0.3940
  701MOL0     O92458   4.390   9.622   7.610 -0.1548 -0.2652  0.1122
  701MOL0     C92459   4.496   9.534   7.577 -0.3100  0.3900 -0.2902
  701MOL0     C92460   4.510   9.530   7.420  0.4391  0.4192  0.4200
  701MOL0     C92461   4.535   9.669   7.363 -0.2278 -0.1958  0.4805
  701MOL0     C92462   4.618   9.670   7.225 -0.5791  0.7181 -0.0975
  701MOL0     C92463   4.541   9.648   7.107 -0.3955  0.1487 -0.3126
  701MOL0     C92464   4.466   9.605   7.022  0.6706 -0.2220  0.2584
  701MOL0     C92465   4.279   9.644   7.814 -0.1359 -0.0098 -0.9385
  701MOL0     C92466   4.175   9.608   7.900 -1.2829  0.4868 -0.6466
  701MOL0     H92467   3.922   9.559   8.354 -1.5426  1.5066 -0.0371
  701MOL0     H92468   3.713   9.499   8.474 -0.8513 -0.6894 -0.0943
  701MOL0     H92469   3.495   9.541   8.498  0.9938 -1.0610  1.8753
  701MOL0     H92470   3.510   9.384   8.569 -0.3993  0.3911  1.1801
  701MOL0     H92471   3.284   9.322   8.461  0.6058 -0.4335 -1.5960
  701MOL0     H92472   3.258   9.485   8.430 -0.6069 -2.3875 -0.7603
  701MOL0     H92473   3.280   9.548   8.688  1.2282 -0.3985 -1.1148
  701MOL0     H92474   3.334   9.382   8.716 -0.7341 -0.4264  1.3479
  701MOL0     H92475   3.063   9.464   8.620 -0.9138  1.9322  3.1172
  701MOL0     H92476   3.112   9.299   8.658 -0.6628  0.0393 -0.5755
  701MOL0     H92477   3.124   9.340   8.882 -0.7481 -0.2938 -0.7308
  701MOL0     H92478   2.975   9.417   8.826  0.0996 -1.6489 -1.8172
  701MOL0     H92479   3.083   9.644   8.838 -1.3882 -3.3649 -4.1985
  701MOL0     H92480   3.217   9.572   8.922  0.9922  0.0564 -1.0702
  701MOL0     H92481   2.925   9.540   8.999 -1.3633  2.3825 -0.1792
  701MOL0     H92482   3.067   9.483   9.090  1.1990 -0.2966 -1.4424
  701MOL0     H92483   3.125   9.749   9.089  0.1978  0.0891  2.2877
  701MOL0     H92484   2.996   9.697   9.205 -1.3820  2.5413 -0.5281
  701MOL0     H92485   3.073   9.884   8.907  1.0864 -0.1775  1.4477
  701MOL0     H92486   2.795   9.913   8.664  1.9517 -1.4346  0.8774
  701MOL0     H92487   2.926   9.998   8.706 -0.1310  0.5644 -3.6533
  701MOL0     H92488   2.635  10.056   8.814 -0.5521 -0.2360  0.8872
  701MOL0     H92489   2.712  10.124   8.671  0.9542 -2.5086 -1.1140
  701MOL0     H92490   2.798  10.163   8.954  0.4360 -0.2535 -0.1459
  701MOL0     H92491   2.872  10.254   8.825  1.7922 -3.3849 -2.2592
  701MOL0     H92492   2.724  10.401   8.927 -1.1165  1.0437  0.1261
  701MOL0     H92493   2.586  10.286   8.922 -0.3479 -0.2586 -0.5561
  701MOL0     H92494   2.580  10.542   8.539  1.4982  0.7895  1.1742
  701MOL0     H92495   2.389  10.716   8.532 -0.7050  1.4689  0.8268
  701MOL0     H92496   2.039  10.877   9.024 -0.1024 -0.6158  0.4515
  701MOL0     H92497   1.805  10.993   9.039  4.7619 -1.6979  3.8003
  701MOL0     H92498   1.529  10.905   8.726  1.4224 -0.2552 -0.1686
  701MOL0     H92499   1.549  11.071   8.673  2.0235 -1.9713 -0.4994
  701MOL0     H92500   1.444  11.163   8.871 -0.0550 -0.3931 -1.2228
  701MOL0     H92501   1.396  10.998   8.925 -0.9518  0.7673  0.0873
  701MOL0     H92502   1.291  10.974   8.692 -1.4851  0.4324 -1.9679
  701MOL0     H92503   1.308  11.150   8.673  1.2193 -2.3897 -1.4336
  701MOL0     H92504   1.072  11.054   8.743 -0.6930  1.0240  0.4612
  701MOL0     H92505   1.139  11.032   8.907 -1.4937 -0.2483 -0.8206
  701MOL0     H92506   1.126  11.310   8.766 -0.0571 -2.5420 -1.6457
  701MOL0     H92507   1.236  11.285   8.887  1.3649 -0.2516 -2.7049
  701MOL0     H92508   1.091  11.216   9.043  1.5115  0.8029 -1.2772
  701MOL0     H92509   0.942  11.225   8.938  0.3902  0.8079 -1.6547
  701MOL0     H92510   1.122  11.468   9.020  0.3491 -1.6532  1.8454
  701MOL0     H92511   0.985  11.456   8.912 -0.2077 -2.3355 -1.3721
  701MOL0     H92512   0.842  11.392   9.104  0.6413 -0.3724 -2.5021
  701MOL0     H92513   0.922  11.551   9.142  1.5098  1.1925 -2.2271
  701MOL0     H92514   1.755  10.912   8.627  1.3954 -0.9913 -0.1386
  701MOL0     H92515   1.949  10.811   8.613  0.0665  0.6501  0.1655
  701MOL0     H92516   2.276  10.578   8.922 -0.2690 -1.2041 -1.6402
  701MOL0     H92517   2.479  10.452   8.944  2.6637  3.5187  1.4160
  701MOL0     H92518   3.528   9.395   8.109 -3.4119  2.9583  2.3262
  701MOL0     H92519   3.726   9.459   7.982 -3.1640  0.4932 -0.0715
  701MOL0     H92520   4.052   9.341   7.740 -0.6719  0.7295 -0.2641
  701MOL0     H92521   4.218   9.424   7.558  4.5458 -1.0941  1.0482
  701MOL0     H92522   4.470   9.440   7.627  1.1362  1.1570  2.1106
  701MOL0     H92523   4.592   9.562   7.621 -2.1391  3.2248  2.3745
  701MOL0     H92524   4.585   9.455   7.390  1.1100  0.9347  0.7981
  701MOL0     H92525   4.410   9.501   7.387  1.1147 -3.1396  1.1171
  701MOL0     H92526   4.604   9.720   7.432  1.3638 -0.2645 -0.9787
  701MOL0     H92527   4.446   9.731   7.348 -0.1815 -0.8476 -3.7575
  701MOL0     H92528   4.664   9.769   7.227  0.8500  0.1038 -0.7640
  701MOL0     H92529   4.699   9.596   7.226 -0.8964  0.3710  1.0944
  701MOL0     H92530   4.400   9.552   6.956  1.5152 -0.5773 -0.3300
  701MOL0     H92531   4.358   9.717   7.832 -0.9685  0.5906  0.4242
  701MOL0     H92532   4.164   9.668   7.990 -0.7515 -0.9066  0.3743
  702MOL0     O92533   8.211   0.617   3.504 -0.5480  0.4287  0.0275
  702MOL0     C92534   8.235   0.692   3.406  0.1315  0.1269 -0.4719
  702MOL0     O92535   8.149   0.717   3.298 -0.1379 -0.3545 -0.2849
  702MOL0     C92536   8.025   0.660   3.311  0.3409 -0.1383 -0.0053
  702MOL0     C92537   8.004   0.525   3.279 -0.3245  0.2262  0.2539
  702MOL0     C92538   7.884   0.472   3.319 -0.0994 -0.0611  1.2002
  702MOL0     C92539   7.772   0.542   3.366 -0.1862  0.3317 -0.3620
  702MOL0     O92540   7.669   0.473   3.424 -0.1395  0.2476  0.8625
  702MOL0     C92541   7.660   0.496   3.561 -0.5072 -0.3821 -0.0166
  702MOL0     C92542   7.589   0.372   3.637  0.1282 -0.4266 -0.6697
  702MOL0     C92543   7.443   0.355   3.603  0.8400  1.3806  0.8222
  702MOL0     C92544   7.351   0.453   3.688  0.2856 -0.8796  0.7297
  702MOL0     C92545   7.218   0.456   3.614 -0.2087 -0.2597 -0.2392
  702MOL0     C92546   7.104   0.547   3.666  0.2075  0.0845  0.3434
  702MOL0     C92547   6.969   0.506   3.600  0.8563 -0.3842  0.3036
  702MOL0     C92548   6.949   0.581   3.473 -0.6163 -0.3370  0.2689
  702MOL0     N92549   6.833   0.536   3.393  0.3850  0.2824  0.1342
  702MOL0     C92550   6.809   0.421   3.328  0.2102 -0.4062 -0.5338
  702MOL0     C92551   6.669   0.414   3.312 -0.2886  0.6623 -0.1475
  702MOL0     C92552   6.583   0.311   3.251 -0.7402  0.3175 -0.6463
  702MOL0     C92553   6.503   0.239   3.363 -0.5259  1.0971  0.1637
  702MOL0     C92554   6.397   0.157   3.303  0.5432  0.9699 -0.0713
  702MOL0     C92555   6.285   0.125   3.401 -0.3721  0.5126 -0.6309
  702MOL0     O92556   6.204   0.028   3.342 -0.9588 -0.3118  0.5038
  702MOL0     C92557   6.081  -0.003   3.394  0.1365 -0.5228 -0.0343
  702MOL0     C92558   6.002  -0.077   3.306 -0.9489  0.6506 -0.7258
  702MOL0     C92559   5.876  -0.121   3.356  0.6562 -1.0007  0.2676
  702MOL0     C92560   5.825  -0.086   3.480 -0.3715 -0.4250 -0.1542
  702MOL0     C92561   5.689  -0.130   3.518  0.7218  0.1611  0.0578
  702MOL0     O92562   5.650  -0.079   3.637  0.3041  0.5474  0.3691
  702MOL0     C92563   5.533  -0.125   3.682 -0.2166  0.0961 -0.0347
  702MOL0     C92564   5.410  -0.085   3.629  0.3713  0.1860  0.5817
  702MOL0     C92565   5.295  -0.145   3.673 -0.0749  0.2771 -0.1016
  702MOL0     C92566   5.298  -0.253   3.767  0.4710 -0.6947  0.0675
  702MOL0     O92567   5.184  -0.301   3.834 -0.0347 -0.5941  0.1172
  702MOL0     C92568   5.061  -0.320   3.759  0.4790 -0.7520  0.4433
  702MOL0     C92569   5.018  -0.461   3.810 -0.8352  0.2314 -0.4800
  702MOL0     C92570   4.893  -0.530   3.748 -0.1469  0.4850 -0.3826
  702MOL0     C92571   4.869  -0.669   3.827  0.4348  0.1126  0.0048
  702MOL0     C92572   4.792  -0.749   3.726 -0.0248  0.0733 -0.6752
  702MOL0     C92573   4.763  -0.890   3.784 -0.3130 -0.6819 -0.3302
  702MOL0     C92574   4.749  -1.007   3.681  0.2396  0.0059 -0.9791
  702MOL0     C92575   4.608  -0.995   3.629  0.1472  0.1929  0.3252
  702MOL0    Cl92576   4.493  -1.046   3.752  0.3947 -0.1128 -0.4577
  702MOL0     C92577   5.427  -0.285   3.821 -0.4211  0.3933 -0.8570
  702MOL0     C92578   5.540  -0.223   3.773  0.2960 -1.2925  0.2890
  702MOL0     O92579   5.618  -0.198   3.442  0.0924 -0.4653  0.0530
  702MOL0     C92580   5.913  -0.020   3.566 -0.1150 -0.8532 -0.5572
  702MOL0     C92581   6.037   0.030   3.524  0.2999 -0.0700  0.9053
  702MOL0     N92582   6.617   0.535   3.355  0.5581  0.1583  0.8058
  702MOL0     N92583   6.708   0.605   3.406  0.6793 -0.6734  0.9523
  702MOL0     C92584   7.790   0.680   3.374 -0.7079 -0.0804 -0.1007
  702MOL0     C92585   7.914   0.742   3.357  0.5151  0.2175  0.5016
  702MOL0     C92586   8.365   0.752   3.389 -0.1400  0.4119  0.2940
  702MOL0     C92587   8.408   0.815   3.276 -0.6338  0.4087  0.5780
  702MOL0     C92588   8.533   0.866   3.255  0.2510  0.2880 -0.5762
  702MOL0     C92589   8.628   0.851   3.364 -0.6226  0.3426 -0.3272
  702MOL0     O92590   8.759   0.899   3.361  0.9196 -0.3722 -0.0429
  702MOL0     C92591   8.790   0.968   3.245 -1.5390 -0.2048 -0.2528
  702MOL0     C92592   8.937   1.015   3.264  0.3850  0.0686 -0.7693
  702MOL0     C92593   8.981   1.099   3.146  0.4714 -0.2560 -0.2378
  702MOL0     C92594   9.117   1.154   3.172 -0.1247  0.3883 -1.6601
  702MOL0     C92595   9.174   1.206   3.046 -1.1859  0.6659 -0.8061
  702MOL0     C92596   9.228   1.241   2.942 -0.5124 -0.6767 -0.5777
  702MOL0     C92597   8.587   0.788   3.483 -0.3170 -0.8819 -1.0926
  702MOL0     C92598   8.458   0.742   3.494  0.2440  0.5886 -1.2888
  702MOL0     H92599   8.087   0.467   3.241  0.0594  0.5388  0.6025
  702MOL0     H92600   7.872   0.364   3.323  0.4238 -0.0795  2.7710
  702MOL0     H92601   7.595   0.579   3.588 -2.2522 -1.7334  0.1787
  702MOL0     H92602   7.759   0.504   3.606  1.3033  1.1052 -3.8363
  702MOL0     H92603   7.613   0.396   3.741  1.2415 -2.0316 -0.5142
  702MOL0     H92604   7.642   0.279   3.611 -0.8457 -1.0032 -0.6422
  702MOL0     H92605   7.415   0.254   3.635  1.4385  0.2535 -1.9350
  702MOL0     H92606   7.434   0.372   3.495  3.3770  4.1824  0.9291
  702MOL0     H92607   7.339   0.415   3.790  0.6780 -0.1349  1.0551
  702MOL0     H92608   7.397   0.552   3.684  0.0956 -0.8052  0.3463
  702MOL0     H92609   7.178   0.355   3.611 -0.5514 -0.2576  2.4862
  702MOL0     H92610   7.239   0.488   3.511 -0.9954  0.2421 -0.2551
  702MOL0     H92611   7.131   0.652   3.651  1.0274 -0.2878 -0.8874
  702MOL0     H92612   7.080   0.528   3.771 -0.1935 -1.3628  0.0119
  702MOL0     H92613   6.963   0.398   3.584 -1.0873 -0.1706 -0.7274
  702MOL0     H92614   6.888   0.526   3.671  0.4844 -1.4801  0.1966
  702MOL0     H92615   7.036   0.565   3.408 -2.0594 -0.2829 -1.8110
  702MOL0     H92616   6.934   0.687   3.494  3.0622  0.9503 -2.5062
  702MOL0     H92617   6.872   0.335   3.310  0.0395 -1.0117  1.4937
  702MOL0     H92618   6.636   0.233   3.195 -3.5415 -2.7904  0.7199
  702MOL0     H92619   6.508   0.361   3.190 -1.0894 -0.4863 -0.8985
  702MOL0     H92620   6.445   0.314   3.416 -2.7816  1.0490 -2.0585
  702MOL0     H92621   6.553   0.176   3.438 -4.4966 -0.5595  1.7068
  702MOL0     H92622   6.360   0.199   3.209 -0.6801 -1.9961 -1.0312
  702MOL0     H92623   6.442   0.062   3.271 -2.2350 -1.2947  2.1258
  702MOL0     H92624   6.232   0.216   3.429  1.5025  0.3326  4.7017
  702MOL0     H92625   6.343   0.100   3.491  0.2311  1.7387 -0.6710
  702MOL0     H92626   6.045  -0.124   3.219  2.2704 -1.4575  1.7652
  702MOL0     H92627   5.824  -0.186   3.287  0.7511  2.8800 -3.9597
  702MOL0     H92628   5.397  -0.014   3.548 -1.8955 -0.8655 -0.0682
  702MOL0     H92629   5.201  -0.114   3.628  0.4008 -0.8213 -1.9778
  702MOL0     H92630   5.062  -0.319   3.649 -1.9769 -0.5605  0.3789
  702MOL0     H92631   4.993  -0.242   3.793 -0.6939 -2.5001  2.3148
  702MOL0     H92632   5.014  -0.448   3.919  1.0066  1.0662 -0.4720
  702MOL0     H92633   5.103  -0.528   3.792  0.7213  0.7933  3.6147
  702MOL0     H92634   4.919  -0.552   3.644 -1.9447 -0.4209 -0.6800
  702MOL0     H92635   4.807  -0.464   3.757 -1.0956 -0.8934  1.1956
  702MOL0     H92636   4.961  -0.720   3.856 -0.7782 -3.8650 -2.2613
  702MOL0     H92637   4.817  -0.647   3.920 -1.4176  0.1287 -0.9655
  702MOL0     H92638   4.838  -0.757   3.627 -2.6438  0.2471 -2.0015
  702MOL0     H92639   4.696  -0.697   3.712  0.1922  0.3373 -1.2465
  702MOL0     H92640   4.679  -0.889   3.853  0.3312 -0.2973  0.4701
  702MOL0     H92641   4.845  -0.916   3.851 -2.1992  2.4983  3.6692
  702MOL0     H92642   4.807  -0.985   3.591 -0.0153  1.8246 -0.7363
  702MOL0     H92643   4.772  -1.106   3.722  2.3484  1.5679  1.9649
  702MOL0     H92644   4.593  -1.060   3.542 -1.4533 -0.5194  1.0935
  702MOL0     H92645   4.573  -0.895   3.604 -0.8069 -0.1738  0.1232
  702MOL0     H92646   5.433  -0.361   3.899  0.1335  1.6009  0.3293
  702MOL0     H92647   5.630  -0.257   3.823  0.1730 -1.4618  0.3961
  702MOL0     H92648   5.899   0.011   3.669 -0.2071 -0.9902 -0.5279
  702MOL0     H92649   6.097   0.076   3.601  0.8486 -0.9594  1.0187
  702MOL0     H92650   7.711   0.743   3.414  0.0052  1.4765 -1.0414
  702MOL0     H92651   7.925   0.848   3.377 -1.5388  0.1553  2.2848
  702MOL0     H92652   8.336   0.837   3.197 -0.3328  2.5205  0.8403
  702MOL0     H92653   8.562   0.913   3.162 -0.7745  0.2252 -0.9371
  702MOL0     H92654   8.727   1.055   3.224 -0.2509  0.9325  0.4265
  702MOL0     H92655   8.784   0.894   3.164 -1.1972  0.3528 -0.7935
  702MOL0     H92656   8.937   1.082   3.350 -0.7065 -0.8162 -0.0501
  702MOL0     H92657   8.999   0.928   3.291  0.8619  0.9278  1.1091
  702MOL0     H92658   8.906   1.177   3.129  0.6834  0.1570  0.6625
  702MOL0     H92659   8.983   1.036   3.057 -1.5008  2.3893 -2.3221
  702MOL0     H92660   9.107   1.225   3.254  0.4499 -1.8845  0.4842
  702MOL0     H92661   9.181   1.080   3.222 -2.3517  0.2034  1.1615
  702MOL0     H92662   9.273   1.268   2.849 -3.1223 -2.4584 -2.5037
  702MOL0     H92663   8.665   0.777   3.558 -0.3358 -1.7079 -1.1782
  702MOL0     H92664   8.426   0.703   3.591  1.5488  1.1355 -0.6216
  703MOL0     O92665  10.469   6.762   6.498 -0.5651 -0.4460 -0.2398
  703MOL0     C92666  10.404   6.665   6.535  0.4558  0.1749  0.2260
  703MOL0     O92667  10.369   6.625   6.660  0.1033 -0.2950 -0.1210
  703MOL0     C92668  10.419   6.693   6.775  0.0814  0.0967 -1.3137
  703MOL0     C92669  10.374   6.823   6.806 -0.5000  1.0461 -0.0690
  703MOL0     C92670  10.426   6.884   6.918 -0.8534  0.0058 -0.4881
  703MOL0     C92671  10.533   6.826   6.993 -0.0155 -0.1872  0.2456
  703MOL0     O92672  10.606   6.909   7.075  0.3698 -0.0742  0.2662
  703MOL0     C92673  10.591   6.865   7.217 -0.2815 -0.3698  0.0784
  703MOL0     C92674  10.593   6.998   7.303  0.2827 -0.0867 -0.1251
  703MOL0     C92675  10.590   6.982   7.453  0.0521  0.1204 -0.6153
  703MOL0     C92676  10.648   7.097   7.518 -0.9264  0.5239  0.1531
  703MOL0     C92677  10.618   7.100   7.669  0.3709 -0.5916 -0.8634
  703MOL0     C92678  10.715   7.185   7.755  0.5805 -0.6315 -0.2246
  703MOL0     C92679  10.853   7.121   7.759 -0.4131  0.0846 -0.2403
  703MOL0     C92680  10.939   7.170   7.879 -0.8793  0.3988 -0.4879
  703MOL0     N92681  11.081   7.127   7.863  0.3653 -0.6892  0.0863
  703MOL0     C92682  11.119   6.995   7.880 -0.1071  0.0007  0.7822
  703MOL0     C92683  11.241   7.001   7.818  0.1447 -0.9674  0.4231
  703MOL0     C92684  11.324   6.880   7.799 -0.1914  0.6188  0.3086
  703MOL0     C92685  11.481   6.901   7.793 -0.5153 -0.0883 -0.4000
  703MOL0     C92686  11.552   6.905   7.938 -0.1854  0.6123 -0.6629
  703MOL0     C92687  11.623   6.772   7.978 -0.2955 -0.1533  0.1232
  703MOL0     O92688  11.523   6.672   7.973  0.7771  0.0910 -0.1777
  703MOL0     C92689  11.516   6.557   8.049  0.8162  0.0503 -1.0445
  703MOL0     C92690  11.634   6.499   8.109  0.6875 -0.0540  0.7181
  703MOL0     C92691  11.626   6.372   8.168 -0.0732  0.6456  0.1614
  703MOL0     C92692  11.503   6.303   8.166  0.4454  0.0187  0.1601
  703MOL0     C92693  11.491   6.166   8.213 -0.2916  0.1776  0.2157
  703MOL0     O92694  11.360   6.106   8.201 -0.1950 -0.6189 -0.3476
  703MOL0     C92695  11.356   5.985   8.250 -0.0989  1.2524 -0.9739
  703MOL0     C92696  11.425   5.872   8.193  0.3474 -0.5664  0.1480
  703MOL0     C92697  11.405   5.738   8.239  0.2740 -0.2717  0.0226
  703MOL0     C92698  11.335   5.715   8.357  0.0020  0.2096 -0.3208
  703MOL0     O92699  11.327   5.592   8.418 -0.6208 -0.3066 -0.0254
  703MOL0     C92700  11.395   5.483   8.357 -1.1746  0.2159 -0.7498
  703MOL0     C92701  11.395   5.349   8.447  0.5382 -0.7685  0.4091
  703MOL0     C92702  11.471   5.227   8.390 -0.5962 -0.2929 -0.1379
  703MOL0     C92703  11.384   5.177   8.268 -0.3020  0.1811 -0.1640
  703MOL0     C92704  11.417   5.029   8.235  0.8790 -0.0449  0.4133
  703MOL0     C92705  11.332   4.979   8.119  0.3486 -0.3655 -0.3975
  703MOL0     C92706  11.188   5.027   8.117  0.1398 -0.0513  0.8024
  703MOL0     C92707  11.109   4.928   8.037  0.1540 -0.1895  0.5953
  703MOL0    Cl92708  11.078   4.798   8.148  0.0209  0.2656 -0.5988
  703MOL0     C92709  11.279   5.831   8.421  0.8658 -1.0725  0.9927
  703MOL0     C92710  11.281   5.961   8.361  1.1297  0.5828 -0.2919
  703MOL0     O92711  11.592   6.112   8.267  0.5524  0.0376 -0.2869
  703MOL0     C92712  11.385   6.355   8.105 -1.0054 -0.2667 -0.1703
  703MOL0     C92713  11.395   6.490   8.061 -0.0843 -0.8148  0.2014
  703MOL0     N92714  11.254   7.122   7.748  0.7189  0.3775 -0.0634
  703MOL0     N92715  11.162   7.203   7.783 -0.0870  0.9566  0.1532
  703MOL0     C92716  10.574   6.700   6.967  0.2190  0.4160  0.3059
  703MOL0     C92717  10.516   6.635   6.857 -0.2530 -0.1532 -0.0574
  703MOL0     C92718  10.378   6.552   6.437  0.6536  0.9932 -0.2369
  703MOL0     C92719  10.303   6.437   6.463  0.4227 -0.1737  0.1165
  703MOL0     C92720  10.301   6.333   6.371  0.3837  0.6126  0.3538
  703MOL0     C92721  10.364   6.335   6.250  0.6481 -0.3975  0.8264
  703MOL0     O92722  10.381   6.230   6.155  0.1442 -0.5634 -0.3482
  703MOL0     C92723  10.301   6.112   6.171 -0.0036 -0.2240  0.5406
  703MOL0     C92724  10.152   6.141   6.141  0.4784  0.6428  0.0526
  703MOL0     C92725  10.123   6.225   6.009 -1.1531  0.0324  0.1379
  703MOL0     C92726   9.990   6.291   6.010  0.3464 -0.8729  1.1054
  703MOL0     C92727   9.976   6.380   5.894  0.1425 -0.1041 -0.1572
  703MOL0     C92728   9.957   6.461   5.797 -0.1234  1.0433 -0.3023
  703MOL0     C92729  10.425   6.453   6.217 -0.1943  0.6519  1.1514
  703MOL0     C92730  10.430   6.559   6.304  0.2310 -1.1975 -0.5882
  703MOL0     H92731  10.303   6.865   6.735 -0.7640 -0.0249 -0.4611
  703MOL0     H92732  10.393   6.986   6.938 -2.0225  0.7399 -5.0787
  703MOL0     H92733  10.680   6.809   7.246  0.6938  2.3328  2.9450
  703MOL0     H92734  10.495   6.814   7.231 -0.1938 -0.4679  0.3158
  703MOL0     H92735  10.508   7.063   7.277 -0.5385  0.0773  2.6513
  703MOL0     H92736  10.684   7.054   7.282  1.4887 -1.6045  0.8936
  703MOL0     H92737  10.637   6.885   7.471  0.7101  0.2006 -1.7995
  703MOL0     H92738  10.485   6.973   7.481  0.4559  1.8848  1.7506
  703MOL0     H92739  10.754   7.084   7.492 -0.9959 -1.6333  0.7619
  703MOL0     H92740  10.621   7.190   7.467  0.2632  0.2804 -0.9607
  703MOL0     H92741  10.621   7.000   7.714  1.6501 -1.2424 -2.3184
  703MOL0     H92742  10.517   7.133   7.698  1.6323  0.6723  2.6636
  703MOL0     H92743  10.675   7.201   7.856  1.5913 -3.0540  0.6263
  703MOL0     H92744  10.732   7.283   7.710 -2.2594  0.7927  1.4727
  703MOL0     H92745  10.845   7.012   7.771 -2.2265  0.1199 -0.8232
  703MOL0     H92746  10.914   7.130   7.668 -0.5130 -0.0541 -0.3238
  703MOL0     H92747  10.896   7.149   7.977  0.3407 -0.0338 -0.0255
  703MOL0     H92748  10.939   7.280   7.875  0.5680  0.4225 -0.6351
  703MOL0     H92749  11.073   6.912   7.933 -1.7643  0.9740  0.9412
  703MOL0     H92750  11.302   6.837   7.700  2.3522  1.8028 -0.8755
  703MOL0     H92751  11.303   6.805   7.876  3.8535 -1.1208 -0.0532
  703MOL0     H92752  11.509   6.992   7.739  3.4085 -2.5578 -2.9919
  703MOL0     H92753  11.522   6.816   7.738 -2.6205 -2.9891  2.1839
  703MOL0     H92754  11.628   6.983   7.952 -0.7200  1.1344 -0.6150
  703MOL0     H92755  11.470   6.915   8.010  0.3004 -1.2824  0.2099
  703MOL0     H92756  11.664   6.768   8.079  0.8992 -0.6462 -0.3496
  703MOL0     H92757  11.703   6.755   7.905 -0.4304  3.5583 -1.0868
  703MOL0     H92758  11.722   6.563   8.103  0.3959  0.2317 -3.3259
  703MOL0     H92759  11.718   6.327   8.202  2.4092  2.6773 -3.2122
  703MOL0     H92760  11.485   5.894   8.106 -0.1524  2.1475  0.3969
  703MOL0     H92761  11.451   5.652   8.190  1.7307  0.0684  0.7409
  703MOL0     H92762  11.499   5.515   8.345 -0.8987 -0.6393 -0.7461
  703MOL0     H92763  11.349   5.476   8.258 -0.9031 -1.4765 -0.7807
  703MOL0     H92764  11.288   5.325   8.455  1.0318 -3.6088 -0.4295
  703MOL0     H92765  11.430   5.384   8.544 -2.4204  1.8901  0.6925
  703MOL0     H92766  11.483   5.151   8.468 -0.8890 -0.1934  0.0071
  703MOL0     H92767  11.571   5.254   8.355 -0.8809  0.9530 -0.0424
  703MOL0     H92768  11.281   5.175   8.304 -0.8643  1.2292 -1.5959
  703MOL0     H92769  11.395   5.247   8.184 -0.6010  2.8547  1.8897
  703MOL0     H92770  11.393   4.960   8.315  1.5216  1.6545  2.1503
  703MOL0     H92771  11.525   5.021   8.219  0.8577  0.4781 -0.0246
  703MOL0     H92772  11.338   4.872   8.141 -2.2479  0.0971  3.2820
  703MOL0     H92773  11.373   5.014   8.023 -2.5205 -1.5694 -2.1752
  703MOL0     H92774  11.147   5.027   8.218  1.2258 -0.0954  1.2596
  703MOL0     H92775  11.193   5.127   8.073  0.8806 -0.0235  0.9302
  703MOL0     H92776  11.165   4.907   7.945  3.0992  2.5251  1.6049
  703MOL0     H92777  11.021   4.978   7.995 -0.5753 -2.2332 -0.4501
  703MOL0     H92778  11.217   5.813   8.508  2.0609  0.5884  2.2489
  703MOL0     H92779  11.226   6.048   8.394  1.8108  0.8380  0.1798
  703MOL0     H92780  11.294   6.302   8.079  0.5827 -2.3598 -1.8328
  703MOL0     H92781  11.304   6.539   8.028  0.5305  0.6436  0.6096
  703MOL0     H92782  10.640   6.651   7.037 -1.2991  1.2607  2.4547
  703MOL0     H92783  10.541   6.531   6.840 -1.4912 -1.1820  3.6222
  703MOL0     H92784  10.257   6.428   6.561 -0.0162  0.7810  0.0134
  703MOL0     H92785  10.249   6.242   6.398  1.7817 -0.9739 -1.9320
  703MOL0     H92786  10.309   6.075   6.274 -0.2921  0.7741  0.9411
  703MOL0     H92787  10.336   6.034   6.103 -1.5275  0.7244 -1.4197
  703MOL0     H92788  10.109   6.042   6.121  1.7871 -0.0355  0.5115
  703MOL0     H92789  10.097   6.174   6.229  0.3020 -1.5972  0.8412
  703MOL0     H92790  10.136   6.152   5.929 -1.7344 -0.8565  0.8384
  703MOL0     H92791  10.201   6.299   5.993 -0.6910 -0.1308  1.4599
  703MOL0     H92792   9.904   6.223   6.003  0.4128 -0.8097 -0.5054
  703MOL0     H92793   9.959   6.348   6.098 -0.5280 -1.1639  0.9970
  703MOL0     H92794   9.943   6.533   5.719  2.4754  1.7929 -0.1886
  703MOL0     H92795  10.467   6.455   6.117  0.6368  0.9080  1.5013
  703MOL0     H92796  10.472   6.656   6.280 -1.1903  0.3849  2.6960
  704MOL0     O92797   3.074   0.985   7.083 -0.9210 -0.1462  0.3051
  704MOL0     C92798   2.956   0.977   7.096 -0.8063 -0.2329 -0.0552
  704MOL0     O92799   2.877   1.085   7.127 -0.4829 -0.0557  0.1518
  704MOL0     C92800   2.943   1.204   7.162 -0.0514  0.7236 -0.4108
  704MOL0     C92801   3.004   1.226   7.287 -0.1038 -0.2596 -0.5168
  704MOL0     C92802   3.059   1.348   7.316 -0.8696  0.7947  0.6723
  704MOL0     C92803   3.051   1.463   7.233 -0.3012  0.5488 -1.1503
  704MOL0     O92804   3.105   1.583   7.273 -0.0206  0.4083 -0.3047
  704MOL0     C92805   3.029   1.703   7.241  0.6360 -0.1639  0.2257
  704MOL0     C92806   2.876   1.712   7.264 -0.4550 -0.0732 -0.0481
  704MOL0     C92807   2.809   1.833   7.204 -0.7144  0.4811  1.1394
  704MOL0     C92808   2.872   1.967   7.265  0.4813  0.4160 -0.0998
  704MOL0     C92809   2.815   2.090   7.192  0.1049  0.2382  0.4488
  704MOL0     C92810   2.665   2.080   7.173 -0.1803 -0.1554 -0.1658
  704MOL0     C92811   2.601   2.215   7.143 -0.0038  0.8873 -1.0716
  704MOL0     C92812   2.642   2.282   7.011 -0.7122 -0.1433  1.0676
  704MOL0     N92813   2.567   2.404   6.989  0.1436 -0.3273 -0.3654
  704MOL0     C92814   2.605   2.521   7.050 -0.7439  0.4945  0.2152
  704MOL0     C92815   2.539   2.620   6.999 -0.9305  0.7014 -0.5903
  704MOL0     C92816   2.555   2.764   7.019  0.7133  0.4863 -0.2580
  704MOL0     C92817   2.521   2.798   7.164  0.3667  0.5761  0.4435
  704MOL0     C92818   2.648   2.810   7.260  0.9508 -0.3068  0.9755
  704MOL0     C92819   2.736   2.927   7.223  0.2071 -0.6685 -0.3534
  704MOL0     O92820   2.826   2.960   7.326 -0.0359 -0.4674  0.1810
  704MOL0     C92821   2.918   3.065   7.304  0.3540 -0.4864  0.6764
  704MOL0     C92822   3.023   3.087   7.386  0.6133  0.1035 -0.6550
  704MOL0     C92823   3.119   3.185   7.369 -0.4402  0.5428 -0.2528
  704MOL0     C92824   3.095   3.276   7.270  0.5527 -0.6178 -0.8003
  704MOL0     C92825   3.181   3.399   7.255  0.2007 -0.4550  0.8004
  704MOL0     O92826   3.226   3.446   7.365  0.2344 -0.2519 -0.1890
  704MOL0     C92827   3.312   3.554   7.370 -0.0668 -0.7052  0.2156
  704MOL0     C92828   3.316   3.624   7.488 -0.0571  0.1107  0.2807
  704MOL0     C92829   3.411   3.722   7.521 -0.9523 -0.4198 -0.0069
  704MOL0     C92830   3.515   3.757   7.433  0.9895  0.3361  0.0828
  704MOL0     O92831   3.607   3.857   7.453  0.0126  0.1811  0.2939
  704MOL0     C92832   3.657   3.848   7.589 -0.4466  0.0902 -0.3029
  704MOL0     C92833   3.794   3.926   7.587 -0.1187  1.1336  0.0357
  704MOL0     C92834   3.901   3.867   7.504 -0.5921  0.4912 -0.3893
  704MOL0     C92835   4.030   3.948   7.499 -0.5682  0.4259 -1.0488
  704MOL0     C92836   4.116   3.945   7.626 -0.6193 -0.6356 -0.2910
  704MOL0     C92837   4.190   3.810   7.654  0.5099 -0.3218 -0.1423
  704MOL0     C92838   4.292   3.776   7.545 -0.1358 -0.8680 -0.0073
  704MOL0     C92839   4.418   3.856   7.555 -0.1882  0.8671  0.2522
  704MOL0    Cl92840   4.544   3.786   7.450 -0.1797  0.0359  0.0228
  704MOL0     C92841   3.517   3.685   7.311  0.0173  0.1629  0.4169
  704MOL0     C92842   3.420   3.587   7.283 -0.2213  0.2333  0.2702
  704MOL0     O92843   3.202   3.454   7.147 -0.0222  0.6635 -0.4382
  704MOL0     C92844   2.995   3.254   7.178  0.4654  0.5009  0.2699
  704MOL0     C92845   2.912   3.153   7.188 -0.0938 -0.4851 -0.5891
  704MOL0     N92846   2.467   2.572   6.892 -0.3372 -1.0589 -0.4561
  704MOL0     N92847   2.490   2.439   6.880 -0.5532 -0.3155  0.4075
  704MOL0     C92848   2.996   1.437   7.102 -1.0002  0.7362 -0.3744
  704MOL0     C92849   2.949   1.307   7.069 -0.5157  0.2800  0.2846
  704MOL0     C92850   2.890   0.843   7.093 -0.4368  0.8438 -0.0045
  704MOL0     C92851   2.959   0.729   7.051 -0.0178  0.4578  0.8642
  704MOL0     C92852   2.896   0.605   7.058 -0.0871 -0.6575  0.4499
  704MOL0     C92853   2.767   0.578   7.101  0.6060 -0.4958 -0.1682
  704MOL0     O92854   2.717   0.452   7.079  0.8581 -0.5705 -0.1866
  704MOL0     C92855   2.574   0.434   7.103 -0.0955 -0.3293  0.5391
  704MOL0     C92856   2.520   0.302   7.067 -0.0041 -0.0462  1.1394
  704MOL0     C92857   2.384   0.288   7.131 -0.1710  0.8845 -1.2507
  704MOL0     C92858   2.318   0.154   7.092 -0.2102  0.4750 -0.7080
  704MOL0     C92859   2.184   0.131   7.156 -0.3723  0.4274  0.4044
  704MOL0     C92860   2.076   0.123   7.205  0.1228  1.7908  0.7251
  704MOL0     C92861   2.691   0.694   7.143 -0.2714 -0.1248 -0.1468
  704MOL0     C92862   2.757   0.823   7.143 -0.2113 -0.4493 -0.3150
  704MOL0     H92863   3.027   1.147   7.358 -1.5082 -0.2968 -0.0817
  704MOL0     H92864   3.100   1.367   7.415  3.0339  0.0566 -0.6157
  704MOL0     H92865   3.056   1.732   7.139 -1.1535  3.2883  0.5650
  704MOL0     H92866   3.072   1.788   7.296  1.3284  1.7158 -2.9652
  704MOL0     H92867   2.866   1.717   7.372  2.5884  1.2403  0.2573
  704MOL0     H92868   2.824   1.627   7.218 -1.5542  0.3376  0.3827
  704MOL0     H92869   2.703   1.829   7.230 -1.1665  0.1041 -0.6636
  704MOL0     H92870   2.812   1.833   7.095 -1.1164 -1.3266  1.1112
  704MOL0     H92871   2.854   1.973   7.372 -1.9903 -1.4325 -0.3312
  704MOL0     H92872   2.981   1.968   7.258  0.5038 -0.7875 -0.1777
  704MOL0     H92873   2.851   2.104   7.089 -2.0421 -1.3983 -0.6314
  704MOL0     H92874   2.843   2.182   7.243 -0.5756  1.1993 -0.8416
  704MOL0     H92875   2.626   2.034   7.265 -1.9797  0.9895 -0.3018
  704MOL0     H92876   2.646   2.005   7.096  2.5552  0.0126 -1.1218
  704MOL0     H92877   2.495   2.191   7.130 -0.1577 -1.4523  2.7814
  704MOL0     H92878   2.616   2.280   7.230  1.7132 -1.1841  0.2871
  704MOL0     H92879   2.627   2.215   6.926  5.5527  1.3842 -1.8677
  704MOL0     H92880   2.750   2.298   6.997 -0.5649 -2.5793 -1.5221
  704MOL0     H92881   2.690   2.544   7.113  0.3569  3.0074 -2.0328
  704MOL0     H92882   2.488   2.823   6.955  0.7843 -0.3120 -1.0892
  704MOL0     H92883   2.659   2.788   6.994  0.0386  1.6359 -2.2040
  704MOL0     H92884   2.457   2.723   7.210  0.8345  1.6763  3.0439
  704MOL0     H92885   2.456   2.886   7.167 -1.4976 -0.6763 -0.7190
  704MOL0     H92886   2.611   2.813   7.363 -1.3774  2.1479  0.2115
  704MOL0     H92887   2.705   2.717   7.254  2.7678  0.7802  0.5730
  704MOL0     H92888   2.683   3.022   7.211  2.5726  0.8635  0.5873
  704MOL0     H92889   2.803   2.916   7.137  2.4257  1.2537  1.0012
  704MOL0     H92890   3.023   3.026   7.477 -0.9557  2.6762  1.1950
  704MOL0     H92891   3.197   3.177   7.444  0.0789  0.3309 -0.8040
  704MOL0     H92892   3.239   3.608   7.563 -0.0670  1.8149  0.6913
  704MOL0     H92893   3.398   3.788   7.606  0.5200  2.1943 -1.6726
  704MOL0     H92894   3.665   3.748   7.631  0.6118  0.8052  1.2825
  704MOL0     H92895   3.594   3.898   7.663  0.6273 -1.4769  1.7516
  704MOL0     H92896   3.832   3.911   7.688 -1.0866 -2.3299  0.0289
  704MOL0     H92897   3.780   4.029   7.553  1.5678  0.1476 -4.4080
  704MOL0     H92898   3.868   3.852   7.401 -1.0220 -4.8971  0.2044
  704MOL0     H92899   3.925   3.764   7.535  4.9128  0.7830 -2.6952
  704MOL0     H92900   4.087   3.913   7.413  2.8502  4.8574 -0.8955
  704MOL0     H92901   4.004   4.052   7.479  0.7156  0.8320 -0.6575
  704MOL0     H92902   4.055   3.963   7.714  1.0575  3.0475  0.3033
  704MOL0     H92903   4.189   4.026   7.612 -0.7172 -0.8784 -2.7947
  704MOL0     H92904   4.121   3.725   7.657  1.6777 -1.2670  1.6162
  704MOL0     H92905   4.241   3.822   7.750  0.5432 -2.6489  0.2041
  704MOL0     H92906   4.332   3.676   7.563  0.5168 -0.3934  1.3300
  704MOL0     H92907   4.242   3.778   7.448 -1.6607  0.5621  0.7391
  704MOL0     H92908   4.456   3.859   7.658 -2.1763 -4.2635  1.4319
  704MOL0     H92909   4.409   3.961   7.526  3.5947  1.3288  0.1907
  704MOL0     H92910   3.601   3.704   7.246  1.1748 -1.7060  1.2737
  704MOL0     H92911   3.428   3.536   7.188  2.7651  3.6187 -1.5582
  704MOL0     H92912   2.987   3.319   7.092  2.1546 -0.2701 -0.5293
  704MOL0     H92913   2.837   3.147   7.109 -1.8159 -0.5461  0.9813
  704MOL0     H92914   3.000   1.513   7.024  1.5732  0.0343 -1.0337
  704MOL0     H92915   2.901   1.281   6.975  0.8878 -0.8023 -0.1475
  704MOL0     H92916   3.061   0.734   7.013 -0.2821  3.8485  0.2810
  704MOL0     H92917   2.950   0.512   7.043 -1.9385 -1.6865 -0.1829
  704MOL0     H92918   2.512   0.500   7.041 -3.0611 -1.2583  2.3159
  704MOL0     H92919   2.558   0.445   7.210  0.7945 -1.1891  0.7739
  704MOL0     H92920   2.511   0.290   6.958  0.7335 -0.7978  1.1577
  704MOL0     H92921   2.594   0.236   7.112  1.4837  0.8585  0.1275
  704MOL0     H92922   2.325   0.377   7.106  3.0572  3.6823  0.1828
  704MOL0     H92923   2.395   0.277   7.239 -0.9852  3.0449 -0.8858
  704MOL0     H92924   2.308   0.139   6.984  0.8757  0.8791 -0.8794
  704MOL0     H92925   2.385   0.079   7.134 -2.9012 -1.5918  0.1778
  704MOL0     H92926   1.974   0.118   7.237 -0.1517  4.1146  0.3803
  704MOL0     H92927   2.588   0.675   7.170 -0.0045 -1.2150  0.1630
  704MOL0     H92928   2.702   0.912   7.174 -0.8173  1.0877 -4.9815
  705MOL0     O92929   2.792   9.469   5.220 -0.1040  0.4203  0.1078
  705MOL0     C92930   2.829   9.586   5.216  0.4874 -0.7990 -0.0198
  705MOL0     O92931   2.764   9.691   5.280 -0.1982  0.5977  0.2513
  705MOL0     C92932   2.632   9.684   5.308  0.9375 -0.1187 -1.6999
  705MOL0     C92933   2.541   9.695   5.208  0.5561  0.0175  0.6684
  705MOL0     C92934   2.406   9.713   5.239  0.1983  0.4084 -0.0202
  705MOL0     C92935   2.354   9.706   5.373 -0.2293 -0.2249  0.1524
  705MOL0     O92936   2.221   9.728   5.393 -0.4678 -0.7265  0.3003
  705MOL0     C92937   2.125   9.724   5.284  0.2762  0.5120  0.2640
  705MOL0     C92938   2.083   9.863   5.234 -0.4815 -0.0002 -0.8019
  705MOL0     C92939   2.018   9.867   5.096 -0.5347 -0.1089  0.8501
  705MOL0     C92940   1.947  10.000   5.081 -0.5533  0.1711  0.7744
  705MOL0     C92941   2.034  10.100   4.993 -0.2426  0.0858  0.3480
  705MOL0     C92942   1.948  10.221   4.949 -0.2925  0.3314  0.4055
  705MOL0     C92943   1.897  10.316   5.063  0.0108  0.5466  0.1527
  705MOL0     C92944   2.005  10.424   5.117  0.4231 -0.0028 -0.5847
  705MOL0     N92945   1.961  10.497   5.230  0.0166  0.0982  0.1789
  705MOL0     C92946   2.012  10.618   5.270 -0.0465  0.5800  0.0514
  705MOL0     C92947   1.944  10.664   5.385 -0.2312 -1.3293  0.3534
  705MOL0     C92948   1.980  10.788   5.466  0.2048 -0.1302  0.5895
  705MOL0     C92949   1.879  10.900   5.430  0.5217  0.1410  0.6149
  705MOL0     C92950   1.738  10.872   5.475  0.2435  0.3466  0.0668
  705MOL0     C92951   1.647  10.990   5.457  0.2535  0.4643  0.5257
  705MOL0     O92952   1.675  11.094   5.558 -0.0062 -0.0358  0.2270
  705MOL0     C92953   1.589  11.117   5.667  0.3964  1.0410 -0.2724
  705MOL0     C92954   1.582  11.239   5.720  0.1886 -0.2416  0.8758
  705MOL0     C92955   1.489  11.270   5.822  0.2377 -0.1889 -0.4704
  705MOL0     C92956   1.399  11.167   5.870  1.3503  0.8440  0.3028
  705MOL0     C92957   1.295  11.204   5.966  0.0834  0.1618 -0.5023
  705MOL0     O92958   1.220  11.100   6.010  0.1406  0.0169  0.2031
  705MOL0     C92959   1.143  11.121   6.125 -0.3416 -0.3958 -0.1758
  705MOL0     C92960   1.207  11.173   6.241 -0.5096 -0.2197  1.1440
  705MOL0     C92961   1.126  11.196   6.351 -0.6532 -0.4981 -0.1264
  705MOL0     C92962   0.989  11.182   6.361  0.3747 -0.2363  1.0399
  705MOL0     O92963   0.899  11.216   6.469 -0.6761  0.6469 -0.5054
  705MOL0     C92964   0.964  11.245   6.599 -0.7555 -0.8069  0.0196
  705MOL0     C92965   0.864  11.274   6.704 -0.2657 -0.9260  0.2654
  705MOL0     C92966   0.786  11.410   6.682  0.4245  0.1277  0.5140
  705MOL0     C92967   0.848  11.556   6.714 -0.0132 -0.1848 -0.6416
  705MOL0     C92968   0.755  11.681   6.721 -0.4954 -1.0784 -0.4470
  705MOL0     C92969   0.634  11.689   6.610 -0.7029 -1.0673 -0.8285
  705MOL0     C92970   0.602  11.841   6.598 -0.4857 -0.1747 -0.1093
  705MOL0     C92971   0.608  11.904   6.453  1.0399 -0.2111 -0.2948
  705MOL0    Cl92972   0.501  11.813   6.341 -0.1033 -0.1501  0.2918
  705MOL0     C92973   0.928  11.133   6.243  0.6824 -0.2988  0.1392
  705MOL0     C92974   1.002  11.102   6.122 -0.7540  0.5882  0.0894
  705MOL0     O92975   1.281  11.325   5.994 -0.1109  0.6554 -0.3401
  705MOL0     C92976   1.430  11.032   5.834  0.1884  0.4719  0.7611
  705MOL0     C92977   1.522  11.013   5.733  0.3027 -0.0099 -0.4249
  705MOL0     N92978   1.836  10.574   5.402  0.0379 -0.8405  0.4044
  705MOL0     N92979   1.850  10.476   5.309  0.6729 -0.9279  0.5203
  705MOL0     C92980   2.446   9.691   5.475  0.0137  0.8087  0.3537
  705MOL0     C92981   2.581   9.677   5.444  0.1001 -0.5621 -0.5523
  705MOL0     C92982   2.943   9.628   5.138 -0.7504 -0.1032 -0.1903
  705MOL0     C92983   3.028   9.543   5.073 -0.0395  0.1141 -0.0635
  705MOL0     C92984   3.140   9.585   5.015  0.1734 -0.1155  0.0589
  705MOL0     C92985   3.176   9.721   4.992  0.4550 -0.4899  0.0907
  705MOL0     O92986   3.299   9.755   4.940  0.9365  0.9266  0.6003
  705MOL0     C92987   3.314   9.894   4.908  0.5560 -0.6143  0.4994
  705MOL0     C92988   3.432   9.921   4.816 -0.5286  0.0852  0.1721
  705MOL0     C92989   3.420   9.825   4.690 -0.7024 -1.2827 -0.7135
  705MOL0     C92990   3.298   9.857   4.606  0.4493 -0.4436  0.6652
  705MOL0     C92991   3.304   9.981   4.520  0.8973 -0.5525  0.6541
  705MOL0     C92992   3.311  10.080   4.451 -0.1069 -0.5129 -0.4828
  705MOL0     C92993   3.081   9.810   5.050  0.2121 -0.0992  0.9124
  705MOL0     C92994   2.961   9.764   5.114 -0.2103 -1.0262  1.3190
  705MOL0     H92995   2.581   9.702   5.107  1.0893  0.5334  0.9109
  705MOL0     H92996   2.334   9.718   5.157  0.3110 -0.4790 -0.1851
  705MOL0     H92997   2.034   9.671   5.314  0.3428  2.0579  3.6309
  705MOL0     H92998   2.156   9.671   5.193  0.3199  0.4645  0.3062
  705MOL0     H92999   2.173   9.925   5.232 -2.1993  2.6393 -0.6842
  705MOL0     H93000   2.031   9.916   5.314  1.3772 -0.6481  0.9403
  705MOL0     H93001   1.948   9.783   5.087 -0.7631  0.2178 -0.7776
  705MOL0     H93002   2.104   9.867   5.029 -0.9570 -0.9134  0.2865
  705MOL0     H93003   1.849   9.976   5.040 -0.1667  0.8561 -0.6096
  705MOL0     H93004   1.933  10.048   5.178 -0.9535  0.4935  0.5564
  705MOL0     H93005   2.082  10.044   4.912 -3.5153 -0.3203 -1.4869
  705MOL0     H93006   2.117  10.142   5.051 -3.0199  0.7913  4.2094
  705MOL0     H93007   1.866  10.187   4.885 -0.9704  0.1331  1.3664
  705MOL0     H93008   2.015  10.280   4.885 -1.1763 -0.1751 -1.0443
  705MOL0     H93009   1.806  10.368   5.032 -0.3030  0.9376  1.6555
  705MOL0     H93010   1.859  10.255   5.145 -1.2557  1.3789  0.2099
  705MOL0     H93011   2.025  10.500   5.041 -0.0325  0.7643  0.0582
  705MOL0     H93012   2.089  10.363   5.152 -1.8283 -2.0343  1.6946
  705MOL0     H93013   2.097  10.658   5.216 -0.4408  0.2765 -0.8159
  705MOL0     H93014   2.077  10.830   5.439 -0.8933  1.9825 -0.3568
  705MOL0     H93015   1.987  10.750   5.568  0.7372 -1.1271  0.1970
  705MOL0     H93016   1.882  10.927   5.324  2.3763  1.2183  0.8875
  705MOL0     H93017   1.919  10.985   5.486 -0.0036  1.7209 -1.2827
  705MOL0     H93018   1.704  10.782   5.424  1.6761  0.3962 -1.0600
  705MOL0     H93019   1.747  10.862   5.583 -2.5457 -0.4712  0.2975
  705MOL0     H93020   1.543  10.959   5.474  0.2177  0.6860  0.7211
  705MOL0     H93021   1.658  11.028   5.355  0.3756  0.5301  0.5637
  705MOL0     H93022   1.650  11.311   5.675  0.6707 -2.1413 -1.6599
  705MOL0     H93023   1.482  11.375   5.852  1.5330  0.4884 -2.3229
  705MOL0     H93024   1.310  11.205   6.228 -0.4960 -0.9645 -0.8920
  705MOL0     H93025   1.176  11.238   6.437 -1.0354  2.7954 -1.3944
  705MOL0     H93026   1.029  11.333   6.600 -0.3012 -1.1422  0.3996
  705MOL0     H93027   1.026  11.164   6.638  0.2418 -0.1463 -0.1442
  705MOL0     H93028   0.916  11.285   6.799 -0.1619 -1.2902  0.2506
  705MOL0     H93029   0.802  11.185   6.719  0.2175 -1.6763 -1.8448
  705MOL0     H93030   0.700  11.404   6.750  1.4573 -1.2816  1.7459
  705MOL0     H93031   0.744  11.418   6.581  1.9749  2.1591 -0.0303
  705MOL0     H93032   0.894  11.549   6.813  0.6004  0.9806 -0.8261
  705MOL0     H93033   0.924  11.575   6.638 -1.1329 -0.7175 -1.9300
  705MOL0     H93034   0.830  11.761   6.721  0.0733 -1.5171  2.1199
  705MOL0     H93035   0.716  11.671   6.823 -1.0530 -0.6527 -0.6128
  705MOL0     H93036   0.557  11.617   6.640  1.5168 -2.1912  2.8326
  705MOL0     H93037   0.668  11.657   6.511 -1.5031 -0.0944 -1.4314
  705MOL0     H93038   0.499  11.857   6.632 -1.2186  1.2847 -2.7561
  705MOL0     H93039   0.672  11.905   6.654 -1.1125  1.1223 -0.7668
  705MOL0     H93040   0.710  11.897   6.415  0.3045 -1.7863 -2.1929
  705MOL0     H93041   0.567  12.005   6.466  0.8047 -0.1528 -1.4150
  705MOL0     H93042   0.821  11.116   6.248  0.6390  0.0729  0.4668
  705MOL0     H93043   0.945  11.059   6.040 -4.2823  0.4805  2.3762
  705MOL0     H93044   1.369  10.955   5.878 -0.3485  1.5345  1.9227
  705MOL0     H93045   1.544  10.911   5.703  0.8538 -0.4320  1.3115
  705MOL0     H93046   2.428   9.686   5.582 -0.6508 -2.7708  0.1739
  705MOL0     H93047   2.656   9.677   5.523  0.3881 -0.4753 -0.8230
  705MOL0     H93048   3.013   9.436   5.070  1.4124 -0.0895 -1.8793
  705MOL0     H93049   3.219   9.517   4.985 -0.5235 -1.6486  1.5488
  705MOL0     H93050   3.337   9.933   5.008 -1.0971 -0.4670  0.8621
  705MOL0     H93051   3.228   9.954   4.875  1.8915  1.6278  0.8390
  705MOL0     H93052   3.428  10.024   4.779 -0.2336 -0.3728 -1.1971
  705MOL0     H93053   3.529   9.895   4.858  0.9045  0.2482 -2.7807
  705MOL0     H93054   3.418   9.722   4.726  0.4007 -1.0538  0.0501
  705MOL0     H93055   3.510   9.830   4.627  1.6645  1.3241  2.5372
  705MOL0     H93056   3.298   9.777   4.531  1.6352  0.8991 -0.8396
  705MOL0     H93057   3.201   9.850   4.655 -0.8502  0.3729 -1.6273
  705MOL0     H93058   3.308  10.148   4.369 -2.3840  0.0125 -0.0308
  705MOL0     H93059   3.109   9.915   5.041  0.0889 -0.2414 -2.4552
  705MOL0     H93060   2.892   9.833   5.160 -0.8052 -0.2477 -0.6557
  706MOL0     O93061   5.324   6.302   0.672  0.6271 -0.6062 -0.3815
  706MOL0     C93062   5.378   6.372   0.585 -0.9655  0.3999 -0.4095
  706MOL0     O93063   5.312   6.455   0.497 -0.5761  0.4993 -0.2775
  706MOL0     C93064   5.177   6.455   0.502 -0.1664 -1.1423 -0.4180
  706MOL0     C93065   5.120   6.562   0.574  0.2983  0.1922 -1.3172
  706MOL0     C93066   4.990   6.549   0.620 -0.3362 -0.5244 -0.4597
  706MOL0     C93067   4.909   6.448   0.583  0.0418 -0.2545  0.8992
  706MOL0     O93068   4.776   6.455   0.602 -1.0484  0.3202  1.1594
  706MOL0     C93069   4.680   6.374   0.522  0.2423 -0.4197  0.0657
  706MOL0     C93070   4.526   6.403   0.549  0.0346 -0.0021  0.1135
  706MOL0     C93071   4.432   6.315   0.465  0.8791  0.4841  0.1663
  706MOL0     C93072   4.282   6.341   0.500  0.0667 -0.2981  0.3802
  706MOL0     C93073   4.253   6.288   0.636  0.2030 -0.3508  0.7902
  706MOL0     C93074   4.102   6.261   0.667 -0.0975  0.4037  0.6400
  706MOL0     C93075   4.021   6.387   0.624 -0.2202  0.1576 -0.4846
  706MOL0     C93076   3.876   6.375   0.679 -0.2143 -0.0886  0.6079
  706MOL0     N93077   3.808   6.274   0.603  0.5686 -0.3783 -0.2237
  706MOL0     C93078   3.790   6.144   0.635 -0.0834  0.0537  0.4557
  706MOL0     C93079   3.731   6.088   0.526  1.1411  0.3703 -0.4578
  706MOL0     C93080   3.709   5.937   0.505  0.2754 -0.3480 -0.0035
  706MOL0     C93081   3.561   5.893   0.496 -0.7934 -0.1338 -0.3283
  706MOL0     C93082   3.549   5.747   0.442  0.2728 -0.1947 -0.5167
  706MOL0     C93083   3.407   5.687   0.445 -0.1293  0.2293  0.1533
  706MOL0     O93084   3.359   5.669   0.573 -0.1585 -0.0860  0.3680
  706MOL0     C93085   3.223   5.631   0.589  0.4456  1.4325 -0.7814
  706MOL0     C93086   3.121   5.651   0.495 -0.9619 -0.3375  0.0381
  706MOL0     C93087   2.990   5.635   0.531  0.9050  0.0086 -0.6587
  706MOL0     C93088   2.959   5.582   0.654 -0.5368 -0.5489  0.7357
  706MOL0     C93089   2.816   5.550   0.686  0.1255 -0.2206 -0.1021
  706MOL0     O93090   2.716   5.610   0.612 -0.0362 -0.1213 -0.3490
  706MOL0     C93091   2.580   5.592   0.642 -0.8616  0.1474 -0.1753
  706MOL0     C93092   2.484   5.574   0.536  0.6265  0.6129 -0.2309
  706MOL0     C93093   2.345   5.568   0.569  0.3065  1.3715  0.3236
  706MOL0     C93094   2.307   5.600   0.698  0.0695 -0.3008 -0.5169
  706MOL0     O93095   2.170   5.621   0.707 -0.0388  0.2220  0.2464
  706MOL0     C93096   2.112   5.621   0.841  0.6172  1.0292  0.4864
  706MOL0     C93097   1.964   5.574   0.839 -0.2074 -0.0826  0.3061
  706MOL0     C93098   1.900   5.603   0.977  0.1077 -0.2918 -0.4864
  706MOL0     C93099   1.746   5.587   0.990  0.8370 -0.2618  0.1592
  706MOL0     C93100   1.683   5.607   1.127 -0.2251  0.3590  0.5078
  706MOL0     C93101   1.727   5.503   1.233 -0.0579  0.4231 -0.1661
  706MOL0     C93102   1.707   5.349   1.209 -0.3666  0.0057  0.3184
  706MOL0     C93103   1.795   5.265   1.305 -0.9837  0.8569 -1.1941
  706MOL0    Cl93104   1.727   5.101   1.302  0.1540  0.1131  0.4195
  706MOL0     C93105   2.398   5.628   0.800 -0.7803  0.2734  0.3260
  706MOL0     C93106   2.533   5.623   0.772  0.6126 -0.6037 -0.1042
  706MOL0     O93107   2.795   5.490   0.792 -0.4439  0.3285  0.4122
  706MOL0     C93108   3.068   5.544   0.738 -0.4184  0.5917 -0.8879
  706MOL0     C93109   3.196   5.575   0.710 -0.4302  0.8860  0.1555
  706MOL0     N93110   3.703   6.188   0.437 -0.5011 -0.5096 -0.3784
  706MOL0     N93111   3.745   6.296   0.490  0.1436  0.3510  0.0277
  706MOL0     C93112   4.963   6.346   0.506  0.1128  0.4505 -0.1827
  706MOL0     C93113   5.096   6.350   0.465  0.6709  0.2551 -1.0112
  706MOL0     C93114   5.524   6.385   0.582  0.0572 -0.9450  0.8583
  706MOL0     C93115   5.592   6.451   0.482  0.5090 -0.1106  0.0672
  706MOL0     C93116   5.730   6.457   0.486  0.1680 -0.1894  0.9364
  706MOL0     C93117   5.812   6.405   0.586  0.1283  0.3016  0.0854
  706MOL0     O93118   5.947   6.410   0.591  0.6536 -0.2372  0.6663
  706MOL0     C93119   6.018   6.293   0.643  0.2746  0.6001  0.0932
  706MOL0     C93120   6.165   6.307   0.639 -0.5864  0.2533 -0.5040
  706MOL0     C93121   6.239   6.174   0.648  0.4725 -0.2164  0.0999
  706MOL0     C93122   6.384   6.188   0.601  0.2032  0.5390 -0.2077
  706MOL0     C93123   6.466   6.282   0.685 -0.3285  0.4861  0.2894
  706MOL0     C93124   6.529   6.362   0.751  0.1349 -0.1348 -0.1459
  706MOL0     C93125   5.740   6.351   0.690  0.6915  0.4972  0.3040
  706MOL0     C93126   5.602   6.340   0.689  0.0477 -0.5807  0.3871
  706MOL0     H93127   5.176   6.649   0.605  0.9842 -0.6158 -0.1990
  706MOL0     H93128   4.948   6.637   0.667  1.1555  0.2268 -0.4689
  706MOL0     H93129   4.704   6.267   0.528  2.1598  0.0212  1.3601
  706MOL0     H93130   4.687   6.400   0.416  0.9927 -1.8232 -0.2623
  706MOL0     H93131   4.510   6.509   0.525 -0.4173 -0.1055 -0.0463
  706MOL0     H93132   4.510   6.384   0.655 -2.6334 -2.0932 -0.5551
  706MOL0     H93133   4.449   6.207   0.463  1.6205  0.6023 -0.2258
  706MOL0     H93134   4.449   6.344   0.361 -1.5114 -2.7110 -1.3111
  706MOL0     H93135   4.253   6.445   0.486  2.2784 -0.0127 -3.5524
  706MOL0     H93136   4.226   6.284   0.424  0.1559 -0.8782  0.7421
  706MOL0     H93137   4.282   6.362   0.711 -1.2721  0.6691  0.4112
  706MOL0     H93138   4.312   6.199   0.660 -1.3050 -1.1823  1.5684
  706MOL0     H93139   4.075   6.222   0.765 -0.3342 -3.2804 -0.7264
  706MOL0     H93140   4.076   6.186   0.592 -0.4009  0.5492  0.5975
  706MOL0     H93141   4.065   6.472   0.677  0.7039 -1.1062  0.8359
  706MOL0     H93142   4.023   6.403   0.515 -1.4754  1.6304 -0.3189
  706MOL0     H93143   3.833   6.475   0.669 -1.6988 -0.5362  2.0782
  706MOL0     H93144   3.880   6.338   0.782  1.4377 -1.8613 -0.0312
  706MOL0     H93145   3.838   6.105   0.724  2.8428  2.7780  0.2434
  706MOL0     H93146   3.774   5.888   0.578  3.2117 -0.1969 -2.3327
  706MOL0     H93147   3.759   5.914   0.410 -0.4403 -1.6916 -0.0743
  706MOL0     H93148   3.503   5.962   0.434 -0.6857  1.4913  1.2925
  706MOL0     H93149   3.527   5.895   0.600  3.7955  3.2233  1.4248
  706MOL0     H93150   3.582   5.762   0.338 -1.6492  4.1739 -0.7137
  706MOL0     H93151   3.620   5.681   0.492  0.4792  0.9724  0.7772
  706MOL0     H93152   3.413   5.595   0.385  0.6010  0.9643 -0.9381
  706MOL0     H93153   3.334   5.746   0.388 -3.5578 -2.5945  1.2257
  706MOL0     H93154   3.142   5.699   0.400 -0.2139  0.5703  0.6446
  706MOL0     H93155   2.914   5.666   0.461  2.5155  0.4000 -2.3196
  706MOL0     H93156   2.526   5.552   0.438  0.8089 -1.4606  0.2832
  706MOL0     H93157   2.278   5.535   0.490 -1.1752 -1.2688  2.4889
  706MOL0     H93158   2.135   5.721   0.877  2.2946  1.7011 -2.1535
  706MOL0     H93159   2.169   5.554   0.906  0.8070 -1.0557 -1.6650
  706MOL0     H93160   1.952   5.470   0.807 -2.6840  0.6461 -1.4805
  706MOL0     H93161   1.915   5.638   0.765 -1.9176 -0.9828  0.6049
  706MOL0     H93162   1.922   5.702   1.016 -0.8020  1.1833 -3.4243
  706MOL0     H93163   1.938   5.531   1.050 -0.3858  0.4036  0.4719
  706MOL0     H93164   1.694   5.661   0.929 -1.1596 -0.1555  1.8371
  706MOL0     H93165   1.724   5.490   0.945 -0.8915  0.1934 -0.0771
  706MOL0     H93166   1.575   5.590   1.126 -0.3923  1.0789  2.4219
  706MOL0     H93167   1.704   5.712   1.150  2.7738 -0.2416  0.9600
  706MOL0     H93168   1.665   5.520   1.321  1.2849  2.9612  0.3960
  706MOL0     H93169   1.830   5.525   1.261  0.5752  0.5071 -2.3718
  706MOL0     H93170   1.601   5.328   1.226  0.3970 -2.9825  2.2333
  706MOL0     H93171   1.731   5.329   1.104  0.8362  1.1496  0.3462
  706MOL0     H93172   1.787   5.306   1.406  0.7919 -4.0526  1.2940
  706MOL0     H93173   1.900   5.275   1.276  0.8433 -0.0820  3.9945
  706MOL0     H93174   2.361   5.673   0.891 -0.6224  0.6429  0.2089
  706MOL0     H93175   2.609   5.658   0.840 -1.2517  2.1352  0.7493
  706MOL0     H93176   3.045   5.496   0.832  1.3007  0.0765 -0.7038
  706MOL0     H93177   3.273   5.549   0.783 -0.0368  0.3968 -0.4220
  706MOL0     H93178   4.908   6.261   0.466 -0.8507  2.0162 -2.4535
  706MOL0     H93179   5.145   6.274   0.405  0.6684 -0.9629  0.4777
  706MOL0     H93180   5.534   6.496   0.402 -1.6482 -4.4213 -1.0845
  706MOL0     H93181   5.770   6.506   0.397 -1.7600 -1.6345 -0.8231
  706MOL0     H93182   5.981   6.208   0.586  1.8427 -1.0436  1.4187
  706MOL0     H93183   5.999   6.276   0.749  0.8003  2.4725  0.5372
  706MOL0     H93184   6.183   6.372   0.553  0.4627 -1.1169 -1.3682
  706MOL0     H93185   6.189   6.368   0.726 -1.6885  1.3409 -0.9430
  706MOL0     H93186   6.184   6.118   0.572 -2.1593  0.2440  1.5698
  706MOL0     H93187   6.239   6.130   0.748  1.7983  1.7843  1.0619
  706MOL0     H93188   6.435   6.092   0.606 -2.7984 -1.1691 -0.0571
  706MOL0     H93189   6.379   6.219   0.496 -0.2670 -1.4747 -0.8312
  706MOL0     H93190   6.579   6.430   0.816 -1.4663 -1.2989  2.4947
  706MOL0     H93191   5.789   6.324   0.783  2.5004  1.0239 -0.4563
  706MOL0     H93192   5.566   6.300   0.784  2.4259 -0.6564  1.3365
  707MOL0     O93193  10.908   3.260  11.168  0.0959 -0.8800 -0.5496
  707MOL0     C93194  10.993   3.184  11.125 -0.4233  0.8906 -0.4142
  707MOL0     O93195  10.974   3.082  11.043 -0.0756  0.6189  0.6174
  707MOL0     C93196  10.842   3.048  11.017  1.1318 -0.1394  0.3527
  707MOL0     C93197  10.759   3.019  11.128 -0.5641  0.1004 -0.1428
  707MOL0     C93198  10.625   2.982  11.109 -0.0175 -0.1743  0.1313
  707MOL0     C93199  10.576   2.947  10.981 -0.4126 -0.6253 -0.5148
  707MOL0     O93200  10.448   2.913  10.974 -0.3974  0.7195  0.0850
  707MOL0     C93201  10.396   2.861  10.846  0.4738 -0.7631 -0.0615
  707MOL0     C93202  10.245   2.866  10.841  0.9167  1.1452  0.7288
  707MOL0     C93203  10.187   2.798  10.716 -0.7840 -0.9519  0.2428
  707MOL0     C93204  10.039   2.838  10.688 -0.4545 -0.6838  0.2863
  707MOL0     C93205   9.986   2.767  10.556  0.1851 -0.1178  0.5300
  707MOL0     C93206   9.844   2.796  10.518 -0.2149 -0.0265  0.1467
  707MOL0     C93207   9.799   2.730  10.388 -0.8446  1.1755 -0.0840
  707MOL0     C93208   9.878   2.761  10.268  0.2675  0.6540  0.2833
  707MOL0     N93209   9.859   2.648  10.180 -0.7179  0.2985  0.2491
  707MOL0     C93210   9.804   2.658  10.065 -0.2406  0.5971  0.2579
  707MOL0     C93211   9.828   2.539  10.010 -0.3933  0.9603 -0.1083
  707MOL0     C93212   9.801   2.497   9.864 -0.9818  0.5984  0.1459
  707MOL0     C93213   9.657   2.501   9.817 -0.3445  0.1369 -0.0959
  707MOL0     C93214   9.645   2.412   9.692  0.1493  1.0898 -0.2216
  707MOL0     C93215   9.505   2.416   9.624  0.2059 -0.2454  0.2864
  707MOL0     O93216   9.417   2.342   9.712  0.9693  0.5203  0.9017
  707MOL0     C93217   9.281   2.322   9.680 -0.2822 -0.6507 -0.0187
  707MOL0     C93218   9.199   2.264   9.778 -0.2186 -0.4391  1.2523
  707MOL0     C93219   9.066   2.220   9.741 -0.2916  0.2255 -0.3187
  707MOL0     C93220   9.015   2.248   9.606  0.5956 -0.9530  0.3279
  707MOL0     C93221   8.874   2.209   9.570 -0.0195  0.3938 -0.1843
  707MOL0     O93222   8.841   2.202   9.435 -0.4353  0.5879 -0.3237
  707MOL0     C93223   8.716   2.162   9.387 -0.5300  0.3172  0.4903
  707MOL0     C93224   8.597   2.204   9.446  0.9238  0.0437 -0.2465
  707MOL0     C93225   8.477   2.166   9.396  0.2128 -0.9946  0.4907
  707MOL0     C93226   8.473   2.090   9.272 -1.1991 -0.6335  0.5908
  707MOL0     O93227   8.356   2.066   9.216  0.0479 -0.5342  0.1485
  707MOL0     C93228   8.350   2.008   9.091 -0.0577 -0.2785  1.0541
  707MOL0     C93229   8.214   2.053   9.038 -0.6994 -0.1472  1.3097
  707MOL0     C93230   8.098   2.030   9.132 -0.1000  0.7858  0.7739
  707MOL0     C93231   8.076   1.881   9.170 -0.4784 -1.4970  0.4402
  707MOL0     C93232   7.942   1.861   9.237  0.5579  0.3647 -0.8209
  707MOL0     C93233   7.922   1.921   9.373  0.0349  0.1710 -0.5349
  707MOL0     C93234   8.028   1.875   9.469 -0.0707  0.3160 -0.0489
  707MOL0     C93235   7.966   1.875   9.608 -0.9275 -0.0546  0.6774
  707MOL0    Cl93236   7.888   2.028   9.655 -0.4479  0.0689  0.2800
  707MOL0     C93237   8.597   2.036   9.223 -0.4244 -0.2925  0.4038
  707MOL0     C93238   8.714   2.081   9.279 -0.2345  0.1634 -0.4969
  707MOL0     O93239   8.804   2.175   9.662  0.1811 -0.1883 -0.5504
  707MOL0     C93240   9.090   2.327   9.518 -0.0688 -1.0699  0.7791
  707MOL0     C93241   9.224   2.357   9.561 -0.2048 -0.4864 -0.2454
  707MOL0     N93242   9.908   2.466  10.094 -0.2219  0.5593 -0.1162
  707MOL0     N93243   9.927   2.528  10.208 -0.2718  0.0072 -0.1442
  707MOL0     C93244  10.674   2.955  10.878 -0.2278  0.1138  0.4534
  707MOL0     C93245  10.806   3.002  10.892 -0.1209 -0.3915 -0.6454
  707MOL0     C93246  11.139   3.216  11.169 -0.5314  0.1169  0.0015
  707MOL0     C93247  11.170   3.334  11.243 -0.5480  0.2245  0.1331
  707MOL0     C93248  11.305   3.370  11.255  0.1452 -0.4111 -0.4248
  707MOL0     C93249  11.406   3.296  11.198  0.1382  1.2122  0.3659
  707MOL0     O93250  11.539   3.325  11.237 -0.2548 -0.3887 -0.1144
  707MOL0     C93251  11.658   3.275  11.158  0.5175 -0.2663 -0.4076
  707MOL0     C93252  11.783   3.349  11.188 -0.5781 -0.2330  0.1087
  707MOL0     C93253  11.774   3.473  11.278  0.8657  0.0705 -0.1153
  707MOL0     C93254  11.907   3.547  11.273 -0.1746 -0.5190 -0.1420
  707MOL0     C93255  11.984   3.504  11.391 -0.1807 -0.2618  0.0760
  707MOL0     C93256  12.063   3.474  11.479 -0.4202 -0.6971  0.0660
  707MOL0     C93257  11.372   3.190  11.116  0.1786  0.5441 -0.1446
  707MOL0     C93258  11.242   3.150  11.102 -0.1670 -0.6426 -0.3398
  707MOL0     H93259  10.796   3.018  11.230  0.3117 -0.9388 -0.4579
  707MOL0     H93260  10.576   2.973  11.205 -2.7724  0.1747 -1.1435
  707MOL0     H93261  10.430   2.763  10.811  0.2066 -1.6354  1.9942
  707MOL0     H93262  10.429   2.922  10.762  1.6135 -0.0357  0.8918
  707MOL0     H93263  10.214   2.971  10.840 -1.7776  0.4455  2.1399
  707MOL0     H93264  10.207   2.812  10.928 -0.2963  0.4205 -0.2193
  707MOL0     H93265  10.184   2.689  10.715  0.7276 -1.0094  0.2191
  707MOL0     H93266  10.241   2.826  10.625 -2.0157 -0.5519 -0.3909
  707MOL0     H93267   9.979   2.806  10.774 -0.6748  3.1159  1.7419
  707MOL0     H93268  10.035   2.947  10.673 -1.2511 -1.0046 -2.3945
  707MOL0     H93269   9.992   2.659  10.573 -2.9125 -0.3149  1.0475
  707MOL0     H93270  10.064   2.796  10.486  0.4591 -0.9968  0.4530
  707MOL0     H93271   9.822   2.902  10.504 -1.7069 -0.4177 -0.7127
  707MOL0     H93272   9.779   2.767  10.600 -0.7036 -0.3793 -0.3549
  707MOL0     H93273   9.795   2.623  10.409  0.1057  1.2936  0.7381
  707MOL0     H93274   9.697   2.765  10.369 -0.3812  1.4247 -2.5538
  707MOL0     H93275   9.987   2.761  10.280  0.7207 -0.4648 -2.8026
  707MOL0     H93276   9.838   2.844  10.209  1.4292  0.0980 -1.3704
  707MOL0     H93277   9.753   2.742  10.018  1.2679  0.9387 -0.8418
  707MOL0     H93278   9.833   2.395   9.843 -1.3919  0.3749  0.5922
  707MOL0     H93279   9.849   2.566   9.793 -0.9734 -1.5799 -2.0959
  707MOL0     H93280   9.646   2.608   9.798  1.3698  1.1445  3.6794
  707MOL0     H93281   9.589   2.476   9.899  0.4358  2.1705  1.2273
  707MOL0     H93282   9.725   2.448   9.627  1.7490  4.8384  3.3479
  707MOL0     H93283   9.667   2.310   9.725  1.8521  1.7602  0.8684
  707MOL0     H93284   9.510   2.380   9.521 -1.9740  1.4067 -0.4937
  707MOL0     H93285   9.471   2.520   9.621  1.5932  0.2134 -0.6649
  707MOL0     H93286   9.238   2.241   9.877  2.8495  1.7572  0.7002
  707MOL0     H93287   9.008   2.164   9.813 -1.2463  1.1716 -0.3129
  707MOL0     H93288   8.598   2.272   9.530  2.8374  0.2729 -0.4135
  707MOL0     H93289   8.382   2.200   9.436  0.5794  0.7156 -0.0338
  707MOL0     H93290   8.366   1.901   9.104 -0.9876 -0.1077  4.4449
  707MOL0     H93291   8.412   2.052   9.011 -1.1699  1.9981  1.3596
  707MOL0     H93292   8.203   1.994   8.947 -1.7145  5.6394 -2.8153
  707MOL0     H93293   8.213   2.159   9.011 -2.2981 -0.4413  0.1172
  707MOL0     H93294   8.011   2.068   9.077  1.0203 -0.8075 -2.3240
  707MOL0     H93295   8.097   2.080   9.230  0.0754 -1.2852  1.9007
  707MOL0     H93296   8.073   1.826   9.075  1.5648  0.5926 -0.9530
  707MOL0     H93297   8.161   1.859   9.235 -0.4681  0.6276  1.2339
  707MOL0     H93298   7.921   1.754   9.242  0.8107  0.1731 -2.9820
  707MOL0     H93299   7.873   1.906   9.166  1.3148  2.3234 -0.3687
  707MOL0     H93300   7.822   1.899   9.411  0.1155  1.7829  0.7047
  707MOL0     H93301   7.928   2.030   9.363 -0.6381  0.1834 -0.8451
  707MOL0     H93302   8.061   1.771   9.461  1.4332  0.1100  5.3757
  707MOL0     H93303   8.122   1.926   9.449  0.9785 -2.2818 -2.5897
  707MOL0     H93304   8.039   1.844   9.683 -0.3304  1.6464  0.8397
  707MOL0     H93305   7.895   1.792   9.611  2.5505 -3.2647  2.4165
  707MOL0     H93306   8.606   1.966   9.140 -1.5816  0.3250 -0.2683
  707MOL0     H93307   8.811   2.059   9.234 -0.5643 -2.2010 -0.1312
  707MOL0     H93308   9.050   2.354   9.421 -0.4303 -0.3121  1.1358
  707MOL0     H93309   9.293   2.412   9.498 -0.6274 -1.1707 -1.3489
  707MOL0     H93310  10.651   2.936  10.774 -2.7069  1.2971  0.6926
  707MOL0     H93311  10.871   3.022  10.807 -0.0644 -0.3146 -0.5845
  707MOL0     H93312  11.087   3.383  11.292 -2.7081 -2.3856 -0.6141
  707MOL0     H93313  11.346   3.453  11.313  0.9681 -2.2143  1.7429
  707MOL0     H93314  11.629   3.274  11.052 -0.0077 -2.1747 -0.2757
  707MOL0     H93315  11.668   3.167  11.170  3.2904 -0.2982 -2.1231
  707MOL0     H93316  11.855   3.279  11.232 -0.7761  0.0177  0.8556
  707MOL0     H93317  11.831   3.365  11.091 -0.7559 -1.8369 -0.2805
  707MOL0     H93318  11.752   3.441  11.380  1.2480  0.1066 -0.0170
  707MOL0     H93319  11.690   3.537  11.251 -0.6127 -2.0129 -0.6606
  707MOL0     H93320  11.961   3.537  11.179  0.4844  0.0399  0.1674
  707MOL0     H93321  11.875   3.649  11.293  4.1030  0.8203  0.8963
  707MOL0     H93322  12.133   3.448  11.556 -0.9180 -0.0361  0.7655
  707MOL0     H93323  11.458   3.149  11.064  1.5998 -0.5055  2.8237
  707MOL0     H93324  11.234   3.075  11.024 -0.2170 -1.6341  0.5943
  708MOL0     O93325   7.154   0.639   8.140  0.1035  0.4178  0.7384
  708MOL0     C93326   7.121   0.520   8.138  0.3651 -0.1959 -0.4272
  708MOL0     O93327   6.992   0.472   8.135  0.5999  0.7537 -0.1801
  708MOL0     C93328   6.884   0.534   8.197  0.2052 -0.0786  0.4493
  708MOL0     C93329   6.756   0.467   8.189 -0.6535  0.1409  0.4679
  708MOL0     C93330   6.647   0.518   8.261  0.5508  0.0029  0.3789
  708MOL0     C93331   6.646   0.630   8.343  0.3868  0.2368  0.5039
  708MOL0     O93332   6.541   0.692   8.410  0.1670 -0.1607 -0.3059
  708MOL0     C93333   6.419   0.629   8.451 -0.5120 -0.5164 -1.0167
  708MOL0     C93334   6.442   0.516   8.552 -0.1173  0.1018 -0.6410
  708MOL0     C93335   6.324   0.466   8.626  1.0112  0.9806  0.1628
  708MOL0     C93336   6.343   0.337   8.698 -0.6602 -0.4490  0.1124
  708MOL0     C93337   6.318   0.375   8.845  0.1457  0.5476 -0.4616
  708MOL0     C93338   6.388   0.267   8.939 -0.6807  0.0598 -0.3161
  708MOL0     C93339   6.361   0.300   9.088 -0.1643 -0.3314  0.3145
  708MOL0     C93340   6.414   0.194   9.186  0.8139  0.8912 -1.3511
  708MOL0     N93341   6.552   0.188   9.204 -0.7860 -0.2054  0.1901
  708MOL0     C93342   6.622   0.132   9.107  0.3213 -0.6392  0.8045
  708MOL0     C93343   6.753   0.172   9.139  0.3910  0.4063 -0.5725
  708MOL0     C93344   6.870   0.136   9.059  0.4375 -0.0957  0.0773
  708MOL0     C93345   6.974   0.044   9.110 -0.7204  0.3145 -0.0180
  708MOL0     C93346   7.063   0.130   9.200  0.3418 -0.2278  0.2363
  708MOL0     C93347   7.172   0.059   9.278  0.3260 -0.3175  0.5487
  708MOL0     O93348   7.266  -0.011   9.180  0.3985 -0.7729 -0.7651
  708MOL0     C93349   7.383  -0.057   9.228 -0.0173  0.4289 -0.1733
  708MOL0     C93350   7.425  -0.045   9.354 -0.6911  0.3481 -1.0763
  708MOL0     C93351   7.554  -0.096   9.395  0.5507 -0.1361  0.3858
  708MOL0     C93352   7.629  -0.173   9.302  0.3194  1.3044 -0.7273
  708MOL0     C93353   7.759  -0.237   9.342 -0.1013 -0.2218 -0.7785
  708MOL0     O93354   7.833  -0.308   9.257 -0.1963  0.0368 -0.0193
  708MOL0     C93355   7.954  -0.364   9.294  0.4100  0.0417 -0.2470
  708MOL0     C93356   8.016  -0.418   9.179  0.3570  0.5242 -0.5017
  708MOL0     C93357   8.133  -0.488   9.189  0.7246 -0.1097 -1.1201
  708MOL0     C93358   8.178  -0.520   9.319 -0.6610  0.4032  0.4425
  708MOL0     O93359   8.286  -0.607   9.339  0.4873 -0.6687 -0.4064
  708MOL0     C93360   8.399  -0.562   9.266  1.2168  0.5001 -0.5150
  708MOL0     C93361   8.436  -0.647   9.151  0.1100 -0.3985 -1.3327
  708MOL0     C93362   8.392  -0.796   9.180  0.1741 -0.0352  0.8514
  708MOL0     C93363   8.447  -0.898   9.071 -0.3766  1.1772  1.0753
  708MOL0     C93364   8.390  -0.868   8.932 -0.7473  0.1670 -0.8234
  708MOL0     C93365   8.238  -0.854   8.942  1.0584  0.8255  1.0431
  708MOL0     C93366   8.177  -0.896   8.809  1.1452 -0.4728 -0.3364
  708MOL0     C93367   8.024  -0.873   8.818  0.2928  0.3546  0.7449
  708MOL0    Cl93368   7.984  -0.705   8.800 -0.0640  0.3121  0.4607
  708MOL0     C93369   8.123  -0.456   9.428  0.0330 -1.2451  0.1691
  708MOL0     C93370   8.007  -0.388   9.422  0.5749 -0.9915 -0.3857
  708MOL0     O93371   7.779  -0.218   9.463 -0.4495  0.2602  0.4011
  708MOL0     C93372   7.584  -0.178   9.165  0.3647  1.0796 -0.7746
  708MOL0     C93373   7.461  -0.126   9.136  0.0645 -0.4428 -0.4577
  708MOL0     N93374   6.749   0.234   9.261 -0.3617  1.1014 -0.2011
  708MOL0     N93375   6.626   0.267   9.290 -0.2471  0.4806 -0.8550
  708MOL0     C93376   6.774   0.690   8.348  0.1827  0.0245 -0.1075
  708MOL0     C93377   6.888   0.647   8.282 -0.1707  0.7472 -0.0898
  708MOL0     C93378   7.249   0.429   8.143 -0.0672 -0.5204  1.0046
  708MOL0     C93379   7.384   0.475   8.147 -0.0117 -1.1201  0.0645
  708MOL0     C93380   7.494   0.398   8.148 -0.7431  0.3224 -0.1726
  708MOL0     C93381   7.475   0.251   8.157 -0.1005 -0.1107  1.2959
  708MOL0     O93382   7.583   0.179   8.180 -1.3457  0.1106  0.5296
  708MOL0     C93383   7.582   0.039   8.145  0.1087  0.4362  0.8398
  708MOL0     C93384   7.708  -0.001   8.067  0.9947  1.1429 -0.6188
  708MOL0     C93385   7.724  -0.154   8.056  0.1125  0.4003  0.5553
  708MOL0     C93386   7.766  -0.208   7.913  0.0144 -0.3223  0.6986
  708MOL0     C93387   7.668  -0.313   7.877 -0.2839 -0.0294 -0.2509
  708MOL0     C93388   7.594  -0.403   7.840  0.2214 -1.0930 -0.7352
  708MOL0     C93389   7.340   0.206   8.168 -1.1673  0.1811 -0.4807
  708MOL0     C93390   7.230   0.294   8.149 -0.0106  0.1269  0.7861
  708MOL0     H93391   6.750   0.382   8.122  3.6157  0.8085 -1.0843
  708MOL0     H93392   6.569   0.443   8.272  0.3014  0.6133  3.9544
  708MOL0     H93393   6.375   0.593   8.358 -1.4623 -1.3483 -0.2672
  708MOL0     H93394   6.350   0.704   8.491  0.9751  1.8674 -2.6511
  708MOL0     H93395   6.505   0.561   8.629  0.7864 -1.3035 -0.5392
  708MOL0     H93396   6.487   0.426   8.510  1.6232  0.0846  1.1319
  708MOL0     H93397   6.249   0.444   8.549 -2.4227  0.5125  3.3706
  708MOL0     H93398   6.282   0.543   8.692  0.6262  1.0269 -0.1311
  708MOL0     H93399   6.281   0.253   8.665  1.7296 -1.8116 -1.2480
  708MOL0     H93400   6.448   0.310   8.685 -0.5329  0.5361 -1.0831
  708MOL0     H93401   6.213   0.377   8.872 -0.0460  0.4278 -1.1720
  708MOL0     H93402   6.360   0.474   8.866  1.8676  0.0165 -1.1457
  708MOL0     H93403   6.493   0.271   8.906 -0.9409 -0.8180 -1.2943
  708MOL0     H93404   6.346   0.166   8.933 -0.5275 -0.1755  1.9257
  708MOL0     H93405   6.406   0.396   9.117 -2.8832  0.8974  0.7384
  708MOL0     H93406   6.253   0.314   9.092 -0.1268  2.5434 -3.3658
  708MOL0     H93407   6.379   0.094   9.161  0.4885  0.1796  1.6319
  708MOL0     H93408   6.369   0.226   9.280  0.3006 -1.6570 -0.6725
  708MOL0     H93409   6.579   0.080   9.023 -1.5345 -0.1919  1.4338
  708MOL0     H93410   6.911   0.233   9.027 -2.6262  1.3504  0.1897
  708MOL0     H93411   6.843   0.087   8.965 -1.2890  1.0830 -0.0817
  708MOL0     H93412   7.035   0.004   9.029 -1.4886 -1.8530  0.3960
  708MOL0     H93413   6.921  -0.037   9.161 -0.0598  0.4845  0.9662
  708MOL0     H93414   7.090   0.223   9.148 -1.2003  0.8838  1.3218
  708MOL0     H93415   6.989   0.160   9.275 -0.5335 -1.1084 -0.2731
  708MOL0     H93416   7.127  -0.023   9.334 -0.2043 -0.2940  0.1614
  708MOL0     H93417   7.216   0.139   9.338 -0.7050  1.6103 -1.1456
  708MOL0     H93418   7.361   0.000   9.429 -1.3024 -1.0253 -0.7359
  708MOL0     H93419   7.592  -0.081   9.496  2.0215  3.3013 -0.5207
  708MOL0     H93420   7.974  -0.400   9.081  0.3295  2.8006 -0.1164
  708MOL0     H93421   8.170  -0.535   9.098  1.1271 -0.5831 -0.7140
  708MOL0     H93422   8.484  -0.565   9.334 -0.9124  0.5200  2.3502
  708MOL0     H93423   8.393  -0.454   9.250 -2.9466  0.4029 -0.7403
  708MOL0     H93424   8.542  -0.648   9.125  0.0577 -4.0387 -1.9706
  708MOL0     H93425   8.382  -0.617   9.061 -2.1442 -0.6966 -0.1503
  708MOL0     H93426   8.284  -0.811   9.181  0.3194 -1.1674  1.3382
  708MOL0     H93427   8.433  -0.829   9.276  1.3239 -0.5160  0.2118
  708MOL0     H93428   8.556  -0.890   9.068 -0.3493  0.7503 -1.7947
  708MOL0     H93429   8.405  -0.995   9.100 -2.0341  0.9355 -1.8358
  708MOL0     H93430   8.415  -0.948   8.862 -3.5593 -0.8424 -0.7989
  708MOL0     H93431   8.447  -0.778   8.907 -1.5216  0.0983 -3.0382
  708MOL0     H93432   8.200  -0.755   8.967 -3.5668  0.4575 -3.0873
  708MOL0     H93433   8.190  -0.929   9.006 -1.2174  0.4734 -0.9289
  708MOL0     H93434   8.220  -0.853   8.719 -1.7455 -0.6118 -1.8864
  708MOL0     H93435   8.197  -1.004   8.805 -0.3717 -0.7902 -0.0611
  708MOL0     H93436   7.983  -0.924   8.906 -1.1897  1.8253  0.9598
  708MOL0     H93437   7.983  -0.927   8.732 -0.1341  1.4978  0.2105
  708MOL0     H93438   8.188  -0.467   9.514  1.6823 -4.6528 -1.3184
  708MOL0     H93439   7.972  -0.341   9.514  0.4059  0.2250 -1.0449
  708MOL0     H93440   7.640  -0.239   9.095 -1.5967 -0.2409 -1.2691
  708MOL0     H93441   7.415  -0.144   9.039 -2.2594 -0.5641  0.5955
  708MOL0     H93442   6.768   0.778   8.411  1.4117  0.3803 -0.4635
  708MOL0     H93443   6.971   0.718   8.284  0.8549 -0.3714 -1.2591
  708MOL0     H93444   7.412   0.580   8.158  2.8115 -1.3971 -2.9320
  708MOL0     H93445   7.600   0.422   8.153  0.7567 -4.9005 -0.9543
  708MOL0     H93446   7.490   0.021   8.090 -1.4816  3.5544  2.2386
  708MOL0     H93447   7.580  -0.000   8.247 -0.6645  2.8358  1.8075
  708MOL0     H93448   7.707   0.047   7.969  1.2643 -0.9656 -1.6970
  708MOL0     H93449   7.798   0.035   8.117  2.8596 -1.0053 -2.2699
  708MOL0     H93450   7.626  -0.196   8.080 -1.1155  1.5702 -1.9725
  708MOL0     H93451   7.781  -0.192   8.141 -0.6890  1.8525  1.7869
  708MOL0     H93452   7.771  -0.133   7.834  1.1578 -2.2643 -1.1883
  708MOL0     H93453   7.869  -0.245   7.924  0.7558  1.6489  0.8705
  708MOL0     H93454   7.527  -0.484   7.822 -0.3178 -0.9103  0.4031
  708MOL0     H93455   7.325   0.103   8.196  0.5245  0.3245  1.2228
  708MOL0     H93456   7.125   0.267   8.158  0.4017 -1.5769  0.8442
  709MOL0     O93457   2.165   9.201   5.146 -0.4338  0.3195 -0.6269
  709MOL0     C93458   2.152   9.085   5.174  0.5495 -0.2311 -0.7651
  709MOL0     O93459   2.237   9.020   5.246 -0.5296  0.5078  0.2091
  709MOL0     C93460   2.347   9.076   5.317 -0.5551  0.3172  0.6384
  709MOL0     C93461   2.423   9.183   5.263 -0.2226 -0.5163 -0.1494
  709MOL0     C93462   2.531   9.238   5.336  0.1147 -0.4674 -0.1963
  709MOL0     C93463   2.569   9.185   5.464 -0.1471  0.2613 -1.4398
  709MOL0     O93464   2.663   9.237   5.550  0.7991 -0.2615 -0.4803
  709MOL0     C93465   2.768   9.307   5.495 -0.4950 -0.3726 -0.2846
  709MOL0     C93466   2.893   9.291   5.590 -0.8458  0.0575  0.1093
  709MOL0     C93467   3.017   9.339   5.519  0.9559  0.0197  0.9095
  709MOL0     C93468   3.044   9.487   5.547  0.3836 -0.3568  0.5016
  709MOL0     C93469   3.177   9.535   5.476  0.2421  0.3038 -0.0332
  709MOL0     C93470   3.186   9.688   5.460 -0.0790 -0.8324  0.3856
  709MOL0     C93471   3.304   9.725   5.365  0.3908 -0.5263  0.6597
  709MOL0     C93472   3.447   9.728   5.437  1.0581  0.8058  0.3587
  709MOL0     N93473   3.446   9.794   5.570 -0.5125 -0.0572  0.3313
  709MOL0     C93474   3.443   9.720   5.687  0.1611  0.0010 -0.8830
  709MOL0     C93475   3.428   9.824   5.785  0.2942  0.2801 -0.0537
  709MOL0     C93476   3.410   9.798   5.937 -0.9736 -0.0447 -0.3018
  709MOL0     C93477   3.264   9.823   5.987  0.4351 -0.3917  0.2810
  709MOL0     C93478   3.238   9.972   6.029  1.3957 -0.4640 -1.0612
  709MOL0     C93479   3.103   9.977   6.103  0.1549 -0.4007 -0.3036
  709MOL0     O93480   3.074  10.109   6.154  0.3600  0.1077  0.5004
  709MOL0     C93481   2.977  10.112   6.249 -0.0205  0.2501  0.3842
  709MOL0     C93482   2.991  10.220   6.335 -0.0826  0.1634 -1.0504
  709MOL0     C93483   2.908  10.244   6.446  0.7677 -1.0971  0.9077
  709MOL0     C93484   2.793  10.159   6.461 -0.6279 -0.0160 -0.3906
  709MOL0     C93485   2.699  10.170   6.570 -0.7309 -0.7144  0.1737
  709MOL0     O93486   2.725  10.260   6.676  0.2396  0.2982 -0.2709
  709MOL0     C93487   2.623  10.297   6.757  0.1010  0.7691  0.3835
  709MOL0     C93488   2.546  10.417   6.737 -0.9082 -0.3284  0.7910
  709MOL0     C93489   2.447  10.456   6.819  0.2700 -0.6115 -0.4574
  709MOL0     C93490   2.413  10.384   6.932 -0.3742  0.0447  0.0438
  709MOL0     O93491   2.332  10.449   7.022 -0.0633 -0.2673  0.0271
  709MOL0     C93492   2.320  10.397   7.160 -0.5896  0.2952 -0.2770
  709MOL0     C93493   2.212  10.491   7.235  0.4918  0.1763 -0.0355
  709MOL0     C93494   2.070  10.467   7.175  0.6658  0.3860 -0.0647
  709MOL0     C93495   2.014  10.326   7.198  0.2481 -0.4986  0.4046
  709MOL0     C93496   2.009  10.246   7.063 -0.0182 -0.4410 -0.3911
  709MOL0     C93497   1.918  10.120   7.074 -0.1868 -1.1111 -0.2154
  709MOL0     C93498   1.970  10.029   7.193  0.3757  0.0802  0.0368
  709MOL0     C93499   2.122   9.990   7.189  0.6826  0.3457 -0.5050
  709MOL0    Cl93500   2.114   9.856   7.308  0.0548 -0.2251 -0.3685
  709MOL0     C93501   2.501  10.283   6.963 -1.0958 -1.2117 -1.2666
  709MOL0     C93502   2.601  10.231   6.880 -0.1921 -0.6816  0.5132
  709MOL0     O93503   2.596  10.102   6.568  0.7032 -0.2960 -0.1234
  709MOL0     C93504   2.782  10.046   6.372 -0.1568 -0.3892 -0.4876
  709MOL0     C93505   2.869  10.017   6.269 -0.4622 -0.4280 -0.6999
  709MOL0     N93506   3.437   9.943   5.719  0.5799 -0.0101  0.7915
  709MOL0     N93507   3.442   9.929   5.595  0.0614  0.1966 -0.8630
  709MOL0     C93508   2.497   9.074   5.517  0.1468  0.0345  0.7096
  709MOL0     C93509   2.385   9.021   5.437 -0.0121 -0.7298 -0.5745
  709MOL0     C93510   2.040   9.015   5.106  0.2202  0.4271 -0.2849
  709MOL0     C93511   1.972   9.054   4.979  0.1181  0.0034 -0.6328
  709MOL0     C93512   1.870   8.980   4.928  0.5455  0.1594 -0.5181
  709MOL0     C93513   1.812   8.881   5.005  0.4606 -0.0298 -0.4043
  709MOL0     O93514   1.704   8.818   4.944  0.6063 -0.1340  0.5018
  709MOL0     C93515   1.619   8.727   5.015 -0.2945  0.2212  1.1664
  709MOL0     C93516   1.521   8.810   5.103  1.4388  0.9683 -0.2343
  709MOL0     C93517   1.439   8.707   5.185  0.4348  0.3493  0.2616
  709MOL0     C93518   1.372   8.772   5.305 -0.3477 -0.1048  0.4337
  709MOL0     C93519   1.239   8.825   5.261 -0.1853 -0.9442  0.3682
  709MOL0     C93520   1.124   8.846   5.229 -0.4122 -0.1039 -0.3820
  709MOL0     C93521   1.874   8.841   5.116 -0.0221  0.4146  0.9139
  709MOL0     C93522   1.982   8.906   5.172 -0.2472 -0.5191 -0.2948
  709MOL0     H93523   2.402   9.240   5.173  2.4071  3.5769  1.5196
  709MOL0     H93524   2.589   9.321   5.297 -1.5589  0.6683 -0.3865
  709MOL0     H93525   2.737   9.408   5.467 -2.2237 -0.6876  0.3874
  709MOL0     H93526   2.800   9.258   5.402 -0.7119 -2.6405  0.7631
  709MOL0     H93527   2.906   9.184   5.604  0.3009 -0.0210 -1.2955
  709MOL0     H93528   2.880   9.328   5.692 -1.3948 -0.0345  0.0784
  709MOL0     H93529   3.015   9.314   5.413  1.9644 -0.1061  0.9099
  709MOL0     H93530   3.102   9.287   5.564  2.5313 -0.0301 -1.9014
  709MOL0     H93531   2.958   9.537   5.503  0.4194 -1.6539 -1.1522
  709MOL0     H93532   3.049   9.511   5.654 -2.0510 -2.4078  1.1888
  709MOL0     H93533   3.171   9.501   5.373  0.2414 -1.9779  0.6516
  709MOL0     H93534   3.258   9.491   5.534  0.9852 -3.4050 -3.5024
  709MOL0     H93535   3.177   9.743   5.554  1.4785 -1.8380  1.1652
  709MOL0     H93536   3.098   9.714   5.401  0.0342 -3.8288 -1.3077
  709MOL0     H93537   3.307   9.662   5.276  1.4839  3.4338 -2.3831
  709MOL0     H93538   3.277   9.824   5.326 -2.5262 -1.9269 -1.2192
  709MOL0     H93539   3.519   9.778   5.372  0.9575 -1.2150 -1.4344
  709MOL0     H93540   3.488   9.627   5.431  2.6899  1.4726 -0.3421
  709MOL0     H93541   3.441   9.612   5.695  0.8632  0.0562  0.2661
  709MOL0     H93542   3.482   9.862   5.989 -2.7153 -0.3421  2.6978
  709MOL0     H93543   3.433   9.693   5.957  0.3356  0.4428  0.8987
  709MOL0     H93544   3.228   9.749   6.059 -2.9368 -1.0202 -1.8386
  709MOL0     H93545   3.199   9.815   5.899  2.2489  1.8518 -1.3842
  709MOL0     H93546   3.316   9.999   6.101 -0.1441 -1.3832  1.0564
  709MOL0     H93547   3.246  10.040   5.944  3.3934 -1.0424 -1.3891
  709MOL0     H93548   3.116   9.900   6.179  1.5368 -1.3358 -1.4269
  709MOL0     H93549   3.026   9.942   6.032  1.4619 -0.5932 -1.6776
  709MOL0     H93550   3.079  10.281   6.318 -0.6766  0.4269 -3.4153
  709MOL0     H93551   2.922  10.331   6.508  1.1129 -0.4250 -0.0906
  709MOL0     H93552   2.548  10.482   6.650 -0.7839 -1.9129 -0.4468
  709MOL0     H93553   2.392  10.549   6.806 -2.2672 -1.3868  3.2038
  709MOL0     H93554   2.414  10.412   7.212  0.0699  1.8508 -1.8143
  709MOL0     H93555   2.306  10.290   7.173  3.3752 -0.2405  0.8077
  709MOL0     H93556   2.250  10.594   7.230  1.6739 -0.2894 -1.1764
  709MOL0     H93557   2.207  10.457   7.339 -2.3373 -1.2575 -0.5495
  709MOL0     H93558   2.063  10.491   7.069 -0.8602 -1.0583 -0.3196
  709MOL0     H93559   2.007  10.543   7.223 -1.0410  0.2154 -1.9403
  709MOL0     H93560   2.063  10.277   7.283 -1.6362 -0.3041  1.6718
  709MOL0     H93561   1.910  10.332   7.230 -1.5518 -1.6331 -4.4933
  709MOL0     H93562   2.110  10.210   7.041  0.1744 -1.2728  1.6031
  709MOL0     H93563   1.972  10.312   6.985  4.7151  2.8765 -0.2012
  709MOL0     H93564   1.933  10.050   6.991  2.4607 -1.2214  0.2541
  709MOL0     H93565   1.815  10.150   7.092  0.2679  1.6818 -1.6410
  709MOL0     H93566   1.957  10.079   7.290  3.5158 -0.4773  0.8271
  709MOL0     H93567   1.920   9.932   7.198 -0.7140  0.6872  2.2264
  709MOL0     H93568   2.186  10.075   7.215  2.2205 -1.5493  2.5271
  709MOL0     H93569   2.160   9.953   7.093 -0.2640  1.3545 -1.3052
  709MOL0     H93570   2.511  10.229   7.057  1.2770 -0.4465 -1.0059
  709MOL0     H93571   2.672  10.155   6.910  0.3779 -0.4215 -0.1616
  709MOL0     H93572   2.693   9.988   6.396 -1.9842  1.7142 -1.7329
  709MOL0     H93573   2.855   9.932   6.203 -0.0356 -0.7769 -0.3396
  709MOL0     H93574   2.535   9.032   5.610  3.9057  1.9320  0.2384
  709MOL0     H93575   2.326   8.938   5.475 -0.4436 -0.6254 -1.0016
  709MOL0     H93576   2.013   9.140   4.928  2.7349 -0.5072  0.4584
  709MOL0     H93577   1.814   9.014   4.841 -0.2642 -0.1289 -0.1264
  709MOL0     H93578   1.679   8.661   5.079 -0.7781  0.1770  1.5838
  709MOL0     H93579   1.569   8.671   4.937  2.8357  0.4257 -1.1826
  709MOL0     H93580   1.572   8.872   5.178  2.1318 -0.0892  0.1828
  709MOL0     H93581   1.460   8.877   5.041 -0.9776 -0.1892  0.7797
  709MOL0     H93582   1.510   8.634   5.224 -0.2118 -0.4723 -0.0743
  709MOL0     H93583   1.370   8.663   5.113 -0.9209  1.3179  0.9124
  709MOL0     H93584   1.362   8.702   5.388 -0.6367  2.5119  2.7700
  709MOL0     H93585   1.432   8.852   5.350 -2.5625  1.8328  0.1258
  709MOL0     H93586   1.023   8.854   5.193 -0.3080 -0.9110 -0.8769
  709MOL0     H93587   1.852   8.750   5.170 -0.5295  0.4070  0.6990
  709MOL0     H93588   2.028   8.861   5.260  2.4511 -0.0358 -1.3738
  710MOL0     O93589   9.828  10.629   8.912 -0.1591 -0.4537 -0.4418
  710MOL0     C93590   9.727  10.626   8.840 -0.5691  0.8225  0.6325
  710MOL0     O93591   9.597  10.622   8.879  0.3035 -0.0134  0.3264
  710MOL0     C93592   9.567  10.583   9.012 -0.7798 -0.0725  0.0524
  710MOL0     C93593   9.430  10.582   9.022  1.1210 -0.4332  0.2571
  710MOL0     C93594   9.363  10.542   9.135 -0.3337  0.3162 -0.3314
  710MOL0     C93595   9.436  10.493   9.245  0.1282 -0.2530 -0.4244
  710MOL0     O93596   9.376  10.445   9.358 -0.6266 -0.3511 -0.1004
  710MOL0     C93597   9.311  10.324   9.360  1.0630  0.2120  0.6794
  710MOL0     C93598   9.266  10.281   9.497 -0.3876  0.7665  0.2709
  710MOL0     C93599   9.165  10.387   9.554  0.6696  0.6963 -0.0575
  710MOL0     C93600   9.089  10.307   9.655  0.4196 -0.0229 -0.2245
  710MOL0     C93601   8.955  10.377   9.702  0.1473  0.0062  0.8021
  710MOL0     C93602   8.858  10.261   9.745  0.1640  0.3315 -0.5011
  710MOL0     C93603   8.743  10.306   9.840 -0.0119  0.0979  0.4382
  710MOL0     C93604   8.727  10.229   9.979 -0.8982 -0.4743 -0.0937
  710MOL0     N93605   8.626  10.289  10.072  0.4034  0.0465 -0.3726
  710MOL0     C93606   8.518  10.365  10.028 -0.1744 -0.0913 -0.7023
  710MOL0     C93607   8.467  10.407  10.144  0.2857 -0.2583 -0.2723
  710MOL0     C93608   8.345  10.496  10.159 -0.8126  0.7491 -0.0038
  710MOL0     C93609   8.222  10.392  10.152  0.1522 -0.6021  0.5661
  710MOL0     C93610   8.120  10.446  10.256  0.1457  0.3041 -0.0002
  710MOL0     C93611   8.001  10.356  10.265  0.5114  0.0896 -0.1249
  710MOL0     O93612   7.925  10.359  10.142  0.4831 -0.0781  0.3974
  710MOL0     C93613   7.816  10.440  10.127  0.3688 -0.3719 -0.5372
  710MOL0     C93614   7.790  10.560  10.199  0.6144  0.4235 -0.3484
  710MOL0     C93615   7.690  10.644  10.151  0.0102 -0.3921 -0.9170
  710MOL0     C93616   7.607  10.617  10.042 -0.3378  0.5753 -0.0825
  710MOL0     C93617   7.497  10.711  10.007  0.0898  0.2778  0.9565
  710MOL0     O93618   7.464  10.809  10.100 -0.5213  1.1587 -0.4873
  710MOL0     C93619   7.351  10.875  10.078  0.1493  0.0592 -0.2065
  710MOL0     C93620   7.346  11.017  10.086 -0.2360 -0.4837  0.4240
  710MOL0     C93621   7.227  11.090  10.085  0.2624 -0.3093 -0.0496
  710MOL0     C93622   7.103  11.014  10.075  0.3137  0.0295 -0.2628
  710MOL0     O93623   6.976  11.066  10.084 -0.0670  0.3059  0.5717
  710MOL0     C93624   6.962  11.201  10.128 -0.3529  0.2942 -0.3068
  710MOL0     C93625   6.831  11.188  10.196 -0.0835 -0.0630  0.0909
  710MOL0     C93626   6.774  11.324  10.247  0.7790 -0.2872 -0.0471
  710MOL0     C93627   6.630  11.307  10.289 -0.4366  0.4254 -0.0907
  710MOL0     C93628   6.560  11.420  10.354  0.2424 -0.3957  0.5160
  710MOL0     C93629   6.406  11.408  10.322  0.2317  0.1599 -0.6470
  710MOL0     C93630   6.327  11.542  10.357 -0.9143 -0.4436  1.2460
  710MOL0     C93631   6.175  11.528  10.358  0.4831 -0.5075  0.1270
  710MOL0    Cl93632   6.103  11.653  10.466  0.5450 -0.0076  0.5045
  710MOL0     C93633   7.114  10.879  10.049  0.6988  0.7083 -0.5319
  710MOL0     C93634   7.237  10.812  10.042  0.4415 -0.0396 -0.3061
  710MOL0     O93635   7.442  10.687   9.897 -0.5393  0.9010 -0.5037
  710MOL0     C93636   7.640  10.503   9.962  0.4184  0.5532 -0.0161
  710MOL0     C93637   7.739  10.418  10.012  0.0209  0.4465 -0.5676
  710MOL0     N93638   8.536  10.367  10.255 -0.3005 -0.2130 -0.4444
  710MOL0     N93639   8.633  10.292  10.209 -0.4634  0.5239  1.0717
  710MOL0     C93640   9.574  10.499   9.231  0.4571 -0.7090 -0.2016
  710MOL0     C93641   9.648  10.558   9.123  0.9389 -0.4770 -0.5486
  710MOL0     C93642   9.757  10.625   8.696 -0.3127 -0.5154  0.1240
  710MOL0     C93643   9.725  10.512   8.613  0.8396  0.0032  0.8149
  710MOL0     C93644   9.750  10.516   8.475 -0.9093  0.4837 -0.2447
  710MOL0     C93645   9.810  10.625   8.415  0.4651  0.2803 -0.4137
  710MOL0     O93646   9.799  10.636   8.276 -0.3899  0.4128  0.0764
  710MOL0     C93647   9.907  10.709   8.211 -0.5809  0.0352  0.1065
  710MOL0     C93648   9.928  10.651   8.070 -0.5958 -0.7231 -0.3726
  710MOL0     C93649   9.817  10.665   7.968  0.5500  0.6030  0.2159
  710MOL0     C93650   9.876  10.643   7.830  0.5654 -0.0479 -0.4244
  710MOL0     C93651   9.943  10.764   7.785  0.0706 -0.9204 -0.7045
  710MOL0     C93652  10.011  10.857   7.744  0.1526  0.7814 -0.0536
  710MOL0     C93653   9.872  10.719   8.503 -0.1169 -0.8398 -0.0287
  710MOL0     C93654   9.838  10.729   8.639 -0.1665  0.2654 -0.3082
  710MOL0     H93655   9.371  10.630   8.945  2.1347  0.5270  0.0591
  710MOL0     H93656   9.258  10.565   9.144 -0.4728 -0.5165  0.3357
  710MOL0     H93657   9.385  10.252   9.326  1.1147  0.1616  0.8964
  710MOL0     H93658   9.226  10.325   9.291  1.4097  0.6037  0.2526
  710MOL0     H93659   9.353  10.272   9.563  1.8070 -2.9604 -2.7182
  710MOL0     H93660   9.226  10.180   9.483  1.3008 -0.4382  3.1375
  710MOL0     H93661   9.099  10.417   9.472  0.5321  2.9117  0.7874
  710MOL0     H93662   9.204  10.482   9.592 -0.2567  0.8719  0.4994
  710MOL0     H93663   9.075  10.207   9.614 -0.5380  0.2371 -0.5475
  710MOL0     H93664   9.153  10.292   9.743 -0.2753  2.7361  0.8510
  710MOL0     H93665   8.911  10.422   9.613 -2.5511 -2.6861  0.6340
  710MOL0     H93666   8.971  10.454   9.779 -0.8544  1.7263 -0.6436
  710MOL0     H93667   8.913  10.179   9.793 -0.9261  0.8095  1.6404
  710MOL0     H93668   8.816  10.225   9.650  1.6578  1.6468 -1.7273
  710MOL0     H93669   8.743  10.414   9.856 -3.9834  0.4319 -0.6805
  710MOL0     H93670   8.648  10.288   9.788  1.4545 -2.8994 -1.5032
  710MOL0     H93671   8.822  10.228  10.034 -0.1563  0.6623 -1.2995
  710MOL0     H93672   8.698  10.126   9.959 -1.8117 -0.1809 -0.3229
  710MOL0     H93673   8.476  10.392   9.932 -0.8887  2.3568  0.2195
  710MOL0     H93674   8.344  10.575  10.084 -0.9527  0.9058  0.1624
  710MOL0     H93675   8.354  10.540  10.259  2.3286 -0.6620  0.4664
  710MOL0     H93676   8.248  10.289  10.179  0.7498 -0.6097 -0.0167
  710MOL0     H93677   8.168  10.394  10.057 -0.6400  0.3884  1.0256
  710MOL0     H93678   8.174  10.434  10.350  1.5407 -1.9545 -0.9950
  710MOL0     H93679   8.091  10.551  10.242  0.5362  0.4247  0.0843
  710MOL0     H93680   7.937  10.360  10.354 -0.0605 -1.5101 -0.4309
  710MOL0     H93681   8.041  10.254  10.271  1.4973  0.2398 -2.6030
  710MOL0     H93682   7.857  10.588  10.280  1.0935 -3.7521  0.9197
  710MOL0     H93683   7.663  10.739  10.195  0.7198  0.0499 -1.4025
  710MOL0     H93684   7.442  11.067  10.099  0.3430 -1.7698  1.3488
  710MOL0     H93685   7.232  11.195  10.113 -1.1219  0.2751 -1.8635
  710MOL0     H93686   6.984  11.270  10.046 -0.3860 -0.6382 -1.1156
  710MOL0     H93687   7.043  11.224  10.198 -2.7546  1.0595  2.4069
  710MOL0     H93688   6.846  11.119  10.280  2.9515 -1.1397 -1.2192
  710MOL0     H93689   6.759  11.130  10.137 -1.1083  2.2334 -1.0502
  710MOL0     H93690   6.785  11.397  10.166  0.8234  0.3044  0.4754
  710MOL0     H93691   6.828  11.369  10.331 -3.2974  4.1255  0.6227
  710MOL0     H93692   6.580  11.257  10.206  1.1663 -2.0418  0.3177
  710MOL0     H93693   6.619  11.224  10.359  2.9009 -2.5092 -2.6737
  710MOL0     H93694   6.602  11.511  10.310 -1.2562 -0.2086 -0.6285
  710MOL0     H93695   6.588  11.409  10.459  0.4040 -2.8757  0.2587
  710MOL0     H93696   6.377  11.319  10.380  0.9092 -0.0610 -0.6378
  710MOL0     H93697   6.397  11.371  10.220 -1.2479  3.2019 -1.7134
  710MOL0     H93698   6.369  11.574  10.453  0.7548  2.1536 -0.2262
  710MOL0     H93699   6.358  11.616  10.282  0.1579 -0.7840  1.3300
  710MOL0     H93700   6.145  11.431  10.397 -6.5993  1.1856  0.2002
  710MOL0     H93701   6.128  11.530  10.259 -0.7064 -0.5235  0.6850
  710MOL0     H93702   7.021  10.829  10.025  1.1511  0.6376 -2.2377
  710MOL0     H93703   7.241  10.706  10.019 -1.1341 -0.7141  2.1951
  710MOL0     H93704   7.583  10.479   9.872  0.8409 -3.5000  0.5872
  710MOL0     H93705   7.768  10.324   9.966  1.2846 -0.5705  2.0713
  710MOL0     H93706   9.632  10.456   9.311 -0.3071 -1.1006  0.1586
  710MOL0     H93707   9.756  10.554   9.134  1.1081 -1.4780 -2.1491
  710MOL0     H93708   9.679  10.422   8.653  1.8628 -0.4162  1.0690
  710MOL0     H93709   9.710  10.439   8.409  1.9563 -2.7242  1.4545
  710MOL0     H93710  10.005  10.693   8.257 -0.9492 -1.4757  0.4142
  710MOL0     H93711   9.889  10.816   8.223  0.2489  0.4444 -1.8312
  710MOL0     H93712  10.024  10.691   8.036 -1.6601  1.4666 -0.9467
  710MOL0     H93713   9.924  10.543   8.088 -1.1112 -0.4530  1.2417
  710MOL0     H93714   9.774  10.765   7.983  2.3632  1.7979 -1.9470
  710MOL0     H93715   9.740  10.592   7.994  1.0737 -1.7792 -4.0190
  710MOL0     H93716   9.944  10.558   7.819  2.0122  1.2330 -1.7854
  710MOL0     H93717   9.793  10.635   7.759 -0.1031 -0.4180  0.3771
  710MOL0     H93718  10.062  10.944   7.709 -0.0735  1.8724  2.1388
  710MOL0     H93719   9.925  10.802   8.459 -0.7795  0.0874  0.8602
  710MOL0     H93720   9.878  10.810   8.700  0.4166 -0.7204  0.6533
  711MOL0     O93721   9.213  10.467   4.521  0.0023 -0.5190  0.0424
  711MOL0     C93722   9.233  10.466   4.646  0.7978  0.3207 -0.1991
  711MOL0     O93723   9.161  10.401   4.739 -0.9663  0.6701  0.5323
  711MOL0     C93724   9.057  10.331   4.703 -0.1643 -0.0423  0.4808
  711MOL0     C93725   8.925  10.360   4.743 -0.9695 -1.1089  0.5025
  711MOL0     C93726   8.822  10.288   4.707  0.7796 -0.0935  0.0895
  711MOL0     C93727   8.828  10.171   4.641 -0.8820  0.5649  0.3068
  711MOL0     O93728   8.726  10.089   4.610 -0.1051 -0.0268  0.1499
  711MOL0     C93729   8.594  10.152   4.602 -0.1518 -0.6155 -0.9630
  711MOL0     C93730   8.471  10.073   4.558 -0.5521 -0.3919  0.3818
  711MOL0     C93731   8.339  10.114   4.623 -0.2755  0.3176 -0.3076
  711MOL0     C93732   8.226  10.033   4.558  0.3388 -0.4394 -0.1936
  711MOL0     C93733   8.083  10.063   4.612 -0.9743  0.6530  0.1831
  711MOL0     C93734   8.021  10.207   4.632  0.6664 -0.8663 -0.1342
  711MOL0     C93735   7.900  10.213   4.719 -0.2321  0.0903  0.8887
  711MOL0     C93736   7.788  10.136   4.656 -0.0317 -0.2063 -0.6157
  711MOL0     N93737   7.672  10.141   4.739 -0.4363 -0.1707 -0.5921
  711MOL0     C93738   7.586  10.244   4.753  0.9737 -0.9287 -0.1010
  711MOL0     C93739   7.474  10.191   4.818 -0.7614 -0.3029 -0.1758
  711MOL0     C93740   7.352  10.266   4.847  1.0063  0.8651  0.4539
  711MOL0     C93741   7.248  10.266   4.730 -0.1076  0.2928  1.1413
  711MOL0     C93742   7.123  10.359   4.742  0.4893  0.5581  0.3670
  711MOL0     C93743   7.154  10.508   4.745 -0.7692  0.2695 -0.0268
  711MOL0     O93744   7.196  10.551   4.875  0.5109 -0.7618 -0.8859
  711MOL0     C93745   7.100  10.562   4.967 -0.1193 -0.6281 -1.0151
  711MOL0     C93746   6.962  10.569   4.946 -0.7683  0.1941  0.3549
  711MOL0     C93747   6.874  10.600   5.053  0.5752 -0.1256  0.5684
  711MOL0     C93748   6.919  10.617   5.178  0.6664 -0.6391  0.1719
  711MOL0     C93749   6.833  10.665   5.287 -0.1849 -0.6852  0.0571
  711MOL0     O93750   6.900  10.713   5.399  0.3291 -0.1292  0.2068
  711MOL0     C93751   6.816  10.775   5.489  0.2139  0.8953 -0.4047
  711MOL0     C93752   6.819  10.914   5.498 -0.2087  0.0529  0.3720
  711MOL0     C93753   6.752  10.987   5.597  0.3699  0.1696  0.8894
  711MOL0     C93754   6.669  10.921   5.688  0.2290  0.1857 -0.2013
  711MOL0     O93755   6.595  10.988   5.788 -0.7362 -0.5630  0.0898
  711MOL0     C93756   6.640  11.119   5.824  0.2775 -0.1744  0.8433
  711MOL0     C93757   6.626  11.122   5.979 -0.6252  0.1957  0.1770
  711MOL0     C93758   6.719  11.028   6.063 -0.7703  0.4135 -0.0556
  711MOL0     C93759   6.871  11.010   6.021 -0.0597  0.3383  0.2771
  711MOL0     C93760   6.958  11.124   6.048  0.2148 -0.4285  0.1621
  711MOL0     C93761   7.104  11.095   6.052  0.6209  0.4798 -0.1713
  711MOL0     C93762   7.162  11.043   5.922 -0.7099  0.1282 -0.2545
  711MOL0     C93763   7.299  10.995   5.950  0.3527  0.1957 -0.4650
  711MOL0    Cl93764   7.388  10.998   5.792  0.1878 -0.4630  0.6467
  711MOL0     C93765   6.664  10.779   5.677  0.0690 -0.7315  0.7111
  711MOL0     C93766   6.735  10.709   5.579  0.1725 -0.5689  0.2752
  711MOL0     O93767   6.712  10.665   5.262 -0.1243 -0.2757  0.5126
  711MOL0     C93768   7.047  10.586   5.205 -0.1070  0.6098 -0.1647
  711MOL0     C93769   7.146  10.566   5.102  0.4831  1.0841  0.1307
  711MOL0     N93770   7.504  10.064   4.858 -0.5088 -0.0505 -0.6420
  711MOL0     N93771   7.619  10.039   4.811 -0.3920  0.8200  0.6148
  711MOL0     C93772   8.956  10.135   4.596 -0.6163  0.6124 -0.2588
  711MOL0     C93773   9.067  10.208   4.634  0.3486 -0.2885 -0.0569
  711MOL0     C93774   9.350  10.529   4.690 -0.2893  0.1324 -0.0920
  711MOL0     C93775   9.453  10.561   4.596 -0.1487 -0.3982 -0.1183
  711MOL0     C93776   9.557  10.643   4.639  0.2369 -0.4455 -0.4117
  711MOL0     C93777   9.578  10.683   4.773  0.3810 -0.3406 -1.4467
  711MOL0     O93778   9.692  10.764   4.792  0.2859 -0.5265 -0.5776
  711MOL0     C93779   9.735  10.797   4.933 -0.0288 -0.3921  0.5038
  711MOL0     C93780   9.799  10.932   4.949 -0.4999  0.2816 -0.0770
  711MOL0     C93781   9.853  10.950   5.092 -0.6233 -0.0859  0.4806
  711MOL0     C93782   9.762  11.024   5.181 -0.8286  0.0665  0.7927
  711MOL0     C93783   9.803  11.013   5.319  1.3285  0.2707  0.1175
  711MOL0     C93784   9.850  10.997   5.430  0.0292  0.4664  0.1547
  711MOL0     C93785   9.489  10.644   4.873  0.4949 -0.3891 -0.2748
  711MOL0     C93786   9.366  10.574   4.827  0.1061 -0.8262 -0.0773
  711MOL0     H93787   8.907  10.451   4.800  2.9817 -0.1824  0.5888
  711MOL0     H93788   8.723  10.317   4.741  0.3927  0.5367 -1.4663
  711MOL0     H93789   8.604  10.225   4.520 -1.8627 -0.9210 -1.4743
  711MOL0     H93790   8.557  10.200   4.693 -3.2830  1.6710 -3.2017
  711MOL0     H93791   8.499   9.970   4.581 -1.2722 -0.1816  2.4001
  711MOL0     H93792   8.465  10.091   4.450 -2.2722 -1.8676  0.1909
  711MOL0     H93793   8.324  10.222   4.623 -0.1706  0.3337  0.3317
  711MOL0     H93794   8.360  10.086   4.727 -0.6837 -1.8264 -0.7504
  711MOL0     H93795   8.230  10.050   4.450 -3.1929  1.1640 -0.2038
  711MOL0     H93796   8.252   9.930   4.582  1.7154 -0.0007  0.3270
  711MOL0     H93797   8.073  10.009   4.707 -3.5518  1.7762  0.6264
  711MOL0     H93798   8.018  10.005   4.547  1.3161 -3.5306  1.2522
  711MOL0     H93799   7.989  10.247   4.535 -0.7700 -0.0803  0.6282
  711MOL0     H93800   8.094  10.272   4.681 -0.3328  0.9645 -0.9725
  711MOL0     H93801   7.923  10.179   4.820 -3.4937 -2.9007  0.8291
  711MOL0     H93802   7.866  10.315   4.735 -0.4670 -0.0231  1.1149
  711MOL0     H93803   7.812  10.033   4.629 -2.4753 -1.1900  0.6700
  711MOL0     H93804   7.764  10.199   4.571 -0.5168 -1.9056 -1.7828
  711MOL0     H93805   7.599  10.346   4.719  2.5121 -1.6254 -1.7476
  711MOL0     H93806   7.393  10.363   4.875  0.3073  1.2805  0.0646
  711MOL0     H93807   7.312  10.233   4.943  3.4347  0.9125  1.5634
  711MOL0     H93808   7.214  10.162   4.729 -1.2286  0.6419  1.7285
  711MOL0     H93809   7.294  10.302   4.637  0.5722  0.0324  1.3682
  711MOL0     H93810   7.062  10.349   4.651  0.1935  1.5038  0.4519
  711MOL0     H93811   7.066  10.335   4.833  1.5237 -2.0344  0.4205
  711MOL0     H93812   7.070  10.568   4.708  0.1854  1.4123 -0.4334
  711MOL0     H93813   7.227  10.521   4.664 -0.0115 -0.3329  0.5524
  711MOL0     H93814   6.908  10.546   4.854 -0.3632  0.2344  0.1047
  711MOL0     H93815   6.767  10.611   5.039  0.6672 -0.5554 -0.5699
  711MOL0     H93816   6.886  10.962   5.427  0.6852  0.9922  1.7981
  711MOL0     H93817   6.765  11.094   5.598  0.5331  0.1746  3.2036
  711MOL0     H93818   6.563  11.186   5.784 -1.5128 -1.3014  2.2239
  711MOL0     H93819   6.737  11.147   5.782 -0.0552  0.4085  0.4497
  711MOL0     H93820   6.520  11.104   5.995 -1.4285  2.6926 -1.6662
  711MOL0     H93821   6.660  11.222   6.008  3.9555 -0.6462 -1.3269
  711MOL0     H93822   6.679  10.926   6.064 -2.2436  0.9710  1.1967
  711MOL0     H93823   6.721  11.054   6.169  0.4917  1.1742 -0.2445
  711MOL0     H93824   6.911  10.918   6.066  1.0866  1.3821  1.4478
  711MOL0     H93825   6.872  10.993   5.913  0.3295 -0.3368  0.3784
  711MOL0     H93826   6.947  11.163   6.149 -0.3191  0.3710 -0.1930
  711MOL0     H93827   6.934  11.200   5.973  1.3905 -0.4813 -0.2929
  711MOL0     H93828   7.118  11.022   6.131 -1.9767 -1.7060 -1.5731
  711MOL0     H93829   7.158  11.188   6.073  1.2406  0.5339 -1.8476
  711MOL0     H93830   7.107  10.956   5.883 -1.6628 -0.4154  2.1000
  711MOL0     H93831   7.163  11.128   5.854  1.8372  0.0767 -0.3534
  711MOL0     H93832   7.290  10.897   5.998 -0.5729  0.1604 -0.6923
  711MOL0     H93833   7.342  11.060   6.026  0.8915 -1.1098  0.3759
  711MOL0     H93834   6.595  10.725   5.741 -0.5420  0.5946  1.1965
  711MOL0     H93835   6.735  10.601   5.576 -2.0151 -0.5778 -0.7256
  711MOL0     H93836   7.086  10.588   5.306 -0.5673  0.1035  0.0284
  711MOL0     H93837   7.251  10.546   5.121  0.6096  0.8612 -0.7273
  711MOL0     H93838   8.961  10.043   4.538 -2.3178  0.2448  0.1248
  711MOL0     H93839   9.157  10.170   4.586  1.2394 -0.0150  1.3543
  711MOL0     H93840   9.441  10.530   4.492  1.2728 -1.6226  0.0639
  711MOL0     H93841   9.618  10.676   4.556 -0.9824  1.5282 -0.6018
  711MOL0     H93842   9.801  10.719   4.972 -0.0111 -1.3892 -1.4032
  711MOL0     H93843   9.653  10.792   5.005 -0.4725 -1.0506 -0.0403
  711MOL0     H93844   9.892  10.915   4.893 -0.0427 -1.8379  1.1938
  711MOL0     H93845   9.749  11.016   4.901 -0.1366  1.4010  1.4251
  711MOL0     H93846   9.943  11.011   5.102 -1.6228  2.1280 -2.5656
  711MOL0     H93847   9.886  10.857   5.141  0.8055 -0.4779 -1.1442
  711MOL0     H93848   9.769  11.130   5.154 -0.1828  0.1941  1.4263
  711MOL0     H93849   9.662  10.980   5.171 -0.2614 -0.7331 -2.3213
  711MOL0     H93850   9.908  10.978   5.518  3.8749  1.5129 -1.9370
  711MOL0     H93851   9.500  10.664   4.979 -1.2545 -1.6529  0.1967
  711MOL0     H93852   9.299  10.557   4.911  0.7025 -1.3294  0.3002
  712MOL0     O93853   5.718   8.004   4.610  0.3098 -0.2546 -0.5344
  712MOL0     C93854   5.798   8.098   4.630  0.4684  0.1838  0.0560
  712MOL0     O93855   5.925   8.110   4.578  0.0178  0.8789 -0.0663
  712MOL0     C93856   5.971   8.018   4.489  1.1953  0.1115 -0.7363
  712MOL0     C93857   6.102   7.958   4.512 -0.6461 -0.6792 -0.6008
  712MOL0     C93858   6.159   7.878   4.412 -0.9402 -0.6526  0.1626
  712MOL0     C93859   6.099   7.866   4.288  0.1816 -0.4268 -0.3130
  712MOL0     O93860   6.162   7.794   4.195 -0.3286  0.1698  0.6030
  712MOL0     C93861   6.250   7.881   4.106  1.6516 -0.6941 -0.6149
  712MOL0     C93862   6.347   7.788   4.023 -0.0369  0.5143 -0.2451
  712MOL0     C93863   6.435   7.870   3.922  0.6565  0.1368 -0.0715
  712MOL0     C93864   6.535   7.952   4.015  0.9016 -0.6254  0.2636
  712MOL0     C93865   6.651   8.015   3.929  0.6312 -0.9354 -0.3198
  712MOL0     C93866   6.701   8.145   3.985 -0.0650 -0.0070  0.0425
  712MOL0     C93867   6.805   8.219   3.896 -0.0036 -0.0633  1.1068
  712MOL0     C93868   6.864   8.335   3.971 -0.0974  0.7876  0.5923
  712MOL0     N93869   6.762   8.404   4.045  0.2968 -0.1454  0.4515
  712MOL0     C93870   6.662   8.465   3.975  0.1984  0.4071 -0.0685
  712MOL0     C93871   6.562   8.488   4.070  0.3101  0.3761  0.8073
  712MOL0     C93872   6.426   8.551   4.051 -0.1730 -0.0842 -0.0340
  712MOL0     C93873   6.435   8.696   4.097 -0.1333 -0.1161 -0.0181
  712MOL0     C93874   6.464   8.726   4.250  0.9376  0.7522  0.4658
  712MOL0     C93875   6.352   8.663   4.334  0.7429  0.3504  0.0766
  712MOL0     O93876   6.216   8.681   4.273  0.1370 -0.9366 -0.1614
  712MOL0     C93877   6.120   8.702   4.364  0.0803  0.4082 -0.3269
  712MOL0     C93878   6.115   8.819   4.449 -0.6395 -0.0268  0.3565
  712MOL0     C93879   6.011   8.828   4.541  0.1009 -0.1748  0.0896
  712MOL0     C93880   5.906   8.733   4.557 -0.3044 -0.1669 -0.2351
  712MOL0     C93881   5.788   8.754   4.631 -0.3547 -0.1633  0.3618
  712MOL0     O93882   5.777   8.871   4.696  1.1407 -0.0017  0.2198
  712MOL0     C93883   5.683   8.884   4.801 -0.2989  0.1476 -0.5475
  712MOL0     C93884   5.550   8.934   4.775 -0.6710 -0.0786 -0.0088
  712MOL0     C93885   5.445   8.925   4.869  0.6440  0.3463  0.1209
  712MOL0     C93886   5.472   8.877   4.999 -0.2201 -0.0580 -1.9096
  712MOL0     O93887   5.376   8.882   5.101  0.0766 -0.5403  0.5139
  712MOL0     C93888   5.238   8.906   5.063  0.1175 -0.2558  0.2670
  712MOL0     C93889   5.146   8.897   5.179 -0.0739  0.3447  1.0678
  712MOL0     C93890   5.006   8.850   5.147 -0.6425 -0.7640 -0.2607
  712MOL0     C93891   4.931   8.978   5.083  0.3337 -0.0298 -0.8994
  712MOL0     C93892   4.786   8.942   5.043 -0.1340 -0.6679 -0.1889
  712MOL0     C93893   4.727   9.044   4.954  0.4798 -0.8385 -0.7548
  712MOL0     C93894   4.584   9.020   4.909  0.4512  0.0311  0.6050
  712MOL0     C93895   4.515   9.137   4.852  1.0055  0.4069  0.3703
  712MOL0    Cl93896   4.520   9.270   4.975 -0.0818 -0.4047  0.5654
  712MOL0     C93897   5.603   8.839   5.035 -0.7099  1.4172  0.8462
  712MOL0     C93898   5.705   8.839   4.934  0.2597 -0.6692  0.1538
  712MOL0     O93899   5.698   8.669   4.621 -0.2797 -0.8054 -0.4407
  712MOL0     C93900   5.912   8.622   4.477  0.2295  1.3613  0.4209
  712MOL0     C93901   6.015   8.602   4.385 -0.2689 -0.3653  0.5098
  712MOL0     N93902   6.616   8.453   4.195 -0.1219 -0.2133 -0.7965
  712MOL0     N93903   6.735   8.400   4.176 -0.1704  0.1445 -0.3862
  712MOL0     C93904   5.971   7.925   4.268  0.8171 -0.5023 -0.1671
  712MOL0     C93905   5.898   7.985   4.372 -1.0521  1.0727 -0.1357
  712MOL0     C93906   5.736   8.205   4.733  0.7311 -0.6360  0.1961
  712MOL0     C93907   5.799   8.333   4.730 -0.6256  1.0749  0.0158
  712MOL0     C93908   5.770   8.419   4.837  0.3880  0.8792  0.6960
  712MOL0     C93909   5.653   8.406   4.916  0.3440  0.3463  0.3757
  712MOL0     O93910   5.624   8.512   4.989  0.2900 -0.6008  0.0279
  712MOL0     C93911   5.503   8.516   5.070  0.1614  0.4630  0.7804
  712MOL0     C93912   5.514   8.454   5.204  0.0019 -0.3741 -0.5084
  712MOL0     C93913   5.374   8.445   5.277  0.7787 -0.1423  0.5404
  712MOL0     C93914   5.393   8.423   5.421  1.3765  0.0808  0.7727
  712MOL0     C93915   5.415   8.535   5.511 -0.0280  0.2433 -0.2960
  712MOL0     C93916   5.463   8.626   5.577  0.1701  0.0379  0.1117
  712MOL0     C93917   5.582   8.286   4.910  0.0556 -0.3052  0.5861
  712MOL0     C93918   5.617   8.186   4.814  0.6695 -0.2410 -0.5532
  712MOL0     H93919   6.165   7.968   4.600 -0.1458  0.0579 -1.0228
  712MOL0     H93920   6.260   7.841   4.427 -0.0949  1.3194 -0.3791
  712MOL0     H93921   6.303   7.941   4.180  0.1238  2.1592 -1.7172
  712MOL0     H93922   6.184   7.941   4.043  2.6652  0.0150 -1.0159
  712MOL0     H93923   6.288   7.710   3.975  2.8721 -2.7831  1.1471
  712MOL0     H93924   6.420   7.732   4.082 -1.7093 -3.6033 -1.7296
  712MOL0     H93925   6.382   7.943   3.860 -0.1243 -3.3221 -3.8550
  712MOL0     H93926   6.489   7.797   3.862  0.2976  0.0001 -0.2302
  712MOL0     H93927   6.476   8.034   4.057 -1.5392 -1.9143 -0.4647
  712MOL0     H93928   6.584   7.898   4.096  1.3716 -0.8400 -0.1599
  712MOL0     H93929   6.607   8.028   3.830  0.8545 -0.2426 -0.3335
  712MOL0     H93930   6.732   7.942   3.924  3.3583  1.9835 -1.3670
  712MOL0     H93931   6.747   8.101   4.074  0.3070 -1.2790 -0.7516
  712MOL0     H93932   6.615   8.210   4.006  1.6886  1.9214  1.5783
  712MOL0     H93933   6.881   8.154   3.850 -0.4245  0.6648 -0.7290
  712MOL0     H93934   6.749   8.255   3.809 -0.9559  2.8716  2.8202
  712MOL0     H93935   6.917   8.400   3.901 -2.6269  1.0003 -1.2829
  712MOL0     H93936   6.931   8.287   4.042 -1.4643 -2.5293 -0.1542
  712MOL0     H93937   6.659   8.477   3.867 -2.3479 -0.5399 -0.1725
  712MOL0     H93938   6.346   8.496   4.101  0.8235 -0.2225  1.4718
  712MOL0     H93939   6.408   8.546   3.943  1.3774 -2.9898 -0.2538
  712MOL0     H93940   6.345   8.748   4.062  0.6356  3.0566  2.2182
  712MOL0     H93941   6.509   8.750   4.038  1.0834 -0.5050  1.0906
  712MOL0     H93942   6.560   8.685   4.279  0.1067 -1.1906  0.5961
  712MOL0     H93943   6.463   8.834   4.268  0.7487  0.4924  2.1376
  712MOL0     H93944   6.359   8.718   4.428 -3.5411 -0.6289  1.2052
  712MOL0     H93945   6.368   8.555   4.342 -0.0584 -0.2729 -4.1419
  712MOL0     H93946   6.189   8.898   4.443  0.9885 -1.4862  0.3009
  712MOL0     H93947   6.008   8.924   4.594  1.2792 -0.9055  1.5663
  712MOL0     H93948   5.519   8.979   4.681  0.0648 -0.3768 -0.3980
  712MOL0     H93949   5.347   8.958   4.837 -1.0929 -0.8789  3.6032
  712MOL0     H93950   5.209   8.838   4.983 -1.8153  1.6147 -0.7123
  712MOL0     H93951   5.232   9.010   5.030  2.2843  0.8319  2.9226
  712MOL0     H93952   5.132   8.993   5.230 -2.1415  0.6872 -0.0223
  712MOL0     H93953   5.185   8.821   5.247  2.0423 -0.2854 -0.7317
  712MOL0     H93954   4.960   8.808   5.236  1.0418 -1.9405  0.1067
  712MOL0     H93955   5.009   8.773   5.070  4.8627 -0.0265 -1.2697
  712MOL0     H93956   4.934   9.045   5.169  1.9257  0.8817 -1.6370
  712MOL0     H93957   4.983   9.025   4.999 -0.3682  0.8403 -0.8623
  712MOL0     H93958   4.733   8.933   5.138 -1.5171 -1.9819 -1.0371
  712MOL0     H93959   4.780   8.845   4.993 -2.8935 -1.5699  1.6823
  712MOL0     H93960   4.798   9.048   4.871 -0.2621 -1.0218 -1.4122
  712MOL0     H93961   4.733   9.142   5.001 -0.7352  0.0733 -2.3798
  712MOL0     H93962   4.593   8.942   4.833  4.7458  0.9901 -0.1074
  712MOL0     H93963   4.522   8.980   4.990 -0.5972 -0.2720 -0.3242
  712MOL0     H93964   4.410   9.121   4.827  1.3911  0.0961 -1.1407
  712MOL0     H93965   4.567   9.164   4.759  0.6874 -1.4902 -0.3939
  712MOL0     H93966   5.636   8.810   5.135  0.2680  1.4158  0.5288
  712MOL0     H93967   5.801   8.795   4.961 -0.5757 -2.3138  0.6127
  712MOL0     H93968   5.838   8.542   4.485 -0.1544  1.5365 -0.9747
  712MOL0     H93969   6.022   8.514   4.323  3.9376  0.2432 -0.1471
  712MOL0     H93970   5.914   7.926   4.175  1.2308  0.7248 -0.4239
  712MOL0     H93971   5.796   8.019   4.353 -0.5686  1.6842 -1.8073
  712MOL0     H93972   5.894   8.345   4.678 -1.9105 -2.1973 -3.6107
  712MOL0     H93973   5.837   8.502   4.855 -1.2679  2.3809  0.1878
  712MOL0     H93974   5.421   8.472   5.014  0.7951  1.2330 -0.8303
  712MOL0     H93975   5.461   8.617   5.074  0.9728  0.7773  1.9632
  712MOL0     H93976   5.557   8.353   5.207  1.3034  0.1674  1.5047
  712MOL0     H93977   5.575   8.519   5.268 -0.7607 -1.2881  1.2256
  712MOL0     H93978   5.316   8.357   5.247  0.5277  0.7312 -1.7858
  712MOL0     H93979   5.298   8.522   5.257 -0.0682 -0.9493  0.5624
  712MOL0     H93980   5.312   8.364   5.466 -0.2202  2.3743  1.1035
  712MOL0     H93981   5.468   8.345   5.436  0.1280 -1.0395  1.5109
  712MOL0     H93982   5.516   8.704   5.629 -0.0723 -0.1917  0.7154
  712MOL0     H93983   5.500   8.266   4.979  0.5353 -0.2641  1.1776
  712MOL0     H93984   5.546   8.106   4.798  1.8819 -1.2680 -0.9997
  713MOL0     O93985   3.075   7.598   8.538  0.0264  0.9631  0.2060
  713MOL0     C93986   2.981   7.527   8.563 -0.4648  0.1820  0.3719
  713MOL0     O93987   2.962   7.409   8.506  0.3340  0.0427 -0.1968
  713MOL0     C93988   3.064   7.347   8.448  0.5044  0.9021 -0.3556
  713MOL0     C93989   3.084   7.355   8.310 -0.1336  0.0248 -0.9010
  713MOL0     C93990   3.189   7.297   8.246 -0.0287 -0.6370 -0.6134
  713MOL0     C93991   3.298   7.232   8.311 -0.4599 -0.6660 -0.2621
  713MOL0     O93992   3.410   7.174   8.255 -0.0033 -0.3368 -0.0047
  713MOL0     C93993   3.414   7.184   8.112  0.6571  0.3397 -0.1150
  713MOL0     C93994   3.518   7.090   8.062 -0.1599  0.3300 -1.0733
  713MOL0     C93995   3.664   7.133   8.084  0.3128  0.5193 -0.4042
  713MOL0     C93996   3.706   7.275   8.025 -0.0479  0.5468 -0.0383
  713MOL0     C93997   3.852   7.287   8.045 -0.3917  0.2101 -0.4275
  713MOL0     C93998   3.878   7.439   8.010  0.0425  1.3927  0.1572
  713MOL0     C93999   4.032   7.465   8.014  0.7680 -0.0604  0.1409
  713MOL0     C94000   4.077   7.557   8.126 -0.5710  0.3118 -0.3711
  713MOL0     N94001   4.031   7.691   8.093 -0.1445 -0.4490  0.7348
  713MOL0     C94002   3.909   7.755   8.107  0.6426 -0.7434  0.5426
  713MOL0     C94003   3.926   7.885   8.052  0.9612  0.9744 -0.2448
  713MOL0     C94004   3.828   7.995   8.043  0.3639  0.6960 -0.6599
  713MOL0     C94005   3.854   8.116   8.137 -0.0592 -0.4915 -0.5150
  713MOL0     C94006   3.774   8.246   8.103 -0.5400  0.5946 -0.2505
  713MOL0     C94007   3.633   8.226   8.155 -0.9794  0.4228 -0.4665
  713MOL0     O94008   3.557   8.341   8.151  0.5135  0.7596 -0.4026
  713MOL0     C94009   3.423   8.319   8.150  0.3309 -0.7627 -0.5483
  713MOL0     C94010   3.348   8.420   8.103  1.5604  0.1624  0.1170
  713MOL0     C94011   3.208   8.415   8.090 -0.3391  1.1696  0.6181
  713MOL0     C94012   3.137   8.300   8.122  0.1478  0.1701  1.2891
  713MOL0     C94013   2.988   8.292   8.097  0.0939  0.2243 -0.3077
  713MOL0     O94014   2.914   8.402   8.083  0.0309  0.2394 -0.0398
  713MOL0     C94015   2.779   8.393   8.059  1.3965  0.4476  0.4043
  713MOL0     C94016   2.680   8.313   8.129 -0.9830 -0.3413  0.0046
  713MOL0     C94017   2.543   8.328   8.105 -0.2256  0.2985  0.0631
  713MOL0     C94018   2.496   8.416   7.997 -1.1363  1.4670 -1.0686
  713MOL0     O94019   2.362   8.431   7.960 -0.4784 -0.1394  0.1304
  713MOL0     C94020   2.266   8.378   8.059  0.5627 -0.2315 -0.3828
  713MOL0     C94021   2.135   8.454   8.024 -0.2209  0.1283 -0.7756
  713MOL0     C94022   2.045   8.377   7.928 -0.1947 -0.4241 -0.1646
  713MOL0     C94023   1.944   8.449   7.840  0.5497  1.0194 -0.8790
  713MOL0     C94024   1.798   8.414   7.877 -0.7841 -1.0025 -0.0996
  713MOL0     C94025   1.763   8.462   8.024 -0.3673 -0.0158 -0.3989
  713MOL0     C94026   1.616   8.462   8.059 -0.1136  0.5651  0.1774
  713MOL0     C94027   1.598   8.470   8.208  0.9362 -0.6486 -0.4011
  713MOL0    Cl94028   1.423   8.514   8.249 -0.5666  0.1257  0.1261
  713MOL0     C94029   2.591   8.490   7.934 -0.6813  0.3703 -0.2129
  713MOL0     C94030   2.735   8.476   7.965  0.3089 -0.5881  0.4229
  713MOL0     O94031   2.941   8.177   8.107  0.3840 -0.1347  0.0229
  713MOL0     C94032   3.209   8.194   8.167  0.2008  0.0005 -0.2018
  713MOL0     C94033   3.347   8.202   8.187 -1.0636 -0.2931 -0.1326
  713MOL0     N94034   4.045   7.889   7.982  0.0585 -0.5702 -0.3679
  713MOL0     N94035   4.107   7.777   8.017  1.1222  0.1994 -0.3487
  713MOL0     C94036   3.280   7.216   8.454 -0.8396 -0.7045  0.7031
  713MOL0     C94037   3.165   7.269   8.521 -0.2979 -0.2814  0.0502
  713MOL0     C94038   2.884   7.558   8.672 -1.0307 -0.4066  0.5000
  713MOL0     C94039   2.836   7.460   8.754 -0.3151  0.5779 -0.2000
  713MOL0     C94040   2.770   7.492   8.872  0.4962  0.5323  0.5085
  713MOL0     C94041   2.744   7.621   8.907  0.0914  0.2292  0.6560
  713MOL0     O94042   2.675   7.656   9.020 -0.1622  0.0107 -0.1421
  713MOL0     C94043   2.538   7.618   9.039 -0.3982  0.5115 -1.0008
  713MOL0     C94044   2.467   7.747   9.084 -0.3201  0.0004  0.7335
  713MOL0     C94045   2.315   7.740   9.126 -0.2161 -0.0634  0.1873
  713MOL0     C94046   2.304   7.778   9.273  0.0385 -0.7960 -0.5622
  713MOL0     C94047   2.159   7.788   9.309 -0.4561 -0.0132  0.5215
  713MOL0     C94048   2.041   7.762   9.339 -0.2436 -0.1387 -0.0249
  713MOL0     C94049   2.782   7.726   8.821 -0.1941  0.8614 -0.2617
  713MOL0     C94050   2.859   7.693   8.707  0.2902  0.3130 -0.0650
  713MOL0     H94051   3.014   7.391   8.235 -1.5951 -1.2947 -0.2426
  713MOL0     H94052   3.205   7.316   8.140 -2.5423 -0.0726 -0.9376
  713MOL0     H94053   3.437   7.289   8.095 -0.3919  0.5687 -0.1818
  713MOL0     H94054   3.322   7.152   8.063  0.8945  0.1870 -0.4675
  713MOL0     H94055   3.499   7.074   7.956 -0.5592 -2.3545 -0.6798
  713MOL0     H94056   3.511   6.999   8.123  0.6978  1.6322  1.0786
  713MOL0     H94057   3.734   7.059   8.045  1.1301  2.6269 -3.2759
  713MOL0     H94058   3.680   7.133   8.192  1.6056 -0.2759 -0.5815
  713MOL0     H94059   3.671   7.281   7.922  1.2229  0.9265 -0.4590
  713MOL0     H94060   3.655   7.355   8.080 -0.3028 -0.7582  1.7325
  713MOL0     H94061   3.914   7.218   7.986  4.6045  1.7886  2.3330
  713MOL0     H94062   3.868   7.266   8.151  1.7716 -1.0923 -0.9480
  713MOL0     H94063   3.820   7.491   8.086 -3.1584 -1.8733  0.2367
  713MOL0     H94064   3.833   7.461   7.913 -0.8838 -0.7118  0.0532
  713MOL0     H94065   4.083   7.369   8.026  2.4551  1.0736  3.2987
  713MOL0     H94066   4.071   7.499   7.918 -1.0217 -3.2709 -1.9231
  713MOL0     H94067   4.180   7.543   8.162  0.7715  2.6940 -3.0005
  713MOL0     H94068   4.023   7.536   8.220  3.2244  1.7527  2.3960
  713MOL0     H94069   3.814   7.719   8.145  0.1780  0.8035  0.9014
  713MOL0     H94070   3.727   7.959   8.063 -0.7935  4.5595  1.3292
  713MOL0     H94071   3.828   8.037   7.942  0.2235  1.7013 -0.2523
  713MOL0     H94072   3.962   8.135   8.129 -0.3542  0.9562 -1.4907
  713MOL0     H94073   3.837   8.102   8.244  1.6793  0.4614 -0.0732
  713MOL0     H94074   3.830   8.328   8.149 -1.1800  0.6521  0.4526
  713MOL0     H94075   3.779   8.276   7.998  0.2036  1.0847 -0.0800
  713MOL0     H94076   3.614   8.204   8.260  2.0857  6.0889  1.6859
  713MOL0     H94077   3.581   8.149   8.097 -1.2025  0.5536 -0.4440
  713MOL0     H94078   3.409   8.505   8.074  1.3837 -0.1398 -1.1990
  713MOL0     H94079   3.164   8.507   8.055 -0.1131  0.8508 -0.5284
  713MOL0     H94080   2.722   8.246   8.203 -1.4883  0.5596  1.1471
  713MOL0     H94081   2.461   8.272   8.150 -0.6782  2.9782  2.8979
  713MOL0     H94082   2.291   8.401   8.163 -0.5028  1.5604 -0.4878
  713MOL0     H94083   2.257   8.269   8.052  1.2798 -0.6607  3.2747
  713MOL0     H94084   2.163   8.556   7.996 -2.2355  1.7874  2.6322
  713MOL0     H94085   2.077   8.461   8.116  0.5453 -0.9741 -0.1870
  713MOL0     H94086   2.012   8.280   7.968 -1.1783  0.9558  2.7038
  713MOL0     H94087   2.129   8.354   7.862 -0.5040 -0.4437 -0.5565
  713MOL0     H94088   1.981   8.553   7.844  4.6955 -0.2726 -0.4015
  713MOL0     H94089   1.966   8.423   7.736  0.3509 -1.3460 -0.3725
  713MOL0     H94090   1.779   8.307   7.871 -1.8544 -0.9998  2.0875
  713MOL0     H94091   1.730   8.464   7.808  2.4010 -0.3287 -2.9763
  713MOL0     H94092   1.800   8.564   8.039 -3.4932  1.3970 -1.2879
  713MOL0     H94093   1.814   8.401   8.099 -0.1009  0.3334 -0.2960
  713MOL0     H94094   1.561   8.542   8.008  1.0966 -1.1009 -4.1981
  713MOL0     H94095   1.569   8.368   8.030 -1.8523  1.2780  0.5083
  713MOL0     H94096   1.660   8.551   8.247 -3.7771  2.4365  1.5472
  713MOL0     H94097   1.617   8.369   8.244 -1.6314 -0.1735  2.6946
  713MOL0     H94098   2.574   8.565   7.857  4.5553  1.4278 -0.7486
  713MOL0     H94099   2.816   8.540   7.931  1.8365 -0.8037  3.3633
  713MOL0     H94100   3.153   8.104   8.192  2.8200 -2.7681 -3.2386
  713MOL0     H94101   3.400   8.114   8.222 -4.7847 -1.8020  2.5092
  713MOL0     H94102   3.364   7.168   8.503 -1.0125 -0.3392  1.3635
  713MOL0     H94103   3.134   7.249   8.623 -0.1126  1.4290  0.4762
  713MOL0     H94104   2.850   7.355   8.728  2.2756 -0.1330  3.4251
  713MOL0     H94105   2.730   7.413   8.934 -3.5276  1.9352 -0.0423
  713MOL0     H94106   2.519   7.551   9.123  0.4860  1.4529 -0.0202
  713MOL0     H94107   2.504   7.573   8.946  2.1042 -2.1401 -0.7943
  713MOL0     H94108   2.519   7.796   9.166 -1.8406  1.3871  0.9299
  713MOL0     H94109   2.477   7.818   9.001  3.3069 -1.4265 -0.2154
  713MOL0     H94110   2.276   7.638   9.115 -1.0155  0.5010 -2.9985
  713MOL0     H94111   2.247   7.806   9.072 -1.5768  0.0271  1.9296
  713MOL0     H94112   2.358   7.711   9.341  1.3993  2.5505  1.9485
  713MOL0     H94113   2.348   7.876   9.294 -1.7344 -0.7356  3.8013
  713MOL0     H94114   1.943   7.746   9.379 -0.5508 -0.2317 -0.8015
  713MOL0     H94115   2.763   7.827   8.859  1.9430  0.6228  1.6808
  713MOL0     H94116   2.908   7.773   8.653  0.2224  2.4320  2.7811
  714MOL0     O94117  11.198   3.350   3.961 -0.2242  0.2741 -0.2297
  714MOL0     C94118  11.204   3.269   3.870 -0.1242  0.0720  0.1174
  714MOL0     O94119  11.093   3.212   3.819 -0.3149 -0.1774  0.2145
  714MOL0     C94120  10.973   3.250   3.863  1.8441 -1.0932  0.4189
  714MOL0     C94121  10.928   3.381   3.857 -0.1228 -1.1128  0.6327
  714MOL0     C94122  10.805   3.429   3.907  0.7212  0.5576  0.0628
  714MOL0     C94123  10.711   3.326   3.945  0.1865  0.8015 -0.1066
  714MOL0     O94124  10.582   3.371   3.977 -0.0551  0.0783  0.4918
  714MOL0     C94125  10.502   3.292   4.066 -0.3899 -0.3730  0.6744
  714MOL0     C94126  10.403   3.390   4.147 -0.0591 -0.0371 -0.1637
  714MOL0     C94127  10.475   3.468   4.258 -0.0791  0.2135 -0.3726
  714MOL0     C94128  10.393   3.585   4.323 -0.5780  0.2195 -0.0143
  714MOL0     C94129  10.332   3.532   4.452  1.1139  0.0400  0.0956
  714MOL0     C94130  10.246   3.644   4.519 -0.7517  0.3300 -0.0473
  714MOL0     C94131  10.195   3.581   4.642 -0.0197  0.0186  0.1834
  714MOL0     C94132  10.128   3.685   4.730 -0.3964 -0.5170  0.0428
  714MOL0     N94133  10.038   3.609   4.815  0.7533 -0.5384  0.3142
  714MOL0     C94134  10.072   3.549   4.931  1.0356 -0.3696 -0.3198
  714MOL0     C94135   9.953   3.535   4.998 -0.7807  0.5385 -0.0422
  714MOL0     C94136   9.938   3.485   5.137  0.9634  0.3216 -0.7552
  714MOL0     C94137   9.802   3.408   5.141  0.4188  0.1491  0.2181
  714MOL0     C94138   9.797   3.319   5.271 -0.0213  0.3551 -0.3137
  714MOL0     C94139   9.659   3.247   5.288  0.1736 -0.3513  0.3170
  714MOL0     O94140   9.657   3.141   5.194 -0.3131 -0.3825 -0.0540
  714MOL0     C94141   9.677   3.010   5.227  1.0016  0.3006  0.5626
  714MOL0     C94142   9.756   2.949   5.330  0.8723  0.0738  0.0148
  714MOL0     C94143   9.764   2.808   5.346  0.9366  0.7284 -0.4787
  714MOL0     C94144   9.687   2.732   5.258 -0.2525 -0.8399 -0.4528
  714MOL0     C94145   9.705   2.586   5.254 -0.4680 -1.3156  0.3441
  714MOL0     O94146   9.661   2.518   5.136  0.9445  0.3551  0.3625
  714MOL0     C94147   9.671   2.384   5.118  0.9037 -0.0256 -0.2412
  714MOL0     C94148   9.724   2.278   5.204 -0.8953 -0.9094 -0.1042
  714MOL0     C94149   9.712   2.146   5.169 -0.2811 -0.3724  0.2025
  714MOL0     C94150   9.647   2.106   5.049 -0.7501  0.9841  0.1648
  714MOL0     O94151   9.628   1.973   5.009 -0.2194 -0.7995  0.4388
  714MOL0     C94152   9.498   1.928   5.064 -0.9313 -0.3039 -0.0979
  714MOL0     C94153   9.514   1.869   5.204  0.8008 -0.1296  0.2168
  714MOL0     C94154   9.632   1.768   5.211  0.9440  0.1416 -0.1711
  714MOL0     C94155   9.597   1.655   5.312  0.5440 -0.5476  0.9699
  714MOL0     C94156   9.722   1.562   5.338  0.4985 -0.4009  1.0027
  714MOL0     C94157   9.686   1.460   5.446  0.2304  1.3016 -0.0603
  714MOL0     C94158   9.795   1.342   5.450 -0.1432  0.3262 -0.1611
  714MOL0     C94159   9.780   1.234   5.558  0.8846 -0.8675  0.0302
  714MOL0    Cl94160   9.842   1.309   5.714 -0.1251  0.3179  0.3483
  714MOL0     C94161   9.608   2.207   4.959  0.1609  0.1931  0.5105
  714MOL0     C94162   9.622   2.338   4.992  0.8548 -0.3935 -0.2162
  714MOL0     O94163   9.730   2.531   5.365 -0.1151 -0.0368 -0.0998
  714MOL0     C94164   9.608   2.786   5.162  0.2454 -0.4833 -0.0927
  714MOL0     C94165   9.597   2.926   5.146 -0.6327 -1.0420  0.8974
  714MOL0     N94166   9.851   3.597   4.925 -0.0419  0.4472 -0.9228
  714MOL0     N94167   9.906   3.633   4.811  0.4080  0.0127  0.4624
  714MOL0     C94168  10.752   3.182   3.935  0.0498  0.2260  0.3961
  714MOL0     C94169  10.880   3.148   3.898  0.3513 -0.2858  1.2597
  714MOL0     C94170  11.345   3.223   3.830  0.3893  0.1062  0.4900
  714MOL0     C94171  11.444   3.313   3.854  0.5752  0.0122 -0.9707
  714MOL0     C94172  11.577   3.281   3.835 -0.1304  0.4106  0.5574
  714MOL0     C94173  11.617   3.164   3.767  0.3045  0.3558  0.1093
  714MOL0     O94174  11.735   3.150   3.703 -1.2170  0.4083  0.2749
  714MOL0     C94175  11.839   3.250   3.724  0.4055  0.1713  0.7713
  714MOL0     C94176  11.970   3.207   3.649 -0.2307  0.3022  0.1173
  714MOL0     C94177  12.085   3.309   3.671  0.6180 -0.0157  0.3736
  714MOL0     C94178  12.117   3.355   3.823 -0.2178  0.1265 -0.7368
  714MOL0     C94179  12.234   3.445   3.824  0.3483 -0.1750  0.0525
  714MOL0     C94180  12.334   3.508   3.823  0.3563  0.2893 -0.1766
  714MOL0     C94181  11.517   3.067   3.751 -0.0603  0.3621 -0.1933
  714MOL0     C94182  11.375   3.100   3.779 -0.6115 -0.7299  0.7884
  714MOL0     H94183  10.992   3.456   3.812 -2.7026  1.6236  1.1938
  714MOL0     H94184  10.786   3.534   3.928  1.2503  0.8390 -0.7929
  714MOL0     H94185  10.553   3.241   4.148 -2.2478  0.9241  2.7530
  714MOL0     H94186  10.435   3.221   4.016 -0.6634  0.0404  0.4409
  714MOL0     H94187  10.317   3.339   4.190  0.6392 -0.6329  0.5680
  714MOL0     H94188  10.365   3.467   4.080 -1.3663 -0.0874  0.4993
  714MOL0     H94189  10.570   3.503   4.217  0.4556  0.3642  0.9614
  714MOL0     H94190  10.506   3.390   4.328 -3.1776 -0.8923 -0.0903
  714MOL0     H94191  10.465   3.661   4.356 -0.0272 -0.3289  0.0641
  714MOL0     H94192  10.320   3.633   4.258 -0.2205  0.7325 -0.0429
  714MOL0     H94193  10.413   3.500   4.518  2.0976  0.0938 -1.0647
  714MOL0     H94194  10.267   3.449   4.423  1.3727  0.3399 -1.4134
  714MOL0     H94195  10.167   3.686   4.455 -0.9247 -2.5073 -1.8590
  714MOL0     H94196  10.303   3.727   4.563 -2.6886  2.5754 -1.4894
  714MOL0     H94197  10.123   3.501   4.630  1.9992 -2.5171  3.3467
  714MOL0     H94198  10.280   3.546   4.702  1.5932  2.2737 -0.6033
  714MOL0     H94199  10.072   3.751   4.663  2.0822  0.7548 -0.9235
  714MOL0     H94200  10.202   3.745   4.784  1.7045 -0.6574 -2.4743
  714MOL0     H94201  10.169   3.521   4.969  0.7553 -0.0378  0.6521
  714MOL0     H94202   9.944   3.566   5.210 -2.0664 -0.3423  0.3740
  714MOL0     H94203  10.028   3.428   5.161  2.4943  1.9103 -2.4634
  714MOL0     H94204   9.788   3.348   5.050  1.8627 -2.3309  1.5044
  714MOL0     H94205   9.724   3.485   5.144 -1.2000 -1.4006 -0.0083
  714MOL0     H94206   9.879   3.246   5.270 -0.6792 -0.4045  0.0589
  714MOL0     H94207   9.816   3.375   5.363  4.1957  0.2873 -0.9225
  714MOL0     H94208   9.578   3.317   5.261 -1.9212 -2.3110  1.1761
  714MOL0     H94209   9.635   3.221   5.392 -1.0356  0.9163  0.3911
  714MOL0     H94210   9.794   3.016   5.407 -0.8978  1.5022 -0.2748
  714MOL0     H94211   9.829   2.764   5.421  0.5053  0.8945  0.0022
  714MOL0     H94212   9.773   2.294   5.299 -0.3883 -1.4603 -0.2643
  714MOL0     H94213   9.746   2.074   5.242 -1.4617  2.3062  3.6661
  714MOL0     H94214   9.468   1.847   4.997  0.5606 -1.3347  0.4268
  714MOL0     H94215   9.418   2.001   5.061 -0.2911  0.4498  0.7402
  714MOL0     H94216   9.419   1.824   5.234 -1.3768  3.3858 -0.7554
  714MOL0     H94217   9.523   1.944   5.283 -1.7802 -1.8320  2.2890
  714MOL0     H94218   9.712   1.826   5.257  2.1146 -0.4842 -1.3678
  714MOL0     H94219   9.650   1.734   5.109  0.9461 -0.3943  0.0000
  714MOL0     H94220   9.590   1.697   5.413  5.7360 -0.3014  1.4571
  714MOL0     H94221   9.502   1.604   5.289 -1.6666  2.5472  2.4724
  714MOL0     H94222   9.800   1.629   5.376 -0.2259  2.4478 -2.0122
  714MOL0     H94223   9.754   1.506   5.249  0.4696 -1.8440  1.8638
  714MOL0     H94224   9.586   1.416   5.435 -0.3558  2.1231  1.6695
  714MOL0     H94225   9.679   1.500   5.548 -2.9273 -6.3400  3.5550
  714MOL0     H94226   9.779   1.287   5.357  0.8319  0.1516 -0.2387
  714MOL0     H94227   9.898   1.379   5.453 -0.1341  0.3359 -0.5574
  714MOL0     H94228   9.821   1.136   5.533 -1.4370 -2.0083  0.4054
  714MOL0     H94229   9.673   1.218   5.572  0.8410 -2.0406 -1.3882
  714MOL0     H94230   9.561   2.189   4.863  0.4632  0.4900  0.3057
  714MOL0     H94231   9.572   2.416   4.935  0.9812  1.1560  1.6480
  714MOL0     H94232   9.566   2.738   5.075  0.1908  1.4367 -1.1814
  714MOL0     H94233   9.552   2.981   5.065 -1.1456  2.3414  3.2477
  714MOL0     H94234  10.677   3.107   3.960 -1.0141  0.1078 -2.6822
  714MOL0     H94235  10.901   3.042   3.898  0.0745 -0.4478 -2.0658
  714MOL0     H94236  11.416   3.413   3.887  3.4682 -0.4794  3.9680
  714MOL0     H94237  11.640   3.367   3.853  0.0965  0.0995  1.2887
  714MOL0     H94238  11.857   3.242   3.831 -0.6977  2.5404  1.1832
  714MOL0     H94239  11.810   3.355   3.714  1.0113  0.6007  3.0359
  714MOL0     H94240  11.993   3.103   3.674 -3.8680 -1.7041 -3.6867
  714MOL0     H94241  11.944   3.193   3.544  0.1260 -3.0251  0.3702
  714MOL0     H94242  12.063   3.402   3.618  2.6812  0.9615  1.1168
  714MOL0     H94243  12.172   3.263   3.624 -0.8116 -2.7810  0.1730
  714MOL0     H94244  12.040   3.422   3.864  1.4986  2.2267 -0.7461
  714MOL0     H94245  12.121   3.265   3.885 -1.0199  0.0936 -0.7246
  714MOL0     H94246  12.432   3.548   3.841  0.9577 -0.3436 -1.8946
  714MOL0     H94247  11.522   2.971   3.701 -0.1291 -0.9917  2.2235
  714MOL0     H94248  11.296   3.025   3.778  0.4777 -2.1589  4.4836
  715MOL0     O94249   3.182   6.982   3.033  0.4249 -0.1063  0.5771
  715MOL0     C94250   3.179   7.105   3.024  0.2988  0.9287  0.0770
  715MOL0     O94251   3.066   7.176   2.990 -0.6487 -1.0022 -0.1728
  715MOL0     C94252   2.950   7.106   2.967  0.0391 -0.3534  0.0937
  715MOL0     C94253   2.879   7.045   3.069  0.7519 -0.2895  0.3036
  715MOL0     C94254   2.769   6.969   3.045  0.5210 -0.5463  0.7787
  715MOL0     C94255   2.724   6.951   2.917 -0.4563  0.5461  0.7676
  715MOL0     O94256   2.611   6.863   2.917  0.4927 -0.2309  0.2486
  715MOL0     C94257   2.587   6.809   2.786  0.2752  0.0767 -0.0864
  715MOL0     C94258   2.449   6.746   2.788  0.2206 -0.0425  0.6491
  715MOL0     C94259   2.409   6.701   2.645 -0.2449  0.3986  0.1020
  715MOL0     C94260   2.270   6.621   2.650  0.8695 -0.6100  0.7267
  715MOL0     C94261   2.144   6.704   2.674 -0.3312  0.1014 -0.4872
  715MOL0     C94262   2.017   6.624   2.723 -0.3883 -0.3589 -0.9106
  715MOL0     C94263   1.982   6.502   2.634  0.2986 -0.0983  0.8173
  715MOL0     C94264   1.846   6.432   2.662  0.0603  0.2957 -0.0082
  715MOL0     N94265   1.732   6.520   2.648  0.2683  0.3556  0.3012
  715MOL0     C94266   1.629   6.542   2.742  0.4300 -0.0739  0.0497
  715MOL0     C94267   1.528   6.606   2.673 -0.1636 -0.0232  0.2359
  715MOL0     C94268   1.390   6.677   2.726 -0.0716 -0.6130 -0.0175
  715MOL0     C94269   1.273   6.579   2.740 -0.3431  0.7881 -1.0507
  715MOL0     C94270   1.223   6.514   2.615  0.2522  0.6435  0.5055
  715MOL0     C94271   1.134   6.622   2.540  0.2967 -0.5050  0.3405
  715MOL0     O94272   1.113   6.594   2.400 -0.3075  0.0969 -0.3125
  715MOL0     C94273   1.044   6.483   2.358 -0.5366  0.7342  0.6437
  715MOL0     C94274   1.068   6.449   2.230  0.8693  0.0002  0.6848
  715MOL0     C94275   1.000   6.356   2.161  0.1205 -0.0540 -0.3473
  715MOL0     C94276   0.893   6.292   2.226  0.0931  0.0493  0.7094
  715MOL0     C94277   0.821   6.177   2.165 -1.2936  0.6265 -0.7172
  715MOL0     O94278   0.894   6.122   2.068  0.9174  0.1428  0.1390
  715MOL0     C94279   0.845   6.013   2.008 -0.2577 -1.3330 -0.9487
  715MOL0     C94280   0.710   6.005   1.962 -0.1104  0.3987  0.1758
  715MOL0     C94281   0.664   5.887   1.892 -0.8181 -0.3674 -1.5626
  715MOL0     C94282   0.753   5.774   1.878  0.1536  0.1250 -0.0759
  715MOL0     O94283   0.725   5.646   1.827 -0.1346 -0.6731 -1.1423
  715MOL0     C94284   0.588   5.611   1.812 -1.0274 -1.1367  0.1836
  715MOL0     C94285   0.506   5.605   1.944 -0.0108 -0.2757 -0.2102
  715MOL0     C94286   0.365   5.563   1.903  0.8911  0.3237 -0.2530
  715MOL0     C94287   0.280   5.577   2.026 -0.5832 -1.1249  0.4400
  715MOL0     C94288   0.145   5.521   1.998 -0.3876 -0.5532  0.3958
  715MOL0     C94289   0.040   5.505   2.117 -0.5498 -0.1956  0.5534
  715MOL0     C94290  -0.003   5.644   2.160 -0.5215 -0.3708  0.1737
  715MOL0     C94291  -0.056   5.655   2.306  0.4069  0.0635  0.7376
  715MOL0    Cl94292  -0.186   5.542   2.310  0.3969 -0.5690  0.5305
  715MOL0     C94293   0.882   5.784   1.926 -0.7046  0.6133  0.0637
  715MOL0     C94294   0.922   5.899   1.995  0.8180 -0.5173 -0.0238
  715MOL0     O94295   0.722   6.127   2.216 -0.2161 -0.2283  0.4867
  715MOL0     C94296   0.868   6.322   2.364  0.2154  0.1689  0.4765
  715MOL0     C94297   0.943   6.426   2.435  0.0427  0.6667  0.2997
  715MOL0     N94298   1.569   6.627   2.542  0.7361  0.7227  0.2747
  715MOL0     N94299   1.686   6.578   2.527 -0.0231 -0.1547  0.7470
  715MOL0     C94300   2.800   7.014   2.806  0.7238 -0.2397 -0.0736
  715MOL0     C94301   2.912   7.095   2.841 -0.8941  0.1474  0.2148
  715MOL0     C94302   3.294   7.179   3.078  0.0583 -1.2792 -0.4753
  715MOL0     C94303   3.310   7.314   3.046  0.5989  0.8308  0.4267
  715MOL0     C94304   3.422   7.387   3.085  0.3178  0.1314  0.0854
  715MOL0     C94305   3.513   7.328   3.180 -0.1876 -0.7565  0.4790
  715MOL0     O94306   3.619   7.394   3.236 -0.2776 -0.0362  0.3756
  715MOL0     C94307   3.610   7.534   3.275 -0.3706 -0.6552  0.0917
  715MOL0     C94308   3.557   7.525   3.421 -0.3447  0.2587  0.2213
  715MOL0     C94309   3.569   7.652   3.505 -0.2347  0.6895 -0.3687
  715MOL0     C94310   3.718   7.649   3.538 -0.1441  0.3688  0.3430
  715MOL0     C94311   3.763   7.767   3.608 -0.1426 -0.7156 -0.0695
  715MOL0     C94312   3.784   7.860   3.683 -0.0224 -0.1811 -1.3813
  715MOL0     C94313   3.499   7.194   3.209 -0.4229  1.0770  0.2760
  715MOL0     C94314   3.398   7.117   3.158  0.1394  0.5558  0.2328
  715MOL0     H94315   2.909   7.043   3.173  0.5640  0.0066  0.3655
  715MOL0     H94316   2.731   6.928   3.138  2.4004 -1.4835  1.1687
  715MOL0     H94317   2.664   6.734   2.764  0.2613 -0.2349  0.8422
  715MOL0     H94318   2.583   6.889   2.713 -1.0397 -1.7109 -2.0826
  715MOL0     H94319   2.381   6.821   2.830 -0.6812  0.2299 -1.1982
  715MOL0     H94320   2.453   6.664   2.859 -1.0958 -0.0218  0.7800
  715MOL0     H94321   2.486   6.640   2.598 -0.7268 -1.1968  1.2956
  715MOL0     H94322   2.395   6.787   2.579 -0.5856 -0.8382 -1.4945
  715MOL0     H94323   2.261   6.563   2.558  0.5726 -0.0978  0.4277
  715MOL0     H94324   2.286   6.544   2.725  0.9482 -2.6116 -1.2300
  715MOL0     H94325   2.124   6.750   2.576  4.5131  3.1257 -0.3960
  715MOL0     H94326   2.166   6.798   2.726 -2.4404  0.0293  0.6498
  715MOL0     H94327   1.931   6.686   2.751  0.0947 -0.1277  0.1060
  715MOL0     H94328   2.036   6.578   2.820 -3.6931  4.2507  2.3742
  715MOL0     H94329   1.977   6.546   2.534  0.8502  0.1382  0.8879
  715MOL0     H94330   2.068   6.435   2.639  1.1129  0.9947  4.3457
  715MOL0     H94331   1.842   6.390   2.763 -2.0630  0.0249 -0.1563
  715MOL0     H94332   1.826   6.352   2.590 -0.6735 -0.3724  0.9298
  715MOL0     H94333   1.615   6.535   2.849 -0.2960  1.6917  0.0996
  715MOL0     H94334   1.351   6.756   2.660  3.1647  1.4895  0.3392
  715MOL0     H94335   1.411   6.732   2.818  1.1646 -1.3270  0.1379
  715MOL0     H94336   1.185   6.622   2.789  0.1175  0.2672  0.2656
  715MOL0     H94337   1.309   6.502   2.808 -1.2077 -1.6085 -3.1003
  715MOL0     H94338   1.305   6.471   2.558  0.5477 -0.8969  2.0138
  715MOL0     H94339   1.152   6.433   2.633  0.6935 -0.2577 -1.6071
  715MOL0     H94340   1.181   6.720   2.539  0.5351 -0.5908 -1.8912
  715MOL0     H94341   1.042   6.627   2.599 -0.5066 -2.4368 -0.6401
  715MOL0     H94342   1.154   6.500   2.188 -0.5076  0.0182 -2.3403
  715MOL0     H94343   1.027   6.337   2.058 -2.8769 -2.5339 -0.8408
  715MOL0     H94344   0.633   6.081   1.974 -0.4480  0.1545 -0.4205
  715MOL0     H94345   0.563   5.880   1.855 -1.4328 -0.7194  0.1015
  715MOL0     H94346   0.598   5.513   1.764  0.6571 -1.6561  1.5009
  715MOL0     H94347   0.540   5.679   1.741  0.7850 -3.1143 -3.2506
  715MOL0     H94348   0.502   5.697   2.004 -1.3969 -2.0119  2.5312
  715MOL0     H94349   0.544   5.531   2.013  0.3546  3.3671  3.9188
  715MOL0     H94350   0.375   5.458   1.874  0.4858 -0.4016  2.0328
  715MOL0     H94351   0.339   5.628   1.819  1.4113  2.8185  1.3897
  715MOL0     H94352   0.319   5.535   2.120 -1.3831 -0.9396  0.8593
  715MOL0     H94353   0.270   5.683   2.053 -3.6812 -1.5317  1.2417
  715MOL0     H94354   0.160   5.423   1.953  2.3874  0.8574 -2.0721
  715MOL0     H94355   0.108   5.583   1.916 -1.3446 -0.8421  0.5928
  715MOL0     H94356   0.083   5.442   2.195 -1.3109  1.8009  2.6941
  715MOL0     H94357  -0.048   5.457   2.074 -0.9808  1.2230 -0.2407
  715MOL0     H94358   0.071   5.722   2.143 -2.1405  0.9504 -1.0895
  715MOL0     H94359  -0.084   5.663   2.089 -2.0807  2.9907  2.5789
  715MOL0     H94360  -0.091   5.757   2.323 -2.9882 -1.1433  1.9729
  715MOL0     H94361   0.016   5.628   2.384 -3.2267 -1.4484  3.8946
  715MOL0     H94362   0.959   5.710   1.910 -1.8246 -0.4953 -0.3649
  715MOL0     H94363   1.015   5.904   2.051 -0.0044 -0.1427  1.3641
  715MOL0     H94364   0.783   6.269   2.405 -0.5786  2.4007  1.8991
  715MOL0     H94365   0.925   6.448   2.540  1.9621 -2.5494  1.4359
  715MOL0     H94366   2.785   6.984   2.703  0.4632  0.5453 -0.2699
  715MOL0     H94367   2.973   7.138   2.763 -1.2265 -0.2013 -0.2454
  715MOL0     H94368   3.228   7.351   2.985  0.9248 -0.9866 -1.2041
  715MOL0     H94369   3.419   7.491   3.051  0.3576  0.0090 -0.3000
  715MOL0     H94370   3.554   7.592   3.201  0.0653  0.0216  0.2846
  715MOL0     H94371   3.711   7.574   3.267 -0.7830  0.2102 -1.2568
  715MOL0     H94372   3.451   7.504   3.411 -1.1420  2.6475  2.5764
  715MOL0     H94373   3.597   7.439   3.475 -0.6925  0.7637  1.2920
  715MOL0     H94374   3.512   7.649   3.598 -0.5376 -0.3836 -0.5796
  715MOL0     H94375   3.536   7.734   3.440 -1.3700  1.4423  1.1058
  715MOL0     H94376   3.745   7.557   3.591 -0.1778 -0.3863 -0.9093
  715MOL0     H94377   3.786   7.642   3.452  0.5184  2.3412  0.6601
  715MOL0     H94378   3.803   7.946   3.745 -3.0648  1.3653 -2.3590
  715MOL0     H94379   3.569   7.149   3.279 -1.3873  0.7396  1.0572
  715MOL0     H94380   3.382   7.011   3.175 -2.6110  0.5062 -1.9399
  716MOL0     O94381   1.892   8.564   4.000 -0.0015  0.2946  0.4179
  716MOL0     C94382   1.933   8.672   3.961 -0.4537  0.1560  0.3961
  716MOL0     O94383   1.863   8.764   3.896  0.9682  0.1318  0.1896
  716MOL0     C94384   1.728   8.756   3.869  1.3290 -0.9572 -0.1540
  716MOL0     C94385   1.688   8.776   3.739  0.0373 -0.2679  0.6900
  716MOL0     C94386   1.550   8.773   3.701  0.2306  0.3715  0.3105
  716MOL0     C94387   1.458   8.736   3.794 -0.3737 -0.3799  0.5527
  716MOL0     O94388   1.326   8.728   3.755  0.5108  0.0425  0.1484
  716MOL0     C94389   1.229   8.750   3.859  0.8569 -0.2805  0.3342
  716MOL0     C94390   1.151   8.630   3.907 -0.2228 -0.7103 -1.1089
  716MOL0     C94391   1.035   8.672   4.000  0.4988 -0.3242 -1.3127
  716MOL0     C94392   1.010   8.560   4.102 -0.7660  0.1433  0.0955
  716MOL0     C94393   0.896   8.604   4.201 -0.9349 -0.2193  0.5058
  716MOL0     C94394   0.952   8.631   4.342  0.9955  0.3478  0.0927
  716MOL0     C94395   0.854   8.719   4.422  0.1832  0.4583 -0.3994
  716MOL0     C94396   0.880   8.718   4.580 -0.8178 -0.7757 -0.1730
  716MOL0     N94397   0.765   8.778   4.656  0.3288 -0.3362  0.2652
  716MOL0     C94398   0.640   8.728   4.643  0.4994  0.8921 -0.0767
  716MOL0     C94399   0.561   8.779   4.733  0.0885  0.7109 -0.2627
  716MOL0     C94400   0.419   8.730   4.766 -0.6129 -0.0368 -0.0013
  716MOL0     C94401   0.438   8.592   4.827 -0.5024  0.0433 -0.4378
  716MOL0     C94402   0.304   8.536   4.857 -0.3419 -0.7984  0.1070
  716MOL0     C94403   0.318   8.412   4.950  0.3861 -0.2395 -0.9049
  716MOL0     O94404   0.222   8.396   5.052  0.6954  0.3444 -0.0266
  716MOL0     C94405   0.108   8.324   5.026 -0.0651 -0.6786  0.5394
  716MOL0     C94406   0.016   8.325   5.128 -0.8441  1.1991 -0.2997
  716MOL0     C94407  -0.110   8.268   5.114  0.2534  0.1203  0.4291
  716MOL0     C94408  -0.151   8.196   5.006 -0.0258 -0.2389 -1.1737
  716MOL0     C94409  -0.285   8.134   4.994  0.0711 -1.0319 -0.1250
  716MOL0     O94410  -0.391   8.190   5.060  0.3619 -0.3574  0.7218
  716MOL0     C94411  -0.519   8.126   5.055  0.4078  1.0092 -0.6272
  716MOL0     C94412  -0.528   7.986   5.090  0.3637 -0.2102 -0.5537
  716MOL0     C94413  -0.648   7.925   5.110 -0.0733 -0.3021  1.0530
  716MOL0     C94414  -0.768   7.987   5.092  0.1211 -0.3288 -0.1087
  716MOL0     O94415  -0.888   7.923   5.110  0.3474  0.0033 -0.0968
  716MOL0     C94416  -0.906   7.783   5.080 -1.0246 -0.1115 -0.5949
  716MOL0     C94417  -1.050   7.761   5.031 -0.6665  1.7859 -0.4766
  716MOL0     C94418  -1.155   7.745   5.147 -0.0396  0.0948  0.1348
  716MOL0     C94419  -1.297   7.717   5.096  1.3826 -0.5065 -0.5399
  716MOL0     C94420  -1.397   7.725   5.209  0.4316 -0.5254 -0.7410
  716MOL0     C94421  -1.534   7.760   5.161 -0.6102  0.8415 -0.0003
  716MOL0     C94422  -1.618   7.791   5.289  0.2616 -0.1927  0.9142
  716MOL0     C94423  -1.766   7.821   5.256  0.3282  0.7186 -1.2967
  716MOL0    Cl94424  -1.770   7.953   5.142 -0.0803 -0.0086  0.2219
  716MOL0     C94425  -0.761   8.120   5.048  0.0047 -0.0252  0.7207
  716MOL0     C94426  -0.639   8.201   5.038  0.3040  0.4455  1.3357
  716MOL0     O94427  -0.284   8.032   4.921 -0.2424 -0.1600 -0.6199
  716MOL0     C94428  -0.057   8.190   4.900 -0.5155  0.5005 -0.1423
  716MOL0     C94429   0.069   8.254   4.909 -0.2624 -0.1681 -0.4739
  716MOL0     N94430   0.639   8.878   4.798  0.4887  0.3362  0.3900
  716MOL0     N94431   0.758   8.871   4.758  0.1151 -0.1592 -0.4025
  716MOL0     C94432   1.500   8.707   3.927 -0.6634 -0.9529  0.0128
  716MOL0     C94433   1.637   8.721   3.961  0.3480 -0.3013 -0.6985
  716MOL0     C94434   2.068   8.703   3.984 -0.5890 -1.0120 -1.6274
  716MOL0     C94435   2.135   8.819   3.934  0.4081 -0.5095  0.0874
  716MOL0     C94436   2.272   8.839   3.966 -0.0109 -0.2000  0.2397
  716MOL0     C94437   2.342   8.747   4.044  0.1337 -0.7341  0.2968
  716MOL0     O94438   2.478   8.771   4.054 -0.4550 -0.0933  0.0016
  716MOL0     C94439   2.522   8.852   4.153 -0.3794  0.2129 -0.7753
  716MOL0     C94440   2.635   8.821   4.255 -0.0298  0.6919 -0.0586
  716MOL0     C94441   2.595   8.693   4.342 -0.2071 -0.1297  0.7906
  716MOL0     C94442   2.710   8.636   4.429  0.4435 -0.0711  1.4837
  716MOL0     C94443   2.726   8.487   4.406 -0.3136  0.0634  0.8093
  716MOL0     C94444   2.731   8.366   4.395 -0.0563 -0.1866  0.4930
  716MOL0     C94445   2.279   8.635   4.089  0.9185 -0.4781 -1.2840
  716MOL0     C94446   2.138   8.623   4.069  0.2084  0.0475  0.8818
  716MOL0     H94447   1.762   8.789   3.661 -0.2675 -5.1627 -0.7537
  716MOL0     H94448   1.512   8.788   3.600  1.6752  0.7012 -0.2017
  716MOL0     H94449   1.157   8.819   3.813 -0.0772  0.8000  3.2068
  716MOL0     H94450   1.257   8.799   3.952 -0.8051 -2.4711  2.0863
  716MOL0     H94451   1.212   8.554   3.958 -1.9444 -1.4456 -0.0492
  716MOL0     H94452   1.113   8.592   3.811 -0.3748 -0.9271 -0.9637
  716MOL0     H94453   0.950   8.693   3.935 -0.6946  2.4903  0.9393
  716MOL0     H94454   1.056   8.764   4.056 -1.8419 -0.1754 -0.5805
  716MOL0     H94455   0.981   8.465   4.056 -1.4382  0.4212 -0.0578
  716MOL0     H94456   1.110   8.546   4.145 -0.1234 -2.4239 -1.9933
  716MOL0     H94457   0.834   8.514   4.201 -1.3653  0.0176  2.9206
  716MOL0     H94458   0.847   8.691   4.156  0.2898  0.6441  0.7787
  716MOL0     H94459   1.047   8.684   4.348 -0.4947  3.7779 -2.8284
  716MOL0     H94460   0.961   8.535   4.395 -3.4765  0.5599  1.6865
  716MOL0     H94461   0.851   8.826   4.404 -2.0110  0.1766 -2.2012
  716MOL0     H94462   0.756   8.673   4.405  1.4200 -1.2298 -4.0471
  716MOL0     H94463   0.972   8.776   4.592 -1.0072  0.6298 -4.0632
  716MOL0     H94464   0.894   8.612   4.603 -3.1590 -1.4857 -1.6955
  716MOL0     H94465   0.623   8.652   4.567 -2.2365  1.1001  0.2223
  716MOL0     H94466   0.362   8.720   4.674  0.2386 -1.3875 -0.4170
  716MOL0     H94467   0.384   8.804   4.839  0.2788 -1.0937  1.5695
  716MOL0     H94468   0.502   8.609   4.914 -0.2867 -1.0650 -0.3670
  716MOL0     H94469   0.498   8.531   4.758  4.0271  2.5841  0.8523
  716MOL0     H94470   0.252   8.620   4.905 -0.1355  1.0997 -2.7870
  716MOL0     H94471   0.256   8.512   4.762  2.1532  2.2138 -2.0812
  716MOL0     H94472   0.417   8.426   4.994  0.8553  2.7800 -2.6726
  716MOL0     H94473   0.332   8.317   4.898 -0.9815 -1.7943  1.3370
  716MOL0     H94474   0.063   8.366   5.217  0.2367  3.3560 -1.7667
  716MOL0     H94475  -0.183   8.282   5.193 -2.2772 -0.9241 -1.5877
  716MOL0     H94476  -0.441   7.926   5.112 -0.7867 -1.6361  0.3143
  716MOL0     H94477  -0.655   7.824   5.149 -2.1201 -1.1287 -1.1965
  716MOL0     H94478  -0.883   7.723   5.169  3.0993  0.8217 -0.8518
  716MOL0     H94479  -0.841   7.757   4.996 -0.9329 -0.1767 -0.5047
  716MOL0     H94480  -1.046   7.667   4.974 -1.3593 -0.2232  2.5785
  716MOL0     H94481  -1.076   7.843   4.963 -0.9880  0.0239 -2.5873
  716MOL0     H94482  -1.161   7.838   5.203  0.0859  1.6695 -2.3188
  716MOL0     H94483  -1.119   7.664   5.211 -0.1940 -0.4872 -0.5008
  716MOL0     H94484  -1.331   7.794   5.026 -0.9450 -0.8599  0.1273
  716MOL0     H94485  -1.317   7.623   5.042 -1.4578 -0.6965  0.6983
  716MOL0     H94486  -1.365   7.798   5.284 -1.9532  1.3485 -1.4267
  716MOL0     H94487  -1.408   7.625   5.252 -2.0585 -0.1907 -0.4440
  716MOL0     H94488  -1.569   7.674   5.105  1.7299 -1.0176  1.2156
  716MOL0     H94489  -1.538   7.854   5.104 -0.0752  3.7111  4.2180
  716MOL0     H94490  -1.612   7.711   5.363  1.1931  0.5913  1.7221
  716MOL0     H94491  -1.574   7.875   5.344 -1.0361 -0.0391  1.7674
  716MOL0     H94492  -1.817   7.859   5.345  1.9428 -1.9483  0.9233
  716MOL0     H94493  -1.822   7.741   5.207  3.3198 -1.1193 -1.9310
  716MOL0     H94494  -0.853   8.171   5.021  1.8712  3.4080  0.2389
  716MOL0     H94495  -0.676   8.300   5.011  1.1512  0.5310  0.4291
  716MOL0     H94496  -0.092   8.141   4.809  1.2110 -2.2307  0.5471
  716MOL0     H94497   0.138   8.235   4.828 -0.1085 -2.3976  0.1018
  716MOL0     H94498   1.433   8.675   4.007 -1.7751  1.7925  0.2724
  716MOL0     H94499   1.671   8.703   4.063 -1.2540  1.8034  0.2844
  716MOL0     H94500   2.097   8.886   3.857 -1.1157 -2.8066 -1.2646
  716MOL0     H94501   2.316   8.931   3.928 -2.5955  1.9238  1.9570
  716MOL0     H94502   2.440   8.865   4.224  1.2701 -0.1871  1.3040
  716MOL0     H94503   2.542   8.949   4.106  1.5600 -0.8459 -2.3179
  716MOL0     H94504   2.733   8.800   4.211  0.0045  0.9496 -0.1098
  716MOL0     H94505   2.651   8.909   4.319  1.9864  0.7215 -0.5336
  716MOL0     H94506   2.557   8.615   4.276 -1.4297  2.3214 -1.6287
  716MOL0     H94507   2.520   8.728   4.413 -0.2443  4.2230 -1.0167
  716MOL0     H94508   2.802   8.692   4.408 -0.5978  1.8237  1.7621
  716MOL0     H94509   2.687   8.653   4.534 -1.1489 -0.4758  1.2203
  716MOL0     H94510   2.734   8.259   4.391 -1.1776 -0.3254  2.1282
  716MOL0     H94511   2.319   8.548   4.140  1.6985  1.0908  0.9296
  716MOL0     H94512   2.103   8.526   4.105  3.5410 -1.2327  1.0848
  717MOL0     O94513   4.033   5.519   3.444  0.2283 -0.5806  0.0204
  717MOL0     C94514   4.098   5.417   3.420  0.2101  0.1535  0.0623
  717MOL0     O94515   4.039   5.322   3.340  0.3830  0.3687 -0.6555
  717MOL0     C94516   3.900   5.315   3.305 -0.4136 -0.1301 -0.0235
  717MOL0     C94517   3.796   5.365   3.385 -0.6442 -0.5126 -0.7091
  717MOL0     C94518   3.665   5.351   3.344 -0.0132  0.3453  0.4181
  717MOL0     C94519   3.634   5.285   3.217  0.0653 -0.6782 -0.4177
  717MOL0     O94520   3.512   5.287   3.153 -0.3761 -0.1090  0.0633
  717MOL0     C94521   3.396   5.369   3.198  0.8550 -0.1547 -0.3326
  717MOL0     C94522   3.286   5.359   3.083  0.1465  0.7183 -0.7730
  717MOL0     C94523   3.146   5.409   3.128 -0.1097 -0.3387  0.3585
  717MOL0     C94524   3.133   5.554   3.178 -0.0548  0.8981  0.0830
  717MOL0     C94525   2.993   5.572   3.248  0.6515 -0.9158  0.3558
  717MOL0     C94526   2.863   5.567   3.170  0.3625  0.0382  0.4423
  717MOL0     C94527   2.863   5.667   3.045  0.0516  0.2785 -0.0173
  717MOL0     C94528   2.719   5.676   2.985 -0.1030 -0.4242  1.2094
  717MOL0     N94529   2.703   5.779   2.881  0.4056  0.5258  0.3853
  717MOL0     C94530   2.780   5.763   2.772  0.2968 -0.7815 -0.4478
  717MOL0     C94531   2.743   5.861   2.686  0.9197  0.7190 -0.0811
  717MOL0     C94532   2.794   5.882   2.550 -0.2497  0.4234 -0.0201
  717MOL0     C94533   2.928   5.945   2.563  0.1582  1.4448 -0.5004
  717MOL0     C94534   3.018   5.924   2.430  0.2374 -0.4018 -0.4484
  717MOL0     C94535   3.091   5.789   2.430 -0.0258 -0.7864  0.0705
  717MOL0     O94536   3.169   5.792   2.306  0.8737 -0.1564 -0.7577
  717MOL0     C94537   3.300   5.833   2.326 -0.1694 -0.2321  0.8204
  717MOL0     C94538   3.351   5.943   2.252  1.0989  0.2274 -0.0248
  717MOL0     C94539   3.479   5.998   2.265  0.0599  0.4255  0.5769
  717MOL0     C94540   3.563   5.947   2.367  0.9222  0.2616  0.7944
  717MOL0     C94541   3.700   5.988   2.364  0.0398  0.5358 -0.5021
  717MOL0     O94542   3.715   6.107   2.309 -0.5112 -0.4658  0.2290
  717MOL0     C94543   3.834   6.168   2.308 -0.1411 -0.8191 -0.9950
  717MOL0     C94544   3.882   6.185   2.177  0.1313  0.6160  0.1741
  717MOL0     C94545   4.012   6.246   2.160  0.1066  0.1566 -0.0732
  717MOL0     C94546   4.095   6.286   2.264 -0.0034 -0.7237  0.6966
  717MOL0     O94547   4.221   6.336   2.245  0.8357 -0.4105  0.5155
  717MOL0     C94548   4.234   6.429   2.137  0.2428 -0.0756 -0.3122
  717MOL0     C94549   4.381   6.483   2.172 -0.2432 -0.8336 -0.5298
  717MOL0     C94550   4.389   6.552   2.316  1.1684  0.1209  0.7032
  717MOL0     C94551   4.509   6.647   2.332 -0.3861 -0.4468  0.8293
  717MOL0     C94552   4.513   6.728   2.460  0.2467  0.0236 -0.0077
  717MOL0     C94553   4.383   6.814   2.495  0.2402 -0.3902  0.7374
  717MOL0     C94554   4.402   6.904   2.617 -0.0915  0.1051 -0.8703
  717MOL0     C94555   4.484   7.034   2.595 -0.7514 -0.4677  0.2354
  717MOL0    Cl94556   4.482   7.108   2.761  0.3989  0.2617 -0.2674
  717MOL0     C94557   4.039   6.284   2.395 -1.2816  0.5333  1.1101
  717MOL0     C94558   3.916   6.219   2.416  0.7332 -0.2703 -0.9254
  717MOL0     O94559   3.788   5.916   2.412 -0.0576  0.1967  1.3062
  717MOL0     C94560   3.514   5.828   2.431  0.8775 -0.4355  0.7688
  717MOL0     C94561   3.391   5.776   2.414  0.8618 -0.4585 -0.0474
  717MOL0     N94562   2.640   5.935   2.750  0.8774  0.1531 -0.9709
  717MOL0     N94563   2.622   5.884   2.875  0.0789  0.3785 -1.0530
  717MOL0     C94564   3.740   5.248   3.133 -0.8348 -0.7245  0.7328
  717MOL0     C94565   3.865   5.261   3.187  0.0525  1.1868 -0.3582
  717MOL0     C94566   4.236   5.406   3.470 -0.2225 -0.6503 -0.3466
  717MOL0     C94567   4.310   5.284   3.468 -0.4027 -0.3714  0.5538
  717MOL0     C94568   4.447   5.274   3.512  0.0937 -0.4302  0.1551
  717MOL0     C94569   4.519   5.388   3.541  0.1744  0.8613  0.2464
  717MOL0     O94570   4.655   5.389   3.583  0.4539  0.0364  0.6082
  717MOL0     C94571   4.726   5.273   3.607  0.3787 -0.6067  0.7845
  717MOL0     C94572   4.872   5.296   3.567 -0.7607 -0.3804  1.0732
  717MOL0     C94573   4.968   5.204   3.643  0.4601 -0.5482  0.1795
  717MOL0     C94574   4.933   5.056   3.628  0.3752  0.6272 -0.1551
  717MOL0     C94575   4.946   5.009   3.488  0.3083 -0.2172 -0.4226
  717MOL0     C94576   4.972   4.967   3.375 -0.2363 -0.3235  0.6805
  717MOL0     C94577   4.452   5.516   3.539 -0.1761 -0.6020 -0.2052
  717MOL0     C94578   4.316   5.525   3.507 -0.0366 -0.1174  0.8742
  717MOL0     H94579   3.830   5.402   3.481 -0.0220 -2.3648 -0.1677
  717MOL0     H94580   3.594   5.394   3.414 -0.4669  2.2278 -1.1016
  717MOL0     H94581   3.421   5.474   3.212 -1.5122  0.4728 -0.2738
  717MOL0     H94582   3.362   5.322   3.291  1.8640  2.5955  1.5337
  717MOL0     H94583   3.257   5.256   3.059 -6.2161  1.4717  1.7231
  717MOL0     H94584   3.329   5.414   2.998  1.3697 -3.7046 -3.3360
  717MOL0     H94585   3.098   5.348   3.204 -1.5832  0.8289  0.4136
  717MOL0     H94586   3.073   5.408   3.046 -0.3710 -1.0951  0.5967
  717MOL0     H94587   3.208   5.563   3.257  0.9927 -0.8747 -0.6429
  717MOL0     H94588   3.158   5.624   3.098  4.1427 -0.6053 -0.1793
  717MOL0     H94589   2.990   5.667   3.300  0.7960  0.9094 -2.7114
  717MOL0     H94590   3.001   5.494   3.324  0.8200 -0.3648  0.9035
  717MOL0     H94591   2.780   5.573   3.241  2.0716  0.0258  2.5433
  717MOL0     H94592   2.860   5.465   3.131  2.4227  0.5366 -1.1367
  717MOL0     H94593   2.891   5.764   3.086  0.0505 -0.6090  2.2797
  717MOL0     H94594   2.932   5.624   2.973  3.2718  1.0064  2.4176
  717MOL0     H94595   2.638   5.678   3.058 -0.3983  0.4280  0.8700
  717MOL0     H94596   2.711   5.582   2.929 -0.4701  0.1468  0.2696
  717MOL0     H94597   2.853   5.684   2.755 -0.5351 -1.0137 -3.5557
  717MOL0     H94598   2.729   5.947   2.490  1.2374  2.4222  0.4316
  717MOL0     H94599   2.804   5.783   2.504  1.9797 -0.8536  2.9254
  717MOL0     H94600   2.991   5.912   2.646  1.4106 -1.2992 -2.3603
  717MOL0     H94601   2.912   6.052   2.575  0.4300  1.2658  1.9162
  717MOL0     H94602   2.943   5.929   2.351 -3.9422 -2.7013  2.8926
  717MOL0     H94603   3.094   6.002   2.423 -1.5301  1.3463 -1.2499
  717MOL0     H94604   3.021   5.705   2.417  0.5631 -1.0070 -2.1423
  717MOL0     H94605   3.152   5.774   2.519  0.0352  0.0453  0.1739
  717MOL0     H94606   3.275   5.987   2.188 -1.3326 -2.9674  0.4236
  717MOL0     H94607   3.486   6.089   2.207  2.3400  0.6556  1.0828
  717MOL0     H94608   3.827   6.131   2.100 -1.0532  1.0011  0.7338
  717MOL0     H94609   4.062   6.248   2.063  1.1616  1.9975  0.4455
  717MOL0     H94610   4.157   6.506   2.142  1.3347  1.1583 -1.7371
  717MOL0     H94611   4.232   6.382   2.038  1.4559 -0.9154  0.0382
  717MOL0     H94612   4.392   6.570   2.107  2.8483  1.3842  2.5886
  717MOL0     H94613   4.461   6.412   2.147  1.1232  0.2815  0.5013
  717MOL0     H94614   4.387   6.481   2.399  1.0188  0.2574  0.8187
  717MOL0     H94615   4.298   6.611   2.328 -0.9718 -2.9932  0.9642
  717MOL0     H94616   4.604   6.595   2.315 -1.0119 -1.1376 -0.7443
  717MOL0     H94617   4.515   6.717   2.248  2.4980 -1.4800  0.0606
  717MOL0     H94618   4.596   6.800   2.454  0.3222 -0.1215 -0.8203
  717MOL0     H94619   4.522   6.656   2.543 -3.1158  0.7606  1.1570
  717MOL0     H94620   4.304   6.752   2.537 -1.3217  2.8460  3.0404
  717MOL0     H94621   4.351   6.865   2.403  1.5926 -0.3066  0.2957
  717MOL0     H94622   4.300   6.932   2.648  0.7045 -0.1206  2.2023
  717MOL0     H94623   4.445   6.841   2.694 -0.3782 -1.0683 -1.6378
  717MOL0     H94624   4.431   7.088   2.515 -0.0708 -1.2847 -0.7981
  717MOL0     H94625   4.582   7.001   2.559  1.5062  3.2540  2.3660
  717MOL0     H94626   4.097   6.325   2.476 -1.1360 -0.0789  1.3201
  717MOL0     H94627   3.870   6.216   2.515  1.3090  2.2937 -0.4861
  717MOL0     H94628   3.583   5.781   2.500  0.3368 -1.5699  0.5486
  717MOL0     H94629   3.364   5.685   2.466 -1.6895  0.1352 -0.2386
  717MOL0     H94630   3.734   5.206   3.033 -1.4550 -0.2967  0.5816
  717MOL0     H94631   3.950   5.224   3.131 -0.2098  1.4288 -0.9183
  717MOL0     H94632   4.262   5.204   3.414 -0.1145  0.2421 -0.6544
  717MOL0     H94633   4.492   5.177   3.494 -1.8561 -1.3505  0.0809
  717MOL0     H94634   4.699   5.181   3.554 -0.3561 -1.4220  2.4977
  717MOL0     H94635   4.711   5.257   3.714  0.1152  1.1692  1.0381
  717MOL0     H94636   4.886   5.289   3.459 -0.8550 -1.6917  1.1300
  717MOL0     H94637   4.890   5.402   3.587  2.6770  0.1770 -3.4222
  717MOL0     H94638   4.962   5.231   3.749 -2.1450  1.0646 -0.2916
  717MOL0     H94639   5.067   5.225   3.602  0.2812 -0.6089 -0.2899
  717MOL0     H94640   4.985   4.982   3.691 -2.0953 -0.9843  0.1561
  717MOL0     H94641   4.829   5.043   3.660 -0.5753  1.6120 -2.5983
  717MOL0     H94642   4.998   4.928   3.279 -2.5622 -2.4471  0.8241
  717MOL0     H94643   4.507   5.604   3.570  0.5662 -1.7259  1.8521
  717MOL0     H94644   4.269   5.622   3.518 -4.1113 -1.5854 -1.2682
  718MOL0     O94645   6.738   6.170   3.966 -0.5356  0.2603 -0.2013
  718MOL0     C94646   6.822   6.259   3.934 -1.1180  0.8157 -0.7198
  718MOL0     O94647   6.817   6.337   3.827 -0.2511 -0.2612 -0.5766
  718MOL0     C94648   6.731   6.325   3.718 -0.0625 -0.1414  0.3191
  718MOL0     C94649   6.638   6.221   3.690 -0.7557  0.2442 -0.6490
  718MOL0     C94650   6.562   6.237   3.566 -0.3727  0.2753 -0.6820
  718MOL0     C94651   6.573   6.344   3.474  0.3936 -0.0949  0.9590
  718MOL0     O94652   6.473   6.358   3.376 -0.4588 -0.6824 -0.2688
  718MOL0     C94653   6.458   6.492   3.313 -0.7236  0.2247 -0.2567
  718MOL0     C94654   6.320   6.507   3.244 -0.2720  0.6871  0.2918
  718MOL0     C94655   6.277   6.653   3.227  0.3355  0.3188 -0.5708
  718MOL0     C94656   6.385   6.734   3.169  0.5200 -0.6460 -0.2767
  718MOL0     C94657   6.335   6.855   3.105 -0.0028 -0.4382  0.5498
  718MOL0     C94658   6.447   6.940   3.049  0.0319 -0.4772  0.0174
  718MOL0     C94659   6.399   7.067   2.988  0.2446  0.3318  0.3683
  718MOL0     C94660   6.359   7.164   3.107  0.6118 -0.5613 -0.7037
  718MOL0     N94661   6.476   7.224   3.177 -0.1327 -0.2836 -0.1172
  718MOL0     C94662   6.529   7.180   3.297  0.5217  0.1169  0.9966
  718MOL0     C94663   6.617   7.281   3.323  0.0350  0.4442 -0.4278
  718MOL0     C94664   6.719   7.276   3.431 -0.2453 -0.3037 -0.0409
  718MOL0     C94665   6.826   7.165   3.401 -0.5780  0.4342  0.1381
  718MOL0     C94666   6.875   7.190   3.253  0.1127 -0.0148  0.1346
  718MOL0     C94667   6.994   7.096   3.221 -0.1429 -0.2751 -0.4373
  718MOL0     O94668   6.958   6.958   3.224  0.3806  0.1568 -0.1146
  718MOL0     C94669   6.884   6.900   3.125 -0.7828  0.9597  0.3110
  718MOL0     C94670   6.852   6.966   3.011 -0.2516  0.9008  1.3902
  718MOL0     C94671   6.787   6.904   2.901 -0.2846  0.6915  0.8354
  718MOL0     C94672   6.728   6.775   2.911 -0.1111  0.7895  0.1973
  718MOL0     C94673   6.654   6.716   2.806  0.9217 -0.1583 -0.0293
  718MOL0     O94674   6.620   6.806   2.701 -0.6088  0.2403  0.6802
  718MOL0     C94675   6.573   6.748   2.578  0.2697 -0.3044 -0.1388
  718MOL0     C94676   6.482   6.824   2.501  0.2167 -0.8216 -0.7183
  718MOL0     C94677   6.433   6.775   2.379 -0.6569  0.0543 -0.0653
  718MOL0     C94678   6.478   6.645   2.330 -0.6816 -0.8104  0.2429
  718MOL0     O94679   6.444   6.586   2.210 -0.5689 -0.4495 -0.3682
  718MOL0     C94680   6.311   6.613   2.161 -0.1924  0.7890 -0.2523
  718MOL0     C94681   6.269   6.489   2.088  0.4691  0.1254  0.1200
  718MOL0     C94682   6.169   6.515   1.974  0.0102  0.3602 -0.5390
  718MOL0     C94683   6.025   6.548   2.022  0.4069  0.2277  0.6002
  718MOL0     C94684   5.925   6.534   1.907 -0.4872 -0.6285 -0.4426
  718MOL0     C94685   5.779   6.567   1.945 -0.2102 -0.2518 -0.3966
  718MOL0     C94686   5.696   6.578   1.818 -0.4374  0.6470  0.3962
  718MOL0     C94687   5.559   6.642   1.840 -1.1775 -0.4152  0.3767
  718MOL0    Cl94688   5.469   6.658   1.684 -0.0449 -0.6459  0.0164
  718MOL0     C94689   6.574   6.585   2.412 -0.7643 -0.3373  0.6212
  718MOL0     C94690   6.613   6.630   2.535 -0.7781 -1.0316 -0.0761
  718MOL0     O94691   6.630   6.594   2.823  0.3123  0.2038 -0.6394
  718MOL0     C94692   6.752   6.706   3.035 -0.7072  0.0240  0.5556
  718MOL0     C94693   6.845   6.766   3.130  0.5780  0.1804 -0.2433
  718MOL0     N94694   6.612   7.375   3.225 -0.2130  0.7893 -0.1500
  718MOL0     N94695   6.516   7.348   3.144  0.6173  0.5545  0.7724
  718MOL0     C94696   6.662   6.432   3.506 -0.0392 -0.1614  0.4358
  718MOL0     C94697   6.747   6.414   3.616  0.0960 -0.4827  1.4577
  718MOL0     C94698   6.940   6.264   4.018  1.2328 -1.3443  0.7201
  718MOL0     C94699   7.049   6.341   3.982  0.2313  0.9017  0.4226
  718MOL0     C94700   7.161   6.358   4.064  0.0927  0.4995 -0.2488
  718MOL0     C94701   7.168   6.295   4.175 -0.4933  0.3565 -0.4232
  718MOL0     O94702   7.275   6.315   4.254 -0.5363 -0.2478 -0.0883
  718MOL0     C94703   7.395   6.254   4.211  0.6247  0.3465 -0.3318
  718MOL0     C94704   7.516   6.352   4.208  0.0294 -0.6728  0.1140
  718MOL0     C94705   7.640   6.274   4.131  0.2095 -0.0510 -0.7646
  718MOL0     C94706   7.754   6.374   4.098  0.1087 -0.5091 -0.8947
  718MOL0     C94707   7.783   6.380   3.953 -1.6894 -0.0192  0.5614
  718MOL0     C94708   7.846   6.396   3.849  0.6072  0.3296  0.2876
  718MOL0     C94709   7.073   6.211   4.224 -0.2748  0.8936  0.6137
  718MOL0     C94710   6.951   6.192   4.141  0.3684  0.4404  1.4925
  718MOL0     H94711   6.617   6.144   3.764  1.5366  1.1801  1.0774
  718MOL0     H94712   6.490   6.164   3.530 -1.8608  0.8496  0.9735
  718MOL0     H94713   6.546   6.510   3.249 -0.9990  0.3772 -0.5996
  718MOL0     H94714   6.468   6.567   3.392 -0.2554  3.0779 -2.8048
  718MOL0     H94715   6.243   6.463   3.308 -0.5349 -0.1923 -0.6022
  718MOL0     H94716   6.329   6.461   3.145 -2.2728 -0.9458  0.8159
  718MOL0     H94717   6.256   6.694   3.326  0.8670  1.7469 -1.0185
  718MOL0     H94718   6.186   6.652   3.167 -0.7002 -2.7901  0.8081
  718MOL0     H94719   6.442   6.759   3.259  0.7395 -3.0155  0.2828
  718MOL0     H94720   6.450   6.674   3.105 -0.0854 -1.2857 -0.2933
  718MOL0     H94721   6.284   6.918   3.178 -0.1473  1.7503 -1.3327
  718MOL0     H94722   6.252   6.832   3.037  0.5675 -4.2848  0.9335
  718MOL0     H94723   6.512   6.890   2.977 -0.7171 -1.5716  0.0810
  718MOL0     H94724   6.521   6.968   3.126 -1.3010  1.8725  0.5621
  718MOL0     H94725   6.476   7.109   2.923 -1.6164  0.2979 -1.9970
  718MOL0     H94726   6.315   7.053   2.919  2.7301 -1.3722 -2.5075
  718MOL0     H94727   6.300   7.114   3.184  0.9107 -2.3270 -1.5616
  718MOL0     H94728   6.303   7.250   3.068  0.3945 -0.9785 -1.3214
  718MOL0     H94729   6.509   7.086   3.347 -2.1513 -0.2147 -0.5132
  718MOL0     H94730   6.668   7.265   3.528 -0.9918  1.0850 -0.2444
  718MOL0     H94731   6.766   7.374   3.440 -1.3578  0.0417  3.6138
  718MOL0     H94732   6.781   7.066   3.415  0.8603 -0.4953 -1.3777
  718MOL0     H94733   6.901   7.177   3.480  2.8772  0.2650 -2.8781
  718MOL0     H94734   6.792   7.162   3.188 -0.8966 -0.4230  1.5404
  718MOL0     H94735   6.919   7.289   3.241 -1.1899  0.3369 -2.2066
  718MOL0     H94736   7.071   7.110   3.298 -0.4737 -3.8515  0.7234
  718MOL0     H94737   7.030   7.137   3.127  2.0792  1.3942  1.0437
  718MOL0     H94738   6.876   7.072   3.005 -0.0624  0.9226  2.3724
  718MOL0     H94739   6.767   6.953   2.806  1.2030 -2.7926 -1.4916
  718MOL0     H94740   6.455   6.927   2.522  1.2211 -0.4756 -1.0563
  718MOL0     H94741   6.347   6.824   2.333 -1.6115  1.3549  2.8288
  718MOL0     H94742   6.306   6.696   2.090  0.0746 -1.1589 -2.6954
  718MOL0     H94743   6.245   6.626   2.247 -0.1958 -0.0083 -0.1279
  718MOL0     H94744   6.219   6.429   2.164 -0.7162  2.5033  1.3093
  718MOL0     H94745   6.356   6.431   2.057  1.5741  0.6071  2.1665
  718MOL0     H94746   6.158   6.424   1.913  2.6398  0.2227 -0.9173
  718MOL0     H94747   6.213   6.594   1.912  0.8506  1.5732  1.5217
  718MOL0     H94748   5.997   6.471   2.095  0.0213 -0.3568 -0.1500
  718MOL0     H94749   6.028   6.649   2.063 -0.8835  0.2156  0.7895
  718MOL0     H94750   5.939   6.441   1.851  1.0000  0.5404 -2.1355
  718MOL0     H94751   5.964   6.615   1.844 -3.2421  0.9117 -0.3071
  718MOL0     H94752   5.780   6.657   2.007 -1.1238  0.3359 -1.2077
  718MOL0     H94753   5.740   6.490   2.013  3.1763  0.2188  2.3871
  718MOL0     H94754   5.765   6.621   1.745 -0.6282  1.1090  0.4856
  718MOL0     H94755   5.685   6.476   1.780 -0.2390  1.3932 -1.8624
  718MOL0     H94756   5.569   6.748   1.868 -2.7132  1.1090 -3.9089
  718MOL0     H94757   5.504   6.580   1.911 -3.4055  0.4620 -0.4947
  718MOL0     H94758   6.619   6.489   2.388  1.4901 -0.1647  3.5454
  718MOL0     H94759   6.691   6.574   2.585  4.1629  4.4211 -0.5449
  718MOL0     H94760   6.707   6.611   3.060  1.6665 -1.1580  0.5674
  718MOL0     H94761   6.859   6.717   3.226  0.1107  1.9801  0.8037
  718MOL0     H94762   6.683   6.515   3.438  0.1609  0.2701  1.0173
  718MOL0     H94763   6.819   6.496   3.616 -1.9544  1.7469 -3.3746
  718MOL0     H94764   7.043   6.396   3.888 -0.8058  3.9011  2.0829
  718MOL0     H94765   7.231   6.431   4.024 -0.8035  0.0674 -2.8549
  718MOL0     H94766   7.377   6.195   4.121 -4.1703  0.6324  0.1386
  718MOL0     H94767   7.410   6.180   4.290 -0.5353 -0.1383 -0.5373
  718MOL0     H94768   7.492   6.442   4.150  2.6144 -1.1292 -1.8729
  718MOL0     H94769   7.526   6.389   4.311  1.2219 -3.3897  1.0540
  718MOL0     H94770   7.603   6.217   4.045 -1.3826 -0.9225  0.4368
  718MOL0     H94771   7.686   6.200   4.197  0.5240  1.2643  0.5461
  718MOL0     H94772   7.736   6.478   4.130 -2.4082 -0.5372 -1.9775
  718MOL0     H94773   7.834   6.338   4.164 -1.4331  1.9002  2.5818
  718MOL0     H94774   7.920   6.425   3.778  2.5152  1.5283  2.5961
  718MOL0     H94775   7.078   6.159   4.319  1.0289 -0.1036  0.0204
  718MOL0     H94776   6.872   6.138   4.192  0.7621 -0.9010  0.7306
  719MOL0     O94777   6.131   5.908   6.323  0.3679 -0.1632 -0.2554
  719MOL0     C94778   6.120   5.961   6.434  0.0672 -0.5753  0.5165
  719MOL0     O94779   6.162   5.901   6.546 -0.4349  0.7262 -0.6522
  719MOL0     C94780   6.231   5.776   6.559 -1.2146 -0.2229  0.2061
  719MOL0     C94781   6.306   5.711   6.454  0.0637 -0.5155 -0.3011
  719MOL0     C94782   6.366   5.590   6.483  0.2040  0.2094 -0.1338
  719MOL0     C94783   6.358   5.528   6.606  0.1834  0.4799  0.0394
  719MOL0     O94784   6.411   5.400   6.614  0.3483 -0.0410 -1.7315
  719MOL0     C94785   6.304   5.301   6.630  0.2338 -1.1401 -0.2180
  719MOL0     C94786   6.313   5.182   6.524  0.0127  0.3885 -0.1817
  719MOL0     C94787   6.328   5.233   6.386  0.2225  0.0265 -0.3461
  719MOL0     C94788   6.339   5.118   6.297  0.1452  0.0353  0.4510
  719MOL0     C94789   6.329   5.144   6.152  0.5033 -0.4237  0.4293
  719MOL0     C94790   6.459   5.206   6.104 -0.4457 -0.0903 -0.3964
  719MOL0     C94791   6.484   5.222   5.962  0.7353  0.9860  0.3700
  719MOL0     C94792   6.359   5.288   5.888 -0.2257  0.0591 -0.0067
  719MOL0     N94793   6.399   5.342   5.764  0.5299  0.1023  0.2609
  719MOL0     C94794   6.486   5.450   5.743 -0.5020  0.7726 -1.0199
  719MOL0     C94795   6.439   5.501   5.628  0.5055 -0.0398  0.7813
  719MOL0     C94796   6.495   5.626   5.570 -0.6681 -0.6748 -0.3408
  719MOL0     C94797   6.646   5.634   5.554 -0.2724 -0.3044 -0.4161
  719MOL0     C94798   6.676   5.735   5.441  0.0848 -0.5879  0.2144
  719MOL0     C94799   6.602   5.877   5.460 -0.4804  0.1360  0.6061
  719MOL0     O94800   6.607   5.965   5.344 -0.9152 -0.4119 -0.2588
  719MOL0     C94801   6.585   6.097   5.374 -0.2915  0.0000  0.8728
  719MOL0     C94802   6.453   6.143   5.365 -0.3280 -0.4647 -0.4105
  719MOL0     C94803   6.426   6.277   5.388 -0.4729  0.4712 -0.1030
  719MOL0     C94804   6.528   6.364   5.429  0.0359  0.5133  0.2868
  719MOL0     C94805   6.489   6.508   5.438 -0.2689 -1.0755  0.9060
  719MOL0     O94806   6.358   6.535   5.421  0.1281 -0.0131  0.0827
  719MOL0     C94807   6.307   6.657   5.450 -0.4427 -0.6931 -0.3816
  719MOL0     C94808   6.343   6.713   5.574  0.3665  0.1125 -0.3609
  719MOL0     C94809   6.277   6.829   5.620 -0.7174 -0.4606  0.1592
  719MOL0     C94810   6.188   6.890   5.539 -0.0580 -0.3271  0.0929
  719MOL0     O94811   6.137   7.013   5.594  0.4350 -0.6538  0.4613
  719MOL0     C94812   6.037   7.085   5.530  0.6935 -0.9148 -0.5113
  719MOL0     C94813   5.988   7.195   5.629  0.7759 -0.0701  0.2163
  719MOL0     C94814   5.882   7.148   5.722 -0.3403  0.3523 -0.4547
  719MOL0     C94815   5.737   7.182   5.678 -0.0059 -0.1878  0.4339
  719MOL0     C94816   5.646   7.090   5.758 -0.6540  0.1173 -0.0476
  719MOL0     C94817   5.500   7.120   5.738 -0.0263  0.2640 -0.6335
  719MOL0     C94818   5.402   7.056   5.839  1.0883 -0.6732 -0.7243
  719MOL0     C94819   5.430   6.902   5.860 -0.0339 -1.1410 -0.5755
  719MOL0    Cl94820   5.319   6.847   5.997 -0.3271  0.4163  0.8178
  719MOL0     C94821   6.159   6.835   5.408 -0.9190  0.0847 -0.2593
  719MOL0     C94822   6.212   6.710   5.364  0.5443  0.3960  0.8171
  719MOL0     O94823   6.577   6.597   5.449  0.0234  0.0696 -0.2555
  719MOL0     C94824   6.667   6.323   5.446  0.3940  0.3149  0.1866
  719MOL0     C94825   6.688   6.181   5.416  0.9611  0.8668 -0.1422
  719MOL0     N94826   6.340   5.427   5.575 -0.8060  0.1487 -0.4130
  719MOL0     N94827   6.311   5.332   5.659  0.0961  0.8232 -0.7308
  719MOL0     C94828   6.284   5.593   6.707  0.4464  0.2792 -0.0045
  719MOL0     C94829   6.225   5.713   6.685  0.1103  0.3822  0.5784
  719MOL0     C94830   6.062   6.095   6.429  1.1546  0.1923 -0.1986
  719MOL0     C94831   6.064   6.183   6.322  0.8034 -0.5771  0.1958
  719MOL0     C94832   6.007   6.314   6.322 -0.4716  0.2954  0.3053
  719MOL0     C94833   5.956   6.361   6.441  0.4084 -0.2963 -0.4581
  719MOL0     O94834   5.895   6.481   6.428  0.0543 -0.8988 -0.0730
  719MOL0     C94835   5.825   6.542   6.534 -0.5765 -0.3167 -0.4047
  719MOL0     C94836   5.789   6.683   6.506  0.3337 -1.0527  1.0467
  719MOL0     C94837   5.755   6.772   6.630  0.8511 -0.1136 -0.1829
  719MOL0     C94838   5.662   6.892   6.591  0.6787  0.2061  0.9654
  719MOL0     C94839   5.519   6.851   6.568 -0.4552  0.2817  0.1850
  719MOL0     C94840   5.402   6.828   6.548 -0.4499  0.5116  0.4080
  719MOL0     C94841   5.957   6.279   6.554  0.9527 -0.4837  0.9073
  719MOL0     C94842   6.011   6.150   6.548  0.5262 -0.7582 -0.1883
  719MOL0     H94843   6.306   5.759   6.356 -1.1769 -1.8515 -0.9926
  719MOL0     H94844   6.419   5.544   6.401  3.3031  2.8085  0.2054
  719MOL0     H94845   6.209   5.349   6.603  2.1372  2.1498 -1.7064
  719MOL0     H94846   6.285   5.274   6.734 -0.5581  1.5704  0.4281
  719MOL0     H94847   6.225   5.116   6.520  1.3044 -1.4443 -4.8440
  719MOL0     H94848   6.403   5.126   6.550 -1.1634 -1.3283  0.3964
  719MOL0     H94849   6.425   5.283   6.377  1.6356 -2.1693  1.4676
  719MOL0     H94850   6.235   5.283   6.359 -0.7223  1.0332  3.9764
  719MOL0     H94851   6.429   5.057   6.312 -0.8174 -1.4392  0.4503
  719MOL0     H94852   6.248   5.061   6.318 -0.9893  1.7939  0.4816
  719MOL0     H94853   6.244   5.212   6.148  2.5535  2.3171  0.5880
  719MOL0     H94854   6.310   5.052   6.095  1.6649 -0.0833 -0.5438
  719MOL0     H94855   6.540   5.157   6.159 -1.2870  0.2555  1.1966
  719MOL0     H94856   6.469   5.305   6.151 -0.5578 -0.4639  0.4309
  719MOL0     H94857   6.575   5.283   5.960  2.5247 -1.5457 -0.5287
  719MOL0     H94858   6.510   5.123   5.922 -0.0929  1.0461 -0.3323
  719MOL0     H94859   6.326   5.374   5.948 -1.1394  1.1926 -2.0267
  719MOL0     H94860   6.270   5.224   5.883 -0.4544  0.3948 -0.2870
  719MOL0     H94861   6.558   5.507   5.802 -1.3808  1.8340 -0.9286
  719MOL0     H94862   6.471   5.701   5.647 -0.7980 -3.1778  2.2172
  719MOL0     H94863   6.444   5.628   5.473  2.6730 -2.2684 -2.2941
  719MOL0     H94864   6.685   5.538   5.521  0.1294  0.0007 -0.8425
  719MOL0     H94865   6.694   5.665   5.647 -2.9842 -1.2773  1.4417
  719MOL0     H94866   6.783   5.760   5.432 -0.6758  2.4675 -1.9046
  719MOL0     H94867   6.647   5.694   5.344 -1.0603  1.6857 -0.4747
  719MOL0     H94868   6.642   5.925   5.550  2.5962 -0.3964 -0.3650
  719MOL0     H94869   6.494   5.871   5.478 -0.3635  3.5676  3.4760
  719MOL0     H94870   6.373   6.074   5.340 -0.9029  1.1303 -3.4626
  719MOL0     H94871   6.322   6.308   5.390 -0.3598  0.8211  0.9854
  719MOL0     H94872   6.415   6.664   5.638  0.0149  0.5729  0.4022
  719MOL0     H94873   6.291   6.870   5.719  2.6154 -0.8602 -0.0451
  719MOL0     H94874   5.951   7.018   5.517 -1.6766  1.8925 -0.2223
  719MOL0     H94875   6.061   7.124   5.431 -2.7704 -2.3187 -2.0864
  719MOL0     H94876   5.960   7.287   5.576  1.0258 -0.4431 -0.5751
  719MOL0     H94877   6.083   7.226   5.675  2.3030 -0.5455 -2.4434
  719MOL0     H94878   5.902   7.184   5.824 -1.8275 -0.2189  0.0733
  719MOL0     H94879   5.894   7.040   5.732  5.3339  0.8313  1.8783
  719MOL0     H94880   5.720   7.287   5.704  2.0500 -0.0053  1.2500
  719MOL0     H94881   5.723   7.159   5.572  0.6360  2.2972 -0.2638
  719MOL0     H94882   5.667   7.103   5.865  0.3702  0.8042 -0.3242
  719MOL0     H94883   5.663   6.988   5.725  0.5686  0.4057 -0.3571
  719MOL0     H94884   5.472   7.090   5.637  2.5789 -4.2497 -0.3077
  719MOL0     H94885   5.495   7.229   5.744 -1.8443  0.4020 -3.1489
  719MOL0     H94886   5.422   7.094   5.940  0.3063 -1.9207 -0.0785
  719MOL0     H94887   5.296   7.080   5.826  0.8476  0.4874  2.4366
  719MOL0     H94888   5.533   6.886   5.893 -0.2303 -0.5513  0.3578
  719MOL0     H94889   5.410   6.844   5.770 -0.9487 -2.1888  0.2620
  719MOL0     H94890   6.078   6.889   5.359 -0.3823  0.8276 -0.3441
  719MOL0     H94891   6.169   6.667   5.274  0.0819  0.1831  1.1348
  719MOL0     H94892   6.744   6.388   5.485  0.8705 -0.4654  0.5697
  719MOL0     H94893   6.783   6.134   5.437  0.2551  0.8363  3.5281
  719MOL0     H94894   6.273   5.532   6.796 -2.7658  1.5751  0.6328
  719MOL0     H94895   6.163   5.770   6.752 -0.1487  0.4234  0.3062
  719MOL0     H94896   6.115   6.151   6.232  2.4151  0.0537  0.8435
  719MOL0     H94897   6.004   6.376   6.232  0.6635  1.4100  0.9955
  719MOL0     H94898   5.890   6.554   6.621 -1.8638 -0.5963  0.6199
  719MOL0     H94899   5.730   6.494   6.557 -2.9882  4.5622  1.3367
  719MOL0     H94900   5.872   6.730   6.452 -0.1104 -0.9334  0.4568
  719MOL0     H94901   5.710   6.687   6.431  1.1877 -1.8352  0.0765
  719MOL0     H94902   5.845   6.822   6.666  1.1350 -0.2452 -0.6938
  719MOL0     H94903   5.709   6.713   6.709  2.2708 -0.6330  0.2919
  719MOL0     H94904   5.671   6.967   6.670 -0.1684 -0.4023  1.6485
  719MOL0     H94905   5.704   6.936   6.500 -1.1407  0.1376  0.0460
  719MOL0     H94906   5.299   6.817   6.520  0.8236 -2.9150 -4.2060
  719MOL0     H94907   5.905   6.324   6.639 -0.7080 -0.7485  0.0662
  719MOL0     H94908   5.997   6.081   6.631 -2.6638 -2.0845 -1.6505
  720MOL0     O94909   3.704   3.826   6.336 -0.3602  0.7682  0.6943
  720MOL0     C94910   3.707   3.887   6.228 -0.1989  0.8278 -0.6729
  720MOL0     O94911   3.609   3.964   6.187  0.3825  0.1372 -0.7488
  720MOL0     C94912   3.504   3.993   6.274 -0.4673 -0.6311  0.8452
  720MOL0     C94913   3.373   3.950   6.248  0.7453  0.0045 -0.4699
  720MOL0     C94914   3.257   3.986   6.325  0.5316 -0.7001  0.4117
  720MOL0     C94915   3.276   4.066   6.438 -0.2219  0.3156  0.1114
  720MOL0     O94916   3.177   4.086   6.538 -0.4254  0.5576 -0.1175
  720MOL0     C94917   3.041   4.063   6.503  0.5787  0.3690 -0.2917
  720MOL0     C94918   2.942   4.102   6.610 -0.6007 -0.3439  0.2421
  720MOL0     C94919   2.947   4.017   6.730  0.9170  0.6599  0.6194
  720MOL0     C94920   2.861   3.884   6.718 -0.0684  0.4122  0.3646
  720MOL0     C94921   2.884   3.801   6.846 -0.1485 -0.5047 -0.2215
  720MOL0     C94922   2.793   3.677   6.851  0.0210  0.2865 -0.7716
  720MOL0     C94923   2.787   3.619   6.985 -0.7602 -0.4143  0.1047
  720MOL0     C94924   2.744   3.475   6.988 -0.3570  0.0501  0.2470
  720MOL0     N94925   2.719   3.428   7.129  0.5881 -0.8885  0.6967
  720MOL0     C94926   2.620   3.342   7.156 -0.0403  0.0679  0.2255
  720MOL0     C94927   2.612   3.339   7.293 -0.2600  0.3315  0.1099
  720MOL0     C94928   2.510   3.266   7.373 -0.5854  0.0162 -0.0359
  720MOL0     C94929   2.377   3.347   7.390 -0.5228  0.5093 -0.3679
  720MOL0     C94930   2.288   3.274   7.490  0.8806 -1.1257 -0.1187
  720MOL0     C94931   2.164   3.361   7.500  0.6868  0.5079  0.1288
  720MOL0     O94932   2.096   3.346   7.371  0.0680  0.3365  0.4382
  720MOL0     C94933   1.985   3.271   7.358 -0.6866  1.1059 -0.3745
  720MOL0     C94934   1.906   3.222   7.459  0.3714 -1.1185  1.1262
  720MOL0     C94935   1.803   3.128   7.437  0.1182  0.1192  0.6643
  720MOL0     C94936   1.771   3.078   7.306  1.0847 -0.2599 -0.1305
  720MOL0     C94937   1.651   2.993   7.279 -0.4321 -0.7063 -0.3171
  720MOL0     O94938   1.602   2.936   7.384 -1.0987  0.1788 -0.6978
  720MOL0     C94939   1.506   2.838   7.367  0.4229  0.3387 -1.2336
  720MOL0     C94940   1.378   2.848   7.436  0.2928  0.0437  0.1622
  720MOL0     C94941   1.276   2.756   7.412 -0.0611  0.2552 -0.3007
  720MOL0     C94942   1.298   2.645   7.329  0.0141 -0.1586  0.4926
  720MOL0     O94943   1.187   2.574   7.309 -0.3706  0.3592  0.1485
  720MOL0     C94944   1.197   2.447   7.241 -1.1484 -0.9441 -0.7024
  720MOL0     C94945   1.065   2.402   7.199  0.8230  0.4685  0.0139
  720MOL0     C94946   0.972   2.368   7.321  0.4100  0.5047 -0.4203
  720MOL0     C94947   1.015   2.257   7.430 -0.7373  0.9117 -0.7403
  720MOL0     C94948   0.901   2.189   7.493  1.0948 -0.8542 -0.1656
  720MOL0     C94949   0.827   2.285   7.581  0.3038  0.0192  0.0981
  720MOL0     C94950   0.707   2.226   7.637  0.2281  0.0497  0.0907
  720MOL0     C94951   0.623   2.332   7.722 -1.5094 -0.4582  0.4162
  720MOL0    Cl94952   0.480   2.263   7.790  0.3318  0.2389  0.0257
  720MOL0     C94953   1.425   2.630   7.271 -0.3427  0.4028 -0.4009
  720MOL0     C94954   1.535   2.721   7.285 -0.0216 -0.2200  0.3042
  720MOL0     O94955   1.606   2.982   7.165 -0.1977 -0.4406 -0.7227
  720MOL0     C94956   1.828   3.147   7.198  0.5805 -0.2809  0.4636
  720MOL0     C94957   1.939   3.232   7.230  1.3943 -0.1359  0.9097
  720MOL0     N94958   2.710   3.418   7.338 -0.3906 -0.5247 -0.4477
  720MOL0     N94959   2.780   3.466   7.241 -0.2789  0.5383 -0.1838
  720MOL0     C94960   3.406   4.098   6.470  0.4285  0.3576  0.3441
  720MOL0     C94961   3.523   4.066   6.390  1.4009  0.3868 -0.0619
  720MOL0     C94962   3.818   3.859   6.145  0.1196 -0.2933 -0.6051
  720MOL0     C94963   3.812   3.903   6.014 -0.5825  0.7061  0.9205
  720MOL0     C94964   3.926   3.891   5.934  0.6100 -0.7297 -0.5793
  720MOL0     C94965   4.036   3.819   5.978 -0.0050 -0.4863 -0.4013
  720MOL0     O94966   4.138   3.782   5.891 -0.2274 -0.1626 -0.1821
  720MOL0     C94967   4.237   3.884   5.863 -0.5161  0.4987  0.1600
  720MOL0     C94968   4.344   3.874   5.966 -0.1919 -0.7229 -0.9876
  720MOL0     C94969   4.429   4.000   5.945 -0.6382  0.3532 -0.4935
  720MOL0     C94970   4.521   4.027   6.058  0.3596 -0.5216 -0.2671
  720MOL0     C94971   4.621   3.922   6.075 -0.9846 -0.1222 -0.1327
  720MOL0     C94972   4.713   3.850   6.111  0.9373 -0.7130 -0.2282
  720MOL0     C94973   4.044   3.778   6.109 -0.6371  0.1920  0.3435
  720MOL0     C94974   3.929   3.777   6.185 -1.5244 -0.1517  1.2148
  720MOL0     H94975   3.356   3.904   6.151 -0.3878  0.7989 -0.6607
  720MOL0     H94976   3.160   3.942   6.301  1.4232 -1.3043 -2.4753
  720MOL0     H94977   3.012   3.960   6.479 -1.6602  1.0085 -0.5560
  720MOL0     H94978   3.017   4.126   6.416  1.1057  0.2050 -0.5614
  720MOL0     H94979   2.841   4.128   6.575  0.4323  1.8454 -1.3770
  720MOL0     H94980   2.980   4.203   6.627  0.6230 -0.8878  0.7970
  720MOL0     H94981   2.906   4.079   6.810  1.1051  0.9308  0.5041
  720MOL0     H94982   3.051   3.995   6.757  2.0590  2.5966 -1.8288
  720MOL0     H94983   2.757   3.911   6.697 -0.4852 -1.0667  0.3801
  720MOL0     H94984   2.899   3.830   6.631 -0.6745  0.9551 -0.2450
  720MOL0     H94985   2.862   3.865   6.932 -1.5360  2.9320 -2.9123
  720MOL0     H94986   2.988   3.767   6.841  0.0711  0.3554 -2.4734
  720MOL0     H94987   2.837   3.605   6.781  2.0125  0.9092 -0.2526
  720MOL0     H94988   2.696   3.698   6.805 -1.4503 -0.8565  1.6087
  720MOL0     H94989   2.892   3.627   7.015 -1.2015  0.2376  1.5502
  720MOL0     H94990   2.719   3.678   7.047 -1.3534 -1.5902  0.6213
  720MOL0     H94991   2.820   3.412   6.940 -1.7831 -1.4177 -0.1809
  720MOL0     H94992   2.650   3.460   6.935 -0.7567  0.6503  0.7657
  720MOL0     H94993   2.552   3.284   7.094 -1.3117 -0.3372  1.9439
  720MOL0     H94994   2.552   3.246   7.472  0.5010  3.6013  0.3741
  720MOL0     H94995   2.489   3.173   7.319  2.6005 -0.5556 -0.4477
  720MOL0     H94996   2.324   3.363   7.296 -0.9845 -0.4068 -0.2785
  720MOL0     H94997   2.405   3.444   7.430 -1.2859  0.4170  0.4287
  720MOL0     H94998   2.248   3.176   7.461 -0.4090 -0.5506 -0.3087
  720MOL0     H94999   2.339   3.260   7.586  1.4967 -0.9968 -0.4241
  720MOL0     H95000   2.197   3.466   7.503 -2.2055  1.6111 -1.9261
  720MOL0     H95001   2.109   3.340   7.591  1.1984 -3.6251 -0.3118
  720MOL0     H95002   1.930   3.246   7.562  1.1815 -2.8824  1.3841
  720MOL0     H95003   1.752   3.092   7.526 -0.3329  1.9290  1.1783
  720MOL0     H95004   1.366   2.938   7.496 -1.7562 -0.7734  1.0638
  720MOL0     H95005   1.174   2.768   7.445 -0.7840  2.9263 -3.0523
  720MOL0     H95006   1.251   2.368   7.295 -2.9735 -2.0680 -0.4245
  720MOL0     H95007   1.245   2.469   7.146 -1.6277 -0.4706 -0.8392
  720MOL0     H95008   1.076   2.309   7.142 -1.1262  0.2693 -0.1291
  720MOL0     H95009   1.017   2.485   7.147 -0.5072 -0.6569 -0.6440
  720MOL0     H95010   0.878   2.335   7.275 -0.8229  1.4367  1.3485
  720MOL0     H95011   0.959   2.460   7.377  0.4008  1.7973 -2.4551
  720MOL0     H95012   1.077   2.180   7.383  1.7770  1.0560  2.0621
  720MOL0     H95013   1.068   2.299   7.515 -1.3659 -1.0538  0.6945
  720MOL0     H95014   0.935   2.114   7.564  0.6231 -1.7177 -0.8349
  720MOL0     H95015   0.844   2.148   7.409 -0.2232  0.9583 -0.2273
  720MOL0     H95016   0.789   2.370   7.523 -2.0161 -0.8614  0.2277
  720MOL0     H95017   0.890   2.317   7.664 -0.2857  0.6294  0.3237
  720MOL0     H95018   0.634   2.192   7.563  0.6542 -1.7101  0.4299
  720MOL0     H95019   0.730   2.137   7.696  1.5376  1.1788  1.3394
  720MOL0     H95020   0.596   2.409   7.650  1.1761 -1.3946 -1.7837
  720MOL0     H95021   0.690   2.373   7.798  3.9965 -4.0246 -1.8280
  720MOL0     H95022   1.440   2.543   7.209 -1.2043  0.4487 -0.6859
  720MOL0     H95023   1.630   2.719   7.231  0.1154  1.1512  0.4558
  720MOL0     H95024   1.788   3.137   7.097 -1.9427  1.2351  1.2256
  720MOL0     H95025   1.986   3.298   7.157  0.1386 -2.3669 -2.1490
  720MOL0     H95026   3.411   4.153   6.564 -0.8184  0.2048  0.5244
  720MOL0     H95027   3.620   4.115   6.391  0.4577  2.3726 -0.3233
  720MOL0     H95028   3.736   3.967   5.971 -0.9758  0.3798  1.1267
  720MOL0     H95029   3.909   3.924   5.832 -1.3124 -2.0694 -0.7474
  720MOL0     H95030   4.194   3.984   5.877  1.3287  1.4334 -0.4370
  720MOL0     H95031   4.274   3.877   5.760  1.1652  0.1899  0.7526
  720MOL0     H95032   4.297   3.868   6.065  1.4960  1.5921  0.0390
  720MOL0     H95033   4.407   3.789   5.937  1.4744  1.1682 -3.3688
  720MOL0     H95034   4.378   4.096   5.935 -1.7499 -0.3536 -2.0617
  720MOL0     H95035   4.490   4.002   5.854  0.2541  0.4989  0.1013
  720MOL0     H95036   4.574   4.122   6.052 -0.5573  0.0800  0.8443
  720MOL0     H95037   4.465   4.028   6.152 -1.6444  2.4040 -1.3534
  720MOL0     H95038   4.789   3.777   6.132  0.2677 -1.2533  0.3869
  720MOL0     H95039   4.133   3.735   6.154 -1.4353 -3.1485 -0.9680
  720MOL0     H95040   3.940   3.737   6.285 -1.7479 -0.2780  1.1901
  721MOL0     O95041   6.184   1.581   5.209 -0.0620 -0.3597 -0.2728
  721MOL0     C95042   6.153   1.694   5.257  0.0390  0.0567 -0.0439
  721MOL0     O95043   6.021   1.741   5.252  0.4139 -0.8044 -0.3078
  721MOL0     C95044   5.912   1.664   5.225 -0.6853 -0.6392 -0.7316
  721MOL0     C95045   5.799   1.690   5.287  0.3530  0.2336 -0.6470
  721MOL0     C95046   5.687   1.605   5.279 -0.3797 -0.1829  0.4550
  721MOL0     C95047   5.682   1.493   5.203 -0.7892 -0.1377 -0.4583
  721MOL0     O95048   5.574   1.413   5.209  0.0319 -0.7484 -0.3623
  721MOL0     C95049   5.589   1.275   5.175 -0.0124 -0.6648  0.0764
  721MOL0     C95050   5.469   1.200   5.227  0.1953 -0.2665 -0.4713
  721MOL0     C95051   5.330   1.252   5.168 -0.8467 -0.5373 -0.3602
  721MOL0     C95052   5.204   1.176   5.231  0.6664 -0.6812 -0.1843
  721MOL0     C95053   5.082   1.272   5.214  1.0630 -0.3644  0.5125
  721MOL0     C95054   4.949   1.210   5.279 -0.4067  0.2392 -0.0391
  721MOL0     C95055   4.947   1.154   5.425  0.6289 -0.5328 -1.0720
  721MOL0     C95056   4.808   1.126   5.491 -0.4820 -0.3266  0.2910
  721MOL0     N95057   4.739   1.020   5.411 -1.0717  0.3224 -0.1610
  721MOL0     C95058   4.688   1.043   5.289 -0.5349  0.0349  0.0426
  721MOL0     C95059   4.637   0.930   5.256  0.9050 -0.0632 -0.2948
  721MOL0     C95060   4.568   0.900   5.120  0.6608  0.0725 -0.3646
  721MOL0     C95061   4.420   0.905   5.114 -0.5138 -0.3931  0.1569
  721MOL0     C95062   4.362   1.034   5.170  0.3386 -0.1110  0.1198
  721MOL0     C95063   4.212   1.021   5.170 -0.3259 -0.2684 -0.4330
  721MOL0     O95064   4.153   1.041   5.033  0.8761  0.4537 -0.7246
  721MOL0     C95065   4.011   1.047   5.020 -0.7520 -1.1710  0.1345
  721MOL0     C95066   3.917   0.996   5.111  0.6750  0.0831 -0.5807
  721MOL0     C95067   3.778   0.999   5.080  0.2303 -0.1138  0.1609
  721MOL0     C95068   3.732   1.046   4.959 -0.4264 -0.5690  0.3830
  721MOL0     C95069   3.585   1.055   4.936 -0.6306  0.5961  0.0773
  721MOL0     O95070   3.555   1.075   4.810 -0.1475 -0.6328 -0.2066
  721MOL0     C95071   3.417   1.058   4.778  0.8113  0.4428 -0.3809
  721MOL0     C95072   3.328   1.157   4.804  0.0592 -0.5436 -0.7036
  721MOL0     C95073   3.204   1.166   4.748 -0.5448 -0.1482 -0.8895
  721MOL0     C95074   3.156   1.058   4.674  0.1865 -0.6410 -0.2562
  721MOL0     O95075   3.027   1.068   4.631 -0.7490 -0.1979  0.1539
  721MOL0     C95076   2.977   1.189   4.579  0.4555  0.2494  0.6347
  721MOL0     C95077   2.871   1.148   4.475 -0.2236  0.5114 -0.3044
  721MOL0     C95078   2.929   1.088   4.350 -0.1412  0.0007 -0.2844
  721MOL0     C95079   2.820   1.038   4.252 -0.3489 -0.2254 -0.5493
  721MOL0     C95080   2.845   1.056   4.107  0.9135  0.1712 -0.0946
  721MOL0     C95081   2.734   0.982   4.037 -1.2439  0.6097  0.2160
  721MOL0     C95082   2.752   1.022   3.888  0.6867  0.7066 -0.3889
  721MOL0     C95083   2.643   0.962   3.794  0.0759  0.6083  0.0709
  721MOL0    Cl95084   2.483   1.053   3.789 -0.6753 -0.1142  0.4106
  721MOL0     C95085   3.235   0.944   4.657 -0.1527 -1.3964 -0.0758
  721MOL0     C95086   3.371   0.954   4.699  0.5774  0.1707  0.5375
  721MOL0     O95087   3.508   1.039   5.033 -0.5127  0.4426  0.0731
  721MOL0     C95088   3.833   1.100   4.867  1.0235 -0.2185  0.2041
  721MOL0     C95089   3.969   1.105   4.902  0.5030 -0.5923  0.1819
  721MOL0     N95090   4.653   0.834   5.350 -0.2974  0.0940 -0.9388
  721MOL0     N95091   4.730   0.887   5.438 -0.0477 -0.0464 -0.1297
  721MOL0     C95092   5.790   1.482   5.113 -0.0886  0.2133  0.2656
  721MOL0     C95093   5.905   1.563   5.127 -0.5439 -0.3925  0.2011
  721MOL0     C95094   6.258   1.787   5.297  0.3638  0.2932 -0.5359
  721MOL0     C95095   6.223   1.917   5.339 -1.0521 -0.0812 -0.1510
  721MOL0     C95096   6.320   2.011   5.371  0.3099 -0.3615  0.4906
  721MOL0     C95097   6.453   1.979   5.371  0.3817  0.1448 -0.6663
  721MOL0     O95098   6.532   2.069   5.415 -0.6358 -0.4658  0.2792
  721MOL0     C95099   6.669   2.031   5.461 -0.1107 -0.3782 -0.1079
  721MOL0     C95100   6.743   2.145   5.524 -0.0496  0.4300  0.6359
  721MOL0     C95101   6.674   2.220   5.638  0.4866 -0.8794 -0.4505
  721MOL0     C95102   6.661   2.137   5.767 -0.1637 -0.0726 -0.4073
  721MOL0     C95103   6.581   2.220   5.859  0.2660 -0.1191 -0.0022
  721MOL0     C95104   6.499   2.253   5.946 -0.1671 -0.0387  0.0608
  721MOL0     C95105   6.490   1.853   5.328  0.9893 -0.1399  0.2594
  721MOL0     C95106   6.399   1.757   5.284  0.5244  0.1400 -0.1498
  721MOL0     H95107   5.799   1.773   5.357 -1.5187 -0.0186 -0.3089
  721MOL0     H95108   5.602   1.629   5.343  0.8690  1.7618  1.4755
  721MOL0     H95109   5.674   1.225   5.224 -0.3924 -1.8085 -0.3979
  721MOL0     H95110   5.601   1.265   5.067 -2.6066 -0.6054 -0.2831
  721MOL0     H95111   5.466   1.209   5.336  1.8903  0.5695 -0.4732
  721MOL0     H95112   5.483   1.094   5.202  0.3156 -1.1663  2.8879
  721MOL0     H95113   5.329   1.224   5.062 -2.3431 -1.3757 -0.1376
  721MOL0     H95114   5.316   1.360   5.183  0.0034 -0.7359  2.2494
  721MOL0     H95115   5.192   1.079   5.182 -0.6098 -1.5278  1.6959
  721MOL0     H95116   5.209   1.165   5.339  0.3112 -1.8186 -0.2686
  721MOL0     H95117   5.070   1.277   5.106 -1.6965  1.7102  0.8312
  721MOL0     H95118   5.105   1.375   5.243  0.4746 -0.5337  1.6694
  721MOL0     H95119   4.936   1.120   5.218  1.2097  0.2940 -0.5262
  721MOL0     H95120   4.873   1.287   5.264  0.5049  0.9357 -1.4188
  721MOL0     H95121   5.008   1.063   5.422 -1.6915 -2.1433 -2.3424
  721MOL0     H95122   4.992   1.226   5.494 -0.7302 -0.0594 -0.6552
  721MOL0     H95123   4.746   1.216   5.487 -1.6610 -1.1680 -1.7594
  721MOL0     H95124   4.811   1.106   5.598 -2.2118  0.5584  0.5380
  721MOL0     H95125   4.677   1.131   5.227 -2.0145  1.5703  2.3466
  721MOL0     H95126   4.604   0.798   5.108  0.3345 -0.0518 -0.2991
  721MOL0     H95127   4.621   0.965   5.049  0.3091  3.3269  2.1280
  721MOL0     H95128   4.383   0.814   5.164 -0.6682 -1.5768 -1.9884
  721MOL0     H95129   4.383   0.893   5.012 -1.8965  0.3722  0.5427
  721MOL0     H95130   4.386   1.053   5.275  1.5413  2.0187 -0.4894
  721MOL0     H95131   4.395   1.120   5.110  0.8796  2.2872  3.5654
  721MOL0     H95132   4.168   1.103   5.227 -2.1501 -0.8186 -0.9608
  721MOL0     H95133   4.182   0.926   5.216  0.4303 -0.5710 -0.5583
  721MOL0     H95134   3.953   0.958   5.206  3.2470  2.1301 -0.6136
  721MOL0     H95135   3.707   0.976   5.159  2.2439  0.6208  2.3030
  721MOL0     H95136   3.368   1.239   4.864 -1.2388  0.4096 -1.0965
  721MOL0     H95137   3.145   1.257   4.750 -0.3980 -0.0339 -1.4206
  721MOL0     H95138   3.053   1.249   4.527 -2.0845  2.6805 -0.5348
  721MOL0     H95139   2.931   1.256   4.652 -0.8989  1.9616 -1.6333
  721MOL0     H95140   2.821   1.234   4.429 -2.5740 -0.9237 -0.5974
  721MOL0     H95141   2.798   1.089   4.531 -0.3983  1.6834  0.7627
  721MOL0     H95142   2.998   1.007   4.373 -1.7700 -1.0843  1.0805
  721MOL0     H95143   2.985   1.165   4.297  1.3109  0.4327  1.7439
  721MOL0     H95144   2.777   0.940   4.275 -1.4261  0.3346 -0.1081
  721MOL0     H95145   2.736   1.107   4.268  3.0938  4.2435  0.1450
  721MOL0     H95146   2.946   1.026   4.076  0.8378 -0.0635 -0.1128
  721MOL0     H95147   2.827   1.162   4.085 -0.1726 -0.0909 -0.4978
  721MOL0     H95148   2.638   1.009   4.081 -0.8109  0.9033  0.9990
  721MOL0     H95149   2.748   0.874   4.045  0.0235  0.5313 -2.1013
  721MOL0     H95150   2.746   1.131   3.882  1.6260  1.3289  5.0200
  721MOL0     H95151   2.852   0.987   3.863  0.8879  1.7590 -1.1082
  721MOL0     H95152   2.639   0.855   3.816 -1.6327 -0.4885 -4.4926
  721MOL0     H95153   2.680   0.964   3.691 -1.0226  0.3728 -0.3445
  721MOL0     H95154   3.196   0.857   4.605  0.0339 -1.4637 -0.1063
  721MOL0     H95155   3.428   0.874   4.653  0.1342 -0.3990  0.9657
  721MOL0     H95156   3.796   1.136   4.771 -1.0939 -4.0810 -0.6731
  721MOL0     H95157   4.037   1.143   4.826  1.2598 -2.8268 -0.3483
  721MOL0     H95158   5.781   1.411   5.032  1.7942  3.4873 -3.1290
  721MOL0     H95159   5.988   1.552   5.057 -1.3808 -1.1900 -0.6930
  721MOL0     H95160   6.121   1.952   5.331 -0.7893  1.5360  2.2780
  721MOL0     H95161   6.290   2.110   5.402 -1.0413 -0.0886 -1.5403
  721MOL0     H95162   6.728   1.984   5.381 -0.8308  0.5212 -1.2094
  721MOL0     H95163   6.660   1.956   5.540  1.5588 -1.2789 -0.7311
  721MOL0     H95164   6.832   2.088   5.555  0.3834 -0.1136 -1.4536
  721MOL0     H95165   6.770   2.213   5.443 -2.1953  0.3858 -0.1852
  721MOL0     H95166   6.570   2.234   5.604  0.8825 -1.5702 -2.0318
  721MOL0     H95167   6.713   2.317   5.671 -1.8533 -0.0124  0.0043
  721MOL0     H95168   6.608   2.049   5.732 -2.3708  0.7577  0.6742
  721MOL0     H95169   6.759   2.118   5.813  1.3182  4.3811 -1.2170
  721MOL0     H95170   6.428   2.261   6.026 -1.2809  0.8009 -0.9836
  721MOL0     H95171   6.596   1.831   5.315  0.9948 -0.7966  1.3293
  721MOL0     H95172   6.436   1.657   5.268 -2.1935 -0.7804 -1.2269
  722MOL0     O95173   6.161   8.304   5.103  0.3023  0.4798  0.0108
  722MOL0     C95174   6.108   8.375   5.021  0.1263 -1.1459  0.8243
  722MOL0     O95175   6.007   8.468   5.045 -0.0247  0.3942  0.3005
  722MOL0     C95176   5.952   8.484   5.166  0.6593  0.5818  0.2209
  722MOL0     C95177   5.984   8.602   5.231 -0.6698  1.0912  0.1307
  722MOL0     C95178   5.920   8.629   5.350 -0.1024 -0.2375 -0.9354
  722MOL0     C95179   5.839   8.539   5.417 -0.1578  1.4152  0.2709
  722MOL0     O95180   5.784   8.565   5.542  0.6555  0.0665 -0.1188
  722MOL0     C95181   5.883   8.570   5.644 -0.1828  0.1312 -0.0310
  722MOL0     C95182   5.942   8.703   5.674  0.2937 -0.1862 -0.8447
  722MOL0     C95183   5.834   8.816   5.680  0.6380 -0.2215 -0.6046
  722MOL0     C95184   5.748   8.809   5.805  0.2932 -0.3851 -0.6913
  722MOL0     C95185   5.683   8.934   5.856  0.0092 -0.6841 -0.3616
  722MOL0     C95186   5.584   8.902   5.970  0.7255 -1.0196 -0.8779
  722MOL0     C95187   5.512   9.024   6.030 -0.1871 -0.5916 -0.1290
  722MOL0     C95188   5.586   9.109   6.133 -0.1993  0.6124 -0.2336
  722MOL0     N95189   5.491   9.191   6.211 -0.1792 -0.2108  0.3588
  722MOL0     C95190   5.427   9.311   6.175  0.0610 -0.2690 -0.1572
  722MOL0     C95191   5.322   9.321   6.258  0.3925  0.5146 -0.1744
  722MOL0     C95192   5.221   9.429   6.261 -0.1850  0.1695  0.0269
  722MOL0     C95193   5.282   9.549   6.335 -0.6863 -0.5805 -0.4736
  722MOL0     C95194   5.185   9.660   6.350  0.7998 -0.8575 -0.3319
  722MOL0     C95195   5.080   9.630   6.467 -0.2482 -1.2132 -0.0575
  722MOL0     O95196   5.002   9.744   6.487 -0.3610 -0.4784 -0.3084
  722MOL0     C95197   4.884   9.749   6.540  0.4025  0.5258  0.2874
  722MOL0     C95198   4.794   9.648   6.548 -0.5738 -0.3240 -0.1314
  722MOL0     C95199   4.657   9.672   6.591  0.1895  1.2460 -0.4835
  722MOL0     C95200   4.614   9.798   6.637 -0.2082 -0.2899  0.4761
  722MOL0     C95201   4.478   9.810   6.684 -0.1211  1.3867 -0.4663
  722MOL0     O95202   4.393   9.699   6.688  0.3163  0.1875 -0.6768
  722MOL0     C95203   4.264   9.715   6.723 -0.3444  0.6616  0.0109
  722MOL0     C95204   4.114   9.609   6.632  0.4430 -1.0563 -0.4302
  722MOL0     C95205   3.910   9.642   6.685  0.2494 -0.5126  0.8346
  722MOL0     C95206   3.857   9.785   6.833  0.9850  0.1325 -0.7231
  722MOL0     O95207   3.721   9.786   6.849 -0.8005 -0.1620 -0.1096
  722MOL0     C95208   3.685   9.897   6.935  0.5442 -0.4248 -0.8134
  722MOL0     C95209   3.530   9.914   6.936  0.1651 -0.3052 -0.1330
  722MOL0     C95210   3.454   9.791   6.992  0.8495  0.1960 -0.2936
  722MOL0     C95211   3.307   9.819   6.996  0.3065 -0.3317  0.1605
  722MOL0     C95212   3.241   9.718   7.083 -0.1582  0.0492 -0.2412
  722MOL0     C95213   3.104   9.679   7.027  0.1356 -0.5058  0.4572
  722MOL0     C95214   3.023   9.596   7.136  0.4273 -0.2141 -0.5837
  722MOL0     C95215   2.871   9.602   7.100  0.1978  0.7432 -0.1292
  722MOL0    Cl95216   2.869   9.531   6.936 -0.2420 -0.1248 -0.0312
  722MOL0     C95217   4.005   9.892   6.929 -1.0185 -0.3542  0.3044
  722MOL0     C95218   4.214   9.857   6.874  0.0030  0.1233 -0.4729
  722MOL0     O95219   4.447   9.925   6.726  0.2698  0.4855  0.3959
  722MOL0     C95220   4.706   9.899   6.631  0.7870 -0.7090  0.9491
  722MOL0     C95221   4.837   9.876   6.582  0.4055  0.3705  0.0423
  722MOL0     N95222   5.333   9.222   6.359 -0.3478  0.0583 -0.1784
  722MOL0     N95223   5.436   9.153   6.325 -0.1603  0.1919 -0.3907
  722MOL0     C95224   5.824   8.409   5.360  0.0734  0.0965  0.3490
  722MOL0     C95225   5.862   8.389   5.225 -1.0199 -0.5291 -0.3428
  722MOL0     C95226   6.163   8.375   4.876  0.5875  0.6164 -0.2128
  722MOL0     C95227   6.216   8.258   4.814 -0.7260  0.1564 -1.3194
  722MOL0     C95228   6.262   8.254   4.688  0.6687  0.6521  0.4897
  722MOL0     C95229   6.257   8.369   4.613  0.3097  1.3319 -0.4969
  722MOL0     O95230   6.319   8.377   4.489 -0.1189 -0.5200 -0.1933
  722MOL0     C95231   6.427   8.291   4.457  1.1302  0.7880 -0.4501
  722MOL0     C95232   6.394   8.163   4.382 -0.0284  0.1890 -0.2427
  722MOL0     C95233   6.523   8.090   4.367  0.0866  0.4778 -0.5123
  722MOL0     C95234   6.598   8.037   4.493 -0.0472 -0.0611 -0.6561
  722MOL0     C95235   6.722   7.968   4.454 -0.3555 -0.0945 -0.0403
  722MOL0     C95236   6.831   7.922   4.414  0.8023  0.1492  0.7142
  722MOL0     C95237   6.193   8.479   4.661  0.1898 -0.7405 -0.5954
  722MOL0     C95238   6.150   8.491   4.793  0.2052 -0.0885  0.8897
  722MOL0     H95239   6.057   8.677   5.203 -0.1152  0.5618  0.1256
  722MOL0     H95240   5.947   8.717   5.407 -3.7731  0.5850 -0.2710
  722MOL0     H95241   5.967   8.500   5.632  1.1079  1.4431  0.9610
  722MOL0     H95242   5.833   8.538   5.735  1.2280 -1.3635  0.2625
  722MOL0     H95243   6.015   8.736   5.599 -0.4080 -0.8303 -1.8528
  722MOL0     H95244   6.000   8.708   5.766 -0.2248 -0.6198 -0.4866
  722MOL0     H95245   5.766   8.822   5.594 -3.0514  0.1743  2.0979
  722MOL0     H95246   5.883   8.913   5.691 -0.8826  0.5432 -0.2422
  722MOL0     H95247   5.675   8.727   5.800  0.1527 -0.9622  5.0246
  722MOL0     H95248   5.821   8.771   5.876 -1.1995 -1.4087  0.3694
  722MOL0     H95249   5.633   8.986   5.773 -2.4696  0.0466  1.4454
  722MOL0     H95250   5.760   9.002   5.894 -0.6216 -1.5916  2.8446
  722MOL0     H95251   5.622   8.845   6.055 -4.7248 -2.7354  0.8609
  722MOL0     H95252   5.518   8.828   5.923  0.9870 -0.0861 -2.8485
  722MOL0     H95253   5.452   9.084   5.961 -2.3002 -1.5411  0.7784
  722MOL0     H95254   5.430   8.984   6.090 -1.2675  2.0173  0.2663
  722MOL0     H95255   5.657   9.171   6.077  0.6403 -1.2150 -1.2887
  722MOL0     H95256   5.643   9.052   6.208  0.8631  0.6078 -1.0265
  722MOL0     H95257   5.451   9.386   6.101 -1.3737 -1.3015 -1.7552
  722MOL0     H95258   5.128   9.394   6.306 -0.6919  0.7323 -0.5637
  722MOL0     H95259   5.206   9.456   6.156  1.4583  0.4323 -0.1745
  722MOL0     H95260   5.372   9.574   6.278 -0.4676 -1.9059 -0.7527
  722MOL0     H95261   5.320   9.517   6.433  0.3546  1.3729 -0.1899
  722MOL0     H95262   5.232   9.758   6.364 -0.2352 -0.1089 -1.7928
  722MOL0     H95263   5.121   9.666   6.262 -1.5342 -0.6754  1.2766
  722MOL0     H95264   5.144   9.626   6.556  1.8370  4.6477 -0.8165
  722MOL0     H95265   5.038   9.532   6.445  0.2363 -1.8643  1.7119
  722MOL0     H95266   4.811   9.545   6.519  0.0319 -1.0472  2.4904
  722MOL0     H95267   4.589   9.587   6.583 -2.2610  3.1261 -1.1010
  722MOL0     H95268   4.140   9.549   6.545  3.7932  0.0966 -0.3394
  722MOL0     H95269   3.818   9.593   6.654 -0.0609  1.0502 -0.8775
  722MOL0     H95270   3.735   9.988   6.900  0.0129  0.1351 -0.1158
  722MOL0     H95271   3.707   9.884   7.041  0.3139  2.6066 -0.3181
  722MOL0     H95272   3.498   9.950   6.838 -1.5174 -0.8395  0.2003
  722MOL0     H95273   3.509   9.996   7.006 -2.3087 -0.0366 -1.1051
  722MOL0     H95274   3.492   9.761   7.090 -0.4676 -2.6117 -0.5722
  722MOL0     H95275   3.476   9.709   6.924  2.0775  0.1338  0.1529
  722MOL0     H95276   3.288   9.926   7.012 -1.8501 -0.4453 -1.2112
  722MOL0     H95277   3.269   9.795   6.896 -0.1906  0.9026  0.0339
  722MOL0     H95278   3.226   9.762   7.182 -2.0119 -4.9693  2.0158
  722MOL0     H95279   3.311   9.635   7.089  0.8204  0.4562 -3.7823
  722MOL0     H95280   3.124   9.621   6.937 -0.6566  1.3775 -1.0055
  722MOL0     H95281   3.046   9.768   7.000  1.2443 -0.3986 -1.8781
  722MOL0     H95282   3.050   9.490   7.145  0.2419 -0.3665 -1.6400
  722MOL0     H95283   3.041   9.642   7.233  1.3415  1.4057 -1.4860
  722MOL0     H95284   2.837   9.705   7.115 -1.3979  0.2681 -0.2680
  722MOL0     H95285   2.814   9.529   7.158  1.5664  2.5493  3.8923
  722MOL0     H95286   3.985   9.954   7.015  0.4331 -1.0493  1.1720
  722MOL0     H95287   4.269   9.939   6.919 -1.8325  1.5552 -0.7004
  722MOL0     H95288   4.669   9.997   6.660 -1.4741 -0.8460 -1.2285
  722MOL0     H95289   4.904   9.961   6.586 -0.3709  1.0459  4.9594
  722MOL0     H95290   5.775   8.327   5.410  0.9782 -2.6504 -2.9540
  722MOL0     H95291   5.839   8.303   5.163  2.8804 -0.2590 -2.5241
  722MOL0     H95292   6.215   8.169   4.876  0.0009 -1.0080 -2.8968
  722MOL0     H95293   6.310   8.161   4.659 -1.7086 -0.4695 -0.1156
  722MOL0     H95294   6.467   8.282   4.558 -1.2798  3.1171  0.8329
  722MOL0     H95295   6.505   8.348   4.405  1.4034 -0.1403 -1.0867
  722MOL0     H95296   6.315   8.114   4.440  1.0477  2.7323  3.8187
  722MOL0     H95297   6.372   8.172   4.275  2.6325 -1.2181 -0.9997
  722MOL0     H95298   6.606   8.141   4.317  4.2649 -1.9160  3.2265
  722MOL0     H95299   6.499   7.997   4.315 -0.1772 -1.6404  3.0557
  722MOL0     H95300   6.620   8.116   4.565  0.3842  0.4308 -1.3075
  722MOL0     H95301   6.530   7.967   4.542  0.3892 -2.0282 -2.6482
  722MOL0     H95302   6.921   7.877   4.378 -0.3386 -1.0490 -0.7693
  722MOL0     H95303   6.192   8.564   4.593 -2.1126  0.1545  0.4594
  722MOL0     H95304   6.108   8.582   4.834 -1.0509  0.8902 -2.2757
  723MOL0     O95305   6.780   6.019   7.816  0.0079  0.1437  0.5849
  723MOL0     C95306   6.773   6.094   7.719  1.1321  0.5331 -0.1400
  723MOL0     O95307   6.880   6.169   7.675 -0.6675 -0.5763  0.6879
  723MOL0     C95308   6.993   6.155   7.755  0.8051 -1.2552 -0.2313
  723MOL0     C95309   7.069   6.274   7.781 -0.1595 -0.4065  0.6025
  723MOL0     C95310   7.187   6.275   7.852  0.4825 -0.3572  0.7165
  723MOL0     C95311   7.232   6.151   7.893  1.2336  0.9488  0.5763
  723MOL0     O95312   7.348   6.153   7.966 -0.3840 -1.4239 -0.0089
  723MOL0     C95313   7.426   6.038   7.987 -0.2142  0.3904 -0.0343
  723MOL0     C95314   7.561   6.072   8.031 -0.7100  0.0464  0.5797
  723MOL0     C95315   7.646   5.955   8.085 -0.6103  0.5569 -0.6148
  723MOL0     C95316   7.788   6.010   8.127 -0.0996 -1.0124  0.0987
  723MOL0     C95317   7.860   5.919   8.239 -0.1087 -0.1976 -0.0640
  723MOL0     C95318   7.860   5.776   8.198 -0.5638 -0.1575  0.0962
  723MOL0     C95319   7.935   5.679   8.290 -0.2206  0.3680  0.2129
  723MOL0     C95320   8.089   5.693   8.277 -0.6115  0.2664 -0.0161
  723MOL0     N95321   8.163   5.587   8.349 -0.3031 -0.1496  0.6342
  723MOL0     C95322   8.221   5.483   8.282 -0.1734 -0.0288  0.1141
  723MOL0     C95323   8.311   5.429   8.366 -0.3502  0.7190 -0.3367
  723MOL0     C95324   8.395   5.311   8.329 -0.3811 -0.1628 -0.0687
  723MOL0     C95325   8.544   5.354   8.319 -0.2528  1.1388 -0.1408
  723MOL0     C95326   8.618   5.231   8.287  0.5441  0.0863  0.0904
  723MOL0     C95327   8.764   5.269   8.268  0.5197  0.2498 -0.2187
  723MOL0     O95328   8.826   5.180   8.367 -0.1130 -0.2099 -0.2298
  723MOL0     C95329   8.952   5.200   8.401  0.5190  1.1577  1.1582
  723MOL0     C95330   8.999   5.111   8.498 -0.1866  0.3815  0.2955
  723MOL0     C95331   9.126   5.110   8.539 -0.7241  0.4702  0.3508
  723MOL0     C95332   9.222   5.196   8.479 -0.2424  0.5049 -0.5169
  723MOL0     C95333   9.363   5.187   8.524  0.5270  0.5373 -0.2099
  723MOL0     O95334   9.453   5.255   8.448  0.3867  0.5448 -0.9130
  723MOL0     C95335   9.582   5.225   8.465 -0.1859 -0.2957  0.0289
  723MOL0     C95336   9.635   5.099   8.439 -0.2447 -0.2782 -0.8210
  723MOL0     C95337   9.764   5.068   8.456 -0.9232  0.4670 -0.4363
  723MOL0     C95338   9.854   5.165   8.496  0.1940  0.1345  0.8743
  723MOL0     O95339   9.982   5.147   8.514  0.9577  0.4024 -0.1396
  723MOL0     C95340  10.044   5.088   8.397 -0.2959 -0.0629 -0.4199
  723MOL0     C95341  10.180   5.149   8.374  0.2325 -0.8594 -0.3050
  723MOL0     C95342  10.285   5.112   8.474  0.8309  0.6592  0.7847
  723MOL0     C95343  10.269   5.123   8.626  0.0367 -0.0204 -0.2287
  723MOL0     C95344  10.282   5.256   8.697 -0.5027  0.0561  0.0686
  723MOL0     C95345  10.215   5.379   8.634 -0.4689  0.4884 -0.0788
  723MOL0     C95346  10.254   5.505   8.722 -0.5768  0.2524  0.2847
  723MOL0     C95347  10.144   5.532   8.829  0.4267  0.4033 -0.3149
  723MOL0    Cl95348  10.002   5.576   8.724 -0.3385  0.0070 -0.1519
  723MOL0     C95349   9.806   5.294   8.521 -0.9770  0.0129  0.5103
  723MOL0     C95350   9.673   5.325   8.492 -0.4348  0.4342  0.0631
  723MOL0     O95351   9.393   5.113   8.620 -0.1735  0.8722  0.0759
  723MOL0     C95352   9.173   5.295   8.394  0.3229 -0.0256  0.1469
  723MOL0     C95353   9.037   5.295   8.345  0.2001 -1.1872  0.5721
  723MOL0     N95354   8.304   5.504   8.482 -0.0583 -0.2680  0.4495
  723MOL0     N95355   8.215   5.594   8.474 -0.3541 -0.6581 -0.3768
  723MOL0     C95356   7.164   6.029   7.868  0.5144 -0.3471  0.7936
  723MOL0     C95357   7.055   6.032   7.784  1.4038  0.1522  0.4492
  723MOL0     C95358   6.643   6.101   7.650  0.2939  0.2649 -0.3119
  723MOL0     C95359   6.618   6.207   7.560  0.1288  0.5632  0.5961
  723MOL0     C95360   6.490   6.219   7.504 -0.3592  0.4330 -0.4539
  723MOL0     C95361   6.388   6.114   7.517  0.2582  0.7077 -0.0104
  723MOL0     O95362   6.271   6.114   7.454  0.9841  0.9082 -0.3217
  723MOL0     C95363   6.231   6.222   7.363 -0.2332  0.4469  0.1248
  723MOL0     C95364   6.298   6.213   7.229 -0.5604 -0.0198  0.9644
  723MOL0     C95365   6.267   6.333   7.139 -0.3710  0.0544 -0.2996
  723MOL0     C95366   6.348   6.329   7.011  0.7333 -0.6022 -0.1428
  723MOL0     C95367   6.317   6.229   6.913 -0.2005  1.1346  0.1335
  723MOL0     C95368   6.304   6.145   6.827  0.0519  0.5357  0.3331
  723MOL0     C95369   6.417   6.010   7.611  0.0886 -0.2391  0.4433
  723MOL0     C95370   6.539   6.007   7.677 -0.5047  0.0856 -0.4635
  723MOL0     H95371   7.038   6.371   7.744  0.2841  0.2090  1.7709
  723MOL0     H95372   7.248   6.363   7.868 -0.4065  0.0230  2.1597
  723MOL0     H95373   7.433   5.969   7.902 -0.7067  0.0963  0.1579
  723MOL0     H95374   7.383   5.983   8.071  2.5878 -2.2542 -0.1703
  723MOL0     H95375   7.560   6.144   8.113 -1.8935 -0.4296  1.0024
  723MOL0     H95376   7.617   6.115   7.947 -1.2769  2.7606  1.5042
  723MOL0     H95377   7.651   5.871   8.015 -0.1982 -0.4592  0.5907
  723MOL0     H95378   7.610   5.905   8.175 -0.5525  3.1392  0.9297
  723MOL0     H95379   7.847   6.020   8.036 -1.8343  4.4276 -0.7705
  723MOL0     H95380   7.767   6.109   8.168  1.7213 -0.0594 -1.1468
  723MOL0     H95381   7.807   5.925   8.335  0.1813 -1.5432  0.1929
  723MOL0     H95382   7.963   5.953   8.251  0.7876 -2.9000  0.5924
  723MOL0     H95383   7.903   5.756   8.099  3.6516 -1.6228  1.9765
  723MOL0     H95384   7.755   5.746   8.200 -0.3549 -1.8896 -4.2323
  723MOL0     H95385   7.896   5.693   8.391 -1.1179  3.6746 -0.4930
  723MOL0     H95386   7.920   5.572   8.271  1.3434  0.3823 -1.4627
  723MOL0     H95387   8.118   5.791   8.316  2.9324 -0.0083 -1.6077
  723MOL0     H95388   8.115   5.688   8.171 -0.7493  0.2666 -0.0503
  723MOL0     H95389   8.203   5.440   8.184  0.5371 -2.3981  0.9527
  723MOL0     H95390   8.354   5.279   8.234 -1.4631 -0.8900  0.6226
  723MOL0     H95391   8.379   5.226   8.396 -1.9054  1.9774  2.4681
  723MOL0     H95392   8.580   5.399   8.412  2.5166 -0.8623 -0.1305
  723MOL0     H95393   8.555   5.419   8.232 -1.0273  0.0648 -1.0621
  723MOL0     H95394   8.605   5.153   8.363 -0.0622  0.9617  0.9172
  723MOL0     H95395   8.585   5.185   8.193 -0.6421 -1.7586  1.3481
  723MOL0     H95396   8.782   5.373   8.297  2.1721 -0.6565  2.3289
  723MOL0     H95397   8.789   5.260   8.162  0.0761 -0.3049 -0.2809
  723MOL0     H95398   8.937   5.027   8.530 -0.6436  0.9422  0.9109
  723MOL0     H95399   9.144   5.028   8.608 -2.9992  0.5558  1.1081
  723MOL0     H95400   9.549   5.036   8.418 -1.8663  1.9763 -1.3118
  723MOL0     H95401   9.791   4.963   8.447 -1.2662  0.3954 -0.6368
  723MOL0     H95402   9.981   5.104   8.309 -0.4948  0.9772 -0.1034
  723MOL0     H95403  10.053   4.980   8.409  2.8401  0.3807  2.6625
  723MOL0     H95404  10.171   5.258   8.372  0.0785 -0.8671 -0.0972
  723MOL0     H95405  10.233   5.111   8.286  3.7081 -1.9194  2.0376
  723MOL0     H95406  10.367   5.177   8.442 -0.4735  0.6919 -3.0292
  723MOL0     H95407  10.304   5.004   8.461 -0.7287  0.6088 -1.8021
  723MOL0     H95408  10.168   5.086   8.648  0.2107 -1.7251 -1.9363
  723MOL0     H95409  10.331   5.046   8.673 -1.1234  1.0619  3.3758
  723MOL0     H95410  10.389   5.277   8.707  0.0450 -2.3567 -0.2853
  723MOL0     H95411  10.245   5.240   8.799 -0.6656 -0.5059 -0.0761
  723MOL0     H95412  10.109   5.357   8.620  0.0218 -1.6393 -0.8544
  723MOL0     H95413  10.252   5.400   8.533 -3.7186 -1.2598 -1.8015
  723MOL0     H95414  10.358   5.501   8.754  0.6800  2.5947 -2.9924
  723MOL0     H95415  10.245   5.589   8.653  2.0695  0.2738 -0.1175
  723MOL0     H95416  10.162   5.611   8.902 -1.8956 -2.1232  3.2656
  723MOL0     H95417  10.117   5.442   8.885  0.1273  0.8417  0.2479
  723MOL0     H95418   9.871   5.371   8.561 -3.6096  2.1480  0.9262
  723MOL0     H95419   9.637   5.424   8.515  0.8710  0.4840  2.2285
  723MOL0     H95420   9.231   5.375   8.349 -2.3056  2.3028  0.5986
  723MOL0     H95421   9.011   5.368   8.268  0.7682 -1.3709  0.1980
  723MOL0     H95422   7.203   5.933   7.902  1.0358 -1.1580 -1.8479
  723MOL0     H95423   7.009   5.939   7.754  1.1570  0.2539  0.5016
  723MOL0     H95424   6.695   6.279   7.534  2.0529 -1.2225  1.1025
  723MOL0     H95425   6.476   6.311   7.448  0.9729  1.2334  0.4754
  723MOL0     H95426   6.250   6.316   7.414  1.8790 -0.4440  1.0860
  723MOL0     H95427   6.124   6.222   7.337 -0.5452  2.3090  1.2208
  723MOL0     H95428   6.407   6.209   7.234 -0.4834  1.3308  0.5638
  723MOL0     H95429   6.266   6.122   7.176 -0.5073 -0.4443  1.6492
  723MOL0     H95430   6.298   6.419   7.198 -1.4907  1.5593 -1.8299
  723MOL0     H95431   6.161   6.355   7.129 -0.6971  1.0162  3.5829
  723MOL0     H95432   6.319   6.423   6.962 -1.7148 -1.6571 -0.8689
  723MOL0     H95433   6.453   6.325   7.041  0.7432  0.5454  0.0113
  723MOL0     H95434   6.283   6.083   6.742  0.3977 -0.3529  0.8856
  723MOL0     H95435   6.332   5.952   7.647  0.1845 -1.3952 -1.1086
  723MOL0     H95436   6.536   5.938   7.761  0.8974 -1.6033 -1.7135
  724MOL0     O95437  10.609  11.188   3.618  0.1597 -0.3424 -0.6358
  724MOL0     C95438  10.666  11.190   3.727  0.1783 -0.0312 -0.1016
  724MOL0     O95439  10.602  11.186   3.850  0.0922 -0.0987 -0.5982
  724MOL0     C95440  10.469  11.154   3.859  0.5452  0.3179 -0.2995
  724MOL0     C95441  10.418  11.172   3.989 -0.0573  0.3460 -0.2972
  724MOL0     C95442  10.286  11.131   4.027 -0.0790  0.3233  0.0250
  724MOL0     C95443  10.209  11.058   3.928  0.2533  0.1753 -0.2336
  724MOL0     O95444  10.089  10.994   3.947 -0.7882  0.6737  0.4828
  724MOL0     C95445   9.998  11.037   4.053  0.8214 -0.4882 -0.1852
  724MOL0     C95446   9.892  10.932   4.057 -0.0417 -0.0048  0.4503
  724MOL0     C95447   9.776  10.947   4.150 -0.2999  0.4645  0.2406
  724MOL0     C95448   9.699  10.825   4.170  1.1899  0.2511 -0.7195
  724MOL0     C95449   9.577  10.846   4.257 -0.4060  0.0050 -0.9988
  724MOL0     C95450   9.474  10.738   4.251  0.1990 -0.7231  0.5928
  724MOL0     C95451   9.330  10.788   4.291  0.1596  0.6014 -0.1834
  724MOL0     C95452   9.265  10.891   4.197  0.4045  0.1806  0.2619
  724MOL0     N95453   9.118  10.889   4.226  0.0198 -0.2614 -0.3582
  724MOL0     C95454   9.031  10.988   4.261  0.1863  0.9831 -1.1605
  724MOL0     C95455   8.906  10.932   4.252  0.0546 -0.1026  0.6756
  724MOL0     C95456   8.775  11.006   4.283  0.3907 -0.2769 -1.5789
  724MOL0     C95457   8.681  11.031   4.169  0.4898 -0.0616  0.5252
  724MOL0     C95458   8.597  10.910   4.147 -0.2075  0.4600 -0.5118
  724MOL0     C95459   8.517  10.904   4.019  0.4992 -0.3179  1.0198
  724MOL0     O95460   8.444  11.026   4.001  1.1858 -0.2298 -0.5781
  724MOL0     C95461   8.328  11.049   4.076  0.3703  0.6478 -0.0149
  724MOL0     C95462   8.260  10.946   4.159 -0.2930 -0.5786  0.1784
  724MOL0     C95463   8.151  10.981   4.248  0.1381  0.2913  0.7392
  724MOL0     C95464   8.085  11.101   4.233 -0.4617 -0.1976  0.2342
  724MOL0     C95465   7.954  11.135   4.299  0.0421  0.3619 -0.0209
  724MOL0     O95466   7.910  11.058   4.409  0.0554 -0.3882  0.2691
  724MOL0     C95467   7.794  11.098   4.474 -0.1157  0.3801  0.1734
  724MOL0     C95468   7.805  11.112   4.615  0.1351  0.2637  0.1214
  724MOL0     C95469   7.696  11.127   4.699 -0.7831 -0.0178  0.8847
  724MOL0     C95470   7.573  11.139   4.639 -0.5459  0.5142 -0.6182
  724MOL0     O95471   7.457  11.148   4.716  0.6041 -0.0142  0.5791
  724MOL0     C95472   7.451  11.091   4.846 -0.2328  0.4109  1.0642
  724MOL0     C95473   7.309  11.056   4.894  0.2581  0.2632  1.0268
  724MOL0     C95474   7.235  10.968   4.799 -0.5903 -0.3131 -0.0495
  724MOL0     C95475   7.102  10.913   4.846 -0.0887  0.4820  0.7170
  724MOL0     C95476   7.003  11.019   4.894 -1.0085 -0.0122  0.9963
  724MOL0     C95477   6.969  11.128   4.782  0.4327  0.3525 -0.1196
  724MOL0     C95478   6.834  11.201   4.800 -0.2754 -0.4846  0.1440
  724MOL0     C95479   6.840  11.333   4.717  0.1126  0.4210 -0.5324
  724MOL0    Cl95480   6.821  11.278   4.550  0.0912 -0.2084  0.3985
  724MOL0     C95481   7.566  11.162   4.498 -0.1205  0.2728  0.0559
  724MOL0     C95482   7.674  11.134   4.417  0.1557  0.5426  0.4593
  724MOL0     O95483   7.908  11.240   4.259  0.2475  0.6818 -1.3574
  724MOL0     C95484   8.150  11.196   4.152  1.2605  0.3335 -0.4911
  724MOL0     C95485   8.271  11.178   4.080 -0.1375  0.1484 -0.3235
  724MOL0     N95486   8.913  10.803   4.204  0.6100 -0.2978  0.1467
  724MOL0     N95487   9.051  10.783   4.183 -0.1198  0.9216  0.0459
  724MOL0     C95488  10.265  11.033   3.805  0.6270 -1.0514 -0.0695
  724MOL0     C95489  10.386  11.083   3.773  0.2849 -0.5848  0.5651
  724MOL0     C95490  10.807  11.226   3.728  0.4526 -0.2289  0.4672
  724MOL0     C95491  10.887  11.260   3.840 -0.3504  1.2225 -0.1617
  724MOL0     C95492  11.021  11.302   3.828 -0.7869 -0.6754  0.7150
  724MOL0     C95493  11.088  11.295   3.705 -0.2157 -0.6069  0.0420
  724MOL0     O95494  11.220  11.325   3.681 -0.2340 -0.3723 -0.0342
  724MOL0     C95495  11.308  11.383   3.776 -0.0673  0.4128  0.3652
  724MOL0     C95496  11.444  11.427   3.707  0.1302  0.3321  0.6438
  724MOL0     C95497  11.546  11.443   3.822  0.0327 -0.6611  0.6042
  724MOL0     C95498  11.672  11.529   3.796  1.0235 -0.4891 -0.5016
  724MOL0     C95499  11.726  11.500   3.667  0.7604 -0.2173 -1.1844
  724MOL0     C95500  11.773  11.493   3.557 -0.8263 -0.4516 -0.4167
  724MOL0     C95501  11.010  11.270   3.594  0.2400 -0.7794 -0.0066
  724MOL0     C95502  10.875  11.235   3.612 -1.0631  0.4094  0.4959
  724MOL0     H95503  10.479  11.219   4.065 -0.7928 -1.2271  1.3238
  724MOL0     H95504  10.238  11.157   4.121 -0.3959  0.9169 -0.2914
  724MOL0     H95505   9.950  11.130   4.023  1.4652 -0.1881 -0.3100
  724MOL0     H95506  10.060  11.055   4.142 -0.1052  0.3880  0.2980
  724MOL0     H95507   9.944  10.839   4.081 -0.0984 -1.0113 -2.8869
  724MOL0     H95508   9.836  10.926   3.963  0.6920  2.8993 -0.2779
  724MOL0     H95509   9.716  11.030   4.110  0.0862  1.4593  1.6774
  724MOL0     H95510   9.821  10.975   4.245 -0.4654  0.1546  0.4119
  724MOL0     H95511   9.672  10.774   4.077  1.2142 -1.9948  0.4268
  724MOL0     H95512   9.759  10.750   4.222 -2.3840 -0.6410  2.5738
  724MOL0     H95513   9.542  10.949   4.246  2.5669  2.1592  5.0656
  724MOL0     H95514   9.596  10.852   4.365 -0.7671  0.1020 -0.9357
  724MOL0     H95515   9.508  10.651   4.309  1.5840  0.6474  1.9133
  724MOL0     H95516   9.457  10.707   4.147 -1.1688  0.9251  0.2685
  724MOL0     H95517   9.267  10.701   4.309  1.1029  0.3551  2.2778
  724MOL0     H95518   9.330  10.828   4.393  2.4802  2.7285 -0.9217
  724MOL0     H95519   9.289  10.861   4.095  0.3749 -0.2354  0.3715
  724MOL0     H95520   9.316  10.987   4.205  1.5224 -0.2030 -1.6671
  724MOL0     H95521   9.057  11.086   4.300 -0.1216  0.3302  0.8354
  724MOL0     H95522   8.810  11.101   4.325  1.2463 -0.9725 -0.6710
  724MOL0     H95523   8.724  10.951   4.363  0.0452 -0.2968 -1.8137
  724MOL0     H95524   8.723  11.054   4.071  0.9245 -0.5212  0.5953
  724MOL0     H95525   8.614  11.114   4.192 -0.9890 -1.2859  0.7438
  724MOL0     H95526   8.660  10.820   4.149 -0.4068  0.2878 -1.3271
  724MOL0     H95527   8.523  10.904   4.227  2.6296 -5.4154  2.2673
  724MOL0     H95528   8.458  10.812   4.009  2.1964 -1.2548 -1.7145
  724MOL0     H95529   8.585  10.901   3.933 -1.4057  1.3083 -0.6517
  724MOL0     H95530   8.292  10.844   4.140 -3.1641 -1.3755 -0.7843
  724MOL0     H95531   8.093  10.906   4.303 -0.8184 -0.0456 -0.6712
  724MOL0     H95532   7.892  11.085   4.674  0.5767  2.0749  0.3464
  724MOL0     H95533   7.711  11.125   4.807  0.3900 -0.3527  0.7341
  724MOL0     H95534   7.501  11.155   4.919  0.1982  0.3747  0.8028
  724MOL0     H95535   7.511  11.000   4.844  1.8456  1.7241  1.1815
  724MOL0     H95536   7.242  11.143   4.898 -0.6943 -0.0344 -3.3459
  724MOL0     H95537   7.307  10.997   4.986 -1.7214  1.1458  1.6097
  724MOL0     H95538   7.299  10.894   4.752 -1.3771 -0.3693 -1.0670
  724MOL0     H95539   7.223  11.035   4.714 -0.7437  0.5585  0.6366
  724MOL0     H95540   7.051  10.855   4.769 -1.3471  0.0916  1.8081
  724MOL0     H95541   7.119  10.843   4.929  0.2737 -3.4736 -2.3988
  724MOL0     H95542   7.029  11.061   4.991 -0.2886 -1.2206  1.3481
  724MOL0     H95543   6.915  10.955   4.904 -1.0762  0.0929  1.0666
  724MOL0     H95544   6.965  11.078   4.685  2.0055 -0.7637  0.3474
  724MOL0     H95545   7.053  11.199   4.776  0.4076  0.6293  1.8748
  724MOL0     H95546   6.749  11.139   4.769  1.6225 -1.3742 -3.8613
  724MOL0     H95547   6.816  11.223   4.906  2.7059  0.9534  0.4307
  724MOL0     H95548   6.937  11.381   4.732 -0.0566  0.5932  0.0629
  724MOL0     H95549   6.755  11.395   4.749  0.0233  0.7030 -1.2857
  724MOL0     H95550   7.471  11.200   4.462  0.6899  2.4079  0.0541
  724MOL0     H95551   7.664  11.119   4.310  0.6229  1.4868  0.2718
  724MOL0     H95552   8.102  11.293   4.147 -0.0928 -0.2320  0.7766
  724MOL0     H95553   8.322  11.255   4.024 -1.9568  0.7876 -1.1651
  724MOL0     H95554  10.216  10.975   3.727  1.4752  0.9758 -2.2003
  724MOL0     H95555  10.400  11.061   3.667 -1.5924 -0.0865  0.1618
  724MOL0     H95556  10.834  11.276   3.934  1.0735  2.3426  0.4811
  724MOL0     H95557  11.083  11.335   3.910 -0.3906 -0.9840  0.5459
  724MOL0     H95558  11.314  11.310   3.858 -2.3117 -0.7817 -0.4469
  724MOL0     H95559  11.270  11.472   3.828 -1.0005 -0.3291  0.9999
  724MOL0     H95560  11.478  11.339   3.652  2.5790 -1.2165  4.2603
  724MOL0     H95561  11.416  11.512   3.644  1.2774  1.0126  1.0242
  724MOL0     H95562  11.581  11.350   3.866 -1.5719 -1.9268 -0.6674
  724MOL0     H95563  11.492  11.494   3.903  2.5264  2.0321  0.7288
  724MOL0     H95564  11.658  11.636   3.817  3.7076 -0.2026  0.2544
  724MOL0     H95565  11.741  11.516   3.881 -2.1156  0.0692  2.3605
  724MOL0     H95566  11.815  11.479   3.459 -1.4486  1.9931 -1.1236
  724MOL0     H95567  11.063  11.278   3.499  0.6099  3.9581  0.3722
  724MOL0     H95568  10.809  11.226   3.526 -2.3492 -1.6627  1.6027
  725MOL0     O95569  10.072  11.225   7.993 -0.4973  0.2092  0.2527
  725MOL0     C95570  10.088  11.167   8.097  0.8733 -1.5590  0.3736
  725MOL0     O95571   9.984  11.116   8.166 -0.2693 -0.0626  0.1251
  725MOL0     C95572   9.859  11.104   8.100  0.2613  0.9698 -0.4204
  725MOL0     C95573   9.844  11.045   7.974  0.7909 -0.3848 -1.1206
  725MOL0     C95574   9.724  11.045   7.909  0.6100  0.3749 -0.8084
  725MOL0     C95575   9.608  11.080   7.981  0.8980  0.3647 -0.3175
  725MOL0     O95576   9.487  11.056   7.913  0.0934  0.2047 -0.3107
  725MOL0     C95577   9.459  10.912   7.914  0.0860 -1.4531 -0.4362
  725MOL0     C95578   9.465  10.870   7.764  0.6669 -0.1222 -0.9566
  725MOL0     C95579   9.350  10.924   7.684  0.0506  0.1587 -0.2044
  725MOL0     C95580   9.215  10.864   7.734 -0.5760  0.7740 -0.0188
  725MOL0     C95581   9.100  10.916   7.657 -1.1166 -0.4358  0.9539
  725MOL0     C95582   8.977  10.862   7.708  0.3378  0.5778  0.9173
  725MOL0     C95583   8.949  10.714   7.659 -0.2021 -0.7524  0.2686
  725MOL0     C95584   8.800  10.693   7.699  0.3520 -0.1199  0.0868
  725MOL0     N95585   8.769  10.563   7.646  0.0436  0.0082 -0.0203
  725MOL0     C95586   8.724  10.530   7.518  0.0840  0.0695 -0.0055
  725MOL0     C95587   8.727  10.397   7.515  0.6868 -0.0116 -0.0766
  725MOL0     C95588   8.678  10.306   7.405  0.9525  0.6899  0.4567
  725MOL0     C95589   8.524  10.310   7.401 -0.1298 -0.5571 -0.4541
  725MOL0     C95590   8.466  10.208   7.317 -0.2621  0.2684 -0.0903
  725MOL0     C95591   8.324  10.240   7.289  0.0501 -0.3848 -0.7012
  725MOL0     O95592   8.258  10.237   7.417 -0.8778  0.0919 -0.3512
  725MOL0     C95593   8.126  10.241   7.422  1.0395  0.0198  0.4315
  725MOL0     C95594   8.043  10.218   7.312  0.4554  1.0869 -0.2274
  725MOL0     C95595   7.899  10.218   7.320 -0.4287  0.1555 -0.8409
  725MOL0     C95596   7.841  10.257   7.446  0.0770  0.4205 -0.3050
  725MOL0     C95597   7.697  10.260   7.456  0.1340  0.2904  0.7400
  725MOL0     O95598   7.617  10.198   7.355 -0.1040 -0.2661 -0.6057
  725MOL0     C95599   7.480  10.209   7.350 -0.0203 -0.0549 -0.3607
  725MOL0     C95600   7.419  10.101   7.283  0.9579 -0.3904 -0.1429
  725MOL0     C95601   7.279  10.097   7.274  0.1349 -0.5174  0.4827
  725MOL0     C95602   7.200  10.203   7.317 -0.0180 -0.4347  0.7694
  725MOL0     O95603   7.076  10.197   7.269  0.1317  0.3217 -0.3123
  725MOL0     C95604   6.962  10.263   7.329 -0.1765  0.5688 -0.6106
  725MOL0     C95605   6.923  10.223   7.475 -1.2964  1.2160 -0.6736
  725MOL0     C95606   6.931  10.067   7.492 -0.9097  0.3139  0.9106
  725MOL0     C95607   6.994  10.029   7.636  1.2758 -0.3469  0.3793
  725MOL0     C95608   7.028   9.883   7.659  0.8646  0.2293 -0.9276
  725MOL0     C95609   6.903   9.800   7.628  0.8353  0.0899  0.1811
  725MOL0     C95610   6.882   9.677   7.718  0.1664  0.1068  0.3667
  725MOL0     C95611   7.009   9.599   7.722 -1.3425  0.0197 -0.3425
  725MOL0    Cl95612   7.109   9.653   7.859 -0.1884 -0.1747 -0.2280
  725MOL0     C95613   7.260  10.315   7.380 -0.1336 -0.2882 -0.6607
  725MOL0     C95614   7.401  10.315   7.400  0.0866 -0.1667 -0.5122
  725MOL0     O95615   7.654  10.318   7.553 -0.3349 -0.3080 -0.1682
  725MOL0     C95616   7.932  10.277   7.557  0.2339 -0.5820 -0.8238
  725MOL0     C95617   8.071  10.267   7.546 -1.1531 -0.7700  0.3195
  725MOL0     N95618   8.770  10.345   7.638 -0.2737  0.0913  0.0490
  725MOL0     N95619   8.807  10.446   7.713 -0.0064  0.1611 -0.1669
  725MOL0     C95620   9.620  11.149   8.103  0.0729  0.0984 -0.0387
  725MOL0     C95621   9.745  11.147   8.166  0.3260 -0.9757 -0.4172
  725MOL0     C95622  10.209  11.165   8.166 -0.5726  0.9814  0.7138
  725MOL0     C95623  10.219  11.158   8.304 -0.5721 -0.4353  0.0291
  725MOL0     C95624  10.341  11.168   8.364 -0.6400  0.0938  0.3925
  725MOL0     C95625  10.462  11.186   8.288 -0.0910  0.4727 -0.2782
  725MOL0     O95626  10.582  11.215   8.349 -0.6376  0.3367 -0.2530
  725MOL0     C95627  10.600  11.240   8.484  0.5688 -0.5442  0.6734
  725MOL0     C95628  10.731  11.311   8.514 -0.4851  0.2699  0.6904
  725MOL0     C95629  10.746  11.332   8.662 -0.0931  0.8066 -0.9229
  725MOL0     C95630  10.825  11.449   8.706  0.1501 -0.4138  0.3396
  725MOL0     C95631  10.809  11.477   8.850 -1.0076 -0.4444 -1.0189
  725MOL0     C95632  10.784  11.489   8.966  0.6652 -0.8332 -0.0027
  725MOL0     C95633  10.449  11.217   8.149 -0.5924 -0.2747  0.1101
  725MOL0     C95634  10.325  11.198   8.083  0.1085  0.9805 -0.0192
  725MOL0     H95635   9.933  11.042   7.912  1.9773  0.7273  0.4513
  725MOL0     H95636   9.742  11.030   7.803  0.1705  0.1503 -0.8501
  725MOL0     H95637   9.362  10.897   7.964 -0.6735  0.0766 -1.3632
  725MOL0     H95638   9.530  10.849   7.968 -0.2427 -0.2407  1.5255
  725MOL0     H95639   9.480  10.763   7.745  2.3212  0.2511 -1.9740
  725MOL0     H95640   9.555  10.921   7.729  1.6304 -1.3446 -0.3569
  725MOL0     H95641   9.368  10.889   7.582  3.9020  2.0365 -0.3513
  725MOL0     H95642   9.347  11.033   7.680  1.3458  0.2006 -0.3643
  725MOL0     H95643   9.215  10.755   7.738  0.5178  0.8034  2.1574
  725MOL0     H95644   9.189  10.896   7.836 -1.1673 -0.2360  0.1605
  725MOL0     H95645   9.119  10.889   7.552  1.9337  1.8551  0.7897
  725MOL0     H95646   9.106  11.025   7.656  1.9702 -0.5180 -0.1924
  725MOL0     H95647   8.901  10.937   7.686 -1.0456 -1.1181 -0.3926
  725MOL0     H95648   8.973  10.863   7.818 -1.0321 -0.6465  0.9106
  725MOL0     H95649   8.962  10.701   7.552  1.1156 -0.2543  0.3469
  725MOL0     H95650   9.020  10.641   7.700  1.3188 -1.5147 -3.3350
  725MOL0     H95651   8.746  10.769   7.641  1.7074 -0.5007 -1.7814
  725MOL0     H95652   8.777  10.692   7.806 -0.9386 -1.4830 -0.1724
  725MOL0     H95653   8.696  10.608   7.447  0.6538  1.1348  0.8994
  725MOL0     H95654   8.705  10.204   7.433  0.4199  1.0289  2.3900
  725MOL0     H95655   8.709  10.341   7.307  0.1833  2.3378  0.7625
  725MOL0     H95656   8.512  10.415   7.372 -0.2402  0.3831  2.6477
  725MOL0     H95657   8.493  10.307   7.506  0.4513  1.7397 -0.1632
  725MOL0     H95658   8.528  10.206   7.226 -2.7467 -1.5311 -1.8638
  725MOL0     H95659   8.477  10.107   7.359  0.4875  1.3419  2.4885
  725MOL0     H95660   8.283  10.164   7.223  0.0564 -1.7911  0.8463
  725MOL0     H95661   8.296  10.332   7.238 -2.3056  0.4189  1.7817
  725MOL0     H95662   8.085  10.183   7.218  1.8161  0.2322  0.6599
  725MOL0     H95663   7.832  10.189   7.239 -1.3756 -1.9651  0.5928
  725MOL0     H95664   7.481  10.015   7.260  3.0798  0.9665  0.2041
  725MOL0     H95665   7.232  10.013   7.224  0.5835  1.1568 -3.0731
  725MOL0     H95666   6.878  10.228   7.268 -0.0730 -1.6028  0.4084
  725MOL0     H95667   6.977  10.372   7.326  1.9663  0.3072 -0.4786
  725MOL0     H95668   6.829  10.264   7.512 -1.9559 -0.9042  0.1548
  725MOL0     H95669   7.003  10.259   7.539 -0.7759 -0.5383 -0.2750
  725MOL0     H95670   6.988  10.028   7.407 -1.8596  0.6969  0.0756
  725MOL0     H95671   6.831  10.025   7.490 -0.9368  0.3816  0.8504
  725MOL0     H95672   7.087  10.083   7.656  1.0950  0.5134 -0.9528
  725MOL0     H95673   6.912  10.057   7.702 -2.4171  2.5858 -4.7159
  725MOL0     H95674   7.047   9.891   7.766 -2.8540  2.3802 -0.2620
  725MOL0     H95675   7.120   9.858   7.604  1.1048 -0.5838 -0.1843
  725MOL0     H95676   6.907   9.766   7.524 -0.4654  1.3502 -0.3032
  725MOL0     H95677   6.811   9.856   7.643 -0.8599 -2.8143  1.5251
  725MOL0     H95678   6.855   9.699   7.821  0.5888  1.2676  0.2453
  725MOL0     H95679   6.802   9.615   7.677  1.8643 -1.2746 -1.0213
  725MOL0     H95680   7.065   9.597   7.628  0.1088  1.9317  0.4066
  725MOL0     H95681   6.978   9.496   7.737 -1.7009 -0.1557 -2.0681
  725MOL0     H95682   7.198  10.401   7.402  0.2426 -0.3568  0.7064
  725MOL0     H95683   7.444  10.402   7.449  1.4912  0.2327 -2.3608
  725MOL0     H95684   7.884  10.291   7.653 -0.0450 -2.7986 -0.5834
  725MOL0     H95685   8.138  10.308   7.621  1.6340 -2.4064 -1.1256
  725MOL0     H95686   9.530  11.181   8.155  0.5139 -0.3481  1.0094
  725MOL0     H95687   9.756  11.194   8.263  0.9549  1.7791 -1.7366
  725MOL0     H95688  10.126  11.141   8.358 -0.3332 -1.0755  0.2526
  725MOL0     H95689  10.342  11.154   8.472  2.4678 -1.8573  0.2397
  725MOL0     H95690  10.585  11.154   8.550  2.4353 -0.5863  1.0829
  725MOL0     H95691  10.528  11.319   8.508  2.4135  2.1326 -1.7990
  725MOL0     H95692  10.816  11.251   8.482 -2.5869 -3.0529  0.8529
  725MOL0     H95693  10.741  11.408   8.464  5.3180 -0.0294  0.5548
  725MOL0     H95694  10.785  11.243   8.713  0.0426  0.8868 -0.8857
  725MOL0     H95695  10.646  11.358   8.699  0.2437  3.6292 -1.7324
  725MOL0     H95696  10.930  11.433   8.680 -0.0138 -1.0864  0.0625
  725MOL0     H95697  10.799  11.537   8.647  0.3262 -1.9801 -2.2298
  725MOL0     H95698  10.742  11.497   9.064  1.1820  2.5212  0.0322
  725MOL0     H95699  10.532  11.239   8.082  0.9280  1.0304  2.2839
  725MOL0     H95700  10.311  11.198   7.976  1.1732 -1.6659 -0.2421
  726MOL0     O95701   6.473   8.015   1.116  0.0377 -0.3935  0.0993
  726MOL0     C95702   6.382   8.080   1.058  0.2932 -0.0250  0.2851
  726MOL0     O95703   6.402   8.162   0.948  0.2915  0.0017 -0.2206
  726MOL0     C95704   6.505   8.129   0.853  0.1827  0.8903 -0.8669
  726MOL0     C95705   6.573   8.222   0.787  0.1733  0.0876  0.2121
  726MOL0     C95706   6.666   8.179   0.683  0.7699  0.3303  0.4769
  726MOL0     C95707   6.686   8.048   0.647  0.4707  0.0704  0.5932
  726MOL0     O95708   6.797   7.998   0.570  0.8109  0.0581  0.7860
  726MOL0     C95709   6.761   7.955   0.434  0.8871 -0.4064 -0.4466
  726MOL0     C95710   6.878   7.924   0.352 -0.1010  0.0261  0.4932
  726MOL0     C95711   6.952   8.052   0.328 -0.5450  0.3955 -0.1552
  726MOL0     C95712   7.071   8.014   0.238  0.1562  0.2937  0.4090
  726MOL0     C95713   7.154   8.130   0.192 -0.5350 -0.4922 -1.0191
  726MOL0     C95714   7.272   8.091   0.099  1.0284 -0.4311 -0.7423
  726MOL0     C95715   7.354   8.220   0.076  0.3162  0.7700  0.7181
  726MOL0     C95716   7.473   8.200  -0.025 -0.2085  0.2132  0.4743
  726MOL0     N95717   7.437   8.155  -0.161 -0.1643 -0.2732 -0.0375
  726MOL0     C95718   7.373   8.222  -0.261  0.2398 -0.2395  0.3230
  726MOL0     C95719   7.339   8.132  -0.355 -0.2354  0.2761  0.2890
  726MOL0     C95720   7.261   8.170  -0.468  0.3757 -0.4480 -1.0691
  726MOL0     C95721   7.127   8.242  -0.420 -0.6853  0.2283  1.1428
  726MOL0     C95722   7.032   8.169  -0.327  0.1976  0.5620  0.2876
  726MOL0     C95723   6.911   8.256  -0.309  0.6464 -0.7680 -0.1818
  726MOL0     O95724   6.823   8.231  -0.196  0.2551 -0.1401 -0.4198
  726MOL0     C95725   6.784   8.103  -0.204  0.7002  0.6572  0.1245
  726MOL0     C95726   6.826   8.008  -0.112  0.6335  0.8658  0.8700
  726MOL0     C95727   6.798   7.872  -0.128  0.1869 -0.2854  1.3614
  726MOL0     C95728   6.716   7.827  -0.232 -0.2700  0.7763 -0.1279
  726MOL0     C95729   6.680   7.679  -0.237  0.1997  0.6241  0.1944
  726MOL0     O95730   6.607   7.645  -0.351  0.6931 -0.4089 -0.2138
  726MOL0     C95731   6.559   7.517  -0.342  0.2866 -0.1732 -0.2526
  726MOL0     C95732   6.591   7.433  -0.452 -0.7896 -0.5453 -0.6878
  726MOL0     C95733   6.552   7.298  -0.464  0.7756  0.1084 -0.2638
  726MOL0     C95734   6.476   7.248  -0.358 -0.0574 -1.0575 -0.1168
  726MOL0     O95735   6.438   7.123  -0.343  0.1793 -0.6485 -0.3617
  726MOL0     C95736   6.329   7.097  -0.431  0.0019 -0.1749 -0.5269
  726MOL0     C95737   6.382   6.989  -0.523  1.0113 -0.0902 -1.3033
  726MOL0     C95738   6.282   6.968  -0.640 -0.6906  0.5900 -0.0608
  726MOL0     C95739   6.274   7.092  -0.728  0.0383 -1.1492  0.0317
  726MOL0     C95740   6.216   7.049  -0.859 -0.0203  0.4173  0.2683
  726MOL0     C95741   6.166   7.181  -0.924  0.1785  0.1794  0.4127
  726MOL0     C95742   6.265   7.290  -0.934 -0.1502 -0.1416  0.0745
  726MOL0     C95743   6.215   7.419  -0.999 -0.0428  0.3207  0.3759
  726MOL0    Cl95744   6.120   7.501  -0.869  0.2987 -0.4609 -0.0692
  726MOL0     C95745   6.440   7.326  -0.248  0.3567  0.7093 -0.2275
  726MOL0     C95746   6.484   7.459  -0.240 -0.2952 -0.3567 -0.2482
  726MOL0     O95747   6.724   7.599  -0.152  0.7465 -0.1449  0.6262
  726MOL0     C95748   6.665   7.924  -0.322  0.2242 -0.7035 -0.2706
  726MOL0     C95749   6.697   8.057  -0.302  0.9817  0.1175  0.4759
  726MOL0     N95750   7.390   8.013  -0.314 -0.0419  1.3185 -0.7726
  726MOL0     N95751   7.431   8.029  -0.194  0.2546 -0.0869 -0.3711
  726MOL0     C95752   6.612   7.955   0.715 -0.8158 -0.3673 -0.3601
  726MOL0     C95753   6.524   7.992   0.818 -0.2988 -0.5049 -0.3689
  726MOL0     C95754   6.239   8.072   1.114 -0.2301 -0.2857  0.1694
  726MOL0     C95755   6.211   7.986   1.219 -0.6336  0.1985  0.4910
  726MOL0     C95756   6.079   7.969   1.275  0.0029  0.2138 -0.2094
  726MOL0     C95757   5.972   8.031   1.210 -0.2850  0.4216  0.3098
  726MOL0     O95758   5.839   8.013   1.257 -0.1178  0.8802 -0.0717
  726MOL0     C95759   5.826   8.032   1.402 -0.4589 -0.0192  0.2648
  726MOL0     C95760   5.744   7.931   1.466  1.2621 -0.4014  1.0594
  726MOL0     C95761   5.594   7.953   1.445 -0.0361  0.2102 -0.7430
  726MOL0     C95762   5.519   7.830   1.473  0.7430  0.5542 -0.4933
  726MOL0     C95763   5.496   7.748   1.353  1.3432 -0.1386  0.2085
  726MOL0     C95764   5.475   7.689   1.250  0.5888  0.6711 -0.4675
  726MOL0     C95765   6.007   8.117   1.109  1.1419 -0.1423 -0.2289
  726MOL0     C95766   6.136   8.147   1.066  0.1526 -0.2448 -0.2484
  726MOL0     H95767   6.562   8.328   0.810  0.5807 -0.2774  2.2206
  726MOL0     H95768   6.720   8.254   0.625  1.4101 -0.3061  0.2253
  726MOL0     H95769   6.701   8.035   0.390 -0.2917 -0.8477  0.3084
  726MOL0     H95770   6.707   7.860   0.442  1.3683 -0.7797 -1.4700
  726MOL0     H95771   6.850   7.872   0.261  0.2672  1.5196 -0.5098
  726MOL0     H95772   6.935   7.851   0.410  0.9221 -0.5726 -1.2079
  726MOL0     H95773   6.983   8.110   0.416 -0.6905  1.0331 -0.5179
  726MOL0     H95774   6.888   8.119   0.270  0.3153  0.4306 -1.0761
  726MOL0     H95775   7.135   7.956   0.305  0.5432 -1.7780 -1.6387
  726MOL0     H95776   7.025   7.948   0.164 -1.6081  1.1555  0.6733
  726MOL0     H95777   7.190   8.188   0.277 -1.7129  1.9279 -2.0968
  726MOL0     H95778   7.102   8.208   0.136  2.0064  2.3169  0.2545
  726MOL0     H95779   7.233   8.048   0.006 -1.0956  1.8188 -0.9741
  726MOL0     H95780   7.335   8.010   0.136  0.1481 -1.8413 -2.2010
  726MOL0     H95781   7.293   8.295   0.024 -1.7729 -1.6126 -0.4748
  726MOL0     H95782   7.392   8.258   0.171  3.7285 -3.0679  1.1299
  726MOL0     H95783   7.534   8.119   0.017  1.2461  0.4700 -1.0383
  726MOL0     H95784   7.542   8.283  -0.010 -0.9233  0.4165  3.1056
  726MOL0     H95785   7.360   8.330  -0.267 -0.3959 -0.4079 -2.9071
  726MOL0     H95786   7.237   8.079  -0.525 -1.1054 -1.6087  1.2544
  726MOL0     H95787   7.321   8.241  -0.526 -1.7769  0.9137 -1.7788
  726MOL0     H95788   7.082   8.263  -0.518  0.0063 -2.5056  0.1492
  726MOL0     H95789   7.154   8.339  -0.377  1.0046  0.9984 -1.4239
  726MOL0     H95790   7.003   8.071  -0.366  2.5670 -1.1682  2.5471
  726MOL0     H95791   7.084   8.160  -0.231 -0.0962  0.5447  0.4451
  726MOL0     H95792   6.859   8.281  -0.402 -0.2847 -1.0668  0.2436
  726MOL0     H95793   6.949   8.352  -0.274 -0.4377 -0.3863 -0.0101
  726MOL0     H95794   6.894   8.030  -0.031  0.6372 -3.0002  2.0787
  726MOL0     H95795   6.832   7.798  -0.057 -0.3102  0.7960  2.7842
  726MOL0     H95796   6.667   7.472  -0.518  1.4213  0.8812  2.4483
  726MOL0     H95797   6.565   7.229  -0.547 -1.0317 -0.7801  0.1352
  726MOL0     H95798   6.298   7.183  -0.491 -1.5952 -1.0994 -1.0594
  726MOL0     H95799   6.239   7.063  -0.380 -1.6611  0.5381 -2.8240
  726MOL0     H95800   6.383   6.897  -0.465  2.0194  1.9356  2.2152
  726MOL0     H95801   6.483   7.015  -0.555  2.7300 -0.2963  3.1640
  726MOL0     H95802   6.180   6.933  -0.620 -0.7084  0.5901 -0.1492
  726MOL0     H95803   6.327   6.890  -0.701 -1.2226  2.7264 -3.4380
  726MOL0     H95804   6.209   7.166  -0.679  1.6238  1.3014 -1.3441
  726MOL0     H95805   6.373   7.139  -0.735  0.8254 -1.5309  4.8487
  726MOL0     H95806   6.124   6.993  -0.842  0.7490 -0.8229  0.5174
  726MOL0     H95807   6.289   7.003  -0.927 -0.9691 -0.9173  0.1214
  726MOL0     H95808   6.082   7.214  -0.863 -1.4581 -1.7503 -0.6714
  726MOL0     H95809   6.139   7.156  -1.027 -1.0566 -2.8149  1.3636
  726MOL0     H95810   6.306   7.313  -0.836 -0.5087 -1.3050  0.5147
  726MOL0     H95811   6.346   7.262  -1.002 -1.9852 -0.1177 -2.2532
  726MOL0     H95812   6.155   7.398  -1.088  0.0601  0.0187  0.3735
  726MOL0     H95813   6.302   7.481  -1.022 -0.4592  1.1483  0.9895
  726MOL0     H95814   6.363   7.291  -0.180  1.4233  5.3523  4.0728
  726MOL0     H95815   6.456   7.533  -0.166 -0.1806  0.6063 -1.1430
  726MOL0     H95816   6.588   7.889  -0.390 -4.0840  1.5490  2.9335
  726MOL0     H95817   6.682   8.128  -0.383  3.2636  2.0397  1.6022
  726MOL0     H95818   6.615   7.850   0.689  0.7256 -0.0343 -1.7183
  726MOL0     H95819   6.449   7.920   0.850  1.5165 -2.1396  0.4115
  726MOL0     H95820   6.288   7.920   1.258 -0.8447  0.7738  1.9357
  726MOL0     H95821   6.057   7.913   1.365  1.5615  1.2568  0.8721
  726MOL0     H95822   5.782   8.131   1.419 -0.5336 -0.0954  0.5305
  726MOL0     H95823   5.919   8.029   1.461 -1.0812  2.4631  1.5276
  726MOL0     H95824   5.769   7.832   1.428 -1.6953 -0.7877 -0.0948
  726MOL0     H95825   5.767   7.946   1.572  1.1409  2.0419  0.7953
  726MOL0     H95826   5.573   7.978   1.340 -0.3670 -1.1952 -1.0357
  726MOL0     H95827   5.563   8.030   1.515  0.7741  1.7097 -1.9547
  726MOL0     H95828   5.562   7.767   1.551 -1.7148 -0.9421 -0.2198
  726MOL0     H95829   5.422   7.867   1.506  2.0810  1.9381  2.1265
  726MOL0     H95830   5.459   7.638   1.157 -1.5102  0.0218  0.1975
  726MOL0     H95831   5.924   8.176   1.071  1.3655  0.5171  0.2720
  726MOL0     H95832   6.145   8.227   0.993  3.2290  0.3607  0.6676
  727MOL0     O95833   5.458   8.017   0.516  0.2874 -0.1649  0.4109
  727MOL0     C95834   5.525   7.912   0.501  0.9421 -0.8382 -0.4514
  727MOL0     O95835   5.492   7.791   0.551 -0.1088  0.0191  0.0492
  727MOL0     C95836   5.370   7.761   0.606 -0.5222  0.4400 -0.3846
  727MOL0     C95837   5.258   7.786   0.526 -0.1264  0.3869 -0.2557
  727MOL0     C95838   5.129   7.765   0.584  0.6592 -0.7526 -1.2023
  727MOL0     C95839   5.120   7.698   0.708 -0.8148 -0.0582 -0.2876
  727MOL0     O95840   5.000   7.655   0.770  0.2561  0.0309  0.4345
  727MOL0     C95841   4.885   7.737   0.760  0.1001 -0.3862 -0.0430
  727MOL0     C95842   4.790   7.653   0.849 -0.8587 -0.2539 -0.1326
  727MOL0     C95843   4.646   7.665   0.807 -1.4377  0.5880  0.1657
  727MOL0     C95844   4.571   7.563   0.897 -0.4692 -0.1504  0.2824
  727MOL0     C95845   4.419   7.586   0.898 -0.0275 -0.8788  0.2456
  727MOL0     C95846   4.341   7.531   1.011  0.1444 -0.0071 -0.0138
  727MOL0     C95847   4.328   7.381   1.010 -0.5790 -0.0673 -0.2099
  727MOL0     C95848   4.274   7.337   1.146 -0.6888 -0.2723  0.7503
  727MOL0     N95849   4.237   7.195   1.119  0.0497 -0.1849 -0.1942
  727MOL0     C95850   4.313   7.088   1.082  0.1043 -0.0913  0.5213
  727MOL0     C95851   4.230   6.979   1.086  0.2584  0.6707 -1.1922
  727MOL0     C95852   4.254   6.831   1.049  0.5573 -1.2265  0.7474
  727MOL0     C95853   4.270   6.805   0.895  0.5197 -0.4617  0.1985
  727MOL0     C95854   4.179   6.892   0.803 -0.0164  0.2741 -0.8769
  727MOL0     C95855   4.040   6.894   0.839  0.8296 -0.4221  0.8116
  727MOL0     O95856   3.998   6.758   0.866  0.3160  0.2135  0.3530
  727MOL0     C95857   3.886   6.735   0.945  0.8307  1.3086 -0.5480
  727MOL0     C95858   3.851   6.601   0.966  0.1137 -0.0487 -0.3375
  727MOL0     C95859   3.736   6.569   1.051  0.2966 -0.6815  0.3557
  727MOL0     C95860   3.660   6.672   1.119  0.7591 -0.7556  0.2503
  727MOL0     C95861   3.538   6.642   1.192  0.2136  0.4323 -0.0149
  727MOL0     O95862   3.490   6.519   1.184 -0.0058  0.4587 -0.0648
  727MOL0     C95863   3.375   6.486   1.243 -0.0677 -0.6664 -0.9858
  727MOL0     C95864   3.276   6.419   1.174 -0.3600 -0.7101  0.7240
  727MOL0     C95865   3.162   6.373   1.233  0.7628 -0.2655  0.1658
  727MOL0     C95866   3.144   6.392   1.368 -0.0146 -0.0859  0.1523
  727MOL0     O95867   3.029   6.333   1.417  0.2723  0.2256  0.3101
  727MOL0     C95868   3.037   6.263   1.539  0.1497 -0.0120 -0.5981
  727MOL0     C95869   2.916   6.177   1.535 -0.2840 -0.4110  0.1637
  727MOL0     C95870   2.788   6.249   1.499 -0.6373  0.1980  0.5759
  727MOL0     C95871   2.746   6.312   1.629  0.2392 -0.7821  0.0865
  727MOL0     C95872   2.615   6.388   1.608 -0.2860 -0.0742 -0.7049
  727MOL0     C95873   2.567   6.438   1.748  0.1455  0.1404 -0.7360
  727MOL0     C95874   2.413   6.448   1.760  0.3013 -0.0585  0.1378
  727MOL0     C95875   2.351   6.479   1.898 -0.6125  0.6435  0.2900
  727MOL0    Cl95876   2.180   6.534   1.876  0.1355  0.5098  0.0661
  727MOL0     C95877   3.237   6.464   1.442 -0.6732 -0.8253  0.3528
  727MOL0     C95878   3.354   6.516   1.380  0.1088 -0.6556 -0.3189
  727MOL0     O95879   3.478   6.742   1.229  0.6048  0.4665  0.0163
  727MOL0     C95880   3.703   6.804   1.091  1.3302 -0.6662  0.0494
  727MOL0     C95881   3.802   6.834   0.998 -0.7772 -0.3491 -0.4175
  727MOL0     N95882   4.104   7.024   1.122 -0.4764  0.2384 -0.2598
  727MOL0     N95883   4.113   7.147   1.149 -0.6379 -0.1673 -0.1339
  727MOL0     C95884   5.236   7.664   0.786 -0.4541  0.0725  0.4759
  727MOL0     C95885   5.360   7.691   0.728  0.2403 -0.1143  0.0243
  727MOL0     C95886   5.657   7.932   0.439  0.1594  0.6768 -0.2489
  727MOL0     C95887   5.746   7.817   0.455 -1.0822  0.1213  0.3591
  727MOL0     C95888   5.866   7.800   0.373 -0.8999 -0.1664 -0.7123
  727MOL0     C95889   5.911   7.909   0.297  0.2148  0.1350  0.6665
  727MOL0     O95890   6.032   7.921   0.238  0.3573 -0.4097  0.0803
  727MOL0     C95891   6.109   7.805   0.208  0.7160 -0.4543  0.4088
  727MOL0     C95892   6.037   7.713   0.112  0.1059  0.4288  0.4217
  727MOL0     C95893   6.126   7.588   0.067 -0.3088  0.0065 -0.0211
  727MOL0     C95894   6.273   7.634   0.049 -0.1798 -0.3716  0.7429
  727MOL0     C95895   6.283   7.727  -0.065 -0.8661  0.6717  0.1142
  727MOL0     C95896   6.299   7.792  -0.167  0.0785  0.9308  0.0445
  727MOL0     C95897   5.833   8.024   0.289  1.2040 -0.6179 -0.1825
  727MOL0     C95898   5.705   8.038   0.357  0.8873 -0.7167 -0.0192
  727MOL0     H95899   5.265   7.835   0.429 -1.2651  1.6869  0.2889
  727MOL0     H95900   5.040   7.782   0.524 -0.6905 -2.3564  0.2200
  727MOL0     H95901   4.852   7.758   0.658 -0.2331  1.8357  0.4779
  727MOL0     H95902   4.908   7.832   0.808 -0.3952  0.1014 -0.7564
  727MOL0     H95903   4.803   7.689   0.952 -0.4323  1.1108 -0.6354
  727MOL0     H95904   4.804   7.546   0.862 -4.3937 -0.6390  2.0783
  727MOL0     H95905   4.635   7.634   0.703  2.6463  0.9942 -0.5253
  727MOL0     H95906   4.609   7.768   0.812 -3.3665 -0.1110  1.5526
  727MOL0     H95907   4.596   7.462   0.864  1.0809  0.3441 -0.1768
  727MOL0     H95908   4.613   7.575   0.998 -1.5948 -1.6118  0.9528
  727MOL0     H95909   4.380   7.558   0.799  0.6749 -1.2689  0.0724
  727MOL0     H95910   4.420   7.695   0.910  0.4909 -0.2710 -3.7404
  727MOL0     H95911   4.236   7.561   1.015 -0.5098 -2.1505  0.1621
  727MOL0     H95912   4.393   7.556   1.104  1.2227  3.7007 -1.4249
  727MOL0     H95913   4.261   7.340   0.934 -2.4212  0.9855  0.7454
  727MOL0     H95914   4.424   7.332   0.992 -1.1360 -1.5129  0.5633
  727MOL0     H95915   4.189   7.397   1.182  0.0799  0.0628  2.0966
  727MOL0     H95916   4.356   7.340   1.218  2.4382 -3.9518 -2.2657
  727MOL0     H95917   4.413   7.090   1.039 -1.1245  0.2760 -2.5636
  727MOL0     H95918   4.162   6.783   1.084  0.8532  0.9316  5.1196
  727MOL0     H95919   4.348   6.805   1.100  1.4262  0.0128 -0.1639
  727MOL0     H95920   4.253   6.698   0.876  0.2122 -0.8266  2.2668
  727MOL0     H95921   4.373   6.822   0.865 -0.6147  1.2973 -3.1705
  727MOL0     H95922   4.207   6.998   0.801 -1.6155  0.9825  3.2956
  727MOL0     H95923   4.180   6.848   0.703  1.4412 -3.3913  0.5560
  727MOL0     H95924   3.973   6.913   0.755 -0.1235  0.5314  1.7566
  727MOL0     H95925   4.025   6.976   0.910  0.8044  0.8967 -0.6390
  727MOL0     H95926   3.915   6.526   0.919  2.3258  2.0475 -0.8986
  727MOL0     H95927   3.700   6.467   1.041  0.1092 -0.4630 -1.6694
  727MOL0     H95928   3.286   6.396   1.069 -1.6225  0.7742  0.2316
  727MOL0     H95929   3.087   6.316   1.179 -1.0966  1.7128  0.5210
  727MOL0     H95930   3.037   6.329   1.626  0.0666 -0.5567 -0.1796
  727MOL0     H95931   3.125   6.197   1.540  1.8401  2.1487 -0.4103
  727MOL0     H95932   2.914   6.151   1.642 -4.0722  0.7131  0.5279
  727MOL0     H95933   2.936   6.095   1.466  1.3193  2.9335 -3.7415
  727MOL0     H95934   2.718   6.171   1.467  0.8402 -0.0220 -2.5185
  727MOL0     H95935   2.804   6.321   1.418 -2.8359 -1.6184 -1.6389
  727MOL0     H95936   2.734   6.224   1.693  0.4951 -0.4323  0.6209
  727MOL0     H95937   2.834   6.368   1.662  0.4515 -0.3339 -1.1722
  727MOL0     H95938   2.537   6.335   1.553 -5.1819  5.0610  0.3031
  727MOL0     H95939   2.632   6.475   1.543  0.5487  3.3701  3.6241
  727MOL0     H95940   2.612   6.533   1.778 -1.7189  0.5189  1.0887
  727MOL0     H95941   2.593   6.367   1.827 -3.2532 -0.8156 -0.3074
  727MOL0     H95942   2.373   6.527   1.696 -0.0386 -1.5374 -1.5739
  727MOL0     H95943   2.367   6.354   1.728  1.2038 -0.8668  1.1240
  727MOL0     H95944   2.395   6.574   1.928 -0.5686  0.6633  0.1599
  727MOL0     H95945   2.347   6.390   1.961 -3.5879  0.9854  0.7521
  727MOL0     H95946   3.215   6.481   1.547  3.7527  0.8919  1.2185
  727MOL0     H95947   3.418   6.578   1.442 -0.8106 -1.6403  1.7077
  727MOL0     H95948   3.647   6.885   1.136  0.2843  1.0477 -3.9278
  727MOL0     H95949   3.817   6.937   0.968  2.1924 -0.8766 -1.0981
  727MOL0     H95950   5.235   7.630   0.889  3.1099 -0.3622  0.4906
  727MOL0     H95951   5.455   7.662   0.771 -0.3192  1.6387  2.6868
  727MOL0     H95952   5.724   7.728   0.512 -1.7618  0.4154  0.5618
  727MOL0     H95953   5.933   7.714   0.372 -1.8885 -0.9961  0.4014
  727MOL0     H95954   6.143   7.759   0.302  3.1859  0.9333  0.2746
  727MOL0     H95955   6.198   7.839   0.156  1.0316 -0.7670  0.7376
  727MOL0     H95956   5.943   7.679   0.157 -1.1273  2.5708 -0.4041
  727MOL0     H95957   5.999   7.761   0.022 -0.1823 -1.8825 -0.7585
  727MOL0     H95958   6.093   7.553  -0.031  1.0749  4.6613 -2.4745
  727MOL0     H95959   6.111   7.509   0.141 -0.2636 -1.0923 -1.1545
  727MOL0     H95960   6.316   7.674   0.141 -1.0851  0.1353  0.9586
  727MOL0     H95961   6.334   7.545   0.033 -0.5784 -0.4965 -0.1781
  727MOL0     H95962   6.304   7.841  -0.262 -1.5364  2.3420  0.6264
  727MOL0     H95963   5.859   8.118   0.241 -2.7019  1.5658  1.4263
  727MOL0     H95964   5.653   8.132   0.349  1.4090  0.2114  4.5983
  728MOL0     O95965   3.404  11.130   1.512  0.3240  0.1925  0.2311
  728MOL0     C95966   3.388  11.014   1.472  0.1584 -0.2527  0.3252
  728MOL0     O95967   3.400  10.960   1.347 -0.2090  0.5571  0.3880
  728MOL0     C95968   3.436  11.045   1.247  0.4633 -0.8037  0.0192
  728MOL0     C95969   3.561  11.117   1.235  1.0328 -0.4778  0.9390
  728MOL0     C95970   3.586  11.199   1.126 -0.0102  0.1534 -0.3157
  728MOL0     C95971   3.496  11.201   1.024  0.4395 -0.3834  0.4908
  728MOL0     O95972   3.535  11.285   0.924  0.0597 -0.3856 -0.0109
  728MOL0     C95973   3.443  11.313   0.811  0.0443 -0.1721  0.7929
  728MOL0     C95974   3.523  11.410   0.716 -0.0070 -0.1786 -0.3338
  728MOL0     C95975   3.426  11.481   0.626 -0.2266  0.0617 -0.3369
  728MOL0     C95976   3.372  11.389   0.521  0.1523  0.3279  0.1430
  728MOL0     C95977   3.277  11.457   0.417 -0.2717 -1.0625 -0.2135
  728MOL0     C95978   3.141  11.524   0.469 -0.5051 -0.7124  0.0430
  728MOL0     C95979   3.069  11.586   0.355 -0.3881 -0.6010  0.0056
  728MOL0     C95980   2.914  11.571   0.365  0.3419 -0.2588  0.5336
  728MOL0     N95981   2.834  11.634   0.264 -0.3266  0.3976 -0.2005
  728MOL0     C95982   2.700  11.616   0.248  0.6432  0.2039 -0.1587
  728MOL0     C95983   2.658  11.712   0.162 -1.5451  0.3848 -0.7033
  728MOL0     C95984   2.523  11.734   0.129 -0.5714 -0.1444  0.4116
  728MOL0     C95985   2.452  11.619   0.049  0.5123 -0.1455  1.0674
  728MOL0     C95986   2.304  11.644   0.055 -0.0411 -0.4895 -0.7616
  728MOL0     C95987   2.235  11.537  -0.032 -1.6396 -0.5856 -0.3272
  728MOL0     O95988   2.231  11.585  -0.175 -0.1309  0.2618  0.3226
  728MOL0     C95989   2.195  11.491  -0.269  0.5274  0.1805  0.3649
  728MOL0     C95990   2.095  11.396  -0.261 -0.9401 -0.9733  0.8899
  728MOL0     C95991   2.056  11.319  -0.366 -0.2594  0.0546 -0.5673
  728MOL0     C95992   2.122  11.334  -0.489 -0.0690 -0.2361 -0.1991
  728MOL0     C95993   2.088  11.243  -0.605 -0.0386 -0.0485 -0.0594
  728MOL0     O95994   1.982  11.162  -0.600 -0.3325  0.8704  0.1360
  728MOL0     C95995   1.957  11.068  -0.698  0.4228 -1.0367  0.5514
  728MOL0     C95996   1.914  10.949  -0.646 -0.3674  1.3659  0.2049
  728MOL0     C95997   1.870  10.851  -0.730  0.0428  0.5238 -0.1891
  728MOL0     C95998   1.867  10.872  -0.863 -0.1193 -0.0521  0.4531
  728MOL0     O95999   1.819  10.774  -0.942 -0.3240  0.6328 -0.2624
  728MOL0     C96000   1.908  10.713  -1.032 -0.3310  0.3533 -0.5339
  728MOL0     C96001   2.021  10.623  -0.964  1.0700 -0.1775  0.0746
  728MOL0     C96002   2.141  10.588  -1.061 -0.3617 -0.0402 -0.9088
  728MOL0     C96003   2.234  10.492  -0.993 -0.5406  0.2383  0.4434
  728MOL0     C96004   2.344  10.469  -1.086 -0.2284  0.8674 -0.0841
  728MOL0     C96005   2.457  10.368  -1.032  0.1304  0.0065  0.8423
  728MOL0     C96006   2.570  10.385  -1.133 -0.3288 -0.0689 -0.1744
  728MOL0     C96007   2.696  10.308  -1.072 -0.0349  0.8124  1.5337
  728MOL0    Cl96008   2.780  10.411  -0.943 -0.2290 -0.0268 -0.1317
  728MOL0     C96009   1.925  10.989  -0.915 -0.2021  0.5312 -0.4119
  728MOL0     C96010   1.968  11.094  -0.831 -0.0150  1.3163  0.6485
  728MOL0     O96011   2.164  11.256  -0.701 -0.4020  0.0228 -0.0231
  728MOL0     C96012   2.221  11.430  -0.501  0.1558 -1.0501  0.3715
  728MOL0     C96013   2.261  11.506  -0.389 -0.6273  0.0966  0.6906
  728MOL0     N96014   2.772  11.788   0.126  0.2169  0.7016  0.9923
  728MOL0     N96015   2.879  11.736   0.180  0.3486  0.1220  0.3364
  728MOL0     C96016   3.385  11.114   1.025 -0.0293 -0.3855 -0.4065
  728MOL0     C96017   3.360  11.041   1.138  0.2630 -0.0707 -0.0784
  728MOL0     C96018   3.333  10.930   1.574  0.4278  0.4569  0.2998
  728MOL0     C96019   3.244  10.822   1.549  0.7674  0.1181  0.2585
  728MOL0     C96020   3.177  10.751   1.646 -0.5715  0.6537 -1.1112
  728MOL0     C96021   3.195  10.781   1.781  0.5483 -0.6919  0.3480
  728MOL0     O96022   3.106  10.711   1.859 -0.4411  0.4531  0.2411
  728MOL0     C96023   3.101  10.762   1.990  0.5197 -0.9440 -0.6670
  728MOL0     C96024   2.991  10.685   2.069 -0.5087 -0.4642 -0.1406
  728MOL0     C96025   3.040  10.540   2.100 -0.2904 -0.1820 -0.5274
  728MOL0     C96026   2.920  10.444   2.110 -0.4876  0.1342 -0.4552
  728MOL0     C96027   2.820  10.443   2.007  0.6286 -0.0384  0.0624
  728MOL0     C96028   2.730  10.420   1.923  0.7821  0.1693  0.3451
  728MOL0     C96029   3.284  10.881   1.813  0.4035 -0.5775 -0.1427
  728MOL0     C96030   3.355  10.959   1.708  0.0913 -0.2287 -1.1090
  728MOL0     H96031   3.636  11.105   1.313  1.5811 -0.8449  0.3684
  728MOL0     H96032   3.684  11.245   1.122 -0.7686  1.8191 -0.8248
  728MOL0     H96033   3.353  11.368   0.842 -0.3315  0.0965 -0.7042
  728MOL0     H96034   3.414  11.220   0.761 -3.9680  0.9015  0.8115
  728MOL0     H96035   3.593  11.347   0.662 -2.0944 -2.6056 -0.4223
  728MOL0     H96036   3.575  11.490   0.770  0.8516 -1.1959  0.3847
  728MOL0     H96037   3.470  11.568   0.576  1.0795 -0.0860  0.4964
  728MOL0     H96038   3.351  11.518   0.696  0.5041  0.2833  0.3495
  728MOL0     H96039   3.456  11.335   0.478 -1.6204 -2.8165  0.3557
  728MOL0     H96040   3.308  11.320   0.577  0.7747  1.2738  2.1029
  728MOL0     H96041   3.251  11.389   0.335  2.6154 -2.6672  0.0751
  728MOL0     H96042   3.329  11.535   0.360 -0.3463 -1.0565 -0.2755
  728MOL0     H96043   3.170  11.592   0.550  0.8490 -0.7134 -0.4159
  728MOL0     H96044   3.082  11.441   0.511 -3.5124  0.7274 -0.9927
  728MOL0     H96045   3.090  11.693   0.360 -0.8654 -0.4109 -1.4885
  728MOL0     H96046   3.091  11.538   0.259  2.7070  1.4059 -0.4369
  728MOL0     H96047   2.882  11.605   0.464  1.8290  1.8063  0.3642
  728MOL0     H96048   2.911  11.463   0.349  0.7376 -0.2341  0.2931
  728MOL0     H96049   2.646  11.538   0.301  4.2425 -2.4267 -0.0110
  728MOL0     H96050   2.517  11.811   0.052 -0.0296 -0.9377 -0.4379
  728MOL0     H96051   2.464  11.773   0.213  0.1860  0.4209  0.7026
  728MOL0     H96052   2.467  11.529   0.110  2.8713  0.0050  0.8309
  728MOL0     H96053   2.483  11.615  -0.056 -1.8977  2.7780  0.0998
  728MOL0     H96054   2.282  11.614   0.158 -1.9678  2.0454 -0.3491
  728MOL0     H96055   2.276  11.748   0.036  0.2692  0.2240  2.2278
  728MOL0     H96056   2.131  11.508  -0.012 -1.3127 -2.5934 -1.2766
  728MOL0     H96057   2.285  11.441  -0.020  1.1556  0.6976 -1.0183
  728MOL0     H96058   2.042  11.396  -0.167  0.4176 -1.8202  1.6872
  728MOL0     H96059   1.978  11.244  -0.377  1.8496 -2.0773 -2.0724
  728MOL0     H96060   1.911  10.942  -0.538  0.5691  1.8751  0.2789
  728MOL0     H96061   1.827  10.757  -0.697 -1.5792  2.4157  3.7049
  728MOL0     H96062   1.950  10.794  -1.091  2.8721 -0.7997 -0.0223
  728MOL0     H96063   1.856  10.644  -1.099 -0.4027 -0.5833  0.4412
  728MOL0     H96064   1.973  10.539  -0.913 -0.9188  1.1302  0.4540
  728MOL0     H96065   2.068  10.686  -0.888  2.0343 -0.0191 -0.6343
  728MOL0     H96066   2.193  10.682  -1.079 -1.6322  0.7808 -0.4362
  728MOL0     H96067   2.106  10.556  -1.160  0.8411  2.4978 -2.2405
  728MOL0     H96068   2.272  10.538  -0.901  1.8720  0.5999 -0.6640
  728MOL0     H96069   2.182  10.398  -0.974 -0.7370 -0.0375 -1.3219
  728MOL0     H96070   2.386  10.566  -1.112 -2.3575  0.9395 -4.1595
  728MOL0     H96071   2.309  10.426  -1.181 -2.2675  1.0923  0.5149
  728MOL0     H96072   2.422  10.264  -1.039  1.3019 -0.3193 -1.0690
  728MOL0     H96073   2.492  10.395  -0.932  2.3724  2.3249 -0.4322
  728MOL0     H96074   2.534  10.330  -1.221 -1.1555 -0.9640  0.6989
  728MOL0     H96075   2.597  10.488  -1.159  1.2392 -0.4369 -0.1219
  728MOL0     H96076   2.771  10.279  -1.147 -0.7284 -2.1078  1.8463
  728MOL0     H96077   2.673  10.211  -1.029  2.4442  0.2554  1.7632
  728MOL0     H96078   1.927  10.996  -1.023 -1.4469  1.7778 -0.3881
  728MOL0     H96079   2.025  11.176  -0.875  0.3764  0.9293  0.4222
  728MOL0     H96080   2.287  11.433  -0.587  4.0769 -1.8545  3.0671
  728MOL0     H96081   2.335  11.585  -0.395  1.3507 -1.5867  1.3979
  728MOL0     H96082   3.319  11.118   0.939  2.7803  0.1851 -2.6689
  728MOL0     H96083   3.281  10.966   1.137 -0.7272  0.9173 -2.3124
  728MOL0     H96084   3.207  10.816   1.446 -5.3416  0.1236  2.0237
  728MOL0     H96085   3.108  10.673   1.614  0.4973 -0.6248 -0.3829
  728MOL0     H96086   3.066  10.866   1.986  0.8328 -0.4789  3.9056
  728MOL0     H96087   3.199  10.757   2.038 -0.3344  0.1089  1.2898
  728MOL0     H96088   2.977  10.736   2.165 -2.9982 -0.7059 -0.3233
  728MOL0     H96089   2.894  10.678   2.020 -1.1124 -2.8135  1.2537
  728MOL0     H96090   3.109  10.538   2.185 -1.7558  0.1501  0.7142
  728MOL0     H96091   3.101  10.513   2.014  1.3502  1.2741  0.1229
  728MOL0     H96092   2.953  10.345   2.144 -0.6211 -0.9849 -3.3591
  728MOL0     H96093   2.861  10.483   2.194  2.0846 -1.1537  2.1472
  728MOL0     H96094   2.654  10.384   1.857 -1.1200  2.5651  1.0848
  728MOL0     H96095   3.297  10.911   1.917 -1.9617 -1.2421  0.4046
  728MOL0     H96096   3.417  11.037   1.751  0.4741 -0.9009 -0.4250
  729MOL0     O96097   1.683   2.522   5.218 -0.5453  0.5762  0.5722
  729MOL0     C96098   1.747   2.543   5.113  0.4640 -0.2865  0.5230
  729MOL0     O96099   1.726   2.653   5.034  0.1148 -0.4391  0.1911
  729MOL0     C96100   1.618   2.739   5.065  0.4193 -0.1874 -0.1794
  729MOL0     C96101   1.488   2.707   5.113  0.3136 -0.2239  0.1008
  729MOL0     C96102   1.389   2.803   5.146 -0.0839  0.3578 -0.6344
  729MOL0     C96103   1.419   2.941   5.150  0.2323  1.0016  1.1019
  729MOL0     O96104   1.318   3.018   5.192  0.2671 -0.0787 -0.8038
  729MOL0     C96105   1.342   3.157   5.191  0.6410  0.1396  0.0353
  729MOL0     C96106   1.231   3.219   5.261  0.4602  0.4464 -0.5749
  729MOL0     C96107   1.104   3.221   5.173  0.2282  0.9140 -0.3885
  729MOL0     C96108   1.041   3.073   5.167 -0.1121 -0.1500  0.3485
  729MOL0     C96109   0.888   3.076   5.139 -0.9239 -0.4701 -1.4168
  729MOL0     C96110   0.810   3.141   5.256 -0.0521  0.1909  0.4853
  729MOL0     C96111   0.671   3.189   5.207 -0.3430 -0.4257 -0.3647
  729MOL0     C96112   0.609   3.310   5.296 -0.5111 -0.7138  0.4952
  729MOL0     N96113   0.476   3.365   5.258  0.0011 -0.1913 -0.0789
  729MOL0     C96114   0.363   3.364   5.338  0.1085  0.2983 -0.3119
  729MOL0     C96115   0.273   3.416   5.259 -0.4228  0.1992  0.4300
  729MOL0     C96116   0.128   3.451   5.274 -0.1914  0.2917 -0.0024
  729MOL0     C96117   0.101   3.561   5.378  0.0094  0.4477  0.0497
  729MOL0     C96118   0.145   3.716   5.341  0.8373  0.2966  0.1442
  729MOL0     C96119   0.292   3.731   5.300  0.0946  0.1477 -0.6449
  729MOL0     O96120   0.387   3.708   5.408  0.0904 -0.6321 -0.1905
  729MOL0     C96121   0.522   3.728   5.388  0.1539  0.3821  1.6803
  729MOL0     C96122   0.602   3.699   5.498  0.0217 -0.3446 -0.0483
  729MOL0     C96123   0.734   3.662   5.488 -0.2960  1.5921  0.3980
  729MOL0     C96124   0.801   3.671   5.356  0.3075  0.7324 -0.1808
  729MOL0     C96125   0.942   3.635   5.345  0.5236 -0.4166  0.2650
  729MOL0     O96126   1.009   3.671   5.236 -0.4520  0.3325  0.3028
  729MOL0     C96127   1.140   3.626   5.221  0.5614  0.0618  0.8055
  729MOL0     C96128   1.254   3.650   5.298  0.1596 -0.0409  0.2156
  729MOL0     C96129   1.377   3.591   5.266 -0.2917  0.1359  0.3356
  729MOL0     C96130   1.401   3.517   5.150 -0.6864  0.4936  0.1179
  729MOL0     O96131   1.522   3.472   5.102 -0.0748  0.4793 -0.3446
  729MOL0     C96132   1.623   3.428   5.194 -0.5181  0.0588 -0.0505
  729MOL0     C96133   1.718   3.328   5.126 -1.0343 -1.1121  0.0356
  729MOL0     C96134   1.830   3.402   5.057 -0.1470  0.3112 -0.3320
  729MOL0     C96135   1.935   3.315   4.983  0.3425  0.5376 -0.0903
  729MOL0     C96136   1.873   3.232   4.871 -0.6683  0.2134  0.1109
  729MOL0     C96137   1.863   3.325   4.749  0.2456  0.4672 -0.2695
  729MOL0     C96138   1.806   3.244   4.630 -0.1265  0.1593  0.4643
  729MOL0     C96139   1.793   3.328   4.503  0.5925 -0.0590  0.0049
  729MOL0    Cl96140   1.709   3.214   4.383  0.5572  0.0942 -0.0342
  729MOL0     C96141   1.288   3.502   5.062 -0.3578  0.7276 -0.0886
  729MOL0     C96142   1.163   3.559   5.096 -0.1456 -0.0197  0.0237
  729MOL0     O96143   0.983   3.573   5.440  0.6062  0.2700  0.4587
  729MOL0     C96144   0.731   3.722   5.249 -0.4005  0.3504  0.4308
  729MOL0     C96145   0.587   3.738   5.254 -0.7353  0.9531 -0.3767
  729MOL0     N96146   0.329   3.448   5.132  0.8561 -0.6962 -0.1352
  729MOL0     N96147   0.448   3.412   5.133 -0.0282  0.4687 -0.5643
  729MOL0     C96148   1.548   2.976   5.105 -1.0145 -0.3681  1.6192
  729MOL0     C96149   1.639   2.874   5.060 -0.8008 -0.2477  0.0786
  729MOL0     C96150   1.855   2.461   5.065 -0.0117  0.7767  0.0068
  729MOL0     C96151   1.860   2.320   5.109  0.7127 -0.2666 -0.4510
  729MOL0     C96152   1.960   2.240   5.061 -0.4436  0.7536 -0.4803
  729MOL0     C96153   2.054   2.292   4.962  0.8251  0.2911 -0.4489
  729MOL0     O96154   2.156   2.216   4.912  0.6524 -0.1721  0.4962
  729MOL0     C96155   2.110   2.099   4.838  0.2895  1.0993 -0.8141
  729MOL0     C96156   2.236   2.030   4.781  0.0017 -0.4000 -0.5762
  729MOL0     C96157   2.333   1.983   4.888  0.2355 -0.1348  0.0738
  729MOL0     C96158   2.431   2.082   4.939  0.3407  0.3383  0.3896
  729MOL0     C96159   2.535   2.020   5.022  0.5393  0.2252 -0.0595
  729MOL0     C96160   2.609   1.977   5.112  0.9340  0.9425  0.0751
  729MOL0     C96161   2.059   2.431   4.947 -0.4055 -0.2293 -0.4929
  729MOL0     C96162   1.960   2.515   4.985 -0.0384  0.7241  0.9786
  729MOL0     H96163   1.466   2.602   5.126  0.4737 -0.3471 -0.5794
  729MOL0     H96164   1.292   2.766   5.176  1.1524 -0.6338  2.6980
  729MOL0     H96165   1.363   3.191   5.090  1.5311 -0.0923  0.1333
  729MOL0     H96166   1.433   3.184   5.246  0.7124  1.6055 -0.7649
  729MOL0     H96167   1.267   3.322   5.273  0.7471  0.0449  3.6863
  729MOL0     H96168   1.212   3.172   5.358  0.8296  1.7977  0.1919
  729MOL0     H96169   1.131   3.260   5.074  0.2404  1.3295 -0.2253
  729MOL0     H96170   1.031   3.283   5.226 -0.8505 -0.8915  0.2982
  729MOL0     H96171   1.094   3.014   5.091 -2.9235 -1.3394 -0.8312
  729MOL0     H96172   1.063   3.028   5.264  1.8267 -0.3213 -0.1304
  729MOL0     H96173   0.835   2.982   5.121 -4.2496  0.8585  0.5838
  729MOL0     H96174   0.861   3.140   5.054 -3.5493  0.5374  0.0475
  729MOL0     H96175   0.859   3.230   5.298 -0.2379  0.8928 -0.7373
  729MOL0     H96176   0.786   3.067   5.333  1.0661  1.9113  2.6220
  729MOL0     H96177   0.686   3.225   5.104 -2.6000  1.4387 -0.1183
  729MOL0     H96178   0.598   3.109   5.195 -2.2674  1.1586  0.1983
  729MOL0     H96179   0.679   3.394   5.302 -3.2859  1.7638  0.3300
  729MOL0     H96180   0.588   3.279   5.399 -1.6211  3.0270  1.5446
  729MOL0     H96181   0.353   3.327   5.440 -1.6274 -1.8582 -1.1895
  729MOL0     H96182   0.074   3.359   5.298 -0.5727 -0.2809 -2.6621
  729MOL0     H96183   0.073   3.480   5.184  0.0523 -0.5425 -0.4350
  729MOL0     H96184   0.152   3.534   5.471  0.5808  0.1312 -0.3421
  729MOL0     H96185  -0.005   3.561   5.404  0.3041  3.9720  1.8866
  729MOL0     H96186   0.075   3.756   5.266  0.1959 -1.0500 -0.0037
  729MOL0     H96187   0.119   3.783   5.424  2.2966 -0.0288  0.8876
  729MOL0     H96188   0.317   3.829   5.259  2.6024 -0.0928  0.1321
  729MOL0     H96189   0.309   3.675   5.207  0.0708  2.6997 -2.2693
  729MOL0     H96190   0.546   3.669   5.586 -1.2123  0.3891 -0.5601
  729MOL0     H96191   0.787   3.647   5.581 -1.3168  1.3272  0.9465
  729MOL0     H96192   1.240   3.704   5.391  0.6998 -1.9633  1.4717
  729MOL0     H96193   1.459   3.611   5.335  0.4751  1.6334 -0.9436
  729MOL0     H96194   1.570   3.380   5.277 -0.3323 -1.1994 -0.6370
  729MOL0     H96195   1.680   3.513   5.233  2.3935 -1.3336 -0.9622
  729MOL0     H96196   1.664   3.264   5.055 -1.0469 -2.6736  1.3848
  729MOL0     H96197   1.775   3.258   5.188 -1.0333 -0.6844  0.5236
  729MOL0     H96198   1.889   3.445   5.139 -1.8565  2.9879 -0.3946
  729MOL0     H96199   1.787   3.478   4.992 -0.5897  1.4657  1.2445
  729MOL0     H96200   2.005   3.382   4.932  0.0151 -1.3104 -3.2445
  729MOL0     H96201   1.976   3.246   5.057 -0.7553 -0.0865 -0.0357
  729MOL0     H96202   1.773   3.195   4.898 -0.3226  0.0744  1.2559
  729MOL0     H96203   1.933   3.142   4.855  1.9885  1.8783  0.1362
  729MOL0     H96204   1.965   3.357   4.723  1.3707 -0.4178  2.6862
  729MOL0     H96205   1.799   3.414   4.753  0.1725  0.5535 -2.3268
  729MOL0     H96206   1.885   3.171   4.608 -0.2372  0.4690 -1.0962
  729MOL0     H96207   1.717   3.187   4.659 -1.3456  1.7670  0.0723
  729MOL0     H96208   1.892   3.356   4.465 -0.2364 -0.2676 -2.5096
  729MOL0     H96209   1.732   3.419   4.503  0.0450 -0.4175 -0.0317
  729MOL0     H96210   1.306   3.439   4.975  5.4027  2.4197 -0.5435
  729MOL0     H96211   1.084   3.548   5.022  1.5607  0.7605 -2.0139
  729MOL0     H96212   0.781   3.725   5.152 -0.0840 -2.9142  0.3833
  729MOL0     H96213   0.529   3.762   5.166 -1.7994 -2.5217 -0.7922
  729MOL0     H96214   1.587   3.076   5.089  2.0286 -1.3733  2.1769
  729MOL0     H96215   1.736   2.915   5.032 -0.9209  1.6910  2.1776
  729MOL0     H96216   1.792   2.293   5.189  2.3179  1.1636  1.4934
  729MOL0     H96217   1.970   2.137   5.095 -0.9590  1.4041  1.7840
  729MOL0     H96218   2.033   2.120   4.763 -0.3898  2.1879  0.1253
  729MOL0     H96219   2.061   2.034   4.911  2.3336 -0.6479 -0.9219
  729MOL0     H96220   2.191   1.938   4.742 -1.4861 -1.3464  2.9765
  729MOL0     H96221   2.287   2.087   4.703 -0.1301  0.4582 -0.0439
  729MOL0     H96222   2.384   1.888   4.869 -2.1241 -2.1380  2.9534
  729MOL0     H96223   2.274   1.955   4.976  0.9106 -0.3264  0.4773
  729MOL0     H96224   2.486   2.126   4.855  1.3137  1.8546  1.7631
  729MOL0     H96225   2.386   2.157   5.005  1.6359 -0.7539  2.6156
  729MOL0     H96226   2.670   1.945   5.194  1.3063  1.4824  0.0124
  729MOL0     H96227   2.118   2.466   4.863 -2.3362  1.7037 -1.1188
  729MOL0     H96228   1.953   2.618   4.950 -0.5880  0.1186 -0.7996
  730MOL0     O96229  10.695   7.264   6.904  0.2103  1.0083  0.3230
  730MOL0     C96230  10.759   7.215   6.998  0.1681 -0.5292  0.7001
  730MOL0     O96231  10.847   7.110   6.989  0.4573  0.2435 -0.2353
  730MOL0     C96232  10.858   7.035   6.877  0.2217  0.3362  0.9551
  730MOL0     C96233  10.753   7.006   6.794 -0.3139 -0.2423  0.6761
  730MOL0     C96234  10.772   6.931   6.682 -0.8077  1.0542 -0.8466
  730MOL0     C96235  10.890   6.861   6.663 -0.4949  0.2453  0.5124
  730MOL0     O96236  10.919   6.763   6.573 -0.4430 -0.8490  0.1133
  730MOL0     C96237  10.827   6.735   6.463  0.2286 -0.0148 -0.3713
  730MOL0     C96238  10.884   6.623   6.380 -0.2718 -1.0104 -0.4724
  730MOL0     C96239  10.820   6.589   6.249 -1.1492 -0.2037  0.3628
  730MOL0     C96240  10.889   6.457   6.191 -0.5399  0.1851  0.0431
  730MOL0     C96241  10.801   6.388   6.079 -0.4400  0.1798 -0.3202
  730MOL0     C96242  10.907   6.294   6.010 -0.5035  0.3962  0.2329
  730MOL0     C96243  10.857   6.191   5.909  0.2259 -0.2418  0.7879
  730MOL0     C96244  10.738   6.230   5.813  0.0560  0.1785 -0.1020
  730MOL0     N96245  10.719   6.154   5.695  0.3239  0.0366 -0.2337
  730MOL0     C96246  10.620   6.192   5.603  0.2882 -1.2240  0.4401
  730MOL0     C96247  10.627   6.097   5.508  0.3747  0.4110 -1.0150
  730MOL0     C96248  10.519   6.090   5.411  0.3478  0.3184  0.3321
  730MOL0     C96249  10.394   6.006   5.464  0.9287  0.4435  0.0337
  730MOL0     C96250  10.295   5.962   5.356 -0.1556 -0.2134  0.3067
  730MOL0     C96251  10.187   5.874   5.403 -0.0903  0.1957  0.2091
  730MOL0     O96252  10.108   5.962   5.481 -0.5269  0.5298  0.9756
  730MOL0     C96253   9.981   5.918   5.488 -0.7466  0.1092 -0.0842
  730MOL0     C96254   9.943   5.805   5.559 -0.1622 -0.1229 -0.1530
  730MOL0     C96255   9.810   5.760   5.551  0.1236  0.6109 -0.0102
  730MOL0     C96256   9.712   5.841   5.488  0.2534  0.0064 -0.3026
  730MOL0     C96257   9.567   5.814   5.505 -0.2624 -0.0568 -0.4044
  730MOL0     O96258   9.539   5.712   5.590  0.3160  0.4149  0.1457
  730MOL0     C96259   9.415   5.688   5.649 -0.4322  0.5827 -0.7164
  730MOL0     C96260   9.295   5.702   5.579  0.0199  0.1969  0.2225
  730MOL0     C96261   9.169   5.671   5.643  0.4968  0.4482 -1.3090
  730MOL0     C96262   9.173   5.609   5.768 -0.1914 -1.1443 -0.6243
  730MOL0     O96263   9.053   5.581   5.810  0.2366  0.6617 -0.0670
  730MOL0     C96264   9.042   5.449   5.874 -0.4534  0.6327  0.0879
  730MOL0     C96265   8.895   5.399   5.878  0.3249 -0.3392 -0.5349
  730MOL0     C96266   8.837   5.443   6.012 -0.3162  0.7350 -0.3934
  730MOL0     C96267   8.694   5.382   6.027 -0.4049 -1.0237  0.4391
  730MOL0     C96268   8.607   5.435   6.142 -0.5875  0.5731 -0.2343
  730MOL0     C96269   8.483   5.342   6.171 -0.1126 -0.1571 -0.6767
  730MOL0     C96270   8.393   5.369   6.293 -0.4767 -0.9677  0.2481
  730MOL0     C96271   8.278   5.264   6.324  0.4305 -0.2321 -0.7272
  730MOL0    Cl96272   8.205   5.195   6.176  0.0737 -0.3424  0.1715
  730MOL0     C96273   9.298   5.576   5.833  0.0356  0.1240  0.1550
  730MOL0     C96274   9.418   5.621   5.765  0.4147 -0.5947  0.3351
  730MOL0     O96275   9.491   5.901   5.454 -0.1966 -0.2237  0.3505
  730MOL0     C96276   9.754   5.954   5.418 -0.6807  0.1952  0.1407
  730MOL0     C96277   9.893   5.989   5.417  0.8077  0.8067 -0.5704
  730MOL0     N96278  10.723   6.008   5.538 -0.7188  0.7786 -0.4979
  730MOL0     N96279  10.783   6.043   5.648 -0.2928  0.5121 -0.5917
  730MOL0     C96280  10.993   6.882   6.759 -0.4413 -0.9194  0.6904
  730MOL0     C96281  10.977   6.975   6.861  0.1129  0.5414 -0.5190
  730MOL0     C96282  10.762   7.296   7.120  0.8535  0.1261 -0.5140
  730MOL0     C96283  10.858   7.288   7.224 -0.1629 -0.3099  0.3743
  730MOL0     C96284  10.844   7.356   7.341  0.4695  0.0881  0.4193
  730MOL0     C96285  10.733   7.435   7.368  0.4172 -0.9162  0.4630
  730MOL0     O96286  10.740   7.507   7.486 -0.6437 -0.0630  0.2764
  730MOL0     C96287  10.677   7.638   7.500 -0.1043 -0.1193 -0.3146
  730MOL0     C96288  10.755   7.736   7.402 -0.0265 -0.4642 -0.9806
  730MOL0     C96289  10.738   7.891   7.450  0.2624  0.0323  0.1105
  730MOL0     C96290  10.785   8.001   7.353 -0.3241  0.1368  0.7659
  730MOL0     C96291  10.925   7.978   7.348 -0.9231  0.2728  0.4535
  730MOL0     C96292  11.045   7.952   7.346  0.1015  0.2240  0.4260
  730MOL0     C96293  10.641   7.455   7.268  0.4119 -0.4694  1.0932
  730MOL0     C96294  10.649   7.381   7.143 -0.6424  0.4063 -0.4571
  730MOL0     H96295  10.655   7.044   6.821 -0.8396 -0.2031 -1.0951
  730MOL0     H96296  10.683   6.916   6.622 -1.5768 -1.3531  0.7144
  730MOL0     H96297  10.815   6.828   6.408  1.5041  1.5190  1.7816
  730MOL0     H96298  10.731   6.706   6.509 -0.1948 -1.6473 -2.1232
  730MOL0     H96299  10.874   6.539   6.449 -0.5989 -0.4435  0.1758
  730MOL0     H96300  10.988   6.655   6.365 -0.1800 -1.9746 -2.0948
  730MOL0     H96301  10.838   6.671   6.180 -0.9116 -0.4404  0.1386
  730MOL0     H96302  10.713   6.572   6.267 -0.8659 -1.4625  1.0433
  730MOL0     H96303  10.984   6.493   6.150  1.1547 -1.1615  2.5678
  730MOL0     H96304  10.912   6.394   6.277 -0.2260 -0.2422 -0.3553
  730MOL0     H96305  10.761   6.463   6.009 -0.7121  0.0966 -0.2561
  730MOL0     H96306  10.721   6.334   6.130 -1.6221 -1.4561 -3.5944
  730MOL0     H96307  10.957   6.233   6.087 -4.4367  3.1786  5.6456
  730MOL0     H96308  10.975   6.366   5.963 -0.1376  1.3682  2.1416
  730MOL0     H96309  10.949   6.185   5.848 -0.6190 -0.2172 -0.5337
  730MOL0     H96310  10.823   6.100   5.959  0.1789 -0.0777  1.0557
  730MOL0     H96311  10.736   6.338   5.792  0.8943  0.1008 -0.6218
  730MOL0     H96312  10.647   6.238   5.874  0.5793  2.4892  0.4747
  730MOL0     H96313  10.539   6.263   5.616 -1.4499 -2.9105 -0.6896
  730MOL0     H96314  10.566   6.065   5.316 -0.6261  2.3911 -0.7735
  730MOL0     H96315  10.488   6.194   5.395  0.3667  0.0340 -1.8721
  730MOL0     H96316  10.339   6.059   5.543  2.3978  0.1847  1.2718
  730MOL0     H96317  10.437   5.917   5.512 -2.4926 -1.8962 -0.7964
  730MOL0     H96318  10.256   6.058   5.323  0.1261  0.2423  1.2521
  730MOL0     H96319  10.337   5.910   5.270  0.2100 -0.0201  0.3654
  730MOL0     H96320  10.228   5.789   5.459 -2.0435 -0.6452  0.4827
  730MOL0     H96321  10.131   5.830   5.319  2.5442  1.3546 -2.3100
  730MOL0     H96322  10.014   5.746   5.617  2.1905 -3.2676 -5.4213
  730MOL0     H96323   9.780   5.671   5.605 -2.3773  1.3913  0.0430
  730MOL0     H96324   9.301   5.721   5.472  1.1031  1.8890  0.5375
  730MOL0     H96325   9.070   5.682   5.599  0.1178  0.4818 -0.4572
  730MOL0     H96326   9.089   5.453   5.973 -1.4933 -1.5691  0.7666
  730MOL0     H96327   9.088   5.376   5.807  0.4381  0.4370  0.8836
  730MOL0     H96328   8.904   5.291   5.884 -0.4800 -0.3726  0.2685
  730MOL0     H96329   8.837   5.439   5.794 -2.9029  0.3396  1.8240
  730MOL0     H96330   8.825   5.552   6.008  2.4829  1.2748  2.1955
  730MOL0     H96331   8.903   5.417   6.095 -2.1355 -2.4682  0.2005
  730MOL0     H96332   8.642   5.404   5.933  1.0551  1.4813  0.1254
  730MOL0     H96333   8.693   5.273   6.037 -0.1516 -0.9754  1.0039
  730MOL0     H96334   8.569   5.534   6.115 -2.9846  0.2274  1.5117
  730MOL0     H96335   8.666   5.440   6.234 -0.0677 -2.1351 -0.3334
  730MOL0     H96336   8.518   5.238   6.162 -1.4348 -0.8840  1.6426
  730MOL0     H96337   8.416   5.353   6.085  1.1683 -0.4083 -1.7449
  730MOL0     H96338   8.449   5.384   6.386 -2.0234  2.0175  0.8346
  730MOL0     H96339   8.349   5.463   6.259  0.5145 -1.9276 -4.3446
  730MOL0     H96340   8.196   5.312   6.377 -0.5598  0.7924 -3.0283
  730MOL0     H96341   8.326   5.189   6.387  0.9141  2.6203  2.5826
  730MOL0     H96342   9.325   5.514   5.917  1.5421  1.6386  0.8472
  730MOL0     H96343   9.514   5.592   5.806  2.2196  0.4548 -2.8250
  730MOL0     H96344   9.690   6.021   5.361  2.1977  0.5369 -2.9887
  730MOL0     H96345   9.912   6.069   5.347 -1.3978 -0.0230 -2.2210
  730MOL0     H96346  11.093   6.840   6.756  0.2138  0.4844  1.8215
  730MOL0     H96347  11.058   6.987   6.932 -0.8492 -0.0305  0.7168
  730MOL0     H96348  10.947   7.232   7.197 -0.1016 -0.4289  0.8174
  730MOL0     H96349  10.908   7.354   7.429 -1.6201 -1.4114  2.0284
  730MOL0     H96350  10.697   7.680   7.600  0.6262 -0.2574 -0.3971
  730MOL0     H96351  10.570   7.638   7.477  0.3213  0.7512 -2.5461
  730MOL0     H96352  10.856   7.696   7.396  0.1958 -0.4638  1.5924
  730MOL0     H96353  10.712   7.724   7.302  3.4357  1.4142 -2.9014
  730MOL0     H96354  10.790   7.918   7.542  0.5703 -1.6319  0.4572
  730MOL0     H96355  10.631   7.910   7.458  0.0835  0.4111 -2.3260
  730MOL0     H96356  10.742   7.990   7.253 -1.0169 -2.7258  1.3052
  730MOL0     H96357  10.761   8.096   7.402 -3.2360  2.9864 -5.1403
  730MOL0     H96358  11.152   7.949   7.350  0.0356 -1.3825  1.9091
  730MOL0     H96359  10.563   7.530   7.271  0.3878 -0.0373 -3.3845
  730MOL0     H96360  10.563   7.374   7.078 -0.6418  0.1244 -0.4336
  731MOL0     O96361  11.197  11.024   6.096 -0.1429  0.3663 -0.1000
  731MOL0     C96362  11.085  10.984   6.130  0.3430 -0.6241 -0.4002
  731MOL0     O96363  10.971  11.056   6.140 -0.0861  0.2944  0.3039
  731MOL0     C96364  10.968  11.182   6.090 -0.0445 -1.0397  0.1301
  731MOL0     C96365  11.036  11.235   5.978  0.8038 -0.2359 -0.2211
  731MOL0     C96366  11.020  11.374   5.940 -0.0607  0.2791  0.1583
  731MOL0     C96367  10.918  11.448   6.003 -0.9566  0.6625 -0.0238
  731MOL0     O96368  10.881  11.573   5.964 -0.3454  0.0060  0.1223
  731MOL0     C96369  10.979  11.667   5.931  0.1572  0.6653 -0.4310
  731MOL0     C96370  10.943  11.814   5.957  0.6000 -0.5543  0.2301
  731MOL0     C96371  10.862  11.886   5.839  0.2376  0.1176  0.4686
  731MOL0     C96372  10.735  11.801   5.815  1.3728  0.1712  0.5785
  731MOL0     C96373  10.644  11.881   5.720 -0.1751  0.3974  0.4116
  731MOL0     C96374  10.555  11.794   5.628  0.6759  0.0969 -0.9663
  731MOL0     C96375  10.479  11.878   5.520 -1.3235  0.3243  0.0118
  731MOL0     C96376  10.554  11.869   5.392 -0.4465  0.4952 -0.8544
  731MOL0     N96377  10.552  11.735   5.330  0.1740 -0.3794  0.3150
  731MOL0     C96378  10.657  11.645   5.320 -0.3649  0.3621 -0.0702
  731MOL0     C96379  10.603  11.561   5.229 -0.0552 -0.5450 -0.3281
  731MOL0     C96380  10.673  11.452   5.164  0.0432 -0.1841  0.4871
  731MOL0     C96381  10.716  11.481   5.017 -0.1965 -0.1881 -0.7262
  731MOL0     C96382  10.755  11.339   4.959 -0.6265 -0.0212  0.0117
  731MOL0     C96383  10.899  11.286   4.966  0.2121  0.5210  0.1832
  731MOL0     O96384  10.976  11.379   4.892  0.3776  0.0722  0.3218
  731MOL0     C96385  11.106  11.340   4.855 -0.3377 -0.2933  0.5990
  731MOL0     C96386  11.179  11.224   4.887  0.2371  0.1204  0.0115
  731MOL0     C96387  11.313  11.200   4.834  0.2422 -0.6716  0.3698
  731MOL0     C96388  11.372  11.298   4.751  0.6529  0.1855 -0.0048
  731MOL0     C96389  11.500  11.280   4.680  0.5993 -0.2956  0.3590
  731MOL0     O96390  11.548  11.385   4.599  0.0141 -0.3592 -0.1669
  731MOL0     C96391  11.653  11.367   4.521 -0.0160  0.4034  0.5326
  731MOL0     C96392  11.643  11.439   4.402 -0.4988 -0.2097 -0.0926
  731MOL0     C96393  11.755  11.434   4.307  0.1090 -0.2584  0.5031
  731MOL0     C96394  11.873  11.371   4.338 -0.4331 -0.3803  0.1505
  731MOL0     O96395  11.979  11.380   4.253 -1.2107 -0.2658  0.1704
  731MOL0     C96396  12.033  11.513   4.251  0.2545  0.4776  0.4138
  731MOL0     C96397  12.152  11.517   4.160 -0.2624 -0.3995  0.7877
  731MOL0     C96398  12.104  11.540   4.010  0.6408  0.1428 -0.5665
  731MOL0     C96399  12.220  11.593   3.924 -0.0990  0.6233 -0.1381
  731MOL0     C96400  12.223  11.749   3.910  0.7843  0.5302 -0.4291
  731MOL0     C96401  12.114  11.803   3.813 -0.3717  0.9262  0.1647
  731MOL0     C96402  12.143  11.774   3.667  1.2891  0.7088  0.2291
  731MOL0     C96403  12.024  11.816   3.577 -0.5058 -0.8138 -0.2622
  731MOL0    Cl96404  12.034  11.995   3.571 -0.3643  0.8774  0.4463
  731MOL0     C96405  11.887  11.317   4.465  0.7359 -0.3831  0.0117
  731MOL0     C96406  11.780  11.310   4.558  1.2358 -0.3495 -0.3080
  731MOL0     O96407  11.567  11.178   4.710  0.9195 -0.3993 -0.0333
  731MOL0     C96408  11.303  11.424   4.729  0.0079  0.5170  0.8202
  731MOL0     C96409  11.173  11.438   4.784  0.3254 -0.0245  0.0364
  731MOL0     N96410  10.470  11.595   5.196 -0.4420  0.3095 -0.5205
  731MOL0     N96411  10.444  11.703   5.254  0.1882  0.1463 -0.1443
  731MOL0     C96412  10.864  11.401   6.114  0.3808 -0.2352 -0.6892
  731MOL0     C96413  10.885  11.273   6.158  0.3761 -0.8939 -0.1714
  731MOL0     C96414  11.073  10.839   6.153 -0.1569  0.3944  0.1544
  731MOL0     C96415  11.173  10.740   6.121  1.0317  0.3708 -0.1245
  731MOL0     C96416  11.160  10.609   6.169  0.9957  0.4695  0.6162
  731MOL0     C96417  11.041  10.559   6.233 -0.0817  0.3127  0.0995
  731MOL0     O96418  11.022  10.423   6.264  0.3768 -0.5235  0.4556
  731MOL0     C96419  11.133  10.340   6.272  0.5330 -0.4876 -0.3707
  731MOL0     C96420  11.152  10.281   6.137  0.0840  0.0410  0.1266
  731MOL0     C96421  11.029  10.213   6.082 -0.9533 -0.3123 -0.5875
  731MOL0     C96422  11.047  10.176   5.936 -0.2253  0.0783  0.1301
  731MOL0     C96423  11.169  10.115   5.889 -0.0059 -0.3603 -1.1859
  731MOL0     C96424  11.269  10.055   5.849 -0.5160  0.6696  0.6201
  731MOL0     C96425  10.948  10.653   6.257  0.7762  0.1494  0.5885
  731MOL0     C96426  10.959  10.789   6.219  0.5756  0.4433 -0.3011
  731MOL0     H96427  11.112  11.175   5.929 -0.3586 -0.4298 -1.8396
  731MOL0     H96428  11.064  11.402   5.844 -0.4628  0.5926  0.0634
  731MOL0     H96429  11.009  11.654   5.826 -2.6010  2.0099 -1.4754
  731MOL0     H96430  11.069  11.647   5.989  0.2333  2.3661  0.0889
  731MOL0     H96431  11.037  11.870   5.964  0.2246  0.2801 -1.1555
  731MOL0     H96432  10.892  11.835   6.051 -0.0776 -0.0906 -0.2287
  731MOL0     H96433  10.925  11.904   5.751  1.8676 -0.4015  1.4865
  731MOL0     H96434  10.829  11.985   5.872  0.1250  0.3121 -0.2173
  731MOL0     H96435  10.755  11.707   5.763 -0.1121  0.6096 -0.8507
  731MOL0     H96436  10.686  11.782   5.911 -0.4083  1.7496  0.0401
  731MOL0     H96437  10.714  11.933   5.653 -0.8200  0.9929  0.1884
  731MOL0     H96438  10.586  11.955   5.776  0.0903  0.6358  0.3732
  731MOL0     H96439  10.475  11.749   5.687  0.1916  3.7925  1.5301
  731MOL0     H96440  10.624  11.715   5.595 -2.3733 -2.7672 -1.0488
  731MOL0     H96441  10.373  11.860   5.496 -0.4764 -1.6890 -2.6664
  731MOL0     H96442  10.486  11.983   5.549  1.9864  0.8016 -2.0483
  731MOL0     H96443  10.659  11.898   5.408 -1.0850  1.9857  0.8668
  731MOL0     H96444  10.501  11.934   5.321 -2.8059 -1.4365 -0.9894
  731MOL0     H96445  10.759  11.650   5.356 -0.3449 -1.5361  0.2054
  731MOL0     H96446  10.605  11.367   5.151  1.7487 -1.9579  2.3941
  731MOL0     H96447  10.762  11.414   5.216  1.5831  0.7421 -1.3695
  731MOL0     H96448  10.800  11.551   5.017  0.6697 -1.1364 -3.0526
  731MOL0     H96449  10.638  11.528   4.955  1.1921 -0.9336 -3.1479
  731MOL0     H96450  10.687  11.261   4.995 -2.1879 -0.0539 -2.7228
  731MOL0     H96451  10.728  11.346   4.853 -0.8744 -0.6281  0.0299
  731MOL0     H96452  10.902  11.185   4.925 -0.3561  0.7253 -0.3740
  731MOL0     H96453  10.951  11.284   5.062  1.6423  0.9056 -0.5532
  731MOL0     H96454  11.139  11.164   4.968  0.8907  2.8713  2.5493
  731MOL0     H96455  11.357  11.108   4.872 -0.9630 -1.0318  0.9324
  731MOL0     H96456  11.554  11.495   4.376 -2.3952 -2.8848  0.2571
  731MOL0     H96457  11.740  11.490   4.216 -0.6254  0.1250  0.8487
  731MOL0     H96458  12.073  11.541   4.349  0.0353 -0.3038  0.7379
  731MOL0     H96459  11.952  11.577   4.214 -2.2943 -3.0705 -0.7852
  731MOL0     H96460  12.220  11.434   4.182 -0.9582 -1.0313  0.5851
  731MOL0     H96461  12.212  11.604   4.186 -1.1153 -0.1935  2.1671
  731MOL0     H96462  12.029  11.620   4.016 -2.5857 -2.5485 -1.9932
  731MOL0     H96463  12.074  11.443   3.969 -0.1095 -0.2899  0.9397
  731MOL0     H96464  12.321  11.568   3.958  0.6681  0.9717 -2.0519
  731MOL0     H96465  12.218  11.541   3.828  0.6829  2.3454 -1.1335
  731MOL0     H96466  12.320  11.769   3.862  1.0259 -1.9805 -1.1481
  731MOL0     H96467  12.199  11.792   4.008 -1.5276  0.0063 -0.7077
  731MOL0     H96468  12.116  11.912   3.822  2.0579  0.9726 -0.3789
  731MOL0     H96469  12.019  11.762   3.850  0.0013 -0.2660 -0.1720
  731MOL0     H96470  12.235  11.820   3.630 -0.3433 -0.1455 -6.0656
  731MOL0     H96471  12.149  11.665   3.670  2.2771  0.7811  2.5910
  731MOL0     H96472  11.932  11.775   3.621 -1.1693 -0.0910 -0.9467
  731MOL0     H96473  12.032  11.767   3.480  2.1725 -1.3834  0.1670
  731MOL0     H96474  11.990  11.289   4.485  0.5207 -3.4958 -2.4169
  731MOL0     H96475  11.812  11.264   4.651  0.3078  2.8767  1.7699
  731MOL0     H96476  11.354  11.506   4.680  0.7405  0.7186  1.8934
  731MOL0     H96477  11.119  11.531   4.771 -0.7228 -0.3689  1.7237
  731MOL0     H96478  10.793  11.459   6.172 -0.7202  0.7000 -2.8978
  731MOL0     H96479  10.834  11.236   6.247 -1.4524  2.7777  0.5209
  731MOL0     H96480  11.266  10.787   6.089  1.7059 -1.5231 -1.0641
  731MOL0     H96481  11.247  10.548   6.146  0.3178 -0.8286  1.3951
  731MOL0     H96482  11.095  10.273   6.350 -0.4008  1.8317  1.2994
  731MOL0     H96483  11.228  10.384   6.302  0.5421 -1.9721  2.0932
  731MOL0     H96484  11.178  10.364   6.070 -0.0543  1.4716  1.7898
  731MOL0     H96485  11.231  10.207   6.144 -1.6503 -1.9406 -0.1700
  731MOL0     H96486  10.941  10.278   6.079 -1.5658 -1.1388 -0.8154
  731MOL0     H96487  11.011  10.118   6.133 -0.2826 -0.8301 -1.2844
  731MOL0     H96488  10.959  10.117   5.908 -1.3310  1.9141 -0.4569
  731MOL0     H96489  11.038  10.265   5.873  0.5578 -1.7444 -2.8046
  731MOL0     H96490  11.365  10.023   5.814 -1.4776 -0.3822 -1.2308
  731MOL0     H96491  10.847  10.636   6.291 -0.1097  0.0019 -1.9105
  731MOL0     H96492  10.880  10.859   6.246  2.0534  2.2647 -0.5570
  732MOL0     O96493   8.624   2.621   9.596  0.2084  0.3895 -0.4315
  732MOL0     C96494   8.612   2.696   9.698 -0.7017  0.0024  1.0295
  732MOL0     O96495   8.586   2.828   9.697  0.5983 -0.1381  0.6540
  732MOL0     C96496   8.534   2.886   9.581  0.1949 -0.0569 -0.8217
  732MOL0     C96497   8.400   2.885   9.535 -0.9743 -0.2275  0.6087
  732MOL0     C96498   8.359   2.965   9.423 -0.3471  0.0504  0.1903
  732MOL0     C96499   8.452   3.049   9.366  0.1560 -0.4511 -0.3498
  732MOL0     O96500   8.418   3.139   9.269 -0.0658 -0.2781  0.1898
  732MOL0     C96501   8.412   3.283   9.302  0.1590  1.0408 -0.0702
  732MOL0     C96502   8.264   3.321   9.287  0.3798 -0.5179 -0.2149
  732MOL0     C96503   8.249   3.473   9.292  0.6549  0.4147  0.4711
  732MOL0     C96504   8.101   3.504   9.244  0.3103 -0.1965 -0.1932
  732MOL0     C96505   8.077   3.649   9.254 -0.3919 -1.1347  0.3235
  732MOL0     C96506   7.941   3.697   9.208  0.5067  0.1176 -0.5658
  732MOL0     C96507   7.885   3.667   9.063  0.4754  0.3307 -0.5038
  732MOL0     C96508   7.938   3.741   8.945 -0.5532 -1.1211  0.5747
  732MOL0     N96509   7.887   3.879   8.933  0.3052 -0.2698 -0.1395
  732MOL0     C96510   7.769   3.919   8.875  0.3090  0.4233  0.3417
  732MOL0     C96511   7.754   4.049   8.901 -0.2375 -0.9015 -0.6833
  732MOL0     C96512   7.632   4.122   8.871 -0.0476 -0.3079 -0.9314
  732MOL0     C96513   7.582   4.195   9.002 -0.1324  0.8667 -0.5041
  732MOL0     C96514   7.523   4.091   9.097 -0.9432  0.0361 -0.6793
  732MOL0     C96515   7.557   4.120   9.242 -0.3594 -0.6666  0.5129
  732MOL0     O96516   7.545   4.254   9.286  0.4255 -0.1878 -0.1989
  732MOL0     C96517   7.417   4.315   9.258 -0.2694 -0.5308  0.2080
  732MOL0     C96518   7.292   4.252   9.273 -1.7170  0.2434  0.1539
  732MOL0     C96519   7.180   4.335   9.254  0.1393 -0.7819 -0.3902
  732MOL0     C96520   7.191   4.478   9.230 -0.1110  0.2214  0.2148
  732MOL0     C96521   7.072   4.550   9.220  0.7559 -1.1311 -0.4284
  732MOL0     O96522   7.072   4.661   9.143 -1.1440 -0.0518  0.2908
  732MOL0     C96523   6.980   4.759   9.154  0.1432  0.0473 -0.1549
  732MOL0     C96524   6.925   4.785   9.277  0.6522 -0.0855  0.8831
  732MOL0     C96525   6.820   4.877   9.295 -1.6106 -0.1403 -0.4904
  732MOL0     C96526   6.776   4.951   9.184  0.7106  0.2770  0.5902
  732MOL0     O96527   6.682   5.052   9.197  0.5299  0.5078 -0.0086
  732MOL0     C96528   6.628   5.122   9.074  0.4449  0.5206 -0.7315
  732MOL0     C96529   6.496   5.187   9.108 -0.1808  0.3850 -0.4020
  732MOL0     C96530   6.458   5.288   9.005 -0.4030  0.5242  0.7129
  732MOL0     C96531   6.336   5.368   9.054  1.1523 -0.1851 -0.0147
  732MOL0     C96532   6.320   5.495   8.972  0.0665  0.3847  0.2609
  732MOL0     C96533   6.213   5.587   9.034 -0.9194 -0.0535  0.0775
  732MOL0     C96534   6.238   5.743   8.990  0.5276  0.3359  0.2366
  732MOL0     C96535   6.094   5.805   8.984 -0.1718  0.4251 -0.1703
  732MOL0    Cl96536   6.008   5.799   9.150 -0.4840  0.0350  0.1997
  732MOL0     C96537   6.829   4.915   9.052  0.3970  0.3156 -0.3232
  732MOL0     C96538   6.925   4.814   9.044  0.0978 -0.6263  0.6159
  732MOL0     O96539   6.977   4.511   9.288  0.4740 -0.0815  0.0898
  732MOL0     C96540   7.314   4.539   9.220 -0.7055  0.6981  0.9861
  732MOL0     C96541   7.426   4.454   9.234  0.7920  0.6381 -0.1450
  732MOL0     N96542   7.867   4.085   8.973 -0.1995  0.3054 -0.5627
  732MOL0     N96543   7.950   3.984   8.989 -0.3328 -0.1370  0.5959
  732MOL0     C96544   8.581   3.057   9.414 -0.3209 -0.1415  0.3445
  732MOL0     C96545   8.625   2.973   9.514 -0.3852 -0.2392  0.2304
  732MOL0     C96546   8.672   2.639   9.823 -0.7199 -0.8960 -0.4282
  732MOL0     C96547   8.723   2.512   9.831  0.4772  0.7570  0.5219
  732MOL0     C96548   8.798   2.463   9.937  0.6354  0.0055  0.3007
  732MOL0     C96549   8.806   2.534  10.056 -1.3355 -0.3825 -0.7542
  732MOL0     O96550   8.870   2.500  10.164 -0.4002  1.1971 -0.2077
  732MOL0     C96551   8.820   2.384  10.226 -0.1787  0.3173  0.4134
  732MOL0     C96552   8.855   2.388  10.375  0.2351 -0.4407  0.1870
  732MOL0     C96553   9.003   2.426  10.408 -0.0498 -0.0909 -0.9958
  732MOL0     C96554   9.035   2.489  10.551  1.3999 -0.3623 -0.4267
  732MOL0     C96555   9.183   2.498  10.569 -0.0018 -0.0323 -0.1408
  732MOL0     C96556   9.311   2.516  10.590  0.8313  1.0045  0.5756
  732MOL0     C96557   8.739   2.659  10.058 -1.2453  0.1268 -0.1931
  732MOL0     C96558   8.688   2.719   9.941  0.6857  0.0638  0.3508
  732MOL0     H96559   8.326   2.829   9.592 -1.3827  2.3437  2.8271
  732MOL0     H96560   8.262   2.970   9.375 -1.8827  2.1249  3.1443
  732MOL0     H96561   8.473   3.331   9.225 -1.2447  0.1971 -1.7848
  732MOL0     H96562   8.447   3.314   9.400 -1.5349  4.3878 -0.3913
  732MOL0     H96563   8.202   3.285   9.370  0.4810 -2.5145 -0.9469
  732MOL0     H96564   8.228   3.279   9.193  2.6374 -0.4190 -1.1973
  732MOL0     H96565   8.320   3.532   9.234  1.5282 -1.8454 -0.8327
  732MOL0     H96566   8.251   3.507   9.397 -3.1850  0.1830  0.7735
  732MOL0     H96567   8.086   3.459   9.146  0.5185  0.9689 -0.7723
  732MOL0     H96568   8.031   3.455   9.314 -1.4196  2.9762  0.4816
  732MOL0     H96569   8.153   3.690   9.187 -0.6050  2.0167  1.8613
  732MOL0     H96570   8.110   3.693   9.349  2.6833 -1.4789 -0.4762
  732MOL0     H96571   7.942   3.806   9.219  2.6266  0.1676 -0.8529
  732MOL0     H96572   7.878   3.661   9.290  0.5303 -1.1999 -1.1149
  732MOL0     H96573   7.902   3.564   9.032  1.8903  0.0959  0.9071
  732MOL0     H96574   7.776   3.670   9.075  0.5580 -2.5066  2.2347
  732MOL0     H96575   7.925   3.690   8.849  0.6160  1.0285 -0.8124
  732MOL0     H96576   8.046   3.744   8.959 -0.3319  0.1531 -1.0264
  732MOL0     H96577   7.702   3.856   8.818  0.9018 -0.0385  0.1490
  732MOL0     H96578   7.555   4.067   8.815  1.5266 -1.2823 -2.2482
  732MOL0     H96579   7.646   4.199   8.795  1.7405 -0.0742 -0.4157
  732MOL0     H96580   7.509   4.274   8.987  0.1875  1.3000  0.1347
  732MOL0     H96581   7.668   4.252   9.039 -0.2968  0.0438  1.2478
  732MOL0     H96582   7.415   4.084   9.088 -1.3303  4.1969 -1.2394
  732MOL0     H96583   7.567   3.996   9.066  0.6821  0.9573 -1.3442
  732MOL0     H96584   7.661   4.094   9.263 -0.6797 -1.1759  1.5064
  732MOL0     H96585   7.496   4.063   9.312 -3.2610  1.9489  0.3138
  732MOL0     H96586   7.278   4.145   9.281 -4.1448  0.1145 -3.5653
  732MOL0     H96587   7.084   4.286   9.245  0.3436 -1.2084 -0.3057
  732MOL0     H96588   6.970   4.740   9.365 -1.2383 -1.0059  1.4165
  732MOL0     H96589   6.756   4.893   9.381 -1.7603  0.2804 -0.6805
  732MOL0     H96590   6.608   5.056   8.989  0.4584  1.9048 -1.8409
  732MOL0     H96591   6.704   5.196   9.048  0.3824  1.9285  2.5974
  732MOL0     H96592   6.514   5.243   9.200  2.3068 -2.9186  1.3306
  732MOL0     H96593   6.421   5.108   9.116 -0.4335  0.7414  1.1217
  732MOL0     H96594   6.432   5.238   8.911  1.9487 -0.5150  0.5383
  732MOL0     H96595   6.530   5.369   8.992 -0.4823  0.8848  2.3449
  732MOL0     H96596   6.243   5.310   9.056 -0.7487  2.6947  0.4863
  732MOL0     H96597   6.350   5.412   9.153 -2.5160  1.7715 -0.1895
  732MOL0     H96598   6.288   5.459   8.874  0.2940  1.5193 -0.2396
  732MOL0     H96599   6.417   5.543   8.958  1.9079 -2.7220  1.2694
  732MOL0     H96600   6.219   5.596   9.143 -1.9113  2.0536  0.0075
  732MOL0     H96601   6.111   5.550   9.017 -1.1762  0.6405  0.0929
  732MOL0     H96602   6.303   5.800   9.057 -0.2394  3.4049 -1.4396
  732MOL0     H96603   6.289   5.751   8.894 -1.7770 -0.4060 -1.1309
  732MOL0     H96604   6.032   5.763   8.904 -0.6061  0.1144  0.3262
  732MOL0     H96605   6.105   5.910   8.955 -0.5681  0.6681  0.5374
  732MOL0     H96606   6.795   4.961   8.960  0.1116  0.5129 -0.1235
  732MOL0     H96607   6.974   4.795   8.949 -2.4632  1.6217 -1.2622
  732MOL0     H96608   7.333   4.644   9.201  2.2646  0.0735 -0.0987
  732MOL0     H96609   7.525   4.496   9.222  0.8938  0.2623 -0.6286
  732MOL0     H96610   8.642   3.137   9.374 -1.7088  0.8087  0.0792
  732MOL0     H96611   8.723   2.995   9.554 -0.0934  2.5121 -1.7151
  732MOL0     H96612   8.714   2.448   9.744  2.9066 -1.1435  1.5405
  732MOL0     H96613   8.851   2.368   9.928 -2.5928 -1.7634 -1.6688
  732MOL0     H96614   8.870   2.297  10.181 -0.1153 -0.1883  1.4273
  732MOL0     H96615   8.712   2.373  10.210 -0.0225  0.1521 -0.6277
  732MOL0     H96616   8.786   2.456  10.425  2.0606 -0.8351  3.5407
  732MOL0     H96617   8.833   2.291  10.422 -2.5437 -1.7499 -3.3363
  732MOL0     H96618   9.036   2.493  10.328 -0.5464  2.1933  0.6292
  732MOL0     H96619   9.063   2.335  10.397 -1.7654 -1.5109  0.6577
  732MOL0     H96620   8.982   2.585  10.551  0.1543 -1.0144 -0.9258
  732MOL0     H96621   8.990   2.419  10.623  2.0513 -0.4516 -0.1021
  732MOL0     H96622   9.415   2.539  10.603  1.0110 -0.0437  1.0765
  732MOL0     H96623   8.727   2.708  10.154 -3.2444 -0.9075  0.1468
  732MOL0     H96624   8.650   2.821   9.942 -1.2176 -0.6123  0.4570
  733MOL0     O96625   9.824   0.347   5.272 -0.2431  1.2509 -0.2246
  733MOL0     C96626   9.930   0.334   5.206  0.2994 -0.0843 -0.1678
  733MOL0     O96627  10.002   0.432   5.152  0.6707 -0.0458  0.0218
  733MOL0     C96628   9.938   0.544   5.126 -1.2525 -0.2135 -0.3069
  733MOL0     C96629  10.030   0.647   5.123  0.4243  0.2264  1.1481
  733MOL0     C96630   9.988   0.775   5.087  0.0564 -0.4583 -0.3030
  733MOL0     C96631   9.849   0.805   5.072 -0.4996 -0.0296  0.0127
  733MOL0     O96632   9.820   0.943   5.039  0.1012  0.3015 -0.0543
  733MOL0     C96633   9.683   0.980   5.045 -0.2938  0.7201 -0.5211
  733MOL0     C96634   9.670   1.127   5.014  0.3143  0.3788  1.3016
  733MOL0     C96635   9.529   1.180   5.024  1.0501  0.4190 -0.9155
  733MOL0     C96636   9.427   1.104   4.945  1.0343 -0.1643 -0.1250
  733MOL0     C96637   9.288   1.155   5.005 -0.0812  0.3998 -0.1824
  733MOL0     C96638   9.243   1.111   5.149  0.0804 -1.3630  0.3548
  733MOL0     C96639   9.091   1.084   5.138  0.0656  0.2348  0.3244
  733MOL0     C96640   9.047   1.071   5.291  0.2190  0.3926  0.7893
  733MOL0     N96641   8.902   1.044   5.299 -0.1471 -0.1983  0.1762
  733MOL0     C96642   8.828   0.955   5.222  0.5485 -1.2318 -0.0519
  733MOL0     C96643   8.711   0.939   5.291  0.9956 -0.4368 -0.6163
  733MOL0     C96644   8.602   0.827   5.259 -0.9216  0.2228  0.7948
  733MOL0     C96645   8.456   0.867   5.293  0.4118  0.2245 -0.0182
  733MOL0     C96646   8.372   0.730   5.283 -0.4281 -0.3997  0.0729
  733MOL0     C96647   8.223   0.725   5.334 -1.5110 -0.7377 -0.3860
  733MOL0     O96648   8.163   0.838   5.280 -0.4134  0.1346  0.6727
  733MOL0     C96649   8.033   0.863   5.306  0.5028  1.0593 -0.0034
  733MOL0     C96650   7.989   0.968   5.238 -0.7052 -0.5390 -0.5456
  733MOL0     C96651   7.845   1.002   5.247  0.2929 -0.3484 -0.5292
  733MOL0     C96652   7.759   0.937   5.332  1.0336  0.3362 -1.1683
  733MOL0     C96653   7.617   0.983   5.341 -0.9907 -0.3893 -0.4088
  733MOL0     O96654   7.573   1.087   5.262  0.5558 -0.1228  0.3696
  733MOL0     C96655   7.445   1.140   5.281 -0.5006 -0.8698  0.0219
  733MOL0     C96656   7.433   1.281   5.285 -0.0940  0.1262  0.4730
  733MOL0     C96657   7.311   1.345   5.289  0.1295  0.3622  0.9571
  733MOL0     C96658   7.193   1.272   5.278  0.0612 -0.6622  0.0292
  733MOL0     O96659   7.078   1.349   5.270 -0.0865 -0.4733  0.5805
  733MOL0     C96660   6.965   1.299   5.195  0.3226 -0.8741  0.2534
  733MOL0     C96661   6.862   1.414   5.179  0.0935 -0.2966  0.3886
  733MOL0     C96662   6.766   1.390   5.054  0.0908 -1.1173 -0.6579
  733MOL0     C96663   6.656   1.508   5.059  0.6392  0.4110 -0.6062
  733MOL0     C96664   6.570   1.498   4.931 -0.7143  0.4516  0.1456
  733MOL0     C96665   6.511   1.359   4.888 -0.3086 -0.1522  0.2883
  733MOL0     C96666   6.397   1.375   4.793 -0.1041 -0.0276  0.2179
  733MOL0     C96667   6.450   1.440   4.664  0.3125 -0.5970 -0.2077
  733MOL0    Cl96668   6.305   1.501   4.567 -0.4763 -0.3679  0.1760
  733MOL0     C96669   7.200   1.144   5.275 -0.7772 -0.1505  0.2402
  733MOL0     C96670   7.324   1.066   5.271 -0.5407  0.1327  0.0011
  733MOL0     O96671   7.556   0.932   5.433 -0.0361 -0.7117  0.4042
  733MOL0     C96672   7.806   0.826   5.400 -0.2911  0.0621  0.3837
  733MOL0     C96673   7.936   0.788   5.380 -0.5417  0.0246 -0.0054
  733MOL0     N96674   8.713   1.029   5.403  0.2442 -0.4466  0.8618
  733MOL0     N96675   8.824   1.088   5.403 -0.0876 -0.5998  0.0908
  733MOL0     C96676   9.754   0.699   5.070 -0.3547 -0.2877  0.7281
  733MOL0     C96677   9.801   0.573   5.100  0.5220 -0.4019  0.0339
  733MOL0     C96678   9.984   0.194   5.202 -0.3853 -0.5667 -0.0755
  733MOL0     C96679  10.127   0.176   5.183 -0.2165  0.3218  1.2970
  733MOL0     C96680  10.198   0.056   5.190  0.0638 -0.7174  0.2133
  733MOL0     C96681  10.124  -0.061   5.211  0.1256  1.0518  0.1233
  733MOL0     O96682  10.179  -0.184   5.231 -0.2030  0.4511  0.5581
  733MOL0     C96683  10.323  -0.206   5.199 -0.7811 -0.3345 -0.3161
  733MOL0     C96684  10.360  -0.231   5.047 -1.0677 -0.2447  0.1872
  733MOL0     C96685  10.244  -0.298   4.963  0.2243  0.1205 -0.3797
  733MOL0     C96686  10.211  -0.215   4.836  0.3883 -0.9161 -0.1181
  733MOL0     C96687  10.075  -0.188   4.848  0.5053 -0.3889 -0.1922
  733MOL0     C96688   9.965  -0.143   4.876 -0.4031 -0.3055 -0.3463
  733MOL0     C96689   9.987  -0.048   5.234  1.1502  0.3334 -0.0176
  733MOL0     C96690   9.916   0.074   5.232 -0.6286  0.3800 -0.6658
  733MOL0     H96691  10.138   0.633   5.131  0.6610 -2.2859 -3.1094
  733MOL0     H96692  10.060   0.853   5.068  1.3522 -1.3509  0.7158
  733MOL0     H96693   9.643   0.962   5.145  3.6288  0.0382  1.1416
  733MOL0     H96694   9.619   0.941   4.966  0.7832  1.3490 -1.7478
  733MOL0     H96695   9.702   1.145   4.911 -1.1482  0.0055  0.7545
  733MOL0     H96696   9.743   1.183   5.074 -1.4220  5.3101 -0.6880
  733MOL0     H96697   9.535   1.284   4.990  0.1899  0.5812 -0.5842
  733MOL0     H96698   9.505   1.172   5.130  0.3688  0.0234 -1.0934
  733MOL0     H96699   9.447   1.126   4.840  1.7598 -0.8462 -0.1391
  733MOL0     H96700   9.434   0.998   4.972  0.8873  0.7113  4.0187
  733MOL0     H96701   9.210   1.130   4.932  0.2737  0.3132 -0.5316
  733MOL0     H96702   9.284   1.265   5.010 -1.9690  0.3304  2.9297
  733MOL0     H96703   9.249   1.199   5.213 -1.3695 -0.7528 -0.3198
  733MOL0     H96704   9.307   1.034   5.193  1.6670 -2.6465 -3.7171
  733MOL0     H96705   9.045   1.170   5.090 -2.0856 -2.2353 -2.4463
  733MOL0     H96706   9.066   0.997   5.076  3.9282 -0.3202 -0.7072
  733MOL0     H96707   9.072   1.166   5.337  2.1764  0.9983 -1.3813
  733MOL0     H96708   9.113   0.999   5.339  0.1355  0.9435  1.7440
  733MOL0     H96709   8.842   0.902   5.129 -2.1586 -1.7887 -0.2191
  733MOL0     H96710   8.630   0.744   5.323  2.2313 -0.4422 -1.2396
  733MOL0     H96711   8.623   0.791   5.158  0.8959 -0.6410  1.4384
  733MOL0     H96712   8.427   0.936   5.213 -0.3647  1.5382  1.3497
  733MOL0     H96713   8.435   0.927   5.382 -2.7378 -1.3317  0.4015
  733MOL0     H96714   8.378   0.708   5.177  1.6993  1.1203 -0.1838
  733MOL0     H96715   8.421   0.654   5.345 -0.9565 -0.3674  0.5356
  733MOL0     H96716   8.213   0.717   5.443 -2.9371  2.9448 -0.0973
  733MOL0     H96717   8.177   0.638   5.286 -0.1068 -1.4164 -0.5403
  733MOL0     H96718   8.057   1.032   5.183  0.1411 -0.5825  0.4214
  733MOL0     H96719   7.801   1.085   5.193  1.8277  1.1071  0.3871
  733MOL0     H96720   7.527   1.334   5.270  0.1145  0.2512  2.0556
  733MOL0     H96721   7.306   1.453   5.283  2.1383  0.4638  0.4243
  733MOL0     H96722   6.907   1.216   5.237 -1.2061  0.5681  1.1362
  733MOL0     H96723   7.001   1.264   5.098 -0.9604  0.7466 -0.8619
  733MOL0     H96724   6.911   1.510   5.158 -1.2850  0.6018  1.0837
  733MOL0     H96725   6.811   1.432   5.274 -2.3614 -0.7854 -0.7444
  733MOL0     H96726   6.708   1.297   5.053 -0.5583 -0.7280 -2.4006
  733MOL0     H96727   6.817   1.400   4.958  0.7581  2.1617 -0.0802
  733MOL0     H96728   6.588   1.505   5.145 -0.3650 -0.1355 -1.4029
  733MOL0     H96729   6.708   1.603   5.074 -1.9998  1.4863  3.2502
  733MOL0     H96730   6.644   1.519   4.853  2.6964 -1.1200  2.6883
  733MOL0     H96731   6.489   1.572   4.934 -1.2218 -0.1087  2.7387
  733MOL0     H96732   6.472   1.313   4.979 -1.6479  1.3454  0.5166
  733MOL0     H96733   6.591   1.297   4.847 -0.5318 -0.1566 -0.1483
  733MOL0     H96734   6.341   1.283   4.775  1.3895 -0.7718 -0.7950
  733MOL0     H96735   6.331   1.449   4.840 -1.0043 -2.6767  3.4975
  733MOL0     H96736   6.511   1.371   4.604  1.9130 -3.6065  4.3645
  733MOL0     H96737   6.514   1.527   4.683 -0.5175 -0.0302  0.0534
  733MOL0     H96738   7.104   1.093   5.275  0.2188 -2.2184 -1.8515
  733MOL0     H96739   7.318   0.958   5.260 -3.4112 -0.1325  2.7516
  733MOL0     H96740   7.739   0.774   5.467  0.5177 -0.8179  0.5304
  733MOL0     H96741   7.973   0.701   5.434  2.9032 -0.1617 -2.3069
  733MOL0     H96742   9.653   0.714   5.034 -0.5614 -4.7620 -1.1560
  733MOL0     H96743   9.727   0.494   5.098 -1.4308  1.2298  1.9137
  733MOL0     H96744  10.195   0.257   5.160 -2.2363  1.0064 -3.3647
  733MOL0     H96745  10.305   0.049   5.174  0.1530  2.2145 -0.9658
  733MOL0     H96746  10.371  -0.290   5.251  1.4346 -0.0227 -1.7236
  733MOL0     H96747  10.385  -0.124   5.234  1.7149 -1.5272 -1.7300
  733MOL0     H96748  10.378  -0.129   5.011 -1.9216 -0.5857 -1.2432
  733MOL0     H96749  10.458  -0.278   5.039 -0.4643  1.2621 -3.1198
  733MOL0     H96750  10.163  -0.316   5.035 -0.7361 -0.8430 -1.6711
  733MOL0     H96751  10.274  -0.399   4.934 -2.4060 -1.1270  0.9034
  733MOL0     H96752  10.259  -0.117   4.830  0.7011 -1.0517  0.1214
  733MOL0     H96753  10.239  -0.281   4.753 -2.2945 -3.7419  0.9986
  733MOL0     H96754   9.863  -0.115   4.896 -0.2483 -0.1126  0.2071
  733MOL0     H96755   9.942  -0.141   5.266 -0.2022  0.4197 -1.5767
  733MOL0     H96756   9.809   0.071   5.248 -1.1273  2.4817 -2.9560
  734MOL0     O96757   3.653   7.360   3.855 -0.2895  0.7839  0.9009
  734MOL0     C96758   3.686   7.475   3.878 -0.9473 -0.0337  0.4265
  734MOL0     O96759   3.816   7.520   3.884  0.0994 -0.6737  0.2801
  734MOL0     C96760   3.913   7.419   3.907 -0.1589  0.3567 -0.3570
  734MOL0     C96761   4.040   7.420   3.834  1.2778 -0.5273  0.1400
  734MOL0     C96762   4.138   7.325   3.856  0.7940 -0.6480 -1.0380
  734MOL0     C96763   4.122   7.244   3.970  0.2218  0.3829 -0.5141
  734MOL0     O96764   4.232   7.175   4.004  0.3066  0.1853 -0.2514
  734MOL0     C96765   4.232   7.042   3.966 -0.4731  0.0879  0.0444
  734MOL0     C96766   4.372   6.989   3.983  0.6295  0.2346 -0.3664
  734MOL0     C96767   4.478   7.074   3.910 -0.3924  0.4250 -0.1042
  734MOL0     C96768   4.621   7.007   3.926  0.9698 -0.2851 -0.3109
  734MOL0     C96769   4.729   7.107   3.880 -0.0574 -0.1853  0.6019
  734MOL0     C96770   4.855   7.077   3.958 -1.3774 -0.0952 -0.0600
  734MOL0     C96771   4.913   6.932   3.926  0.5884 -0.8064  0.5490
  734MOL0     C96772   5.010   6.896   4.037  0.6622 -0.6252 -0.5604
  734MOL0     N96773   5.092   6.782   4.009  0.7025 -0.6558  0.6917
  734MOL0     C96774   5.178   6.775   3.905  0.3997  0.0253  1.0197
  734MOL0     C96775   5.203   6.644   3.898  0.1137 -1.3122 -0.6841
  734MOL0     C96776   5.279   6.583   3.791 -0.4660  0.4660  0.3308
  734MOL0     C96777   5.427   6.597   3.791 -1.5331 -0.4346  0.7617
  734MOL0     C96778   5.484   6.518   3.669 -0.1665  0.1809 -0.3800
  734MOL0     C96779   5.416   6.538   3.525 -0.1896 -0.1167 -0.0998
  734MOL0     O96780   5.395   6.676   3.497 -0.4573  1.1887 -0.6321
  734MOL0     C96781   5.272   6.698   3.439  0.7379 -0.5619 -0.2194
  734MOL0     C96782   5.224   6.620   3.330  0.6977  0.8462  1.2629
  734MOL0     C96783   5.102   6.654   3.271 -0.0425  0.3464 -0.9595
  734MOL0     C96784   5.029   6.768   3.320  0.2538 -0.2481 -0.1809
  734MOL0     C96785   4.893   6.798   3.263  0.2460  0.4107 -0.3212
  734MOL0     O96786   4.824   6.696   3.202 -0.0540 -0.9552  0.5578
  734MOL0     C96787   4.696   6.730   3.162  0.0000 -0.4856  1.1314
  734MOL0     C96788   4.679   6.794   3.039  0.2393 -0.6588 -0.0411
  734MOL0     C96789   4.547   6.825   2.992 -0.9406 -0.8065 -0.2981
  734MOL0     C96790   4.430   6.797   3.065 -0.0751  0.4642 -0.9813
  734MOL0     O96791   4.312   6.849   3.019  0.2654 -0.0853 -0.3642
  734MOL0     C96792   4.204   6.853   3.123  0.0825 -1.0305  0.1038
  734MOL0     C96793   4.081   6.905   3.048 -0.3032  1.1764 -0.4628
  734MOL0     C96794   3.957   6.943   3.136 -0.7114  0.0052 -0.4646
  734MOL0     C96795   3.895   6.826   3.214 -0.4474  0.2921 -0.2045
  734MOL0     C96796   3.736   6.823   3.239 -0.6641  0.5800  0.6477
  734MOL0     C96797   3.656   6.823   3.117 -0.4237 -0.8188  0.9869
  734MOL0     C96798   3.671   6.709   3.013 -1.1717  0.6004 -0.0770
  734MOL0     C96799   3.553   6.692   2.923 -0.2049 -0.4694 -0.5211
  734MOL0    Cl96800   3.411   6.645   3.030 -0.0589 -0.3035 -0.1632
  734MOL0     C96801   4.454   6.744   3.191  0.7275  0.3783 -0.4149
  734MOL0     C96802   4.579   6.704   3.235  0.1799 -0.2176 -0.2976
  734MOL0     O96803   4.845   6.905   3.298  0.8493 -0.2206 -0.4571
  734MOL0     C96804   5.093   6.855   3.411  0.0302 -0.1213  0.6521
  734MOL0     C96805   5.217   6.822   3.458 -0.5333 -0.6381 -0.1236
  734MOL0     N96806   5.133   6.579   3.997  0.4161 -0.2852  0.7537
  734MOL0     N96807   5.081   6.663   4.068  0.3110 -0.2727 -0.7375
  734MOL0     C96808   4.001   7.236   4.042  0.5725 -0.2138  0.1132
  734MOL0     C96809   3.897   7.327   4.016 -0.2135  0.5316 -0.2069
  734MOL0     C96810   3.575   7.568   3.898  0.1586 -0.6339 -0.0651
  734MOL0     C96811   3.439   7.546   3.870 -0.2733 -0.1158  0.4528
  734MOL0     C96812   3.343   7.639   3.908  0.3070  0.0374 -0.5851
  734MOL0     C96813   3.371   7.753   3.979  0.5365 -0.4424  0.5901
  734MOL0     O96814   3.259   7.822   4.014  0.1039  0.2383 -0.5843
  734MOL0     C96815   3.265   7.905   4.133  0.0491  0.0580 -0.3066
  734MOL0     C96816   3.125   7.965   4.150 -0.7593 -0.4791  0.8884
  734MOL0     C96817   3.086   8.041   4.286 -0.6151 -0.2610 -0.3204
  734MOL0     C96818   3.185   8.137   4.335 -0.3197  0.5067  0.0764
  734MOL0     C96819   3.214   8.237   4.232  0.5939  0.2327  0.1878
  734MOL0     C96820   3.252   8.305   4.147 -0.0461  0.5856 -0.3153
  734MOL0     C96821   3.504   7.779   4.003  0.1905  0.1720 -0.2911
  734MOL0     C96822   3.601   7.699   3.958 -0.0633  0.7650 -0.6973
  734MOL0     H96823   4.042   7.492   3.753 -2.9012 -0.4854 -0.1443
  734MOL0     H96824   4.230   7.318   3.800  1.4107  0.5927 -0.2234
  734MOL0     H96825   4.205   7.035   3.860 -0.3660 -1.3380  0.0976
  734MOL0     H96826   4.154   6.989   4.020 -2.3576 -0.1581 -2.7024
  734MOL0     H96827   4.372   6.889   3.938  0.2936  0.3801 -0.6934
  734MOL0     H96828   4.387   6.983   4.091 -2.0933 -0.2686  0.0496
  734MOL0     H96829   4.491   7.166   3.968 -0.8129  1.0025 -0.8965
  734MOL0     H96830   4.461   7.089   3.803  1.6696  0.5844 -0.4571
  734MOL0     H96831   4.638   6.972   4.028  0.3444 -0.3812 -0.2354
  734MOL0     H96832   4.637   6.923   3.857  1.2210 -1.5910  1.2762
  734MOL0     H96833   4.704   7.211   3.898 -0.4191  0.0950 -1.3104
  734MOL0     H96834   4.758   7.087   3.776  1.4444  0.4650  0.8760
  734MOL0     H96835   4.836   7.087   4.066 -3.3613 -0.8013 -0.3099
  734MOL0     H96836   4.922   7.161   3.935  1.0781 -1.1805  2.4855
  734MOL0     H96837   4.831   6.860   3.930  1.0147 -1.3105  0.3332
  734MOL0     H96838   4.954   6.940   3.825  0.3050  0.5900  0.5215
  734MOL0     H96839   4.957   6.889   4.132  0.8372 -0.9193 -0.4839
  734MOL0     H96840   5.080   6.978   4.054  1.3067 -0.6567 -2.6696
  734MOL0     H96841   5.198   6.841   3.822  0.9340 -0.1779  0.9813
  734MOL0     H96842   5.231   6.617   3.699  1.0597 -0.9088 -1.0491
  734MOL0     H96843   5.257   6.477   3.809 -1.6850  0.3406 -1.6080
  734MOL0     H96844   5.471   6.593   3.891  1.6078  2.3669 -0.2852
  734MOL0     H96845   5.456   6.695   3.750  0.4297 -2.3139 -2.8888
  734MOL0     H96846   5.584   6.562   3.663 -0.8689  2.2753  1.9430
  734MOL0     H96847   5.495   6.412   3.694 -0.2407  0.3236  0.2732
  734MOL0     H96848   5.318   6.490   3.535 -1.8816  3.3239  1.5274
  734MOL0     H96849   5.475   6.478   3.455 -1.1582 -1.7030  0.3853
  734MOL0     H96850   5.277   6.535   3.288 -3.3349 -2.9866  3.1181
  734MOL0     H96851   5.061   6.590   3.193 -0.8989  1.1333 -1.1617
  734MOL0     H96852   4.759   6.826   2.972 -0.8528 -2.5267 -2.4258
  734MOL0     H96853   4.528   6.868   2.894 -0.0693 -3.3555 -1.6728
  734MOL0     H96854   4.229   6.915   3.210  2.1984  1.7314 -2.2521
  734MOL0     H96855   4.179   6.752   3.158 -1.3692 -0.4322  0.8859
  734MOL0     H96856   4.056   6.823   2.980 -0.0832 -0.8919  1.8140
  734MOL0     H96857   4.122   6.981   2.981  3.9983  0.1391  0.6350
  734MOL0     H96858   3.875   6.975   3.071 -1.7234 -1.3146  0.1282
  734MOL0     H96859   3.978   7.032   3.197 -4.0500 -0.8395  2.1813
  734MOL0     H96860   3.928   6.734   3.165 -0.4466 -0.3368  0.9575
  734MOL0     H96861   3.943   6.814   3.311  5.1851  1.0733 -2.5232
  734MOL0     H96862   3.705   6.901   3.310  0.0759  1.6337 -0.1477
  734MOL0     H96863   3.719   6.727   3.288 -0.6031  0.0727 -0.2988
  734MOL0     H96864   3.649   6.922   3.070  0.5658  0.0136  2.5207
  734MOL0     H96865   3.554   6.812   3.156 -0.5015  1.5618  1.6272
  734MOL0     H96866   3.758   6.727   2.950 -3.0179 -0.4493 -3.1504
  734MOL0     H96867   3.686   6.615   3.066  1.4340 -0.1142 -1.8738
  734MOL0     H96868   3.583   6.610   2.857 -0.8647 -1.0519 -0.1228
  734MOL0     H96869   3.522   6.784   2.873 -1.6614 -0.1449  0.8776
  734MOL0     H96870   4.374   6.713   3.258  1.2276 -0.6909 -0.2955
  734MOL0     H96871   4.582   6.669   3.338  0.6370  0.7118  0.0171
  734MOL0     H96872   5.045   6.944   3.450 -2.3114  0.9144 -3.9585
  734MOL0     H96873   5.260   6.893   3.529 -0.5080 -3.1094  2.5238
  734MOL0     H96874   4.001   7.168   4.127  1.5458 -2.6503 -1.7214
  734MOL0     H96875   3.807   7.324   4.078 -0.1903  3.3080  0.0918
  734MOL0     H96876   3.399   7.451   3.835 -2.6243  1.6395 -1.9767
  734MOL0     H96877   3.239   7.615   3.889 -0.2178 -0.2371  2.1918
  734MOL0     H96878   3.342   7.983   4.133 -0.2248  0.3482  0.7992
  734MOL0     H96879   3.286   7.847   4.223 -0.7820 -0.1946 -0.2647
  734MOL0     H96880   3.103   8.031   4.065  1.7268  1.1043  1.3730
  734MOL0     H96881   3.055   7.881   4.139 -0.0150 -1.0431  0.4135
  734MOL0     H96882   3.079   7.965   4.363  0.4252 -0.1475 -0.1014
  734MOL0     H96883   2.988   8.089   4.273 -1.6706 -1.7998  1.4677
  734MOL0     H96884   3.152   8.177   4.432 -2.5576 -0.7911 -0.0685
  734MOL0     H96885   3.275   8.083   4.365 -1.0058  0.4644  2.2280
  734MOL0     H96886   3.284   8.380   4.077  5.2704 -0.8771  0.0492
  734MOL0     H96887   3.528   7.868   4.061 -2.7182  0.9688 -0.1478
  734MOL0     H96888   3.699   7.722   3.999  0.4741  0.7984 -1.9252
  735MOL0     O96889   0.420   1.398  11.283 -0.3080 -0.6031  0.0279
  735MOL0     C96890   0.405   1.275  11.283 -0.5814 -0.2619 -0.6921
  735MOL0     O96891   0.280   1.217  11.267  0.2301 -0.3830  0.7609
  735MOL0     C96892   0.169   1.287  11.251 -0.3141 -0.1038 -0.1378
  735MOL0     C96893   0.087   1.269  11.132 -0.5313  0.2992  0.7749
  735MOL0     C96894  -0.031   1.337  11.109  0.6095 -0.0713  0.0328
  735MOL0     C96895  -0.082   1.428  11.206  0.9864  0.4281 -0.0690
  735MOL0     O96896  -0.208   1.488  11.202  0.1812 -0.4356 -0.5396
  735MOL0     C96897  -0.316   1.439  11.120  0.1611 -0.3161 -0.2657
  735MOL0     C96898  -0.423   1.546  11.111  0.0461  0.4807  0.4458
  735MOL0     C96899  -0.541   1.524  11.016  0.5077  0.0259 -0.6731
  735MOL0     C96900  -0.587   1.374  11.029  0.5181  0.7101  0.3273
  735MOL0     C96901  -0.716   1.340  10.948  0.7021  0.4642  0.5750
  735MOL0     C96902  -0.828   1.306  11.051 -0.2699  0.7837 -0.1871
  735MOL0     C96903  -0.960   1.266  10.984  0.2421  0.6060 -1.0003
  735MOL0     C96904  -1.065   1.198  11.073 -0.5373 -0.3473 -0.6439
  735MOL0     N96905  -1.205   1.207  11.037 -0.1237 -0.4902 -0.4560
  735MOL0     C96906  -1.285   1.309  11.051 -0.0664 -0.2884  0.1129
  735MOL0     C96907  -1.412   1.257  11.015 -0.7418  0.4961 -0.0043
  735MOL0     C96908  -1.541   1.324  11.042 -0.3410 -1.0514  0.9098
  735MOL0     C96909  -1.584   1.257  11.173 -0.2438 -0.1036 -0.0758
  735MOL0     C96910  -1.706   1.310  11.227 -0.3296 -0.8957  0.4864
  735MOL0     C96911  -1.724   1.257  11.369 -0.0242 -0.1678  0.1073
  735MOL0     O96912  -1.827   1.165  11.364  0.2480 -0.0750 -0.4754
  735MOL0     C96913  -1.947   1.212  11.406 -0.1502  0.9075  0.2391
  735MOL0     C96914  -2.042   1.122  11.453  0.3482 -0.4802 -0.9376
  735MOL0     C96915  -2.172   1.165  11.464 -0.3438  0.1150  0.1387
  735MOL0     C96916  -2.213   1.298  11.436 -0.2792 -0.6152  0.3237
  735MOL0     C96917  -2.355   1.343  11.454 -0.6603 -0.0506 -0.8570
  735MOL0     O96918  -2.440   1.240  11.502 -0.2123  0.2579 -0.3052
  735MOL0     C96919  -2.553   1.281  11.573 -0.4762  1.1817  0.2319
  735MOL0     C96920  -2.679   1.280  11.519  0.2930  0.4432  0.4115
  735MOL0     C96921  -2.785   1.327  11.603 -0.2722  0.0493 -0.7352
  735MOL0     C96922  -2.774   1.365  11.734  0.0735  0.3881 -0.3911
  735MOL0     O96923  -2.892   1.399  11.803  0.2516 -0.0529 -0.1447
  735MOL0     C96924  -2.911   1.541  11.823  0.1410  0.4627  0.3319
  735MOL0     C96925  -3.035   1.575  11.916  0.1889 -0.1406  0.3704
  735MOL0     C96926  -3.169   1.529  11.861 -0.3476  0.4745 -0.2679
  735MOL0     C96927  -3.173   1.556  11.703  0.6530  0.1251 -0.8126
  735MOL0     C96928  -3.315   1.516  11.657 -0.1408  0.6887  0.9691
  735MOL0     C96929  -3.330   1.523  11.505 -0.1386  0.8181  0.3204
  735MOL0     C96930  -3.369   1.387  11.439 -0.7207 -0.6911 -0.1578
  735MOL0     C96931  -3.357   1.403  11.285 -0.3074 -0.2141  0.6839
  735MOL0    Cl96932  -3.421   1.267  11.188 -0.1302  0.2669 -0.1692
  735MOL0     C96933  -2.651   1.339  11.791  0.7382 -0.5225  0.3689
  735MOL0     C96934  -2.538   1.301  11.713  0.6755 -0.8968  0.2550
  735MOL0     O96935  -2.395   1.454  11.430 -0.2699  0.0860 -0.3383
  735MOL0     C96936  -2.124   1.392  11.389  0.0885  0.5748  0.2285
  735MOL0     C96937  -1.993   1.341  11.384 -0.3101 -0.0741  0.2955
  735MOL0     N96938  -1.400   1.123  10.983 -0.2443  0.4478  0.3964
  735MOL0     N96939  -1.272   1.103  10.983  0.4087 -0.0839 -0.0687
  735MOL0     C96940  -0.009   1.451  11.320  0.0765  0.2769  0.8558
  735MOL0     C96941   0.118   1.393  11.340  0.4325  0.5985 -0.1056
  735MOL0     C96942   0.528   1.179  11.307  0.0352 -0.4720  0.2251
  735MOL0     C96943   0.661   1.212  11.317 -0.1345 -0.1099 -0.6680
  735MOL0     C96944   0.761   1.124  11.327 -0.7102  0.1436  0.4601
  735MOL0     C96945   0.743   0.989  11.310  0.2167  0.4714  0.2326
  735MOL0     O96946   0.860   0.909  11.300 -0.1359  0.2247 -0.4175
  735MOL0     C96947   0.846   0.773  11.326  0.4282  0.5706 -0.2418
  735MOL0     C96948   0.794   0.704  11.204 -0.8653 -0.0098  0.0458
  735MOL0     C96949   0.903   0.698  11.093 -0.7124 -0.9844  0.5948
  735MOL0     C96950   0.848   0.681  10.948 -0.4648 -0.7379 -0.6026
  735MOL0     C96951   0.771   0.564  10.930  0.0517 -0.5029  0.1509
  735MOL0     C96952   0.705   0.469  10.909  0.0549  0.9629  0.0142
  735MOL0     C96953   0.605   0.943  11.316 -0.5146 -0.0751  0.2767
  735MOL0     C96954   0.501   1.040  11.315  0.1425 -0.7957 -0.9091
  735MOL0     H96955   0.115   1.191  11.062 -0.7443  1.2886 -0.4451
  735MOL0     H96956  -0.089   1.306  11.023  0.2249 -1.1262  0.6483
  735MOL0     H96957  -0.354   1.350  11.172  0.2897  0.8847  2.0442
  735MOL0     H96958  -0.285   1.414  11.019 -0.6674  1.3801 -0.9901
  735MOL0     H96959  -0.370   1.634  11.074  1.7605  0.1041  1.8401
  735MOL0     H96960  -0.460   1.578  11.209 -1.4336  0.4136 -0.0658
  735MOL0     H96961  -0.511   1.555  10.916 -1.2493  5.3810  0.1111
  735MOL0     H96962  -0.623   1.593  11.037 -1.9352 -2.5738 -1.1905
  735MOL0     H96963  -0.514   1.317  10.971 -2.7576 -0.6004 -2.9112
  735MOL0     H96964  -0.599   1.336  11.130  0.1080 -2.3639 -0.7826
  735MOL0     H96965  -0.685   1.248  10.897  0.6547  0.0743  1.2372
  735MOL0     H96966  -0.768   1.410  10.881  1.9342  0.4150 -0.4748
  735MOL0     H96967  -0.855   1.384  11.123 -1.2336 -2.8318  3.7367
  735MOL0     H96968  -0.800   1.214  11.103  1.5953  1.8654  0.8044
  735MOL0     H96969  -1.006   1.355  10.939 -3.6129 -0.6729  0.0402
  735MOL0     H96970  -0.942   1.194  10.904 -4.6089 -2.7693  0.4627
  735MOL0     H96971  -1.057   1.247  11.171 -2.0923 -0.0145 -0.6501
  735MOL0     H96972  -1.039   1.093  11.079  3.3094  0.4379 -1.3244
  735MOL0     H96973  -1.258   1.405  11.093 -1.2902 -0.5046  1.4696
  735MOL0     H96974  -1.612   1.303  10.961 -1.0125 -0.3080  1.2880
  735MOL0     H96975  -1.521   1.431  11.042 -4.3123  0.0765 -3.5799
  735MOL0     H96976  -1.497   1.252  11.239  0.0458  1.3973 -0.3059
  735MOL0     H96977  -1.599   1.151  11.147 -0.5759  0.2888 -1.5648
  735MOL0     H96978  -1.691   1.418  11.216 -1.9824 -0.8960 -3.5899
  735MOL0     H96979  -1.794   1.291  11.165 -2.0554  0.2410  2.4900
  735MOL0     H96980  -1.745   1.335  11.442 -0.0295  1.3505 -1.4524
  735MOL0     H96981  -1.636   1.206  11.410  1.2133 -0.2273 -2.4275
  735MOL0     H96982  -2.008   1.022  11.477  2.7322  0.4873  0.0347
  735MOL0     H96983  -2.246   1.092  11.495  0.3431 -0.8324 -0.4166
  735MOL0     H96984  -2.691   1.257  11.413 -0.5975  2.2475  0.0869
  735MOL0     H96985  -2.881   1.339  11.555  0.1689  2.9572 -1.0264
  735MOL0     H96986  -2.919   1.586  11.723 -1.4354 -1.7555 -0.6382
  735MOL0     H96987  -2.819   1.574  11.871  0.2282  0.3705  0.2283
  735MOL0     H96988  -3.025   1.684  11.917  1.5191 -0.1681 -2.0618
  735MOL0     H96989  -3.024   1.531  12.015  1.1381 -0.8991 -0.0546
  735MOL0     H96990  -3.241   1.580  11.925  1.9165 -0.0208  2.9535
  735MOL0     H96991  -3.177   1.422  11.883 -2.5642  1.1217  2.7495
  735MOL0     H96992  -3.152   1.663  11.689 -0.1767  0.4627  0.3442
  735MOL0     H96993  -3.097   1.493  11.658  0.9899  0.0865 -0.1913
  735MOL0     H96994  -3.376   1.592  11.708  3.3748  1.5752  4.3073
  735MOL0     H96995  -3.338   1.417  11.695 -0.9324  0.4892  0.0094
  735MOL0     H96996  -3.239   1.562  11.458 -1.0199  1.9208 -0.5053
  735MOL0     H96997  -3.410   1.589  11.472  1.2671  1.9889 -0.9234
  735MOL0     H96998  -3.296   1.314  11.476  3.2134  2.9462  0.1258
  735MOL0     H96999  -3.467   1.351  11.469  0.8458 -2.9800  2.7796
  735MOL0     H97000  -3.255   1.426  11.252 -0.4104 -0.9941 -0.2207
  735MOL0     H97001  -3.409   1.497  11.261 -0.0534 -0.7188 -2.2000
  735MOL0     H97002  -2.633   1.359  11.896 -3.6574 -1.3309  1.5014
  735MOL0     H97003  -2.442   1.290  11.761  0.1174  0.4428  1.7583
  735MOL0     H97004  -2.147   1.490  11.347  0.4413  0.6979  0.3195
  735MOL0     H97005  -1.935   1.414  11.328  0.4293 -0.5052  0.4872
  735MOL0     H97006  -0.049   1.521  11.394 -0.7054 -0.5960  1.2755
  735MOL0     H97007   0.179   1.423  11.425  0.9390 -0.3481 -0.1268
  735MOL0     H97008   0.678   1.318  11.331  2.1639 -0.6662  1.2744
  735MOL0     H97009   0.861   1.161  11.346 -0.4113  0.4796 -1.5650
  735MOL0     H97010   0.778   0.762  11.411 -0.4519  1.0264 -0.8696
  735MOL0     H97011   0.942   0.733  11.361 -1.2871 -2.1160  1.7647
  735MOL0     H97012   0.780   0.598  11.226  4.5462 -1.8026 -3.0245
  735MOL0     H97013   0.702   0.754  11.172  0.2282  2.3006  0.2635
  735MOL0     H97014   0.974   0.617  11.113 -0.9851 -2.0996 -2.4028
  735MOL0     H97015   0.979   0.776  11.105 -1.3998  0.1159 -1.6245
  735MOL0     H97016   0.781   0.764  10.925 -0.7024 -1.4000 -2.5031
  735MOL0     H97017   0.926   0.685  10.871  0.1783  0.1400  0.0663
  735MOL0     H97018   0.636   0.387  10.902 -1.4395  1.8042  3.0682
  735MOL0     H97019   0.580   0.838  11.302  1.3712 -0.4382 -0.7227
  735MOL0     H97020   0.399   1.002  11.323 -1.1054  2.5751  3.3277
  736MOL0     O97021  11.065   8.494   6.012  0.8176 -0.5268 -0.1405
  736MOL0     C97022  11.081   8.544   5.900  0.2046  0.9657 -0.5407
  736MOL0     O97023  10.986   8.546   5.803 -0.1139  0.0286 -0.7236
  736MOL0     C97024  10.861   8.499   5.822  0.4610 -0.2935  0.7411
  736MOL0     C97025  10.781   8.527   5.928  0.5806 -1.0301 -0.3771
  736MOL0     C97026  10.647   8.499   5.921  0.5042  0.5388  0.2427
  736MOL0     C97027  10.593   8.428   5.816  0.1598 -0.0377  0.1853
  736MOL0     O97028  10.463   8.382   5.831  0.4744  0.1166 -0.4115
  736MOL0     C97029  10.432   8.268   5.751 -0.3585  0.0218  0.7144
  736MOL0     C97030  10.310   8.205   5.800 -0.0353  0.7827 -0.2617
  736MOL0     C97031  10.313   8.179   5.955  0.0033 -0.8575  1.1510
  736MOL0     C97032  10.189   8.105   6.007  0.8291  0.4324 -0.7812
  736MOL0     C97033  10.154   8.122   6.156 -0.8749 -0.8057  0.0961
  736MOL0     C97034  10.272   8.080   6.244 -0.2113  0.0966 -0.4700
  736MOL0     C97035  10.202   8.051   6.378  0.3777  0.3224  0.9609
  736MOL0     C97036  10.158   8.176   6.454  0.7263  0.1305 -0.4857
  736MOL0     N97037  10.091   8.142   6.578  0.3560  0.7436  1.1986
  736MOL0     C97038   9.969   8.083   6.596  0.7740 -0.2409 -0.2584
  736MOL0     C97039   9.969   8.065   6.731  0.3734 -0.7841 -0.0463
  736MOL0     C97040   9.846   8.004   6.805  0.1316 -0.2659  0.1550
  736MOL0     C97041   9.836   7.852   6.821  0.4030  0.7094 -0.5470
  736MOL0     C97042   9.775   7.788   6.697 -0.4573  0.1742  0.9929
  736MOL0     C97043   9.881   7.747   6.594  0.2804 -0.1421  0.3444
  736MOL0     O97044   9.854   7.775   6.452  0.1728 -0.2941  0.3410
  736MOL0     C97045   9.742   7.717   6.391  0.5447 -0.2272  0.0038
  736MOL0     C97046   9.670   7.601   6.425  0.2275 -1.0725 -0.2381
  736MOL0     C97047   9.572   7.544   6.338  0.6945 -0.1540 -0.1041
  736MOL0     C97048   9.543   7.600   6.209  0.8173  0.2219 -0.0878
  736MOL0     C97049   9.438   7.542   6.127 -0.2807  1.2671  0.6996
  736MOL0     O97050   9.383   7.424   6.179 -0.0352  0.4295 -0.4111
  736MOL0     C97051   9.332   7.323   6.097 -0.7741 -0.5116  0.4665
  736MOL0     C97052   9.369   7.319   5.962 -0.1477 -0.7028  0.0986
  736MOL0     C97053   9.338   7.217   5.875 -0.3193  0.6143 -0.0433
  736MOL0     C97054   9.263   7.107   5.925 -0.1881 -0.0466 -0.5226
  736MOL0     O97055   9.240   7.004   5.832 -0.4895  1.0218 -0.0132
  736MOL0     C97056   9.223   6.872   5.887  0.2826 -0.4092 -0.0581
  736MOL0     C97057   9.246   6.785   5.771  0.3075  0.1114 -1.0627
  736MOL0     C97058   9.201   6.653   5.816 -0.0924 -0.2735  0.7526
  736MOL0     C97059   9.221   6.551   5.707 -0.5874 -0.3478  0.3440
  736MOL0     C97060   9.173   6.408   5.741  0.4556  0.1691 -0.8977
  736MOL0     C97061   9.182   6.322   5.609 -0.6194 -0.3671  0.1640
  736MOL0     C97062   9.137   6.176   5.631  0.4451 -0.2684  0.4414
  736MOL0     C97063   9.181   6.090   5.521  0.2767 -0.0627  0.3725
  736MOL0    Cl97064   9.115   6.145   5.371  0.2226 -0.0098 -0.3051
  736MOL0     C97065   9.230   7.103   6.056 -0.5563 -0.1807  0.0083
  736MOL0     C97066   9.267   7.208   6.141 -0.6640  0.0252 -0.2649
  736MOL0     O97067   9.404   7.603   6.024  0.6531  0.2075 -0.1971
  736MOL0     C97068   9.616   7.715   6.179  0.0045  0.3659  1.2914
  736MOL0     C97069   9.710   7.776   6.270 -0.1863  0.8104 -0.3787
  736MOL0     N97070  10.085   8.091   6.787 -0.8586 -0.6252  0.1457
  736MOL0     N97071  10.162   8.140   6.689  0.5155  0.2182  0.0090
  736MOL0     C97072  10.672   8.399   5.703  0.6502  0.0701 -0.4003
  736MOL0     C97073  10.806   8.441   5.711  0.0275  0.0882  0.1256
  736MOL0     C97074  11.217   8.604   5.862 -0.3369  0.4736  0.6247
  736MOL0     C97075  11.251   8.614   5.729  0.6853 -0.0015  0.2859
  736MOL0     C97076  11.374   8.680   5.688 -0.3447  0.1970  0.0648
  736MOL0     C97077  11.454   8.725   5.796  0.4452 -0.4016 -0.1556
  736MOL0     O97078  11.581   8.769   5.781  0.5426  0.6008 -0.2087
  736MOL0     C97079  11.625   8.837   5.667  0.6401  0.1701 -0.1537
  736MOL0     C97080  11.778   8.863   5.672 -0.3874 -0.1843 -0.0579
  736MOL0     C97081  11.828   8.930   5.536 -0.0742 -0.0548  0.7036
  736MOL0     C97082  11.982   8.906   5.526  0.4785 -0.3422  0.2505
  736MOL0     C97083  12.050   8.995   5.432  0.2528  0.5431  1.0327
  736MOL0     C97084  12.132   9.047   5.370  0.2409  0.3864 -0.0659
  736MOL0     C97085  11.419   8.717   5.927  0.5531 -0.5551 -0.2187
  736MOL0     C97086  11.294   8.666   5.964 -0.0503 -0.6322  0.2399
  736MOL0     H97087  10.820   8.584   6.012 -2.3009 -2.3500  2.0803
  736MOL0     H97088  10.592   8.525   6.011  2.4097  0.9602  1.3277
  736MOL0     H97089  10.515   8.196   5.742  0.1340  0.5753  0.8016
  736MOL0     H97090  10.413   8.305   5.650 -0.6813 -1.1795  0.3115
  736MOL0     H97091  10.289   8.109   5.751  0.0390  1.3033 -1.3624
  736MOL0     H97092  10.221   8.265   5.778  0.2233  1.5271  0.6996
  736MOL0     H97093  10.324   8.271   6.013  3.4212 -0.3796 -0.0578
  736MOL0     H97094  10.406   8.124   5.974  0.7316  0.3578  1.1437
  736MOL0     H97095  10.105   8.133   5.943  0.0009 -0.9637 -0.3672
  736MOL0     H97096  10.191   7.997   5.989 -3.1689  0.0011  0.2978
  736MOL0     H97097  10.058   8.073   6.175 -1.7268  0.0400 -1.6880
  736MOL0     H97098  10.146   8.230   6.175  2.7553 -0.7508  2.1613
  736MOL0     H97099  10.344   8.162   6.249 -0.1453 -0.0512  1.4535
  736MOL0     H97100  10.320   7.986   6.216 -0.4735  0.6106 -2.8722
  736MOL0     H97101  10.121   7.980   6.360  1.4121 -1.3659  2.6482
  736MOL0     H97102  10.266   7.983   6.435  1.0049 -0.7522 -0.9351
  736MOL0     H97103  10.092   8.240   6.395 -0.5355 -0.0684  0.6430
  736MOL0     H97104  10.239   8.241   6.485 -0.7008  1.7618 -0.0230
  736MOL0     H97105   9.885   8.073   6.527  0.3780  0.4800  0.1092
  736MOL0     H97106   9.748   8.050   6.785 -0.4994 -1.1023  1.2050
  736MOL0     H97107   9.879   8.035   6.905  0.6303 -3.1343  0.9650
  736MOL0     H97108   9.776   7.829   6.910  1.0238  1.5358  0.1052
  736MOL0     H97109   9.936   7.815   6.843  1.3023  2.7525 -0.9575
  736MOL0     H97110   9.723   7.699   6.734  2.7473 -2.6859 -0.8319
  736MOL0     H97111   9.696   7.848   6.650 -0.2565 -0.3584 -0.0594
  736MOL0     H97112   9.893   7.638   6.591 -1.1027 -0.3071 -0.2453
  736MOL0     H97113   9.980   7.786   6.618 -0.8046  2.0744  1.5318
  736MOL0     H97114   9.688   7.554   6.521 -0.4399  0.6320  0.7608
  736MOL0     H97115   9.522   7.455   6.376  1.0378 -0.1112  0.4722
  736MOL0     H97116   9.432   7.388   5.907 -1.7327  0.5068 -0.2862
  736MOL0     H97117   9.370   7.218   5.772  2.4380  2.6447  0.7279
  736MOL0     H97118   9.122   6.858   5.926  0.0823 -0.4710 -0.5866
  736MOL0     H97119   9.295   6.830   5.958  0.5029  0.5085  0.2863
  736MOL0     H97120   9.352   6.785   5.745  0.4025 -2.0566 -0.8146
  736MOL0     H97121   9.181   6.820   5.690 -1.7710 -1.9917 -0.4126
  736MOL0     H97122   9.092   6.646   5.827 -0.2153  1.7495  1.1591
  736MOL0     H97123   9.248   6.608   5.904 -0.3873 -4.8878 -1.1854
  736MOL0     H97124   9.185   6.584   5.609  1.8158  2.8351  0.3755
  736MOL0     H97125   9.326   6.526   5.695 -1.1259 -2.3131 -0.7401
  736MOL0     H97126   9.071   6.403   5.780  0.3108  2.8557 -0.7472
  736MOL0     H97127   9.248   6.373   5.813 -1.5797  1.2925  1.9821
  736MOL0     H97128   9.289   6.322   5.586 -0.6336 -0.9661  0.0733
  736MOL0     H97129   9.129   6.352   5.518  1.1270 -1.9928 -1.4832
  736MOL0     H97130   9.193   6.135   5.716  0.2923 -3.7357 -0.9872
  736MOL0     H97131   9.028   6.175   5.645  0.3194  1.1631 -0.1977
  736MOL0     H97132   9.142   5.988   5.525 -1.2181  0.4146 -0.7241
  736MOL0     H97133   9.290   6.090   5.512  0.3521 -4.6601 -2.0835
  736MOL0     H97134   9.174   7.019   6.095  0.8213 -2.0966 -1.9463
  736MOL0     H97135   9.252   7.207   6.248  0.6791  0.3415 -0.0583
  736MOL0     H97136   9.609   7.750   6.076  2.1193  0.1293  1.0077
  736MOL0     H97137   9.767   7.864   6.241  0.4056  0.6768  0.3492
  736MOL0     H97138  10.636   8.346   5.616  1.7108 -0.9210 -0.2599
  736MOL0     H97139  10.868   8.397   5.633 -0.5208 -1.4231  0.4981
  736MOL0     H97140  11.188   8.568   5.654 -1.8927 -0.3175  2.4893
  736MOL0     H97141  11.405   8.686   5.585  2.5700 -2.6371  0.6223
  736MOL0     H97142  11.573   8.933   5.668 -0.6536 -0.4566 -1.5912
  736MOL0     H97143  11.585   8.798   5.573 -2.3649  0.7399  0.7481
  736MOL0     H97144  11.803   8.934   5.752  1.2287  0.6819 -1.2843
  736MOL0     H97145  11.818   8.765   5.700 -0.4103 -0.0268  0.5432
  736MOL0     H97146  11.800   9.035   5.538 -0.9227 -0.2736  1.0102
  736MOL0     H97147  11.787   8.872   5.453 -1.0039  2.1190 -0.4272
  736MOL0     H97148  12.021   8.943   5.621  1.0099  1.0371 -0.4820
  736MOL0     H97149  12.005   8.800   5.513  1.3680 -0.4616  2.5065
  736MOL0     H97150  12.207   9.091   5.307  1.6622 -1.7695  0.0349
  736MOL0     H97151  11.492   8.767   5.990  0.5987  0.5780 -1.1459
  736MOL0     H97152  11.271   8.662   6.070 -0.1518 -2.2135  0.1893
  737MOL0     O97153   5.134   0.968   5.639  0.1243 -0.0177  0.4238
  737MOL0     C97154   5.251   0.981   5.601 -0.6336 -0.6828  1.2980
  737MOL0     O97155   5.307   0.914   5.496 -0.0955  0.3375  0.8754
  737MOL0     C97156   5.247   0.792   5.466 -0.0625  0.2688  0.4054
  737MOL0     C97157   5.161   0.773   5.359 -0.2780 -0.3402  0.6419
  737MOL0     C97158   5.111   0.642   5.329 -0.7949 -0.3953 -0.3804
  737MOL0     C97159   5.154   0.533   5.397 -0.2690  0.1709  0.6085
  737MOL0     O97160   5.114   0.400   5.381 -0.1503  0.3740 -0.1511
  737MOL0     C97161   4.973   0.388   5.381  0.0519  0.8014  0.2307
  737MOL0     C97162   4.938   0.241   5.362  0.0840 -0.2781 -1.1333
  737MOL0     C97163   4.989   0.171   5.491  0.0494  0.2815  0.2301
  737MOL0     C97164   4.936   0.027   5.497 -0.7866 -0.6201  0.2567
  737MOL0     C97165   4.997  -0.072   5.601  0.6863 -0.9240 -0.1074
  737MOL0     C97166   4.916  -0.197   5.576  0.4399 -0.2267 -0.1149
  737MOL0     C97167   4.981  -0.277   5.462 -0.7489  0.2321  0.1271
  737MOL0     C97168   4.882  -0.386   5.423 -0.1621  0.0345  0.5273
  737MOL0     N97169   4.807  -0.461   5.528 -0.2935  0.2206  0.3419
  737MOL0     C97170   4.685  -0.430   5.583  0.1871 -0.6835 -0.3730
  737MOL0     C97171   4.679  -0.504   5.698 -0.6364  0.5485 -0.2346
  737MOL0     C97172   4.560  -0.508   5.791  0.1887 -0.0486 -0.3183
  737MOL0     C97173   4.571  -0.409   5.904 -0.9021  0.6258  0.8880
  737MOL0     C97174   4.443  -0.427   5.992  0.2681 -0.2918 -0.1207
  737MOL0     C97175   4.438  -0.343   6.125 -0.2773  0.3442 -0.3822
  737MOL0     O97176   4.412  -0.207   6.087 -0.0656  0.4165 -0.4527
  737MOL0     C97177   4.380  -0.112   6.184  0.4106 -0.3195 -0.0086
  737MOL0     C97178   4.371  -0.139   6.326  0.4300 -0.6914  1.0438
  737MOL0     C97179   4.335  -0.042   6.410  1.3822 -0.1801 -0.2160
  737MOL0     C97180   4.307   0.087   6.364 -0.6853  0.0039 -0.9282
  737MOL0     C97181   4.280   0.196   6.461 -0.6600  0.7154  0.1105
  737MOL0     O97182   4.291   0.161   6.598 -0.1689  0.3588  0.0158
  737MOL0     C97183   4.278   0.270   6.679  0.5986 -0.2629 -0.2476
  737MOL0     C97184   4.152   0.311   6.732  0.2328  0.1294 -0.3842
  737MOL0     C97185   4.142   0.415   6.821  0.1606  0.1865  0.6872
  737MOL0     C97186   4.269   0.463   6.868  0.0877  1.1402 -0.2895
  737MOL0     O97187   4.284   0.560   6.971  0.0512 -0.4600 -0.0044
  737MOL0     C97188   4.192   0.675   6.937  0.9691 -0.5611  0.6843
  737MOL0     C97189   4.229   0.787   7.027  0.1170  0.2939 -0.4739
  737MOL0     C97190   4.153   0.915   6.984  0.1287  0.4015  0.1365
  737MOL0     C97191   4.023   0.945   7.066  0.1546  0.2315  0.0876
  737MOL0     C97192   3.949   1.045   6.976  0.1628  0.2027 -0.1120
  737MOL0     C97193   3.801   1.055   7.012  0.5825  0.9551 -0.8190
  737MOL0     C97194   3.707   1.160   6.940  0.0063 -0.3293  0.5284
  737MOL0     C97195   3.698   1.292   7.005 -0.1559 -0.1333 -0.3033
  737MOL0    Cl97196   3.831   1.404   7.027 -0.3114 -0.1625 -0.3633
  737MOL0     C97197   4.387   0.409   6.833 -0.3231 -0.3072 -1.0423
  737MOL0     C97198   4.396   0.323   6.732  1.3951  0.0721  1.2784
  737MOL0     O97199   4.286   0.311   6.414 -0.3030  0.5494  0.1938
  737MOL0     C97200   4.311   0.112   6.229 -0.8014  0.4072  0.0425
  737MOL0     C97201   4.343   0.011   6.134 -0.7211 -0.0069 -1.2071
  737MOL0     N97202   4.804  -0.569   5.706 -0.1388 -0.1196  1.1835
  737MOL0     N97203   4.864  -0.562   5.593  0.5708  0.1858  0.1515
  737MOL0     C97204   5.254   0.555   5.488 -0.7296 -0.5918  0.1864
  737MOL0     C97205   5.298   0.684   5.520 -0.0793  0.4348 -0.5967
  737MOL0     C97206   5.345   1.085   5.667  0.0309  0.5208 -0.1280
  737MOL0     C97207   5.304   1.150   5.778  0.4576 -0.0965 -0.0438
  737MOL0     C97208   5.386   1.253   5.837 -0.2074  0.5289 -1.1548
  737MOL0     C97209   5.513   1.263   5.800 -0.5116 -0.2477  1.1927
  737MOL0     O97210   5.581   1.358   5.873  0.3395 -0.9530  0.0960
  737MOL0     C97211   5.724   1.330   5.899 -0.5054  0.0963 -0.3036
  737MOL0     C97212   5.778   1.459   5.919 -0.4853  0.3482 -0.8140
  737MOL0     C97213   5.760   1.555   5.803 -0.5308 -0.2855  0.1797
  737MOL0     C97214   5.874   1.653   5.786  0.0727  0.3708  0.1689
  737MOL0     C97215   5.901   1.735   5.906  0.1488 -0.0253  0.5012
  737MOL0     C97216   5.919   1.796   6.013  0.1497  0.7680  0.5678
  737MOL0     C97217   5.556   1.184   5.692 -0.0024 -0.3835  0.4971
  737MOL0     C97218   5.478   1.093   5.627  0.5474 -0.5390 -0.0700
  737MOL0     H97219   5.126   0.865   5.312  0.8453 -0.9506 -1.5448
  737MOL0     H97220   5.020   0.637   5.269 -0.9763  1.3944 -0.3063
  737MOL0     H97221   4.927   0.429   5.290 -3.1379 -0.3043  1.2314
  737MOL0     H97222   4.931   0.434   5.470 -0.1616  1.2670 -0.1056
  737MOL0     H97223   4.996   0.205   5.277 -1.1132  2.0910 -3.0882
  737MOL0     H97224   4.829   0.239   5.350  0.0056 -4.1364 -1.1007
  737MOL0     H97225   4.951   0.225   5.579  0.6542  1.5541 -0.2713
  737MOL0     H97226   5.098   0.168   5.486  0.0404 -2.0663  0.1832
  737MOL0     H97227   4.827   0.036   5.500 -0.6507  1.5506  0.4495
  737MOL0     H97228   4.950  -0.027   5.403  0.2951 -1.8903  1.1100
  737MOL0     H97229   4.981  -0.038   5.704 -0.9486  0.7927 -0.8630
  737MOL0     H97230   5.103  -0.090   5.579  1.3475  3.1844 -1.0982
  737MOL0     H97231   4.815  -0.180   5.537 -0.8441 -0.8382  2.6946
  737MOL0     H97232   4.905  -0.259   5.666 -1.3228 -1.6517 -1.2377
  737MOL0     H97233   5.003  -0.223   5.369  1.1054 -1.7579 -0.6699
  737MOL0     H97234   5.077  -0.315   5.498 -2.7061 -2.3060  3.1120
  737MOL0     H97235   4.935  -0.458   5.359  0.2095  0.9691 -0.2541
  737MOL0     H97236   4.811  -0.336   5.356  0.1664 -0.0650  0.0984
  737MOL0     H97237   4.608  -0.360   5.552  0.8957 -0.3879 -1.4941
  737MOL0     H97238   4.558  -0.607   5.838 -2.1018 -0.2328 -0.6823
  737MOL0     H97239   4.473  -0.489   5.727 -1.0577 -2.2141  0.6263
  737MOL0     H97240   4.576  -0.307   5.864  1.5825 -0.5712 -2.2318
  737MOL0     H97241   4.657  -0.436   5.965  1.8803  2.6042 -1.8673
  737MOL0     H97242   4.368  -0.386   5.924  2.1344  0.8394 -1.5883
  737MOL0     H97243   4.438  -0.535   6.012 -1.7533 -0.2702 -0.2657
  737MOL0     H97244   4.528  -0.350   6.187 -0.2775  0.9493 -0.3104
  737MOL0     H97245   4.350  -0.376   6.182 -0.3753  1.5640  0.1989
  737MOL0     H97246   4.395  -0.242   6.350  1.4288 -0.6763  0.1841
  737MOL0     H97247   4.321  -0.065   6.515 -1.2089 -1.8147 -0.8212
  737MOL0     H97248   4.061   0.256   6.713 -0.2740  0.3804  1.1990
  737MOL0     H97249   4.048   0.447   6.865  0.1077  2.1806 -0.7541
  737MOL0     H97250   4.083   0.667   6.933  0.5857  3.3196 -2.0193
  737MOL0     H97251   4.215   0.702   6.834 -1.9793 -0.0876  0.0786
  737MOL0     H97252   4.334   0.811   7.010 -0.2529  2.7499  0.3288
  737MOL0     H97253   4.203   0.775   7.133 -3.0256 -0.8464 -1.2508
  737MOL0     H97254   4.134   0.902   6.877 -0.0842 -0.8573  0.3136
  737MOL0     H97255   4.220   1.001   6.994 -0.1359  0.8601 -1.6528
  737MOL0     H97256   3.969   0.849   7.069  1.7339 -0.7740 -1.7718
  737MOL0     H97257   4.043   0.984   7.166  0.8994 -1.1622  0.5119
  737MOL0     H97258   3.952   1.015   6.871 -2.4525 -0.2693 -0.1147
  737MOL0     H97259   4.003   1.140   6.993  3.2786 -0.8508 -2.9638
  737MOL0     H97260   3.790   1.071   7.120  4.8291 -1.7852  0.2690
  737MOL0     H97261   3.762   0.956   6.985 -3.3101  1.2211  2.7156
  737MOL0     H97262   3.748   1.169   6.839 -0.5208  0.2024  0.3581
  737MOL0     H97263   3.606   1.121   6.926 -0.7775  2.1911 -1.6501
  737MOL0     H97264   3.679   1.258   7.106 -1.2078 -0.1811 -0.5028
  737MOL0     H97265   3.606   1.343   6.974 -1.8448 -2.0860  1.2958
  737MOL0     H97266   4.477   0.441   6.885 -2.4112  0.1450  2.6251
  737MOL0     H97267   4.492   0.278   6.706  1.4583  0.6705  0.4155
  737MOL0     H97268   4.290   0.211   6.189 -1.7180  0.0695 -0.3620
  737MOL0     H97269   4.339   0.014   6.026  1.3503 -3.1060 -1.5045
  737MOL0     H97270   5.308   0.473   5.535  2.4777  1.5119  0.4859
  737MOL0     H97271   5.377   0.680   5.595 -1.5786 -3.6957  1.0549
  737MOL0     H97272   5.200   1.146   5.811  0.7138 -1.0795  0.6625
  737MOL0     H97273   5.329   1.305   5.913 -0.8530 -0.5087 -0.9011
  737MOL0     H97274   5.787   1.286   5.821 -1.4862  0.8755 -1.5926
  737MOL0     H97275   5.733   1.265   5.987  1.0970 -1.3864 -1.4889
  737MOL0     H97276   5.734   1.514   6.003 -3.1809 -2.8831  0.1289
  737MOL0     H97277   5.879   1.448   5.958 -0.9086  2.3934  1.0775
  737MOL0     H97278   5.663   1.605   5.815  0.2431  0.9792  1.5329
  737MOL0     H97279   5.776   1.494   5.714  2.0108 -0.0146  0.3742
  737MOL0     H97280   5.961   1.596   5.752 -1.6862 -1.2433 -1.8884
  737MOL0     H97281   5.835   1.722   5.710 -0.8266  1.7018  1.7749
  737MOL0     H97282   5.922   1.844   6.109  0.6443  0.2520  0.8169
  737MOL0     H97283   5.662   1.186   5.669 -0.0572  2.0707  0.1815
  737MOL0     H97284   5.506   1.020   5.552  0.5087 -0.4265 -0.1960
  738MOL0     O97285   0.408  10.129   0.124  0.0995  0.2841 -0.1846
  738MOL0     C97286   0.466  10.028   0.072 -0.6806  0.6517  0.2459
  738MOL0     O97287   0.406   9.919   0.019  0.3915 -0.4964 -0.1895
  738MOL0     C97288   0.270   9.889   0.047  0.8697 -0.6980 -0.2816
  738MOL0     C97289   0.199   9.816  -0.047  0.0704  1.0438  0.4426
  738MOL0     C97290   0.063   9.791  -0.039  0.5526  0.1430  0.4115
  738MOL0     C97291  -0.003   9.818   0.082  0.1629 -0.6633  0.2412
  738MOL0     O97292  -0.125   9.759   0.090 -0.3875 -0.5323 -0.5719
  738MOL0     C97293  -0.193   9.751   0.219 -0.1693  0.1426 -0.2290
  738MOL0     C97294  -0.283   9.633   0.209  1.3709  0.9334  0.1078
  738MOL0     C97295  -0.378   9.615   0.329 -0.4115  1.5198  0.2956
  738MOL0     C97296  -0.484   9.724   0.352 -0.0289 -0.0956  0.5926
  738MOL0     C97297  -0.606   9.688   0.441 -0.1362  0.4710  0.4596
  738MOL0     C97298  -0.713   9.792   0.423  0.6140  0.5005 -0.3598
  738MOL0     C97299  -0.825   9.774   0.527 -0.6585 -0.7098  0.3395
  738MOL0     C97300  -0.784   9.841   0.657 -0.0896  0.3436 -1.1160
  738MOL0     N97301  -0.885   9.795   0.761  0.0179 -0.1674  0.0398
  738MOL0     C97302  -0.986   9.878   0.806 -0.1764  0.8225 -0.3370
  738MOL0     C97303  -1.036   9.814   0.917  0.6854 -0.6211 -1.0818
  738MOL0     C97304  -1.147   9.874   1.005 -0.0635 -0.5147 -0.0820
  738MOL0     C97305  -1.106   9.983   1.095 -0.0418  0.2362 -0.6455
  738MOL0     C97306  -1.223  10.033   1.177  0.2191  0.3356  0.0215
  738MOL0     C97307  -1.172  10.138   1.284  0.1730  0.1096 -0.4300
  738MOL0     O97308  -1.280  10.206   1.349  0.2874  0.7420 -0.5946
  738MOL0     C97309  -1.372  10.136   1.417  0.3373  0.6557  0.6034
  738MOL0     C97310  -1.517  10.152   1.387 -0.9055 -0.4103  0.1489
  738MOL0     C97311  -1.611  10.074   1.440 -0.0146  0.0424 -0.0327
  738MOL0     C97312  -1.579   9.991   1.548 -0.5438  1.5105  0.6369
  738MOL0     C97313  -1.684   9.905   1.606  0.1234 -0.5044  1.2165
  738MOL0     O97314  -1.648   9.826   1.719 -0.1262 -0.2970  0.5241
  738MOL0     C97315  -1.751   9.769   1.793 -0.1020  0.9738 -0.1901
  738MOL0     C97316  -1.733   9.636   1.836 -0.9129 -1.1032  0.4258
  738MOL0     C97317  -1.821   9.576   1.920 -0.0270 -0.0823 -0.0786
  738MOL0     C97318  -1.932   9.646   1.956  0.3335  0.1549 -0.2027
  738MOL0     O97319  -2.023   9.605   2.054 -0.2807  0.3468  0.1992
  738MOL0     C97320  -1.976   9.527   2.167 -0.0051  0.1548 -0.0765
  738MOL0     C97321  -2.096   9.500   2.247  0.6251 -0.1737  0.2723
  738MOL0     C97322  -2.075   9.425   2.368  0.1315  0.3592 -0.1104
  738MOL0     C97323  -2.208   9.404   2.453 -0.5797 -0.2636  0.1057
  738MOL0     C97324  -2.200   9.283   2.549  0.6660  0.6710 -0.1216
  738MOL0     C97325  -2.338   9.247   2.615 -0.3688  0.0319 -0.4005
  738MOL0     C97326  -2.329   9.164   2.745 -0.8245 -0.0013 -0.9064
  738MOL0     C97327  -2.235   9.048   2.722 -0.4320 -1.2873 -1.2187
  738MOL0    Cl97328  -2.300   8.927   2.619 -0.2660 -0.2123 -0.2517
  738MOL0     C97329  -1.959   9.777   1.917 -0.0557  0.3446  0.9827
  738MOL0     C97330  -1.864   9.832   1.845 -0.3082  0.0583  1.0371
  738MOL0     O97331  -1.803   9.920   1.571  0.1689 -0.4319  0.0060
  738MOL0     C97332  -1.445   9.969   1.584  0.2790  0.4833  0.3036
  738MOL0     C97333  -1.343  10.035   1.513 -0.5424  0.5321  0.9921
  738MOL0     N97334  -0.950   9.704   0.951 -0.0694  0.2827  0.0891
  738MOL0     N97335  -0.856   9.705   0.862  0.0995  0.0226 -0.6584
  738MOL0     C97336   0.071   9.885   0.187  0.2643  0.6037 -0.9290
  738MOL0     C97337   0.206   9.913   0.169  0.1372 -0.5145  0.8675
  738MOL0     C97338   0.613  10.037   0.050 -0.3993  0.5317  0.3542
  738MOL0     C97339   0.683   9.932  -0.017 -0.0643 -0.2483 -0.4092
  738MOL0     C97340   0.822   9.926  -0.028  0.4662 -0.2809  0.0996
  738MOL0     C97341   0.896  10.035   0.020 -0.3281 -0.4064 -0.3715
  738MOL0     O97342   1.040  10.055   0.021 -1.2602  0.3052 -0.2764
  738MOL0     C97343   1.112   9.930   0.026  0.0896  0.4243 -0.1945
  738MOL0     C97344   1.088   9.850   0.162 -0.1712  0.3306  0.6664
  738MOL0     C97345   1.123   9.929   0.294  0.7764  0.0273 -1.0082
  738MOL0     C97346   1.237  10.026   0.299 -0.4859  0.6612  0.9263
  738MOL0     C97347   1.262  10.071   0.436  0.3597 -0.7552  0.9322
  738MOL0     C97348   1.286  10.111   0.542 -0.6190 -0.4812 -0.4042
  738MOL0     C97349   0.826  10.138   0.097  0.2733 -0.3644  0.5250
  738MOL0     C97350   0.684  10.133   0.106 -0.1192  0.6808  0.1900
  738MOL0     H97351   0.256   9.789  -0.135 -0.6207  1.6224 -0.1959
  738MOL0     H97352   0.012   9.730  -0.112  1.3441 -1.2125  0.9653
  738MOL0     H97353  -0.248   9.843   0.240  0.0471  0.1184  0.4613
  738MOL0     H97354  -0.120   9.725   0.296 -0.0422 -0.1240 -0.4357
  738MOL0     H97355  -0.221   9.543   0.199  0.6384  0.3462  0.7222
  738MOL0     H97356  -0.350   9.643   0.124 -1.6771 -1.1125  2.0836
  738MOL0     H97357  -0.317   9.609   0.420 -1.1505 -1.1714  0.6860
  738MOL0     H97358  -0.437   9.524   0.313  0.4601  1.0970 -0.6402
  738MOL0     H97359  -0.435   9.814   0.391  0.2335  1.5893 -3.1731
  738MOL0     H97360  -0.525   9.758   0.256  0.5247 -2.2101 -0.4492
  738MOL0     H97361  -0.560   9.698   0.540  0.3775 -0.6314  0.3546
  738MOL0     H97362  -0.650   9.591   0.416 -2.0960  0.6151  3.0268
  738MOL0     H97363  -0.761   9.785   0.325 -0.9940  2.3161  0.2390
  738MOL0     H97364  -0.673   9.892   0.442 -0.5054  0.6150  1.5472
  738MOL0     H97365  -0.914   9.823   0.487 -2.2175 -0.8305  3.3275
  738MOL0     H97366  -0.847   9.669   0.550 -0.3671 -0.5604  1.3783
  738MOL0     H97367  -0.807   9.948   0.642 -3.5060 -0.1010  0.0750
  738MOL0     H97368  -0.680   9.828   0.688 -0.0519  1.8331 -0.5028
  738MOL0     H97369  -1.022   9.974   0.768 -1.4219  0.0699 -1.1158
  738MOL0     H97370  -1.174   9.795   1.076  2.8558 -1.3324  0.2594
  738MOL0     H97371  -1.233   9.897   0.942 -1.1778 -2.0500  0.7832
  738MOL0     H97372  -1.086  10.070   1.032 -1.5506 -0.6777 -2.4765
  738MOL0     H97373  -1.024   9.952   1.161  0.4177 -0.5791 -1.5614
  738MOL0     H97374  -1.295  10.081   1.110  2.2523 -0.7666 -3.1557
  738MOL0     H97375  -1.263   9.949   1.235  1.0881  0.4269  0.7812
  738MOL0     H97376  -1.115  10.215   1.231 -1.8474  2.0268  0.0645
  738MOL0     H97377  -1.112  10.088   1.361 -2.7488 -0.3214  1.7300
  738MOL0     H97378  -1.544  10.221   1.308  1.7358  3.2951  2.1953
  738MOL0     H97379  -1.715  10.085   1.410 -0.7206  0.6547  2.4195
  738MOL0     H97380  -1.632   9.599   1.818 -0.6634  0.0679 -0.7591
  738MOL0     H97381  -1.806   9.478   1.964 -0.0400  0.2836  0.7510
  738MOL0     H97382  -1.906   9.588   2.224  1.2368 -2.1099  0.9580
  738MOL0     H97383  -1.928   9.434   2.137 -3.1617 -2.5826  2.5283
  738MOL0     H97384  -2.163   9.440   2.183  1.5377 -0.7360 -0.1764
  738MOL0     H97385  -2.135   9.599   2.272  3.4108  1.0268  0.1269
  738MOL0     H97386  -2.004   9.482   2.428  0.3088  0.6126 -0.5583
  738MOL0     H97387  -2.032   9.328   2.342  2.1735  1.0845  0.3183
  738MOL0     H97388  -2.226   9.504   2.493  0.2730  0.5169 -1.3605
  738MOL0     H97389  -2.290   9.375   2.385  0.3863 -0.5279 -0.9812
  738MOL0     H97390  -2.137   9.300   2.637 -0.0585 -0.5471  0.6601
  738MOL0     H97391  -2.176   9.197   2.487 -1.6284  0.8983 -1.4135
  738MOL0     H97392  -2.396   9.185   2.546 -3.3381  1.5509  0.5304
  738MOL0     H97393  -2.388   9.340   2.643  0.0911 -0.0009  0.5775
  738MOL0     H97394  -2.279   9.224   2.822  1.5985 -1.5210 -1.1678
  738MOL0     H97395  -2.427   9.137   2.784 -0.4218  1.8286  1.6026
  738MOL0     H97396  -2.206   9.008   2.819  3.1550  1.2892 -1.0155
  738MOL0     H97397  -2.137   9.086   2.690 -0.4360  0.2108  0.4152
  738MOL0     H97398  -2.055   9.816   1.950  0.4585  1.7771  0.8299
  738MOL0     H97399  -1.881   9.936   1.818 -1.7283 -0.1787  0.9333
  738MOL0     H97400  -1.432   9.886   1.654 -0.0195 -0.6727 -0.9694
  738MOL0     H97401  -1.243  10.007   1.542 -0.7342  0.9638  2.1458
  738MOL0     H97402   0.029   9.912   0.283  0.0314  1.7020 -1.3367
  738MOL0     H97403   0.267   9.960   0.245  1.1697 -2.3106  1.2068
  738MOL0     H97404   0.626   9.844  -0.048  2.7500 -2.2953 -0.2109
  738MOL0     H97405   0.870   9.839  -0.071  0.6784  0.1267 -0.5031
  738MOL0     H97406   1.222   9.929   0.023  0.1083  0.6218  0.4441
  738MOL0     H97407   1.076   9.878  -0.063 -2.2637  0.8822  0.4330
  738MOL0     H97408   0.988   9.806   0.164 -0.7793  1.6586  1.5511
  738MOL0     H97409   1.154   9.763   0.162  0.9825  1.1517 -0.7237
  738MOL0     H97410   1.124   9.853   0.372  1.5509 -0.3252 -1.3422
  738MOL0     H97411   1.033   9.982   0.327 -0.7724 -1.4710 -2.5834
  738MOL0     H97412   1.321   9.964   0.266 -1.4260 -1.6748  2.6310
  738MOL0     H97413   1.222  10.104   0.225 -1.5945 -2.1140 -2.0270
  738MOL0     H97414   1.294  10.155   0.639 -2.5742 -0.3677 -0.2524
  738MOL0     H97415   0.882  10.220   0.141 -0.8929  1.7990 -1.7327
  738MOL0     H97416   0.633  10.210   0.163  0.7032  0.4506  1.2672
  739MOL0     O97417   1.692  10.999   2.163 -0.3278 -0.2171 -0.4078
  739MOL0     C97418   1.755  11.013   2.061  0.4976  0.2385 -0.2877
  739MOL0     O97419   1.716  10.977   1.935  0.5662  0.8657 -0.1230
  739MOL0     C97420   1.598  10.912   1.919 -0.3491 -0.0899 -0.0749
  739MOL0     C97421   1.486  10.968   1.850  0.2610 -0.2438 -0.3628
  739MOL0     C97422   1.367  10.891   1.838  0.4334 -0.5190  0.1870
  739MOL0     C97423   1.364  10.758   1.889 -0.0374  0.1381 -1.0653
  739MOL0     O97424   1.265  10.676   1.857  0.5370  0.4023 -0.0123
  739MOL0     C97425   1.185  10.608   1.944  1.2028  0.2544  0.1543
  739MOL0     C97426   1.053  10.672   1.989 -0.0267  0.5310  0.1879
  739MOL0     C97427   0.950  10.700   1.876  0.0040 -0.1927 -0.1167
  739MOL0     C97428   0.923  10.581   1.785  0.6168 -0.8641 -1.0081
  739MOL0     C97429   0.837  10.472   1.851  0.1282  0.5597  0.1291
  739MOL0     C97430   0.735  10.517   1.954 -0.5977 -0.4359 -0.2669
  739MOL0     C97431   0.629  10.405   1.989  0.8323 -0.2921  0.4102
  739MOL0     C97432   0.553  10.358   1.858 -0.5212  1.1760 -0.6057
  739MOL0     N97433   0.499  10.476   1.795  0.5701 -0.6078  0.1153
  739MOL0     C97434   0.375  10.531   1.825  0.0451  0.9201 -0.1312
  739MOL0     C97435   0.350  10.625   1.725  0.4625  0.3419 -0.1063
  739MOL0     C97436   0.239  10.720   1.704 -0.0838  0.6379  0.1891
  739MOL0     C97437   0.220  10.787   1.844  0.2066 -0.0866  0.5312
  739MOL0     C97438   0.111  10.894   1.830 -0.3386 -0.1260 -0.2269
  739MOL0     C97439   0.041  10.934   1.957  0.1126 -0.8716  0.2755
  739MOL0     O97440  -0.085  10.999   1.936 -0.7849 -0.0966 -0.6758
  739MOL0     C97441  -0.195  10.962   2.003  0.5131  0.7172  0.1801
  739MOL0     C97442  -0.306  10.947   1.926 -0.7477 -0.0195 -0.2463
  739MOL0     C97443  -0.412  10.863   1.953 -0.6186  1.6263 -0.0599
  739MOL0     C97444  -0.408  10.816   2.085  0.8230  0.9089 -0.0745
  739MOL0     C97445  -0.524  10.731   2.128 -0.2472 -0.3129 -0.3408
  739MOL0     O97446  -0.541  10.700   2.257 -0.3062 -0.5506  0.2674
  739MOL0     C97447  -0.657  10.663   2.294  0.8408  0.2534 -0.3134
  739MOL0     C97448  -0.716  10.534   2.255  1.2402  0.7578  0.4891
  739MOL0     C97449  -0.836  10.487   2.320 -0.2701 -1.8186  0.7799
  739MOL0     C97450  -0.902  10.574   2.416 -0.2932  0.2515  0.2800
  739MOL0     O97451  -1.018  10.529   2.461 -0.0796 -0.3108  0.0986
  739MOL0     C97452  -1.083  10.601   2.568 -0.0521  0.6776  1.7402
  739MOL0     C97453  -1.182  10.505   2.632 -0.6080  0.2882 -0.5604
  739MOL0     C97454  -1.266  10.581   2.734  0.7666  0.2786 -0.7437
  739MOL0     C97455  -1.355  10.690   2.678  0.1226 -0.0137 -0.8246
  739MOL0     C97456  -1.457  10.732   2.781  0.1852  0.2082 -0.7890
  739MOL0     C97457  -1.534  10.863   2.757  0.2488 -0.4700 -0.1807
  739MOL0     C97458  -1.443  10.982   2.758 -0.3562 -1.2031  0.1130
  739MOL0     C97459  -1.533  11.112   2.757 -0.1266 -0.1583 -0.9844
  739MOL0    Cl97460  -1.623  11.126   2.918  0.3743 -0.3451  0.2756
  739MOL0     C97461  -0.847  10.705   2.441  0.7140 -0.2311 -0.4785
  739MOL0     C97462  -0.728  10.737   2.386  0.0533 -0.3933 -0.8707
  739MOL0     O97463  -0.586  10.679   2.033  0.2797 -0.5915 -0.5944
  739MOL0     C97464  -0.297  10.825   2.172 -1.0006  0.4483  0.7038
  739MOL0     C97465  -0.186  10.891   2.127  0.3463  0.0637  0.7962
  739MOL0     N97466   0.452  10.610   1.633 -0.2457  0.8889 -0.1235
  739MOL0     N97467   0.539  10.521   1.673  0.2959 -0.1896 -0.5350
  739MOL0     C97468   1.471  10.710   1.969 -0.3716 -0.1048 -0.2344
  739MOL0     C97469   1.594  10.788   1.974  0.0410  0.1954  0.8017
  739MOL0     C97470   1.902  11.048   2.068  0.1614  0.8862 -0.4774
  739MOL0     C97471   1.982  11.050   2.190 -0.4847 -0.4245  0.3352
  739MOL0     C97472   2.119  11.092   2.183 -0.1849  0.0392 -0.0466
  739MOL0     C97473   2.170  11.133   2.063 -1.0494 -0.7527 -0.0762
  739MOL0     O97474   2.300  11.180   2.054  0.1043 -0.0009 -0.2816
  739MOL0     C97475   2.321  11.319   2.004  0.3479 -0.2929 -0.5241
  739MOL0     C97476   2.253  11.434   2.090  0.1113  0.4970 -1.2631
  739MOL0     C97477   2.328  11.453   2.223  0.8372 -0.4259  0.1532
  739MOL0     C97478   2.267  11.571   2.296 -0.0152 -0.4312  0.4392
  739MOL0     C97479   2.372  11.651   2.368 -0.8424  0.0221 -0.5371
  739MOL0     C97480   2.461  11.702   2.441  0.0841 -0.5194  1.0804
  739MOL0     C97481   2.095  11.117   1.941 -0.6299  0.4678  0.4296
  739MOL0     C97482   1.972  11.080   1.949  0.5846  0.2631  0.5208
  739MOL0     H97483   1.499  11.067   1.808 -0.1802 -0.6227 -1.4315
  739MOL0     H97484   1.272  10.923   1.798 -0.2286 -2.3751  0.1840
  739MOL0     H97485   1.242  10.576   2.031 -0.4854 -0.7572  0.9257
  739MOL0     H97486   1.173  10.511   1.893 -0.6891  1.2521 -1.4475
  739MOL0     H97487   1.072  10.766   2.041 -1.9290  2.3426 -2.2207
  739MOL0     H97488   1.004  10.599   2.055 -4.8356  1.0301 -2.4347
  739MOL0     H97489   0.989  10.778   1.810 -1.1660 -1.1560 -2.0465
  739MOL0     H97490   0.864  10.748   1.925  0.2560 -0.1973  0.3342
  739MOL0     H97491   0.865  10.633   1.708 -1.7711 -0.0164  1.1889
  739MOL0     H97492   1.006  10.534   1.733  1.5756 -1.3740  0.8908
  739MOL0     H97493   0.905  10.397   1.894 -1.9611  0.7505  4.3316
  739MOL0     H97494   0.791  10.426   1.763  0.2334  0.5458  0.0811
  739MOL0     H97495   0.680  10.605   1.920 -0.8415 -1.4021 -2.6304
  739MOL0     H97496   0.783  10.539   2.049 -1.2704 -3.0536  0.7550
  739MOL0     H97497   0.679  10.314   2.021  1.0045 -0.4708 -0.3293
  739MOL0     H97498   0.550  10.443   2.054 -0.4825  2.6570 -2.5935
  739MOL0     H97499   0.467  10.299   1.892 -0.2323  2.0134  1.8292
  739MOL0     H97500   0.610  10.289   1.796  0.8117  0.1066  1.6873
  739MOL0     H97501   0.318  10.517   1.916 -0.6499  1.2657 -0.5057
  739MOL0     H97502   0.159  10.650   1.679  3.7869 -4.0362 -0.4369
  739MOL0     H97503   0.260  10.786   1.619  0.6277 -1.2391 -1.1664
  739MOL0     H97504   0.322  10.811   1.874  0.6168 -2.2769  1.0772
  739MOL0     H97505   0.170  10.720   1.915 -1.0130  0.0840 -0.1322
  739MOL0     H97506   0.166  10.985   1.804  1.1592 -1.3092 -1.3873
  739MOL0     H97507   0.033  10.878   1.755 -0.9630  1.9016 -0.0476
  739MOL0     H97508   0.100  11.014   2.002 -2.3888  1.5791 -0.5012
  739MOL0     H97509   0.028  10.852   2.029  1.1006  1.0134  2.7701
  739MOL0     H97510  -0.303  11.014   1.841 -2.1039  0.6190  0.1883
  739MOL0     H97511  -0.499  10.860   1.888 -2.1388  0.1309  1.9334
  739MOL0     H97512  -0.659  10.467   2.191  1.3988  1.2084  0.1599
  739MOL0     H97513  -0.875  10.387   2.302 -0.3736 -1.9335  1.5739
  739MOL0     H97514  -1.143  10.687   2.536  0.3445  0.1757 -0.4813
  739MOL0     H97515  -1.008  10.630   2.643  0.0820 -1.1263  2.3515
  739MOL0     H97516  -1.132  10.420   2.679 -2.8498  0.1399  1.7792
  739MOL0     H97517  -1.244  10.462   2.554  0.5027 -1.2979 -0.6280
  739MOL0     H97518  -1.196  10.618   2.809  1.5468  1.9191 -2.2112
  739MOL0     H97519  -1.338  10.513   2.782  0.3170  1.5620  0.4788
  739MOL0     H97520  -1.297  10.779   2.652  1.8728 -0.7975  0.1809
  739MOL0     H97521  -1.405  10.651   2.589  2.1717  0.8369 -2.4187
  739MOL0     H97522  -1.420  10.723   2.883 -0.1636  0.5808 -0.6265
  739MOL0     H97523  -1.531  10.651   2.771  0.0245 -0.1000  2.0470
  739MOL0     H97524  -1.606  10.877   2.838  1.7372 -0.9978  1.2995
  739MOL0     H97525  -1.591  10.859   2.664 -1.5526 -3.5078  0.9166
  739MOL0     H97526  -1.380  10.975   2.847  1.4336 -3.6871 -1.2223
  739MOL0     H97527  -1.380  10.992   2.670 -0.1565 -1.0997  0.2677
  739MOL0     H97528  -1.601  11.105   2.673  0.1034  0.8527 -1.2702
  739MOL0     H97529  -1.466  11.199   2.754 -0.7192  0.5408  2.0838
  739MOL0     H97530  -0.897  10.760   2.520  1.5969 -1.3280  0.8932
  739MOL0     H97531  -0.662  10.816   2.421 -1.5026  1.4074 -1.8605
  739MOL0     H97532  -0.294  10.784   2.273 -2.2322 -0.3597  0.4423
  739MOL0     H97533  -0.097  10.875   2.186  1.1766  0.5199 -0.3068
  739MOL0     H97534   1.474  10.604   1.995  0.8857  0.5114  2.5464
  739MOL0     H97535   1.670  10.739   2.034 -1.2520 -0.2074  2.2144
  739MOL0     H97536   1.951  11.019   2.290  3.6775 -0.8117  1.6675
  739MOL0     H97537   2.191  11.091   2.264  0.8123  0.2702 -0.9135
  739MOL0     H97538   2.279  11.329   1.903 -0.7579 -0.5793 -0.1078
  739MOL0     H97539   2.425  11.348   1.986 -0.0779 -0.0338 -2.9710
  739MOL0     H97540   2.258  11.528   2.034  1.1788  0.8265 -0.6280
  739MOL0     H97541   2.149  11.410   2.115  0.4364 -1.1947 -1.4413
  739MOL0     H97542   2.423  11.501   2.196 -0.7611  1.9344 -1.7762
  739MOL0     H97543   2.334  11.360   2.280 -0.6586 -0.7180 -0.1286
  739MOL0     H97544   2.228  11.643   2.224  3.1378  0.6352 -0.3580
  739MOL0     H97545   2.186  11.541   2.363 -0.4001  1.5205  0.8983
  739MOL0     H97546   2.533  11.743   2.508  1.1202  0.9435 -0.8375
  739MOL0     H97547   2.128  11.151   1.844 -4.0007  0.0639 -0.9866
  739MOL0     H97548   1.900  11.084   1.868  0.3087  2.3699  0.8254
  740MOL0     O97549   9.299  10.268   6.958  0.1690  0.1898  0.5101
  740MOL0     C97550   9.232  10.361   6.910 -0.0150 -0.2314  0.3973
  740MOL0     O97551   9.273  10.489   6.898 -0.4627  0.6893 -0.1909
  740MOL0     C97552   9.406  10.514   6.862  0.3679  0.2436  0.3992
  740MOL0     C97553   9.427  10.598   6.747  1.3213  0.5431 -0.6130
  740MOL0     C97554   9.560  10.617   6.710  0.4503 -0.3417  0.3426
  740MOL0     C97555   9.671  10.565   6.774 -0.0179  0.1142 -0.6083
  740MOL0     O97556   9.791  10.574   6.708  0.8197 -0.4778 -0.6042
  740MOL0     C97557   9.915  10.548   6.790 -0.8838  0.4490  0.7437
  740MOL0     C97558  10.037  10.585   6.706 -0.7218  0.7743 -0.2939
  740MOL0     C97559  10.147  10.641   6.799  0.6769  1.0745 -0.0887
  740MOL0     C97560  10.256  10.715   6.715  0.5810 -0.2573 -0.5679
  740MOL0     C97561  10.361  10.754   6.817 -0.2169 -0.5633 -0.4300
  740MOL0     C97562  10.457  10.871   6.785  0.4012  0.4832 -0.2335
  740MOL0     C97563  10.580  10.881   6.880 -0.6642  0.5075 -1.0850
  740MOL0     C97564  10.670  10.999   6.838 -0.6730 -1.1449 -0.1652
  740MOL0     N97565  10.757  10.977   6.724 -0.1441  0.3020 -0.4374
  740MOL0     C97566  10.892  10.974   6.723 -0.0037 -0.2778  0.4088
  740MOL0     C97567  10.932  10.966   6.594  1.5207 -0.1536  0.9610
  740MOL0     C97568  11.077  10.968   6.548 -0.1273  0.0255  0.7238
  740MOL0     C97569  11.110  11.107   6.490 -0.1131  1.5330  0.9645
  740MOL0     C97570  11.121  11.216   6.591 -0.0308  0.0385 -0.8511
  740MOL0     C97571  11.184  11.330   6.508  0.4513  0.3792 -1.0467
  740MOL0     O97572  11.162  11.450   6.593  0.2501 -0.1100  0.0047
  740MOL0     C97573  11.047  11.523   6.560 -0.7086 -0.3975 -0.6753
  740MOL0     C97574  10.943  11.484   6.482  0.6428  0.1291  0.2269
  740MOL0     C97575  10.849  11.574   6.448 -0.0341  0.0624 -0.2058
  740MOL0     C97576  10.854  11.705   6.486  0.2210 -1.0064 -0.0753
  740MOL0     C97577  10.749  11.809   6.440  0.2882 -0.0383 -0.6765
  740MOL0     O97578  10.647  11.766   6.365 -0.1091 -0.4762 -0.7999
  740MOL0     C97579  10.579  11.869   6.311 -0.1229  0.4411 -0.0296
  740MOL0     C97580  10.437  11.898   6.336 -0.7629 -0.1828  0.4007
  740MOL0     C97581  10.374  12.002   6.277  0.1735  0.2902  0.3623
  740MOL0     C97582  10.439  12.085   6.182 -0.5441  0.1512 -0.2028
  740MOL0     O97583  10.374  12.179   6.107 -0.6354 -0.4364  0.0550
  740MOL0     C97584  10.404  12.182   5.962  0.0106 -0.5046 -0.3851
  740MOL0     C97585  10.312  12.268   5.877  1.4321 -0.8453 -0.5876
  740MOL0     C97586  10.318  12.411   5.920  0.3828  0.2493  0.7285
  740MOL0     C97587  10.174  12.486   5.928  0.5746 -0.1650  0.3698
  740MOL0     C97588  10.176  12.624   5.988 -0.7888 -0.0226  0.1360
  740MOL0     C97589  10.246  12.615   6.121  0.1775 -0.2509 -0.4045
  740MOL0     C97590  10.228  12.737   6.200  0.6520  0.3576  1.1271
  740MOL0     C97591  10.280  12.710   6.342  0.8000 -0.3319 -0.0615
  740MOL0    Cl97592  10.230  12.859   6.447 -0.0578  0.0607  0.0838
  740MOL0     C97593  10.570  12.049   6.146  0.7527 -0.0925 -0.0445
  740MOL0     C97594  10.645  11.950   6.214  0.3937 -0.5643 -0.6430
  740MOL0     O97595  10.782  11.929   6.471 -0.4898  0.9608 -0.1005
  740MOL0     C97596  10.949  11.741   6.577 -0.9547 -0.2438 -0.0129
  740MOL0     C97597  11.047  11.645   6.616 -0.8236  0.0796  1.7130
  740MOL0     N97598  10.823  10.976   6.513  0.2750 -0.0331 -0.0354
  740MOL0     N97599  10.714  10.985   6.592 -0.2844  0.2255  0.0593
  740MOL0     C97600   9.650  10.494   6.895  0.4756  0.0471 -1.0487
  740MOL0     C97601   9.514  10.465   6.936 -0.2245 -0.2697 -0.3899
  740MOL0     C97602   9.087  10.347   6.878  0.3659  0.4860 -0.5098
  740MOL0     C97603   9.004  10.447   6.822  0.1717 -0.2040  0.0316
  740MOL0     C97604   8.867  10.436   6.800  0.4145  0.4261 -0.0556
  740MOL0     C97605   8.803  10.311   6.826 -0.3647  0.2704  0.1516
  740MOL0     O97606   8.670  10.283   6.808 -0.8057 -0.4647 -0.7466
  740MOL0     C97607   8.579  10.396   6.792 -0.1704  0.5224 -0.1925
  740MOL0     C97608   8.454  10.323   6.750 -0.0223  0.2064 -1.1913
  740MOL0     C97609   8.403  10.248   6.870  0.0261  0.8743 -0.6972
  740MOL0     C97610   8.270  10.165   6.824 -0.9520 -0.5258 -0.9083
  740MOL0     C97611   8.201  10.091   6.936 -0.3851  0.8005 -0.4549
  740MOL0     C97612   8.175  10.014   7.028  0.4605  0.0314 -0.0775
  740MOL0     C97613   8.880  10.207   6.877 -0.2603  0.0882  0.4886
  740MOL0     C97614   9.016  10.230   6.908  0.4624 -0.1075  0.1529
  740MOL0     H97615   9.349  10.642   6.686 -0.0444 -1.8283 -0.7183
  740MOL0     H97616   9.581  10.660   6.613  0.8107 -0.8821  0.1759
  740MOL0     H97617   9.926  10.445   6.824 -0.7356  0.0696 -0.4043
  740MOL0     H97618   9.917  10.618   6.874 -0.6096 -0.3334  1.4022
  740MOL0     H97619  10.018  10.661   6.630  2.1430  1.8798 -0.0368
  740MOL0     H97620  10.075  10.500   6.650  0.9979  1.7476 -0.7003
  740MOL0     H97621  10.198  10.553   6.838  0.5097  1.2791  0.6001
  740MOL0     H97622  10.110  10.697   6.885 -0.0598  0.1427  0.2154
  740MOL0     H97623  10.294  10.659   6.629 -0.9403 -1.1070 -0.7176
  740MOL0     H97624  10.202  10.805   6.685  0.7736  0.4224  1.0455
  740MOL0     H97625  10.430  10.670   6.833  2.7986  1.4956 -1.7840
  740MOL0     H97626  10.318  10.781   6.915  0.3047 -0.3773 -0.2516
  740MOL0     H97627  10.392  10.959   6.792 -4.7905 -2.9216 -0.0526
  740MOL0     H97628  10.495  10.856   6.684  1.4398  3.0487 -0.3059
  740MOL0     H97629  10.551  10.897   6.984  0.5611 -1.2261 -0.4479
  740MOL0     H97630  10.638  10.789   6.868  0.7620  1.4780 -1.9271
  740MOL0     H97631  10.726  11.038   6.923 -2.2303 -0.8723  0.7707
  740MOL0     H97632  10.607  11.082   6.806 -0.0074 -0.4957  0.1885
  740MOL0     H97633  10.961  10.973   6.807 -0.4668 -0.4213  0.7898
  740MOL0     H97634  11.079  10.889   6.473 -1.5343  0.9204 -0.3327
  740MOL0     H97635  11.148  10.932   6.623  0.0591 -3.4627 -0.9367
  740MOL0     H97636  11.049  11.125   6.401  2.7963 -1.8248 -2.0000
  740MOL0     H97637  11.207  11.085   6.445 -1.1373 -3.3001  0.5482
  740MOL0     H97638  11.023  11.234   6.634  0.2978 -1.5145  0.6520
  740MOL0     H97639  11.196  11.187   6.666  2.0453  2.7639 -1.6776
  740MOL0     H97640  11.132  11.345   6.413  1.9700  0.5763 -1.8688
  740MOL0     H97641  11.290  11.318   6.488  0.6127  1.4270 -0.9007
  740MOL0     H97642  10.938  11.387   6.433  1.4991  1.6008 -3.0600
  740MOL0     H97643  10.769  11.552   6.379 -0.8117  2.1389 -0.0483
  740MOL0     H97644  10.382  11.836   6.406 -0.0897  1.7621  2.8102
  740MOL0     H97645  10.270  12.017   6.302 -0.2874 -0.9800 -0.6544
  740MOL0     H97646  10.394  12.084   5.914 -0.3718 -0.4241 -0.4712
  740MOL0     H97647  10.504  12.225   5.948 -0.5994  0.4604 -2.0753
  740MOL0     H97648  10.212  12.230   5.898  1.7146 -1.3019 -0.0293
  740MOL0     H97649  10.317  12.256   5.769 -0.0616  1.6779 -1.0251
  740MOL0     H97650  10.377  12.469   5.850  1.6270 -1.3500  0.3846
  740MOL0     H97651  10.377  12.411   6.012 -0.8593 -0.7330  1.5751
  740MOL0     H97652  10.143  12.499   5.824  1.4912 -1.0514 -0.0240
  740MOL0     H97653  10.109  12.414   5.978 -1.5014  0.3882 -1.3696
  740MOL0     H97654  10.075  12.666   5.996 -0.9373  0.7044 -3.6927
  740MOL0     H97655  10.228  12.679   5.909  2.7317 -5.1865 -1.7143
  740MOL0     H97656  10.355  12.617   6.108  0.4596  0.6009  1.5834
  740MOL0     H97657  10.223  12.521   6.172  1.5397 -1.2747 -1.6176
  740MOL0     H97658  10.277  12.819   6.147  0.2956  1.4621  2.4362
  740MOL0     H97659  10.121  12.757   6.207 -0.5971 -4.5062 -0.5034
  740MOL0     H97660  10.388  12.694   6.345  1.0259  1.1250  1.1499
  740MOL0     H97661  10.222  12.627   6.383 -1.5378  1.7249  1.0197
  740MOL0     H97662  10.622  12.115   6.078  0.3176  0.7979  0.4592
  740MOL0     H97663  10.751  11.940   6.190  0.7350 -0.9604  0.9068
  740MOL0     H97664  10.966  11.840   6.618 -0.7068 -0.0492 -0.5677
  740MOL0     H97665  11.127  11.677   6.682  0.5745  1.5093 -0.5387
  740MOL0     H97666   9.736  10.464   6.954 -1.8821 -1.6256  1.8449
  740MOL0     H97667   9.498  10.411   7.030  2.5017  2.0937  1.6076
  740MOL0     H97668   9.063  10.532   6.790 -0.3682  0.0461 -0.3177
  740MOL0     H97669   8.814  10.523   6.765  0.3294  0.2413 -0.3877
  740MOL0     H97670   8.611  10.463   6.712  3.1526  0.7097  1.0993
  740MOL0     H97671   8.572  10.454   6.885 -0.7856  0.8533 -0.4404
  740MOL0     H97672   8.380  10.396   6.716 -1.5651  0.2494  1.9100
  740MOL0     H97673   8.471  10.255   6.666 -1.7577  0.5959 -1.8984
  740MOL0     H97674   8.386  10.311   6.958  2.0272  0.3061  0.1511
  740MOL0     H97675   8.470  10.169   6.905 -0.8331  0.5844  0.3995
  740MOL0     H97676   8.206  10.242   6.779 -0.5222  0.1045 -0.4698
  740MOL0     H97677   8.298  10.100   6.741 -0.7040 -0.2285 -1.0591
  740MOL0     H97678   8.155   9.944   7.107  2.5887  0.0447  0.5147
  740MOL0     H97679   8.846  10.107   6.899 -2.4825  1.2153  2.7790
  740MOL0     H97680   9.061  10.138   6.944 -0.1339 -0.6295 -0.3968
  741MOL0     O97681   1.043   2.951  10.562 -0.3146 -0.9011  0.0363
  741MOL0     C97682   0.987   2.952  10.672  0.7682  0.3045  0.8800
  741MOL0     O97683   0.854   2.980  10.692  0.1244  0.0989 -0.2291
  741MOL0     C97684   0.763   2.993  10.590 -0.5648  1.0388 -0.1601
  741MOL0     C97685   0.634   2.973  10.638 -0.7623  0.0610 -0.0725
  741MOL0     C97686   0.530   2.969  10.541 -0.0611 -0.4672  0.7752
  741MOL0     C97687   0.550   2.987  10.407 -0.1550 -0.6605  0.8982
  741MOL0     O97688   0.455   3.005  10.316 -0.6369 -0.3627 -0.0451
  741MOL0     C97689   0.335   2.939  10.346 -0.2333  0.5350 -0.2412
  741MOL0     C97690   0.251   2.965  10.217 -0.5310  0.2562 -0.3629
  741MOL0     C97691   0.305   2.878  10.099 -0.4146 -0.1463 -0.1950
  741MOL0     C97692   0.433   2.935  10.032 -0.7093 -0.0620 -0.5492
  741MOL0     C97693   0.443   2.922   9.882  0.5315  0.4329 -0.7272
  741MOL0     C97694   0.498   2.787   9.842 -0.3222 -0.3062 -0.1578
  741MOL0     C97695   0.471   2.748   9.690 -0.3223  0.1070  0.3730
  741MOL0     C97696   0.336   2.724   9.634 -0.1367 -0.1124 -0.4114
  741MOL0     N97697   0.258   2.631   9.721  0.2878 -0.8787 -0.2338
  741MOL0     C97698   0.144   2.659   9.793  0.0509  0.6745 -0.0830
  741MOL0     C97699   0.121   2.549   9.865  0.2711 -0.0053 -0.3635
  741MOL0     C97700   0.007   2.502   9.938  0.5580  0.0486 -0.3968
  741MOL0     C97701  -0.041   2.596  10.052  0.6700  0.4369  0.2694
  741MOL0     C97702  -0.156   2.529  10.127  0.2808 -0.2459  0.0259
  741MOL0     C97703  -0.210   2.602  10.252  0.6193  0.2243  0.3737
  741MOL0     O97704  -0.112   2.675  10.331  0.6605 -0.1314 -0.1481
  741MOL0     C97705  -0.006   2.614  10.392  0.0626 -0.3221  0.1037
  741MOL0     C97706   0.012   2.478  10.412  0.6047 -0.1148  1.0107
  741MOL0     C97707   0.122   2.441  10.475  0.1547  0.1175 -0.9183
  741MOL0     C97708   0.223   2.525  10.523  1.1101 -0.3068 -0.4271
  741MOL0     C97709   0.341   2.463  10.582 -0.8171 -0.2503 -0.8285
  741MOL0     O97710   0.428   2.549  10.649 -0.0326 -0.2095  0.3259
  741MOL0     C97711   0.551   2.525  10.700 -0.0712  0.3144  0.5040
  741MOL0     C97712   0.604   2.643  10.753  0.2565  0.2343  0.4839
  741MOL0     C97713   0.732   2.660  10.796  0.0560  0.3431  0.7405
  741MOL0     C97714   0.814   2.543  10.798  0.9813 -0.4475 -0.1077
  741MOL0     O97715   0.940   2.576  10.843  0.4826  0.2563 -0.2906
  741MOL0     C97716   1.036   2.474  10.843 -0.6694 -0.7003  1.0246
  741MOL0     C97717   1.167   2.543  10.885  1.6636 -0.4358 -0.0911
  741MOL0     C97718   1.278   2.438  10.883 -0.5964 -0.7150 -0.3683
  741MOL0     C97719   1.409   2.502  10.908 -0.5455 -0.1605 -0.1935
  741MOL0     C97720   1.459   2.511  11.045 -1.3502 -0.0015  0.1192
  741MOL0     C97721   1.590   2.592  11.062 -0.8019 -0.4713 -0.1924
  741MOL0     C97722   1.658   2.556  11.197  0.2399  0.2255 -0.2876
  741MOL0     C97723   1.792   2.626  11.216 -0.6760 -0.5169 -0.1530
  741MOL0    Cl97724   1.830   2.660  11.390 -0.0382  0.3048  0.1247
  741MOL0     C97725   0.769   2.420  10.744 -0.3106  0.0792 -0.8496
  741MOL0     C97726   0.637   2.410  10.695 -0.8924 -0.0382 -0.5138
  741MOL0     O97727   0.365   2.343  10.562  0.3066 -0.2448 -0.5076
  741MOL0     C97728   0.204   2.665  10.516  0.1381 -0.2666  0.2865
  741MOL0     C97729   0.089   2.704  10.450  0.3193 -0.6549  0.3982
  741MOL0     N97730   0.219   2.460   9.840 -0.1559  0.2276 -0.5909
  741MOL0     N97731   0.299   2.499   9.752  0.4313 -0.1501  0.8028
  741MOL0     C97732   0.684   3.015  10.365  0.2662  0.2348  0.0399
  741MOL0     C97733   0.793   3.014  10.453 -0.3113 -0.4401 -0.3228
  741MOL0     C97734   1.073   2.943  10.794 -0.0770 -0.4656 -0.3238
  741MOL0     C97735   1.015   2.945  10.925 -0.2745  0.6621  0.2184
  741MOL0     C97736   1.095   2.919  11.037  0.3625 -0.8174 -0.3443
  741MOL0     C97737   1.233   2.898  11.018 -0.5279  1.0977 -1.0429
  741MOL0     O97738   1.323   2.849  11.118  0.0206 -0.0377 -0.4145
  741MOL0     C97739   1.276   2.850  11.248 -0.0204 -0.3688 -0.6185
  741MOL0     C97740   1.389   2.798  11.351 -0.0357  0.0338  1.3465
  741MOL0     C97741   1.334   2.827  11.494  0.9843  0.1543  0.4911
  741MOL0     C97742   1.456   2.851  11.585  0.4394  0.0818  0.7310
  741MOL0     C97743   1.413   2.863  11.725 -0.1029  0.2862 -0.6412
  741MOL0     C97744   1.402   2.882  11.845 -0.3954 -0.3299  0.3980
  741MOL0     C97745   1.290   2.904  10.894 -0.4478 -0.1766 -0.1652
  741MOL0     C97746   1.214   2.932  10.785  0.2474  0.2414  0.5968
  741MOL0     H97747   0.601   2.943  10.737 -1.7229  1.9258  0.2324
  741MOL0     H97748   0.429   2.949  10.575 -0.7463 -0.0918 -0.9141
  741MOL0     H97749   0.282   2.976  10.434 -0.2184 -3.0275  1.4731
  741MOL0     H97750   0.347   2.833  10.370  0.8269  0.5043 -0.7969
  741MOL0     H97751   0.274   3.070  10.199  2.5728 -0.1741  0.5122
  741MOL0     H97752   0.145   2.952  10.238 -0.7636  0.8512 -1.1492
  741MOL0     H97753   0.237   2.868  10.014  1.4338  0.3967 -1.8112
  741MOL0     H97754   0.338   2.779  10.132  2.0005  0.4890 -0.5695
  741MOL0     H97755   0.441   3.041  10.057  3.7846 -0.9367  2.9065
  741MOL0     H97756   0.516   2.881  10.078 -1.4994 -1.7959 -1.0428
  741MOL0     H97757   0.514   2.997   9.847  0.0879  1.1303 -0.1656
  741MOL0     H97758   0.350   2.954   9.833  0.9827  1.0364 -1.1899
  741MOL0     H97759   0.454   2.696   9.885 -2.0928  0.0610 -1.0905
  741MOL0     H97760   0.605   2.785   9.862 -0.3549 -1.5532 -0.0325
  741MOL0     H97761   0.535   2.818   9.634 -0.6325  1.4226  1.6146
  741MOL0     H97762   0.519   2.651   9.677 -0.0717  0.0668  1.4930
  741MOL0     H97763   0.338   2.675   9.537 -2.4001 -2.4179  0.5854
  741MOL0     H97764   0.283   2.820   9.623  0.4267  0.2458 -0.0793
  741MOL0     H97765   0.084   2.749   9.779 -1.0830 -0.2134 -1.1173
  741MOL0     H97766   0.038   2.410   9.988 -4.1803 -2.2406 -1.0955
  741MOL0     H97767  -0.077   2.486   9.870  0.0841 -1.7788  0.5505
  741MOL0     H97768  -0.070   2.693  10.009 -1.7731  0.7667  2.3980
  741MOL0     H97769   0.039   2.618  10.123  0.3825  0.4150  0.6043
  741MOL0     H97770  -0.241   2.506  10.061  0.2521  1.9109 -0.7684
  741MOL0     H97771  -0.113   2.435  10.162  0.6007 -0.8601 -1.9218
  741MOL0     H97772  -0.261   2.525  10.311 -0.5904  0.8047  0.1294
  741MOL0     H97773  -0.285   2.674  10.216  0.8282  0.4438  0.3790
  741MOL0     H97774  -0.033   2.406  10.345  3.2587  1.4492 -2.7820
  741MOL0     H97775   0.118   2.333  10.492 -1.4660  0.4701  1.3888
  741MOL0     H97776   0.544   2.733  10.748 -2.2796 -1.3539  0.4454
  741MOL0     H97777   0.776   2.752  10.832 -0.3665  0.3800  1.1757
  741MOL0     H97778   1.047   2.426  10.745 -1.1731  1.7953 -0.3280
  741MOL0     H97779   1.024   2.402  10.925 -0.8663 -1.4098  0.3809
  741MOL0     H97780   1.150   2.595  10.980 -0.7738 -1.3619  0.0506
  741MOL0     H97781   1.194   2.620  10.812 -0.1980  0.0968 -0.2833
  741MOL0     H97782   1.286   2.397  10.781 -1.6972  3.0898 -2.1752
  741MOL0     H97783   1.252   2.360  10.955  0.1335 -1.9170 -1.3442
  741MOL0     H97784   1.488   2.444  10.861 -0.4225 -1.4560  1.5021
  741MOL0     H97785   1.410   2.600  10.859  2.4201 -0.7158 -1.4756
  741MOL0     H97786   1.485   2.408  11.069  1.8670  0.0982 -2.3262
  741MOL0     H97787   1.386   2.561  11.110 -1.8269  0.2961 -0.6431
  741MOL0     H97788   1.567   2.699  11.057  1.7478  0.0784 -1.3473
  741MOL0     H97789   1.661   2.558  10.986 -1.2010  0.6468 -1.0962
  741MOL0     H97790   1.593   2.577  11.282  1.2528 -1.7123  1.0307
  741MOL0     H97791   1.678   2.449  11.188  1.8010  0.4621  0.0591
  741MOL0     H97792   1.783   2.718  11.159 -0.8715  0.8953  2.0192
  741MOL0     H97793   1.877   2.571  11.174 -0.9023 -2.7261  2.0104
  741MOL0     H97794   0.836   2.336  10.756  0.1974  0.3970 -1.4006
  741MOL0     H97795   0.622   2.310  10.657  1.9876 -1.0797  0.8413
  741MOL0     H97796   0.281   2.724  10.565 -2.1959  2.2522  1.1975
  741MOL0     H97797   0.057   2.808  10.455  1.9752  0.1096 -2.3762
  741MOL0     H97798   0.706   3.034  10.261  3.0673 -0.9531  0.3312
  741MOL0     H97799   0.886   3.052  10.412  0.5400 -1.8782  0.1817
  741MOL0     H97800   0.907   2.945  10.942 -0.3824 -0.8192 -0.3274
  741MOL0     H97801   1.054   2.912  11.137  0.5471 -4.7653 -0.3610
  741MOL0     H97802   1.194   2.782  11.270  1.7029 -2.5626 -0.6119
  741MOL0     H97803   1.240   2.946  11.285 -1.3632 -0.6213 -1.1983
  741MOL0     H97804   1.414   2.692  11.342  1.2240  0.2648  1.9156
  741MOL0     H97805   1.480   2.853  11.328 -1.6119  0.9900 -4.1476
  741MOL0     H97806   1.282   2.737  11.528 -1.1255  0.2068 -2.2229
  741MOL0     H97807   1.259   2.906  11.502 -1.0467 -1.2365 -2.6100
  741MOL0     H97808   1.534   2.774  11.577  1.2150  1.0027 -1.3971
  741MOL0     H97809   1.498   2.945  11.549 -0.8525 -0.4501 -2.4927
  741MOL0     H97810   1.404   2.905  11.949 -1.9259 -0.2406  0.4364
  741MOL0     H97811   1.393   2.873  10.880 -1.2764 -2.6704 -1.3197
  741MOL0     H97812   1.255   2.915  10.686  0.5525 -2.9361  1.1684
  742MOL0     O97813  10.710   0.377   2.863 -0.6899 -0.6918  0.1810
  742MOL0     C97814  10.777   0.406   2.962  0.6670 -0.8322 -0.1223
  742MOL0     O97815  10.733   0.449   3.086 -0.0781  0.5962  0.0654
  742MOL0     C97816  10.600   0.422   3.113 -0.6075  0.5266  0.8423
  742MOL0     C97817  10.512   0.323   3.063 -0.5052 -0.0143  2.3539
  742MOL0     C97818  10.378   0.311   3.111  0.4093  0.5277 -0.9014
  742MOL0     C97819  10.342   0.377   3.224 -0.1447 -0.7824 -0.1164
  742MOL0     O97820  10.215   0.349   3.262 -0.2620 -0.1966  0.3165
  742MOL0     C97821  10.155   0.430   3.360 -0.6366 -0.3743  0.5407
  742MOL0     C97822  10.010   0.392   3.379  0.3233  0.4572  0.4222
  742MOL0     C97823   9.943   0.462   3.499 -0.6473 -0.2603  0.6019
  742MOL0     C97824   9.954   0.610   3.497 -0.4709 -0.7301  1.7068
  742MOL0     C97825   9.830   0.685   3.571 -0.8956 -0.2588 -0.1664
  742MOL0     C97826   9.700   0.651   3.493  0.1054  0.2089  0.2830
  742MOL0     C97827   9.602   0.764   3.519 -0.7158  0.4042  0.9448
  742MOL0     C97828   9.534   0.756   3.647  0.4938  0.0334 -0.8485
  742MOL0     N97829   9.443   0.867   3.662  0.4387  0.0284  0.3227
  742MOL0     C97830   9.328   0.895   3.584 -0.6468 -0.4750 -0.2163
  742MOL0     C97831   9.268   0.995   3.651  0.4137 -0.3496 -0.0750
  742MOL0     C97832   9.131   1.023   3.612 -0.4173  0.0680 -0.5207
  742MOL0     C97833   9.038   0.904   3.624 -0.6205  0.3801  0.7172
  742MOL0     C97834   9.025   0.848   3.760  0.8965  0.1005 -0.6935
  742MOL0     C97835   8.886   0.785   3.792 -0.1091 -0.3608  0.0144
  742MOL0     O97836   8.785   0.885   3.809 -0.1067 -0.0080 -0.4994
  742MOL0     C97837   8.664   0.843   3.859 -0.0873  0.1654  0.2033
  742MOL0     C97838   8.587   0.929   3.941 -1.3850  1.1893 -0.0061
  742MOL0     C97839   8.459   0.900   3.980 -0.2219 -0.1384  0.3823
  742MOL0     C97840   8.399   0.774   3.957  0.6829 -0.5185  0.3920
  742MOL0     C97841   8.265   0.732   4.006  0.3342 -0.2980  0.6471
  742MOL0     O97842   8.234   0.598   4.001  0.4519 -0.3953 -0.2114
  742MOL0     C97843   8.098   0.552   4.007  0.7988 -0.2292 -0.4390
  742MOL0     C97844   8.042   0.528   4.135  0.8913  0.0376  0.2811
  742MOL0     C97845   7.910   0.472   4.151  0.0100 -0.4326  0.3779
  742MOL0     C97846   7.834   0.428   4.035  0.5256  0.2191 -0.8331
  742MOL0     O97847   7.704   0.384   4.042 -0.4417  0.1340  0.4345
  742MOL0     C97848   7.694   0.261   4.116  0.8074  0.1179  0.0539
  742MOL0     C97849   7.578   0.174   4.090 -0.0934  0.8970 -0.0770
  742MOL0     C97850   7.589   0.103   3.951  0.1611 -0.4844  0.2664
  742MOL0     C97851   7.462   0.026   3.918 -0.2873  0.1925  0.5370
  742MOL0     C97852   7.451  -0.021   3.777 -0.2015  0.1913  0.6093
  742MOL0     C97853   7.311  -0.059   3.754  0.1836  0.0383  0.5914
  742MOL0     C97854   7.283  -0.145   3.633 -0.6622 -0.4666  1.5080
  742MOL0     C97855   7.145  -0.109   3.570  0.4976  0.7715  0.1972
  742MOL0    Cl97856   7.138   0.070   3.527  0.0281 -0.1486 -0.1312
  742MOL0     C97857   7.890   0.471   3.908 -0.4579  0.2901 -0.5022
  742MOL0     C97858   8.016   0.524   3.891  0.1312  0.2124  0.7415
  742MOL0     O97859   8.186   0.824   4.046  0.5580 -0.7247  0.9182
  742MOL0     C97860   8.477   0.687   3.877  0.9480 -0.6110  0.1215
  742MOL0     C97861   8.609   0.719   3.841 -0.4880  0.3407  0.0470
  742MOL0     N97862   9.342   1.023   3.773  0.0595 -0.4405 -0.0279
  742MOL0     N97863   9.451   0.951   3.765  0.7581  0.9474 -0.0651
  742MOL0     C97864  10.432   0.469   3.281  1.1248 -0.2570 -0.4227
  742MOL0     C97865  10.555   0.493   3.219 -1.0980 -0.1901  0.8192
  742MOL0     C97866  10.921   0.424   2.943  0.4498  0.1544 -0.1928
  742MOL0     C97867  10.979   0.432   2.815 -1.4449  0.1299  0.2864
  742MOL0     C97868  11.117   0.467   2.813  0.4160  0.2685 -0.2033
  742MOL0     C97869  11.197   0.486   2.930 -0.6271  0.1809  0.3143
  742MOL0     O97870  11.335   0.509   2.900 -0.5325 -0.3445  0.4447
  742MOL0     C97871  11.403   0.566   3.002  0.0356 -0.0586  0.7461
  742MOL0     C97872  11.544   0.618   2.959 -0.4241  0.1445  0.5010
  742MOL0     C97873  11.549   0.714   2.837  0.1757 -0.3681  0.6910
  742MOL0     C97874  11.680   0.768   2.788  0.8566 -0.5297  0.7172
  742MOL0     C97875  11.766   0.651   2.765  0.4946 -0.2350 -0.1464
  742MOL0     C97876  11.828   0.543   2.760 -1.1027 -0.3800 -1.3207
  742MOL0     C97877  11.129   0.479   3.054  0.4686 -1.1093 -0.0726
  742MOL0     C97878  10.997   0.452   3.054 -0.2178  0.9408  0.0661
  742MOL0     H97879  10.526   0.265   2.972 -4.3092  3.0908 -0.5963
  742MOL0     H97880  10.304   0.235   3.085  1.0506 -1.8847  3.2688
  742MOL0     H97881  10.165   0.537   3.338  0.7081  0.2582  3.7079
  742MOL0     H97882  10.216   0.409   3.449 -1.5321  3.6833  2.3387
  742MOL0     H97883  10.002   0.284   3.396  0.0161  0.9135  3.8007
  742MOL0     H97884   9.963   0.420   3.284  2.4374  1.1476 -0.4815
  742MOL0     H97885   9.989   0.428   3.592  0.0182 -0.9055  0.0516
  742MOL0     H97886   9.837   0.443   3.486 -0.3529 -0.6316 -1.6698
  742MOL0     H97887  10.050   0.639   3.541 -0.2779  1.4075  0.0336
  742MOL0     H97888   9.949   0.652   3.396 -1.1850  0.0995  2.0727
  742MOL0     H97889   9.854   0.792   3.567  2.8886 -1.0173 -1.5007
  742MOL0     H97890   9.827   0.648   3.674  0.9220 -2.0813 -0.7014
  742MOL0     H97891   9.652   0.554   3.512  0.2921 -0.2797 -1.5366
  742MOL0     H97892   9.723   0.660   3.386  1.5555  0.3022  0.5831
  742MOL0     H97893   9.639   0.866   3.510 -2.9454  1.1444 -1.0839
  742MOL0     H97894   9.530   0.758   3.436  0.2206  0.5200  0.1022
  742MOL0     H97895   9.603   0.772   3.730 -2.2319  0.8210  1.3923
  742MOL0     H97896   9.484   0.659   3.650 -0.7939  0.3858 -4.7345
  742MOL0     H97897   9.299   0.858   3.486 -0.4178 -2.8707  0.5339
  742MOL0     H97898   9.137   1.054   3.507 -0.0681 -3.3312 -1.6600
  742MOL0     H97899   9.097   1.108   3.671 -0.0680  0.1216 -0.3952
  742MOL0     H97900   9.055   0.826   3.550  0.3897  0.6167  0.6884
  742MOL0     H97901   8.941   0.954   3.615 -0.1214  1.4074  0.8072
  742MOL0     H97902   9.096   0.765   3.763 -0.6859 -1.3366 -1.1999
  742MOL0     H97903   9.055   0.923   3.834  2.6621 -0.1144 -1.1541
  742MOL0     H97904   8.886   0.713   3.874 -0.4821  0.1700  0.4899
  742MOL0     H97905   8.854   0.734   3.701 -0.2069  0.9716 -0.7307
  742MOL0     H97906   8.632   1.025   3.965 -2.1951  0.9742  2.7951
  742MOL0     H97907   8.395   0.980   4.014 -0.9388 -0.8715  0.7911
  742MOL0     H97908   8.112   0.568   4.208 -0.9960  1.2755  1.4875
  742MOL0     H97909   7.876   0.467   4.254  1.9714  0.5688  1.1323
  742MOL0     H97910   7.679   0.294   4.219 -0.1266  0.5845 -0.2142
  742MOL0     H97911   7.786   0.204   4.108  0.5019 -0.0927 -2.8761
  742MOL0     H97912   7.494   0.244   4.086 -2.0970 -1.2000  1.8068
  742MOL0     H97913   7.558   0.104   4.171 -2.5877  1.8970  0.2681
  742MOL0     H97914   7.678   0.040   3.951  1.3265  0.8958  3.7807
  742MOL0     H97915   7.603   0.182   3.876  1.0438 -1.0031 -0.1316
  742MOL0     H97916   7.460  -0.070   3.970 -1.4500 -1.5485 -2.4463
  742MOL0     H97917   7.382   0.097   3.942 -1.2360 -0.1947 -1.2788
  742MOL0     H97918   7.528  -0.096   3.757 -0.1772  0.2778  0.3771
  742MOL0     H97919   7.466   0.062   3.707  0.5011 -2.1953 -2.2489
  742MOL0     H97920   7.251   0.032   3.747 -0.4809 -0.3243  1.4401
  742MOL0     H97921   7.281  -0.117   3.842  1.5361 -3.0162 -0.8175
  742MOL0     H97922   7.359  -0.129   3.556  0.0296 -0.0285  2.2800
  742MOL0     H97923   7.270  -0.253   3.647  0.7338 -0.5117  2.5784
  742MOL0     H97924   7.073  -0.123   3.651  1.2424  0.5642  0.8464
  742MOL0     H97925   7.113  -0.158   3.478 -1.6524  0.5076  1.0369
  742MOL0     H97926   7.839   0.462   3.813 -0.0911 -1.9865 -0.5428
  742MOL0     H97927   8.047   0.531   3.787 -0.8263 -0.7320  0.3781
  742MOL0     H97928   8.433   0.591   3.853  0.2431 -0.0843 -0.7957
  742MOL0     H97929   8.650   0.634   3.789 -0.2156 -1.2695  2.6859
  742MOL0     H97930  10.408   0.525   3.372  2.5642  0.7179 -0.6153
  742MOL0     H97931  10.622   0.559   3.274 -0.7726 -0.1743  0.4108
  742MOL0     H97932  10.934   0.403   2.721 -0.5921  1.5684 -0.5943
  742MOL0     H97933  11.159   0.475   2.714 -2.5632 -1.6058 -1.7774
  742MOL0     H97934  11.415   0.493   3.083 -2.5624 -1.0107  0.3822
  742MOL0     H97935  11.339   0.641   3.049  0.6457 -0.4200  2.1948
  742MOL0     H97936  11.596   0.654   3.049 -1.6694 -0.1813  1.3860
  742MOL0     H97937  11.593   0.521   2.947 -0.7343 -0.2547  2.1387
  742MOL0     H97938  11.482   0.800   2.854  0.3506  0.7787 -3.3631
  742MOL0     H97939  11.509   0.666   2.747 -1.8328 -0.2911  1.4865
  742MOL0     H97940  11.680   0.852   2.718  3.6642 -0.7925  0.2680
  742MOL0     H97941  11.720   0.816   2.877 -1.9578 -0.2817  1.9275
  742MOL0     H97942  11.898   0.462   2.766 -1.4889 -0.6645 -0.4673
  742MOL0     H97943  11.176   0.499   3.150 -0.3085 -0.4355  0.1794
  742MOL0     H97944  10.964   0.431   3.155 -0.4146  0.1935 -0.1508
  743MOL0     O97945  11.333   6.767  11.270  0.8543  0.0329  0.2178
  743MOL0     C97946  11.387   6.805  11.373  0.0379  0.6639  0.2689
  743MOL0     O97947  11.344   6.911  11.446 -0.9172  0.3879  1.5439
  743MOL0     C97948  11.231   6.973  11.408  1.0338 -0.0698  0.7147
  743MOL0     C97949  11.107   6.904  11.424  0.8041 -0.0089  0.9426
  743MOL0     C97950  10.988   6.974  11.422 -0.3947 -0.6002  0.2073
  743MOL0     C97951  10.981   7.112  11.396 -0.3753 -0.2601  0.2750
  743MOL0     O97952  10.851   7.166  11.386  0.0581 -0.3234  0.0994
  743MOL0     C97953  10.826   7.203  11.255 -0.7222 -0.7925  0.8753
  743MOL0     C97954  10.680   7.260  11.256 -0.2256  0.3712  0.7417
  743MOL0     C97955  10.675   7.393  11.330 -0.0090  0.7132  0.4268
  743MOL0     C97956  10.538   7.454  11.344  0.6061  1.0527  0.4211
  743MOL0     C97957  10.545   7.588  11.418  0.0064  0.6229  0.0892
  743MOL0     C97958  10.405   7.644  11.386  0.2262 -0.5423 -0.7056
  743MOL0     C97959  10.386   7.789  11.446 -0.4550  0.0939  0.6734
  743MOL0     C97960  10.495   7.890  11.398 -0.5587  0.2264  0.0165
  743MOL0     N97961  10.433   8.019  11.449  0.7066  0.4253  0.2902
  743MOL0     C97962  10.423   8.129  11.368 -0.3230  0.3360  1.1816
  743MOL0     C97963  10.421   8.238  11.448  0.0037  0.0887  0.7185
  743MOL0     C97964  10.409   8.378  11.407  0.3905  0.2514 -0.2079
  743MOL0     C97965  10.374   8.401  11.262 -0.0220 -0.1812  0.7895
  743MOL0     C97966  10.239   8.340  11.239  0.4034  0.8622  0.2710
  743MOL0     C97967  10.173   8.420  11.119 -0.6645  1.3394  0.3169
  743MOL0     O97968  10.131   8.553  11.149  0.0627 -1.0259 -0.4478
  743MOL0     C97969  10.011   8.582  11.106  0.8907 -0.6640 -0.0208
  743MOL0     C97970   9.974   8.599  10.970 -0.8198 -1.1387  0.9740
  743MOL0     C97971   9.839   8.607  10.935 -0.0343 -0.9968 -0.8087
  743MOL0     C97972   9.739   8.622  11.026 -0.2166  0.0960  0.2233
  743MOL0     C97973   9.596   8.647  10.990  0.2354 -0.1479  0.0714
  743MOL0     O97974   9.506   8.632  11.102  0.4021  0.4391  0.5408
  743MOL0     C97975   9.368   8.613  11.067 -0.5535  0.3809 -0.3025
  743MOL0     C97976   9.313   8.486  11.108  0.0076  0.6521  0.2873
  743MOL0     C97977   9.182   8.448  11.073 -0.5527 -0.4531 -0.0155
  743MOL0     C97978   9.108   8.533  10.995  0.3766 -0.4261 -0.7613
  743MOL0     O97979   8.983   8.495  10.947 -0.4171 -0.1888  0.3171
  743MOL0     C97980   8.898   8.424  11.049  0.4384 -0.0774 -0.6293
  743MOL0     C97981   8.751   8.459  11.018  0.6400  0.8707 -0.3383
  743MOL0     C97982   8.661   8.362  11.102 -0.5011 -0.7084  0.4624
  743MOL0     C97983   8.511   8.376  11.056 -0.1468 -0.4488  0.3750
  743MOL0     C97984   8.499   8.316  10.916  0.0769  0.7901  0.9741
  743MOL0     C97985   8.358   8.309  10.851  0.3507  0.2554 -0.1047
  743MOL0     C97986   8.282   8.439  10.834 -0.6228  0.3994 -0.4680
  743MOL0     C97987   8.154   8.411  10.762  0.2159  1.1291  0.8212
  743MOL0    Cl97988   8.038   8.305  10.853 -0.0893 -0.0205  0.1594
  743MOL0     C97989   9.161   8.658  10.950  0.7518  0.4789  0.3658
  743MOL0     C97990   9.291   8.691  10.978  0.1811 -0.4229 -0.7281
  743MOL0     O97991   9.569   8.658  10.870  0.7055  0.0068  0.2110
  743MOL0     C97992   9.781   8.621  11.166 -0.0349  0.5570 -0.0219
  743MOL0     C97993   9.914   8.598  11.203 -0.1794 -1.0571  0.4259
  743MOL0     N97994  10.435   8.193  11.567 -0.3545 -0.5485  0.2162
  743MOL0     N97995  10.428   8.067  11.577 -0.5486  0.2741  0.1240
  743MOL0     C97996  11.104   7.169  11.359 -0.0620 -0.4042  0.2670
  743MOL0     C97997  11.229   7.105  11.375 -0.1644  0.7781 -0.1069
  743MOL0     C97998  11.505   6.722  11.417  0.2640  0.1117 -0.3612
  743MOL0     C97999  11.579   6.765  11.533  1.1403 -0.2926 -0.7618
  743MOL0     C98000  11.685   6.690  11.574  0.9481  0.2031  0.2659
  743MOL0     C98001  11.725   6.569  11.509  1.0038  0.1061 -0.2609
  743MOL0     O98002  11.836   6.501  11.551 -0.3225 -0.1788 -1.2684
  743MOL0     C98003  11.837   6.356  11.524 -0.7911  0.5446  0.6280
  743MOL0     C98004  11.920   6.290  11.630  0.3128  0.2397  0.6648
  743MOL0     C98005  11.908   6.141  11.621 -0.4954  0.1056 -0.1119
  743MOL0     C98006  12.033   6.064  11.676  0.4225  0.2386 -0.1156
  743MOL0     C98007  12.035   5.916  11.639 -0.1122  0.0675 -0.2040
  743MOL0     C98008  12.040   5.797  11.626 -0.2466  0.7744  1.0215
  743MOL0     C98009  11.653   6.537  11.398 -0.1843 -0.1958  0.3246
  743MOL0     C98010  11.540   6.608  11.360 -0.0276 -0.3316 -0.0972
  743MOL0     H98011  11.106   6.802  11.460 -1.1311 -1.0785 -1.7849
  743MOL0     H98012  10.893   6.924  11.439  0.0484 -0.5458  3.5611
  743MOL0     H98013  10.838   7.124  11.181 -0.0105 -0.2443  0.3891
  743MOL0     H98014  10.896   7.281  11.224  0.7526 -1.2544  2.8531
  743MOL0     H98015  10.615   7.184  11.301  2.9694 -3.3832 -0.3759
  743MOL0     H98016  10.646   7.280  11.154 -3.1426 -1.6195  1.1964
  743MOL0     H98017  10.741   7.465  11.281 -1.0467  1.2403 -0.2293
  743MOL0     H98018  10.718   7.381  11.430  1.5271 -2.2858 -0.4873
  743MOL0     H98019  10.502   7.474  11.243 -1.2985  1.4036  1.1280
  743MOL0     H98020  10.484   7.380  11.405  2.8725  0.9483  2.4415
  743MOL0     H98021  10.615   7.654  11.366  1.0735 -1.4027 -1.1604
  743MOL0     H98022  10.573   7.578  11.523  0.6685 -0.7399 -0.2025
  743MOL0     H98023  10.330   7.587  11.442 -1.7833  2.6426  0.1186
  743MOL0     H98024  10.372   7.642  11.281 -2.5309 -0.2023  0.0626
  743MOL0     H98025  10.280   7.805  11.427 -0.2830 -0.1932 -0.6535
  743MOL0     H98026  10.403   7.776  11.553  1.6781 -4.7462 -0.0144
  743MOL0     H98027  10.515   7.885  11.290  0.1068  0.1734  0.1403
  743MOL0     H98028  10.581   7.855  11.456  0.6976  1.7023 -0.8537
  743MOL0     H98029  10.435   8.127  11.260 -2.9654 -0.2296  0.8152
  743MOL0     H98030  10.507   8.418  11.435  0.5758 -0.5257  0.2824
  743MOL0     H98031  10.337   8.426  11.473 -1.5858 -1.3506 -1.0831
  743MOL0     H98032  10.445   8.360  11.189  1.7525  2.0231  1.1386
  743MOL0     H98033  10.370   8.507  11.235  0.8382  0.1462  1.8662
  743MOL0     H98034  10.248   8.233  11.221  0.3541  0.5274  2.0379
  743MOL0     H98035  10.177   8.344  11.329 -2.2225 -2.2288 -1.1826
  743MOL0     H98036  10.085   8.360  11.093  1.3404 -1.1099 -1.3323
  743MOL0     H98037  10.245   8.424  11.038 -0.8218  2.5545  0.2253
  743MOL0     H98038  10.048   8.587  10.891  0.3743  1.6904  1.5575
  743MOL0     H98039   9.812   8.608  10.830  0.0146 -0.2007 -0.8237
  743MOL0     H98040   9.365   8.415  11.171  0.1320  1.4204  1.0732
  743MOL0     H98041   9.151   8.348  11.099  1.1089 -0.9479  0.1759
  743MOL0     H98042   8.928   8.440  11.153  2.6952 -4.2404 -0.4219
  743MOL0     H98043   8.909   8.316  11.038 -1.8622 -0.1990 -2.5554
  743MOL0     H98044   8.745   8.450  10.909  2.4550  1.4995 -0.5355
  743MOL0     H98045   8.716   8.562  11.031 -3.6333 -0.4517  0.3146
  743MOL0     H98046   8.657   8.385  11.209  2.7097 -0.7622  0.7119
  743MOL0     H98047   8.693   8.258  11.097 -0.1809 -0.6469  1.1757
  743MOL0     H98048   8.457   8.314  11.128 -0.0179  0.0706  0.9333
  743MOL0     H98049   8.465   8.474  11.068 -2.4282 -1.3649 -0.4314
  743MOL0     H98050   8.562   8.227  10.914 -0.6279  0.2694 -1.3512
  743MOL0     H98051   8.553   8.369  10.837 -1.7262  2.7699  0.9630
  743MOL0     H98052   8.295   8.240  10.909  0.3386 -0.0010 -0.4205
  743MOL0     H98053   8.372   8.266  10.751 -0.4502  0.6862 -0.4101
  743MOL0     H98054   8.262   8.476  10.935 -0.8660 -2.6826  0.7212
  743MOL0     H98055   8.345   8.502  10.771  0.6005  1.5086  1.7603
  743MOL0     H98056   8.173   8.358  10.668  0.4022  2.0092  0.3571
  743MOL0     H98057   8.102   8.504  10.738 -0.4997  0.3074 -1.0565
  743MOL0     H98058   9.098   8.717  10.884 -0.9830 -0.8047  0.8203
  743MOL0     H98059   9.340   8.781  10.945  1.5630  0.4391  3.1058
  743MOL0     H98060   9.702   8.641  11.237  0.4636 -0.9114  0.9939
  743MOL0     H98061   9.947   8.614  11.306  3.8456  2.1038 -1.0689
  743MOL0     H98062  11.093   7.276  11.346 -1.3563 -0.7772 -2.4722
  743MOL0     H98063  11.326   7.154  11.374  1.1469 -1.6614 -1.8764
  743MOL0     H98064  11.552   6.861  11.574 -0.8182 -0.2314 -2.1074
  743MOL0     H98065  11.747   6.718  11.659 -1.8818  3.0138  1.6016
  743MOL0     H98066  11.887   6.320  11.433 -0.3056 -1.1713  1.5347
  743MOL0     H98067  11.739   6.308  11.531  0.0275 -1.0744  1.4106
  743MOL0     H98068  12.024   6.324  11.621  0.4036 -0.3762 -1.0909
  743MOL0     H98069  11.882   6.306  11.731 -1.6290 -1.8827  0.3547
  743MOL0     H98070  11.912   6.114  11.515  2.8961  2.2451 -0.6880
  743MOL0     H98071  11.821   6.116  11.682  0.1295  1.7596  1.5397
  743MOL0     H98072  12.125   6.112  11.642  0.7178  1.3830  2.0687
  743MOL0     H98073  12.046   6.065  11.785  1.2421 -0.8120 -0.1833
  743MOL0     H98074  12.040   5.691  11.610 -0.0536  0.7028  1.4725
  743MOL0     H98075  11.683   6.450  11.340  3.7148  1.1001  0.1442
  743MOL0     H98076  11.475   6.566  11.285  0.3496 -0.4917 -0.3400
  744MOL0     O98077   1.529   9.216  10.080 -0.3763 -0.1329  0.6452
  744MOL0     C98078   1.428   9.143  10.090 -0.7811 -1.0122  0.5768
  744MOL0     O98079   1.331   9.150  10.182 -0.0413 -0.3981  1.5032
  744MOL0     C98080   1.324   9.235  10.287 -0.5141  0.8003 -0.3515
  744MOL0     C98081   1.432   9.283  10.364 -0.0146 -0.2544 -0.1443
  744MOL0     C98082   1.409   9.382  10.466  0.5612 -1.0598  0.2813
  744MOL0     C98083   1.276   9.410  10.513 -0.0605 -0.5189  0.8956
  744MOL0     O98084   1.249   9.506  10.612  0.1346  0.5240  0.2810
  744MOL0     C98085   1.174   9.613  10.561  0.2650  0.1068  1.0135
  744MOL0     C98086   1.100   9.696  10.670 -0.7689  0.5477 -0.0671
  744MOL0     C98087   1.194   9.784  10.756 -0.3781  0.2147 -0.0327
  744MOL0     C98088   1.117   9.863  10.862 -0.6179 -0.4547  0.8838
  744MOL0     C98089   1.209   9.967  10.932 -0.4171 -0.3782 -0.3511
  744MOL0     C98090   1.332   9.913  11.020  0.2398  0.2322 -0.8271
  744MOL0     C98091   1.392  10.031  11.096  0.5793 -0.5308 -0.6430
  744MOL0     C98092   1.492   9.993  11.203 -0.3526  0.1633  0.2757
  744MOL0     N98093   1.512  10.105  11.288 -0.2223 -0.0814 -0.2239
  744MOL0     C98094   1.637  10.167  11.320 -0.4029  0.3382 -0.3798
  744MOL0     C98095   1.603  10.233  11.435 -0.9688 -1.1294  1.0697
  744MOL0     C98096   1.711  10.305  11.519 -0.1868  0.1898  0.3425
  744MOL0     C98097   1.705  10.268  11.675  0.5036  1.1611 -0.4263
  744MOL0     C98098   1.826  10.321  11.761 -0.6192 -0.5945 -0.9913
  744MOL0     C98099   1.815  10.281  11.909  0.1088 -0.4987  0.1044
  744MOL0     O98100   1.874  10.154  11.939  0.7072 -0.2991  0.0155
  744MOL0     C98101   1.774  10.065  11.980 -0.7762 -0.4532 -1.0695
  744MOL0     C98102   1.716  10.074  12.116  0.1192  0.1901 -0.7302
  744MOL0     C98103   1.602  10.004  12.150 -0.0157  0.1171 -0.6755
  744MOL0     C98104   1.531   9.912  12.067 -0.0790 -0.6906  0.7605
  744MOL0     C98105   1.402   9.849  12.098 -0.2546  0.4008 -0.5618
  744MOL0     O98106   1.337   9.794  11.998  0.3367  0.4055 -0.6306
  744MOL0     C98107   1.219   9.732  12.034  0.0734  0.0687  0.2377
  744MOL0     C98108   1.219   9.601  12.080  0.4126 -0.5196 -0.3129
  744MOL0     C98109   1.095   9.545  12.126  0.2572 -0.1715  0.2898
  744MOL0     C98110   0.973   9.615  12.118 -1.0440 -0.6485  1.0970
  744MOL0     O98111   0.859   9.560  12.167  0.3374  0.3370 -0.0885
  744MOL0     C98112   0.755   9.643  12.229  0.7842  0.0845  1.3137
  744MOL0     C98113   0.684   9.551  12.316 -0.0110 -0.5305 -0.4191
  744MOL0     C98114   0.527   9.565  12.307 -0.5392  0.3592  0.7424
  744MOL0     C98115   0.467   9.489  12.192 -1.3617  0.5835 -0.1873
  744MOL0     C98116   0.321   9.492  12.195  0.6656 -0.3294 -0.7885
  744MOL0     C98117   0.235   9.438  12.322 -0.2428  0.1742 -0.1154
  744MOL0     C98118   0.266   9.284  12.329 -0.0329  1.0237 -0.7915
  744MOL0     C98119   0.203   9.207  12.453  0.1697  0.1855 -0.7237
  744MOL0    Cl98120   0.025   9.211  12.438 -0.2457  0.1910  0.0102
  744MOL0     C98121   0.982   9.744  12.068 -0.3204  0.0536 -0.8851
  744MOL0     C98122   1.100   9.801  12.021  0.2853 -0.6031 -0.5358
  744MOL0     O98123   1.371   9.842  12.218 -0.9315 -0.6602 -0.1600
  744MOL0     C98124   1.591   9.895  11.933 -0.5755  1.0915 -0.0302
  744MOL0     C98125   1.708   9.972  11.894 -0.1713 -0.3028  0.2846
  744MOL0     N98126   1.470  10.215  11.468  0.4034  0.7075 -0.2422
  744MOL0     N98127   1.416  10.137  11.378 -1.1221 -0.5027 -0.7816
  744MOL0     C98128   1.169   9.348  10.444 -0.4204  0.4717 -0.9439
  744MOL0     C98129   1.198   9.268  10.328  0.5033 -0.8555 -1.2512
  744MOL0     C98130   1.409   9.034   9.996  0.7176  0.4502  1.3540
  744MOL0     C98131   1.283   8.972   9.979  0.8590  0.5308  0.1288
  744MOL0     C98132   1.275   8.860   9.896  0.2248 -0.4223 -0.0861
  744MOL0     C98133   1.385   8.802   9.831 -0.9531  0.7098 -1.3673
  744MOL0     O98134   1.369   8.698   9.748 -0.0722 -0.2391 -0.0916
  744MOL0     C98135   1.486   8.618   9.716  0.2147  0.4357 -0.4371
  744MOL0     C98136   1.457   8.521   9.610  0.8253  0.5004  1.1261
  744MOL0     C98137   1.443   8.590   9.472 -0.1788  0.9235  0.1509
  744MOL0     C98138   1.403   8.487   9.361 -0.8423 -0.2000 -0.3778
  744MOL0     C98139   1.323   8.372   9.408  0.5337 -0.0042  0.2854
  744MOL0     C98140   1.277   8.277   9.464 -0.1537 -0.4642 -0.1875
  744MOL0     C98141   1.508   8.867   9.845 -0.7793  0.2613 -0.3334
  744MOL0     C98142   1.518   8.987   9.917  1.1159 -0.0115  0.6303
  744MOL0     H98143   1.530   9.262  10.322 -0.6298 -0.9407 -1.2832
  744MOL0     H98144   1.490   9.431  10.519 -0.2655  0.7985 -0.0904
  744MOL0     H98145   1.089   9.578  10.501  0.3854 -0.8376  1.3802
  744MOL0     H98146   1.230   9.680  10.496 -1.4783  1.9201  1.2809
  744MOL0     H98147   1.049   9.627  10.737  2.0581 -1.4247  0.2146
  744MOL0     H98148   1.019   9.759  10.632 -3.7070 -2.7563  0.2207
  744MOL0     H98149   1.250   9.848  10.687  1.8586 -2.2501 -0.6796
  744MOL0     H98150   1.260   9.717  10.811 -0.0072  1.8461  1.5935
  744MOL0     H98151   1.043   9.927  10.812 -0.4711 -1.2595 -0.4161
  744MOL0     H98152   1.059   9.811  10.939 -1.3920 -1.0137 -0.0486
  744MOL0     H98153   1.152  10.028  11.001  0.2063  2.2339 -2.0230
  744MOL0     H98154   1.252  10.035  10.857  0.4682  1.0930  1.4306
  744MOL0     H98155   1.399   9.866  10.948  0.6459 -0.0579 -0.2672
  744MOL0     H98156   1.291   9.856  11.104  0.2224  2.9807  1.1728
  744MOL0     H98157   1.436  10.101  11.025  1.0330  2.1287  2.0729
  744MOL0     H98158   1.301  10.069  11.143  0.0882 -2.7169  0.3336
  744MOL0     H98159   1.586   9.949  11.170  0.9180  0.7488  2.8705
  744MOL0     H98160   1.448   9.916  11.267  3.5224 -3.2525 -0.7440
  744MOL0     H98161   1.740  10.159  11.285 -0.6654 -2.5419 -0.6983
  744MOL0     H98162   1.689  10.412  11.508 -0.4717 -0.1004 -2.5320
  744MOL0     H98163   1.807  10.278  11.474 -1.1345  0.0169 -1.6936
  744MOL0     H98164   1.695  10.160  11.695  0.5571  1.1792 -0.2968
  744MOL0     H98165   1.621  10.324  11.717  0.9293  1.2140  0.3824
  744MOL0     H98166   1.917  10.276  11.719  0.9131  1.2970  0.1466
  744MOL0     H98167   1.845  10.428  11.769 -1.3024 -0.5715  0.5381
  744MOL0     H98168   1.709  10.288  11.932  0.0682  1.2895 -0.4805
  744MOL0     H98169   1.866  10.360  11.966 -0.6864  2.1172 -2.5485
  744MOL0     H98170   1.762  10.138  12.191 -1.9550  0.4980  0.3484
  744MOL0     H98171   1.579  10.012  12.256  3.9831 -0.7880  0.4264
  744MOL0     H98172   1.315   9.551  12.085  0.8179  0.3426  1.0575
  744MOL0     H98173   1.095   9.445  12.169  0.3723 -0.0845  0.4915
  744MOL0     H98174   0.684   9.679  12.154 -0.1989  1.1184  2.6970
  744MOL0     H98175   0.800   9.720  12.292  0.8049  0.2118  1.1447
  744MOL0     H98176   0.698   9.589  12.417 -1.9509 -0.1241 -0.2699
  744MOL0     H98177   0.725   9.450  12.322  2.0153  0.2538 -0.1567
  744MOL0     H98178   0.499   9.669  12.293  0.5801  0.4651 -1.1393
  744MOL0     H98179   0.490   9.527  12.403  3.9099 -1.9005  1.8676
  744MOL0     H98180   0.512   9.526  12.099 -3.8581 -3.0726 -3.1804
  744MOL0     H98181   0.490   9.382  12.193  2.3850  1.2333 -1.0085
  744MOL0     H98182   0.295   9.443  12.101  0.9462 -0.8715 -0.5819
  744MOL0     H98183   0.305   9.600  12.193  2.9192  0.1188  0.7921
  744MOL0     H98184   0.128   9.445  12.298 -0.0591 -0.7091 -1.2497
  744MOL0     H98185   0.252   9.487  12.419 -2.2995 -0.4357  0.6132
  744MOL0     H98186   0.213   9.235  12.247 -1.7157  3.0883 -1.0173
  744MOL0     H98187   0.374   9.269  12.323 -0.1327  0.9643 -2.9746
  744MOL0     H98188   0.237   9.246  12.549  1.2889 -1.5807 -0.3633
  744MOL0     H98189   0.247   9.107  12.459  4.3747  1.9056  0.3942
  744MOL0     H98190   0.891   9.803  12.070 -1.5553 -1.7742  1.6595
  744MOL0     H98191   1.102   9.902  11.983  1.4706 -1.5543 -3.2407
  744MOL0     H98192   1.539   9.847  11.851  1.1642  0.0072 -0.5630
  744MOL0     H98193   1.749   9.962  11.794 -1.3295  0.6281 -0.3049
  744MOL0     H98194   1.070   9.370  10.483 -0.9785 -0.2797 -1.9003
  744MOL0     H98195   1.119   9.219  10.272 -1.6112 -0.8660  1.4874
  744MOL0     H98196   1.199   9.000  10.042  0.6225 -0.3893  0.2398
  744MOL0     H98197   1.179   8.812   9.877 -0.3768  1.5518 -2.6242
  744MOL0     H98198   1.513   8.564   9.808 -0.5971  2.9263  1.3820
  744MOL0     H98199   1.574   8.674   9.681 -0.9575  3.5215  1.1996
  744MOL0     H98200   1.536   8.446   9.603  0.6336  0.3854 -0.0485
  744MOL0     H98201   1.369   8.464   9.643  1.9953 -1.2031  1.4337
  744MOL0     H98202   1.539   8.629   9.439  1.0308 -2.1264 -0.1469
  744MOL0     H98203   1.366   8.669   9.466 -0.3005  0.9031  1.1900
  744MOL0     H98204   1.344   8.532   9.281 -3.1801 -1.7225  0.3891
  744MOL0     H98205   1.490   8.450   9.307  0.2493  0.4395  0.8662
  744MOL0     H98206   1.235   8.207   9.534 -0.1074  0.6045  0.9554
  744MOL0     H98207   1.601   8.844   9.793  0.8370  4.1766  0.4375
  744MOL0     H98208   1.612   9.041   9.922  0.2687  1.5344  0.4344
  745MOL0     O98209  11.170   9.809  10.356 -0.8458  0.2320 -0.1622
  745MOL0     C98210  11.153   9.798  10.480 -0.2648 -0.0200  0.1060
  745MOL0     O98211  11.199   9.884  10.573  0.2953 -0.0575 -0.8432
  745MOL0     C98212  11.294   9.968  10.518 -0.1449 -0.3135 -0.1646
  745MOL0     C98213  11.253  10.103  10.507 -0.2684  0.4752 -0.0998
  745MOL0     C98214  11.350  10.197  10.468  0.4973  0.4712 -0.1010
  745MOL0     C98215  11.481  10.165  10.435  0.3363 -0.3463  0.0638
  745MOL0     O98216  11.552  10.268  10.390  0.1779 -0.0190  0.6958
  745MOL0     C98217  11.675  10.245  10.324  0.0476  0.0621 -0.2033
  745MOL0     C98218  11.719  10.384  10.327 -0.5736  0.0407 -0.0880
  745MOL0     C98219  11.865  10.416  10.270  0.6551 -0.3850 -1.1850
  745MOL0     C98220  11.878  10.350  10.131  0.0438 -0.0082 -0.2955
  745MOL0     C98221  11.795  10.418  10.029 -0.0169  0.1398  0.3962
  745MOL0     C98222  11.835  10.374   9.890  0.4144  0.5503  0.5447
  745MOL0     C98223  11.715  10.412   9.792  0.1209 -0.8815  0.3524
  745MOL0     C98224  11.692  10.565   9.779  0.5260  0.6174  0.4738
  745MOL0     N98225  11.623  10.593   9.654 -0.1212  0.5457  0.1421
  745MOL0     C98226  11.510  10.530   9.618 -0.4149 -1.0380  1.0201
  745MOL0     C98227  11.462  10.597   9.503  0.0094 -0.5485 -0.7134
  745MOL0     C98228  11.336  10.572   9.427  0.2104  0.0032 -0.1127
  745MOL0     C98229  11.354  10.524   9.283 -0.3667  0.2073  0.1848
  745MOL0     C98230  11.298  10.617   9.181 -0.9811 -0.0568  0.2650
  745MOL0     C98231  11.390  10.738   9.168 -0.2209  0.1115  0.4742
  745MOL0     O98232  11.316  10.851   9.110 -0.5749 -0.2142 -0.6626
  745MOL0     C98233  11.272  10.835   8.980  0.6936 -0.5949  0.0032
  745MOL0     C98234  11.338  10.766   8.881 -0.2348 -0.2929 -0.3509
  745MOL0     C98235  11.286  10.748   8.751  0.6240  0.2068  0.1764
  745MOL0     C98236  11.157  10.801   8.730  0.5414 -0.5941 -0.3486
  745MOL0     C98237  11.086  10.787   8.596  0.5376  0.2340  0.2557
  745MOL0     O98238  10.966  10.861   8.578  0.3177  0.0525  0.5217
  745MOL0     C98239  10.885  10.842   8.466 -0.6645  0.5548 -1.6223
  745MOL0     C98240  10.841  10.714   8.441 -0.0626  0.1706  0.1228
  745MOL0     C98241  10.753  10.680   8.333  0.2206 -0.8593 -0.0477
  745MOL0     C98242  10.690  10.778   8.263 -0.0549  0.5933 -0.5523
  745MOL0     O98243  10.590  10.744   8.172 -0.1563  0.2283  0.1243
  745MOL0     C98244  10.533  10.833   8.076  0.8369  0.8696 -0.4444
  745MOL0     C98245  10.400  10.764   8.034  0.4835 -1.2324  0.3416
  745MOL0     C98246  10.431  10.639   7.953 -0.2839  0.0182 -0.4163
  745MOL0     C98247  10.302  10.567   7.919  0.2722  0.0961  0.1803
  745MOL0     C98248  10.336  10.468   7.796  0.7390 -0.0344 -1.5476
  745MOL0     C98249  10.240  10.357   7.772  0.2174 -0.0620  0.7334
  745MOL0     C98250  10.230  10.302   7.628  0.7975 -0.5714  1.0204
  745MOL0     C98251  10.305  10.173   7.612 -0.3530  0.6688 -0.1180
  745MOL0    Cl98252  10.263  10.101   7.454 -0.1012  0.2972  0.4139
  745MOL0     C98253  10.721  10.907   8.298 -0.7926 -0.2895  0.1623
  745MOL0     C98254  10.822  10.943   8.391 -0.7709  0.5203 -0.3420
  745MOL0     O98255  11.134  10.705   8.517 -0.7307  0.0414 -0.7297
  745MOL0     C98256  11.099  10.883   8.824  0.1155  1.0158 -0.0876
  745MOL0     C98257  11.147  10.903   8.951 -0.9177 -0.2410  0.3373
  745MOL0     N98258  11.568  10.678   9.462  0.9816  0.4444 -1.1617
  745MOL0     N98259  11.655  10.683   9.565 -0.2194 -0.4791  0.4366
  745MOL0     C98260  11.531  10.034  10.452  0.0628 -0.0546 -0.2470
  745MOL0     C98261  11.431   9.937  10.496 -0.5650  0.2192 -0.0144
  745MOL0     C98262  11.056   9.695  10.528 -0.0604  0.0441 -0.4573
  745MOL0     C98263  10.997   9.612  10.438  0.5620  0.8592  0.7070
  745MOL0     C98264  10.931   9.492  10.478  0.4603  0.4004  0.3421
  745MOL0     C98265  10.925   9.454  10.612  0.3617 -1.0857 -0.8577
  745MOL0     O98266  10.862   9.350  10.661  0.3213  0.0056 -0.1037
  745MOL0     C98267  10.781   9.271  10.575 -0.4015  0.5282 -0.8553
  745MOL0     C98268  10.713   9.157  10.656 -0.4175 -0.8457  0.3113
  745MOL0     C98269  10.563   9.149  10.607  0.3414  0.2726 -0.2472
  745MOL0     C98270  10.528   9.046  10.502  0.3542  0.0946  0.7544
  745MOL0     C98271  10.594   8.919  10.529 -0.4149 -1.0531 -1.2081
  745MOL0     C98272  10.649   8.816  10.578  0.1950  0.2416 -0.3441
  745MOL0     C98273  10.971   9.542  10.707  0.0559  0.0096  0.2640
  745MOL0     C98274  11.043   9.662  10.661  0.4755 -0.5492 -0.3843
  745MOL0     H98275  11.148  10.130  10.522 -1.3074 -1.1857 -3.3646
  745MOL0     H98276  11.315  10.299  10.476 -1.5909 -0.3278  3.2578
  745MOL0     H98277  11.658  10.208  10.222  1.9110  0.2149 -0.6118
  745MOL0     H98278  11.739  10.171  10.371 -3.2187 -2.2495  0.9637
  745MOL0     H98279  11.722  10.401  10.435  0.3648 -0.2626 -0.0604
  745MOL0     H98280  11.645  10.456  10.289  0.8321  2.7225  1.9871
  745MOL0     H98281  11.932  10.369  10.343  0.0390 -1.3851 -1.2510
  745MOL0     H98282  11.887  10.523  10.273  2.7468 -0.7712 -1.2299
  745MOL0     H98283  11.982  10.338  10.100 -0.7203 -1.0231 -2.7087
  745MOL0     H98284  11.845  10.246  10.135 -0.2195  0.0929  0.2356
  745MOL0     H98285  11.788  10.525  10.053 -1.9233  0.4193 -1.1908
  745MOL0     H98286  11.697  10.371  10.041  0.5595 -1.1011  0.3518
  745MOL0     H98287  11.855  10.267   9.876  0.8955  0.8959 -1.7813
  745MOL0     H98288  11.930  10.422   9.863  1.5893 -2.0233 -0.2621
  745MOL0     H98289  11.724  10.379   9.688  0.0130  0.5071 -0.1155
  745MOL0     H98290  11.623  10.372   9.835 -0.9070  0.9498 -0.0414
  745MOL0     H98291  11.790  10.613   9.777 -0.4343  2.7340 -2.0578
  745MOL0     H98292  11.643  10.604   9.869  3.2254  0.3638  2.1565
  745MOL0     H98293  11.454  10.449   9.663  0.8973 -3.0050 -0.7295
  745MOL0     H98294  11.263  10.653   9.430  0.8183  0.5446  2.5727
  745MOL0     H98295  11.280  10.493   9.477  0.9758 -1.2587 -1.1673
  745MOL0     H98296  11.301  10.429   9.267 -3.2109  1.4454  1.4592
  745MOL0     H98297  11.454  10.509   9.242 -0.9294 -0.8919 -0.8559
  745MOL0     H98298  11.269  10.563   9.090 -3.0647 -1.4961  1.7082
  745MOL0     H98299  11.199  10.653   9.207 -2.4547 -1.9879 -2.2126
  745MOL0     H98300  11.479  10.695   9.121 -0.6228 -1.0985  0.7788
  745MOL0     H98301  11.424  10.771   9.267  2.7626  0.4237 -0.5576
  745MOL0     H98302  11.434  10.719   8.899 -0.4651 -1.4962 -1.9601
  745MOL0     H98303  11.342  10.688   8.680 -0.8907  0.6345 -1.4464
  745MOL0     H98304  10.871  10.631   8.504  1.8920  1.4308  0.9711
  745MOL0     H98305  10.745  10.573   8.313  1.9318 -1.9768  4.1679
  745MOL0     H98306  10.604  10.848   7.994  3.9022 -1.0940  1.6509
  745MOL0     H98307  10.504  10.929   8.119 -4.8300 -1.2753  1.4022
  745MOL0     H98308  10.347  10.833   7.967  0.9604  1.0903  2.2469
  745MOL0     H98309  10.338  10.745   8.122 -0.8677 -1.4227 -0.6205
  745MOL0     H98310  10.490  10.566   8.009 -0.4528 -0.3024 -0.6555
  745MOL0     H98311  10.495  10.649   7.865 -1.8922  0.3668 -1.6020
  745MOL0     H98312  10.253  10.527   8.008 -2.6760  3.8694  0.5223
  745MOL0     H98313  10.224  10.635   7.883 -0.1194 -1.4150 -2.0545
  745MOL0     H98314  10.427  10.413   7.819  2.0392  2.9771  1.4038
  745MOL0     H98315  10.357  10.529   7.708  0.5363  1.2592 -0.7250
  745MOL0     H98316  10.144  10.405   7.794  0.2875  1.4545 -1.7888
  745MOL0     H98317  10.258  10.273   7.839  1.4394  0.1972  0.7400
  745MOL0     H98318  10.123  10.295   7.609  0.4549  1.6593  1.8769
  745MOL0     H98319  10.275  10.366   7.551  1.6569 -2.5308 -0.1899
  745MOL0     H98320  10.284  10.099   7.689 -1.1764  1.7882  0.7586
  745MOL0     H98321  10.413  10.186   7.626 -0.0618  1.5366 -2.6712
  745MOL0     H98322  10.663  10.990   8.259  0.0551 -0.0393 -0.5742
  745MOL0     H98323  10.846  11.045   8.419  0.2333  0.1267  0.2865
  745MOL0     H98324  11.001  10.925   8.805  0.3028  0.7218 -1.9168
  745MOL0     H98325  11.096  10.960   9.028  2.0425  1.4588  1.2329
  745MOL0     H98326  11.632  10.006  10.424  1.4383  0.3256  3.7147
  745MOL0     H98327  11.452   9.833  10.520 -2.3293 -0.1817 -0.1400
  745MOL0     H98328  11.011   9.638  10.334 -0.3440  1.4635  0.7260
  745MOL0     H98329  10.879   9.440  10.397 -0.6808  0.5926  0.9258
  745MOL0     H98330  10.859   9.235  10.508  1.9200  0.0915  1.8962
  745MOL0     H98331  10.712   9.333  10.517  0.6869  0.4605 -2.2781
  745MOL0     H98332  10.767   9.062  10.644  3.0513  1.1429 -1.3433
  745MOL0     H98333  10.710   9.181  10.763  1.2267 -2.7395  0.8404
  745MOL0     H98334  10.523   9.246  10.575 -0.7126 -0.4869 -1.3388
  745MOL0     H98335  10.496   9.143  10.693  0.3241  0.6986 -0.2274
  745MOL0     H98336  10.422   9.021  10.516  0.0618  0.9565  0.1339
  745MOL0     H98337  10.542   9.073  10.397 -0.3458 -3.5113 -0.3839
  745MOL0     H98338  10.705   8.733  10.617  1.0952  0.5916 -0.8485
  745MOL0     H98339  10.950   9.526  10.812 -2.5538  1.5048  0.0544
  745MOL0     H98340  11.093   9.706  10.746 -1.8104 -3.4307  2.7765
  746MOL0     O98341   2.410   5.560   7.867 -0.7304 -0.1651 -0.2667
  746MOL0     C98342   2.347   5.552   7.972  0.9917 -0.0055  0.1973
  746MOL0     O98343   2.395   5.596   8.093 -0.1752 -0.1492 -0.5548
  746MOL0     C98344   2.522   5.641   8.110 -0.1285  0.7493 -0.6063
  746MOL0     C98345   2.536   5.772   8.158  0.3680 -0.0645  0.2971
  746MOL0     C98346   2.669   5.815   8.173 -0.7158  0.5566  0.5596
  746MOL0     C98347   2.788   5.744   8.126 -0.2904 -0.4351 -0.4043
  746MOL0     O98348   2.914   5.790   8.139 -0.9664  0.0567 -0.5190
  746MOL0     C98349   2.975   5.750   8.269  0.5512 -0.4145  0.1462
  746MOL0     C98350   3.128   5.729   8.285 -1.0512  0.5997  0.8417
  746MOL0     C98351   3.197   5.823   8.178  0.5064 -0.1684  1.0752
  746MOL0     C98352   3.341   5.788   8.167 -0.3717 -0.7406 -0.1973
  746MOL0     C98353   3.398   5.870   8.057 -0.5932 -0.7095  0.8240
  746MOL0     C98354   3.555   5.845   8.040  1.1725 -0.3323  0.1269
  746MOL0     C98355   3.624   5.974   7.966  0.0561  0.7536 -0.0696
  746MOL0     C98356   3.709   6.075   8.042  0.9157 -0.3709  0.0375
  746MOL0     N98357   3.629   6.143   8.141  1.7475  1.2032 -0.0109
  746MOL0     C98358   3.509   6.205   8.118 -0.0638 -0.1334 -0.9031
  746MOL0     C98359   3.467   6.253   8.240 -0.0152  0.2867  1.3299
  746MOL0     C98360   3.347   6.329   8.248 -0.4405  0.2310 -0.6391
  746MOL0     C98361   3.329   6.383   8.387 -0.5470 -0.4569 -1.0225
  746MOL0     C98362   3.204   6.476   8.404  0.4465 -0.3454  0.1764
  746MOL0     C98363   3.077   6.410   8.371  0.8332  0.6355  0.2967
  746MOL0     O98364   2.956   6.495   8.395  0.1203 -0.6730 -0.2235
  746MOL0     C98365   2.910   6.528   8.522  0.1467  0.0059  0.8013
  746MOL0     C98366   2.815   6.630   8.529  0.0025  0.3964 -0.1617
  746MOL0     C98367   2.739   6.655   8.648 -0.7563 -0.3697  0.1613
  746MOL0     C98368   2.761   6.583   8.771  0.2979 -0.1127 -0.7407
  746MOL0     C98369   2.674   6.618   8.884 -0.0031 -0.1045  0.8808
  746MOL0     O98370   2.578   6.715   8.875 -0.0011  0.1263 -0.3261
  746MOL0     C98371   2.499   6.745   8.983  0.9694  0.3087  0.1453
  746MOL0     C98372   2.541   6.791   9.098 -0.2853  0.3836  0.1565
  746MOL0     C98373   2.455   6.826   9.198  0.1585 -0.3378 -0.6307
  746MOL0     C98374   2.322   6.842   9.179 -0.0602 -0.1428 -0.2963
  746MOL0     O98375   2.239   6.914   9.270 -0.4630  0.2077  0.3547
  746MOL0     C98376   2.141   7.010   9.224  0.8869 -0.5516 -0.0427
  746MOL0     C98377   2.004   6.949   9.238  0.7708 -0.4055 -0.3932
  746MOL0     C98378   1.881   7.036   9.207  0.5230  0.1268 -0.1180
  746MOL0     C98379   1.862   7.131   9.329  0.9449 -0.2260 -0.4911
  746MOL0     C98380   1.723   7.203   9.311 -0.8412 -0.1117 -0.0857
  746MOL0     C98381   1.686   7.293   9.434 -1.2648  0.6864 -0.1831
  746MOL0     C98382   1.542   7.325   9.449  0.8744  0.2999 -0.2039
  746MOL0     C98383   1.490   7.376   9.586 -0.6362 -0.1477  0.0972
  746MOL0    Cl98384   1.556   7.546   9.632  0.3987 -0.4926  0.0768
  746MOL0     C98385   2.276   6.785   9.062 -0.5796  0.5536 -0.0772
  746MOL0     C98386   2.361   6.735   8.963 -0.3702 -0.7520 -0.4252
  746MOL0     O98387   2.692   6.555   8.984  0.3449  0.8063 -0.2984
  746MOL0     C98388   2.874   6.489   8.766  1.8086 -1.5613  0.6338
  746MOL0     C98389   2.937   6.461   8.640 -0.7625  0.0608  0.2537
  746MOL0     N98390   3.560   6.203   8.333 -0.2362  0.0851 -0.2319
  746MOL0     N98391   3.659   6.155   8.274 -0.2232 -0.4085  0.1756
  746MOL0     C98392   2.767   5.638   8.050  1.3940 -0.0835 -0.8324
  746MOL0     C98393   2.636   5.581   8.048 -0.3858  0.1616 -0.1423
  746MOL0     C98394   2.202   5.515   7.971  0.2654 -0.3360 -0.3575
  746MOL0     C98395   2.143   5.480   7.850 -0.4897  0.2080 -0.1562
  746MOL0     C98396   2.004   5.455   7.836  0.1763 -1.3581 -0.6335
  746MOL0     C98397   1.916   5.472   7.946  0.5502  0.7456 -0.5212
  746MOL0     O98398   1.781   5.445   7.915  0.2976 -0.1310 -0.1592
  746MOL0     C98399   1.674   5.421   8.015 -0.5725 -1.1504 -0.1534
  746MOL0     C98400   1.693   5.299   8.089  0.8584  1.6021 -1.1551
  746MOL0     C98401   1.702   5.169   8.006  0.6540 -0.7748  0.3614
  746MOL0     C98402   1.765   5.058   8.090  0.9604 -0.4625  0.5327
  746MOL0     C98403   1.910   5.052   8.079 -0.0634 -0.2533 -0.3220
  746MOL0     C98404   2.028   5.043   8.072  0.2436  0.4104  0.4292
  746MOL0     C98405   1.974   5.493   8.073 -0.7493  0.1746 -0.5839
  746MOL0     C98406   2.117   5.516   8.081 -0.4133  0.6958 -0.6659
  746MOL0     H98407   2.445   5.829   8.166 -0.5402 -0.3738 -4.6226
  746MOL0     H98408   2.689   5.915   8.209 -0.0639 -0.2038  2.4389
  746MOL0     H98409   2.942   5.648   8.293 -1.3334 -0.3479 -1.8046
  746MOL0     H98410   2.955   5.825   8.346  3.2993 -3.5115  4.3179
  746MOL0     H98411   3.148   5.626   8.254 -2.0204  1.2428 -2.1666
  746MOL0     H98412   3.166   5.745   8.387 -0.6163  0.4972  0.6950
  746MOL0     H98413   3.178   5.928   8.203  0.2471 -0.5378  2.5046
  746MOL0     H98414   3.155   5.800   8.079 -0.0789  1.3740  0.9274
  746MOL0     H98415   3.388   5.820   8.260 -1.3201 -0.3852  0.1681
  746MOL0     H98416   3.357   5.682   8.144  2.7684 -0.4320  0.2158
  746MOL0     H98417   3.388   5.978   8.075 -0.9136  0.0115 -2.9055
  746MOL0     H98418   3.347   5.862   7.961  1.8150  2.0394 -0.8452
  746MOL0     H98419   3.575   5.762   7.971 -4.8652  0.3220 -3.0743
  746MOL0     H98420   3.600   5.817   8.136  2.3658 -0.2348 -0.3814
  746MOL0     H98421   3.682   5.945   7.878 -0.6610 -1.2714  0.0544
  746MOL0     H98422   3.539   6.031   7.928 -0.3935 -0.4182 -0.9112
  746MOL0     H98423   3.756   6.145   7.972  0.3871 -0.8667 -0.8319
  746MOL0     H98424   3.783   6.022   8.102 -0.2035  0.4967  2.2893
  746MOL0     H98425   3.457   6.225   8.025 -1.2944 -1.1190 -0.4577
  746MOL0     H98426   3.253   6.282   8.218 -1.1537  0.4328  1.1645
  746MOL0     H98427   3.364   6.413   8.179  3.0172 -0.3411 -0.6703
  746MOL0     H98428   3.413   6.432   8.437 -3.2262  0.8965  2.6258
  746MOL0     H98429   3.312   6.306   8.462  2.6861  1.4301  1.9787
  746MOL0     H98430   3.198   6.515   8.506  0.1949 -1.3426  0.5582
  746MOL0     H98431   3.225   6.562   8.340  0.2823  0.3836  1.0756
  746MOL0     H98432   3.068   6.319   8.431  1.2958  1.8044  2.2506
  746MOL0     H98433   3.086   6.400   8.262 -1.4636  1.7731 -0.0602
  746MOL0     H98434   2.821   6.693   8.441  1.5446 -2.6230 -2.4019
  746MOL0     H98435   2.679   6.745   8.655  2.1897  1.8113 -0.4416
  746MOL0     H98436   2.646   6.790   9.124 -0.2870  0.5186  0.1684
  746MOL0     H98437   2.492   6.858   9.294 -1.9562  1.9930 -0.4948
  746MOL0     H98438   2.143   7.023   9.116  0.7064 -1.1979 -0.1308
  746MOL0     H98439   2.130   7.108   9.271  1.4223 -0.4719 -0.0850
  746MOL0     H98440   1.990   6.907   9.337  1.4235 -0.6248 -0.3862
  746MOL0     H98441   2.003   6.866   9.167 -0.9523  2.5512 -4.2337
  746MOL0     H98442   1.792   6.977   9.185  0.5582  0.4214 -1.0837
  746MOL0     H98443   1.897   7.103   9.122  0.6014  0.6861  0.3280
  746MOL0     H98444   1.854   7.079   9.424  1.2424 -0.8242 -0.7887
  746MOL0     H98445   1.945   7.203   9.328  2.1953 -1.6061 -0.2864
  746MOL0     H98446   1.650   7.121   9.314 -0.8938 -0.1674 -1.7139
  746MOL0     H98447   1.715   7.256   9.216 -0.7920  1.5104  0.7793
  746MOL0     H98448   1.755   7.379   9.431  0.9374 -0.9577  0.7051
  746MOL0     H98449   1.714   7.237   9.524 -1.4232 -1.1306 -1.2322
  746MOL0     H98450   1.518   7.400   9.373  1.0573 -0.6804 -1.2547
  746MOL0     H98451   1.488   7.236   9.417  2.5415 -0.0055 -2.3948
  746MOL0     H98452   1.528   7.313   9.667 -1.1481  0.3328  0.7302
  746MOL0     H98453   1.381   7.378   9.593 -0.7277  0.1451 -1.1969
  746MOL0     H98454   2.171   6.779   9.035 -0.2116 -1.3963 -1.3550
  746MOL0     H98455   2.314   6.681   8.881 -0.8478 -1.0512  0.0400
  746MOL0     H98456   2.908   6.448   8.861  1.3012 -2.5177  0.4126
  746MOL0     H98457   2.988   6.365   8.646 -3.3092 -1.2985  1.7587
  746MOL0     H98458   2.847   5.593   7.992  2.1974  0.1753  0.0657
  746MOL0     H98459   2.618   5.488   7.996 -0.5063 -0.5433  1.1284
  746MOL0     H98460   2.220   5.465   7.776 -0.7992 -0.3547 -0.3639
  746MOL0     H98461   1.974   5.436   7.734  1.9557  1.4974 -1.8188
  746MOL0     H98462   1.580   5.425   7.960 -1.0349 -1.8013  0.5600
  746MOL0     H98463   1.666   5.501   8.090 -0.1373 -0.6871 -0.5954
  746MOL0     H98464   1.785   5.309   8.147  1.0508  4.9333 -1.8383
  746MOL0     H98465   1.604   5.302   8.152  0.1970  4.3327 -2.0977
  746MOL0     H98466   1.752   5.181   7.909 -1.4303 -0.0893 -0.7003
  746MOL0     H98467   1.598   5.154   7.979  1.4268 -3.1394 -1.6705
  746MOL0     H98468   1.727   5.068   8.192 -1.2569  3.9727 -0.4739
  746MOL0     H98469   1.720   4.966   8.050 -2.5425  0.9855  0.7744
  746MOL0     H98470   2.135   5.043   8.065  0.1382 -0.8603 -2.6218
  746MOL0     H98471   1.906   5.494   8.158  0.5735 -1.4963  0.5425
  746MOL0     H98472   2.158   5.544   8.177  2.5952  2.5248 -2.3304
  747MOL0     O98473  10.535   0.198   8.567  0.4017  0.1990 -0.5296
  747MOL0     C98474  10.493   0.301   8.514 -0.4525  0.6612 -0.1305
  747MOL0     O98475  10.545   0.421   8.543  1.0252  0.3549  0.4899
  747MOL0     C98476  10.636   0.438   8.639 -0.0909  0.5010 -0.8471
  747MOL0     C98477  10.609   0.413   8.780  0.5944 -0.7858 -0.3694
  747MOL0     C98478  10.716   0.440   8.875  0.3696 -0.1828  0.2730
  747MOL0     C98479  10.841   0.478   8.830 -0.0848 -0.2069 -0.2464
  747MOL0     O98480  10.942   0.495   8.920 -0.7442 -0.6350 -0.5002
  747MOL0     C98481  10.971   0.635   8.947  0.5437  0.1720 -0.7396
  747MOL0     C98482  11.043   0.632   9.073  0.0695 -0.8430  0.0919
  747MOL0     C98483  11.089   0.772   9.105 -0.1881 -0.3635  0.2269
  747MOL0     C98484  11.135   0.794   9.245  0.7273 -0.0766 -0.3378
  747MOL0     C98485  11.247   0.701   9.292 -0.0852 -0.2251  0.4162
  747MOL0     C98486  11.311   0.745   9.420 -0.0589  0.3331  0.1766
  747MOL0     C98487  11.249   0.685   9.548  0.2276 -0.0718  0.5170
  747MOL0     C98488  11.304   0.736   9.674 -0.1667  0.5666  0.8538
  747MOL0     N98489  11.445   0.762   9.660  0.6877  0.8306 -0.7032
  747MOL0     C98490  11.551   0.679   9.689  0.4227 -0.3413  0.1376
  747MOL0     C98491  11.663   0.752   9.661 -0.0507 -0.1126  0.4898
  747MOL0     C98492  11.803   0.714   9.649 -0.1780 -1.4642 -0.6931
  747MOL0     C98493  11.863   0.627   9.760  0.4404 -0.0669 -0.0329
  747MOL0     C98494  12.012   0.595   9.740  0.9045  0.0964  0.6351
  747MOL0     C98495  12.063   0.505   9.854  0.4007 -0.8282 -0.3678
  747MOL0     O98496  12.002   0.376   9.854  0.5545  0.1674 -0.6488
  747MOL0     C98497  12.003   0.303   9.963  0.2034 -0.0162 -0.7611
  747MOL0     C98498  11.896   0.211   9.975 -0.0989 -0.7495 -0.4596
  747MOL0     C98499  11.889   0.137  10.089  0.1303 -0.1506 -0.2657
  747MOL0     C98500  11.985   0.149  10.197 -0.4410 -0.1422 -0.4966
  747MOL0     C98501  11.962   0.070  10.313  0.0192 -0.7041  0.0589
  747MOL0     O98502  11.876  -0.035  10.299 -0.2612  0.3977  0.3920
  747MOL0     C98503  11.870  -0.124  10.408  0.7957 -0.0650  0.3963
  747MOL0     C98504  11.970  -0.167  10.492  0.2757 -0.0592  0.3819
  747MOL0     C98505  11.952  -0.270  10.584 -0.1826 -0.3220 -0.6768
  747MOL0     C98506  11.832  -0.322  10.606 -0.4711  0.6234 -1.1703
  747MOL0     O98507  11.808  -0.409  10.714  1.0690 -0.5094  0.2730
  747MOL0     C98508  11.916  -0.502  10.735  0.2545  0.2777  0.2478
  747MOL0     C98509  11.871  -0.642  10.800  0.5503  0.1610  0.3650
  747MOL0     C98510  11.751  -0.699  10.718 -0.8542  0.2136  0.9632
  747MOL0     C98511  11.677  -0.825  10.782  0.3740 -0.2416  0.4128
  747MOL0     C98512  11.555  -0.872  10.691  0.0397 -0.5441 -0.4854
  747MOL0     C98513  11.451  -0.952  10.771  0.7846  0.7147  0.5285
  747MOL0     C98514  11.356  -0.866  10.844  0.6518  0.2010 -0.8252
  747MOL0     C98515  11.254  -0.961  10.915  0.0628  0.0886  0.0267
  747MOL0    Cl98516  11.136  -0.878  11.021 -0.2273  0.1945 -0.5100
  747MOL0     C98517  11.725  -0.290  10.527 -0.2719 -0.9579  0.2919
  747MOL0     C98518  11.744  -0.191  10.425 -0.2581 -0.0373 -0.4738
  747MOL0     O98519  12.044   0.080  10.403  0.1620 -0.7966  0.4195
  747MOL0     C98520  12.089   0.244  10.186  0.4139  0.2362 -0.7554
  747MOL0     C98521  12.088   0.327  10.077  0.3969  0.4321  0.7595
  747MOL0     N98522  11.617   0.872   9.615 -0.2021 -0.1085  0.3332
  747MOL0     N98523  11.490   0.884   9.622  0.6559  0.5534  0.4740
  747MOL0     C98524  10.857   0.517   8.697 -0.2329 -1.3020 -0.7771
  747MOL0     C98525  10.761   0.492   8.600  0.1825  0.3481 -0.1601
  747MOL0     C98526  10.390   0.285   8.416 -0.7289  0.0990 -0.4761
  747MOL0     C98527  10.387   0.380   8.313  0.1600  0.1510  0.2579
  747MOL0     C98528  10.273   0.385   8.232 -0.3277  0.2919 -0.0574
  747MOL0     C98529  10.176   0.291   8.236  0.7472  0.0814  0.9045
  747MOL0     O98530  10.066   0.316   8.153  0.1135  0.6307  0.3329
  747MOL0     C98531   9.972   0.209   8.112 -0.5903 -0.5911 -0.7008
  747MOL0     C98532   9.874   0.296   8.030  0.8512  0.3749 -1.6802
  747MOL0     C98533   9.772   0.212   7.948 -0.0085 -0.1054 -0.0547
  747MOL0     C98534   9.670   0.318   7.882  0.2479  1.7300  0.2096
  747MOL0     C98535   9.585   0.221   7.816 -0.0095  0.7335 -0.7823
  747MOL0     C98536   9.501   0.148   7.765  0.2633  0.0844 -0.7038
  747MOL0     C98537  10.188   0.179   8.322 -0.2222  0.4978 -0.1697
  747MOL0     C98538  10.297   0.176   8.408 -0.3606 -0.3321 -0.6372
  747MOL0     H98539  10.515   0.387   8.826  0.3576  1.7101  0.7296
  747MOL0     H98540  10.711   0.417   8.981 -0.5418 -0.9365  0.0833
  747MOL0     H98541  10.883   0.699   8.963  2.4775  2.6243  0.6533
  747MOL0     H98542  11.026   0.681   8.865 -0.6088  1.5745 -0.7753
  747MOL0     H98543  11.134   0.574   9.058  1.4065  1.0978  0.4052
  747MOL0     H98544  10.978   0.598   9.154 -1.3006  0.9110 -0.2010
  747MOL0     H98545  11.014   0.843   9.068 -1.3462 -1.0241  1.2467
  747MOL0     H98546  11.177   0.799   9.045 -1.2182  1.0830 -0.7038
  747MOL0     H98547  11.160   0.899   9.260  0.9579  0.0619 -1.5983
  747MOL0     H98548  11.044   0.785   9.305 -0.2313  0.3470 -1.6728
  747MOL0     H98549  11.332   0.700   9.223 -0.5500 -2.3320 -0.2046
  747MOL0     H98550  11.219   0.595   9.295 -0.0689 -0.2212  2.9154
  747MOL0     H98551  11.293   0.852   9.432  2.0313  0.8660 -0.8086
  747MOL0     H98552  11.421   0.743   9.412 -0.1001  2.1028 -1.4878
  747MOL0     H98553  11.145   0.716   9.555  0.6102  1.6895 -0.8266
  747MOL0     H98554  11.268   0.577   9.540 -0.1180 -0.1042  0.0863
  747MOL0     H98555  11.300   0.672   9.763  1.6875  1.5799  1.7470
  747MOL0     H98556  11.261   0.832   9.702 -4.4483 -0.5309 -1.2283
  747MOL0     H98557  11.554   0.577   9.725  2.2660 -0.4544 -0.2608
  747MOL0     H98558  11.851   0.812   9.653 -3.4910  0.2610  0.3575
  747MOL0     H98559  11.808   0.656   9.556  0.5779 -4.5076  1.1033
  747MOL0     H98560  11.804   0.535   9.763  3.7310 -2.5191 -2.8247
  747MOL0     H98561  11.861   0.689   9.851  0.3946 -2.3158  1.5738
  747MOL0     H98562  12.032   0.556   9.640  2.2699  0.3910  0.7812
  747MOL0     H98563  12.069   0.688   9.743  1.4693 -0.2671  2.3045
  747MOL0     H98564  12.039   0.561   9.946 -0.1228 -0.8505 -0.4863
  747MOL0     H98565  12.171   0.492   9.846  0.4761  0.5857 -2.2097
  747MOL0     H98566  11.826   0.185   9.896 -1.1811  0.8855 -0.0863
  747MOL0     H98567  11.799   0.077  10.102 -0.6663  1.5306  3.6483
  747MOL0     H98568  12.068  -0.120  10.486 -0.2543  1.3380  1.7254
  747MOL0     H98569  12.041  -0.299  10.638  0.8066 -2.5567 -3.3282
  747MOL0     H98570  11.990  -0.455  10.800 -2.3831 -0.4010  4.0449
  747MOL0     H98571  11.965  -0.534  10.643  0.5878  0.4015  0.3805
  747MOL0     H98572  11.838  -0.619  10.901  0.2222  1.1554  0.0456
  747MOL0     H98573  11.953  -0.715  10.799 -0.9792 -1.6298 -0.3135
  747MOL0     H98574  11.766  -0.715  10.611 -0.0437 -0.9914  1.2377
  747MOL0     H98575  11.682  -0.614  10.727 -0.0388  0.9620  0.3434
  747MOL0     H98576  11.751  -0.904  10.797 -0.9144 -1.3727  1.0099
  747MOL0     H98577  11.632  -0.799  10.878 -0.5441 -1.4044  0.3079
  747MOL0     H98578  11.607  -0.928  10.612  0.4600  0.4953 -0.9568
  747MOL0     H98579  11.500  -0.792  10.641 -1.5615 -1.1344  0.2348
  747MOL0     H98580  11.494  -1.021  10.845 -1.1850 -0.4973  0.6287
  747MOL0     H98581  11.390  -1.015  10.705  1.4563 -0.4656  0.9924
  747MOL0     H98582  11.397  -0.805  10.925 -1.7050  3.0303 -1.5908
  747MOL0     H98583  11.313  -0.799  10.769  1.7395 -0.0303 -1.6866
  747MOL0     H98584  11.312  -1.033  10.973  4.0229  2.2899 -0.7827
  747MOL0     H98585  11.192  -1.017  10.844 -1.7390  1.8722  0.0815
  747MOL0     H98586  11.625  -0.331  10.538 -0.2970 -0.5026  2.2820
  747MOL0     H98587  11.658  -0.177  10.360  0.4925  2.3414 -1.0432
  747MOL0     H98588  12.149   0.274  10.271 -0.8954  1.9648 -0.3815
  747MOL0     H98589  12.164   0.404  10.078  2.0942 -1.0825  4.0341
  747MOL0     H98590  10.952   0.561   8.668 -1.6774  2.8960  0.0396
  747MOL0     H98591  10.784   0.507   8.495  1.8111 -2.7918 -0.3647
  747MOL0     H98592  10.466   0.451   8.293  1.6643 -1.2763  0.9644
  747MOL0     H98593  10.259   0.468   8.163  1.5499  1.8612  1.3284
  747MOL0     H98594   9.927   0.158   8.198 -0.0189  1.1261  0.6944
  747MOL0     H98595  10.025   0.134   8.054 -0.8708 -0.9398 -0.5113
  747MOL0     H98596   9.823   0.358   8.104 -0.6996 -4.4194  1.7716
  747MOL0     H98597   9.928   0.353   7.954  1.0836  2.9119  0.2940
  747MOL0     H98598   9.712   0.136   8.000 -0.0295  0.0144  0.0953
  747MOL0     H98599   9.823   0.168   7.861  2.9866  1.4049  0.8099
  747MOL0     H98600   9.617   0.368   7.964 -1.1265 -0.8069  0.9727
  747MOL0     H98601   9.721   0.381   7.808 -1.4252  0.1041 -2.5037
  747MOL0     H98602   9.436   0.078   7.716 -0.2276  0.0848 -0.0610
  747MOL0     H98603  10.108   0.108   8.308 -0.5568  1.3953 -3.7821
  747MOL0     H98604  10.312   0.091   8.474  3.3839  0.2027 -0.5435
  748MOL0     O98605   5.303  10.568  10.687  0.5029  0.3120 -0.1245
  748MOL0     C98606   5.391  10.648  10.694  0.5308  0.3667  0.3252
  748MOL0     O98607   5.385  10.777  10.639  0.0551  0.5047 -0.0715
  748MOL0     C98608   5.269  10.803  10.579  0.1685 -0.9259  0.1670
  748MOL0     C98609   5.194  10.735  10.473  0.7667 -0.0175  0.1881
  748MOL0     C98610   5.067  10.789  10.420  0.4714 -0.0532  0.1721
  748MOL0     C98611   5.023  10.916  10.468 -0.6433  0.1513 -0.2172
  748MOL0     O98612   4.909  10.972  10.422  0.0885 -0.2694  0.0278
  748MOL0     C98613   4.866  10.952  10.283 -0.2370  1.2727 -0.3254
  748MOL0     C98614   4.758  11.045  10.247 -0.6391 -0.3626 -0.5263
  748MOL0     C98615   4.817  11.192  10.212  1.2710 -0.1159 -0.7852
  748MOL0     C98616   4.727  11.278  10.117  0.1168  0.1807  0.4774
  748MOL0     C98617   4.587  11.304  10.180  0.0290 -0.9700  0.6749
  748MOL0     C98618   4.501  11.396  10.112  0.2029  0.3477  0.2346
  748MOL0     C98619   4.464  11.355   9.960 -0.1278  0.1905  0.2897
  748MOL0     C98620   4.353  11.241   9.948 -0.1169 -0.1929 -0.5656
  748MOL0     N98621   4.310  11.244   9.811  0.2892  0.1783  0.4031
  748MOL0     C98622   4.209  11.324   9.758  0.4383  0.3793  0.3446
  748MOL0     C98623   4.215  11.288   9.632  0.0651  0.1259  0.2602
  748MOL0     C98624   4.128  11.339   9.508 -0.6257 -0.1542 -0.6318
  748MOL0     C98625   4.022  11.448   9.530 -0.0932 -0.7380  1.1631
  748MOL0     C98626   3.986  11.510   9.397  0.3118  0.4142 -0.2648
  748MOL0     C98627   3.853  11.462   9.346  0.2220 -0.6697 -0.9426
  748MOL0     O98628   3.816  11.540   9.231  0.0595 -0.5099 -0.1580
  748MOL0     C98629   3.691  11.583   9.211  0.4981 -0.1565  0.5398
  748MOL0     C98630   3.661  11.711   9.147 -0.8336  0.8033  0.4580
  748MOL0     C98631   3.532  11.739   9.102  0.4293 -0.7236 -1.3099
  748MOL0     C98632   3.425  11.663   9.147  0.7757  0.0204  0.0860
  748MOL0     C98633   3.276  11.690   9.114  0.5188  0.3016 -0.5556
  748MOL0     O98634   3.246  11.791   9.025  0.1439  0.3643  0.1729
  748MOL0     C98635   3.112  11.823   9.008 -0.2893 -0.3486 -0.3363
  748MOL0     C98636   2.998  11.738   9.007 -0.3539  0.4158  0.9697
  748MOL0     C98637   2.871  11.792   8.967 -0.7335 -0.7347 -0.7163
  748MOL0     C98638   2.857  11.930   8.943  0.8384  0.4570 -1.0192
  748MOL0     O98639   2.728  11.984   8.922 -1.0991 -0.5132 -0.0763
  748MOL0     C98640   2.690  11.996   8.785 -0.8893  0.3063  0.1547
  748MOL0     C98641   2.543  12.027   8.794  1.1971  0.6307  1.0954
  748MOL0     C98642   2.503  12.175   8.798  0.1440  0.4871 -0.6560
  748MOL0     C98643   2.374  12.203   8.731  0.2645 -0.4215 -0.1358
  748MOL0     C98644   2.332  12.348   8.754  0.2938  0.0069  0.6106
  748MOL0     C98645   2.195  12.387   8.709  1.0256  0.5759 -0.4358
  748MOL0     C98646   2.153  12.530   8.757  0.1517  0.2122  0.1753
  748MOL0     C98647   2.026  12.584   8.700 -0.4659  0.7483  0.0038
  748MOL0    Cl98648   1.879  12.494   8.757 -0.3150 -0.0402 -0.0190
  748MOL0     C98649   2.976  12.008   8.959 -0.2382 -0.1918  0.5193
  748MOL0     C98650   3.099  11.958   8.976  0.2133 -0.4141  0.0492
  748MOL0     O98651   3.191  11.630   9.176 -0.0184  0.0270  0.7332
  748MOL0     C98652   3.452  11.543   9.211  0.4451  0.7757  0.1388
  748MOL0     C98653   3.582  11.496   9.239 -0.8657 -0.1143  0.3513
  748MOL0     N98654   4.317  11.199   9.602 -0.3670 -0.4876 -0.5430
  748MOL0     N98655   4.382  11.184   9.710 -0.7266 -0.3768 -0.5636
  748MOL0     C98656   5.096  10.973  10.569 -1.8611 -0.9096  0.2671
  748MOL0     C98657   5.212  10.918  10.623  0.1392 -0.2096 -0.1256
  748MOL0     C98658   5.515  10.584  10.745  0.0688  0.1327 -0.4212
  748MOL0     C98659   5.526  10.449  10.782  0.0283  0.2744  0.7179
  748MOL0     C98660   5.652  10.400  10.809 -0.0263 -0.0460  0.3427
  748MOL0     C98661   5.768  10.473  10.800  0.3511  0.7903  0.0417
  748MOL0     O98662   5.893  10.425  10.827  0.1042  0.6339  0.4332
  748MOL0     C98663   5.932  10.426  10.968  0.1977  0.2305  1.0466
  748MOL0     C98664   5.968  10.287  11.008  0.5355 -0.7230  0.7396
  748MOL0     C98665   6.116  10.259  10.977 -0.7745  0.0245 -0.0434
  748MOL0     C98666   6.164  10.122  11.018 -0.1459  0.3350  0.4907
  748MOL0     C98667   6.302  10.124  10.983 -0.3930  0.4235  0.1398
  748MOL0     C98668   6.417  10.145  10.950  0.2878 -0.1449  0.8741
  748MOL0     C98669   5.757  10.609  10.765 -0.3131 -0.4331 -1.1016
  748MOL0     C98670   5.623  10.662  10.743 -0.8837  0.0505 -0.3800
  748MOL0     H98671   5.223  10.636  10.438 -0.5840 -0.0167 -1.0290
  748MOL0     H98672   5.010  10.735  10.345 -1.3290 -0.9412  2.0844
  748MOL0     H98673   4.840  10.847  10.265  2.0304  0.8558 -1.3986
  748MOL0     H98674   4.949  10.964  10.213 -0.8433 -0.2593 -1.3743
  748MOL0     H98675   4.695  11.052  10.336  0.7059  1.5626  0.3426
  748MOL0     H98676   4.702  10.997  10.166 -0.2088 -3.9141  1.1125
  748MOL0     H98677   4.917  11.182  10.168  1.2242  2.8077 -1.7701
  748MOL0     H98678   4.820  11.243  10.309 -2.4520  1.2071 -1.2196
  748MOL0     H98679   4.775  11.372  10.088 -0.4584  0.3779  0.1556
  748MOL0     H98680   4.715  11.223  10.024 -1.6565 -0.8317  1.2601
  748MOL0     H98681   4.600  11.334  10.285 -0.1076  0.5677  0.2732
  748MOL0     H98682   4.537  11.206  10.190 -0.1965 -0.7434  1.9904
  748MOL0     H98683   4.554  11.491  10.126  1.3189 -0.3237  0.6533
  748MOL0     H98684   4.412  11.406  10.176  0.8177 -1.2935  1.4152
  748MOL0     H98685   4.430  11.447   9.913  4.2045  0.9400 -1.9270
  748MOL0     H98686   4.546  11.330   9.893 -1.2413 -1.4505 -0.5288
  748MOL0     H98687   4.264  11.256  10.011  0.4947 -0.5396  0.4049
  748MOL0     H98688   4.406  11.147   9.964  1.3619 -0.3476 -5.0880
  748MOL0     H98689   4.150  11.406   9.797  1.3069  0.8020  0.7996
  748MOL0     H98690   4.076  11.257   9.457  1.2469 -2.5851  1.0975
  748MOL0     H98691   4.202  11.386   9.443 -0.1930  1.6341  1.0632
  748MOL0     H98692   4.063  11.532   9.587 -2.0602  2.0149 -1.1694
  748MOL0     H98693   3.936  11.400   9.577 -1.3829 -1.6768 -1.9130
  748MOL0     H98694   3.983  11.618   9.412 -1.8949  0.0665  2.7527
  748MOL0     H98695   4.058  11.487   9.318  2.2388 -0.1183  1.5227
  748MOL0     H98696   3.785  11.474   9.431  0.5558  0.9401 -0.8800
  748MOL0     H98697   3.856  11.357   9.316  1.7288 -0.3345 -2.0491
  748MOL0     H98698   3.746  11.772   9.118 -1.6368  0.2923 -3.6037
  748MOL0     H98699   3.516  11.837   9.058 -0.3769  0.0859  0.6509
  748MOL0     H98700   3.017  11.633   9.027  4.3050  0.6422 -0.8590
  748MOL0     H98701   2.795  11.717   8.949  0.0573 -1.9324  0.7094
  748MOL0     H98702   2.718  11.904   8.733  1.5866  0.1717  1.6047
  748MOL0     H98703   2.739  12.080   8.735  1.4103 -0.3471  1.1966
  748MOL0     H98704   2.507  11.974   8.882  0.4240 -1.0445 -0.1908
  748MOL0     H98705   2.475  11.993   8.716 -0.4485  2.3559  1.6981
  748MOL0     H98706   2.581  12.234   8.750 -0.7983  0.6580 -2.0384
  748MOL0     H98707   2.491  12.195   8.905 -1.4074 -2.6595 -0.1062
  748MOL0     H98708   2.383  12.193   8.622 -1.3744 -1.6004 -0.1944
  748MOL0     H98709   2.296  12.140   8.775 -1.1671  1.7587  0.6507
  748MOL0     H98710   2.407  12.399   8.691  1.1195 -1.8012  0.0624
  748MOL0     H98711   2.346  12.380   8.857  0.0691  1.1017  0.3138
  748MOL0     H98712   2.122  12.316   8.749 -0.0872 -0.0126 -3.2392
  748MOL0     H98713   2.196  12.384   8.600  1.5997 -0.5916 -0.4092
  748MOL0     H98714   2.141  12.531   8.866  1.2808 -3.4290  0.4545
  748MOL0     H98715   2.233  12.601   8.733  2.8390 -3.1698 -1.8636
  748MOL0     H98716   2.032  12.573   8.591  2.7905  0.5952  0.1058
  748MOL0     H98717   2.014  12.689   8.729  1.9904  0.5887  1.9571
  748MOL0     H98718   2.964  12.115   8.950  0.0863 -0.2738 -1.1662
  748MOL0     H98719   3.191  12.015   8.985 -0.1446 -0.1841  4.2006
  748MOL0     H98720   3.372  11.472   9.228  1.7552 -0.7897 -0.0688
  748MOL0     H98721   3.605  11.402   9.288 -0.3607 -0.5159 -0.6428
  748MOL0     H98722   5.058  11.066  10.609 -1.9676  0.1197 -2.0561
  748MOL0     H98723   5.266  10.987  10.687 -2.0067 -0.7469  2.4118
  748MOL0     H98724   5.434  10.393  10.795 -1.2921  2.2234  0.1295
  748MOL0     H98725   5.652  10.294  10.832 -3.2527  0.3084  2.5940
  748MOL0     H98726   5.847  10.453  11.032  0.0670 -1.4198  1.6279
  748MOL0     H98727   6.026  10.481  10.973  1.4916 -1.8299  0.7360
  748MOL0     H98728   5.947  10.295  11.115 -2.1471  1.2362  0.1844
  748MOL0     H98729   5.901  10.219  10.954 -0.0007  1.7205 -1.9082
  748MOL0     H98730   6.181  10.332  11.026 -0.3544  1.0920 -2.0802
  748MOL0     H98731   6.132  10.268  10.869  1.7049 -0.1377  0.2489
  748MOL0     H98732   6.143  10.089  11.120  1.1746  0.1998  0.7446
  748MOL0     H98733   6.112  10.046  10.960  0.8011  1.7068 -2.3412
  748MOL0     H98734   6.519  10.152  10.917  0.2481 -2.1856  0.1850
  748MOL0     H98735   5.848  10.668  10.755 -0.8702  0.2200 -2.6098
  748MOL0     H98736   5.629  10.766  10.713 -1.5860  0.9800  2.3704
  749MOL0     O98737   6.710   0.520   0.408 -0.0754 -0.0667  0.1652
  749MOL0     C98738   6.673   0.585   0.504 -0.2908 -0.2413 -0.2171
  749MOL0     O98739   6.565   0.555   0.589  0.1471  0.1869 -0.0869
  749MOL0     C98740   6.503   0.429   0.578 -0.0872 -0.2895  0.7907
  749MOL0     C98741   6.363   0.428   0.602  0.2885  1.1716 -0.7491
  749MOL0     C98742   6.298   0.307   0.631  0.0979 -0.1721  0.7579
  749MOL0     C98743   6.370   0.187   0.623  1.1556 -0.2087  0.3619
  749MOL0     O98744   6.303   0.062   0.629 -0.1771  0.0956 -0.4407
  749MOL0     C98745   6.177   0.056   0.698  0.2545  0.2847  0.2158
  749MOL0     C98746   6.148  -0.069   0.777  0.1245 -0.4582 -0.0046
  749MOL0     C98747   6.001  -0.084   0.809  0.0853  0.2309  0.1136
  749MOL0     C98748   5.970   0.020   0.930 -0.5108  0.7479  0.2597
  749MOL0     C98749   5.820   0.016   0.977 -0.2859  0.2295  0.5894
  749MOL0     C98750   5.775  -0.124   1.027  0.4386  0.2949 -0.6681
  749MOL0     C98751   5.623  -0.141   1.032 -0.2149  0.5278 -0.0936
  749MOL0     C98752   5.567  -0.275   1.097 -0.5053  0.1013  0.8131
  749MOL0     N98753   5.420  -0.279   1.077  0.0342 -0.3203 -0.2777
  749MOL0     C98754   5.325  -0.230   1.162  0.2694  0.9637 -0.0851
  749MOL0     C98755   5.207  -0.257   1.110  0.3416 -0.0249 -0.1712
  749MOL0     C98756   5.081  -0.196   1.155  0.4665  0.9184 -0.4034
  749MOL0     C98757   5.041  -0.061   1.089 -0.3647  0.9278  0.0193
  749MOL0     C98758   5.083  -0.041   0.948 -0.4711 -0.9796 -0.0210
  749MOL0     C98759   5.061   0.107   0.912  0.8282  0.5610 -0.3501
  749MOL0     O98760   5.101   0.142   0.772  0.1222 -0.1083 -0.4581
  749MOL0     C98761   5.235   0.162   0.744  0.4532  0.2738 -0.6990
  749MOL0     C98762   5.261   0.208   0.618 -0.4214 -0.3537  0.0915
  749MOL0     C98763   5.395   0.221   0.573  0.6549  0.0835 -0.4013
  749MOL0     C98764   5.500   0.192   0.655 -0.4076  0.3272 -0.5029
  749MOL0     C98765   5.644   0.213   0.602 -0.6735  0.4070  0.4047
  749MOL0     O98766   5.665   0.216   0.465 -0.7702 -0.1651  0.1467
  749MOL0     C98767   5.798   0.208   0.423  0.4878  0.1594 -0.2397
  749MOL0     C98768   5.865   0.088   0.410 -0.4965 -0.2882 -0.7612
  749MOL0     C98769   5.993   0.085   0.350 -0.3934 -0.4775 -0.1063
  749MOL0     C98770   6.049   0.211   0.320  0.1173  0.1020 -0.5728
  749MOL0     O98771   6.184   0.220   0.298  1.0424 -0.7866  0.5736
  749MOL0     C98772   6.234   0.332   0.221 -0.0701 -0.4132 -0.9281
  749MOL0     C98773   6.365   0.278   0.168  0.2418  0.9295 -0.6128
  749MOL0     C98774   6.442   0.404   0.112 -0.7662 -0.2260  0.3200
  749MOL0     C98775   6.515   0.372  -0.023 -0.1461  0.2504  0.3026
  749MOL0     C98776   6.609   0.489  -0.053 -0.3572 -0.2033  0.3615
  749MOL0     C98777   6.730   0.441  -0.138 -0.6053 -0.1082 -0.1719
  749MOL0     C98778   6.836   0.550  -0.162  0.7223  0.5349  0.5793
  749MOL0     C98779   6.928   0.523  -0.285 -0.2688 -0.1862 -0.6032
  749MOL0    Cl98780   6.833   0.481  -0.433 -0.0344  0.2316 -0.2699
  749MOL0     C98781   5.982   0.339   0.345 -0.6454  1.3614 -0.3186
  749MOL0     C98782   5.860   0.332   0.398 -0.2145  0.6140  0.4348
  749MOL0     O98783   5.737   0.223   0.687  0.3136  0.5678 -0.7737
  749MOL0     C98784   5.476   0.151   0.777 -0.4998 -0.1262 -0.0100
  749MOL0     C98785   5.349   0.130   0.823  0.3553 -0.6427 -0.7081
  749MOL0     N98786   5.220  -0.342   1.009  0.6759 -0.1875  0.1834
  749MOL0     N98787   5.348  -0.362   0.992  0.0928  0.0884  0.1135
  749MOL0     C98788   6.507   0.184   0.591 -0.9386  0.0395  0.1130
  749MOL0     C98789   6.570   0.309   0.572 -0.0292  0.2803 -0.4511
  749MOL0     C98790   6.744   0.713   0.518 -1.2108 -0.3649  0.9165
  749MOL0     C98791   6.693   0.826   0.576 -0.3562 -0.3925  0.2209
  749MOL0     C98792   6.763   0.949   0.575 -0.1307  0.6523  0.1102
  749MOL0     C98793   6.900   0.957   0.536  1.1752  0.8031 -1.0448
  749MOL0     O98794   6.979   1.067   0.524 -0.2762  0.3931 -0.3539
  749MOL0     C98795   6.939   1.186   0.593 -0.4178 -0.5042 -0.2508
  749MOL0     C98796   6.911   1.295   0.486  0.4054 -0.8167 -0.3286
  749MOL0     C98797   7.038   1.335   0.408  0.0153 -0.4178 -0.2181
  749MOL0     C98798   7.006   1.468   0.347 -0.5453 -0.7144 -0.0013
  749MOL0     C98799   6.928   1.453   0.224 -0.0495  0.5627 -0.5580
  749MOL0     C98800   6.883   1.437   0.114  0.2667 -0.1501  0.3196
  749MOL0     C98801   6.954   0.838   0.497  0.0132  0.5279  0.8868
  749MOL0     C98802   6.878   0.722   0.484  0.2891  0.4781  1.0131
  749MOL0     H98803   6.308   0.521   0.602 -0.6525  0.6763  1.3892
  749MOL0     H98804   6.192   0.327   0.636  0.3603  2.6321 -1.9314
  749MOL0     H98805   6.105   0.063   0.616  2.2538  0.1998 -1.6334
  749MOL0     H98806   6.168   0.140   0.767 -0.5116 -0.1234  0.6268
  749MOL0     H98807   6.208  -0.070   0.869 -0.0530 -2.0247  0.1249
  749MOL0     H98808   6.173  -0.156   0.715 -0.2890  1.3130 -2.8669
  749MOL0     H98809   5.981  -0.180   0.857 -5.6046  2.4735  3.2522
  749MOL0     H98810   5.943  -0.076   0.716 -0.4486  0.9444  0.5005
  749MOL0     H98811   6.034  -0.011   1.013  0.0735 -2.8705 -1.3510
  749MOL0     H98812   5.989   0.123   0.897  0.1364 -0.4442 -3.5667
  749MOL0     H98813   5.754   0.051   0.897 -0.2635  0.2624  0.5853
  749MOL0     H98814   5.814   0.081   1.064 -3.4864 -0.5809  1.1185
  749MOL0     H98815   5.806  -0.158   1.126 -3.4428  1.5191  1.1422
  749MOL0     H98816   5.805  -0.204   0.959  0.2720 -1.6167  1.3992
  749MOL0     H98817   5.587  -0.073   1.109 -7.2829 -0.7906 -1.5735
  749MOL0     H98818   5.576  -0.115   0.937 -0.8644 -1.3561 -0.3221
  749MOL0     H98819   5.597  -0.277   1.202  1.5496 -0.0602  0.2724
  749MOL0     H98820   5.619  -0.356   1.044  1.4044  1.8535 -0.1078
  749MOL0     H98821   5.352  -0.154   1.235  0.6678 -0.2131  1.0348
  749MOL0     H98822   5.099  -0.190   1.263  1.9193 -0.6560 -0.5204
  749MOL0     H98823   4.995  -0.263   1.141  2.4438 -1.9168  0.2183
  749MOL0     H98824   5.097   0.019   1.138 -1.8221  2.1342 -0.2354
  749MOL0     H98825   4.932  -0.059   1.088 -0.4697  1.6950  3.1389
  749MOL0     H98826   5.184  -0.077   0.926  0.2012  0.9361 -0.2695
  749MOL0     H98827   5.009  -0.088   0.884  0.8322 -1.2227 -1.4224
  749MOL0     H98828   5.120   0.160   0.988 -1.8017 -2.1307  3.9939
  749MOL0     H98829   4.955   0.133   0.918  0.1337 -0.4708 -4.9840
  749MOL0     H98830   5.180   0.243   0.555 -0.1804  0.4893  0.2410
  749MOL0     H98831   5.419   0.240   0.468 -0.5533  2.0857 -0.3753
  749MOL0     H98832   5.820  -0.006   0.441  4.2928 -1.9465  2.4075
  749MOL0     H98833   6.047  -0.008   0.338 -1.3519 -1.4425  2.4037
  749MOL0     H98834   6.266   0.410   0.290  1.8202 -1.8674 -0.0647
  749MOL0     H98835   6.163   0.370   0.147  0.4421 -0.3333 -1.3853
  749MOL0     H98836   6.356   0.200   0.091  1.6520 -0.6077  0.7011
  749MOL0     H98837   6.425   0.233   0.248 -0.9443 -1.6478 -1.0483
  749MOL0     H98838   6.517   0.432   0.187  0.2303 -2.4287  0.2035
  749MOL0     H98839   6.383   0.492   0.082  4.8164  3.3009 -2.0743
  749MOL0     H98840   6.574   0.281  -0.012 -1.9709 -1.3693 -2.1055
  749MOL0     H98841   6.442   0.345  -0.101  2.6484 -3.5367 -1.3235
  749MOL0     H98842   6.652   0.521   0.042  1.0857 -0.3451 -0.2122
  749MOL0     H98843   6.567   0.574  -0.109  2.0351 -0.0035 -1.2814
  749MOL0     H98844   6.692   0.403  -0.233 -0.3535 -2.5080  0.6096
  749MOL0     H98845   6.790   0.368  -0.082  1.0125  2.0685  1.0975
  749MOL0     H98846   6.786   0.643  -0.188  0.3419 -0.5693 -3.1776
  749MOL0     H98847   6.903   0.565  -0.077  2.0510 -1.1936 -0.1050
  749MOL0     H98848   6.999   0.442  -0.264 -0.3600 -0.9464 -2.9812
  749MOL0     H98849   6.990   0.610  -0.309  0.0097 -0.6919 -1.8208
  749MOL0     H98850   6.026   0.438   0.340 -1.9508  2.3762  3.9626
  749MOL0     H98851   5.805   0.425   0.407  1.3250  1.4000  2.3082
  749MOL0     H98852   5.551   0.137   0.854 -1.3254  3.0874  1.5669
  749MOL0     H98853   5.337   0.092   0.924  3.5921 -0.8774 -0.2977
  749MOL0     H98854   6.554   0.086   0.588 -1.1830 -0.0781 -2.8646
  749MOL0     H98855   6.677   0.299   0.558 -0.1411 -0.0120 -1.1464
  749MOL0     H98856   6.591   0.812   0.609 -0.8207  0.6625 -0.7281
  749MOL0     H98857   6.698   1.030   0.608 -1.0274 -0.1180  0.2733
  749MOL0     H98858   7.025   1.208   0.657 -1.9256 -1.1532  2.1175
  749MOL0     H98859   6.851   1.181   0.658  0.3953 -1.8767  0.8083
  749MOL0     H98860   6.840   1.248   0.416  0.9304 -2.5030  0.2144
  749MOL0     H98861   6.866   1.382   0.535  1.7109 -0.4639  0.2803
  749MOL0     H98862   7.050   1.258   0.331  1.2868  1.2574 -1.8106
  749MOL0     H98863   7.118   1.348   0.480 -1.9498  4.2700  1.4846
  749MOL0     H98864   6.950   1.539   0.409  2.3011  4.1978 -2.4464
  749MOL0     H98865   7.099   1.520   0.319 -0.1291 -0.5867  1.5131
  749MOL0     H98866   6.850   1.406   0.017 -2.5859  1.4891  0.6528
  749MOL0     H98867   7.057   0.852   0.464 -0.6168 -0.8719 -1.9305
  749MOL0     H98868   6.914   0.642   0.421 -0.3526  1.3393 -0.5188
  750MOL0     O98869   8.621   3.907   8.249 -0.3907  0.6369  0.1500
  750MOL0     C98870   8.644   4.005   8.317  1.4587 -0.2136  0.1272
  750MOL0     O98871   8.734   4.016   8.419  0.0082 -0.1466  0.1676
  750MOL0     C98872   8.835   3.932   8.416 -0.5782  0.3284 -0.1156
  750MOL0     C98873   8.825   3.789   8.410 -0.0823 -0.1993 -0.1786
  750MOL0     C98874   8.937   3.712   8.403  0.2015 -0.4872 -0.4576
  750MOL0     C98875   9.062   3.773   8.416 -0.3773 -0.3112  1.3948
  750MOL0     O98876   9.179   3.704   8.404  0.6749  0.2389  0.7287
  750MOL0     C98877   9.172   3.591   8.322 -0.2286 -0.0086  0.7583
  750MOL0     C98878   9.309   3.529   8.296 -0.1237  0.0905  0.1846
  750MOL0     C98879   9.392   3.595   8.169 -1.4557  0.9058  0.5670
  750MOL0     C98880   9.538   3.525   8.155  0.4180  0.0925 -0.2578
  750MOL0     C98881   9.628   3.594   8.054 -0.0475  0.3408 -0.0610
  750MOL0     C98882   9.687   3.734   8.076 -0.4369  1.3784 -0.1564
  750MOL0     C98883   9.787   3.770   7.971  0.5247 -0.2427  0.4080
  750MOL0     C98884   9.803   3.921   7.943  0.6123 -0.8970 -0.9872
  750MOL0     N98885   9.681   3.973   7.880  0.5404 -0.4270  0.5539
  750MOL0     C98886   9.570   4.017   7.948  0.6055 -0.9532  0.4112
  750MOL0     C98887   9.460   4.012   7.871 -0.4932  0.9582 -0.8529
  750MOL0     C98888   9.319   4.056   7.921 -0.7873 -0.6107 -0.7201
  750MOL0     C98889   9.249   3.936   7.987 -0.3394 -0.6720 -0.1183
  750MOL0     C98890   9.100   3.967   8.005  0.9162 -0.9423 -0.5486
  750MOL0     C98891   9.073   4.048   8.130  1.0084  0.4734 -0.1453
  750MOL0     O98892   9.076   4.183   8.102  0.8854  0.0022 -0.2435
  750MOL0     C98893   8.964   4.242   8.047 -0.3314  0.4379  0.9114
  750MOL0     C98894   8.985   4.366   7.991  0.9945 -0.2855  0.0801
  750MOL0     C98895   8.875   4.436   7.931  0.0827 -0.2233  0.8340
  750MOL0     C98896   8.746   4.378   7.923 -0.9272  0.3233  0.2750
  750MOL0     C98897   8.629   4.441   7.849 -0.1587 -0.2176  0.0585
  750MOL0     O98898   8.632   4.575   7.807 -0.3459 -0.4185 -0.1740
  750MOL0     C98899   8.513   4.635   7.804  0.7591 -0.1780  0.7055
  750MOL0     C98900   8.469   4.696   7.688 -0.6116  0.2596  0.0476
  750MOL0     C98901   8.339   4.754   7.686  0.2578 -0.6322 -0.3978
  750MOL0     C98902   8.261   4.768   7.803 -0.8109  0.7616  0.0216
  750MOL0     O98903   8.133   4.815   7.778 -0.5617 -0.3363  0.5325
  750MOL0     C98904   8.038   4.823   7.887 -0.1478 -0.5513 -0.8568
  750MOL0     C98905   7.917   4.909   7.854  0.0175 -0.4227 -0.3204
  750MOL0     C98906   7.788   4.866   7.940 -0.0923  0.5831 -0.1610
  750MOL0     C98907   7.673   4.973   7.940 -0.8135 -0.0335 -0.0041
  750MOL0     C98908   7.636   4.993   7.798 -0.4074  0.0652 -0.5103
  750MOL0     C98909   7.484   5.042   7.790 -0.3538 -0.9880  0.1598
  750MOL0     C98910   7.465   5.109   7.653  0.0869  0.6805 -0.2192
  750MOL0     C98911   7.340   5.195   7.652 -0.2657  0.9919  0.4228
  750MOL0    Cl98912   7.326   5.301   7.516  0.3483 -0.0400 -0.4631
  750MOL0     C98913   8.315   4.722   7.924  0.0463  0.5852 -0.0195
  750MOL0     C98914   8.436   4.646   7.924 -0.5398 -1.1760 -0.2567
  750MOL0     O98915   8.535   4.361   7.829  0.5313 -0.6742  0.0455
  750MOL0     C98916   8.732   4.255   7.988  1.2542 -0.7198 -0.6537
  750MOL0     C98917   8.838   4.182   8.047 -0.1808 -0.3765 -0.3539
  750MOL0     N98918   9.509   3.963   7.753  0.2400  0.4125 -0.5060
  750MOL0     N98919   9.633   3.939   7.756  0.5484 -0.2545  0.1495
  750MOL0     C98920   9.078   3.913   8.432  0.6157 -0.5768  0.1950
  750MOL0     C98921   8.960   3.998   8.428 -0.1469  0.2236  0.3182
  750MOL0     C98922   8.562   4.132   8.297 -0.6834 -1.3854  0.5245
  750MOL0     C98923   8.460   4.134   8.198  1.2217 -0.2012 -0.0544
  750MOL0     C98924   8.385   4.251   8.166 -0.1876  0.0441  0.3351
  750MOL0     C98925   8.405   4.362   8.241 -1.1930  0.9098 -0.1733
  750MOL0     O98926   8.336   4.474   8.225 -0.7059 -0.3943 -0.0651
  750MOL0     C98927   8.197   4.463   8.211  0.2603 -0.2894 -0.0700
  750MOL0     C98928   8.119   4.500   8.341  0.1409 -0.6279 -0.3573
  750MOL0     C98929   8.087   4.375   8.424 -1.0055 -0.3011 -0.2689
  750MOL0     C98930   7.961   4.377   8.518 -0.4230  0.3649  0.1313
  750MOL0     C98931   7.950   4.238   8.562  0.1005  0.2581 -0.4138
  750MOL0     C98932   7.945   4.115   8.589  0.5315  0.1051 -0.1714
  750MOL0     C98933   8.501   4.363   8.339  0.2242  0.2556  0.5058
  750MOL0     C98934   8.572   4.254   8.371  0.7045  0.4328 -0.2436
  750MOL0     H98935   8.726   3.749   8.395  0.3900 -1.5907  0.1870
  750MOL0     H98936   8.924   3.604   8.396 -1.5028 -0.3279 -0.2145
  750MOL0     H98937   9.128   3.613   8.224 -2.2454 -1.2222  1.3334
  750MOL0     H98938   9.113   3.511   8.368  1.5624 -1.7527  0.1897
  750MOL0     H98939   9.287   3.423   8.282 -0.3767 -0.6402  4.5795
  750MOL0     H98940   9.379   3.538   8.379  4.1791 -2.0167 -2.8475
  750MOL0     H98941   9.401   3.703   8.176 -2.8386  1.1620 -0.8778
  750MOL0     H98942   9.336   3.584   8.075  2.4395  2.7780 -2.2175
  750MOL0     H98943   9.592   3.526   8.250  1.7287 -0.8404 -0.9674
  750MOL0     H98944   9.525   3.418   8.139 -2.1939  0.5743 -2.1473
  750MOL0     H98945   9.561   3.595   7.968 -1.6095  1.5524  1.1253
  750MOL0     H98946   9.712   3.525   8.037 -1.4244 -2.1117  2.2408
  750MOL0     H98947   9.731   3.728   8.176 -0.8838 -1.3442 -0.0639
  750MOL0     H98948   9.596   3.796   8.071 -2.1023 -0.7098  1.8011
  750MOL0     H98949   9.886   3.731   7.997  0.3652  0.6116  2.5062
  750MOL0     H98950   9.765   3.718   7.877  2.1027 -3.5796  1.7236
  750MOL0     H98951   9.889   3.912   7.876  1.9318  0.0586  0.5131
  750MOL0     H98952   9.826   3.978   8.033 -1.7551 -0.0865 -0.8265
  750MOL0     H98953   9.557   4.060   8.047 -1.4932  1.7441 -0.8979
  750MOL0     H98954   9.250   4.093   7.844 -0.8157 -0.3196 -0.5577
  750MOL0     H98955   9.328   4.135   7.996 -3.8382 -2.2985  1.6999
  750MOL0     H98956   9.294   3.924   8.086  2.3525  0.8439 -1.0673
  750MOL0     H98957   9.261   3.838   7.940  2.7678 -2.1052  3.1372
  750MOL0     H98958   9.075   4.024   7.916  0.6875 -0.1274  0.0235
  750MOL0     H98959   9.040   3.875   8.001  0.1954 -0.4665 -0.7421
  750MOL0     H98960   9.152   4.029   8.204 -1.5483  0.0432  2.6790
  750MOL0     H98961   8.978   4.011   8.169 -0.4854 -1.6731 -5.0570
  750MOL0     H98962   9.083   4.410   7.999  1.5209 -1.6667  1.9224
  750MOL0     H98963   8.898   4.529   7.880  0.6124 -1.6144 -1.5946
  750MOL0     H98964   8.539   4.692   7.605  3.5077  1.6973  3.0985
  750MOL0     H98965   8.298   4.796   7.595 -1.7759 -0.0197  0.7430
  750MOL0     H98966   8.085   4.870   7.973 -0.7634  1.2160 -1.4415
  750MOL0     H98967   8.000   4.724   7.914  0.4702 -0.9482 -1.4145
  750MOL0     H98968   7.892   4.898   7.748  0.0934 -0.4702 -0.3337
  750MOL0     H98969   7.943   5.014   7.869 -1.1561 -0.1726  0.0915
  750MOL0     H98970   7.827   4.848   8.040  0.5318 -3.5682 -0.9617
  750MOL0     H98971   7.750   4.770   7.905  0.5657  0.7651 -1.4480
  750MOL0     H98972   7.586   4.924   7.985 -0.1679  0.0245  1.3351
  750MOL0     H98973   7.705   5.062   7.994 -1.6745 -0.2373  0.8642
  750MOL0     H98974   7.649   4.899   7.744  0.6790 -0.1111  0.0323
  750MOL0     H98975   7.711   5.064   7.762  1.3719 -0.3263  2.2126
  750MOL0     H98976   7.468   5.113   7.872 -0.2648 -0.7227 -0.0515
  750MOL0     H98977   7.411   4.965   7.816  0.2511 -1.2873  1.0100
  750MOL0     H98978   7.551   5.173   7.636  1.0320 -0.6057 -0.3947
  750MOL0     H98979   7.464   5.033   7.574  2.0643 -0.9512  1.2333
  750MOL0     H98980   7.334   5.240   7.752 -0.1518 -2.0675  1.9349
  750MOL0     H98981   7.259   5.121   7.661  1.2238 -0.9304 -1.1205
  750MOL0     H98982   8.266   4.736   8.019 -2.5623 -2.6457 -0.6874
  750MOL0     H98983   8.476   4.603   8.015 -3.9668 -2.1034  0.9804
  750MOL0     H98984   8.632   4.212   7.996 -0.2621  2.8125  2.4585
  750MOL0     H98985   8.811   4.084   8.084 -2.0313 -0.1820 -1.0673
  750MOL0     H98986   9.180   3.951   8.437  0.2642  0.2797  1.6155
  750MOL0     H98987   8.971   4.106   8.425 -1.3768  0.6118  4.2610
  750MOL0     H98988   8.435   4.035   8.161  0.8996 -0.4263  0.7337
  750MOL0     H98989   8.302   4.240   8.097  2.1316  1.4027 -2.9317
  750MOL0     H98990   8.159   4.365   8.179  3.4483 -1.7616  0.3184
  750MOL0     H98991   8.159   4.534   8.137  1.6026 -0.0004 -0.4999
  750MOL0     H98992   8.173   4.572   8.401 -1.4707 -0.0257  0.4310
  750MOL0     H98993   8.030   4.551   8.304  0.4753  0.6360  0.5337
  750MOL0     H98994   8.172   4.338   8.481 -1.1850 -0.6914 -0.2513
  750MOL0     H98995   8.073   4.307   8.339 -0.2694 -1.4644  0.5163
  750MOL0     H98996   7.999   4.430   8.606  3.0737 -1.1374 -0.3324
  750MOL0     H98997   7.876   4.415   8.461  0.4333  1.4331 -0.4706
  750MOL0     H98998   7.930   4.016   8.627 -0.9962  1.1528  2.2079
  750MOL0     H98999   8.523   4.459   8.384  3.5364  0.9258 -2.0662
  750MOL0     H99000   8.630   4.263   8.463 -0.8024 -0.2936  0.8198
  751MOL0     O99001  10.557   2.752   2.248 -0.1357 -1.4360  1.3260
  751MOL0     C99002  10.590   2.868   2.217  0.3114  0.6060  0.3041
  751MOL0     O99003  10.704   2.905   2.158 -0.4688  0.6614  0.3155
  751MOL0     C99004  10.771   2.818   2.064  0.6823 -0.6199 -0.7026
  751MOL0     C99005  10.714   2.715   1.988 -0.3538  0.7072  0.1587
  751MOL0     C99006  10.789   2.641   1.895  0.2974  0.6137 -0.0402
  751MOL0     C99007  10.931   2.662   1.883  0.6482  0.1286 -0.2052
  751MOL0     O99008  10.990   2.583   1.791 -0.3482 -0.3816  0.6445
  751MOL0     C99009  11.117   2.623   1.736 -0.0624 -0.6227  0.6118
  751MOL0     C99010  11.140   2.542   1.604  0.7686  0.3023  0.3010
  751MOL0     C99011  11.030   2.577   1.499 -0.6397  0.6760  0.5296
  751MOL0     C99012  11.070   2.517   1.358  0.4155  0.5017  0.5227
  751MOL0     C99013  10.968   2.548   1.246  0.1895  0.1770  0.4355
  751MOL0     C99014  11.014   2.495   1.108 -0.2577 -0.1403 -0.5807
  751MOL0     C99015  11.132   2.567   1.046 -0.0907 -0.1749  1.2836
  751MOL0     C99016  11.170   2.497   0.912 -0.1396  1.0100 -0.3371
  751MOL0     N99017  11.110   2.563   0.799 -0.0039 -0.6652 -0.6735
  751MOL0     C99018  11.141   2.685   0.761  0.6439 -1.0151 -0.3231
  751MOL0     C99019  11.046   2.718   0.674  1.1096  0.1093  0.0527
  751MOL0     C99020  11.047   2.850   0.588 -0.1424  0.0803 -0.1047
  751MOL0     C99021  10.992   2.968   0.664  0.4447 -0.4255  0.0734
  751MOL0     C99022  11.007   3.090   0.590  0.1313 -1.4152  0.3359
  751MOL0     C99023  10.947   3.210   0.666 -0.4815 -0.5075  1.2166
  751MOL0     O99024  10.821   3.192   0.724 -0.2301 -0.1107 -0.5026
  751MOL0     C99025  10.713   3.151   0.651  0.7782  0.4230 -0.2541
  751MOL0     C99026  10.703   3.160   0.517  0.2618 -0.1560 -0.5822
  751MOL0     C99027  10.590   3.114   0.457 -0.9800 -0.2938  0.2773
  751MOL0     C99028  10.485   3.057   0.532 -0.2590  0.7878 -0.7349
  751MOL0     C99029  10.359   2.999   0.483 -0.2305  0.3983 -0.5726
  751MOL0     O99030  10.255   2.963   0.577  0.0657 -0.8205  0.0435
  751MOL0     C99031  10.134   2.954   0.515 -0.2779 -0.4130  0.0939
  751MOL0     C99032  10.086   2.827   0.477  0.2604 -0.3349  0.1301
  751MOL0     C99033   9.971   2.817   0.394 -0.7021  0.9287  0.9232
  751MOL0     C99034   9.888   2.922   0.367  1.6184 -0.4182 -0.2101
  751MOL0     O99035   9.784   2.921   0.272  0.0186  0.7916  0.2790
  751MOL0     C99036   9.741   2.798   0.217  0.1823 -0.4110 -0.1513
  751MOL0     C99037   9.607   2.819   0.145 -0.1654  0.8873 -0.3376
  751MOL0     C99038   9.634   2.838  -0.011  0.1945  0.4117  0.3588
  751MOL0     C99039   9.651   2.706  -0.084  0.1810  0.3750 -0.4238
  751MOL0     C99040   9.704   2.727  -0.230 -0.2231  0.7662 -0.0614
  751MOL0     C99041   9.750   2.607  -0.312  0.2555  0.5583  0.2482
  751MOL0     C99042   9.752   2.640  -0.468 -0.0560  0.2616 -0.9584
  751MOL0     C99043   9.804   2.512  -0.530 -0.0717 -0.6193 -0.0870
  751MOL0    Cl99044   9.688   2.377  -0.515 -0.2046  0.5251 -0.0298
  751MOL0     C99045   9.923   3.049   0.421 -0.6243  1.4901 -0.1583
  751MOL0     C99046  10.052   3.071   0.486 -0.7156  0.0348 -0.5847
  751MOL0     O99047  10.350   2.992   0.365  0.2767  0.8126 -0.3661
  751MOL0     C99048  10.498   3.066   0.676  0.0610  0.7212  0.4378
  751MOL0     C99049  10.611   3.103   0.739 -0.5425 -0.1984  0.5361
  751MOL0     N99050  10.950   2.624   0.662 -0.2299 -0.4561  0.7833
  751MOL0     N99051  10.995   2.528   0.741  0.3554  0.3262  0.2891
  751MOL0     C99052  10.988   2.766   1.957 -0.2761  0.2090  0.8765
  751MOL0     C99053  10.905   2.843   2.046 -0.1757  0.1475 -0.3415
  751MOL0     C99054  10.515   2.983   2.265  0.4439 -0.0081 -1.1858
  751MOL0     C99055  10.377   2.968   2.296 -0.7824 -0.3213 -0.9295
  751MOL0     C99056  10.306   3.078   2.347 -0.9776  0.0183 -0.9074
  751MOL0     C99057  10.362   3.200   2.370 -0.7006  0.4968  0.8158
  751MOL0     O99058  10.274   3.287   2.427 -1.0291  0.3870 -0.3862
  751MOL0     C99059  10.322   3.403   2.505  0.0428  0.3887 -1.1671
  751MOL0     C99060  10.245   3.526   2.447  0.6351 -0.1455  0.0030
  751MOL0     C99061  10.232   3.637   2.545  0.3091 -0.7121 -0.3618
  751MOL0     C99062  10.160   3.752   2.471  0.5603  0.1400 -0.1663
  751MOL0     C99063  10.106   3.849   2.567 -0.3954 -0.2902  0.1729
  751MOL0     C99064  10.064   3.936   2.643 -0.0703  0.5180 -0.0116
  751MOL0     C99065  10.503   3.217   2.336  1.0096  0.5404 -0.0656
  751MOL0     C99066  10.577   3.112   2.291  0.7441 -0.2781  0.4997
  751MOL0     H99067  10.612   2.678   1.995 -0.7442  1.1737 -2.2203
  751MOL0     H99068  10.732   2.573   1.833 -2.1295 -0.3718  3.0105
  751MOL0     H99069  11.200   2.598   1.803  0.5752 -2.5621 -0.8176
  751MOL0     H99070  11.119   2.729   1.711  0.0834 -0.4833  1.1985
  751MOL0     H99071  11.152   2.435   1.619  2.4981  0.1585 -1.6586
  751MOL0     H99072  11.230   2.575   1.551 -0.3230  2.8526 -0.1159
  751MOL0     H99073  11.033   2.686   1.489 -1.7802  0.5734 -1.3479
  751MOL0     H99074  10.930   2.549   1.534 -0.0365 -0.7002  1.2392
  751MOL0     H99075  11.157   2.576   1.329 -1.2317  2.3531 -0.9937
  751MOL0     H99076  11.089   2.410   1.367  0.4416  0.2354 -2.0018
  751MOL0     H99077  10.940   2.653   1.230 -0.9203 -0.2811 -0.7752
  751MOL0     H99078  10.879   2.497   1.285 -0.2918 -0.5904 -1.5573
  751MOL0     H99079  10.936   2.475   1.034 -1.5691 -0.7709  0.9363
  751MOL0     H99080  11.060   2.396   1.120 -0.4742 -0.2473 -0.6309
  751MOL0     H99081  11.103   2.670   1.021  2.5596  0.4782  0.5774
  751MOL0     H99082  11.221   2.580   1.108  0.7293  0.3000  0.0422
  751MOL0     H99083  11.152   2.389   0.915 -1.1161  1.1130 -1.4876
  751MOL0     H99084  11.277   2.509   0.893  0.4512 -1.2600  1.1796
  751MOL0     H99085  11.230   2.746   0.777  0.9172 -1.4668 -0.1204
  751MOL0     H99086  11.015   2.841   0.484 -1.7441  2.9841  0.0329
  751MOL0     H99087  11.154   2.870   0.572 -0.3176  0.4141 -0.8963
  751MOL0     H99088  11.047   2.967   0.758  0.3589 -1.7623  0.1299
  751MOL0     H99089  10.887   2.941   0.679  0.2668 -0.1814 -0.6645
  751MOL0     H99090  11.104   3.126   0.556 -0.9854  2.3221  0.7111
  751MOL0     H99091  10.951   3.078   0.497 -0.8678  3.0103  0.1617
  751MOL0     H99092  10.941   3.298   0.602  1.0950 -0.3282  1.2774
  751MOL0     H99093  11.016   3.231   0.749 -1.6056  0.5937  1.9155
  751MOL0     H99094  10.777   3.216   0.461 -0.8614  1.3687 -0.6062
  751MOL0     H99095  10.585   3.109   0.348 -3.0362 -1.5328  0.3752
  751MOL0     H99096  10.130   2.728   0.485 -0.8479 -0.8655 -0.0879
  751MOL0     H99097   9.942   2.718   0.360 -1.8089  2.0523 -1.6899
  751MOL0     H99098   9.734   2.728   0.301  3.4465  0.3345  0.8919
  751MOL0     H99099   9.818   2.757   0.152 -0.2360 -0.2994 -0.7337
  751MOL0     H99100   9.558   2.907   0.188 -0.1553  1.8085 -2.1355
  751MOL0     H99101   9.537   2.736   0.161 -0.1206  0.8712 -0.2233
  751MOL0     H99102   9.721   2.901  -0.033  1.1444 -0.3070  1.8886
  751MOL0     H99103   9.543   2.884  -0.051  0.9356  0.3055 -1.5491
  751MOL0     H99104   9.714   2.634  -0.030 -0.1498 -0.5387 -1.2196
  751MOL0     H99105   9.556   2.652  -0.092 -1.2890  3.0074 -2.4081
  751MOL0     H99106   9.775   2.810  -0.231  0.0546  0.6095  2.1662
  751MOL0     H99107   9.615   2.760  -0.285 -0.2970  0.4685 -0.1228
  751MOL0     H99108   9.682   2.525  -0.287 -1.2494  1.7468  0.2186
  751MOL0     H99109   9.854   2.594  -0.282  0.6916  1.6860 -0.7041
  751MOL0     H99110   9.650   2.657  -0.504 -1.8587 -2.5266  2.1657
  751MOL0     H99111   9.821   2.723  -0.482 -0.8481  1.1362  0.1522
  751MOL0     H99112   9.901   2.492  -0.482 -0.2419 -1.9456 -0.2809
  751MOL0     H99113   9.825   2.524  -0.637  1.4696 -1.4972  0.0814
  751MOL0     H99114   9.848   3.124   0.395 -4.6800 -1.2351  2.4648
  751MOL0     H99115  10.084   3.172   0.510  0.2804  0.0224 -1.7294
  751MOL0     H99116  10.419   3.043   0.748  0.6757 -4.1883 -0.1134
  751MOL0     H99117  10.618   3.101   0.847  0.9781  3.0979  0.6084
  751MOL0     H99118  11.084   2.794   1.915 -1.3684 -1.7235 -3.4337
  751MOL0     H99119  10.956   2.926   2.093 -0.0929 -1.5803  2.9076
  751MOL0     H99120  10.337   2.868   2.283  1.1291 -1.2369 -0.2062
  751MOL0     H99121  10.203   3.065   2.378 -1.6311  2.5301 -1.8075
  751MOL0     H99122  10.428   3.423   2.487 -0.1801  1.1134 -1.7095
  751MOL0     H99123  10.307   3.376   2.610  2.7825 -1.3287 -1.1068
  751MOL0     H99124  10.297   3.549   2.353  0.5891 -3.0289 -0.8104
  751MOL0     H99125  10.140   3.509   2.423 -0.6244  2.2137  3.1290
  751MOL0     H99126  10.331   3.664   2.583 -0.2071 -0.1809  0.6674
  751MOL0     H99127  10.173   3.616   2.635  1.7603  1.0303  1.0834
  751MOL0     H99128  10.227   3.786   2.392  0.7748 -2.6911 -1.3375
  751MOL0     H99129  10.074   3.718   2.413 -0.9381  4.5769 -0.8589
  751MOL0     H99130  10.013   4.008   2.703 -2.3403 -0.6245 -0.4474
  751MOL0     H99131  10.559   3.308   2.351  2.1564 -0.4209  1.8663
  751MOL0     H99132  10.679   3.130   2.261  0.3042  0.3782 -0.6389
  752MOL0     O99133   0.490   4.636   6.446 -0.5310  0.5807 -0.3947
  752MOL0     C99134   0.436   4.743   6.475  0.0705  0.3759 -0.5799
  752MOL0     O99135   0.468   4.866   6.415  0.4543  0.4065  0.2452
  752MOL0     C99136   0.586   4.877   6.341  1.0434  0.0723 -0.9331
  752MOL0     C99137   0.612   4.796   6.239 -0.9758 -0.0746  0.0167
  752MOL0     C99138   0.726   4.811   6.152  0.9061  0.1213 -0.8590
  752MOL0     C99139   0.805   4.912   6.175  0.1679 -0.3059  0.3477
  752MOL0     O99140   0.921   4.936   6.104  0.5893 -0.0573  0.2987
  752MOL0     C99141   0.927   4.890   5.969 -0.4018  0.8441  0.5407
  752MOL0     C99142   1.000   4.754   5.954  0.1014 -0.1780 -0.2161
  752MOL0     C99143   1.155   4.757   5.933  0.6731 -0.6444  0.6173
  752MOL0     C99144   1.215   4.631   5.903 -0.4168  0.1066 -0.4100
  752MOL0     C99145   1.192   4.587   5.753 -0.2681  0.3891 -0.0630
  752MOL0     C99146   1.237   4.436   5.751  0.7370  0.8720  0.2173
  752MOL0     C99147   1.234   4.389   5.606  0.8005 -1.1914  0.1462
  752MOL0     C99148   1.316   4.261   5.584 -0.4646 -0.3748 -0.0169
  752MOL0     N99149   1.254   4.143   5.642  0.0451 -0.2296 -0.3068
  752MOL0     C99150   1.123   4.105   5.626 -0.1714  0.6870 -1.1873
  752MOL0     C99151   1.122   3.984   5.696 -0.4980  0.0310 -0.3047
  752MOL0     C99152   1.015   3.881   5.687 -0.1650 -0.4249  0.5016
  752MOL0     C99153   0.939   3.860   5.821 -0.2444  0.6542  0.4483
  752MOL0     C99154   0.868   3.989   5.865 -0.3931  0.1163  0.4018
  752MOL0     C99155   0.772   3.964   5.983 -0.4068  0.1026 -0.3751
  752MOL0     O99156   0.675   3.863   5.951 -0.2315  0.3845 -0.3371
  752MOL0     C99157   0.583   3.827   6.045 -0.0521  0.0944 -0.8379
  752MOL0     C99158   0.598   3.842   6.187  0.8999  0.1602  0.2270
  752MOL0     C99159   0.495   3.819   6.274 -0.2886  0.0578  0.2476
  752MOL0     C99160   0.368   3.801   6.221 -0.7169  0.0996 -0.2112
  752MOL0     C99161   0.259   3.824   6.314  0.2782  0.0020 -0.1361
  752MOL0     O99162   0.278   3.905   6.423  0.8277 -0.3339  0.1386
  752MOL0     C99163   0.175   3.925   6.501  0.8803 -0.3001  0.1106
  752MOL0     C99164   0.160   3.829   6.604 -0.5141 -0.0326  0.3531
  752MOL0     C99165   0.049   3.842   6.693 -0.0752 -0.5249 -0.0800
  752MOL0     C99166  -0.034   3.955   6.682 -0.0860  0.5469 -0.0905
  752MOL0     O99167  -0.144   3.967   6.763 -0.0734 -0.4312 -0.1989
  752MOL0     C99168  -0.129   3.943   6.907  0.2858 -0.3792  0.3144
  752MOL0     C99169  -0.251   4.001   6.976 -0.0803 -0.4802  0.3051
  752MOL0     C99170  -0.267   3.956   7.124  0.9078  0.4841 -0.5741
  752MOL0     C99171  -0.402   4.003   7.172 -0.8048  0.8193 -0.8090
  752MOL0     C99172  -0.412   3.974   7.320 -0.1167 -0.2047 -0.4174
  752MOL0     C99173  -0.557   4.019   7.377 -0.2025  0.9215 -0.1279
  752MOL0     C99174  -0.573   4.174   7.393  0.5403 -0.4968  0.2155
  752MOL0     C99175  -0.699   4.225   7.473  0.4423  0.4194 -1.1829
  752MOL0    Cl99176  -0.697   4.204   7.656  0.0978  0.2654 -0.4918
  752MOL0     C99177  -0.018   4.049   6.583  0.1459 -0.7972  0.3419
  752MOL0     C99178   0.086   4.034   6.490  0.1718  0.0107  0.0925
  752MOL0     O99179   0.152   3.761   6.284 -0.2108  0.6077 -0.1396
  752MOL0     C99180   0.352   3.770   6.082 -0.1750  0.4146  0.1621
  752MOL0     C99181   0.465   3.788   6.001  0.1338 -0.8640  0.1640
  752MOL0     N99182   1.250   3.953   5.745  0.2162  0.5732 -0.7603
  752MOL0     N99183   1.321   4.052   5.718  0.4956  0.1789 -0.1205
  752MOL0     C99184   0.782   4.991   6.284  0.0465 -0.9378 -0.4686
  752MOL0     C99185   0.671   4.981   6.365  0.3871 -0.5964 -0.2796
  752MOL0     C99186   0.335   4.754   6.591 -0.5443  0.0827  0.9090
  752MOL0     C99187   0.274   4.874   6.634 -0.2711 -0.3933  0.0456
  752MOL0     C99188   0.169   4.869   6.726  0.0553  0.3745  0.5601
  752MOL0     C99189   0.129   4.745   6.770 -0.7446  0.0907  0.0159
  752MOL0     O99190   0.022   4.721   6.851 -0.1596 -0.3472  0.2819
  752MOL0     C99191  -0.053   4.821   6.922 -0.6149 -0.0503  0.1691
  752MOL0     C99192   0.026   4.886   7.044  0.0976  0.5621  0.5519
  752MOL0     C99193  -0.063   4.976   7.133 -0.1367 -0.1345  0.9537
  752MOL0     C99194  -0.081   4.921   7.275  0.2798  0.0090 -0.2629
  752MOL0     C99195   0.038   4.920   7.369  0.8054  0.6729 -0.0103
  752MOL0     C99196   0.109   4.887   7.461  0.8294  0.4162 -0.0317
  752MOL0     C99197   0.187   4.625   6.733  0.2664 -0.0344 -0.8757
  752MOL0     C99198   0.295   4.635   6.646  0.3185 -0.0078  1.3097
  752MOL0     H99199   0.556   4.705   6.223 -0.0653 -0.5364 -0.6345
  752MOL0     H99200   0.735   4.729   6.082  1.3267 -0.3689 -0.2396
  752MOL0     H99201   0.983   4.966   5.915 -1.7363  1.5590  0.1182
  752MOL0     H99202   0.828   4.883   5.923 -0.8080 -1.4917  1.6088
  752MOL0     H99203   0.963   4.708   5.862  2.1876  0.6965 -1.5693
  752MOL0     H99204   0.978   4.682   6.034 -0.8979 -0.4166 -0.6866
  752MOL0     H99205   1.183   4.807   6.026 -0.5437  0.0158  0.6519
  752MOL0     H99206   1.183   4.818   5.847  5.5239 -3.2649 -0.0017
  752MOL0     H99207   1.321   4.633   5.930 -0.6683 -0.2910  0.6292
  752MOL0     H99208   1.180   4.556   5.974  3.3375 -0.1037  1.4749
  752MOL0     H99209   1.264   4.646   5.695 -0.0797 -0.2701 -0.5116
  752MOL0     H99210   1.087   4.590   5.722 -1.1533 -0.0148  2.6469
  752MOL0     H99211   1.177   4.367   5.811  1.3294 -1.0957 -1.3427
  752MOL0     H99212   1.332   4.438   5.804 -0.2317  1.8980  2.0182
  752MOL0     H99213   1.131   4.370   5.574  0.6519  0.6175 -0.6004
  752MOL0     H99214   1.274   4.464   5.537 -1.7332 -0.0857 -0.2393
  752MOL0     H99215   1.421   4.268   5.612 -1.0381 -0.8379  2.4177
  752MOL0     H99216   1.320   4.253   5.475 -0.9255  1.0067 -0.1569
  752MOL0     H99217   1.042   4.154   5.573 -1.6670  0.9815  1.2371
  752MOL0     H99218   1.063   3.787   5.659  1.8459  0.3727  1.1184
  752MOL0     H99219   0.952   3.913   5.604  0.8677 -2.9404 -1.3857
  752MOL0     H99220   1.016   3.829   5.892 -0.6661  0.2972  0.7501
  752MOL0     H99221   0.866   3.779   5.811  2.5436 -1.8153 -1.4535
  752MOL0     H99222   0.935   4.072   5.887 -0.7277  0.6842 -0.6509
  752MOL0     H99223   0.798   4.013   5.785 -2.2424 -1.7778  1.3403
  752MOL0     H99224   0.719   4.055   6.013  0.2681  0.9847 -1.7604
  752MOL0     H99225   0.828   3.925   6.068  0.1760 -3.1310 -2.0766
  752MOL0     H99226   0.692   3.863   6.236  1.5335 -1.2960 -0.3229
  752MOL0     H99227   0.515   3.828   6.380 -4.0702 -1.5045  1.2828
  752MOL0     H99228   0.221   3.739   6.603 -1.3179 -0.6152  1.3745
  752MOL0     H99229   0.027   3.758   6.757  0.8052  0.7602  2.0280
  752MOL0     H99230  -0.040   3.993   6.946 -0.0474  0.9410 -0.5609
  752MOL0     H99231  -0.126   3.836   6.929  1.5277 -0.2009  1.1007
  752MOL0     H99232  -0.335   3.979   6.910  0.6380  0.8345 -1.1318
  752MOL0     H99233  -0.235   4.108   6.958  0.5011 -1.1499 -4.2777
  752MOL0     H99234  -0.194   3.992   7.197 -1.6002 -0.5808  2.6852
  752MOL0     H99235  -0.259   3.848   7.115  0.8185  0.3992  0.2716
  752MOL0     H99236  -0.417   4.111   7.156  1.1006  1.2114 -0.2107
  752MOL0     H99237  -0.472   3.942   7.116  0.2204 -0.7671 -0.4197
  752MOL0     H99238  -0.325   4.032   7.352  0.6885 -0.4294 -2.0753
  752MOL0     H99239  -0.387   3.871   7.344  1.7133  0.4473  0.6338
  752MOL0     H99240  -0.566   3.971   7.474  0.9044 -0.2411 -0.5648
  752MOL0     H99241  -0.640   3.986   7.314  1.8905 -3.2268 -1.0399
  752MOL0     H99242  -0.487   4.205   7.453  0.9431 -0.5222 -0.3434
  752MOL0     H99243  -0.571   4.218   7.293 -5.1204  1.8408  0.7491
  752MOL0     H99244  -0.787   4.163   7.450 -0.7019  1.1688  0.9194
  752MOL0     H99245  -0.704   4.331   7.446 -1.8608  0.2047 -1.8116
  752MOL0     H99246  -0.091   4.126   6.563  0.1612 -0.4880  1.4700
  752MOL0     H99247   0.114   4.103   6.411  2.2910 -0.6530  0.2141
  752MOL0     H99248   0.259   3.726   6.046 -0.5451  0.9501  0.4446
  752MOL0     H99249   0.454   3.783   5.893  1.0227 -1.3709  0.0892
  752MOL0     H99250   0.847   5.076   6.305  0.7435 -1.8635  1.4073
  752MOL0     H99251   0.649   5.057   6.439 -0.5419 -2.7055  1.7387
  752MOL0     H99252   0.314   4.970   6.604  1.4531 -0.0477  3.0463
  752MOL0     H99253   0.134   4.960   6.773 -0.0510  1.7524 -2.0077
  752MOL0     H99254  -0.143   4.775   6.964  0.2179 -0.4569  1.5721
  752MOL0     H99255  -0.080   4.898   6.849 -2.2965 -0.6164  0.1574
  752MOL0     H99256   0.069   4.805   7.104  0.8758 -2.3802 -3.5675
  752MOL0     H99257   0.115   4.941   7.016  1.1345 -0.2378  2.0832
  752MOL0     H99258  -0.159   5.004   7.089  0.2567  0.0797  0.2116
  752MOL0     H99259  -0.024   5.078   7.139  2.4330 -1.0766  1.4838
  752MOL0     H99260  -0.154   4.976   7.336 -0.7080 -0.0458 -1.3584
  752MOL0     H99261  -0.129   4.824   7.269  1.1993 -0.4527 -0.3060
  752MOL0     H99262   0.157   4.838   7.543  0.7656 -2.4424 -1.5858
  752MOL0     H99263   0.152   4.525   6.758  0.7547 -0.3607 -1.4677
  752MOL0     H99264   0.343   4.540   6.624 -2.9411 -1.2193 -1.7110
  753MOL0     O99265  10.699   1.508  10.618  0.3793  0.7494  0.0264
  753MOL0     C99266  10.738   1.611  10.563  0.0348  0.8381  0.0497
  753MOL0     O99267  10.664   1.689  10.476 -0.0486  0.2720  0.0833
  753MOL0     C99268  10.530   1.667  10.449 -1.0860  0.5973  0.3972
  753MOL0     C99269  10.441   1.595  10.541 -0.0809 -0.0334 -0.6079
  753MOL0     C99270  10.306   1.571  10.506  0.0914 -0.0065  0.4925
  753MOL0     C99271  10.266   1.594  10.372  0.3927  0.0714  0.7443
  753MOL0     O99272  10.143   1.547  10.333  0.7357  0.4719 -0.3723
  753MOL0     C99273  10.148   1.427  10.244 -0.7007 -0.8831  0.0463
  753MOL0     C99274  10.012   1.381  10.230 -0.2544 -0.7471  0.2576
  753MOL0     C99275   9.933   1.339  10.358  0.6950  0.7715 -0.7553
  753MOL0     C99276  10.022   1.261  10.461  0.6921 -0.0090 -0.3079
  753MOL0     C99277   9.950   1.205  10.581  0.1482  0.4346 -0.8197
  753MOL0     C99278   9.842   1.108  10.543  0.1172 -0.2589 -0.2015
  753MOL0     C99279   9.761   1.062  10.658  0.0461 -0.5250 -0.1072
  753MOL0     C99280   9.661   1.165  10.710  0.4307  0.9239  0.1336
  753MOL0     N99281   9.568   1.107  10.808  0.7428 -0.8495 -0.2157
  753MOL0     C99282   9.599   1.028  10.916  0.3262 -0.6854  0.2259
  753MOL0     C99283   9.476   1.005  10.982  0.0815  0.5578 -0.4349
  753MOL0     C99284   9.449   0.934  11.115 -0.5709  0.0405 -0.6677
  753MOL0     C99285   9.377   0.806  11.086  0.5460 -0.4702  0.5406
  753MOL0     C99286   9.443   0.704  10.995 -0.3733  1.6984 -0.2864
  753MOL0     C99287   9.331   0.610  10.951 -0.0730 -0.0553 -0.0576
  753MOL0     O99288   9.377   0.479  10.912 -1.2830 -0.1252  1.0910
  753MOL0     C99289   9.286   0.401  10.845 -0.4196 -0.3464 -0.3219
  753MOL0     C99290   9.329   0.303  10.758 -0.3022  0.1494  0.9013
  753MOL0     C99291   9.240   0.228  10.682 -0.0526  0.2084  0.1671
  753MOL0     C99292   9.103   0.254  10.687  0.3574 -0.5142  0.2429
  753MOL0     C99293   9.009   0.169  10.611 -0.2846 -1.0321  0.2612
  753MOL0     O99294   9.060   0.100  10.503  0.2043 -0.7873 -0.2307
  753MOL0     C99295   8.965   0.061  10.414  0.0504  0.6878 -0.5518
  753MOL0     C99296   8.977   0.106  10.279 -0.0929 -0.4757  0.0379
  753MOL0     C99297   8.892   0.066  10.174 -0.9335 -0.3810 -0.1083
  753MOL0     C99298   8.790  -0.028  10.207 -0.4441  0.4028 -0.0793
  753MOL0     O99299   8.708  -0.081  10.114 -0.2916  0.0238 -0.0950
  753MOL0     C99300   8.781  -0.183  10.039 -0.0382  0.6532 -0.5070
  753MOL0     C99301   8.685  -0.232   9.928 -0.4021  0.4205 -0.0609
  753MOL0     C99302   8.740  -0.347   9.828  0.2132  0.3656 -0.3153
  753MOL0     C99303   8.876  -0.310   9.769  0.4879  0.4692  0.2383
  753MOL0     C99304   8.901  -0.385   9.641  0.4616  0.3355  0.1845
  753MOL0     C99305   9.040  -0.360   9.589  0.3998 -0.4604  0.2761
  753MOL0     C99306   9.054  -0.414   9.446 -0.1943 -0.1129  0.3789
  753MOL0     C99307   9.081  -0.567   9.448 -0.2101 -0.6372 -0.0433
  753MOL0    Cl99308   9.104  -0.616   9.278 -0.3223  0.3852  0.0325
  753MOL0     C99309   8.778  -0.070  10.340  0.7353  0.6130 -0.9631
  753MOL0     C99310   8.863  -0.030  10.443  0.3361  0.1809 -0.1972
  753MOL0     O99311   8.886   0.170  10.652 -1.1984 -0.0423 -0.2146
  753MOL0     C99312   9.052   0.354  10.780  0.8774 -0.5087  0.2689
  753MOL0     C99313   9.147   0.425  10.855 -1.1971  0.4438 -0.3813
  753MOL0     N99314   9.381   1.075  10.910 -0.5222 -0.0304  0.5256
  753MOL0     N99315   9.435   1.129  10.815  0.6924 -1.0473 -0.3631
  753MOL0     C99316  10.359   1.656  10.284  0.7927  0.5138  0.3675
  753MOL0     C99317  10.483   1.695  10.321 -0.6002  0.2817 -0.7969
  753MOL0     C99318  10.879   1.642  10.586  0.1883  0.4916 -1.9884
  753MOL0     C99319  10.935   1.750  10.524  0.5394 -1.1425  0.2832
  753MOL0     C99320  11.071   1.768  10.533  0.3060 -0.8535 -0.2062
  753MOL0     C99321  11.157   1.683  10.596 -0.2449 -0.5849 -0.7082
  753MOL0     O99322  11.287   1.698  10.574  0.0705  0.4556  0.5373
  753MOL0     C99323  11.381   1.593  10.617  0.9395  0.5498 -0.2202
  753MOL0     C99324  11.407   1.594  10.764  0.1675  0.1997 -0.4398
  753MOL0     C99325  11.505   1.484  10.794 -0.9219 -0.2541  0.8708
  753MOL0     C99326  11.596   1.503  10.914  1.1224 -0.4776 -0.6634
  753MOL0     C99327  11.693   1.395  10.924  0.6940 -0.5190  1.2023
  753MOL0     C99328  11.775   1.308  10.947 -0.3786  0.6477 -0.0249
  753MOL0     C99329  11.100   1.573  10.663  0.6671 -0.8567 -0.5750
  753MOL0     C99330  10.958   1.560  10.667 -1.1636 -0.6797 -0.0296
  753MOL0     H99331  10.473   1.567  10.641 -1.9422  1.1490  0.3782
  753MOL0     H99332  10.237   1.515  10.568 -1.7257 -0.8968 -2.1628
  753MOL0     H99333  10.200   1.339  10.284  2.2119 -0.1189 -1.7352
  753MOL0     H99334  10.194   1.457  10.150 -2.2116  2.5904  0.2895
  753MOL0     H99335  10.037   1.293  10.170  0.3126 -2.8216  3.2821
  753MOL0     H99336   9.947   1.446  10.172 -0.5660 -0.6319  0.7288
  753MOL0     H99337   9.849   1.280  10.323 -0.2682 -0.0837  2.6342
  753MOL0     H99338   9.892   1.428  10.408  1.0571  1.5210 -1.7514
  753MOL0     H99339  10.085   1.187  10.410 -0.2429 -1.0605  0.0194
  753MOL0     H99340  10.093   1.332  10.504 -0.3724  1.1828 -0.4672
  753MOL0     H99341   9.903   1.282  10.642  1.8353  0.3492  0.6884
  753MOL0     H99342  10.026   1.156  10.643  0.1655 -0.9324 -1.8668
  753MOL0     H99343   9.873   1.019  10.487 -0.2071 -0.3401 -0.2521
  753MOL0     H99344   9.774   1.164  10.478 -2.7897  1.9480  4.2845
  753MOL0     H99345   9.689   0.981  10.644 -2.2612  0.8749  2.7808
  753MOL0     H99346   9.827   1.029  10.739 -0.0141  0.8024  0.5090
  753MOL0     H99347   9.600   1.203  10.628 -0.2575  1.2997  0.8106
  753MOL0     H99348   9.700   1.261  10.746 -1.4221  2.0876 -0.8345
  753MOL0     H99349   9.693   1.005  10.965  0.3150  2.0874  1.7604
  753MOL0     H99350   9.400   1.008  11.180  1.9459  1.7048 -0.5294
  753MOL0     H99351   9.550   0.931  11.157  0.5458  4.1465 -2.5024
  753MOL0     H99352   9.281   0.828  11.038 -0.2896 -2.9032  0.9814
  753MOL0     H99353   9.376   0.760  11.185 -0.2142  2.0835  1.8089
  753MOL0     H99354   9.494   0.751  10.910  3.1929  1.1767  1.3908
  753MOL0     H99355   9.515   0.649  11.055 -0.1318 -0.0222 -2.0512
  753MOL0     H99356   9.274   0.658  10.871 -0.3584 -1.3477 -0.6618
  753MOL0     H99357   9.267   0.589  11.037  1.3663 -1.4527  0.7317
  753MOL0     H99358   9.434   0.286  10.740  0.2313  2.8767  0.9681
  753MOL0     H99359   9.269   0.142  10.623  0.8610  0.3144  0.4435
  753MOL0     H99360   9.067   0.163  10.260 -0.0729 -1.1427 -2.1440
  753MOL0     H99361   8.918   0.101  10.074 -0.5640  2.3139  0.8394
  753MOL0     H99362   8.804  -0.265  10.108 -1.9827  0.8101  0.4048
  753MOL0     H99363   8.878  -0.143  10.008  0.2875  1.3126  1.2046
  753MOL0     H99364   8.647  -0.145   9.874 -0.6538  0.1774 -0.2727
  753MOL0     H99365   8.601  -0.281   9.978  0.6366 -0.1855  1.1584
  753MOL0     H99366   8.661  -0.352   9.753 -0.8729 -0.4106  0.8300
  753MOL0     H99367   8.752  -0.443   9.880 -1.2971  0.6290  0.5636
  753MOL0     H99368   8.874  -0.204   9.743  0.7259 -0.0822 -2.2456
  753MOL0     H99369   8.955  -0.324   9.844  0.2815 -0.9135  0.2233
  753MOL0     H99370   8.832  -0.350   9.563 -3.3880  1.1586  3.6157
  753MOL0     H99371   8.869  -0.488   9.656 -1.8263  0.9444 -0.1146
  753MOL0     H99372   9.111  -0.421   9.645  2.8829  1.4879 -0.5511
  753MOL0     H99373   9.063  -0.254   9.576  2.2811 -1.0158 -1.4793
  753MOL0     H99374   8.955  -0.413   9.400 -0.0394  1.2718  0.0093
  753MOL0     H99375   9.126  -0.351   9.392  0.8645 -1.3134  0.3751
  753MOL0     H99376   9.015  -0.635   9.502 -0.3827  0.2433  0.8616
  753MOL0     H99377   9.183  -0.565   9.488  0.2958  2.4131 -1.2204
  753MOL0     H99378   8.722  -0.161  10.360  0.6709  0.2575 -2.5966
  753MOL0     H99379   8.858  -0.068  10.544 -1.1783  0.9397  0.0512
  753MOL0     H99380   8.946   0.368  10.795  0.4380 -1.2065 -1.8050
  753MOL0     H99381   9.112   0.498  10.928  2.3066  0.9299  1.0068
  753MOL0     H99382  10.313   1.676  10.188  2.8953  0.8564 -0.6166
  753MOL0     H99383  10.556   1.731  10.249  3.5236 -0.0725  2.7813
  753MOL0     H99384  10.880   1.821  10.463 -0.2440 -0.9260  1.2356
  753MOL0     H99385  11.107   1.850  10.472  0.3024 -1.5713 -1.1810
  753MOL0     H99386  11.475   1.596  10.560  2.1301 -2.5116  1.3241
  753MOL0     H99387  11.341   1.500  10.576  1.4775  0.8865 -1.5563
  753MOL0     H99388  11.444   1.694  10.787 -0.4752  0.1187  1.0487
  753MOL0     H99389  11.308   1.584  10.810 -0.7304  0.1398 -2.2779
  753MOL0     H99390  11.564   1.467  10.703  1.8650 -1.8689  2.8220
  753MOL0     H99391  11.445   1.394  10.810  1.3657 -1.8545  1.0571
  753MOL0     H99392  11.653   1.596  10.915 -0.4336  0.5042 -0.0362
  753MOL0     H99393  11.522   1.502  10.995  0.9063 -2.4581 -0.8328
  753MOL0     H99394  11.850   1.231  10.950 -3.1372 -2.3498 -1.6393
  753MOL0     H99395  11.161   1.498  10.712  3.7545  0.6400 -1.8285
  753MOL0     H99396  10.912   1.478  10.721  3.7855 -4.1554 -0.4159
  754MOL0     O99397   7.359   6.311  10.139 -0.3919  0.0716  0.0145
  754MOL0     C99398   7.469   6.251  10.138  0.2000  0.6048  0.5377
  754MOL0     O99399   7.532   6.197  10.245  0.2304 -0.1067  0.7298
  754MOL0     C99400   7.494   6.255  10.361  0.5314 -0.3344 -0.2833
  754MOL0     C99401   7.429   6.174  10.450  0.4471 -0.2626  0.1929
  754MOL0     C99402   7.389   6.229  10.572 -1.1795 -0.1404 -0.8339
  754MOL0     C99403   7.423   6.366  10.607  0.6848 -0.0038 -0.7029
  754MOL0     O99404   7.379   6.409  10.732  0.3309  0.8304  0.0830
  754MOL0     C99405   7.470   6.484  10.817 -0.5568  1.5968  0.5339
  754MOL0     C99406   7.393   6.548  10.927 -0.6925 -0.3123  0.4203
  754MOL0     C99407   7.314   6.470  11.029  0.5793 -0.3977 -0.2647
  754MOL0     C99408   7.189   6.406  10.988 -0.6429 -0.0051  0.4310
  754MOL0     C99409   7.068   6.416  11.082 -0.7985  0.2154 -0.8089
  754MOL0     C99410   7.088   6.348  11.213 -0.3082 -0.1777 -0.6496
  754MOL0     C99411   6.964   6.366  11.313 -0.1116  0.2080  0.5898
  754MOL0     C99412   6.944   6.239  11.406 -0.1400  0.0214  0.3058
  754MOL0     N99413   6.820   6.230  11.474 -0.7625 -0.2962  0.4877
  754MOL0     C99414   6.770   6.336  11.551  0.5404 -0.8288  0.3455
  754MOL0     C99415   6.646   6.298  11.589 -0.2739  0.2007 -0.0193
  754MOL0     C99416   6.561   6.359  11.690 -0.4973 -0.5158 -0.0507
  754MOL0     C99417   6.624   6.495  11.733  0.1319  0.0486 -0.8373
  754MOL0     C99418   6.522   6.580  11.808 -1.0565  0.4328 -0.3731
  754MOL0     C99419   6.403   6.634  11.736 -0.0218  0.0939 -0.5381
  754MOL0     O99420   6.318   6.720  11.815 -0.5962  1.0510 -0.1066
  754MOL0     C99421   6.188   6.757  11.777  0.4423 -0.8255  0.9072
  754MOL0     C99422   6.167   6.823  11.655  0.7871 -0.0790 -0.5687
  754MOL0     C99423   6.038   6.852  11.611  0.2850 -0.7026  0.7825
  754MOL0     C99424   5.920   6.805  11.680  0.2208 -0.9170  0.3142
  754MOL0     C99425   5.776   6.819  11.636 -0.4639 -0.0627 -0.6983
  754MOL0     O99426   5.680   6.753  11.700 -0.8239  0.3589 -0.2415
  754MOL0     C99427   5.558   6.735  11.638  0.0284  0.5853  0.4922
  754MOL0     C99428   5.543   6.678  11.508  0.2974 -0.3649 -0.0277
  754MOL0     C99429   5.420   6.674  11.440  0.6759  1.1964  0.5086
  754MOL0     C99430   5.302   6.709  11.511  0.2112 -0.5003  0.5137
  754MOL0     O99431   5.184   6.688  11.435  0.2826  0.7284 -0.2601
  754MOL0     C99432   5.063   6.673  11.509 -0.0080  0.1379 -0.6024
  754MOL0     C99433   5.004   6.816  11.528 -0.0065 -0.4720  0.2208
  754MOL0     C99434   4.866   6.791  11.585  0.4189  0.3196 -0.2549
  754MOL0     C99435   4.857   6.759  11.744 -0.5486  0.3020 -0.0177
  754MOL0     C99436   4.728   6.804  11.817 -0.4209 -0.7310  0.4188
  754MOL0     C99437   4.704   6.956  11.798  0.4425 -0.2833  0.3111
  754MOL0     C99438   4.593   7.012  11.884  1.1208 -1.3054 -0.1016
  754MOL0     C99439   4.634   7.019  12.025 -0.3729 -0.0107  0.3676
  754MOL0    Cl99440   4.493   7.058  12.123 -0.1859  0.3049  0.1224
  754MOL0     C99441   5.313   6.769  11.642  1.1322 -0.3372  0.4362
  754MOL0     C99442   5.441   6.779  11.700  0.0406  1.0983  0.4860
  754MOL0     O99443   5.765   6.873  11.528  0.3238  0.3760  0.1941
  754MOL0     C99444   5.946   6.747  11.805 -0.1677 -0.1156  0.0865
  754MOL0     C99445   6.078   6.722  11.851 -0.3368 -0.0557 -0.6278
  754MOL0     N99446   6.623   6.172  11.535 -0.5908 -0.2810 -0.1283
  754MOL0     N99447   6.724   6.144  11.456  0.1726  0.1097  0.3101
  754MOL0     C99448   7.496   6.443  10.514  0.3962  0.6269  0.1484
  754MOL0     C99449   7.531   6.388  10.389  0.6903 -0.1074 -0.4171
  754MOL0     C99450   7.512   6.214  10.009 -0.1391 -0.0954  0.1107
  754MOL0     C99451   7.422   6.202   9.902 -0.9640 -0.3780 -0.4805
  754MOL0     C99452   7.462   6.142   9.786 -0.3923  0.2936 -0.2225
  754MOL0     C99453   7.579   6.061   9.783 -0.5225 -0.5162  0.7108
  754MOL0     O99454   7.627   5.986   9.670 -0.3166 -0.5687 -0.0176
  754MOL0     C99455   7.552   5.969   9.546 -0.1556  0.8537  0.2811
  754MOL0     C99456   7.613   5.844   9.480  0.0750 -0.4912 -1.0917
  754MOL0     C99457   7.562   5.820   9.340 -0.4799 -1.1281 -0.0559
  754MOL0     C99458   7.637   5.707   9.271 -0.7042 -0.6808 -1.0183
  754MOL0     C99459   7.778   5.751   9.223  0.4086  0.3852 -0.3390
  754MOL0     C99460   7.889   5.769   9.176 -0.1223  0.4101 -0.8558
  754MOL0     C99461   7.672   6.085   9.882 -0.1433  0.5151 -0.1874
  754MOL0     C99462   7.638   6.163   9.992  0.4771 -0.9952  0.9137
  754MOL0     H99463   7.394   6.078  10.415  1.8477 -0.7072 -0.0402
  754MOL0     H99464   7.344   6.169  10.650  1.9045 -3.0432 -1.0380
  754MOL0     H99465   7.522   6.567  10.769  1.4006  1.4871  2.3538
  754MOL0     H99466   7.542   6.421  10.869  1.8113  3.5026 -0.2729
  754MOL0     H99467   7.336   6.629  10.879  2.5592  1.9808  0.1100
  754MOL0     H99468   7.468   6.597  10.990  2.1092 -0.6758 -2.3991
  754MOL0     H99469   7.290   6.526  11.120 -0.6455 -1.4958  0.1297
  754MOL0     H99470   7.382   6.389  11.057 -1.3508 -2.4896 -1.2609
  754MOL0     H99471   7.158   6.458  10.897 -3.6699  1.8022  2.3150
  754MOL0     H99472   7.204   6.300  10.966 -1.8486  0.1793 -1.5207
  754MOL0     H99473   6.988   6.369  11.024  0.3602 -1.6835 -0.9662
  754MOL0     H99474   7.053   6.523  11.096  0.4284  0.3242 -0.1560
  754MOL0     H99475   7.178   6.379  11.267  0.2829  1.8319 -2.6501
  754MOL0     H99476   7.097   6.244  11.181 -3.4433  0.0633 -2.7556
  754MOL0     H99477   6.979   6.449  11.383 -0.7451 -0.4838  1.5802
  754MOL0     H99478   6.875   6.372  11.250  1.5405 -1.5217 -2.0982
  754MOL0     H99479   7.015   6.235  11.489 -1.5946 -0.7808  1.5553
  754MOL0     H99480   6.962   6.150  11.345  0.9109  1.0058 -0.8870
  754MOL0     H99481   6.823   6.424  11.586 -0.7922  0.4610 -0.7671
  754MOL0     H99482   6.558   6.287  11.772  1.6433 -2.2070 -1.3431
  754MOL0     H99483   6.458   6.371  11.656 -0.7648 -2.1564  0.0945
  754MOL0     H99484   6.666   6.550  11.648  2.9592 -0.7586 -0.0946
  754MOL0     H99485   6.709   6.463  11.795 -1.7741 -3.1952  0.3533
  754MOL0     H99486   6.494   6.529  11.901 -0.7697 -0.9938 -1.0401
  754MOL0     H99487   6.577   6.670  11.836 -2.2071  1.6510 -1.9087
  754MOL0     H99488   6.353   6.544  11.701  1.3290  0.5838 -4.2015
  754MOL0     H99489   6.423   6.685  11.641 -2.2839 -2.5178 -2.5691
  754MOL0     H99490   6.260   6.848  11.603  2.0029  1.6204  2.2282
  754MOL0     H99491   6.022   6.915  11.524  2.9229 -0.9292  0.0411
  754MOL0     H99492   5.639   6.658  11.461 -0.8481 -0.1558 -2.6322
  754MOL0     H99493   5.403   6.655  11.334 -1.5243  3.5475  0.3455
  754MOL0     H99494   5.080   6.618  11.601  2.4878  0.8722 -0.5319
  754MOL0     H99495   4.988   6.619  11.451 -3.8419  1.0983  2.9764
  754MOL0     H99496   4.991   6.857  11.428  1.9373 -0.5467 -0.1078
  754MOL0     H99497   5.057   6.879  11.600 -0.2689  0.8127 -0.6929
  754MOL0     H99498   4.814   6.715  11.527  1.1186  1.9468 -3.1906
  754MOL0     H99499   4.810   6.883  11.568 -2.6477 -1.9535 -4.0204
  754MOL0     H99500   4.865   6.650  11.749  1.9033  0.4681  1.2601
  754MOL0     H99501   4.949   6.801  11.785  0.1250 -0.2864 -0.8977
  754MOL0     H99502   4.734   6.783  11.925  0.4778 -2.0773  0.1217
  754MOL0     H99503   4.643   6.754  11.770 -2.6491  1.6513  1.6696
  754MOL0     H99504   4.688   6.986  11.694 -0.5174  1.3529  0.8840
  754MOL0     H99505   4.802   6.996  11.825  1.1601  0.3383 -2.7896
  754MOL0     H99506   4.580   7.116  11.851 -2.6748 -1.1523  1.3665
  754MOL0     H99507   4.497   6.961  11.869 -0.5886  2.5020 -4.8367
  754MOL0     H99508   4.720   7.084  12.044  0.4988 -0.9743 -0.2007
  754MOL0     H99509   4.675   6.926  12.065  3.1543  1.8767  1.6351
  754MOL0     H99510   5.219   6.794  11.690 -0.0104  1.8521 -2.6416
  754MOL0     H99511   5.446   6.811  11.804  0.1309 -3.9554  2.2981
  754MOL0     H99512   5.866   6.709  11.868 -3.2468 -1.8396 -4.3570
  754MOL0     H99513   6.111   6.681  11.946  0.7401  0.8005 -0.6085
  754MOL0     H99514   7.527   6.546  10.525  2.5546  0.0761 -0.2128
  754MOL0     H99515   7.583   6.448  10.315  0.8701 -0.4916 -0.6059
  754MOL0     H99516   7.325   6.250   9.911 -0.5704  0.2139  0.7907
  754MOL0     H99517   7.395   6.136   9.701 -1.4668  0.9190  0.5619
  754MOL0     H99518   7.549   6.056   9.480  0.9169 -1.0890 -2.5364
  754MOL0     H99519   7.450   5.947   9.579 -0.0199 -0.0930  0.0988
  754MOL0     H99520   7.721   5.862   9.474 -0.0769  2.8419  2.4547
  754MOL0     H99521   7.602   5.757   9.546 -0.2034 -0.3115 -0.8997
  754MOL0     H99522   7.565   5.913   9.283  1.2213 -0.1496  1.5063
  754MOL0     H99523   7.455   5.805   9.360 -0.9034  1.2448 -0.1964
  754MOL0     H99524   7.646   5.624   9.340 -0.0367  0.2519  0.0436
  754MOL0     H99525   7.574   5.679   9.186 -0.1524  2.7567 -2.7319
  754MOL0     H99526   7.988   5.766   9.135 -0.1579 -0.2602 -0.9092
  754MOL0     H99527   7.776   6.056   9.884  0.0696  1.1883 -1.1725
  754MOL0     H99528   7.716   6.169  10.068  1.2196 -1.4157  0.2000
  755MOL0     O99529   3.267   3.323  10.395 -0.0556 -0.6794 -0.3817
  755MOL0     C99530   3.294   3.443  10.421  0.3520  0.7831 -0.9606
  755MOL0     O99531   3.242   3.547  10.350  0.6014 -0.6730 -0.3786
  755MOL0     C99532   3.166   3.513  10.232  0.0363 -0.2438 -0.5685
  755MOL0     C99533   3.039   3.572  10.213  0.4569 -0.1933  0.3826
  755MOL0     C99534   2.964   3.537  10.092  0.7107 -0.0482  0.3343
  755MOL0     C99535   3.019   3.450   9.993  0.3138  0.5431  0.1563
  755MOL0     O99536   2.955   3.416   9.884 -0.1785  0.3145  0.0624
  755MOL0     C99537   2.824   3.462   9.850 -0.3604 -0.2415 -0.1147
  755MOL0     C99538   2.794   3.411   9.708 -0.0507 -0.4734  0.0776
  755MOL0     C99539   2.653   3.454   9.672  0.2121 -0.3171 -0.3905
  755MOL0     C99540   2.618   3.400   9.533  0.2553 -0.4881 -0.5913
  755MOL0     C99541   2.487   3.472   9.490 -0.1709  0.1852 -0.2793
  755MOL0     C99542   2.360   3.444   9.568  0.5135 -0.1967 -1.2710
  755MOL0     C99543   2.235   3.508   9.493 -0.0994 -0.7042 -0.7236
  755MOL0     C99544   2.220   3.662   9.467 -0.1683 -0.2165  0.2010
  755MOL0     N99545   2.244   3.684   9.324  0.4171  0.0392  0.0121
  755MOL0     C99546   2.368   3.711   9.269  0.0242  0.0840  0.5451
  755MOL0     C99547   2.337   3.751   9.142 -0.0770  0.7517 -0.6681
  755MOL0     C99548   2.436   3.812   9.049 -0.1699  0.7481  0.5180
  755MOL0     C99549   2.543   3.722   9.002  0.2360 -0.6244 -0.6179
  755MOL0     C99550   2.586   3.757   8.857  0.1325  0.3363  0.4271
  755MOL0     C99551   2.657   3.894   8.858  0.6097 -0.2417 -0.3439
  755MOL0     O99552   2.661   3.941   8.725  0.0466 -0.2355 -0.4907
  755MOL0     C99553   2.762   3.906   8.634 -0.0729 -0.8966  0.5422
  755MOL0     C99554   2.841   3.793   8.635 -0.2808 -0.6741  0.6760
  755MOL0     C99555   2.942   3.764   8.542 -0.2377 -0.4437  0.5381
  755MOL0     C99556   2.958   3.853   8.431 -0.2264 -0.1907 -0.3952
  755MOL0     C99557   3.062   3.836   8.336  0.6182  0.5021  0.5458
  755MOL0     O99558   3.104   3.942   8.264  0.0451  0.3382  0.3157
  755MOL0     C99559   3.212   3.922   8.185 -0.8617 -0.6212  0.6099
  755MOL0     C99560   3.216   3.856   8.061 -0.1862 -0.9528  1.0136
  755MOL0     C99561   3.325   3.857   7.975 -0.7138  0.8707 -0.5721
  755MOL0     C99562   3.447   3.904   8.024 -0.0904  0.9612 -0.1364
  755MOL0     O99563   3.551   3.881   7.940  1.0999  0.7184 -0.7217
  755MOL0     C99564   3.686   3.921   7.984  0.0138  0.1390  0.2111
  755MOL0     C99565   3.706   4.069   7.956  0.3471  0.0562  0.6438
  755MOL0     C99566   3.823   4.124   8.042 -0.6303 -0.3374  0.9707
  755MOL0     C99567   3.966   4.063   8.024 -0.0285 -0.3009 -0.1948
  755MOL0     C99568   4.077   4.123   8.112 -0.4945 -0.1844  0.1812
  755MOL0     C99569   4.216   4.092   8.058 -0.0434 -0.1456  0.3575
  755MOL0     C99570   4.339   4.151   8.120 -0.1581  0.3831 -0.7835
  755MOL0     C99571   4.385   4.113   8.268  0.8648 -0.2045  0.7674
  755MOL0    Cl99572   4.289   4.190   8.403  0.2449  0.3178 -0.0514
  755MOL0     C99573   3.453   3.974   8.155 -0.5496 -0.4622 -1.6241
  755MOL0     C99574   3.327   3.990   8.222  0.0052  0.7059 -0.1837
  755MOL0     O99575   3.110   3.725   8.323 -0.0363  0.1718  0.2044
  755MOL0     C99576   2.873   3.974   8.425  0.1788 -0.3383  0.0923
  755MOL0     C99577   2.774   3.998   8.521  0.1218  0.5340 -0.4662
  755MOL0     N99578   2.203   3.745   9.128  0.2221 -0.0116  0.6269
  755MOL0     N99579   2.138   3.720   9.238 -1.0005 -0.4506 -0.1478
  755MOL0     C99580   3.147   3.402  10.012 -0.5221 -0.0473  0.0014
  755MOL0     C99581   3.220   3.438  10.129 -0.2767 -0.5361  0.1030
  755MOL0     C99582   3.373   3.466  10.542  0.1960 -0.4877  0.0861
  755MOL0     C99583   3.388   3.373  10.644  0.4815 -0.0010 -0.1121
  755MOL0     C99584   3.451   3.398  10.759  1.4941  0.0137 -0.2786
  755MOL0     C99585   3.507   3.521  10.788  0.1905  0.6145  0.9655
  755MOL0     O99586   3.574   3.560  10.904  0.4540  0.1612  0.5007
  755MOL0     C99587   3.594   3.472  11.011  1.0114  0.1041 -0.2292
  755MOL0     C99588   3.714   3.380  10.988  0.2024  0.2538 -0.8070
  755MOL0     C99589   3.838   3.474  10.972 -1.2051 -0.7705 -0.1422
  755MOL0     C99590   3.975   3.397  10.932  0.0009  0.6841  0.0340
  755MOL0     C99591   4.011   3.292  11.034  0.5822 -0.7615 -0.5828
  755MOL0     C99592   4.026   3.221  11.127 -0.0679  0.0581  0.8490
  755MOL0     C99593   3.496   3.617  10.686  0.8512 -1.0912  0.2289
  755MOL0     C99594   3.422   3.595  10.573 -1.1747  0.5423 -0.1533
  755MOL0     H99595   3.000   3.648  10.279 -2.5038  0.0172 -1.4281
  755MOL0     H99596   2.869   3.588  10.083  0.9257  0.2973 -0.0147
  755MOL0     H99597   2.827   3.571   9.849  1.9969 -0.2465  0.2858
  755MOL0     H99598   2.754   3.424   9.926 -1.1137  1.0806 -0.1071
  755MOL0     H99599   2.793   3.302   9.701 -1.4056 -0.7350  2.9628
  755MOL0     H99600   2.861   3.463   9.639 -1.2008  1.0914  0.0810
  755MOL0     H99601   2.650   3.563   9.671  0.8022 -0.2925 -1.7941
  755MOL0     H99602   2.587   3.409   9.746  0.0158 -2.0886 -1.5805
  755MOL0     H99603   2.700   3.425   9.465  0.4313  4.4102  1.0223
  755MOL0     H99604   2.599   3.293   9.536 -4.4529  0.1042 -1.3263
  755MOL0     H99605   2.469   3.443   9.386  0.6943 -0.7694 -0.1857
  755MOL0     H99606   2.506   3.578   9.508  2.0330 -0.2754  0.4662
  755MOL0     H99607   2.365   3.484   9.670 -0.6389 -0.8769 -0.9359
  755MOL0     H99608   2.339   3.337   9.576  0.1929 -0.0690 -0.1850
  755MOL0     H99609   2.232   3.440   9.407  0.8332 -0.9415 -0.5780
  755MOL0     H99610   2.151   3.482   9.558  0.6851 -2.0956 -0.2003
  755MOL0     H99611   2.294   3.714   9.528 -0.0092  2.4382 -2.0484
  755MOL0     H99612   2.124   3.700   9.502  0.6038  0.7365  1.3821
  755MOL0     H99613   2.471   3.715   9.302  1.2992  0.3906 -3.0701
  755MOL0     H99614   2.485   3.900   9.093  0.1402  0.2745  1.1280
  755MOL0     H99615   2.383   3.849   8.960 -1.5112 -3.1145 -0.4980
  755MOL0     H99616   2.507   3.619   8.993  1.4439 -1.1348  0.1232
  755MOL0     H99617   2.622   3.705   9.076 -1.3571  0.1202  1.3309
  755MOL0     H99618   2.642   3.677   8.808 -2.7195  0.7703 -4.1298
  755MOL0     H99619   2.500   3.764   8.790 -1.3312  0.0239  2.1852
  755MOL0     H99620   2.755   3.885   8.907  1.3200  0.7244 -1.5148
  755MOL0     H99621   2.605   3.974   8.913 -3.5151 -1.2940 -2.3420
  755MOL0     H99622   2.832   3.727   8.720  1.2576 -1.7612  0.0357
  755MOL0     H99623   3.019   3.689   8.551 -0.8223 -1.2888 -1.1649
  755MOL0     H99624   3.126   3.812   8.019  0.7113  0.0774 -2.3116
  755MOL0     H99625   3.321   3.801   7.883  1.1390 -0.2522 -0.0357
  755MOL0     H99626   3.755   3.868   7.917 -0.5858  0.2044 -0.4679
  755MOL0     H99627   3.707   3.894   8.088 -1.2498 -1.4918  0.0972
  755MOL0     H99628   3.625   4.131   7.995  0.7287  2.0187 -1.5161
  755MOL0     H99629   3.723   4.098   7.852  1.0467  1.6211  1.1656
  755MOL0     H99630   3.787   4.110   8.144  0.2255 -2.1731  1.0495
  755MOL0     H99631   3.822   4.230   8.014  1.6494 -0.8778 -1.5008
  755MOL0     H99632   3.960   3.956   8.047  3.6068 -1.1397 -2.4043
  755MOL0     H99633   3.996   4.069   7.919 -1.7131  0.5754 -0.6595
  755MOL0     H99634   4.072   4.081   8.213 -0.0956  0.7762  0.6061
  755MOL0     H99635   4.072   4.232   8.120  1.1566  0.0344 -1.1345
  755MOL0     H99636   4.219   4.131   7.956  0.1906 -1.5346 -0.1971
  755MOL0     H99637   4.221   3.983   8.051 -1.4738 -0.7722  5.1997
  755MOL0     H99638   4.420   4.140   8.047  0.0394  3.0230 -1.0589
  755MOL0     H99639   4.310   4.257   8.120 -3.1156 -0.3238 -1.8740
  755MOL0     H99640   4.486   4.155   8.275  0.0571  1.5042  3.5354
  755MOL0     H99641   4.380   4.003   8.271  1.2963 -0.2284  0.7180
  755MOL0     H99642   3.542   4.011   8.205 -1.6370  0.4968 -0.3316
  755MOL0     H99643   3.327   4.048   8.314 -0.2627  0.1645  0.1627
  755MOL0     H99644   2.894   4.050   8.350  0.1909  0.0029  0.4381
  755MOL0     H99645   2.725   4.094   8.526 -0.0447  0.7646 -4.1859
  755MOL0     H99646   3.191   3.351   9.927  1.6055  1.5531  0.0603
  755MOL0     H99647   3.318   3.394  10.145 -0.1102 -0.7150 -1.2469
  755MOL0     H99648   3.338   3.278  10.626 -0.5638  1.0566 -3.4158
  755MOL0     H99649   3.447   3.318  10.832  2.7914 -1.2071 -1.5092
  755MOL0     H99650   3.500   3.418  11.025  0.1061  1.5470 -0.4722
  755MOL0     H99651   3.621   3.527  11.101 -3.9143  1.3071  0.8081
  755MOL0     H99652   3.718   3.305  11.068  0.1678 -0.1186 -1.1491
  755MOL0     H99653   3.706   3.317  10.899  3.8785 -3.9276  1.4091
  755MOL0     H99654   3.861   3.523  11.067 -0.1429  0.7174 -1.1214
  755MOL0     H99655   3.818   3.553  10.900  0.0143 -0.3094  0.0015
  755MOL0     H99656   3.955   3.340  10.841 -2.3470  0.7688  0.4206
  755MOL0     H99657   4.053   3.469  10.908 -0.1560  0.7867 -0.1659
  755MOL0     H99658   4.039   3.167  11.219  1.0812 -0.0019  0.6697
  755MOL0     H99659   3.544   3.713  10.703 -2.4138  0.2470  2.9204
  755MOL0     H99660   3.403   3.682  10.509  0.8624  1.9313  1.0163
  756MOL0     O99661   1.615   2.976   6.422 -0.6249 -0.1189  0.5575
  756MOL0     C99662   1.600   3.068   6.338  0.7919  0.3560 -0.3972
  756MOL0     O99663   1.504   3.164   6.340  0.3479 -0.1890  0.6704
  756MOL0     C99664   1.403   3.187   6.435  0.1560  0.2154  1.0151
  756MOL0     C99665   1.279   3.235   6.389 -0.6483 -0.2935  0.1914
  756MOL0     C99666   1.177   3.268   6.486 -0.0100  0.5041 -0.2402
  756MOL0     C99667   1.188   3.244   6.621 -0.5999  0.6322 -0.9512
  756MOL0     O99668   1.092   3.253   6.715  0.1245  0.0023  0.6718
  756MOL0     C99669   0.959   3.236   6.681 -0.2405 -0.7430 -0.5598
  756MOL0     C99670   0.869   3.191   6.787 -0.1254  0.1451 -0.2586
  756MOL0     C99671   0.744   3.135   6.721 -0.7606  0.2704  0.5607
  756MOL0     C99672   0.657   3.090   6.837  0.4983  0.4670  0.4257
  756MOL0     C99673   0.531   3.032   6.782  0.0690 -0.0840  0.0598
  756MOL0     C99674   0.414   3.087   6.859 -0.6163 -0.8688 -0.4365
  756MOL0     C99675   0.392   3.241   6.860 -0.3312  0.2509 -1.1356
  756MOL0     C99676   0.250   3.283   6.863 -0.3754 -0.2584  0.0450
  756MOL0     N99677   0.164   3.226   6.966 -0.4129  0.3799 -0.1977
  756MOL0     C99678   0.116   3.286   7.082 -0.0490  0.1182  0.3462
  756MOL0     C99679   0.023   3.200   7.126  1.0800  0.3856  0.5653
  756MOL0     C99680  -0.069   3.217   7.244  0.4960  0.9062 -0.0534
  756MOL0     C99681  -0.216   3.235   7.212 -0.1275  0.1778 -1.0663
  756MOL0     C99682  -0.247   3.380   7.160 -0.2895 -0.1203  0.7872
  756MOL0     C99683  -0.386   3.389   7.103  0.1250 -0.3893  0.3772
  756MOL0     O99684  -0.426   3.523   7.061 -0.8564 -0.0973 -0.2172
  756MOL0     C99685  -0.550   3.550   7.020  0.0801  0.7894  0.0122
  756MOL0     C99686  -0.553   3.663   6.946  0.2542 -0.0427 -0.0870
  756MOL0     C99687  -0.674   3.706   6.900  0.5506 -0.4499 -0.1605
  756MOL0     C99688  -0.786   3.622   6.898 -0.2652 -0.5184 -0.2737
  756MOL0     C99689  -0.913   3.660   6.831 -0.8457  0.6254 -0.4555
  756MOL0     O99690  -0.908   3.769   6.744  0.2425  0.6310  0.0430
  756MOL0     C99691  -1.026   3.821   6.709 -0.0461 -1.3153  0.0969
  756MOL0     C99692  -1.039   3.885   6.588 -0.6148 -0.1753  0.0392
  756MOL0     C99693  -1.161   3.952   6.552  0.8471 -0.1976  0.7803
  756MOL0     C99694  -1.264   3.977   6.649 -0.2688 -0.0116  1.0145
  756MOL0     O99695  -1.375   4.052   6.611  0.1612 -1.2702  0.0752
  756MOL0     C99696  -1.460   4.095   6.714 -0.3883  0.2363 -0.2640
  756MOL0     C99697  -1.572   4.188   6.672  0.2727 -0.4305  0.0303
  756MOL0     C99698  -1.635   4.268   6.788 -0.4645  0.0468  0.9055
  756MOL0     C99699  -1.749   4.197   6.851 -0.3667  0.1852  0.4406
  756MOL0     C99700  -1.780   4.265   6.985 -1.1178  0.8737  0.0139
  756MOL0     C99701  -1.916   4.243   7.050 -0.2633 -0.2554 -1.2394
  756MOL0     C99702  -2.041   4.281   6.964  0.2626 -0.1888 -0.8767
  756MOL0     C99703  -2.168   4.263   7.048 -0.6931 -0.0920 -0.9638
  756MOL0    Cl99704  -2.199   4.096   7.104 -0.3924  0.5193  0.0054
  756MOL0     C99705  -1.247   3.908   6.766 -0.3827  0.9193 -0.2468
  756MOL0     C99706  -1.133   3.843   6.803 -1.0146 -0.6506  0.1452
  756MOL0     O99707  -1.015   3.600   6.855  0.1621 -0.1638 -0.3846
  756MOL0     C99708  -0.777   3.502   6.964 -0.4386 -0.1386  0.0461
  756MOL0     C99709  -0.663   3.468   7.027  0.6800 -0.9257  0.1825
  756MOL0     N99710   0.014   3.092   7.038 -0.7276 -0.0074 -0.1026
  756MOL0     N99711   0.099   3.106   6.949  0.2470 -0.2556 -0.3589
  756MOL0     C99712   1.311   3.186   6.663 -0.7242 -1.1738 -0.1511
  756MOL0     C99713   1.420   3.161   6.572  0.3073 -0.1564 -0.3529
  756MOL0     C99714   1.681   3.073   6.221 -0.0297 -0.9210  0.2260
  756MOL0     C99715   1.649   3.160   6.118 -0.9280 -0.2006 -0.5845
  756MOL0     C99716   1.729   3.177   6.005 -0.2505  0.3876 -0.1490
  756MOL0     C99717   1.841   3.089   5.979  0.5095  0.3849  0.0493
  756MOL0     O99718   1.937   3.095   5.879  0.4647  0.1841  0.1620
  756MOL0     C99719   1.923   3.207   5.786  0.2540  0.1111  0.8921
  756MOL0     C99720   1.991   3.323   5.851 -0.4194 -0.6814 -0.0257
  756MOL0     C99721   2.013   3.446   5.759  0.9697 -0.3797 -0.2738
  756MOL0     C99722   2.068   3.566   5.838 -0.5629  0.1311 -0.0296
  756MOL0     C99723   1.975   3.603   5.948 -0.5337  0.6949  0.6076
  756MOL0     C99724   1.917   3.644   6.043 -0.2076 -0.0980 -0.1260
  756MOL0     C99725   1.857   2.986   6.078 -0.7345 -0.2366  1.0231
  756MOL0     C99726   1.780   2.982   6.195 -0.7134  0.2687 -0.6670
  756MOL0     H99727   1.256   3.243   6.283 -0.2492  2.8088  0.2535
  756MOL0     H99728   1.074   3.295   6.462 -0.5186 -0.2751  0.9493
  756MOL0     H99729   0.961   3.159   6.603 -1.1705 -0.2244 -1.1126
  756MOL0     H99730   0.915   3.326   6.638  1.8911  1.2942  1.2237
  756MOL0     H99731   0.847   3.265   6.865  2.8565 -0.8578  1.7167
  756MOL0     H99732   0.903   3.106   6.847 -1.6088  0.4780  1.1422
  756MOL0     H99733   0.767   3.046   6.662  1.9804 -0.3014  2.3095
  756MOL0     H99734   0.693   3.206   6.655 -0.5461 -1.2227 -1.3167
  756MOL0     H99735   0.707   3.005   6.885 -0.6715 -1.2952 -1.3300
  756MOL0     H99736   0.634   3.165   6.912  2.0429  1.7340 -0.2901
  756MOL0     H99737   0.542   2.923   6.790  0.6302 -0.1060 -0.8215
  756MOL0     H99738   0.526   3.054   6.675  2.8504 -0.8761 -0.2990
  756MOL0     H99739   0.413   3.048   6.961 -2.8849 -0.7563 -0.3824
  756MOL0     H99740   0.344   3.036   6.792  0.9569 -0.8339 -2.1946
  756MOL0     H99741   0.433   3.274   6.956  0.3779 -3.9897  0.2048
  756MOL0     H99742   0.444   3.291   6.778  1.0366  0.4760 -0.1717
  756MOL0     H99743   0.200   3.256   6.769 -2.4186 -0.6249  1.1679
  756MOL0     H99744   0.240   3.392   6.869  0.3593  0.0155 -2.5789
  756MOL0     H99745   0.146   3.379   7.131  4.0418 -1.5895  1.5310
  756MOL0     H99746  -0.032   3.302   7.304 -2.0958  3.2369 -1.5189
  756MOL0     H99747  -0.060   3.120   7.293  1.4152  0.3231 -1.3346
  756MOL0     H99748  -0.282   3.231   7.299  1.8090  0.6331  0.4842
  756MOL0     H99749  -0.250   3.159   7.141 -4.0545  1.2152 -0.5406
  756MOL0     H99750  -0.236   3.448   7.245  3.6033  0.2358  0.1697
  756MOL0     H99751  -0.182   3.406   7.077 -1.7678 -2.0621 -1.0986
  756MOL0     H99752  -0.452   3.348   7.179  0.0091  1.1013  1.1020
  756MOL0     H99753  -0.392   3.318   7.019  0.0418 -1.2313  1.0838
  756MOL0     H99754  -0.464   3.717   6.913  1.3648 -1.8828 -0.2448
  756MOL0     H99755  -0.680   3.802   6.849 -1.6286 -1.0109 -1.0908
  756MOL0     H99756  -0.954   3.869   6.523 -0.0224 -0.8548  0.9442
  756MOL0     H99757  -1.188   4.000   6.458 -1.5213 -0.9763  0.9909
  756MOL0     H99758  -1.396   4.140   6.791 -3.0389 -1.8210  3.4931
  756MOL0     H99759  -1.510   4.014   6.767  0.4924 -0.5414 -0.6029
  756MOL0     H99760  -1.646   4.126   6.621  1.1648 -1.7456  0.2832
  756MOL0     H99761  -1.537   4.263   6.600 -1.1810 -0.6815 -0.9994
  756MOL0     H99762  -1.668   4.366   6.753  1.9903 -0.0084 -1.8380
  756MOL0     H99763  -1.563   4.292   6.866  1.3020  0.1438 -0.7005
  756MOL0     H99764  -1.838   4.221   6.792 -0.2501  2.6045  1.1740
  756MOL0     H99765  -1.737   4.088   6.858 -3.8136 -0.4679 -1.5530
  756MOL0     H99766  -1.753   4.371   6.985 -2.5845  1.2842  1.1481
  756MOL0     H99767  -1.709   4.226   7.059 -2.5169 -1.4562  0.2404
  756MOL0     H99768  -1.911   4.274   7.155  4.0512 -2.7737 -0.4568
  756MOL0     H99769  -1.926   4.135   7.062 -1.6780 -0.1502 -1.3806
  756MOL0     H99770  -2.021   4.375   6.911 -0.6419  1.2848  1.2756
  756MOL0     H99771  -2.040   4.201   6.889  0.5016 -0.0895 -0.9821
  756MOL0     H99772  -2.251   4.308   6.992  0.6288 -0.6727 -3.5331
  756MOL0     H99773  -2.160   4.327   7.136  0.7543 -1.6812  0.1056
  756MOL0     H99774  -1.313   3.913   6.852 -0.8677  0.7247 -0.6022
  756MOL0     H99775  -1.147   3.794   6.899 -2.8160 -2.4823 -0.9794
  756MOL0     H99776  -0.861   3.434   6.953  0.4895 -1.0561 -1.9973
  756MOL0     H99777  -0.661   3.369   7.072 -2.8307 -1.6996 -1.0562
  756MOL0     H99778   1.303   3.142   6.762 -2.2830 -0.6051  0.0079
  756MOL0     H99779   1.515   3.127   6.611  0.1531 -1.6842 -1.2503
  756MOL0     H99780   1.573   3.235   6.137  1.9512  2.1903  2.7734
  756MOL0     H99781   1.708   3.257   5.934 -1.3226 -0.4069 -0.7521
  756MOL0     H99782   1.822   3.224   5.749  0.6428 -0.3724 -0.4429
  756MOL0     H99783   1.990   3.190   5.702  0.3359  2.1063  0.5055
  756MOL0     H99784   1.930   3.352   5.937  0.2146 -1.4768  0.7076
  756MOL0     H99785   2.087   3.284   5.886 -0.1684 -1.8573 -1.8783
  756MOL0     H99786   1.914   3.470   5.721  0.7401  2.2608  1.7224
  756MOL0     H99787   2.087   3.424   5.681  1.7068 -2.8440  1.0073
  756MOL0     H99788   2.163   3.532   5.880  0.2191  3.2161  0.9889
  756MOL0     H99789   2.109   3.648   5.777  4.0962 -1.5369  0.4330
  756MOL0     H99790   1.871   3.671   6.136 -2.0746 -2.7908 -0.1542
  756MOL0     H99791   1.938   2.916   6.057 -2.1960 -1.7164  0.0036
  756MOL0     H99792   1.811   2.914   6.273  0.1019  2.1604  0.7316
  757MOL0     O99793   9.694   0.924   9.823  0.0654  0.5700 -0.3464
  757MOL0     C99794   9.690   0.805   9.825 -0.1254 -0.0938 -0.6025
  757MOL0     O99795   9.785   0.724   9.886 -0.2547  0.4165  0.2441
  757MOL0     C99796   9.871   0.784   9.977 -0.1149  0.1127  0.3391
  757MOL0     C99797  10.006   0.732   9.983  0.2457  0.5739  0.0316
  757MOL0     C99798  10.093   0.781  10.086  0.2600 -0.2838 -0.5457
  757MOL0     C99799  10.043   0.876  10.180 -0.0512  0.3800  0.2608
  757MOL0     O99800  10.117   0.933  10.279  0.0409 -0.1650 -0.1787
  757MOL0     C99801  10.253   0.901  10.294 -0.9938 -0.0640  0.4056
  757MOL0     C99802  10.305   0.958  10.424  0.3014  0.4596 -0.4289
  757MOL0     C99803  10.454   0.992  10.425  0.4021 -0.3786 -0.5776
  757MOL0     C99804  10.490   1.040  10.560  0.9748 -0.6705 -0.1579
  757MOL0     C99805  10.632   1.103  10.562 -0.0730 -0.3774  0.2494
  757MOL0     C99806  10.749   1.004  10.531 -0.1858 -0.1458 -0.2064
  757MOL0     C99807  10.888   1.069  10.549  0.2963  0.3216 -0.0508
  757MOL0     C99808  10.935   1.091  10.690 -0.3584  0.2291 -0.6133
  757MOL0     N99809  11.078   1.125  10.708  0.2270 -0.8049  0.9571
  757MOL0     C99810  11.180   1.051  10.659 -0.0313 -0.6043  0.0222
  757MOL0     C99811  11.295   1.114  10.697  0.3532  0.2385 -0.3817
  757MOL0     C99812  11.437   1.073  10.679  0.7100 -0.8388  0.1082
  757MOL0     C99813  11.481   1.171  10.564  0.1829  1.0215 -0.5738
  757MOL0     C99814  11.629   1.131  10.529  1.5255  0.1492  0.1174
  757MOL0     C99815  11.671   1.223  10.413  0.2661 -0.4996  0.0100
  757MOL0     O99816  11.811   1.194  10.394 -0.3788  0.9454  1.2418
  757MOL0     C99817  11.919   1.268  10.446 -0.5752  0.1155  0.7944
  757MOL0     C99818  12.036   1.250  10.382  0.2226 -0.2569  0.4183
  757MOL0     C99819  12.147   1.327  10.415 -0.2565 -0.8959  0.9392
  757MOL0     C99820  12.145   1.426  10.511 -0.0138  1.2524 -0.5890
  757MOL0     C99821  12.270   1.498  10.543 -0.7557 -0.8659 -0.9188
  757MOL0     O99822  12.269   1.574  10.664  0.4132  0.3002  0.0100
  757MOL0     C99823  12.365   1.656  10.704 -0.7890  0.0072 -0.3197
  757MOL0     C99824  12.413   1.672  10.835 -0.6691 -0.7750  0.3273
  757MOL0     C99825  12.518   1.747  10.870 -0.4056 -0.1526  0.5600
  757MOL0     C99826  12.584   1.816  10.761 -0.6220 -0.9831 -0.3770
  757MOL0     O99827  12.690   1.907  10.776 -0.2156  0.1251  1.4801
  757MOL0     C99828  12.697   1.959  10.913  0.1491 -0.5172  0.7516
  757MOL0     C99829  12.793   2.079  10.911 -1.4579  0.1520 -0.3429
  757MOL0     C99830  12.942   2.037  10.889 -0.5085 -0.1815  1.1384
  757MOL0     C99831  13.050   2.147  10.885 -0.3056 -0.3241 -0.1193
  757MOL0     C99832  13.186   2.080  10.843 -0.0723  0.4279 -0.0757
  757MOL0     C99833  13.248   2.129  10.717  0.2323  0.4022 -0.0563
  757MOL0     C99834  13.324   2.020  10.646 -0.4753  0.1801 -0.3181
  757MOL0     C99835  13.428   2.091  10.552  0.3218 -0.6964 -0.3940
  757MOL0    Cl99836  13.502   1.961  10.469  0.3015  0.0156 -0.0735
  757MOL0     C99837  12.532   1.816  10.635  0.9603 -0.1011  0.3375
  757MOL0     C99838  12.423   1.739  10.603  0.5344  0.2029 -0.3702
  757MOL0     O99839  12.369   1.495  10.471  0.7632 -0.3626  0.2277
  757MOL0     C99840  12.021   1.446  10.586  0.0157 -0.1437 -0.5619
  757MOL0     C99841  11.915   1.370  10.546  0.6985  0.0931 -0.2338
  757MOL0     N99842  11.250   1.229  10.762 -0.3026  0.2188  0.1727
  757MOL0     N99843  11.124   1.238  10.770  0.6360  0.1444 -0.6019
  757MOL0     C99844   9.912   0.917  10.182  0.3350  0.1128  0.6719
  757MOL0     C99845   9.831   0.873  10.078 -0.2195  0.2427 -0.4339
  757MOL0     C99846   9.554   0.752   9.782  0.3317  0.2496  0.0142
  757MOL0     C99847   9.532   0.615   9.777 -0.1683 -0.0412  1.4771
  757MOL0     C99848   9.416   0.564   9.730  0.3961 -1.1149 -1.0252
  757MOL0     C99849   9.312   0.646   9.683 -0.6129  0.7041 -0.2533
  757MOL0     O99850   9.198   0.579   9.639  0.3403  0.0069 -0.3514
  757MOL0     C99851   9.072   0.656   9.632 -0.5147  0.1020 -0.2608
  757MOL0     C99852   9.021   0.675   9.775 -0.5614 -0.3019  0.4033
  757MOL0     C99853   8.890   0.746   9.759 -0.2337  0.3742 -1.2945
  757MOL0     C99854   8.825   0.732   9.898 -0.2309  0.3469 -0.2323
  757MOL0     C99855   8.697   0.789   9.894  0.5023  0.1086  0.2857
  757MOL0     C99856   8.580   0.822   9.886  0.7075  0.3324 -0.7263
  757MOL0     C99857   9.338   0.780   9.680 -0.3012  0.3629 -0.1800
  757MOL0     C99858   9.455   0.841   9.731  0.2193 -0.0069  0.0526
  757MOL0     H99859  10.031   0.656   9.909 -0.6520  2.8646 -2.8515
  757MOL0     H99860  10.196   0.748  10.096 -0.4140 -2.2895  0.4824
  757MOL0     H99861  10.303   0.947  10.208 -1.4610 -2.7694 -1.4593
  757MOL0     H99862  10.279   0.796  10.277 -0.8128  0.2206 -1.3038
  757MOL0     H99863  10.295   0.880  10.500  0.3291 -1.4180 -2.2771
  757MOL0     H99864  10.247   1.048  10.448  0.5886  0.7376 -0.7733
  757MOL0     H99865  10.478   1.081  10.364  0.3146  0.4351  0.5442
  757MOL0     H99866  10.512   0.903  10.399 -2.0240 -1.6692 -1.9020
  757MOL0     H99867  10.430   1.130  10.574  0.1489 -0.7580 -2.6253
  757MOL0     H99868  10.479   0.968  10.642  1.9734 -0.2789  0.3402
  757MOL0     H99869  10.657   1.134  10.664  2.3689 -1.7766  0.1489
  757MOL0     H99870  10.642   1.188  10.494  1.1080  0.6772  1.6715
  757MOL0     H99871  10.752   0.967  10.428 -0.2957 -1.2506  0.1708
  757MOL0     H99872  10.736   0.919  10.598 -6.0569  2.0728  2.1093
  757MOL0     H99873  10.958   0.998  10.503  1.7843  0.4425  1.8870
  757MOL0     H99874  10.884   1.165  10.496 -2.1352  0.3233  0.0357
  757MOL0     H99875  10.930   1.008  10.762  1.7263  1.6192  1.2802
  757MOL0     H99876  10.882   1.180  10.725 -2.9264 -0.9783 -1.2112
  757MOL0     H99877  11.177   0.961  10.598  4.8115 -1.2271  0.3403
  757MOL0     H99878  11.443   0.971  10.641  0.1386 -0.2821 -1.5529
  757MOL0     H99879  11.486   1.082  10.777 -2.0029 -1.2652  1.6119
  757MOL0     H99880  11.493   1.269  10.612 -0.8182  0.9748 -0.1976
  757MOL0     H99881  11.415   1.167  10.477  1.7572 -0.0698 -1.7666
  757MOL0     H99882  11.700   1.137  10.612  0.3932  0.9343  1.0650
  757MOL0     H99883  11.632   1.024  10.507 -6.2097 -0.7468  0.5775
  757MOL0     H99884  11.645   1.318  10.460 -0.5516 -1.0463  0.6951
  757MOL0     H99885  11.615   1.202  10.321  1.3691 -1.0333 -0.5635
  757MOL0     H99886  12.052   1.181  10.299  0.5985 -1.0153  1.1063
  757MOL0     H99887  12.244   1.299  10.376 -0.5887 -1.7444  0.7123
  757MOL0     H99888  12.355   1.614  10.907 -1.8608  3.5045  3.1889
  757MOL0     H99889  12.561   1.756  10.970  2.9474 -0.6060 -0.6933
  757MOL0     H99890  12.746   1.885  10.977  0.5778  0.6783  1.8578
  757MOL0     H99891  12.596   1.984  10.948 -0.4919 -2.6354  0.5469
  757MOL0     H99892  12.794   2.140  11.001  2.0545 -1.0988  0.6272
  757MOL0     H99893  12.767   2.157  10.839 -1.6001  0.4117 -0.0083
  757MOL0     H99894  12.953   1.992  10.790  2.1653 -1.9720  2.1126
  757MOL0     H99895  12.978   1.963  10.962  1.2278 -1.7030 -1.1256
  757MOL0     H99896  13.024   2.217  10.806  2.3492  1.6187  0.5722
  757MOL0     H99897  13.065   2.193  10.984 -1.2956 -0.0245 -0.1002
  757MOL0     H99898  13.163   1.973  10.831  1.1832  0.3840 -2.8093
  757MOL0     H99899  13.267   2.088  10.915 -0.4515  5.1772  0.1464
  757MOL0     H99900  13.311   2.216  10.739 -0.3438  1.6406 -2.8534
  757MOL0     H99901  13.165   2.156  10.651 -1.6665 -2.0881  1.1380
  757MOL0     H99902  13.380   1.963  10.720  3.4745  1.8769 -1.7461
  757MOL0     H99903  13.248   1.958  10.598 -4.0871  2.9634  1.3125
  757MOL0     H99904  13.492   2.158  10.610 -0.3140  1.2611 -1.8766
  757MOL0     H99905  13.369   2.152  10.483 -2.5031 -1.4149  1.2072
  757MOL0     H99906  12.572   1.879  10.556  0.0749  0.3161  0.2021
  757MOL0     H99907  12.377   1.736  10.505 -2.1681 -1.3157  0.8326
  757MOL0     H99908  12.014   1.522  10.663  1.7472 -0.6463  0.1476
  757MOL0     H99909  11.824   1.398  10.599  1.7962  3.2352  0.2158
  757MOL0     H99910   9.871   0.989  10.253  1.3547  2.5956 -1.0934
  757MOL0     H99911   9.731   0.915  10.078  0.3346  1.6331 -0.7212
  757MOL0     H99912   9.608   0.543   9.806  0.3712  0.8930  2.4711
  757MOL0     H99913   9.409   0.456   9.728 -0.8208 -1.0524 -2.2825
  757MOL0     H99914   8.994   0.616   9.566  1.4182 -4.0710 -0.3508
  757MOL0     H99915   9.087   0.760   9.602  0.5599  0.1626  0.4551
  757MOL0     H99916   8.999   0.573   9.808 -1.9488 -1.2332 -2.9290
  757MOL0     H99917   9.094   0.718   9.844  0.7941 -1.0937 -0.4635
  757MOL0     H99918   8.821   0.700   9.688 -2.3842 -0.5556  1.2174
  757MOL0     H99919   8.918   0.850   9.738 -0.6707  0.7781  0.0268
  757MOL0     H99920   8.826   0.627   9.929 -4.9423 -0.1667 -1.0166
  757MOL0     H99921   8.889   0.789   9.966  2.7385 -0.6463 -2.0319
  757MOL0     H99922   8.482   0.863   9.891  0.6681  0.1076  1.3066
  757MOL0     H99923   9.262   0.852   9.651  1.6597  2.8703  0.5179
  757MOL0     H99924   9.462   0.949   9.727 -3.9247  0.5684  2.5003
  758MOL0     O99925   1.582   1.715   3.565  0.0342 -0.3100 -0.6694
  758MOL0     C99926   1.644   1.727   3.669  0.4638  0.6335  0.1058
  758MOL0     O99927   1.603   1.807   3.771  0.3509 -0.2805 -0.0412
  758MOL0     C99928   1.482   1.867   3.763  0.7225 -0.8140  0.2470
  758MOL0     C99929   1.384   1.836   3.865 -0.4978  0.1478 -0.2934
  758MOL0     C99930   1.264   1.912   3.865 -0.6627  0.2436 -0.3544
  758MOL0     C99931   1.246   2.012   3.765  0.1216  0.8775  0.0783
  758MOL0     O99932   1.130   2.084   3.749  0.1694  1.2578  0.3412
  758MOL0     C99933   1.015   2.010   3.803 -0.3941 -0.0949  0.8695
  758MOL0     C99934   0.895   2.052   3.717 -0.2658 -0.1350 -0.0501
  758MOL0     C99935   0.759   2.079   3.790  0.0009  0.7054 -0.9780
  758MOL0     C99936   0.648   2.128   3.693 -0.0885  0.6309 -0.2144
  758MOL0     C99937   0.511   2.144   3.765 -0.3525  0.8376  0.5950
  758MOL0     C99938   0.402   2.048   3.725  0.1476  0.4777 -0.6792
  758MOL0     C99939   0.265   2.109   3.763 -0.4794  0.1260  0.0340
  758MOL0     C99940   0.179   2.175   3.652 -0.3775  0.5848 -0.8105
  758MOL0     N99941   0.065   2.241   3.727  0.2063  1.0499  0.3894
  758MOL0     C99942   0.078   2.365   3.778  0.0247  1.1357 -0.7359
  758MOL0     C99943  -0.046   2.403   3.803  0.5382  0.1030  0.3198
  758MOL0     C99944  -0.093   2.534   3.867 -0.5911 -0.1553  0.2859
  758MOL0     C99945   0.011   2.624   3.937  0.2448 -0.3863  0.5468
  758MOL0     C99946  -0.056   2.759   3.973 -0.8135  0.0628 -0.1415
  758MOL0     C99947  -0.178   2.746   4.063 -0.2227 -0.4283 -0.1201
  758MOL0     O99948  -0.216   2.882   4.088  0.4673  1.1059 -0.3419
  758MOL0     C99949  -0.341   2.906   4.146 -0.2158  0.2247 -0.1370
  758MOL0     C99950  -0.426   2.805   4.191 -0.0968 -0.0546  0.0562
  758MOL0     C99951  -0.551   2.835   4.245 -0.0487 -0.8553  0.5186
  758MOL0     C99952  -0.601   2.969   4.254  0.3637  0.2386  0.0704
  758MOL0     C99953  -0.729   3.000   4.320 -0.0935 -0.2990 -0.2245
  758MOL0     O99954  -0.831   2.905   4.333  0.4312 -0.3177  0.5910
  758MOL0     C99955  -0.954   2.940   4.386  0.4756 -0.0366  0.5606
  758MOL0     C99956  -1.025   3.055   4.334  0.0864 -0.3827  0.3472
  758MOL0     C99957  -1.149   3.089   4.393  0.6142  0.4093 -0.3375
  758MOL0     C99958  -1.205   3.020   4.498 -1.0753  0.7271  0.5330
  758MOL0     O99959  -1.334   3.031   4.545  0.1311 -1.0883  0.3365
  758MOL0     C99960  -1.389   3.170   4.541 -1.3940  0.4540  0.3493
  758MOL0     C99961  -1.526   3.182   4.609  0.1923  0.7244  0.4058
  758MOL0     C99962  -1.560   3.315   4.670  0.4035 -1.0436 -0.1075
  758MOL0     C99963  -1.673   3.289   4.764  1.1372 -0.5176 -0.3471
  758MOL0     C99964  -1.811   3.270   4.721  0.1094  0.9472 -0.1027
  758MOL0     C99965  -1.842   3.336   4.588  0.4652  0.0667 -0.7834
  758MOL0     C99966  -1.849   3.485   4.597  0.3765 -0.7230 -0.0662
  758MOL0     C99967  -1.898   3.556   4.475  0.7201  0.1106 -0.1372
  758MOL0    Cl99968  -2.063   3.520   4.421 -0.8291  0.5713 -0.5195
  758MOL0     C99969  -1.137   2.909   4.540  0.8466 -0.3805 -0.1254
  758MOL0     C99970  -1.005   2.877   4.490 -0.2139  0.4222  0.4353
  758MOL0     O99971  -0.739   3.118   4.363  0.1859 -0.1366  0.0832
  758MOL0     C99972  -0.512   3.069   4.214  0.0172  0.2907  1.0326
  758MOL0     C99973  -0.382   3.041   4.160  0.4707  0.1531  0.6305
  758MOL0     N99974  -0.135   2.311   3.761 -0.1338  0.2743 -0.7821
  758MOL0     N99975  -0.067   2.213   3.719 -0.0943  0.5093 -0.2953
  758MOL0     C99976   1.343   2.054   3.676  0.5164  0.4280 -0.3069
  758MOL0     C99977   1.457   1.971   3.672 -0.6787  0.8212  0.6090
  758MOL0     C99978   1.777   1.654   3.669  0.1671 -0.6165  0.4431
  758MOL0     C99979   1.805   1.559   3.566 -0.7393 -0.0678 -0.7119
  758MOL0     C99980   1.925   1.472   3.573  1.6966  0.4868 -0.6320
  758MOL0     C99981   1.998   1.473   3.696 -0.5698 -0.0522 -0.2437
  758MOL0     O99982   2.098   1.378   3.704  0.0726 -0.7345  0.1947
  758MOL0     C99983   2.184   1.353   3.818 -0.2315  0.5427  0.1216
  758MOL0     C99984   2.303   1.449   3.805 -0.2759  0.6011 -0.6384
  758MOL0     C99985   2.381   1.407   3.674  0.3754 -0.5218  0.0201
  758MOL0     C99986   2.501   1.494   3.674 -0.1550  1.2085 -0.4676
  758MOL0     C99987   2.615   1.434   3.742  0.1412 -0.3289 -0.3593
  758MOL0     C99988   2.699   1.379   3.814 -0.4937 -0.1903  0.3338
  758MOL0     C99989   1.966   1.569   3.801 -0.7003 -0.0029 -0.7193
  758MOL0     C99990   1.857   1.659   3.782  0.5291  0.7276  0.4253
  758MOL0     H99991   1.417   1.758   3.932  3.1428  3.0146  1.6624
  758MOL0     H99992   1.198   1.905   3.951  0.2841  2.0372  0.5934
  758MOL0     H99993   1.013   2.058   3.901  0.7198  3.7787 -0.8072
  758MOL0     H99994   1.019   1.902   3.794  0.8850 -0.0246  0.4892
  758MOL0     H99995   0.901   1.992   3.625  3.7936  1.3663 -1.0003
  758MOL0     H99996   0.931   2.141   3.664  2.2732 -1.0889 -0.0799
  758MOL0     H99997   0.774   2.148   3.873  1.1493 -3.6284  2.8417
  758MOL0     H99998   0.721   1.985   3.832  1.5261 -0.1457 -1.4416
  758MOL0     H99999   0.687   2.221   3.651  3.3640 -0.8975 -0.7450
  758MOL0     H    0   0.631   2.061   3.607 -1.7051 -1.0083  1.2874
  758MOL0     H    1   0.476   2.245   3.740  3.0844  2.0084 -0.1436
  758MOL0     H    2   0.527   2.131   3.873 -1.1917 -0.8762  0.5365
  758MOL0     H    3   0.417   1.948   3.767 -2.0553 -0.5440 -2.1685
  758MOL0     H    4   0.396   2.026   3.618  1.3804 -3.0814 -0.1482
  758MOL0     H    5   0.201   2.037   3.815 -1.9061  2.0306  1.0065
  758MOL0     H    6   0.282   2.183   3.841 -1.2750  0.1189  0.2227
  758MOL0     H    7   0.149   2.104   3.574  0.1589 -0.5015 -0.0602
  758MOL0     H    8   0.248   2.249   3.609 -0.7615  1.1748 -0.4198
  758MOL0     H    9   0.174   2.414   3.789  1.9370 -2.5230  0.5911
  758MOL0     H   10  -0.179   2.511   3.930 -0.1960 -0.5555  0.6817
  758MOL0     H   11  -0.119   2.594   3.779  1.8635  1.5171  0.5833
  758MOL0     H   12   0.095   2.651   3.872  0.7096 -2.9573 -0.0514
  758MOL0     H   13   0.054   2.589   4.032 -0.4420  0.7983  1.3173
  758MOL0     H   14   0.018   2.828   4.014 -1.5504  1.0522 -0.4310
  758MOL0     H   15  -0.085   2.807   3.879 -2.1674  1.9282  1.1648
  758MOL0     H   16  -0.141   2.689   4.149  1.9088 -2.9885 -2.5570
  758MOL0     H   17  -0.257   2.694   4.008 -0.5352  2.9556 -3.2679
  758MOL0     H   18  -0.409   2.697   4.197  0.1895 -0.0515 -0.6443
  758MOL0     H   19  -0.616   2.752   4.269  1.3965 -2.7355 -1.6308
  758MOL0     H   20  -1.002   3.101   4.239 -2.8476  1.2827  0.3135
  758MOL0     H   21  -1.209   3.162   4.340  1.6980  1.3847 -0.2700
  758MOL0     H   22  -1.411   3.195   4.437  1.2482  0.9235 -0.1610
  758MOL0     H   23  -1.324   3.246   4.582  0.7352 -0.6409 -0.8200
  758MOL0     H   24  -1.526   3.095   4.676 -2.2577 -2.2218 -3.0257
  758MOL0     H   25  -1.600   3.156   4.533  2.8036  0.6987 -2.3067
  758MOL0     H   26  -1.584   3.378   4.584  0.3509 -2.2891 -1.0363
  758MOL0     H   27  -1.478   3.367   4.721 -1.1939  1.5260  0.0321
  758MOL0     H   28  -1.646   3.211   4.835  0.9891  1.9697  2.6713
  758MOL0     H   29  -1.672   3.384   4.819 -3.7694  1.1561 -2.5302
  758MOL0     H   30  -1.872   3.306   4.804  1.3690  4.1945 -0.4314
  758MOL0     H   31  -1.829   3.163   4.705 -2.3913  1.4603 -1.1794
  758MOL0     H   32  -1.946   3.314   4.561  0.0868  1.9334 -0.9858
  758MOL0     H   33  -1.786   3.296   4.504 -1.0828 -0.6279 -1.5349
  758MOL0     H   34  -1.913   3.525   4.676 -0.1585 -1.7627  0.0455
  758MOL0     H   35  -1.751   3.531   4.605  0.5027 -1.0442  0.2840
  758MOL0     H   36  -1.832   3.522   4.395  1.5742  3.1505 -0.8446
  758MOL0     H   37  -1.889   3.663   4.499  0.3572  0.2078 -0.4257
  758MOL0     H   38  -1.181   2.855   4.623 -4.1483  1.3298 -1.3514
  758MOL0     H   39  -0.956   2.785   4.522 -2.3901 -0.5871  1.0973
  758MOL0     H   40  -0.544   3.173   4.219 -1.4560  0.5833 -5.5189
  758MOL0     H   41  -0.322   3.120   4.116  4.5029 -3.2246 -0.5955
  758MOL0     H   42   1.334   2.132   3.600 -0.4473  2.6598  1.9451
  758MOL0     H   43   1.523   2.000   3.591 -3.6290  2.9412 -1.2566
  758MOL0     H   44   1.729   1.544   3.490 -2.7851 -1.9874  1.5455
  758MOL0     H   45   1.953   1.389   3.508 -1.3138 -2.1844  1.1502
  758MOL0     H   46   2.220   1.250   3.808 -0.2098  0.4520  1.0514
  758MOL0     H   47   2.133   1.363   3.914  0.0408  1.1280  0.2075
  758MOL0     H   48   2.272   1.553   3.808 -1.8081  0.2906 -3.2540
  758MOL0     H   49   2.373   1.437   3.889 -0.8743  0.1138 -0.1937
  758MOL0     H   50   2.306   1.428   3.597 -1.1362  1.0443  1.8354
  758MOL0     H   51   2.407   1.301   3.678  1.1508 -0.3352  0.1432
  758MOL0     H   52   2.524   1.509   3.568  0.3940  2.5922 -0.1732
  758MOL0     H   53   2.491   1.589   3.727 -1.5888  0.4030  0.7906
  758MOL0     H   54   2.779   1.339   3.873  0.1394 -0.4139 -0.6480
  758MOL0     H   55   2.028   1.571   3.890  0.7925  0.6422 -1.7301
  758MOL0     H   56   1.836   1.734   3.858 -0.9954  0.3010  0.4569
  759MOL0     O   57   2.800  10.908   9.235 -0.7359 -0.4616  0.1731
  759MOL0     C   58   2.868  10.846   9.317 -1.2074  0.5689  0.0226
  759MOL0     O   59   2.882  10.880   9.449  0.9239 -0.8322  0.3008
  759MOL0     C   60   2.794  10.974   9.506  0.5191 -0.0035  0.6257
  759MOL0     C   61   2.840  11.063   9.592 -0.4214  0.3140 -0.0215
  759MOL0     C   62   2.751  11.155   9.653 -0.6797 -0.1379  0.6055
  759MOL0     C   63   2.612  11.159   9.619  0.7404 -0.0737  0.2433
  759MOL0     O   64   2.517  11.257   9.649 -0.0799  0.4701  0.4224
  759MOL0     C   65   2.525  11.316   9.773 -0.6530  0.3824 -0.5749
  759MOL0     C   66   2.411  11.407   9.811  0.5799  0.0671 -0.6596
  759MOL0     C   67   2.413  11.469   9.948 -0.8563  0.4580  1.0267
  759MOL0     C   68   2.306  11.571   9.980 -0.0330  0.3813 -0.0285
  759MOL0     C   69   2.327  11.652  10.108  0.0499  0.2649  0.0628
  759MOL0     C   70   2.343  11.567  10.231 -0.5831  0.2549 -0.2919
  759MOL0     C   71   2.329  11.636  10.366 -0.0829 -0.0047  0.1549
  759MOL0     C   72   2.376  11.556  10.486  0.2805  1.2758  0.3717
  759MOL0     N   73   2.321  11.633  10.596  0.1432  0.4734 -0.3027
  759MOL0     C   74   2.186  11.654  10.635 -0.6503 -0.4009 -1.0367
  759MOL0     C   75   2.196  11.750  10.732 -0.3540  0.7075 -0.4584
  759MOL0     C   76   2.085  11.827  10.803 -1.1758 -0.4809  0.9703
  759MOL0     C   77   2.107  11.816  10.950 -0.3792 -0.5156  0.1812
  759MOL0     C   78   2.002  11.911  11.014  0.3708 -0.0688  0.4001
  759MOL0     C   79   1.992  11.903  11.167  0.1732 -0.2104 -0.2081
  759MOL0     O   80   1.942  11.769  11.193  0.0673 -0.1300 -0.1787
  759MOL0     C   81   1.913  11.724  11.324  0.2047 -0.3259  0.8573
  759MOL0     C   82   1.802  11.647  11.341 -0.7504 -0.6235  0.4179
  759MOL0     C   83   1.763  11.600  11.465  0.1629 -0.0522 -0.3168
  759MOL0     C   84   1.834  11.648  11.578  0.9236 -0.5648 -0.9891
  759MOL0     C   85   1.797  11.598  11.712  0.0841  0.0407 -0.1340
  759MOL0     O   86   1.695  11.510  11.719  0.0050 -0.5075  0.2835
  759MOL0     C   87   1.677  11.476  11.852 -0.0800  0.1660  0.6438
  759MOL0     C   88   1.760  11.389  11.922 -0.4761 -0.2389 -0.4163
  759MOL0     C   89   1.735  11.351  12.058  1.2444 -0.4916  0.3511
  759MOL0     C   90   1.605  11.393  12.118 -0.3998 -0.2053  1.3120
  759MOL0     O   91   1.557  11.337  12.236  0.6615 -0.0260  0.8946
  759MOL0     C   92   1.623  11.217  12.286 -0.3431  0.4069 -0.1736
  759MOL0     C   93   1.567  11.167  12.426  0.5772 -0.3904  0.5451
  759MOL0     C   94   1.529  11.284  12.525 -0.7518  0.2085 -0.6192
  759MOL0     C   95   1.453  11.238  12.651 -0.3485 -0.6346  0.0575
  759MOL0     C   96   1.443  11.363  12.735 -0.9462 -0.5581 -0.8902
  759MOL0     C   97   1.324  11.448  12.702 -0.6382  0.3357 -1.1031
  759MOL0     C   98   1.286  11.536  12.818 -0.1121  0.6199 -0.5269
  759MOL0     C   99   1.146  11.596  12.804 -0.2114 -0.4426 -0.9791
  759MOL0    Cl  100   1.112  11.731  12.917 -0.4394 -0.0929 -0.1842
  759MOL0     C  101   1.526  11.476  12.036 -0.2574 -0.1420  0.6163
  759MOL0     C  102   1.561  11.519  11.914 -0.1679 -0.3622  0.7298
  759MOL0     O  103   1.886  11.623  11.799  0.1736  0.0519  0.4547
  759MOL0     C  104   1.922  11.759  11.557 -0.7404 -0.2170 -0.2413
  759MOL0     C  105   1.970  11.789  11.432 -0.4566  1.1508 -0.0690
  759MOL0     N  106   2.330  11.770  10.760 -0.6659 -0.2302  0.1931
  759MOL0     N  107   2.400  11.706  10.677 -0.0570  0.4609  0.4799
  759MOL0     C  108   2.570  11.063   9.526  0.8667  0.0164  0.6540
  759MOL0     C  109   2.660  10.974   9.467  0.9560  0.1490 -0.7138
  759MOL0     C  110   2.939  10.724   9.255 -0.4587 -0.0188  0.4297
  759MOL0     C  111   3.014  10.639   9.342  0.0525 -0.2949  0.1441
  759MOL0     C  112   3.089  10.531   9.296 -0.8132  0.5625  0.1327
  759MOL0     C  113   3.100  10.506   9.156 -0.9713 -0.2228  0.1015
  759MOL0     O  114   3.191  10.404   9.119  0.6481 -0.6929 -0.3784
  759MOL0     C  115   3.205  10.384   8.977  0.0917  0.3678 -0.6915
  759MOL0     C  116   3.316  10.287   8.952 -0.8696 -0.0320  0.4661
  759MOL0     C  117   3.277  10.143   8.948  0.3898 -0.6231  1.1028
  759MOL0     C  118   3.372  10.061   8.875 -1.0039 -0.6997 -0.3454
  759MOL0     C  119   3.369   9.936   8.949  0.3439 -0.7066 -0.0778
  759MOL0     C  120   3.374   9.836   9.013 -0.4962  0.0010  0.3560
  759MOL0     C  121   3.021  10.583   9.067  0.1101 -0.0950 -0.2701
  759MOL0     C  122   2.948  10.694   9.111 -0.0125  0.7521  0.3053
  759MOL0     H  123   2.946  11.065   9.615  0.2830  0.3748 -2.9264
  759MOL0     H  124   2.801  11.225   9.719 -0.8073 -2.4852  3.4269
  759MOL0     H  125   2.618  11.370   9.792 -0.5057 -0.8545  3.0141
  759MOL0     H  126   2.522  11.233   9.844  0.6742 -0.4684 -1.4840
  759MOL0     H  127   2.311  11.362   9.805 -0.2309  1.6458  0.3016
  759MOL0     H  128   2.404  11.487   9.737 -1.8434  0.8054  0.2775
  759MOL0     H  129   2.513  11.515   9.949 -0.0072 -1.2578 -0.0511
  759MOL0     H  130   2.418  11.392  10.026  2.7697 -0.3514  0.2165
  759MOL0     H  131   2.307  11.643   9.897  2.2154  2.5941  1.7784
  759MOL0     H  132   2.215  11.510   9.975  2.9886 -4.5627 -1.8910
  759MOL0     H  133   2.236  11.712  10.118 -0.3689 -0.5494  1.6823
  759MOL0     H  134   2.416  11.713  10.096 -0.9088  1.9729  1.1534
  759MOL0     H  135   2.445  11.527  10.233 -0.2238  1.0166  3.0047
  759MOL0     H  136   2.264  11.493  10.216 -1.0968  0.5929  0.6680
  759MOL0     H  137   2.383  11.731  10.370 -0.4379  0.2118 -0.0222
  759MOL0     H  138   2.225  11.671  10.372 -0.4067 -0.7722 -0.7438
  759MOL0     H  139   2.485  11.545  10.484  0.3642  1.8614  1.2164
  759MOL0     H  140   2.318  11.463  10.494 -2.1842  2.6747 -0.0201
  759MOL0     H  141   2.100  11.613  10.583  1.1818 -2.1771 -2.8616
  759MOL0     H  142   1.996  11.771  10.772 -0.3975 -1.7141  0.9024
  759MOL0     H  143   2.075  11.927  10.762 -1.4551  1.5858  5.4612
  759MOL0     H  144   2.208  11.845  10.983 -1.5361  1.9260  1.9362
  759MOL0     H  145   2.082  11.714  10.979 -0.0182 -0.5576  0.3516
  759MOL0     H  146   2.029  12.016  10.996 -1.1333  0.5105  1.3164
  759MOL0     H  147   1.909  11.881  10.965  0.6306  0.6812 -0.5919
  759MOL0     H  148   1.920  11.977  11.203  0.4568 -0.0733  0.0900
  759MOL0     H  149   2.093  11.922  11.204 -0.0954  1.2675 -0.1644
  759MOL0     H  150   1.748  11.614  11.253  0.5669 -0.9280 -0.3034
  759MOL0     H  151   1.681  11.530  11.471  3.3121 -4.0953 -0.5715
  759MOL0     H  152   1.845  11.350  11.868 -0.5499  1.3637 -1.7873
  759MOL0     H  153   1.795  11.285  12.120 -1.0442 -1.4071  1.7471
  759MOL0     H  154   1.730  11.233  12.304 -0.3581 -0.7772  1.1945
  759MOL0     H  155   1.604  11.137  12.215  1.2450 -0.5159  0.3819
  759MOL0     H  156   1.649  11.115  12.477  1.9752  1.9311  0.8107
  759MOL0     H  157   1.487  11.097  12.402 -0.3829  1.6373 -2.8207
  759MOL0     H  158   1.469  11.353  12.465 -0.3834  1.5123  0.4578
  759MOL0     H  159   1.624  11.332  12.550  0.1857 -2.5708  1.8653
  759MOL0     H  160   1.353  11.204  12.623 -1.2015  1.0392  0.9368
  759MOL0     H  161   1.504  11.158  12.705  2.8418  0.8037 -0.5520
  759MOL0     H  162   1.534  11.424  12.727  0.0682 -2.0060 -0.7404
  759MOL0     H  163   1.437  11.344  12.842 -2.5014  1.5377 -0.5425
  759MOL0     H  164   1.248  11.376  12.671  1.3303 -1.0823 -2.9422
  759MOL0     H  165   1.344  11.517  12.620 -1.6363  1.2182 -0.6243
  759MOL0     H  166   1.285  11.489  12.917 -0.6436  2.0078  0.1570
  759MOL0     H  167   1.367  11.608  12.827  3.1565 -2.8395  0.4649
  759MOL0     H  168   1.070  11.519  12.822  0.7825 -1.2209  0.1209
  759MOL0     H  169   1.118  11.630  12.704 -0.8155 -0.5765 -0.8601
  759MOL0     H  170   1.431  11.511  12.075  0.0064  2.5562 -0.8666
  759MOL0     H  171   1.499  11.593  11.864  1.8187  0.9152  0.0349
  759MOL0     H  172   1.970  11.807  11.642  2.6119 -2.5029 -0.6643
  759MOL0     H  173   2.055  11.851  11.404  1.1605 -0.3644  1.2450
  759MOL0     H  174   2.468  11.077   9.493  1.0978  0.5892  0.1460
  759MOL0     H  175   2.613  10.910   9.393 -0.5127  0.9274 -0.4982
  759MOL0     H  176   3.017  10.656   9.449 -1.8567  0.4958  0.1090
  759MOL0     H  177   3.143  10.474   9.371  1.6105  0.9892 -1.1575
  759MOL0     H  178   3.224  10.484   8.937 -2.3167  2.1006  2.0864
  759MOL0     H  179   3.114  10.351   8.925  1.3302 -1.1555 -2.0140
  759MOL0     H  180   3.370  10.317   8.861 -2.5063  1.8337  0.0540
  759MOL0     H  181   3.387  10.306   9.033 -0.5830 -0.0041  0.2121
  759MOL0     H  182   3.175  10.124   8.913  0.3535 -2.3288  1.9864
  759MOL0     H  183   3.283  10.105   9.051  0.6254 -2.5309  0.4236
  759MOL0     H  184   3.349  10.053   8.769  0.2977 -3.1141 -0.5024
  759MOL0     H  185   3.472  10.105   8.886 -2.2251  1.8298  1.9670
  759MOL0     H  186   3.391   9.743   9.063 -1.5091  0.1108  0.9119
  759MOL0     H  187   3.017  10.551   8.963  1.3137 -4.6349  0.8408
  759MOL0     H  188   2.882  10.753   9.048 -2.3654  2.5193  4.0012
  760MOL0     O  189   1.496  10.563  10.188 -0.2566 -0.2200  0.2374
  760MOL0     C  190   1.544  10.546  10.297 -0.3086  1.0455  0.0552
  760MOL0     O  191   1.664  10.478  10.323  0.3032  0.3657  0.4834
  760MOL0     C  192   1.699  10.380  10.232 -0.0429 -0.4840 -0.0102
  760MOL0     C  193   1.835  10.345  10.219 -0.8018 -0.0697 -0.1931
  760MOL0     C  194   1.886  10.243  10.139 -0.5393 -0.8879  0.3791
  760MOL0     C  195   1.795  10.178  10.067  0.1907  1.0365  0.0017
  760MOL0     O  196   1.831  10.061  10.010  0.3451 -0.1636  0.0547
  760MOL0     C  197   1.967  10.015  10.003  0.4534  0.2661  0.4666
  760MOL0     C  198   1.953   9.864   9.988  0.0795  0.2953 -1.0114
  760MOL0     C  199   2.090   9.808   9.945  0.3631  0.6055 -0.0136
  760MOL0     C  200   2.101   9.658   9.926  0.5194  0.0445 -0.5274
  760MOL0     C  201   2.027   9.606   9.809 -0.2347 -0.1827 -0.7979
  760MOL0     C  202   2.001   9.456   9.812  0.0901  0.1867  0.2953
  760MOL0     C  203   1.915   9.399   9.916  0.1416 -0.2969  0.3268
  760MOL0     C  204   1.835   9.272   9.897 -0.2789  0.5043 -0.3801
  760MOL0     N  205   1.913   9.150   9.884  0.3825 -0.4260 -0.2332
  760MOL0     C  206   1.981   9.101   9.774  0.5920 -0.4441  0.0724
  760MOL0     C  207   2.016   8.974   9.806 -0.3218  0.2766 -0.1468
  760MOL0     C  208   2.067   8.862   9.714  0.4301 -0.3935 -0.1605
  760MOL0     C  209   2.216   8.822   9.755  0.4963  0.1862 -0.4403
  760MOL0     C  210   2.273   8.713   9.668 -1.0193 -0.8458 -0.7467
  760MOL0     C  211   2.429   8.713   9.644  0.0331  0.2726  0.4493
  760MOL0     O  212   2.477   8.589   9.582 -0.6560  0.6745  0.3951
  760MOL0     C  213   2.611   8.589   9.556 -0.5761  0.2170 -0.7892
  760MOL0     C  214   2.662   8.463   9.542  0.5853 -0.1669  0.5779
  760MOL0     C  215   2.796   8.443   9.541  0.8963  0.0448 -0.7296
  760MOL0     C  216   2.883   8.551   9.542  0.1857  0.4815 -0.0960
  760MOL0     C  217   3.031   8.525   9.533  0.5594  0.3956  0.6113
  760MOL0     O  218   3.073   8.403   9.485  0.0161  0.6136 -0.3547
  760MOL0     C  219   3.198   8.358   9.483  0.1837  0.0825 -0.0473
  760MOL0     C  220   3.300   8.393   9.568 -0.4567  1.1118  0.5747
  760MOL0     C  221   3.422   8.323   9.568  0.0661  0.0571 -0.5957
  760MOL0     C  222   3.447   8.218   9.475  0.7210 -0.9439 -0.4899
  760MOL0     O  223   3.562   8.146   9.469 -0.1288  0.0964  0.1106
  760MOL0     C  224   3.686   8.216   9.448 -0.4332 -0.4382  0.3388
  760MOL0     C  225   3.709   8.219   9.292 -0.2407  0.0522 -0.8996
  760MOL0     C  226   3.725   8.076   9.241 -0.0700 -0.5045  0.6812
  760MOL0     C  227   3.780   8.076   9.097  0.2206 -0.7120 -0.5602
  760MOL0     C  228   3.679   8.044   8.993  0.3832  0.0357  0.2797
  760MOL0     C  229   3.733   8.060   8.848 -0.5701  0.8066  0.8517
  760MOL0     C  230   3.669   7.973   8.747  1.0778  0.3842 -0.6359
  760MOL0     C  231   3.521   8.022   8.726  0.3889 -0.1693 -0.3820
  760MOL0    Cl  232   3.524   8.195   8.666  0.0378 -0.1338 -0.2372
  760MOL0     C  233   3.334   8.187   9.395  0.2984  0.7839  0.0937
  760MOL0     C  234   3.218   8.257   9.382  0.2776 -0.6723 -0.8098
  760MOL0     O  235   3.106   8.612   9.583 -0.1650 -0.4046  0.3973
  760MOL0     C  236   2.836   8.683   9.560 -0.6012  0.4988  1.2317
  760MOL0     C  237   2.701   8.697   9.564 -0.2531 -0.0844  0.2603
  760MOL0     N  238   1.977   8.952   9.935  0.8882  0.5276 -0.0770
  760MOL0     N  239   1.891   9.045   9.975 -0.8193 -0.4725 -0.3105
  760MOL0     C  240   1.663  10.211  10.070 -0.7728  0.8322  0.0166
  760MOL0     C  241   1.607  10.312  10.156 -0.6739  0.0008  0.6807
  760MOL0     C  242   1.480  10.607  10.414  0.2005  0.1351  0.0684
  760MOL0     C  243   1.550  10.626  10.535  0.0823  0.5898 -0.4079
  760MOL0     C  244   1.490  10.679  10.655  0.7603  0.0521 -1.0248
  760MOL0     C  245   1.361  10.727  10.652 -0.1211  0.0468  0.6817
  760MOL0     O  246   1.303  10.776  10.762 -0.0510  0.1550  0.2324
  760MOL0     C  247   1.334  10.913  10.794 -0.2043  0.1974  0.9197
  760MOL0     C  248   1.202  10.986  10.822  0.3756  0.1651  0.2522
  760MOL0     C  249   1.108  10.995  10.696 -0.1567 -0.2700 -0.0977
  760MOL0     C  250   1.007  11.100  10.722 -0.4642 -0.0986  0.3176
  760MOL0     C  251   0.919  11.054  10.822  0.3640  0.3942  0.0270
  760MOL0     C  252   0.829  11.010  10.896 -0.3334 -0.2837  0.9589
  760MOL0     C  253   1.291  10.716  10.526 -1.1772  0.5299  0.0099
  760MOL0     C  254   1.354  10.665  10.403  0.1624 -0.4633 -0.6108
  760MOL0     H  255   1.893  10.390  10.299 -4.9916  0.9569  2.5867
  760MOL0     H  256   1.993  10.228  10.155  0.2711  4.1436  1.4020
  760MOL0     H  257   2.028  10.034  10.092  0.1550 -0.0959  0.7508
  760MOL0     H  258   2.016  10.067   9.919 -2.6038 -1.0690 -2.3739
  760MOL0     H  259   1.878   9.836   9.913  0.5237 -3.5756 -0.2019
  760MOL0     H  260   1.920   9.838  10.090 -0.3578 -0.6058 -1.3715
  760MOL0     H  261   2.164   9.833  10.022  2.5702 -0.9734 -1.4967
  760MOL0     H  262   2.123   9.857   9.853 -1.3070  1.3670 -0.2425
  760MOL0     H  263   2.205   9.624   9.930  0.8177  1.0174  0.8320
  760MOL0     H  264   2.051   9.607  10.009 -0.8938 -0.2212 -1.5084
  760MOL0     H  265   2.100   9.619   9.729  0.5016 -0.5788 -0.2081
  760MOL0     H  266   1.931   9.653   9.788 -0.2217 -0.3096 -1.1367
  760MOL0     H  267   2.099   9.408   9.811  0.7419  1.3571 -2.3890
  760MOL0     H  268   1.953   9.440   9.715  3.8175  2.2346 -2.1317
  760MOL0     H  269   1.976   9.379  10.005  0.2667  1.0838  0.5730
  760MOL0     H  270   1.829   9.466   9.928 -1.5946 -1.7169 -2.9407
  760MOL0     H  271   1.757   9.279   9.822 -2.1645 -3.9384  0.8367
  760MOL0     H  272   1.777   9.263   9.989 -0.7938  3.2705 -0.3368
  760MOL0     H  273   2.006   9.150   9.680  2.4438 -2.1675 -0.3875
  760MOL0     H  274   2.066   8.899   9.611  0.7436  1.0642  0.3368
  760MOL0     H  275   1.998   8.777   9.715 -0.9680  0.7205  0.3894
  760MOL0     H  276   2.215   8.787   9.859  0.3149  1.5944  0.0465
  760MOL0     H  277   2.281   8.909   9.741  1.9154 -1.1106 -2.4774
  760MOL0     H  278   2.238   8.617   9.707 -2.0084  0.2937  1.2965
  760MOL0     H  279   2.217   8.714   9.574 -1.5431 -2.9898 -0.4976
  760MOL0     H  280   2.474   8.716   9.744  1.6166 -1.6170 -0.1361
  760MOL0     H  281   2.463   8.800   9.588  0.9479 -0.6503 -0.4766
  760MOL0     H  282   2.594   8.381   9.520 -0.3814  0.9497 -0.8183
  760MOL0     H  283   2.842   8.347   9.520  1.0243  0.1717 -1.0348
  760MOL0     H  284   3.270   8.465   9.644 -2.7749  1.6668 -0.7771
  760MOL0     H  285   3.500   8.357   9.637  0.8576 -0.1218 -1.3812
  760MOL0     H  286   3.770   8.167   9.496 -2.0795 -2.0801  1.6825
  760MOL0     H  287   3.679   8.316   9.490  0.1180  0.3051 -1.2409
  760MOL0     H  288   3.794   8.280   9.261  0.0835  0.5558  0.9006
  760MOL0     H  289   3.625   8.269   9.243 -0.3930  2.7938  1.8670
  760MOL0     H  290   3.622   8.042   9.228 -1.0866  1.9786  1.6945
  760MOL0     H  291   3.775   8.004   9.307 -2.4986 -2.5786  0.4007
  760MOL0     H  292   3.840   8.167   9.084  1.4321 -1.1626  1.4995
  760MOL0     H  293   3.858   8.000   9.085  1.3130  0.7334 -3.4441
  760MOL0     H  294   3.594   8.111   9.003 -0.8865 -0.9487 -2.6918
  760MOL0     H  295   3.671   7.936   9.008  1.2358 -0.0025  0.5423
  760MOL0     H  296   3.839   8.031   8.850 -0.2008  2.0607  0.1244
  760MOL0     H  297   3.729   8.167   8.824 -3.1124  0.2937 -1.5120
  760MOL0     H  298   3.722   7.992   8.653 -0.1002  0.1228 -1.3726
  760MOL0     H  299   3.679   7.865   8.758  1.2254  0.2046 -2.2364
  760MOL0     H  300   3.461   8.026   8.818  0.1837  0.0531 -0.5254
  760MOL0     H  301   3.471   7.969   8.645 -0.1640 -1.2408  0.6232
  760MOL0     H  302   3.341   8.097   9.334  0.8920 -0.4948  1.9798
  760MOL0     H  303   3.139   8.237   9.311  0.6784 -1.5018 -1.0328
  760MOL0     H  304   2.895   8.774   9.567  0.1627 -0.0737  2.6533
  760MOL0     H  305   2.674   8.801   9.578  1.8471  0.4607  0.5877
  760MOL0     H  306   1.602  10.152  10.001  1.7346 -0.3934 -1.2961
  760MOL0     H  307   1.501  10.337  10.154 -0.4213  1.0900 -0.7549
  760MOL0     H  308   1.651  10.593  10.557  0.0875  0.1060 -1.1440
  760MOL0     H  309   1.533  10.677  10.754 -0.1786  0.7930 -0.5840
  760MOL0     H  310   1.377  10.976  10.715 -3.1420  2.7287  1.1240
  760MOL0     H  311   1.412  10.915  10.870  1.5833 -1.3582 -0.7730
  760MOL0     H  312   1.145  10.935  10.900  0.5567 -1.1886 -0.4776
  760MOL0     H  313   1.219  11.087  10.861 -1.9780  0.0776  1.7096
  760MOL0     H  314   1.055  10.903  10.671 -1.7841  0.2165  1.3019
  760MOL0     H  315   1.174  11.024  10.615  1.2004  2.7209  1.8927
  760MOL0     H  316   1.046  11.196  10.757 -2.9144  0.4932  1.6749
  760MOL0     H  317   0.949  11.111  10.630 -0.4947 -2.0717  0.0604
  760MOL0     H  318   0.749  10.974  10.958 -1.1093  1.0020  0.7402
  760MOL0     H  319   1.186  10.742  10.520 -1.3783 -0.5982 -2.8178
  760MOL0     H  320   1.309  10.677  10.305  3.8480 -1.6865 -2.6533
  761MOL0     O  321   0.380  11.081   1.150  0.4065  0.1389 -0.2418
  761MOL0     C  322   0.389  10.972   1.214 -0.2156  0.3957 -0.0465
  761MOL0     O  323   0.290  10.877   1.237  0.4625 -0.7610  0.0812
  761MOL0     C  324   0.165  10.919   1.199  0.2576  0.8966  0.5416
  761MOL0     C  325   0.089  10.822   1.130 -0.6732  0.4263  0.6793
  761MOL0     C  326  -0.049  10.851   1.101 -0.2747 -0.1482 -0.4961
  761MOL0     C  327  -0.107  10.971   1.145  0.4916  0.6655  0.3568
  761MOL0     O  328  -0.240  10.999   1.108 -0.1728  0.5529 -0.5600
  761MOL0     C  329  -0.320  11.101   1.180  0.0538 -0.2039 -0.1212
  761MOL0     C  330  -0.451  11.136   1.108  0.0401 -0.1416  0.2265
  761MOL0     C  331  -0.523  11.254   1.154 -0.2768 -1.5057  0.0423
  761MOL0     C  332  -0.563  11.218   1.298 -0.4272 -0.2454 -0.6241
  761MOL0     C  333  -0.640  11.319   1.381  0.4724  1.1582 -0.5971
  761MOL0     C  334  -0.578  11.463   1.392  0.2606 -0.2899  0.1469
  761MOL0     C  335  -0.679  11.570   1.448  0.2102 -0.2132  0.4567
  761MOL0     C  336  -0.748  11.530   1.584 -1.1198  0.5884  0.2976
  761MOL0     N  337  -0.894  11.535   1.578 -0.3197  0.0939 -0.4693
  761MOL0     C  338  -0.977  11.480   1.484  0.5335 -0.8699 -0.2746
  761MOL0     C  339  -1.105  11.523   1.523 -0.5040  0.6619 -0.2916
  761MOL0     C  340  -1.238  11.472   1.459 -0.0831 -0.1623  0.6438
  761MOL0     C  341  -1.329  11.411   1.564  0.2304 -0.6031  0.3348
  761MOL0     C  342  -1.396  11.512   1.661  0.5992  0.0152  0.3867
  761MOL0     C  343  -1.531  11.457   1.703  0.8088 -0.2100  1.0578
  761MOL0     O  344  -1.550  11.316   1.713  0.2561  0.6892  0.1361
  761MOL0     C  345  -1.669  11.281   1.782  0.1690 -0.3052 -0.2858
  761MOL0     C  346  -1.674  11.149   1.826  0.5119  0.1314  0.2643
  761MOL0     C  347  -1.775  11.111   1.913  1.1281  0.1959  0.3903
  761MOL0     C  348  -1.886  11.198   1.945  0.0505 -0.6152 -0.6840
  761MOL0     C  349  -2.003  11.169   2.029 -0.3921 -0.6108 -0.0049
  761MOL0     O  350  -2.072  11.259   2.101 -0.4329 -0.1035  0.2072
  761MOL0     C  351  -2.174  11.209   2.172  0.1620  0.9223  0.9865
  761MOL0     C  352  -2.302  11.197   2.105 -0.5042  0.1205  0.5710
  761MOL0     C  353  -2.403  11.153   2.178 -0.4690  0.5874 -0.2279
  761MOL0     C  354  -2.395  11.128   2.317 -0.3780  0.1635  0.0342
  761MOL0     O  355  -2.516  11.102   2.381 -0.3373 -0.1935 -0.1137
  761MOL0     C  356  -2.525  11.025   2.509 -0.1675 -0.6660  0.2286
  761MOL0     C  357  -2.680  11.019   2.552 -0.1913 -1.3538  0.2139
  761MOL0     C  358  -2.752  10.886   2.536 -1.4969  0.2151 -0.5228
  761MOL0     C  359  -2.884  10.884   2.612 -0.0370 -0.8665 -0.3223
  761MOL0     C  360  -2.950  10.745   2.626  0.6423  0.2238 -0.1357
  761MOL0     C  361  -3.094  10.743   2.686 -0.0811  0.1075  0.3512
  761MOL0     C  362  -3.089  10.761   2.842  0.6751  0.1993 -0.2311
  761MOL0     C  363  -3.180  10.662   2.914 -0.0648 -0.2568  0.0483
  761MOL0    Cl  364  -3.089  10.525   2.991 -0.2089 -0.3581 -0.1070
  761MOL0     C  365  -2.271  11.119   2.385 -0.3503 -0.2268  0.4944
  761MOL0     C  366  -2.156  11.161   2.308  0.4108 -0.6348 -0.4012
  761MOL0     O  367  -2.027  11.049   2.030  0.3541 -0.8786 -0.5264
  761MOL0     C  368  -1.890  11.327   1.888 -0.2483 -0.1978  0.7721
  761MOL0     C  369  -1.781  11.369   1.807  0.4566  0.2271  0.4372
  761MOL0     N  370  -1.091  11.627   1.614  0.7202  0.2640 -0.4965
  761MOL0     N  371  -0.967  11.629   1.650 -0.2689  0.9996 -0.2082
  761MOL0     C  372  -0.034  11.044   1.232 -0.4191  0.0144 -0.2125
  761MOL0     C  373   0.105  11.028   1.255  0.6278 -1.2974 -0.4841
  761MOL0     C  374   0.521  10.937   1.271 -0.8967 -0.2097  0.0352
  761MOL0     C  375   0.531  10.839   1.365  0.3515 -0.0511  0.5913
  761MOL0     C  376   0.656  10.806   1.425  0.9228  0.7134  0.2583
  761MOL0     C  377   0.763  10.890   1.420 -0.6294  0.0574  1.3659
  761MOL0     O  378   0.877  10.866   1.497  0.0249  0.0514 -0.6594
  761MOL0     C  379   0.995  10.941   1.484  0.3628 -0.1346 -0.1555
  761MOL0     C  380   0.982  11.066   1.566 -0.5273 -0.3351 -0.1885
  761MOL0     C  381   1.122  11.129   1.612 -0.7282 -0.0320 -0.1918
  761MOL0     C  382   1.102  11.261   1.688  0.3407  0.6891 -0.1183
  761MOL0     C  383   1.211  11.298   1.777 -0.4201  1.5159 -1.1546
  761MOL0     C  384   1.317  11.316   1.840 -0.9721  0.5877  0.5885
  761MOL0     C  385   0.749  11.002   1.332 -0.8168 -0.7189  0.2461
  761MOL0     C  386   0.634  11.016   1.247  0.2091 -0.3316 -0.3140
  761MOL0     H  387   0.119  10.740   1.067 -2.7308  1.0703 -1.2942
  761MOL0     H  388  -0.110  10.784   1.042 -1.0779 -0.3568  0.5461
  761MOL0     H  389  -0.258  11.190   1.193  4.4173 -3.3063  2.9633
  761MOL0     H  390  -0.329  11.068   1.283  1.5636  0.1654  0.1551
  761MOL0     H  391  -0.524  11.055   1.114 -1.7580  1.3106 -1.0928
  761MOL0     H  392  -0.425  11.146   1.002  0.4434 -2.0850  0.1017
  761MOL0     H  393  -0.608  11.270   1.087  1.5686 -0.2344 -2.1222
  761MOL0     H  394  -0.460  11.343   1.149 -0.8156 -1.1377 -0.3816
  761MOL0     H  395  -0.618  11.123   1.296  0.4624 -0.7983  0.1815
  761MOL0     H  396  -0.470  11.198   1.352 -0.7501 -0.0880 -0.0022
  761MOL0     H  397  -0.667  11.273   1.476  2.8600 -2.3937 -1.4037
  761MOL0     H  398  -0.735  11.340   1.333  0.5174 -0.2809 -1.3944
  761MOL0     H  399  -0.551  11.499   1.292 -2.5253 -1.2535 -1.0507
  761MOL0     H  400  -0.487  11.460   1.452 -0.0193  1.7127  0.7510
  761MOL0     H  401  -0.621  11.661   1.462  0.3939  0.0362 -1.6672
  761MOL0     H  402  -0.752  11.591   1.369  3.9383  0.9393 -2.9938
  761MOL0     H  403  -0.716  11.602   1.660  0.8481 -0.7220  0.7925
  761MOL0     H  404  -0.706  11.433   1.612  3.7224  2.4783  0.3971
  761MOL0     H  405  -0.955  11.419   1.398 -1.9164  1.4487 -2.7594
  761MOL0     H  406  -1.215  11.399   1.381  2.6062  1.6935 -0.4479
  761MOL0     H  407  -1.290  11.553   1.407  1.1195 -1.2826 -2.5575
  761MOL0     H  408  -1.264  11.338   1.612  0.2396 -2.0729 -1.7723
  761MOL0     H  409  -1.407  11.356   1.511  0.2748 -2.6673  2.2782
  761MOL0     H  410  -1.341  11.534   1.753  2.2707 -2.4639  0.0922
  761MOL0     H  411  -1.418  11.608   1.613 -3.2241  0.1666  2.1070
  761MOL0     H  412  -1.585  11.501   1.619 -0.6914  0.4573  2.3091
  761MOL0     H  413  -1.564  11.517   1.788 -0.0785  2.1041 -0.8093
  761MOL0     H  414  -1.601  11.074   1.800  2.8366  2.5611 -0.7071
  761MOL0     H  415  -1.778  11.008   1.949 -0.9193 -0.8469 -2.4446
  761MOL0     H  416  -2.316  11.232   2.003  0.3214  0.4468  0.5573
  761MOL0     H  417  -2.498  11.148   2.126 -0.6777 -0.4376  0.2184
  761MOL0     H  418  -2.489  11.086   2.592 -3.1827 -1.4808  2.3193
  761MOL0     H  419  -2.487  10.922   2.503 -0.7022 -0.8481 -0.0910
  761MOL0     H  420  -2.740  11.095   2.501 -1.1726 -1.4847  1.1226
  761MOL0     H  421  -2.685  11.055   2.656  0.1027 -0.4725 -0.0714
  761MOL0     H  422  -2.683  10.812   2.577  0.6749  1.8960 -1.0009
  761MOL0     H  423  -2.764  10.859   2.431 -2.0538  1.5078 -0.8054
  761MOL0     H  424  -2.858  10.914   2.714 -0.0389 -0.6036 -0.3980
  761MOL0     H  425  -2.954  10.947   2.556  2.5226  2.3708 -0.2162
  761MOL0     H  426  -2.887  10.675   2.681 -0.8844 -1.0179  0.0859
  761MOL0     H  427  -2.965  10.720   2.520  0.7000 -0.6366  0.0593
  761MOL0     H  428  -3.139  10.644   2.668 -1.2918  0.8589 -0.9613
  761MOL0     H  429  -3.149  10.821   2.634  0.7499  0.4847  0.0237
  761MOL0     H  430  -2.986  10.758   2.877  1.0029  1.2913 -1.0609
  761MOL0     H  431  -3.116  10.866   2.851  0.3111  0.0264  0.8744
  761MOL0     H  432  -3.266  10.641   2.850  0.6183  2.4953 -1.9975
  761MOL0     H  433  -3.221  10.718   2.998  2.6698  0.9757  0.6891
  761MOL0     H  434  -2.255  11.084   2.487  0.9919 -1.6412 -0.1591
  761MOL0     H  435  -2.053  11.158   2.343  0.6226 -0.5288 -1.0125
  761MOL0     H  436  -1.978  11.385   1.913 -1.4249 -1.0224 -1.2739
  761MOL0     H  437  -1.781  11.473   1.776  1.0722  0.3654  0.8700
  761MOL0     H  438  -0.075  11.138   1.269 -1.4313 -0.6193  0.3355
  761MOL0     H  439   0.160  11.103   1.311  1.3031 -2.3850  0.3449
  761MOL0     H  440   0.445  10.776   1.384 -0.2171  0.4303 -0.3298
  761MOL0     H  441   0.676  10.728   1.497  2.4001  2.8762  2.3597
  761MOL0     H  442   1.018  10.962   1.379  1.6120 -0.2998  0.0706
  761MOL0     H  443   1.072  10.874   1.523  1.1851  0.8457 -0.0588
  761MOL0     H  444   0.918  11.134   1.508 -0.0902  0.4358  0.2056
  761MOL0     H  445   0.919  11.051   1.654  2.3289 -2.4361  1.6506
  761MOL0     H  446   1.187  11.137   1.525  0.5275 -1.2989  0.5926
  761MOL0     H  447   1.172  11.061   1.681  1.4075  1.3163 -0.3314
  761MOL0     H  448   1.091  11.335   1.608 -2.0589  0.1108 -0.4073
  761MOL0     H  449   1.001  11.271   1.729  0.6896 -1.5375  1.4629
  761MOL0     H  450   1.410  11.332   1.891 -1.1204 -0.3227  1.1664
  761MOL0     H  451   0.824  11.078   1.313 -2.6802  1.1409 -0.0282
  761MOL0     H  452   0.627  11.100   1.179  0.1482  0.3134  0.4698
  762MOL0     O  453  11.101   9.488   1.888 -0.4310 -0.2361 -0.4791
  762MOL0     C  454  11.115   9.544   1.996 -0.6343 -0.0110  0.1977
  762MOL0     O  455  11.151   9.475   2.113 -0.2556 -0.3329  0.2313
  762MOL0     C  456  11.181   9.336   2.103 -1.1345 -0.3402 -0.5183
  762MOL0     C  457  11.078   9.246   2.095  0.6264  1.3687  0.4499
  762MOL0     C  458  11.100   9.104   2.084  0.4837 -0.4836  0.7380
  762MOL0     C  459  11.227   9.058   2.097 -0.4097  1.0498  0.3980
  762MOL0     O  460  11.244   8.920   2.107  0.6216  0.2781 -0.5930
  762MOL0     C  461  11.315   8.859   2.004  0.2364  0.8517  0.5906
  762MOL0     C  462  11.336   8.702   2.023 -0.0482 -1.0252 -0.2968
  762MOL0     C  463  11.442   8.679   2.139  0.8565 -0.2643  0.2186
  762MOL0     C  464  11.415   8.706   2.283  0.6018 -0.1840 -0.1956
  762MOL0     C  465  11.540   8.730   2.368 -0.0686 -0.0762  0.2285
  762MOL0     C  466  11.583   8.876   2.360 -0.1765 -0.4909  0.0034
  762MOL0     C  467  11.715   8.900   2.427  0.9609 -0.2689 -0.6305
  762MOL0     C  468  11.827   8.855   2.341  0.2814 -0.7953  0.5156
  762MOL0     N  469  11.941   8.937   2.376 -0.4031  0.1419  0.1182
  762MOL0     C  470  12.021   8.934   2.487  1.1235 -0.9517  0.3615
  762MOL0     C  471  12.091   9.052   2.476 -0.6517 -0.2512 -0.0610
  762MOL0     C  472  12.201   9.090   2.573  0.4387 -0.2039 -0.3836
  762MOL0     C  473  12.167   9.212   2.664 -0.7400 -0.5361 -0.6649
  762MOL0     C  474  12.036   9.200   2.745  0.6833  0.8895 -0.4790
  762MOL0     C  475  12.050   9.162   2.892  0.2067  0.2758  0.2762
  762MOL0     O  476  12.096   9.024   2.896 -0.3808  0.0338 -0.3722
  762MOL0     C  477  12.217   9.002   2.946  0.8580  0.2909 -0.4561
  762MOL0     C  478  12.240   8.871   2.989 -0.0733 -0.1397  0.5185
  762MOL0     C  479  12.368   8.824   3.027  0.4275 -0.0993  1.1023
  762MOL0     C  480  12.475   8.915   3.028  0.0854  0.4762 -0.1588
  762MOL0     C  481  12.607   8.868   3.082  0.4446  0.5506 -0.1043
  762MOL0     O  482  12.608   8.731   3.087 -0.5970 -0.5204  0.1252
  762MOL0     C  483  12.702   8.653   3.151 -0.2950  0.5317  0.9321
  762MOL0     C  484  12.785   8.692   3.255 -0.2428  0.7825  0.4330
  762MOL0     C  485  12.869   8.597   3.313 -0.7581  0.1777  0.4497
  762MOL0     C  486  12.865   8.469   3.277 -0.2495  0.0882 -0.1407
  762MOL0     O  487  12.925   8.372   3.353 -0.4943 -0.1926 -1.0239
  762MOL0     C  488  13.068   8.393   3.368 -0.9382 -0.2818  0.6513
  762MOL0     C  489  13.158   8.270   3.356  0.3650  0.8814  0.3665
  762MOL0     C  490  13.124   8.175   3.474  0.6521  0.6624 -1.3583
  762MOL0     C  491  13.176   8.225   3.620  0.1506 -0.1453 -0.5734
  762MOL0     C  492  13.331   8.246   3.613  0.3976 -0.8295 -0.0864
  762MOL0     C  493  13.383   8.261   3.757  0.2476 -0.0438 -0.1238
  762MOL0     C  494  13.542   8.257   3.761 -0.2480  0.2570  0.3992
  762MOL0     C  495  13.596   8.280   3.904  0.7427  0.1605  1.0475
  762MOL0    Cl  496  13.566   8.132   4.003  0.1244  0.2096  0.2810
  762MOL0     C  497  12.784   8.428   3.169 -0.0538 -0.5036  0.0909
  762MOL0     C  498  12.713   8.519   3.105  0.1336  0.2274  0.3648
  762MOL0     O  499  12.709   8.939   3.084 -0.3776 -0.7758 -0.3473
  762MOL0     C  500  12.452   9.049   2.989  0.2698  0.0508  0.7127
  762MOL0     C  501  12.324   9.095   2.949 -0.0927  1.0869  0.2348
  762MOL0     N  502  12.052   9.121   2.365 -0.4378 -1.0502  0.0502
  762MOL0     N  503  11.956   9.057   2.306 -0.1819 -0.7867 -0.7541
  762MOL0     C  504  11.335   9.142   2.114 -0.0246  0.9565  0.0055
  762MOL0     C  505  11.311   9.282   2.117 -0.7063  0.5313  0.0261
  762MOL0     C  506  11.084   9.691   1.991  0.6949 -0.5159  0.3859
  762MOL0     C  507  11.092   9.775   2.099 -0.6095 -0.1285  1.0325
  762MOL0     C  508  11.098   9.917   2.094 -0.0089 -0.3975 -0.2123
  762MOL0     C  509  11.094   9.980   1.967 -0.4605 -0.4763 -1.1535
  762MOL0     O  510  11.099  10.115   1.986  0.1899  0.4274  0.2731
  762MOL0     C  511  11.115  10.187   1.862 -0.2483  0.2810  0.3261
  762MOL0     C  512  11.128  10.321   1.912  0.4162  0.2291 -0.7246
  762MOL0     C  513  11.194  10.400   1.791  0.1200  0.2608 -0.2959
  762MOL0     C  514  11.216  10.548   1.821  0.4109 -0.0407  0.4494
  762MOL0     C  515  11.280  10.553   1.955  1.1309  0.3017 -0.1777
  762MOL0     C  516  11.341  10.543   2.060 -0.1325  0.9695 -0.4745
  762MOL0     C  517  11.089   9.902   1.853 -0.2882 -0.3984  0.7333
  762MOL0     C  518  11.074   9.765   1.872  0.7390  0.7689  0.5616
  762MOL0     H  519  10.983   9.289   2.068  0.8827  1.0236 -1.1141
  762MOL0     H  520  11.016   9.035   2.082  0.0909 -0.0581  1.6795
  762MOL0     H  521  11.409   8.908   1.977  0.0351  0.1122 -1.5735
  762MOL0     H  522  11.254   8.864   1.914  1.4907  2.1450 -0.2213
  762MOL0     H  523  11.386   8.674   1.930  1.7098 -0.6638  0.5089
  762MOL0     H  524  11.242   8.649   2.039  0.1683 -2.6554 -3.5245
  762MOL0     H  525  11.528   8.740   2.111  0.3758 -0.5401 -2.0763
  762MOL0     H  526  11.466   8.572   2.143 -0.4828 -0.5650  0.7561
  762MOL0     H  527  11.337   8.778   2.308  1.9000  0.8161  1.1292
  762MOL0     H  528  11.375   8.613   2.324  0.2063  0.3339  0.6090
  762MOL0     H  529  11.613   8.659   2.329  1.9304  3.5956 -3.5411
  762MOL0     H  530  11.529   8.697   2.472  0.4067 -2.1647 -0.3484
  762MOL0     H  531  11.510   8.945   2.403 -0.3111  0.1866 -1.2484
  762MOL0     H  532  11.588   8.915   2.258 -0.3736  2.1847  0.9467
  762MOL0     H  533  11.724   9.008   2.442  3.9879 -0.3346 -1.4448
  762MOL0     H  534  11.715   8.854   2.527 -1.0033  1.6462  0.3517
  762MOL0     H  535  11.796   8.863   2.236  2.1427 -0.5665 -0.0536
  762MOL0     H  536  11.852   8.751   2.363 -4.2023 -2.0927  0.5451
  762MOL0     H  537  12.013   8.874   2.577 -2.0770  0.3190  1.0791
  762MOL0     H  538  12.292   9.116   2.518  0.5805  1.4484  0.5615
  762MOL0     H  539  12.222   9.000   2.632 -0.1984 -0.4154 -0.4686
  762MOL0     H  540  12.142   9.290   2.591 -3.7658  0.9379  1.7454
  762MOL0     H  541  12.254   9.231   2.728  0.1879 -5.3706 -0.0870
  762MOL0     H  542  11.974   9.291   2.745  0.3889  0.7476  1.5875
  762MOL0     H  543  11.974   9.131   2.688  1.1592  1.3793 -1.6267
  762MOL0     H  544  11.954   9.197   2.932  1.0926  3.0118  0.2239
  762MOL0     H  545  12.119   9.234   2.938 -1.0359  0.1430  2.5117
  762MOL0     H  546  12.152   8.807   2.994  1.6661 -2.5343  2.5150
  762MOL0     H  547  12.384   8.727   3.074  3.4774  0.2319  0.9095
  762MOL0     H  548  12.774   8.789   3.303 -1.7936 -0.6098  3.0959
  762MOL0     H  549  12.921   8.621   3.405  3.1161 -4.2337 -0.2291
  762MOL0     H  550  13.086   8.454   3.457  2.0821 -1.7500  1.1834
  762MOL0     H  551  13.117   8.453   3.290 -0.7184 -1.8639 -0.4635
  762MOL0     H  552  13.265   8.288   3.348  0.4285  0.1610 -0.5048
  762MOL0     H  553  13.128   8.216   3.265  1.5121 -0.2223  0.6157
  762MOL0     H  554  13.164   8.074   3.463 -2.0736 -0.7662  0.5639
  762MOL0     H  555  13.015   8.165   3.483  0.8022 -0.6896 -0.7712
  762MOL0     H  556  13.122   8.316   3.645  2.2432  2.0094 -3.2413
  762MOL0     H  557  13.146   8.147   3.691 -3.7323  1.7667  0.1260
  762MOL0     H  558  13.352   8.336   3.554 -0.6420  0.7960  1.8958
  762MOL0     H  559  13.373   8.154   3.570  3.2066  0.1517  0.3858
  762MOL0     H  560  13.330   8.184   3.814 -3.0848  0.6640 -1.9895
  762MOL0     H  561  13.341   8.353   3.798 -0.0459  0.7396 -2.0517
  762MOL0     H  562  13.586   8.164   3.724  3.0126  1.5594  0.6961
  762MOL0     H  563  13.580   8.333   3.692 -2.6752 -1.4505 -3.1721
  762MOL0     H  564  13.556   8.373   3.945 -1.9973 -0.7601  0.7082
  762MOL0     H  565  13.703   8.264   3.888  0.3384 -0.4007 -1.5379
  762MOL0     H  566  12.774   8.324   3.137 -0.3376  0.3006 -2.7029
  762MOL0     H  567  12.649   8.489   3.023  1.6247 -4.3742  0.5801
  762MOL0     H  568  12.531   9.124   2.993  0.3700  0.1525 -1.7532
  762MOL0     H  569  12.309   9.200   2.925 -0.5641  0.9930  0.1097
  762MOL0     H  570  11.436   9.109   2.134 -1.1218 -2.7598  0.0894
  762MOL0     H  571  11.395   9.351   2.122 -0.7437  0.5963 -0.2343
  762MOL0     H  572  11.100   9.735   2.200  3.1498  0.0208  0.9029
  762MOL0     H  573  11.099   9.963   2.192  0.3484 -1.3867  0.2559
  762MOL0     H  574  11.027  10.180   1.796 -1.8433  0.0419  2.3678
  762MOL0     H  575  11.206  10.153   1.811 -1.5852 -0.5305 -1.6751
  762MOL0     H  576  11.024  10.350   1.928 -0.5229 -0.6071 -4.3119
  762MOL0     H  577  11.180  10.336   2.007 -2.3985  3.0982  0.5451
  762MOL0     H  578  11.113  10.405   1.718 -0.5902  0.8746  0.5211
  762MOL0     H  579  11.286  10.352   1.755  0.1741 -1.6015  2.0694
  762MOL0     H  580  11.273  10.595   1.741  3.2711 -2.3939  0.9533
  762MOL0     H  581  11.123  10.604   1.837  1.0480  0.4983  2.6864
  762MOL0     H  582  11.399  10.539   2.150  0.0957 -0.3031 -0.6639
  762MOL0     H  583  11.084   9.947   1.755  2.2096  1.0108  1.1831
  762MOL0     H  584  11.067   9.725   1.772 -1.5886  1.2871  0.4426
  763MOL0     O  585   4.084   7.390  10.767  0.4581 -0.1895  0.4478
  763MOL0     C  586   4.102   7.268  10.742  0.1334  0.3971 -1.5001
  763MOL0     O  587   4.019   7.170  10.784 -0.3539 -0.0490 -0.2848
  763MOL0     C  588   3.905   7.205  10.850  0.4596 -0.9223 -0.1786
  763MOL0     C  589   3.909   7.187  10.987 -0.0233  0.1902  0.3751
  763MOL0     C  590   3.789   7.196  11.063 -0.7042  0.7496  0.7498
  763MOL0     C  591   3.669   7.215  10.992  0.2423 -0.3869  0.0550
  763MOL0     O  592   3.552   7.215  11.065 -0.1725 -0.2636 -0.2415
  763MOL0     C  593   3.463   7.327  11.053  0.5636  0.2613 -0.7194
  763MOL0     C  594   3.385   7.351  11.184 -0.7832 -0.4073  0.0613
  763MOL0     C  595   3.254   7.419  11.167  0.1639 -0.1346 -0.2070
  763MOL0     C  596   3.174   7.441  11.301 -0.4756  0.1387 -0.4060
  763MOL0     C  597   3.255   7.520  11.401 -1.5141 -0.7339 -0.0277
  763MOL0     C  598   3.182   7.560  11.533 -0.2629 -0.1320 -0.5686
  763MOL0     C  599   3.276   7.656  11.621  0.2650 -0.0109  0.4842
  763MOL0     C  600   3.213   7.665  11.764  0.1841  0.9303  0.0660
  763MOL0     N  601   3.245   7.563  11.859  0.5839 -0.4594 -0.1985
  763MOL0     C  602   3.372   7.518  11.877  0.0043 -0.0556 -0.2465
  763MOL0     C  603   3.384   7.460  12.001 -0.8183 -1.1683 -0.5022
  763MOL0     C  604   3.499   7.390  12.069 -0.3867  0.3417 -0.4795
  763MOL0     C  605   3.525   7.248  12.015  0.2555 -0.5788 -0.2617
  763MOL0     C  606   3.586   7.159  12.133  0.0206 -0.5589  0.2814
  763MOL0     C  607   3.738   7.162  12.131 -0.0956  0.4911 -0.8019
  763MOL0     O  608   3.791   7.116  12.014  0.0763 -0.2778  0.1773
  763MOL0     C  609   3.914   7.160  11.966  1.0198  0.9873 -0.1979
  763MOL0     C  610   4.012   7.225  12.041 -0.6485  0.3652 -0.3363
  763MOL0     C  611   4.137   7.260  11.990 -0.8955  0.1713 -0.4788
  763MOL0     C  612   4.166   7.225  11.855 -0.1641  0.0226 -1.2847
  763MOL0     C  613   4.299   7.246  11.806 -0.4980  0.1372  0.8575
  763MOL0     O  614   4.327   7.180  11.688 -0.0344 -0.3467  0.0289
  763MOL0     C  615   4.437   7.199  11.609  0.5983  0.1269  0.0786
  763MOL0     C  616   4.488   7.323  11.567 -0.2580 -0.3147 -0.1649
  763MOL0     C  617   4.590   7.327  11.472 -0.0627  0.6943  0.3348
  763MOL0     C  618   4.632   7.206  11.411  0.0193 -0.4871  1.1321
  763MOL0     O  619   4.739   7.205  11.321 -0.8211  0.6046 -0.7053
  763MOL0     C  620   4.774   7.327  11.257 -0.1144  0.0844  1.0065
  763MOL0     C  621   4.879   7.293  11.146 -0.2484  0.3304 -0.2943
  763MOL0     C  622   5.029   7.315  11.185 -0.8349 -0.7598  0.1836
  763MOL0     C  623   5.075   7.211  11.279 -0.1908 -0.1653 -0.7787
  763MOL0     C  624   5.229   7.204  11.303  0.2705  0.0279 -0.8033
  763MOL0     C  625   5.264   7.088  11.394  0.5543 -0.1403  0.1662
  763MOL0     C  626   5.412   7.094  11.430  0.2554  0.1980 -0.2464
  763MOL0     C  627   5.506   7.108  11.307 -0.4750 -1.0182  0.0720
  763MOL0    Cl  628   5.476   6.980  11.181 -0.6342 -0.1674  0.1404
  763MOL0     C  629   4.589   7.086  11.453 -0.4967 -0.1176  0.1614
  763MOL0     C  630   4.491   7.082  11.561 -0.1526 -0.1349  1.0806
  763MOL0     O  631   4.383   7.308  11.865 -0.6417  0.1303 -0.9019
  763MOL0     C  632   4.072   7.155  11.781 -0.3667 -0.1836 -0.2813
  763MOL0     C  633   3.953   7.112  11.841  0.3213  0.1859 -0.6555
  763MOL0     N  634   3.263   7.484  12.059  0.3376 -0.5862  0.3098
  763MOL0     N  635   3.176   7.538  11.971 -1.0458  0.3648 -0.2783
  763MOL0     C  636   3.666   7.231  10.857 -0.3286 -0.2734 -0.5816
  763MOL0     C  637   3.787   7.230  10.783 -0.2755 -0.2930 -0.4682
  763MOL0     C  638   4.227   7.226  10.681  0.1980 -1.3474  0.6071
  763MOL0     C  639   4.258   7.085  10.669  0.1262 -0.0847  0.0630
  763MOL0     C  640   4.380   7.038  10.612  0.5103  0.0062  0.2278
  763MOL0     C  641   4.473   7.141  10.578 -0.5483  0.2105  0.6436
  763MOL0     O  642   4.587   7.079  10.524 -0.1091  0.0486  0.1639
  763MOL0     C  643   4.710   7.151  10.529 -0.4064 -0.7625 -0.2341
  763MOL0     C  644   4.834   7.069  10.476  0.2590  0.2157  0.5986
  763MOL0     C  645   4.967   7.120  10.519 -1.0111 -0.0780 -0.1836
  763MOL0     C  646   5.054   7.186  10.406  0.2288 -1.1718  0.1754
  763MOL0     C  647   4.998   7.312  10.363  0.7839  0.3844  0.3060
  763MOL0     C  648   4.954   7.420  10.330  0.3750 -0.2576 -0.0086
  763MOL0     C  649   4.442   7.280  10.595 -0.5683 -0.2527  0.8241
  763MOL0     C  650   4.320   7.329  10.641 -0.5038 -0.3441 -0.5155
  763MOL0     H  651   4.002   7.169  11.041 -0.8234 -1.4069  1.2860
  763MOL0     H  652   3.784   7.176  11.169  1.2656 -3.1286  0.2928
  763MOL0     H  653   3.393   7.308  10.971 -0.6405 -1.9604  0.6965
  763MOL0     H  654   3.525   7.415  11.037  2.5430 -0.7377  1.0458
  763MOL0     H  655   3.454   7.388  11.259 -0.1893 -1.0124 -0.1753
  763MOL0     H  656   3.362   7.245  11.203 -2.6754 -0.0851 -0.1688
  763MOL0     H  657   3.190   7.354  11.107 -1.5674 -0.5256  1.9468
  763MOL0     H  658   3.274   7.510  11.109  0.2703 -2.0457 -3.3914
  763MOL0     H  659   3.077   7.489  11.283 -0.7051 -1.0547 -2.7734
  763MOL0     H  660   3.148   7.339  11.332 -2.6555  1.0008  0.8543
  763MOL0     H  661   3.275   7.618  11.356 -0.7789 -1.2905 -0.9634
  763MOL0     H  662   3.343   7.460  11.426  0.4707  2.2606  0.5752
  763MOL0     H  663   3.172   7.469  11.591  2.7201  0.3467  0.8718
  763MOL0     H  664   3.085   7.610  11.526 -2.0809 -3.4042 -0.5641
  763MOL0     H  665   3.379   7.620  11.628  0.5939  0.9194  0.6666
  763MOL0     H  666   3.278   7.757  11.578  1.8146  0.7825  2.2814
  763MOL0     H  667   3.104   7.665  11.764  0.0171 -3.0155 -0.1059
  763MOL0     H  668   3.255   7.756  11.807 -0.5955  0.7141  1.3447
  763MOL0     H  669   3.447   7.499  11.801 -0.3937 -2.4636 -0.1265
  763MOL0     H  670   3.475   7.382  12.175  1.1920  1.6334  0.0111
  763MOL0     H  671   3.591   7.448  12.078 -1.1236  1.1801  3.6319
  763MOL0     H  672   3.582   7.244  11.922  0.1038  2.8225 -0.6448
  763MOL0     H  673   3.426   7.212  11.985  0.5656 -0.4261 -1.5287
  763MOL0     H  674   3.554   7.184  12.235 -0.8382  0.6607 -0.2637
  763MOL0     H  675   3.549   7.060  12.106  1.4081 -1.4398  1.4411
  763MOL0     H  676   3.782   7.108  12.215  0.1965  0.6271 -0.8667
  763MOL0     H  677   3.761   7.268  12.142 -2.6063  1.5943 -4.3011
  763MOL0     H  678   3.997   7.244  12.147  0.5536 -0.6619  0.0395
  763MOL0     H  679   4.220   7.294  12.050 -0.6147 -0.2535 -0.6231
  763MOL0     H  680   4.429   7.409  11.595  0.0300 -0.0748 -0.2803
  763MOL0     H  681   4.626   7.422  11.434 -0.4828  1.5886  2.0470
  763MOL0     H  682   4.825   7.388  11.331 -3.1627  0.8214  2.6739
  763MOL0     H  683   4.693   7.373  11.199  0.6816  0.4571  0.1619
  763MOL0     H  684   4.852   7.347  11.055 -2.2199  0.6228  0.4132
  763MOL0     H  685   4.871   7.187  11.121  2.4522 -0.3073  1.0830
  763MOL0     H  686   5.033   7.406  11.245 -3.2265 -1.7016  1.9638
  763MOL0     H  687   5.097   7.317  11.100 -1.9059  3.1895 -0.7731
  763MOL0     H  688   5.028   7.224  11.377  2.2954 -0.6627  0.5494
  763MOL0     H  689   5.039   7.117  11.236 -3.0534  1.5703 -2.5287
  763MOL0     H  690   5.274   7.298  11.338  1.4541 -0.3427 -1.2747
  763MOL0     H  691   5.277   7.199  11.205  1.5326  2.1867 -0.3649
  763MOL0     H  692   5.251   6.993  11.342 -0.5233 -0.5710  1.1851
  763MOL0     H  693   5.207   7.097  11.487 -0.7256  1.4091 -0.7374
  763MOL0     H  694   5.430   7.182  11.493  3.0974  1.4394 -2.5712
  763MOL0     H  695   5.430   7.000  11.485  1.1581  0.1168 -0.6573
  763MOL0     H  696   5.612   7.098  11.331  0.4387 -1.9802 -3.6950
  763MOL0     H  697   5.502   7.209  11.267  1.7989  0.0058  2.1688
  763MOL0     H  698   4.634   6.992  11.422 -0.0275 -0.9893  3.1572
  763MOL0     H  699   4.442   6.992  11.594 -0.5416 -0.8955 -1.3948
  763MOL0     H  700   4.086   7.116  11.681 -0.9045  0.0709 -0.4628
  763MOL0     H  701   3.886   7.056  11.777 -2.3907  3.0163 -0.5571
  763MOL0     H  702   3.568   7.249  10.813 -0.8526  2.9739  1.5005
  763MOL0     H  703   3.777   7.226  10.675 -1.0074 -2.6214 -0.3777
  763MOL0     H  704   4.182   7.010  10.685 -1.3402  1.7980  2.6211
  763MOL0     H  705   4.391   6.933  10.587  0.7117  0.6618 -2.9747
  763MOL0     H  706   4.736   7.187  10.629  3.4185  1.3635 -1.7595
  763MOL0     H  707   4.705   7.242  10.468  1.3228  0.3091  1.1335
  763MOL0     H  708   4.817   6.969  10.516  1.8456 -1.3318 -2.2850
  763MOL0     H  709   4.828   7.044  10.369 -0.1392 -0.4016  0.7576
  763MOL0     H  710   5.030   7.036  10.550 -0.2970  0.3686 -0.3891
  763MOL0     H  711   4.960   7.192  10.601 -5.3232  1.0882 -1.3259
  763MOL0     H  712   5.150   7.200  10.455  1.6703  0.2650 -2.8013
  763MOL0     H  713   5.082   7.129  10.316  3.6267  0.3018  0.1769
  763MOL0     H  714   4.899   7.512  10.319 -1.3284 -1.2178  0.1573
  763MOL0     H  715   4.524   7.346  10.569  0.2815 -2.0899 -1.5039
  763MOL0     H  716   4.298   7.435  10.652  2.6707  0.3533  0.2354
  764MOL0     O  717   5.138   1.451   3.073  0.2629 -0.2455 -0.1332
  764MOL0     C  718   5.260   1.483   3.062  0.2960  0.3035 -0.2842
  764MOL0     O  719   5.303   1.566   2.973  0.5648 -0.0022 -0.4246
  764MOL0     C  720   5.209   1.634   2.891 -0.0927 -0.4523  0.1707
  764MOL0     C  721   5.260   1.675   2.770  0.4900 -0.0300 -1.2500
  764MOL0     C  722   5.179   1.750   2.679  0.5470  0.1429 -0.1075
  764MOL0     C  723   5.050   1.782   2.703  0.0693  0.4160 -0.6997
  764MOL0     O  724   4.960   1.859   2.628 -0.6915  0.4700  0.1783
  764MOL0     C  725   5.007   1.953   2.529 -0.4312  0.1381 -0.3094
  764MOL0     C  726   4.974   2.098   2.574 -0.4890  0.2102 -0.2840
  764MOL0     C  727   4.823   2.110   2.573 -0.0792  1.3489 -0.4791
  764MOL0     C  728   4.761   2.098   2.717  0.1223  0.5262 -0.8735
  764MOL0     C  729   4.814   2.207   2.810  1.0332  0.0158  0.0420
  764MOL0     C  730   4.882   2.155   2.934  0.5203 -0.8398  0.2141
  764MOL0     C  731   4.942   2.260   3.035  1.0493  0.7063 -0.6596
  764MOL0     C  732   4.934   2.198   3.174 -0.5733  0.2524 -0.4764
  764MOL0     N  733   4.977   2.054   3.201  0.3131  0.6813  0.1116
  764MOL0     C  734   4.903   1.948   3.252 -0.7040 -0.7550  0.3097
  764MOL0     C  735   4.991   1.845   3.281  0.1096 -0.1439 -0.4383
  764MOL0     C  736   4.955   1.715   3.351 -0.7687  0.3924  0.6397
  764MOL0     C  737   5.077   1.646   3.398 -0.0758  0.2617  1.1594
  764MOL0     C  738   5.051   1.540   3.501  0.2832  0.3577 -1.2000
  764MOL0     C  739   5.164   1.455   3.541  0.4123  0.4610 -0.3254
  764MOL0     O  740   5.133   1.360   3.645  0.7343 -0.1634  0.1854
  764MOL0     C  741   5.228   1.264   3.681  0.6064  0.7749  0.0334
  764MOL0     C  742   5.200   1.184   3.788  0.2744  0.2689  0.3706
  764MOL0     C  743   5.300   1.102   3.849  0.5874 -0.0560  0.8983
  764MOL0     C  744   5.430   1.106   3.793 -0.3022  0.2360  0.5690
  764MOL0     C  745   5.540   1.025   3.860  0.0606 -0.3153  0.3612
  764MOL0     O  746   5.659   1.032   3.791  0.7904 -0.2072 -0.8778
  764MOL0     C  747   5.767   0.980   3.856  0.1399 -0.4638  0.5743
  764MOL0     C  748   5.805   0.847   3.835 -0.2806 -0.1827 -0.7831
  764MOL0     C  749   5.914   0.796   3.906  0.1790  0.6213 -0.9316
  764MOL0     C  750   5.984   0.876   3.991 -0.3451 -0.0688 -0.3589
  764MOL0     O  751   6.093   0.823   4.053 -0.2647 -0.3853 -0.0964
  764MOL0     C  752   6.117   0.847   4.192  0.6495  0.6560  0.7490
  764MOL0     C  753   6.122   0.723   4.281 -0.3381  0.6048  1.0360
  764MOL0     C  754   6.267   0.652   4.256  0.4590  0.7384  0.6055
  764MOL0     C  755   6.314   0.569   4.379  0.7362 -0.1364 -0.6602
  764MOL0     C  756   6.454   0.508   4.358  0.3281 -0.1210  0.3402
  764MOL0     C  757   6.502   0.469   4.500  0.4205 -0.7618 -0.0978
  764MOL0     C  758   6.614   0.364   4.504 -0.2338 -0.2618 -0.4105
  764MOL0     C  759   6.586   0.226   4.453  0.1998  0.1774 -0.2149
  764MOL0    Cl  760   6.682   0.192   4.315  0.1282 -0.0072  0.6934
  764MOL0     C  761   5.951   1.010   4.005  1.1555  0.7816  0.0455
  764MOL0     C  762   5.841   1.057   3.942 -0.0655 -0.2290 -0.0965
  764MOL0     O  763   5.532   0.987   3.977 -0.5202 -0.3055 -0.4480
  764MOL0     C  764   5.459   1.196   3.679  1.2581  0.2043  0.6752
  764MOL0     C  765   5.356   1.270   3.627 -1.0599 -0.4056 -0.2042
  764MOL0     N  766   5.116   1.890   3.239 -0.3512  0.3291 -0.4360
  764MOL0     N  767   5.109   2.012   3.199  0.4234  0.3800  0.0866
  764MOL0     C  768   5.003   1.754   2.832  0.7525 -0.5164  0.3812
  764MOL0     C  769   5.080   1.679   2.922  0.8099 -1.0280 -0.2517
  764MOL0     C  770   5.355   1.419   3.159 -0.9207 -0.2151 -0.5393
  764MOL0     C  771   5.491   1.452   3.157 -0.9367  1.4559  1.2019
  764MOL0     C  772   5.584   1.382   3.230  0.7050  1.5254 -0.6736
  764MOL0     C  773   5.544   1.265   3.310  0.1993  0.2866  0.2196
  764MOL0     O  774   5.630   1.198   3.389 -0.1674 -0.1063  0.1829
  764MOL0     C  775   5.768   1.228   3.383  0.1737  0.5288  0.7725
  764MOL0     C  776   5.812   1.104   3.461 -0.1069  0.1106  0.4547
  764MOL0     C  777   5.963   1.089   3.456  0.0525  0.4984  0.6931
  764MOL0     C  778   6.017   0.959   3.527  0.1084  0.4153  0.3227
  764MOL0     C  779   6.159   0.953   3.495  0.3793 -0.3556 -0.3747
  764MOL0     C  780   6.274   0.935   3.462  0.0277 -0.7653  0.3207
  764MOL0     C  781   5.412   1.237   3.325  0.0948  0.6884  0.2971
  764MOL0     C  782   5.320   1.314   3.245  0.1149 -0.9877  0.2290
  764MOL0     H  783   5.361   1.646   2.744  0.6366  0.0026 -0.7267
  764MOL0     H  784   5.211   1.792   2.584 -3.9809  0.8306 -1.5712
  764MOL0     H  785   4.971   1.947   2.426  1.4300 -2.4250 -0.9264
  764MOL0     H  786   5.115   1.954   2.513 -0.4989  2.8621 -1.0682
  764MOL0     H  787   5.003   2.168   2.495 -0.7722 -0.3890 -0.9339
  764MOL0     H  788   5.014   2.126   2.672 -0.0717  2.9377 -1.1488
  764MOL0     H  789   4.793   2.027   2.509  1.1820  0.0559  0.5325
  764MOL0     H  790   4.786   2.198   2.520  2.5393  1.4858 -2.2997
  764MOL0     H  791   4.656   2.106   2.689  0.0286 -0.5588 -0.8777
  764MOL0     H  792   4.777   1.998   2.757 -0.7241  1.8380  3.1887
  764MOL0     H  793   4.727   2.264   2.845  1.2515 -0.2239  1.0212
  764MOL0     H  794   4.871   2.285   2.759  0.3258  1.5615  1.5311
  764MOL0     H  795   4.976   2.105   2.909  0.7034 -0.9034  1.0016
  764MOL0     H  796   4.827   2.076   2.985  0.0153  1.0631  2.8470
  764MOL0     H  797   5.040   2.297   3.003 -0.1820  3.2220 -1.8530
  764MOL0     H  798   4.887   2.355   3.031 -1.4961 -0.6208  0.7426
  764MOL0     H  799   4.828   2.208   3.199 -0.3903  2.3426 -0.3439
  764MOL0     H  800   4.990   2.259   3.245 -0.4453  1.2479 -1.4052
  764MOL0     H  801   4.797   1.939   3.272 -2.0303  1.7776 -4.1631
  764MOL0     H  802   4.888   1.654   3.290 -1.4491 -0.1628  1.9052
  764MOL0     H  803   4.892   1.749   3.433 -0.2092  4.2509 -0.3453
  764MOL0     H  804   5.142   1.721   3.443 -1.4103 -1.1054  5.9171
  764MOL0     H  805   5.130   1.592   3.318 -0.5915  1.0810  0.2447
  764MOL0     H  806   5.017   1.602   3.585 -0.2376 -1.2503 -0.1794
  764MOL0     H  807   4.967   1.473   3.479  2.4783 -2.8622 -0.5060
  764MOL0     H  808   5.240   1.528   3.568 -1.0281  4.1756 -4.9601
  764MOL0     H  809   5.186   1.396   3.452  0.0667  1.7871 -1.3143
  764MOL0     H  810   5.093   1.185   3.810 -0.4878  1.5099 -2.8723
  764MOL0     H  811   5.282   1.035   3.933 -0.1473 -2.6202 -1.1479
  764MOL0     H  812   5.751   0.778   3.771 -0.2961  1.5927 -2.7773
  764MOL0     H  813   5.948   0.693   3.903  0.8122  0.6235  2.2881
  764MOL0     H  814   6.037   0.914   4.227 -0.6262  0.8377 -2.2052
  764MOL0     H  815   6.211   0.901   4.211  1.1985  0.8523 -2.0332
  764MOL0     H  816   6.032   0.664   4.265 -1.4629  2.3372  0.6862
  764MOL0     H  817   6.106   0.761   4.382  3.1911  1.1025  1.5475
  764MOL0     H  818   6.345   0.727   4.244  2.0248 -0.5721  2.0253
  764MOL0     H  819   6.268   0.599   4.161 -2.0447 -0.0361  0.9419
  764MOL0     H  820   6.309   0.631   4.469 -2.6505 -2.6747  1.1154
  764MOL0     H  821   6.244   0.486   4.390  0.0903  0.5319  0.4970
  764MOL0     H  822   6.518   0.588   4.321  0.9654 -1.2316 -1.0518
  764MOL0     H  823   6.456   0.428   4.283  2.4737  0.2107 -0.0098
  764MOL0     H  824   6.416   0.420   4.546 -0.5426  1.2318  0.3118
  764MOL0     H  825   6.520   0.560   4.557 -0.7296  2.5213 -4.4349
  764MOL0     H  826   6.697   0.407   4.448  0.1172 -1.8695 -1.1884
  764MOL0     H  827   6.652   0.342   4.604 -1.7824 -2.3916 -0.2079
  764MOL0     H  828   6.481   0.219   4.424  0.7089 -0.7328 -1.9348
  764MOL0     H  829   6.604   0.156   4.536 -0.3179  1.1000  0.7090
  764MOL0     H  830   5.993   1.085   4.071  1.8303  2.2594 -1.9640
  764MOL0     H  831   5.815   1.160   3.966 -1.0259  0.1738 -2.5908
  764MOL0     H  832   5.559   1.204   3.638  0.8519  0.6586 -0.2738
  764MOL0     H  833   5.383   1.346   3.555 -0.9328  0.9074  1.1694
  764MOL0     H  834   4.904   1.789   2.859 -0.9624 -1.2988 -4.0231
  764MOL0     H  835   5.040   1.665   3.022 -0.1201  0.3135 -0.4075
  764MOL0     H  836   5.536   1.534   3.101  1.4669 -0.1339  0.6832
  764MOL0     H  837   5.687   1.415   3.226  1.2174  0.2708  0.7932
  764MOL0     H  838   5.794   1.318   3.440 -0.9136  0.1579  1.9125
  764MOL0     H  839   5.797   1.229   3.278 -2.9909  3.5349 -0.2455
  764MOL0     H  840   5.776   1.111   3.563 -0.4203  1.1829  0.2796
  764MOL0     H  841   5.763   1.018   3.413 -0.3343  0.7947 -0.5765
  764MOL0     H  842   6.020   1.173   3.497  1.0428  0.9495 -1.4858
  764MOL0     H  843   6.001   1.088   3.353 -1.1935 -1.4916  0.2015
  764MOL0     H  844   5.995   0.968   3.634 -1.0538 -0.8578  0.2235
  764MOL0     H  845   5.971   0.870   3.483 -0.2682  0.3803  0.7747
  764MOL0     H  846   6.373   0.900   3.442 -0.0587 -1.2246  0.6625
  764MOL0     H  847   5.372   1.154   3.383 -0.9994  0.7277 -0.3766
  764MOL0     H  848   5.218   1.276   3.241  0.2451 -1.2806 -0.3578
  765MOL0     O  849   9.586   0.386  10.334 -0.0717 -0.2355 -0.5922
  765MOL0     C  850   9.544   0.383  10.218  0.1329  0.2074  0.9507
  765MOL0     O  851   9.617   0.365  10.114 -0.0952  0.3302  0.0037
  765MOL0     C  852   9.756   0.379  10.111  0.6877  0.0003 -0.0546
  765MOL0     C  853   9.814   0.465  10.203 -0.0832 -0.8795 -0.1231
  765MOL0     C  854   9.954   0.483  10.205  1.0505  0.0134 -0.4734
  765MOL0     C  855  10.043   0.413  10.124 -0.2612 -1.0817 -0.1668
  765MOL0     O  856  10.177   0.424  10.113  0.3533  0.4328 -0.2087
  765MOL0     C  857  10.247   0.463  10.228 -0.1630 -0.0266 -0.4756
  765MOL0     C  858  10.351   0.360  10.259 -0.1991  1.1935 -0.3197
  765MOL0     C  859  10.278   0.226  10.284  1.0190 -0.3391  0.3657
  765MOL0     C  860  10.390   0.140  10.335  0.1191  1.4603 -0.4799
  765MOL0     C  861  10.460   0.161  10.477  0.1827  0.9117 -0.1261
  765MOL0     C  862  10.434   0.034  10.556 -0.6729 -0.3294  0.5076
  765MOL0     C  863  10.286   0.024  10.584 -0.9558  0.7637  0.0721
  765MOL0     C  864  10.226   0.142  10.664 -0.3944 -0.0624 -0.3271
  765MOL0     N  865  10.083   0.139  10.681  0.3590  0.0362 -0.0336
  765MOL0     C  866   9.991   0.050  10.646  0.6075  0.1094 -1.3270
  765MOL0     C  867   9.879   0.073  10.710  1.0461 -0.5908 -0.0747
  765MOL0     C  868   9.752  -0.002  10.700 -0.2216  0.0547 -0.2213
  765MOL0     C  869   9.637   0.084  10.631  0.1659 -0.9994  0.2049
  765MOL0     C  870   9.621   0.051  10.488  0.3104 -0.3041  0.9402
  765MOL0     C  871   9.747   0.067  10.404  0.2512 -0.9263 -0.0135
  765MOL0     O  872   9.810  -0.061  10.402 -0.4901  0.5769 -0.8663
  765MOL0     C  873   9.914  -0.083  10.312 -0.1861 -0.2529  0.4970
  765MOL0     C  874   9.979  -0.210  10.316  0.1237  0.2298  0.5006
  765MOL0     C  875  10.092  -0.227  10.242 -0.4121  0.6675  0.2297
  765MOL0     C  876  10.146  -0.132  10.161  0.6308 -0.2762 -0.4991
  765MOL0     C  877  10.271  -0.148  10.083 -0.0885 -0.5333 -0.0676
  765MOL0     O  878  10.329  -0.031  10.051  0.1997  0.1879  0.0570
  765MOL0     C  879  10.445  -0.024   9.976  1.0957  0.4034 -0.8186
  765MOL0     C  880  10.461   0.065   9.870  0.6112  0.2598  0.1808
  765MOL0     C  881  10.574   0.061   9.785 -0.5718 -0.2587 -1.2127
  765MOL0     C  882  10.669  -0.039   9.809  0.3431 -0.5588  0.8492
  765MOL0     O  883  10.776  -0.039   9.726  0.3289  0.5556  0.6716
  765MOL0     C  884  10.853  -0.158   9.713  0.2650 -0.0854 -0.2469
  765MOL0     C  885  10.775  -0.258   9.618  0.4144  0.2089 -1.0759
  765MOL0     C  886  10.717  -0.212   9.485  0.7899 -0.6272  0.4202
  765MOL0     C  887  10.813  -0.132   9.397  0.6986 -0.7968 -0.0271
  765MOL0     C  888  10.782  -0.134   9.250  1.0861  0.0118  0.3290
  765MOL0     C  889  10.816  -0.265   9.167 -0.2864 -0.1862 -0.1598
  765MOL0     C  890  10.797  -0.247   9.016  1.3450  0.5041  1.2968
  765MOL0     C  891  10.647  -0.217   8.974  0.4815 -0.1930 -0.0163
  765MOL0    Cl  892  10.593  -0.301   8.824 -0.2719 -0.1114 -0.0752
  765MOL0     C  893  10.651  -0.130   9.920 -0.3318 -1.1374  0.4697
  765MOL0     C  894  10.548  -0.110  10.006  0.3797  0.2700 -0.2043
  765MOL0     O  895  10.308  -0.260  10.049 -0.1484 -0.1512  0.6284
  765MOL0     C  896  10.075  -0.011  10.143  0.4540  0.2320  0.1934
  765MOL0     C  897   9.958   0.010  10.213  0.3119 -0.0266 -0.2919
  765MOL0     N  898   9.897   0.184  10.786 -0.6120 -0.2900 -0.4363
  765MOL0     N  899  10.020   0.223  10.772 -0.6837  0.5244  0.1215
  765MOL0     C  900   9.979   0.332  10.027 -0.4566  0.3272 -0.3280
  765MOL0     C  901   9.845   0.311  10.021 -0.2343  0.1240 -0.9687
  765MOL0     C  902   9.403   0.385  10.197  0.3098 -0.1705  0.4885
  765MOL0     C  903   9.341   0.415  10.071  0.4346  0.3521  0.8300
  765MOL0     C  904   9.202   0.444  10.064 -0.7508  0.0088  0.4706
  765MOL0     C  905   9.133   0.416  10.182  0.6775  0.7375  0.0157
  765MOL0     O  906   9.002   0.440  10.183 -0.2348  0.3870 -0.5118
  765MOL0     C  907   8.956   0.552  10.256  0.1606  0.0507 -0.6626
  765MOL0     C  908   8.861   0.508  10.365  0.2392 -0.4242  0.0501
  765MOL0     C  909   8.794   0.632  10.439 -0.2005  0.6519 -0.2697
  765MOL0     C  910   8.655   0.671  10.392 -0.0951  1.5412  0.2986
  765MOL0     C  911   8.553   0.562  10.423  0.0814  0.2090 -0.5502
  765MOL0     C  912   8.457   0.495  10.425  0.3054 -0.2871 -0.1380
  765MOL0     C  913   9.189   0.381  10.304 -0.1552  0.5806 -0.1070
  765MOL0     C  914   9.327   0.359  10.308  0.3159  0.2066  0.5755
  765MOL0     H  915   9.760   0.517  10.282 -0.9808  0.1663 -1.3966
  765MOL0     H  916   9.994   0.567  10.261 -0.1432 -0.1983  0.7443
  765MOL0     H  917  10.184   0.494  10.311 -1.4738 -3.7010  0.0920
  765MOL0     H  918  10.289   0.562  10.206 -2.2363  0.7915 -0.9084
  765MOL0     H  919  10.406   0.398  10.346 -3.6664  1.8436  1.7836
  765MOL0     H  920  10.430   0.356  10.184  0.7557  1.0682  0.6598
  765MOL0     H  921  10.228   0.184  10.196 -0.2590 -0.5551  1.1680
  765MOL0     H  922  10.208   0.231  10.368  0.3390 -2.6877  0.0063
  765MOL0     H  923  10.355   0.038  10.320  0.9170  1.1008  0.0505
  765MOL0     H  924  10.481   0.144  10.274  1.0313  0.6944  0.7673
  765MOL0     H  925  10.430   0.251  10.531 -1.3278 -0.1775  0.9602
  765MOL0     H  926  10.563   0.198  10.471 -0.1145  2.3776  2.4492
  765MOL0     H  927  10.488   0.038  10.651  2.7875 -1.6940 -1.1938
  765MOL0     H  928  10.474  -0.053  10.503 -1.5050  0.8305 -2.1716
  765MOL0     H  929  10.222   0.001  10.498 -1.6241  1.9782  0.2178
  765MOL0     H  930  10.283  -0.068  10.642 -3.1102 -0.2590 -1.5317
  765MOL0     H  931  10.247   0.237  10.614 -2.2022 -0.7230 -2.5341
  765MOL0     H  932  10.256   0.141  10.769  0.8721 -0.0489 -0.6697
  765MOL0     H  933  10.008  -0.018  10.563  0.0692  0.1167 -1.4518
  765MOL0     H  934   9.707  -0.029  10.796 -1.0002  0.2853 -0.5053
  765MOL0     H  935   9.757  -0.099  10.650 -1.7289  0.5051 -1.3494
  765MOL0     H  936   9.646   0.193  10.635  0.0465 -0.8717 -1.8594
  765MOL0     H  937   9.547   0.054  10.685  0.0008 -4.3535 -1.6101
  765MOL0     H  938   9.597  -0.056  10.489 -0.5056 -0.2170 -1.5351
  765MOL0     H  939   9.538   0.104  10.441  1.1381  1.6614  1.5741
  765MOL0     H  940   9.803   0.151  10.445 -2.0210  2.9542 -4.0165
  765MOL0     H  941   9.711   0.099  10.306 -0.3813 -2.0134 -0.1523
  765MOL0     H  942   9.957  -0.281  10.395  1.2336  0.1404  0.7492
  765MOL0     H  943  10.130  -0.326  10.267 -0.7986  0.5550  0.3900
  765MOL0     H  944  10.379   0.131   9.846  0.1431 -0.6227 -0.7174
  765MOL0     H  945  10.589   0.145   9.718 -0.8652  0.7143 -0.1036
  765MOL0     H  946  10.879  -0.205   9.808  0.3605 -5.3516 -2.5156
  765MOL0     H  947  10.951  -0.141   9.668 -0.2660  0.9411 -1.0817
  765MOL0     H  948  10.693  -0.299   9.678 -0.5853  2.2382 -0.9357
  765MOL0     H  949  10.848  -0.336   9.598  0.8337  0.8599 -2.1512
  765MOL0     H  950  10.630  -0.149   9.504  0.8788 -0.6800  1.0325
  765MOL0     H  951  10.684  -0.297   9.425 -0.1447  0.7350 -1.0723
  765MOL0     H  952  10.817  -0.029   9.432  1.7227 -1.9215  3.6805
  765MOL0     H  953  10.914  -0.170   9.414  0.9203  0.7216  2.4430
  765MOL0     H  954  10.833  -0.050   9.204 -0.7406  0.7072 -0.5130
  765MOL0     H  955  10.677  -0.107   9.238  1.0129 -1.4018 -3.4537
  765MOL0     H  956  10.765  -0.356   9.198 -1.0749  0.0686 -0.6844
  765MOL0     H  957  10.922  -0.286   9.184 -0.0803 -0.4719 -1.7015
  765MOL0     H  958  10.864  -0.172   8.972  0.9986 -0.9825 -2.1385
  765MOL0     H  959  10.809  -0.351   8.982 -3.9163  0.0804 -0.1111
  765MOL0     H  960  10.629  -0.110   8.959  0.4057 -0.3688 -1.3484
  765MOL0     H  961  10.585  -0.247   9.058  2.2798 -0.9360  1.1180
  765MOL0     H  962  10.715  -0.212   9.952 -1.1578 -0.3054  4.8180
  765MOL0     H  963  10.537  -0.170  10.096  0.4025  1.1065  0.3720
  765MOL0     H  964  10.105   0.062  10.068 -0.9550  1.9932  1.2498
  765MOL0     H  965   9.920   0.111  10.199  0.5365 -0.0031 -0.7513
  765MOL0     H  966  10.037   0.280   9.952 -0.6592  3.8166 -3.1416
  765MOL0     H  967   9.810   0.231   9.956 -2.0780  0.3358 -0.3033
  765MOL0     H  968   9.397   0.441   9.982 -0.6530 -0.3378 -0.0737
  765MOL0     H  969   9.153   0.467   9.969 -1.2486 -3.8917 -0.3993
  765MOL0     H  970   8.891   0.603  10.184  0.2833  1.4555  0.1864
  765MOL0     H  971   9.038   0.613  10.293  0.8566 -0.2268 -1.6935
  765MOL0     H  972   8.794   0.429  10.329 -0.2224 -0.2562  0.5280
  765MOL0     H  973   8.917   0.443  10.433 -3.1974 -1.6970  1.9409
  765MOL0     H  974   8.852   0.722  10.417 -1.1299  1.5982  0.9987
  765MOL0     H  975   8.800   0.623  10.548  2.0990  3.7892  0.0028
  765MOL0     H  976   8.637   0.764  10.447 -2.3789  1.5144 -0.3063
  765MOL0     H  977   8.659   0.681  10.283  1.9826 -2.3358 -0.1448
  765MOL0     H  978   8.386   0.416  10.428  1.8596 -1.7094  0.7370
  765MOL0     H  979   9.134   0.353  10.393  3.7153 -2.8311  1.5655
  765MOL0     H  980   9.368   0.314  10.398  0.1756 -1.0553  0.0333
  766MOL0     O  981   6.746   9.800   0.450  0.1393  0.0565  0.2657
  766MOL0     C  982   6.726   9.848   0.338 -0.8770 -0.4977 -0.2234
  766MOL0     O  983   6.612   9.912   0.294 -0.6235  0.1196  0.5921
  766MOL0     C  984   6.510   9.949   0.380  0.3075 -0.5292  0.8188
  766MOL0     C  985   6.453  10.078   0.374  0.2517 -0.2049 -0.1896
  766MOL0     C  986   6.361  10.128   0.459  0.1948  0.2961 -0.4014
  766MOL0     C  987   6.299  10.045   0.546  0.4077  0.2054 -0.3575
  766MOL0     O  988   6.175  10.094   0.612  0.2442  0.8696  0.0124
  766MOL0     C  989   6.150  10.037   0.740  0.0287  0.5323  0.2514
  766MOL0     C  990   6.022   9.952   0.749 -0.2697 -0.1437  1.0258
  766MOL0     C  991   5.998   9.857   0.633  0.2665 -0.5676 -0.1507
  766MOL0     C  992   5.886   9.757   0.673  0.3249  0.5827  0.4295
  766MOL0     C  993   5.853   9.664   0.554 -0.1323 -0.5560  0.0684
  766MOL0     C  994   5.760   9.551   0.599  1.0253 -0.8860 -0.7650
  766MOL0     C  995   5.743   9.457   0.480 -0.2101  0.9568  0.1125
  766MOL0     C  996   5.680   9.320   0.520 -0.6167 -0.3042 -0.7126
  766MOL0     N  997   5.537   9.342   0.575  0.0194  0.0846 -0.7388
  766MOL0     C  998   5.428   9.379   0.500 -0.5375  0.3135  0.0567
  766MOL0     C  999   5.327   9.403   0.591  0.4085  1.2544  0.4925
  766MOL0     C 1000   5.176   9.421   0.559  0.3815 -0.1110 -0.0264
  766MOL0     C 1001   5.134   9.523   0.443 -0.1928  0.1735  0.0927
  766MOL0     C 1002   4.988   9.505   0.405  0.3271  0.5496 -0.0406
  766MOL0     C 1003   4.953   9.605   0.288 -0.1798 -0.2696 -0.6717
  766MOL0     O 1004   4.839   9.568   0.213  0.3151 -1.0360  0.1071
  766MOL0     C 1005   4.707   9.590   0.244 -1.1246  0.0304 -0.1643
  766MOL0     C 1006   4.657   9.669   0.342  0.3308 -1.1109 -0.5970
  766MOL0     C 1007   4.521   9.686   0.376  0.7518 -0.3835  0.2580
  766MOL0     C 1008   4.433   9.622   0.289  0.2600  0.3669 -0.0865
  766MOL0     C 1009   4.283   9.652   0.302 -0.0970  0.2951  0.4305
  766MOL0     O 1010   4.193   9.580   0.217  0.2642  0.9652  0.4664
  766MOL0     C 1011   4.068   9.639   0.209 -0.0874  0.1729 -0.5298
  766MOL0     C 1012   3.979   9.623   0.311  1.4085 -0.0115  0.2977
  766MOL0     C 1013   3.850   9.673   0.292 -0.0189  0.2504  0.3807
  766MOL0     C 1014   3.805   9.725   0.177 -0.6684  0.1643 -0.2664
  766MOL0     O 1015   3.674   9.769   0.185  0.6862 -0.4774  0.0531
  766MOL0     C 1016   3.627   9.847   0.082 -0.7906 -0.2321  0.8526
  766MOL0     C 1017   3.482   9.887   0.083  1.2878  0.3188 -1.3194
  766MOL0     C 1018   3.438   9.977   0.207 -0.1423 -0.1388  0.4729
  766MOL0     C 1019   3.298  10.040   0.176  0.0656  0.6384  1.2049
  766MOL0     C 1020   3.302  10.149   0.062  0.1684 -0.1406 -0.3817
  766MOL0     C 1021   3.166  10.220   0.068  0.6773  0.5065 -0.6643
  766MOL0     C 1022   3.167  10.350  -0.019  0.0442  0.1203  0.5236
  766MOL0     C 1023   3.200  10.317  -0.166 -0.3666 -0.9461  0.1899
  766MOL0    Cl 1024   3.191  10.464  -0.276 -0.0069  0.2438  0.0578
  766MOL0     C 1025   3.894   9.728   0.070 -0.4799  0.4898 -0.4775
  766MOL0     C 1026   4.028   9.695   0.090  0.4285  0.1350 -0.4475
  766MOL0     O 1027   4.245   9.733   0.391  0.3183 -0.2539  0.2416
  766MOL0     C 1028   4.477   9.537   0.190 -0.4825  0.9436 -0.7551
  766MOL0     C 1029   4.616   9.516   0.176 -0.0859 -1.0330  0.0573
  766MOL0     N 1030   5.375   9.384   0.714 -0.7826 -0.1560 -0.3022
  766MOL0     N 1031   5.501   9.363   0.705 -0.7207 -0.4931  0.5535
  766MOL0     C 1032   6.342   9.910   0.552  0.1234 -0.1361  0.2830
  766MOL0     C 1033   6.448   9.862   0.467 -0.0770 -0.4327  0.0513
  766MOL0     C 1034   6.828   9.807   0.238 -0.0140  0.2753 -0.0563
  766MOL0     C 1035   6.851   9.877   0.125 -0.4575  0.4263  0.8657
  766MOL0     C 1036   6.937   9.834   0.025 -0.3602 -0.1114  0.3880
  766MOL0     C 1037   7.020   9.719   0.040  0.2542 -0.2750 -0.3252
  766MOL0     O 1038   7.119   9.675  -0.045  0.0785  1.0593 -0.4514
  766MOL0     C 1039   7.140   9.726  -0.174  0.0073 -0.6817 -0.4703
  766MOL0     C 1040   7.044   9.673  -0.288  0.7999 -0.2388 -0.1454
  766MOL0     C 1041   7.013   9.778  -0.403 -0.1046  0.6155  0.0536
  766MOL0     C 1042   7.131   9.838  -0.467  0.9026 -0.9530 -0.7203
  766MOL0     C 1043   7.234   9.741  -0.522 -0.4662  0.7645  0.0758
  766MOL0     C 1044   7.301   9.658  -0.573 -0.3089 -0.0047  0.1370
  766MOL0     C 1045   7.007   9.657   0.163  0.3555 -0.1377 -0.1495
  766MOL0     C 1046   6.912   9.695   0.257  0.6265 -0.2914 -0.1838
  766MOL0     H 1047   6.500  10.144   0.302 -0.2963 -0.5484 -0.8746
  766MOL0     H 1048   6.331  10.230   0.441  0.0006  0.4121  0.5446
  766MOL0     H 1049   6.143  10.119   0.812  1.3243 -0.7883  1.9629
  766MOL0     H 1050   6.233   9.975   0.776  1.2574 -0.1117 -3.3065
  766MOL0     H 1051   5.934  10.016   0.757  0.1984  0.4319  1.8019
  766MOL0     H 1052   6.027   9.886   0.836 -1.5480  0.7484  1.8265
  766MOL0     H 1053   6.084   9.794   0.610 -0.2598 -1.5670  0.5597
  766MOL0     H 1054   5.963   9.928   0.556 -1.1875  1.9781  2.6236
  766MOL0     H 1055   5.916   9.704   0.764 -0.1687  1.0268  0.8531
  766MOL0     H 1056   5.799   9.816   0.703  2.3860  2.9271  2.1633
  766MOL0     H 1057   5.949   9.623   0.522  0.5743 -0.1660  1.5951
  766MOL0     H 1058   5.820   9.727   0.471  4.0859 -0.4670 -1.7953
  766MOL0     H 1059   5.660   9.586   0.623  0.9316 -1.7427  0.1658
  766MOL0     H 1060   5.803   9.487   0.677  0.6972 -0.7945 -0.5079
  766MOL0     H 1061   5.688   9.499   0.396  3.0172  0.2791 -2.5602
  766MOL0     H 1062   5.844   9.435   0.444  0.6890 -1.2440  3.4196
  766MOL0     H 1063   5.747   9.289   0.600 -1.3700 -1.6777 -0.5673
  766MOL0     H 1064   5.701   9.246   0.442  0.8364  0.8733 -1.4813
  766MOL0     H 1065   5.417   9.379   0.392  0.2309  1.3096 -0.0319
  766MOL0     H 1066   5.122   9.452   0.649 -1.7536 -1.6002 -0.7250
  766MOL0     H 1067   5.124   9.327   0.538  0.3594 -0.9623  3.3060
  766MOL0     H 1068   5.183   9.499   0.348 -0.3574 -0.9122  0.2715
  766MOL0     H 1069   5.166   9.626   0.464  0.3313  0.2029 -0.7936
  766MOL0     H 1070   4.964   9.400   0.383 -2.5337  0.2266  3.6344
  766MOL0     H 1071   4.918   9.527   0.486  1.1819 -0.8622  1.1421
  766MOL0     H 1072   5.036   9.619   0.218 -0.9727 -0.9232 -1.7869
  766MOL0     H 1073   4.942   9.702   0.339 -0.3109 -0.7323  0.1857
  766MOL0     H 1074   4.724   9.693   0.424  1.1536 -2.6713 -0.7700
  766MOL0     H 1075   4.482   9.727   0.469 -0.8828 -0.6302 -0.2856
  766MOL0     H 1076   4.009   9.578   0.404  1.4676 -0.4480  0.0687
  766MOL0     H 1077   3.796   9.678   0.386 -1.2115 -2.1459 -0.0997
  766MOL0     H 1078   3.641   9.781  -0.004 -1.0599  0.1062  0.5467
  766MOL0     H 1079   3.688   9.935   0.056 -1.5465 -0.1925 -0.9239
  766MOL0     H 1080   3.414   9.802   0.083  2.0289 -0.2914 -1.0910
  766MOL0     H 1081   3.472   9.925  -0.019 -0.6255 -1.9013 -2.0452
  766MOL0     H 1082   3.517  10.053   0.217 -0.3870  0.1717  0.0642
  766MOL0     H 1083   3.431   9.916   0.298  0.5755 -0.0428  0.5993
  766MOL0     H 1084   3.223   9.966   0.147  2.2940 -1.0968 -0.5090
  766MOL0     H 1085   3.265  10.081   0.272 -0.2369  1.8906  0.5936
  766MOL0     H 1086   3.323  10.090  -0.028  0.5011 -0.8966  0.1808
  766MOL0     H 1087   3.384  10.221   0.055  0.8490 -1.0106 -1.8698
  766MOL0     H 1088   3.138  10.254   0.168 -1.2075 -0.4131 -0.8376
  766MOL0     H 1089   3.088  10.154   0.029  0.6932  0.5608 -0.7908
  766MOL0     H 1090   3.065  10.388  -0.006 -0.8318 -1.7130 -0.4551
  766MOL0     H 1091   3.240  10.421   0.019  2.0758 -0.5426 -1.8799
  766MOL0     H 1092   3.127  10.241  -0.198 -1.2522 -0.6273  1.3925
  766MOL0     H 1093   3.303  10.280  -0.173  1.0795  2.5277  1.3744
  766MOL0     H 1094   3.849   9.756  -0.025 -1.7689  2.1343  0.5484
  766MOL0     H 1095   4.107   9.701   0.015 -0.0558  2.3074 -0.8273
  766MOL0     H 1096   4.412   9.473   0.132  1.0512 -2.1048  0.6561
  766MOL0     H 1097   4.629   9.441   0.099 -5.0585 -0.7869 -1.3522
  766MOL0     H 1098   6.285   9.844   0.617 -0.1022  0.3780  0.6134
  766MOL0     H 1099   6.484   9.760   0.467  1.1984 -0.0699 -2.4373
  766MOL0     H 1100   6.790   9.966   0.114 -3.8627 -1.7403  0.9985
  766MOL0     H 1101   6.942   9.884  -0.072  0.4240  0.1696  0.5639
  766MOL0     H 1102   7.241   9.695  -0.202  0.0109 -0.4976 -0.6654
  766MOL0     H 1103   7.137   9.836  -0.169  0.1269 -0.6426 -1.1396
  766MOL0     H 1104   7.084   9.582  -0.332  0.7029 -0.5381  0.3761
  766MOL0     H 1105   6.946   9.637  -0.256  0.4944 -1.2746 -2.0930
  766MOL0     H 1106   6.965   9.851  -0.337  0.0205 -0.6929  1.6511
  766MOL0     H 1107   6.943   9.743  -0.479  1.2413  0.9669 -1.4090
  766MOL0     H 1108   7.102   9.901  -0.551 -2.2363  2.0596  2.3031
  766MOL0     H 1109   7.177   9.908  -0.397 -3.5053  1.6331 -0.0669
  766MOL0     H 1110   7.347   9.572  -0.618 -2.8444 -0.9071 -0.9428
  766MOL0     H 1111   7.067   9.571   0.192  0.7058  0.5780  1.3635
  766MOL0     H 1112   6.885   9.630   0.339  2.9549 -3.0777 -1.4436
  767MOL0     O 1113   2.140   3.896  10.881  0.2366 -0.3565 -0.2715
  767MOL0     C 1114   2.173   4.019  10.886 -0.5225  0.2954  0.5967
  767MOL0     O 1115   2.107   4.124  10.942 -0.8314 -0.1100  0.3080
  767MOL0     C 1116   1.983   4.116  11.001 -0.3224 -0.2588 -0.6829
  767MOL0     C 1117   1.866   4.044  10.961 -0.5382 -0.2098  0.4868
  767MOL0     C 1118   1.742   4.052  11.030 -1.2802 -0.0236  0.8905
  767MOL0     C 1119   1.722   4.147  11.127 -0.3052 -0.1374 -0.7428
  767MOL0     O 1120   1.600   4.145  11.193 -0.2196 -1.1064  0.3875
  767MOL0     C 1121   1.596   4.182  11.334 -0.0472  0.0700  0.6790
  767MOL0     C 1122   1.561   4.333  11.333  0.4034  1.2588 -0.5050
  767MOL0     C 1123   1.431   4.361  11.249 -0.1055  0.4625 -0.0872
  767MOL0     C 1124   1.306   4.271  11.279 -1.0481  0.0719  0.2842
  767MOL0     C 1125   1.182   4.345  11.232  0.3586  0.0949  0.4099
  767MOL0     C 1126   1.054   4.264  11.277 -0.7135 -0.3975 -0.0583
  767MOL0     C 1127   0.917   4.317  11.232 -0.5442  0.5120 -0.8661
  767MOL0     C 1128   0.816   4.338  11.351 -0.9098  0.1556 -0.6668
  767MOL0     N 1129   0.681   4.403  11.345  0.2223 -0.1465 -0.3244
  767MOL0     C 1130   0.595   4.404  11.455  0.1330 -1.1553  0.1150
  767MOL0     C 1131   0.514   4.507  11.445  1.0195 -0.6087  0.4349
  767MOL0     C 1132   0.398   4.539  11.532  0.2565 -0.0380 -0.4599
  767MOL0     C 1133   0.273   4.472  11.488  0.0861  0.3439 -0.1611
  767MOL0     C 1134   0.139   4.546  11.503  0.7149 -0.3349 -0.5322
  767MOL0     C 1135   0.117   4.562  11.656  0.8005 -0.1808  0.6913
  767MOL0     O 1136   0.048   4.674  11.689 -0.2270  0.6445 -0.1981
  767MOL0     C 1137  -0.089   4.681  11.661 -0.8738 -1.0359  0.0075
  767MOL0     C 1138  -0.140   4.809  11.686 -0.2861  0.4527  0.0428
  767MOL0     C 1139  -0.277   4.842  11.673 -0.6749  0.5421 -0.5136
  767MOL0     C 1140  -0.375   4.738  11.639  0.4781  0.4588 -0.2333
  767MOL0     C 1141  -0.518   4.754  11.610 -1.1057  0.2867  0.2613
  767MOL0     O 1142  -0.583   4.646  11.567  0.3613  0.1399 -0.3446
  767MOL0     C 1143  -0.717   4.644  11.560 -0.6426  0.1239 -0.0473
  767MOL0     C 1144  -0.801   4.704  11.466  0.2421  0.0051 -0.1506
  767MOL0     C 1145  -0.933   4.677  11.452  0.7042  0.2887 -0.3112
  767MOL0     C 1146  -0.985   4.585  11.546 -0.8799  0.7606 -0.1156
  767MOL0     O 1147  -1.115   4.538  11.536  0.3258  0.0286  0.8365
  767MOL0     C 1148  -1.214   4.628  11.596  0.2228 -1.0051  0.4900
  767MOL0     C 1149  -1.343   4.577  11.645  0.2202 -0.0277  0.2878
  767MOL0     C 1150  -1.427   4.475  11.559 -0.0476 -0.2074  0.0752
  767MOL0     C 1151  -1.480   4.542  11.430  0.7803 -0.1346  0.7984
  767MOL0     C 1152  -1.596   4.638  11.457 -0.2865 -0.9652 -0.2496
  767MOL0     C 1153  -1.676   4.691  11.337  0.0955  0.0756  0.2262
  767MOL0     C 1154  -1.738   4.572  11.246  0.5763 -0.5180  0.1479
  767MOL0     C 1155  -1.819   4.622  11.132  0.8787  0.4253  0.0753
  767MOL0    Cl 1156  -1.887   4.496  11.025 -0.1793  0.0744 -0.3156
  767MOL0     C 1157  -0.903   4.511  11.631  0.3016  1.0077  0.0712
  767MOL0     C 1158  -0.771   4.536  11.636 -0.6611  0.0196  0.6263
  767MOL0     O 1159  -0.555   4.870  11.603 -0.0794 -0.4630  0.0767
  767MOL0     C 1160  -0.321   4.608  11.627  0.2859 -0.6280 -0.5161
  767MOL0     C 1161  -0.184   4.589  11.619  0.2810  0.1907  0.1840
  767MOL0     N 1162   0.552   4.589  11.336 -0.0019  0.0170 -0.1688
  767MOL0     N 1163   0.653   4.526  11.279  0.9903 -0.3361 -0.3672
  767MOL0     C 1164   1.829   4.222  11.172 -0.8037  0.5788 -0.8582
  767MOL0     C 1165   1.949   4.214  11.099 -0.0619  0.4157 -0.5427
  767MOL0     C 1166   2.304   4.049  10.818  0.4307  0.0398 -0.3907
  767MOL0     C 1167   2.372   4.163  10.843 -0.4027  0.6461 -0.4345
  767MOL0     C 1168   2.499   4.189  10.798  0.3910 -0.3361  0.1695
  767MOL0     C 1169   2.566   4.093  10.724  0.0624 -0.3709  0.5425
  767MOL0     O 1170   2.680   4.134  10.659 -0.5961 -0.0605 -0.0109
  767MOL0     C 1171   2.809   4.085  10.719  0.5210 -0.3877  0.6519
  767MOL0     C 1172   2.857   3.950  10.654 -0.4682  0.2938 -0.4476
  767MOL0     C 1173   2.904   3.988  10.513 -0.2737 -0.5959 -0.7761
  767MOL0     C 1174   2.944   3.868  10.429 -0.1749 -0.4524 -0.4506
  767MOL0     C 1175   2.955   3.907  10.286 -0.7578 -0.0305 -0.4030
  767MOL0     C 1176   2.960   3.950  10.171  0.1166 -0.1112  0.2519
  767MOL0     C 1177   2.498   3.976  10.693  0.3968  1.1035  0.2723
  767MOL0     C 1178   2.369   3.955  10.741 -0.4700 -0.5985  0.3284
  767MOL0     H 1179   1.888   3.968  10.887  0.0608 -3.2153  3.4851
  767MOL0     H 1180   1.661   3.986  11.001 -0.7163 -1.3290  2.1336
  767MOL0     H 1181   1.690   4.159  11.383  0.8516 -3.0835 -2.1209
  767MOL0     H 1182   1.525   4.122  11.391  0.7792  0.9784  2.7650
  767MOL0     H 1183   1.638   4.392  11.281  1.5135  2.3153  2.1755
  767MOL0     H 1184   1.551   4.367  11.436  0.0991  0.0554 -0.1267
  767MOL0     H 1185   1.447   4.342  11.142 -3.3118 -1.1902 -0.3949
  767MOL0     H 1186   1.404   4.466  11.258  1.0777  1.0169 -2.2621
  767MOL0     H 1187   1.315   4.173  11.232 -1.8117  0.0510  0.1696
  767MOL0     H 1188   1.315   4.268  11.388  2.1366  1.0371  0.1430
  767MOL0     H 1189   1.183   4.374  11.127  0.8957 -0.4701  0.2529
  767MOL0     H 1190   1.167   4.444  11.276  1.5601  1.4000 -1.9448
  767MOL0     H 1191   1.057   4.244  11.384  1.5133  2.5211  0.5450
  767MOL0     H 1192   1.073   4.171  11.221  0.1404 -1.7432  2.3201
  767MOL0     H 1193   0.927   4.410  11.175  2.0785 -0.1667 -1.6353
  767MOL0     H 1194   0.881   4.239  11.165  0.3949  0.1671 -0.9753
  767MOL0     H 1195   0.873   4.398  11.423  3.4003 -0.2378 -3.4005
  767MOL0     H 1196   0.807   4.243  11.405  1.8238  0.5366  0.6471
  767MOL0     H 1197   0.576   4.327  11.529  1.0541 -2.6857 -1.1737
  767MOL0     H 1198   0.369   4.645  11.533 -1.8564 -0.5570 -1.3596
  767MOL0     H 1199   0.428   4.515  11.635  0.3011  3.0743  0.3571
  767MOL0     H 1200   0.267   4.379  11.546  0.9919  2.0868  2.9723
  767MOL0     H 1201   0.284   4.444  11.383  0.0083 -0.1897 -0.0288
  767MOL0     H 1202   0.145   4.651  11.470 -1.3442  0.5497  1.6081
  767MOL0     H 1203   0.047   4.508  11.458  2.4142 -2.0325 -2.7901
  767MOL0     H 1204   0.210   4.577  11.712  1.6211 -2.2931 -0.0167
  767MOL0     H 1205   0.060   4.478  11.697 -2.1791  1.8953  1.0848
  767MOL0     H 1206  -0.081   4.893  11.723 -0.5504 -0.2475  2.2155
  767MOL0     H 1207  -0.310   4.938  11.711  3.2443  1.7072  0.3785
  767MOL0     H 1208  -0.767   4.776  11.393 -3.0080  1.0419 -0.7818
  767MOL0     H 1209  -1.001   4.717  11.378 -0.1978 -1.6397 -0.5723
  767MOL0     H 1210  -1.232   4.703  11.518  0.4856 -0.9048  0.5258
  767MOL0     H 1211  -1.169   4.670  11.686  1.6891 -1.1917 -0.1325
  767MOL0     H 1212  -1.402   4.667  11.667  2.5420  1.8551 -0.7378
  767MOL0     H 1213  -1.318   4.525  11.738 -0.0054  0.9880  0.9266
  767MOL0     H 1214  -1.507   4.437  11.623 -0.1819  0.7467  0.4893
  767MOL0     H 1215  -1.360   4.396  11.524 -0.5825 -0.1689 -1.0842
  767MOL0     H 1216  -1.404   4.594  11.371 -2.9826  4.0976 -0.9045
  767MOL0     H 1217  -1.518   4.461  11.368  1.4320  0.6210 -0.6190
  767MOL0     H 1218  -1.568   4.723  11.519 -0.3145  1.2574 -3.1067
  767MOL0     H 1219  -1.672   4.589  11.519 -1.5896  1.2246 -0.0085
  767MOL0     H 1220  -1.623   4.754  11.264 -1.5461 -0.0223 -1.1348
  767MOL0     H 1221  -1.755   4.759  11.371  1.5916  3.5466 -2.5025
  767MOL0     H 1222  -1.667   4.506  11.196 -1.5213 -2.7192 -0.1453
  767MOL0     H 1223  -1.795   4.508  11.314  2.3536 -0.5861  1.6351
  767MOL0     H 1224  -1.759   4.687  11.069  2.1258 -1.2787 -0.5939
  767MOL0     H 1225  -1.906   4.676  11.170 -2.3322 -3.2201 -1.3904
  767MOL0     H 1226  -0.943   4.440  11.702 -1.6493  1.4911 -0.4743
  767MOL0     H 1227  -0.715   4.482  11.712 -1.8661  0.4544  1.8585
  767MOL0     H 1228  -0.398   4.534  11.605  1.2025 -1.2794 -1.6076
  767MOL0     H 1229  -0.152   4.494  11.576 -0.2954  0.5615 -1.1229
  767MOL0     H 1230   1.823   4.290  11.256 -0.6857  1.9056 -1.8941
  767MOL0     H 1231   2.040   4.267  11.127  1.5367 -2.0525 -0.6804
  767MOL0     H 1232   2.342   4.242  10.911  1.3063  2.0463 -1.2485
  767MOL0     H 1233   2.548   4.283  10.820  1.9650 -0.6878 -1.5419
  767MOL0     H 1234   2.805   4.060  10.826  0.7573 -2.1631  0.2702
  767MOL0     H 1235   2.872   4.174  10.709  0.2255 -0.1485  0.8682
  767MOL0     H 1236   2.936   3.898  10.708 -1.2226 -0.8418 -0.3933
  767MOL0     H 1237   2.767   3.888  10.652 -1.2117  1.2755  1.0203
  767MOL0     H 1238   2.986   4.057  10.536 -0.4533 -1.2205  1.9899
  767MOL0     H 1239   2.813   4.033  10.471 -0.6342 -1.4321 -0.9089
  767MOL0     H 1240   3.037   3.833  10.475 -0.0207 -1.6965 -1.6267
  767MOL0     H 1241   2.876   3.783  10.442  0.6380 -0.8205  1.8772
  767MOL0     H 1242   2.957   3.986  10.071  1.2087 -0.4972  0.0646
  767MOL0     H 1243   2.536   3.911  10.614  0.1586  1.1644  0.1055
  767MOL0     H 1244   2.308   3.873  10.705 -0.7273  1.1849 -3.8261
  768MOL0     O 1245   0.766   4.324   4.019  0.3815  0.4313  0.4550
  768MOL0     C 1246   0.743   4.207   4.066  0.3073 -0.6658  0.5121
  768MOL0     O 1247   0.629   4.170   4.137 -0.1198 -0.9285  0.2003
  768MOL0     C 1248   0.537   4.270   4.147  0.7356  0.1606 -0.3288
  768MOL0     C 1249   0.536   4.364   4.250  0.4429 -0.6122  0.6993
  768MOL0     C 1250   0.427   4.448   4.271  0.3729 -0.5986  0.4471
  768MOL0     C 1251   0.316   4.447   4.187 -0.6052 -0.0443 -1.5912
  768MOL0     O 1252   0.209   4.541   4.199  0.2704 -0.0395  0.1205
  768MOL0     C 1253   0.199   4.636   4.291  0.2601  0.1833 -0.2324
  768MOL0     C 1254   0.254   4.769   4.255 -0.7884 -0.2792 -1.2415
  768MOL0     C 1255   0.399   4.778   4.216 -0.1582  0.6180 -0.1017
  768MOL0     C 1256   0.424   4.915   4.171  0.2925  0.3475  0.6733
  768MOL0     C 1257   0.563   4.931   4.110 -0.4779 -0.5014  0.2951
  768MOL0     C 1258   0.595   5.076   4.085 -0.4424 -0.0272  0.5883
  768MOL0     C 1259   0.736   5.103   4.032 -0.8380  0.0346 -0.6433
  768MOL0     C 1260   0.745   5.253   3.997  0.1671  0.3806 -0.3743
  768MOL0     N 1261   0.887   5.278   3.942  0.0307 -0.3096 -0.0601
  768MOL0     C 1262   0.941   5.212   3.833 -0.1704 -0.7657 -0.4317
  768MOL0     C 1263   1.084   5.230   3.833 -0.0115 -0.0737 -0.8874
  768MOL0     C 1264   1.190   5.159   3.748  1.3240  0.1468 -0.1946
  768MOL0     C 1265   1.222   5.218   3.611  0.1124 -0.1577 -0.6883
  768MOL0     C 1266   1.318   5.337   3.605  0.7492  0.3115 -0.2455
  768MOL0     C 1267   1.465   5.316   3.650  0.2087 -0.2722  0.6113
  768MOL0     O 1268   1.532   5.211   3.579 -0.5252 -0.2251  0.4731
  768MOL0     C 1269   1.670   5.215   3.591  0.6302 -0.2400 -0.3989
  768MOL0     C 1270   1.753   5.294   3.670 -0.0048 -0.1270 -0.3958
  768MOL0     C 1271   1.887   5.290   3.650 -0.4815  0.6290  0.3140
  768MOL0     C 1272   1.948   5.198   3.561  0.2833  0.6502  0.2937
  768MOL0     C 1273   2.093   5.195   3.564  0.2537 -0.4512 -0.4037
  768MOL0     O 1274   2.156   5.146   3.453  0.5042 -0.3119 -0.4410
  768MOL0     C 1275   2.291   5.175   3.435 -0.5983  0.8792  0.4539
  768MOL0     C 1276   2.380   5.064   3.412  0.1548 -0.6277  0.3124
  768MOL0     C 1277   2.512   5.091   3.399 -0.0332  0.4216  0.4637
  768MOL0     C 1278   2.567   5.217   3.399 -0.8125  1.0640  0.5027
  768MOL0     O 1279   2.701   5.231   3.380 -0.2917  0.2473  0.3721
  768MOL0     C 1280   2.764   5.139   3.290  0.0075  0.9590 -0.4860
  768MOL0     C 1281   2.858   5.056   3.371 -0.0269  0.1080  0.9058
  768MOL0     C 1282   2.985   5.124   3.410  0.4558 -0.3663 -0.7472
  768MOL0     C 1283   3.098   5.039   3.469 -0.5984 -0.1883 -0.6154
  768MOL0     C 1284   3.220   5.120   3.470  0.5601 -0.5728  0.7343
  768MOL0     C 1285   3.319   5.086   3.577  0.4873  0.3011  0.4296
  768MOL0     C 1286   3.431   5.186   3.601  0.7990 -0.7610 -0.7518
  768MOL0     C 1287   3.573   5.124   3.609 -0.8787 -0.8926 -0.0017
  768MOL0    Cl 1288   3.599   5.025   3.747  0.0108  0.3185  0.3937
  768MOL0     C 1289   2.483   5.324   3.413 -0.5405  0.6322 -1.0572
  768MOL0     C 1290   2.341   5.305   3.441 -0.4687  0.4745 -1.0431
  768MOL0     O 1291   2.152   5.239   3.666 -0.5507 -0.3404 -0.8700
  768MOL0     C 1292   1.870   5.106   3.485  0.6683 -0.2639 -0.0352
  768MOL0     C 1293   1.729   5.121   3.505  0.0700  0.0725 -0.1951
  768MOL0     N 1294   1.105   5.303   3.950 -0.0622 -0.0687 -0.1329
  768MOL0     N 1295   0.999   5.327   4.011 -0.0058 -0.1543 -0.3476
  768MOL0     C 1296   0.320   4.362   4.078 -0.3192  0.1095 -0.6827
  768MOL0     C 1297   0.433   4.275   4.059  0.0184 -0.3408  0.2365
  768MOL0     C 1298   0.855   4.110   4.054  0.2349 -0.4849 -1.2414
  768MOL0     C 1299   0.976   4.135   3.981  0.5607 -0.1163 -0.4079
  768MOL0     C 1300   1.077   4.048   3.968  0.5190  0.6865 -0.4295
  768MOL0     C 1301   1.065   3.923   4.015  1.3898  0.2205 -0.3328
  768MOL0     O 1302   1.164   3.829   3.987 -0.1847 -0.4264 -0.2619
  768MOL0     C 1303   1.266   3.859   3.894  0.5649  0.0724 -0.2571
  768MOL0     C 1304   1.338   3.738   3.847  0.3805  0.0797  0.1444
  768MOL0     C 1305   1.442   3.679   3.951  0.2831 -0.1506  0.1777
  768MOL0     C 1306   1.485   3.552   3.898 -0.3944 -0.4332 -0.2355
  768MOL0     C 1307   1.580   3.484   3.989  0.2944 -1.1331 -0.1807
  768MOL0     C 1308   1.665   3.443   4.066  0.8321 -0.8057  0.1173
  768MOL0     C 1309   0.947   3.882   4.084  0.9623  0.4807  0.5414
  768MOL0     C 1310   0.844   3.972   4.105  0.4185 -0.0602 -0.3367
  768MOL0     H 1311   0.627   4.352   4.308  1.4702  1.0882 -0.4867
  768MOL0     H 1312   0.426   4.507   4.362 -0.7274 -0.9466  0.6727
  768MOL0     H 1313   0.218   4.596   4.391 -2.7304 -1.1222 -0.0645
  768MOL0     H 1314   0.090   4.647   4.292  0.0010 -1.4135  2.9577
  768MOL0     H 1315   0.246   4.828   4.347 -2.1320 -1.0579 -0.8386
  768MOL0     H 1316   0.192   4.806   4.173 -1.0880 -0.2017 -0.9788
  768MOL0     H 1317   0.423   4.710   4.134 -0.4151  0.9438 -0.4471
  768MOL0     H 1318   0.463   4.746   4.300  2.1640  1.1287 -1.5789
  768MOL0     H 1319   0.350   4.947   4.097  1.0398  1.6082  0.4468
  768MOL0     H 1320   0.410   4.995   4.244  1.7353  1.0377  0.2326
  768MOL0     H 1321   0.575   4.867   4.022 -2.0685  0.7125 -0.8767
  768MOL0     H 1322   0.630   4.886   4.184 -0.3591  1.3530  1.3902
  768MOL0     H 1323   0.598   5.132   4.179 -0.0570  2.6524 -0.9101
  768MOL0     H 1324   0.513   5.119   4.027 -0.2107 -1.3374 -0.7399
  768MOL0     H 1325   0.797   5.081   4.119  0.8507 -0.1515 -1.8281
  768MOL0     H 1326   0.767   5.036   3.951 -0.6208 -1.0777  0.3262
  768MOL0     H 1327   0.731   5.316   4.086  0.7720 -0.1122  0.0754
  768MOL0     H 1328   0.662   5.269   3.926  0.4381 -1.8808 -1.2655
  768MOL0     H 1329   0.900   5.147   3.756  0.5829 -0.3114 -1.2401
  768MOL0     H 1330   1.142   5.061   3.733 -0.0424  0.8542 -0.5804
  768MOL0     H 1331   1.278   5.141   3.811  0.5519 -2.2227  0.3471
  768MOL0     H 1332   1.132   5.254   3.560 -1.3147 -1.0107  1.1098
  768MOL0     H 1333   1.266   5.133   3.560 -1.1114 -1.2229 -0.0469
  768MOL0     H 1334   1.320   5.365   3.500  0.8920  1.5167  0.0644
  768MOL0     H 1335   1.280   5.415   3.672 -0.4768 -0.0807 -0.4501
  768MOL0     H 1336   1.462   5.310   3.759  0.1599 -0.5787  0.5917
  768MOL0     H 1337   1.511   5.414   3.629  0.7365 -0.4032  1.1182
  768MOL0     H 1338   1.718   5.372   3.737  0.3113  2.7393 -3.3119
  768MOL0     H 1339   1.948   5.356   3.711 -1.6571  0.5473  1.6030
  768MOL0     H 1340   2.330   4.968   3.409  0.5836 -0.8321 -0.5359
  768MOL0     H 1341   2.581   5.007   3.399 -1.9462 -1.2321 -0.1401
  768MOL0     H 1342   2.821   5.200   3.218  2.1342 -1.3951 -0.9320
  768MOL0     H 1343   2.695   5.077   3.233  2.6567 -4.3478  1.4312
  768MOL0     H 1344   2.876   4.967   3.310 -0.6802 -1.8657  3.3883
  768MOL0     H 1345   2.808   5.022   3.463 -0.3062  0.0342  0.7280
  768MOL0     H 1346   2.969   5.200   3.487  0.9697 -1.7603  0.7965
  768MOL0     H 1347   3.021   5.185   3.326  1.0820  0.9590  0.4427
  768MOL0     H 1348   3.069   5.018   3.572  1.6616  2.9438  0.8025
  768MOL0     H 1349   3.118   4.944   3.418 -2.9491 -0.4977 -1.0505
  768MOL0     H 1350   3.193   5.222   3.499 -0.3950 -1.0069  1.4126
  768MOL0     H 1351   3.268   5.135   3.372 -2.7056 -0.5176 -0.9747
  768MOL0     H 1352   3.357   4.987   3.549  1.8647  0.9981 -0.3079
  768MOL0     H 1353   3.261   5.071   3.668 -2.6314 -1.3801 -1.6644
  768MOL0     H 1354   3.414   5.265   3.527 -2.6886  0.8423  1.4523
  768MOL0     H 1355   3.413   5.242   3.693  0.5379 -2.0998  0.0325
  768MOL0     H 1356   3.637   5.213   3.608 -2.4726  0.3308 -2.0501
  768MOL0     H 1357   3.593   5.063   3.521  0.2116  0.0085 -0.4004
  768MOL0     H 1358   2.528   5.422   3.402 -1.4598  0.8381 -3.8930
  768MOL0     H 1359   2.270   5.387   3.439  0.4743  1.3113 -2.1091
  768MOL0     H 1360   1.925   5.035   3.424  1.8018  1.4117 -1.0350
  768MOL0     H 1361   1.667   5.057   3.443  0.1956  2.5915 -3.1422
  768MOL0     H 1362   0.228   4.342   4.024  0.3503 -3.0265 -0.8451
  768MOL0     H 1363   0.411   4.212   3.973 -2.6373  1.4099 -0.5052
  768MOL0     H 1364   0.988   4.239   3.953 -0.0912  0.0961  0.0855
  768MOL0     H 1365   1.168   4.072   3.913  1.0988  0.0733  0.2391
  768MOL0     H 1366   1.337   3.933   3.932  0.3973 -0.3349  0.9146
  768MOL0     H 1367   1.219   3.898   3.804  0.7152  1.1645  0.1237
  768MOL0     H 1368   1.266   3.661   3.816 -0.8173  0.3502  2.1058
  768MOL0     H 1369   1.401   3.761   3.760  2.3337  0.2801  1.5595
  768MOL0     H 1370   1.396   3.652   4.046  2.4170 -3.3321  0.4666
  768MOL0     H 1371   1.522   3.751   3.971 -0.3989  0.1936  1.8130
  768MOL0     H 1372   1.394   3.494   3.881 -0.0298 -0.9910 -0.3032
  768MOL0     H 1373   1.533   3.561   3.801  0.7098 -2.0800  0.1099
  768MOL0     H 1374   1.753   3.412   4.119 -0.3661  0.3457  2.9461
  768MOL0     H 1375   0.925   3.784   4.126 -2.0131  0.6272 -0.4160
  768MOL0     H 1376   0.751   3.941   4.151 -1.7386  2.2942 -2.7946
  769MOL0     O 1377  10.623   6.531   0.594  0.0428 -0.2925 -0.2545
  769MOL0     C 1378  10.670   6.438   0.527 -0.3391 -0.8154 -0.2292
  769MOL0     O 1379  10.620   6.380   0.411 -0.2774  0.0706  0.5819
  769MOL0     C 1380  10.490   6.412   0.371 -0.8803  0.3066 -0.0144
  769MOL0     C 1381  10.383   6.390   0.448 -0.0184 -0.7319  0.2070
  769MOL0     C 1382  10.255   6.431   0.416  0.5039  0.8798  0.4921
  769MOL0     C 1383  10.237   6.485   0.285  0.7763 -0.5174 -0.0613
  769MOL0     O 1384  10.102   6.510   0.250 -0.4483  0.3580  0.3213
  769MOL0     C 1385  10.084   6.532   0.107 -0.2776  0.3887  0.2172
  769MOL0     C 1386  10.053   6.686   0.087 -0.6671 -0.1901  0.5308
  769MOL0     C 1387  10.167   6.787   0.084  0.3459 -0.6533  0.1904
  769MOL0     C 1388  10.113   6.925   0.107  0.2808  0.3316  1.0887
  769MOL0     C 1389  10.204   7.032   0.069 -0.1654 -0.0125 -0.3431
  769MOL0     C 1390  10.124   7.157   0.089  0.3213 -0.9808  0.1029
  769MOL0     C 1391  10.173   7.275   0.004  0.5990 -0.9785 -0.4237
  769MOL0     C 1392  10.062   7.389  -0.017 -0.7872 -0.5196 -0.0367
  769MOL0     N 1393   9.958   7.339  -0.107 -0.0990 -0.2331  0.1570
  769MOL0     C 1394   9.977   7.314  -0.245 -0.5064  0.2542  0.7364
  769MOL0     C 1395   9.853   7.267  -0.281  0.4269 -0.6457  0.0906
  769MOL0     C 1396   9.838   7.204  -0.423  0.0994  0.0781 -0.4977
  769MOL0     C 1397   9.807   7.316  -0.522  0.7081  0.4279 -0.1045
  769MOL0     C 1398   9.661   7.297  -0.581  0.0429  0.0919 -0.5627
  769MOL0     C 1399   9.553   7.302  -0.471  0.4194  0.0814  0.9076
  769MOL0     O 1400   9.459   7.197  -0.484 -0.3593  0.1777 -0.3867
  769MOL0     C 1401   9.325   7.234  -0.481 -0.5932  1.2778 -0.1745
  769MOL0     C 1402   9.262   7.270  -0.590 -0.2139  1.2425  0.3619
  769MOL0     C 1403   9.117   7.280  -0.587 -0.6633 -0.1671  0.3976
  769MOL0     C 1404   9.044   7.255  -0.466 -0.0123  0.4362  0.5371
  769MOL0     C 1405   8.891   7.265  -0.473 -0.3721 -0.8950  0.7286
  769MOL0     O 1406   8.825   7.312  -0.363 -0.2117 -0.5053  0.8412
  769MOL0     C 1407   8.691   7.298  -0.357  0.2230 -0.2779 -0.2289
  769MOL0     C 1408   8.634   7.172  -0.364 -0.6746  1.1217 -1.5193
  769MOL0     C 1409   8.499   7.159  -0.363  0.4692  0.8985  0.6000
  769MOL0     C 1410   8.410   7.263  -0.352 -0.1771 -0.6034 -0.7515
  769MOL0     O 1411   8.278   7.234  -0.341  0.6538 -0.1993  0.2489
  769MOL0     C 1412   8.238   7.212  -0.205 -0.0788  0.1498  0.2923
  769MOL0     C 1413   8.108   7.145  -0.215  0.0966 -0.3209  0.1020
  769MOL0     C 1414   8.128   6.992  -0.197  0.0740 -0.0522  0.4288
  769MOL0     C 1415   7.992   6.912  -0.198  0.4380  0.6655 -0.1402
  769MOL0     C 1416   7.953   6.834  -0.075 -0.2535  0.2536 -0.3554
  769MOL0     C 1417   7.843   6.730  -0.093  0.8973 -1.0624  0.3958
  769MOL0     C 1418   7.761   6.699   0.037 -0.3574 -0.2138  0.6384
  769MOL0     C 1419   7.705   6.559   0.028 -0.3489  1.0581 -0.2124
  769MOL0    Cl 1420   7.590   6.514   0.157  0.5292 -0.4600  0.1449
  769MOL0     C 1421   8.461   7.394  -0.334 -0.4505 -0.3325 -0.3861
  769MOL0     C 1422   8.610   7.407  -0.344 -0.6998 -0.0055 -0.4221
  769MOL0     O 1423   8.834   7.231  -0.581 -0.0793 -1.1661 -0.1659
  769MOL0     C 1424   9.118   7.241  -0.348 -0.9623  0.3038  0.4511
  769MOL0     C 1425   9.258   7.224  -0.362  0.0010  1.1865 -0.0266
  769MOL0     N 1426   9.769   7.265  -0.171  0.3147  0.5765  0.6863
  769MOL0     N 1427   9.830   7.306  -0.069  0.3618  0.5738 -0.8061
  769MOL0     C 1428  10.349   6.512   0.203  0.0336 -1.1367 -0.3382
  769MOL0     C 1429  10.473   6.473   0.252 -0.3972 -0.2246  0.0448
  769MOL0     C 1430  10.807   6.397   0.565 -0.1676  1.0889 -0.2831
  769MOL0     C 1431  10.873   6.303   0.483  1.0448  0.3347 -0.7803
  769MOL0     C 1432  11.003   6.257   0.512  1.0011 -0.4194 -0.6919
  769MOL0     C 1433  11.064   6.306   0.624 -0.6171 -0.1463  0.3983
  769MOL0     O 1434  11.189   6.280   0.665 -0.2582  0.2937 -0.7429
  769MOL0     C 1435  11.223   6.141   0.688 -0.4326 -0.3675 -0.2872
  769MOL0     C 1436  11.183   6.097   0.828 -0.9665  0.5099  0.2090
  769MOL0     C 1437  11.281   5.981   0.877 -0.3349  0.5689  0.5186
  769MOL0     C 1438  11.260   5.847   0.808 -0.8320  0.3608  0.0904
  769MOL0     C 1439  11.243   5.734   0.894 -0.3535 -0.0704  0.2206
  769MOL0     C 1440  11.235   5.626   0.953 -0.0422  0.6955 -0.3345
  769MOL0     C 1441  11.003   6.398   0.707 -0.3161 -0.9380  0.0922
  769MOL0     C 1442  10.876   6.436   0.680 -0.5614 -0.3407 -0.3671
  769MOL0     H 1443  10.388   6.331   0.539  0.2857 -0.6415  0.2465
  769MOL0     H 1444  10.172   6.411   0.483  1.9071 -1.9196  1.5520
  769MOL0     H 1445   9.999   6.470   0.076 -1.0400  0.1461  2.6070
  769MOL0     H 1446  10.168   6.491   0.050 -0.6100  1.1034 -0.8196
  769MOL0     H 1447   9.988   6.725   0.165  0.2818  0.7450  0.8814
  769MOL0     H 1448  10.007   6.691  -0.012 -0.5282 -0.7062  0.4342
  769MOL0     H 1449  10.204   6.790  -0.018 -0.4183  1.7679 -0.0852
  769MOL0     H 1450  10.242   6.769   0.161 -0.1861  0.2068  0.9445
  769MOL0     H 1451  10.023   6.937   0.046  1.4973  0.2232 -0.8552
  769MOL0     H 1452  10.095   6.937   0.214  0.5438  0.0518  1.1655
  769MOL0     H 1453  10.231   7.021  -0.036 -2.8460  0.4634 -1.1692
  769MOL0     H 1454  10.300   7.038   0.121 -0.4079  2.6768 -0.0240
  769MOL0     H 1455  10.124   7.166   0.198  2.6189 -1.1884  0.1710
  769MOL0     H 1456  10.017   7.146   0.070 -0.0120 -0.1285  1.4082
  769MOL0     H 1457  10.251   7.327   0.060  0.6909  0.1381 -1.5448
  769MOL0     H 1458  10.223   7.238  -0.085  0.3490  0.1412 -1.0519
  769MOL0     H 1459  10.112   7.474  -0.065 -1.1012  0.0092  0.5673
  769MOL0     H 1460  10.034   7.423   0.083  1.7110  2.8166 -0.3065
  769MOL0     H 1461  10.066   7.316  -0.308  1.2061  1.6441  3.0464
  769MOL0     H 1462   9.774   7.116  -0.427 -0.1861  0.3368 -3.0279
  769MOL0     H 1463   9.936   7.168  -0.457  0.4706  0.6607 -0.0779
  769MOL0     H 1464   9.879   7.324  -0.604 -0.6095 -2.9850 -1.7825
  769MOL0     H 1465   9.807   7.417  -0.481 -1.2332 -0.1382  1.4356
  769MOL0     H 1466   9.632   7.381  -0.644 -2.9690 -1.2943 -1.2378
  769MOL0     H 1467   9.654   7.204  -0.638  1.1402 -1.5308  1.7753
  769MOL0     H 1468   9.505   7.398  -0.489  2.7782  1.2610  0.4629
  769MOL0     H 1469   9.597   7.302  -0.371  1.4965  0.0225  0.4507
  769MOL0     H 1470   9.302   7.287  -0.690 -0.4456 -0.7621 -0.1183
  769MOL0     H 1471   9.054   7.309  -0.671 -1.5212  2.0001  1.7038
  769MOL0     H 1472   8.705   7.091  -0.381  1.1984  2.5565 -0.8136
  769MOL0     H 1473   8.448   7.064  -0.349 -0.7515  1.6638  1.5053
  769MOL0     H 1474   8.237   7.307  -0.150 -0.5709 -1.1872  2.7463
  769MOL0     H 1475   8.315   7.151  -0.156  1.5075  1.3715 -0.5772
  769MOL0     H 1476   8.051   7.172  -0.305 -1.3928 -0.7194  0.8840
  769MOL0     H 1477   8.055   7.208  -0.143  0.4599  3.2868 -2.5042
  769MOL0     H 1478   8.182   6.955  -0.109  1.5506  0.4171 -0.2495
  769MOL0     H 1479   8.176   6.961  -0.291  0.7974  1.7442  0.1755
  769MOL0     H 1480   7.904   6.961  -0.240  0.5399  1.6997  0.7993
  769MOL0     H 1481   8.013   6.831  -0.268  1.5450 -0.2440  1.1740
  769MOL0     H 1482   7.911   6.907  -0.006  2.0334  0.6515  0.7301
  769MOL0     H 1483   8.036   6.777  -0.031 -1.0613 -0.9213 -0.2945
  769MOL0     H 1484   7.885   6.639  -0.137  0.1337 -0.9330 -0.6416
  769MOL0     H 1485   7.774   6.772  -0.167 -0.5188  0.9885  2.7400
  769MOL0     H 1486   7.824   6.717   0.125  1.6745  0.3813 -0.8455
  769MOL0     H 1487   7.688   6.780   0.031  1.6053  1.6864  1.1918
  769MOL0     H 1488   7.793   6.495   0.020  1.2131  3.2665 -1.9151
  769MOL0     H 1489   7.657   6.556  -0.070 -1.7147 -2.7400  0.3713
  769MOL0     H 1490   8.400   7.478  -0.304 -0.4656 -0.4241 -0.1663
  769MOL0     H 1491   8.659   7.502  -0.328  0.9805 -0.3730 -2.9633
  769MOL0     H 1492   9.072   7.215  -0.253 -2.7818 -0.3119 -0.5456
  769MOL0     H 1493   9.317   7.185  -0.280 -1.2939 -4.7153 -1.4260
  769MOL0     H 1494  10.356   6.542   0.099  0.7013  2.0405  0.4999
  769MOL0     H 1495  10.554   6.473   0.180 -0.3174  0.8512  0.1113
  769MOL0     H 1496  10.822   6.274   0.392  0.2930 -0.2876 -0.1741
  769MOL0     H 1497  11.060   6.194   0.444  1.6832  0.2803 -0.7909
  769MOL0     H 1498  11.330   6.125   0.673 -0.1260 -0.7949  1.9352
  769MOL0     H 1499  11.171   6.069   0.624  0.1580 -1.4446  0.4051
  769MOL0     H 1500  11.186   6.179   0.901 -2.8617  1.0229 -0.2143
  769MOL0     H 1501  11.085   6.049   0.828 -0.3839 -0.7757  1.9135
  769MOL0     H 1502  11.266   5.981   0.986  1.3432  3.2703  0.8573
  769MOL0     H 1503  11.385   6.013   0.867 -0.6031  1.2286 -0.2817
  769MOL0     H 1504  11.169   5.849   0.747 -1.0917  1.1792  0.4845
  769MOL0     H 1505  11.339   5.831   0.735 -1.8611 -2.6049 -0.5259
  769MOL0     H 1506  11.215   5.537   1.008  0.1692  1.0799  0.3813
  769MOL0     H 1507  11.051   6.437   0.797 -2.2018 -0.6713  1.0451
  769MOL0     H 1508  10.828   6.509   0.744 -0.1095 -1.2364  1.0400
  770MOL0     O 1509   5.060   0.139   4.717 -0.3381  0.1528 -0.0894
  770MOL0     C 1510   5.072   0.184   4.604  0.2382  0.0323  0.2483
  770MOL0     O 1511   4.964   0.189   4.520  0.2411  0.0643 -0.5038
  770MOL0     C 1512   4.841   0.149   4.563 -0.5285  0.7536 -0.6908
  770MOL0     C 1513   4.749   0.222   4.634 -0.3992  0.7056 -0.2314
  770MOL0     C 1514   4.632   0.168   4.688  0.4137 -0.0824  0.9565
  770MOL0     C 1515   4.597   0.032   4.664  0.9199  0.2624  1.0599
  770MOL0     O 1516   4.487  -0.038   4.709  0.2184 -0.1792  0.2016
  770MOL0     C 1517   4.391   0.040   4.776 -0.7403  0.3149 -0.2888
  770MOL0     C 1518   4.270  -0.049   4.821 -0.5932  0.4832 -0.8699
  770MOL0     C 1519   4.177  -0.100   4.721  0.7176  0.3850 -0.5574
  770MOL0     C 1520   4.242  -0.169   4.606  0.4779 -0.0554 -0.0172
  770MOL0     C 1521   4.141  -0.261   4.543  0.1172 -0.5629 -0.7213
  770MOL0     C 1522   4.174  -0.334   4.414 -1.0912 -0.8474 -1.1145
  770MOL0     C 1523   4.058  -0.396   4.341  0.1619  0.2609  0.0170
  770MOL0     C 1524   4.115  -0.462   4.214  0.3582  0.9961  0.2596
  770MOL0     N 1525   3.996  -0.523   4.146 -0.0492 -0.3809  0.4563
  770MOL0     C 1526   3.976  -0.657   4.127 -0.0658 -0.1514  0.0215
  770MOL0     C 1527   3.882  -0.668   4.030 -0.1846  0.8354  0.5952
  770MOL0     C 1528   3.834  -0.799   3.969 -0.9240 -0.1578 -0.5645
  770MOL0     C 1529   3.920  -0.856   3.849  0.0272  0.9783  0.8057
  770MOL0     C 1530   4.059  -0.902   3.878 -0.3255 -0.0714  0.7159
  770MOL0     C 1531   4.115  -0.977   3.758  0.5307  0.0371  0.2971
  770MOL0     O 1532   4.031  -1.079   3.686  0.2188 -0.4055 -0.6340
  770MOL0     C 1533   4.083  -1.129   3.568 -0.3605 -0.4694  0.2963
  770MOL0     C 1534   4.004  -1.209   3.497  0.8037  0.3277 -0.5519
  770MOL0     C 1535   4.033  -1.262   3.372 -0.3365  0.0643 -0.4702
  770MOL0     C 1536   4.146  -1.226   3.305  0.5960  0.4345 -1.0771
  770MOL0     C 1537   4.180  -1.272   3.169 -0.5301 -0.2985  0.9149
  770MOL0     O 1538   4.275  -1.197   3.096  0.2983 -0.3249  0.4920
  770MOL0     C 1539   4.314  -1.257   2.977 -0.6901 -1.0012  0.1147
  770MOL0     C 1540   4.288  -1.184   2.858 -0.4195  0.9342  0.0571
  770MOL0     C 1541   4.344  -1.237   2.743 -0.0509  0.6952  0.6554
  770MOL0     C 1542   4.417  -1.355   2.735 -0.1897  0.2028 -0.3370
  770MOL0     O 1543   4.459  -1.398   2.614 -0.3934  0.4788  0.3411
  770MOL0     C 1544   4.551  -1.510   2.595 -0.2547 -0.2649 -0.7755
  770MOL0     C 1545   4.647  -1.472   2.480 -0.1025  0.3046  0.5553
  770MOL0     C 1546   4.570  -1.477   2.348  0.1003 -0.4402 -0.5793
  770MOL0     C 1547   4.667  -1.436   2.238  0.4161  0.0665  0.0047
  770MOL0     C 1548   4.793  -1.521   2.230 -0.4197  0.5063 -0.3109
  770MOL0     C 1549   4.845  -1.515   2.086  0.2153 -0.1503 -0.5747
  770MOL0     C 1550   4.985  -1.571   2.069  0.0543  0.8435  0.1635
  770MOL0     C 1551   5.009  -1.584   1.915 -0.7391  0.2073 -0.9175
  770MOL0    Cl 1552   5.188  -1.617   1.903  0.6712  0.2315  0.0899
  770MOL0     C 1553   4.431  -1.434   2.851  0.0874  0.0975  0.2650
  770MOL0     C 1554   4.376  -1.379   2.968  0.2136  0.0540  0.2965
  770MOL0     O 1555   4.117  -1.367   3.127 -0.3304  0.2081  0.2348
  770MOL0     C 1556   4.229  -1.143   3.370 -0.1931  0.2578 -0.2205
  770MOL0     C 1557   4.199  -1.092   3.502  0.6134 -0.8993 -0.5301
  770MOL0     N 1558   3.872  -0.538   3.973 -0.6092 -0.2092 -0.0404
  770MOL0     N 1559   3.932  -0.456   4.043  0.0231 -1.1468  0.5344
  770MOL0     C 1560   4.689  -0.042   4.587  0.4855 -0.4754 -0.1092
  770MOL0     C 1561   4.810   0.013   4.553 -1.1774  0.7489  0.1624
  770MOL0     C 1562   5.197   0.262   4.567  1.4402 -0.2262  0.1054
  770MOL0     C 1563   5.204   0.323   4.442 -0.4516 -0.3618  0.1112
  770MOL0     C 1564   5.314   0.404   4.414  1.0662 -0.6015  0.3774
  770MOL0     C 1565   5.408   0.439   4.508  0.0369 -0.1639  0.1871
  770MOL0     O 1566   5.515   0.511   4.474  1.5226  0.0984 -0.1225
  770MOL0     C 1567   5.624   0.437   4.419 -0.2760 -0.2739 -0.3985
  770MOL0     C 1568   5.740   0.449   4.518 -0.3442  0.8447 -0.0472
  770MOL0     C 1569   5.787   0.597   4.529  0.3228  0.3597 -0.2305
  770MOL0     C 1570   5.858   0.606   4.663  0.1844 -0.6177 -0.4059
  770MOL0     C 1571   5.989   0.533   4.679  0.3840 -0.0455 -0.7357
  770MOL0     C 1572   6.094   0.475   4.700  0.3421  0.1557 -0.4950
  770MOL0     C 1573   5.396   0.382   4.632 -0.2294 -0.1871 -0.0483
  770MOL0     C 1574   5.289   0.295   4.661 -0.1187  0.3461  0.2213
  770MOL0     H 1575   4.780   0.324   4.650  1.0380  0.5569 -1.7634
  770MOL0     H 1576   4.569   0.240   4.741  0.2280  2.3592 -2.2901
  770MOL0     H 1577   4.355   0.119   4.709 -2.5465 -1.6739 -1.7941
  770MOL0     H 1578   4.436   0.076   4.869  0.6724  1.9516 -1.5344
  770MOL0     H 1579   4.209  -0.001   4.898 -0.0847  0.4725 -0.4488
  770MOL0     H 1580   4.307  -0.132   4.882 -2.6101  2.3504  3.3701
  770MOL0     H 1581   4.120  -0.019   4.675  2.5793  1.7694 -0.5204
  770MOL0     H 1582   4.117  -0.171   4.780  3.1904  0.8805  2.8506
  770MOL0     H 1583   4.280  -0.092   4.538 -2.0165 -1.1055 -2.7991
  770MOL0     H 1584   4.331  -0.224   4.639  3.2849  5.2799  2.7661
  770MOL0     H 1585   4.042  -0.224   4.514 -1.3437 -4.8914 -2.1078
  770MOL0     H 1586   4.118  -0.341   4.614  0.4469  0.5142  0.6383
  770MOL0     H 1587   4.240  -0.415   4.448  2.1740  2.6739  1.7374
  770MOL0     H 1588   4.240  -0.275   4.350 -0.6867 -0.5425 -0.4283
  770MOL0     H 1589   4.007  -0.471   4.402  0.6939 -0.0128  0.1300
  770MOL0     H 1590   3.983  -0.321   4.311  1.8337  1.7140 -0.6975
  770MOL0     H 1591   4.194  -0.536   4.231  0.0191  0.0731 -1.8529
  770MOL0     H 1592   4.148  -0.381   4.149 -2.0207  1.1522 -0.8595
  770MOL0     H 1593   4.014  -0.738   4.190  0.2617  0.0742  0.1171
  770MOL0     H 1594   3.727  -0.781   3.949 -1.9219 -0.4697  3.6000
  770MOL0     H 1595   3.846  -0.874   4.047  1.8322  0.6935 -0.0682
  770MOL0     H 1596   3.902  -0.782   3.770  0.4364  1.0932  0.8154
  770MOL0     H 1597   3.862  -0.943   3.818 -2.3306  2.4038  0.9868
  770MOL0     H 1598   4.118  -0.811   3.893  1.6206 -1.0048 -0.8514
  770MOL0     H 1599   4.075  -0.973   3.960  0.9582 -0.2289  0.3527
  770MOL0     H 1600   4.199  -1.039   3.792  0.8250  0.4854  0.3945
  770MOL0     H 1601   4.130  -0.898   3.684  1.1012  1.2536  1.6583
  770MOL0     H 1602   3.913  -1.247   3.544  0.3528  1.5035 -0.4333
  770MOL0     H 1603   3.956  -1.324   3.327  0.5222  1.3771 -4.0775
  770MOL0     H 1604   4.223  -1.097   2.858  0.6843  1.7868 -0.8393
  770MOL0     H 1605   4.327  -1.189   2.647  0.3526  0.8302  0.6508
  770MOL0     H 1606   4.487  -1.598   2.583 -1.4696  0.1215  2.1022
  770MOL0     H 1607   4.615  -1.533   2.681  0.1016 -1.7736 -1.4197
  770MOL0     H 1608   4.724  -1.550   2.474 -0.6090 -0.1150 -0.7894
  770MOL0     H 1609   4.700  -1.377   2.494  1.9155 -1.0269  2.9024
  770MOL0     H 1610   4.494  -1.399   2.354  0.8788  0.2758  0.1168
  770MOL0     H 1611   4.530  -1.577   2.326 -0.4711 -0.6336  1.1710
  770MOL0     H 1612   4.625  -1.452   2.138  1.6257 -1.2181 -0.3288
  770MOL0     H 1613   4.673  -1.327   2.244  0.3243 -0.0022  1.9247
  770MOL0     H 1614   4.776  -1.625   2.261 -0.3512  0.5704 -0.0608
  770MOL0     H 1615   4.858  -1.480   2.307  0.0329 -3.4885  1.7148
  770MOL0     H 1616   4.841  -1.416   2.041  0.5354 -0.8942 -2.3119
  770MOL0     H 1617   4.778  -1.582   2.031 -1.1977 -0.7953  1.7621
  770MOL0     H 1618   5.063  -1.507   2.111  1.2702 -1.4596  1.6276
  770MOL0     H 1619   4.994  -1.672   2.110 -0.5311  0.5067 -0.5233
  770MOL0     H 1620   4.989  -1.486   1.872 -1.3732  1.4794  2.0586
  770MOL0     H 1621   4.948  -1.657   1.860  1.3276 -0.5092 -2.4177
  770MOL0     H 1622   4.502  -1.516   2.857  0.6971 -0.3414 -6.1410
  770MOL0     H 1623   4.393  -1.441   3.055 -0.8655 -1.5973 -0.6247
  770MOL0     H 1624   4.320  -1.120   3.317  0.2698  0.0026  0.4394
  770MOL0     H 1625   4.267  -1.016   3.541  2.2855 -2.6372  0.0747
  770MOL0     H 1626   4.679  -0.148   4.567  3.2316 -0.3726 -2.7405
  770MOL0     H 1627   4.884  -0.057   4.515 -1.1477  0.0215  1.4942
  770MOL0     H 1628   5.135   0.291   4.365 -0.8177 -3.7434  1.6907
  770MOL0     H 1629   5.317   0.440   4.311  0.3881  1.5525  1.0680
  770MOL0     H 1630   5.658   0.468   4.320  1.5791 -1.0361 -0.0406
  770MOL0     H 1631   5.605   0.331   4.401 -2.0575  0.0968 -0.9130
  770MOL0     H 1632   5.706   0.414   4.616  2.0107  4.8854  2.4911
  770MOL0     H 1633   5.824   0.385   4.490 -2.7013 -2.0923 -0.8866
  770MOL0     H 1634   5.709   0.674   4.520 -0.2416 -0.2531 -0.6712
  770MOL0     H 1635   5.853   0.613   4.443 -0.9779  1.3798 -1.1025
  770MOL0     H 1636   5.877   0.712   4.685 -1.0611 -0.7920  1.7321
  770MOL0     H 1637   5.785   0.584   4.741  1.9584 -0.6695  1.3275
  770MOL0     H 1638   6.195   0.441   4.714 -0.1208 -0.2769  2.4507
  770MOL0     H 1639   5.469   0.394   4.711 -0.2144 -2.1068  0.2797
  770MOL0     H 1640   5.274   0.263   4.764  2.6628 -1.0816  0.2910
  771MOL0     O 1641   0.509   6.888   3.850 -0.3358  0.1991  0.1180
  771MOL0     C 1642   0.566   6.786   3.831  0.1093  0.0192  0.3189
  771MOL0     O 1643   0.510   6.672   3.799 -0.1525 -0.1603 -1.0344
  771MOL0     C 1644   0.373   6.655   3.797 -0.3742 -0.1573 -0.2731
  771MOL0     C 1645   0.281   6.739   3.739  0.3179  0.7964  0.4967
  771MOL0     C 1646   0.140   6.707   3.743  0.0690 -0.2217  1.3346
  771MOL0     C 1647   0.089   6.595   3.807 -0.1097 -0.2453  0.1660
  771MOL0     O 1648  -0.045   6.588   3.827  0.8774  0.4254  0.3048
  771MOL0     C 1649  -0.083   6.546   3.966  0.7350 -0.2779  0.3306
  771MOL0     C 1650  -0.239   6.537   3.979  0.3143 -0.3959 -0.8435
  771MOL0     C 1651  -0.301   6.413   3.901 -0.7800  0.4878  0.5477
  771MOL0     C 1652  -0.451   6.423   3.908  0.0168  1.4350  0.1310
  771MOL0     C 1653  -0.514   6.281   3.914 -0.4140  0.2350 -0.3332
  771MOL0     C 1654  -0.661   6.296   3.953 -0.3689 -0.5429 -0.3589
  771MOL0     C 1655  -0.729   6.159   3.949 -0.3242 -0.6088  0.1249
  771MOL0     C 1656  -0.883   6.176   3.908  0.4013  0.1311 -0.4764
  771MOL0     N 1657  -0.953   6.046   3.911 -0.4828  0.1094 -0.6595
  771MOL0     C 1658  -0.933   5.939   3.830  0.5563 -1.1134 -0.9199
  771MOL0     C 1659  -1.028   5.855   3.857 -0.3577  0.1430  0.3190
  771MOL0     C 1660  -1.045   5.726   3.771 -0.1729  0.1698 -0.2995
  771MOL0     C 1661  -1.022   5.605   3.867 -0.0076 -0.4054 -0.9190
  771MOL0     C 1662  -1.103   5.604   3.993  0.4130  1.4878  1.0707
  771MOL0     C 1663  -1.082   5.468   4.046  1.2356 -0.3211 -0.0109
  771MOL0     O 1664  -1.164   5.457   4.164 -0.2226 -0.0440  1.2444
  771MOL0     C 1665  -1.288   5.412   4.146  0.4184 -0.0679 -0.6356
  771MOL0     C 1666  -1.322   5.277   4.118 -0.8384 -0.6707  0.1628
  771MOL0     C 1667  -1.452   5.235   4.114 -1.3302 -0.5632  0.9794
  771MOL0     C 1668  -1.562   5.317   4.140  0.3657 -0.4994 -0.2843
  771MOL0     C 1669  -1.706   5.264   4.144  0.1409 -1.1251  1.0473
  771MOL0     O 1670  -1.723   5.133   4.125  0.0772  0.4947 -0.3624
  771MOL0     C 1671  -1.835   5.070   4.083 -0.0694 -0.0269  1.0676
  771MOL0     C 1672  -1.846   4.933   4.108 -0.1813 -0.7290  0.5484
  771MOL0     C 1673  -1.958   4.864   4.070  0.0728 -0.5050 -0.4382
  771MOL0     C 1674  -2.064   4.931   4.002 -0.9735  0.7828 -0.4707
  771MOL0     O 1675  -2.158   4.860   3.937  0.2725  0.3888 -0.5745
  771MOL0     C 1676  -2.289   4.911   3.934 -0.5710 -0.5567  0.5265
  771MOL0     C 1677  -2.337   4.880   3.785  0.1182  0.2521  0.1692
  771MOL0     C 1678  -2.253   4.948   3.668 -0.2878 -0.0871 -0.0100
  771MOL0     C 1679  -2.301   4.937   3.530 -0.8891  0.1860  0.5755
  771MOL0     C 1680  -2.199   4.924   3.418  0.3483 -0.1660  0.0895
  771MOL0     C 1681  -2.109   5.044   3.405  0.5866  1.3670 -0.0523
  771MOL0     C 1682  -1.999   5.011   3.308  0.1193  0.2234  0.5759
  771MOL0     C 1683  -1.917   5.137   3.248  0.3129  1.0368  0.4870
  771MOL0    Cl 1684  -1.754   5.089   3.186 -0.1657 -0.0259  0.1154
  771MOL0     C 1685  -2.049   5.070   3.974  0.5677 -0.4682 -0.1260
  771MOL0     C 1686  -1.938   5.141   4.014 -0.3441 -0.9638  0.0578
  771MOL0     O 1687  -1.796   5.349   4.161  0.1910  1.1844 -0.0784
  771MOL0     C 1688  -1.531   5.456   4.168  0.5348 -0.4710 -0.0308
  771MOL0     C 1689  -1.396   5.499   4.165  0.4676  0.3593  0.4079
  771MOL0     N 1690  -1.114   5.906   3.951 -0.1104 -0.4365 -0.3371
  771MOL0     N 1691  -1.066   6.027   3.982 -0.5330 -0.4109 -0.3796
  771MOL0     C 1692   0.187   6.511   3.856 -0.3395 -0.3237  0.2102
  771MOL0     C 1693   0.326   6.548   3.858  0.2170 -0.0752 -0.1293
  771MOL0     C 1694   0.718   6.790   3.843 -0.4579  0.5595 -0.5372
  771MOL0     C 1695   0.799   6.684   3.808  0.3004  0.4569 -0.3591
  771MOL0     C 1696   0.937   6.684   3.843  0.4265  0.5758  0.4893
  771MOL0     C 1697   0.999   6.790   3.913 -0.4165  1.0590  0.7386
  771MOL0     O 1698   1.136   6.784   3.928  0.8026 -0.8765 -0.8732
  771MOL0     C 1699   1.209   6.898   3.955  0.4219  0.4940  0.2988
  771MOL0     C 1700   1.213   6.912   4.106 -0.1666  0.6290  0.5138
  771MOL0     C 1701   1.293   7.029   4.160 -0.2815  0.3293 -0.6193
  771MOL0     C 1702   1.257   7.078   4.297 -0.4976 -0.0820  0.0694
  771MOL0     C 1703   1.335   7.207   4.308 -0.5376  0.0010  0.2887
  771MOL0     C 1704   1.393   7.311   4.329  0.6939 -0.3293 -0.1513
  771MOL0     C 1705   0.916   6.898   3.937 -0.2739 -0.1532 -0.2428
  771MOL0     C 1706   0.780   6.902   3.907  1.0052  0.8298 -0.3753
  771MOL0     H 1707   0.318   6.825   3.684  2.2757  0.8976  1.8594
  771MOL0     H 1708   0.067   6.770   3.693 -0.5572 -2.6979 -1.0593
  771MOL0     H 1709  -0.049   6.617   4.042 -1.8309  0.8012  0.5752
  771MOL0     H 1710  -0.049   6.444   3.985 -2.7753 -1.4617  0.9855
  771MOL0     H 1711  -0.281   6.632   3.946  1.8356  1.4736  2.1525
  771MOL0     H 1712  -0.255   6.520   4.086  1.3358  1.3782 -0.3647
  771MOL0     H 1713  -0.269   6.321   3.950  0.1468  0.2236 -0.5267
  771MOL0     H 1714  -0.271   6.401   3.797 -2.8525 -3.5825  0.2433
  771MOL0     H 1715  -0.480   6.478   3.999 -0.1025  2.7698 -0.6924
  771MOL0     H 1716  -0.480   6.478   3.818 -1.4062  3.6693  1.8409
  771MOL0     H 1717  -0.458   6.218   3.985 -1.2419 -0.1892 -0.0469
  771MOL0     H 1718  -0.518   6.236   3.815 -1.5004  1.0206 -0.6658
  771MOL0     H 1719  -0.705   6.360   3.875 -0.8980  1.5165  1.5386
  771MOL0     H 1720  -0.677   6.340   4.052 -2.0614 -0.0370 -0.8167
  771MOL0     H 1721  -0.672   6.087   3.890  1.0847 -1.4596  2.3645
  771MOL0     H 1722  -0.728   6.129   4.054 -2.2218 -1.7875 -0.1561
  771MOL0     H 1723  -0.899   6.214   3.807 -2.5197  2.4905  0.7234
  771MOL0     H 1724  -0.925   6.245   3.982 -1.1951 -0.4830 -0.7659
  771MOL0     H 1725  -0.857   5.925   3.753 -0.9304  0.5564 -2.8286
  771MOL0     H 1726  -0.979   5.726   3.684  0.9822  2.8935  0.4533
  771MOL0     H 1727  -1.153   5.729   3.750 -0.6429  1.7362  1.9563
  771MOL0     H 1728  -0.920   5.616   3.904 -0.3099  2.3465 -0.6690
  771MOL0     H 1729  -1.039   5.515   3.807 -1.0438 -0.8681  0.0316
  771MOL0     H 1730  -1.060   5.676   4.063  0.4183  1.9145  0.6436
  771MOL0     H 1731  -1.211   5.620   3.991 -0.8746 -4.8415  0.5397
  771MOL0     H 1732  -0.977   5.447   4.069  1.6324  0.0967 -1.3128
  771MOL0     H 1733  -1.109   5.388   3.976 -2.9542  0.4265  0.5433
  771MOL0     H 1734  -1.229   5.223   4.100  0.8120  1.4830  1.7275
  771MOL0     H 1735  -1.457   5.128   4.095  0.9552 -1.0678  2.8861
  771MOL0     H 1736  -1.767   4.876   4.154  0.2709 -0.7976 -0.2983
  771MOL0     H 1737  -1.962   4.757   4.090  0.5459 -0.3607  0.4658
  771MOL0     H 1738  -2.293   5.020   3.945 -0.7103 -0.5068  0.0096
  771MOL0     H 1739  -2.356   4.886   4.016  0.3532 -1.4719  1.0344
  771MOL0     H 1740  -2.439   4.920   3.784 -0.2238 -0.5581 -2.1839
  771MOL0     H 1741  -2.348   4.773   3.764  0.4464  1.0447 -5.5632
  771MOL0     H 1742  -2.155   4.900   3.668  0.1497  0.7780  0.7657
  771MOL0     H 1743  -2.235   5.053   3.690 -1.3642  0.6900 -2.4508
  771MOL0     H 1744  -2.362   4.847   3.533 -1.6582  0.7156  2.6007
  771MOL0     H 1745  -2.361   5.026   3.505  1.1924  1.5406  0.1606
  771MOL0     H 1746  -2.247   4.912   3.321  2.0650  2.1651 -1.1405
  771MOL0     H 1747  -2.134   4.838   3.439  0.8838 -0.2011 -1.5988
  771MOL0     H 1748  -2.064   5.065   3.503 -0.1040 -0.8937  0.8172
  771MOL0     H 1749  -2.163   5.129   3.363 -1.7489 -2.1419 -5.1012
  771MOL0     H 1750  -1.925   4.943   3.350 -0.7177 -2.2246 -1.6118
  771MOL0     H 1751  -2.046   4.966   3.220  1.5037 -0.0026 -0.0716
  771MOL0     H 1752  -1.916   5.218   3.323  2.1625  0.7313  0.8531
  771MOL0     H 1753  -1.980   5.181   3.170 -0.2164 -0.3217  0.1232
  771MOL0     H 1754  -2.121   5.131   3.920  0.4493  0.3732  0.9574
  771MOL0     H 1755  -1.944   5.249   4.004  1.1934 -0.7915  0.7257
  771MOL0     H 1756  -1.610   5.525   4.196 -0.5041 -1.7864  0.3732
  771MOL0     H 1757  -1.378   5.602   4.193 -0.6783 -0.0947  3.1683
  771MOL0     H 1758   0.165   6.418   3.907  2.1223 -1.6915 -1.0468
  771MOL0     H 1759   0.407   6.482   3.887  1.2210  0.1295 -2.2315
  771MOL0     H 1760   0.752   6.608   3.747 -1.2450  0.5915  0.6064
  771MOL0     H 1761   1.009   6.609   3.814 -0.4175  0.2533 -0.8491
  771MOL0     H 1762   1.171   6.986   3.902  2.7280  0.9198 -0.7902
  771MOL0     H 1763   1.311   6.890   3.914  1.3430  3.2818  1.7550
  771MOL0     H 1764   1.111   6.909   4.146 -0.1635  3.4731  0.9364
  771MOL0     H 1765   1.251   6.823   4.158  0.3233  0.9525  0.7266
  771MOL0     H 1766   1.275   7.108   4.087  2.4504  1.3087 -0.3334
  771MOL0     H 1767   1.401   7.013   4.154  0.2198  2.1983  1.8853
  771MOL0     H 1768   1.149   7.093   4.303 -0.4500  1.2031 -1.5099
  771MOL0     H 1769   1.295   7.001   4.365 -0.3366 -0.3073 -0.2725
  771MOL0     H 1770   1.438   7.408   4.337  2.5515 -1.1784  0.4949
  771MOL0     H 1771   0.957   6.983   3.991  2.6816 -1.7718  0.2785
  771MOL0     H 1772   0.727   6.996   3.921  0.8134  0.9012 -1.4843
  772MOL0     O 1773   4.184  10.796   4.686 -0.5897 -0.5387 -0.3475
  772MOL0     C 1774   4.257  10.697   4.666 -0.0702 -0.2048 -0.0393
  772MOL0     O 1775   4.212  10.569   4.651  0.4493  0.1208  0.0389
  772MOL0     C 1776   4.084  10.522   4.675  0.7732 -0.0558  0.6777
  772MOL0     C 1777   4.072  10.391   4.716 -1.2205 -0.0568 -0.3058
  772MOL0     C 1778   3.948  10.331   4.750  0.3607  0.0924 -0.9154
  772MOL0     C 1779   3.826  10.408   4.742 -0.2855 -1.0818  0.8370
  772MOL0     O 1780   3.701  10.342   4.767  0.1431  0.3935  0.9086
  772MOL0     C 1781   3.572  10.410   4.741  0.6056 -0.3120 -0.2069
  772MOL0     C 1782   3.529  10.383   4.594  0.0419  0.1544 -0.4077
  772MOL0     C 1783   3.394  10.415   4.544  0.0722  0.4383  0.0778
  772MOL0     C 1784   3.390  10.565   4.496 -0.9615  0.2287 -0.6639
  772MOL0     C 1785   3.254  10.593   4.424 -0.6531  1.2278  0.1709
  772MOL0     C 1786   3.268  10.711   4.333  0.4495 -1.1032 -0.0192
  772MOL0     C 1787   3.142  10.739   4.252  1.3914  0.5212  0.5524
  772MOL0     C 1788   3.120  10.889   4.231  0.4526  0.2830  0.3748
  772MOL0     N 1789   3.004  10.924   4.145 -0.4260 -0.5044  1.4650
  772MOL0     C 1790   3.023  11.006   4.041 -0.2284 -0.0698  0.6178
  772MOL0     C 1791   2.906  11.045   4.004 -0.0538 -0.7975 -0.1060
  772MOL0     C 1792   2.874  11.147   3.893 -0.2627  0.0213  0.4895
  772MOL0     C 1793   2.914  11.287   3.948 -0.3965  0.4097 -0.3995
  772MOL0     C 1794   2.848  11.331   4.077  0.8504 -0.0963  0.2191
  772MOL0     C 1795   2.689  11.335   4.074  0.4005 -0.0014  0.6030
  772MOL0     O 1796   2.658  11.432   3.978  0.1547  0.5361  0.3772
  772MOL0     C 1797   2.533  11.482   3.964 -0.5829 -0.2116  0.0548
  772MOL0     C 1798   2.515  11.577   3.857 -0.1410  0.2191  0.2278
  772MOL0     C 1799   2.393  11.622   3.828 -0.1028  0.3474  0.8481
  772MOL0     C 1800   2.288  11.592   3.903 -0.8875 -0.8354 -0.4872
  772MOL0     C 1801   2.160  11.659   3.859 -0.5480  0.6096 -0.5408
  772MOL0     O 1802   2.088  11.714   3.954 -0.1804  0.3973 -0.2634
  772MOL0     C 1803   1.956  11.769   3.938 -0.8101 -0.6312 -0.3190
  772MOL0     C 1804   1.950  11.892   3.876  0.7029  0.8774 -0.6980
  772MOL0     C 1805   1.826  11.951   3.843 -0.6718 -0.7208 -0.0188
  772MOL0     C 1806   1.706  11.886   3.872  1.0308  0.2481  0.5482
  772MOL0     O 1807   1.575  11.932   3.845 -0.0020  0.3525 -0.3605
  772MOL0     C 1808   1.548  11.988   3.720  0.1338  0.2801  0.5182
  772MOL0     C 1809   1.471  12.117   3.726  0.0412  0.2522 -0.2108
  772MOL0     C 1810   1.443  12.166   3.583  0.0903 -0.5203 -0.4976
  772MOL0     C 1811   1.562  12.192   3.492  0.3108 -0.5450  0.0674
  772MOL0     C 1812   1.573  12.329   3.415 -0.0783 -0.0679 -0.6355
  772MOL0     C 1813   1.469  12.345   3.304  0.1006 -0.0538 -0.0787
  772MOL0     C 1814   1.447  12.498   3.298  0.1382  0.4896  0.6507
  772MOL0     C 1815   1.390  12.529   3.160  0.1762 -0.8762 -0.3224
  772MOL0    Cl 1816   1.223  12.458   3.150  0.1829 -0.5732  0.0339
  772MOL0     C 1817   1.711  11.755   3.935 -0.1202  0.0259 -0.6097
  772MOL0     C 1818   1.839  11.695   3.959  0.0347 -0.0480  0.3197
  772MOL0     O 1819   2.127  11.645   3.742  0.9698 -0.3558 -0.9189
  772MOL0     C 1820   2.301  11.513   4.017  0.8085 -0.3755  0.0406
  772MOL0     C 1821   2.426  11.452   4.044  0.1240 -0.4605  0.3841
  772MOL0     N 1822   2.810  10.978   4.080 -0.1787 -0.7435 -1.1531
  772MOL0     N 1823   2.877  10.902   4.162 -0.5319  0.6871 -0.2713
  772MOL0     C 1824   3.841  10.542   4.699  0.5829 -0.2926  0.6965
  772MOL0     C 1825   3.966  10.590   4.664  0.2904  0.0509  0.2868
  772MOL0     C 1826   4.402  10.707   4.645  0.5438  0.8939 -0.1335
  772MOL0     C 1827   4.492  10.596   4.651  0.2429 -0.7131  0.1878
  772MOL0     C 1828   4.633  10.608   4.646  0.6358  0.7496  0.6579
  772MOL0     C 1829   4.701  10.723   4.606 -0.0414  0.1037 -0.2066
  772MOL0     O 1830   4.830  10.733   4.598  0.1437  0.3184  0.8430
  772MOL0     C 1831   4.904  10.679   4.702  0.1708 -0.0573 -0.6476
  772MOL0     C 1832   5.050  10.728   4.699  0.1454 -0.7725  0.4509
  772MOL0     C 1833   5.110  10.712   4.558  0.3088  1.1225 -0.3646
  772MOL0     C 1834   5.113  10.563   4.503  0.7367  0.5411  0.4743
  772MOL0     C 1835   5.165  10.476   4.608  0.7798  0.6652 -0.2134
  772MOL0     C 1836   5.203  10.404   4.703  0.0345  0.1697 -0.2761
  772MOL0     C 1837   4.608  10.832   4.604  1.0432 -0.0727 -0.3025
  772MOL0     C 1838   4.463  10.828   4.630 -0.0886 -0.5766  0.6370
  772MOL0     H 1839   4.165  10.337   4.732  0.1604  2.2640 -0.0611
  772MOL0     H 1840   3.935  10.230   4.790  2.3705 -0.9686 -2.7126
  772MOL0     H 1841   3.584  10.516   4.761  2.4923 -0.0823 -2.1765
  772MOL0     H 1842   3.488  10.384   4.805 -0.2156  0.1879 -1.0553
  772MOL0     H 1843   3.540  10.274   4.595 -1.4701 -0.1770  4.1968
  772MOL0     H 1844   3.611  10.416   4.530  1.9161 -1.1583  1.2101
  772MOL0     H 1845   3.317  10.393   4.618 -0.2581 -1.5060 -0.7643
  772MOL0     H 1846   3.374  10.350   4.458  3.3507  0.0664 -0.5599
  772MOL0     H 1847   3.407  10.637   4.577 -2.4453 -0.7650  0.5720
  772MOL0     H 1848   3.470  10.570   4.421  0.8528 -3.8764  0.7063
  772MOL0     H 1849   3.176  10.608   4.499  0.1687 -1.7568  1.7520
  772MOL0     H 1850   3.217  10.504   4.373 -1.1688  1.1604  0.6558
  772MOL0     H 1851   3.354  10.679   4.273  0.7073  0.0743 -0.3083
  772MOL0     H 1852   3.288  10.800   4.394 -0.2156 -0.7673 -0.2836
  772MOL0     H 1853   3.145  10.698   4.151  0.0431 -2.1170  1.4957
  772MOL0     H 1854   3.054  10.694   4.297  1.3354  3.0967  3.3521
  772MOL0     H 1855   3.213  10.925   4.186  0.2479 -0.7229 -0.9116
  772MOL0     H 1856   3.098  10.933   4.329  1.0174 -0.9765  1.1019
  772MOL0     H 1857   3.117  11.035   3.995  1.1070  0.4737  3.4633
  772MOL0     H 1858   2.770  11.133   3.863  0.0085 -4.4489  0.9120
  772MOL0     H 1859   2.933  11.118   3.806  2.4244  0.1385  2.1575
  772MOL0     H 1860   2.899  11.363   3.871 -1.7510  1.5793  0.9552
  772MOL0     H 1861   3.021  11.292   3.970 -0.4464 -0.4597  0.0763
  772MOL0     H 1862   2.891  11.277   4.161 -0.5946 -0.3553  0.8113
  772MOL0     H 1863   2.889  11.431   4.095  0.4512 -0.2836  2.4567
  772MOL0     H 1864   2.646  11.354   4.173 -1.5094  2.0333 -0.5332
  772MOL0     H 1865   2.656  11.239   4.032 -0.8910  0.1956  1.1178
  772MOL0     H 1866   2.599  11.599   3.793 -4.1898  3.0388 -4.9840
  772MOL0     H 1867   2.374  11.680   3.738  2.8631  1.6600  0.9618
  772MOL0     H 1868   2.046  11.942   3.874  0.0755  2.5247  2.7746
  772MOL0     H 1869   1.832  12.053   3.805 -0.1618  0.4531  2.9804
  772MOL0     H 1870   1.496  11.935   3.640 -0.8938 -0.2831  1.5355
  772MOL0     H 1871   1.644  12.005   3.669 -0.0145  0.6649  0.3634
  772MOL0     H 1872   1.533  12.189   3.779 -0.7379  2.2856 -1.8875
  772MOL0     H 1873   1.370  12.096   3.763  0.9272  0.1617  2.3456
  772MOL0     H 1874   1.366  12.244   3.587  1.4392  0.8088  3.1129
  772MOL0     H 1875   1.386  12.085   3.536 -2.0660  0.1164  0.8707
  772MOL0     H 1876   1.658  12.172   3.540  2.3209  0.9449 -2.9743
  772MOL0     H 1877   1.569  12.120   3.410 -0.6563 -0.7888  0.1877
  772MOL0     H 1878   1.673  12.341   3.371 -0.6745  3.1570 -1.3940
  772MOL0     H 1879   1.569  12.412   3.486  2.2761  1.2759 -1.9143
  772MOL0     H 1880   1.379  12.289   3.330  0.1961 -0.0126  0.3425
  772MOL0     H 1881   1.506  12.299   3.212  1.6607  2.9386 -1.0837
  772MOL0     H 1882   1.375  12.534   3.373  0.2523  1.7236  0.1958
  772MOL0     H 1883   1.540  12.549   3.324  0.5511  2.4841 -3.8913
  772MOL0     H 1884   1.459  12.499   3.080 -0.6253 -1.5808 -0.7720
  772MOL0     H 1885   1.378  12.637   3.150  0.6686 -0.9610 -2.4342
  772MOL0     H 1886   1.618  11.713   3.971 -0.7121  2.1126  0.4955
  772MOL0     H 1887   1.836  11.597   4.006 -0.3330 -1.4438 -2.4134
  772MOL0     H 1888   2.219  11.496   4.085  1.2906  0.2939  0.8144
  772MOL0     H 1889   2.431  11.389   4.133 -1.9411 -1.5704 -0.2065
  772MOL0     H 1890   3.750  10.601   4.696  0.4317 -0.1455  4.1599
  772MOL0     H 1891   3.966  10.690   4.622 -0.1290  0.2628  0.7744
  772MOL0     H 1892   4.454  10.494   4.661  1.0984 -1.0378  0.1661
  772MOL0     H 1893   4.696  10.519   4.649 -1.8973 -1.2635 -0.8162
  772MOL0     H 1894   4.895  10.570   4.696 -2.8208  0.1598 -1.3813
  772MOL0     H 1895   4.872  10.716   4.800 -0.0278 -0.0383 -0.7185
  772MOL0     H 1896   5.048  10.833   4.727 -2.1194  0.0981 -2.4346
  772MOL0     H 1897   5.112  10.672   4.769  2.2325  0.7632 -0.0699
  772MOL0     H 1898   5.209  10.758   4.555 -0.8273  3.8836  1.1553
  772MOL0     H 1899   5.048  10.765   4.486  0.2532 -2.1592 -2.9860
  772MOL0     H 1900   5.008  10.544   4.482  0.1832  0.8100  2.6892
  772MOL0     H 1901   5.167  10.545   4.410  1.1064 -1.0684  0.9661
  772MOL0     H 1902   5.229  10.341   4.785 -2.3214 -3.2363 -1.9116
  772MOL0     H 1903   4.656  10.926   4.583  0.6514  0.6459  1.7475
  772MOL0     H 1904   4.398  10.915   4.621 -2.3322 -2.3331 -1.5592
  773MOL0     O 1905   9.810   5.276   2.817 -0.2832 -0.3626  0.7848
  773MOL0     C 1906   9.893   5.185   2.823 -0.1203 -0.0064 -0.7930
  773MOL0     O 1907   9.883   5.064   2.765  0.3681  0.7683  0.9262
  773MOL0     C 1908   9.759   5.000   2.740 -0.1685  0.6970 -0.5628
  773MOL0     C 1909   9.746   4.948   2.610 -0.1928  0.1267 -0.7732
  773MOL0     C 1910   9.638   4.868   2.578 -0.0323 -1.0106 -1.3765
  773MOL0     C 1911   9.533   4.854   2.668  0.3190 -0.6723  0.7119
  773MOL0     O 1912   9.424   4.784   2.623 -0.4273 -0.3287 -0.3749
  773MOL0     C 1913   9.444   4.640   2.623  0.6361 -1.2836 -0.1429
  773MOL0     C 1914   9.344   4.560   2.706  0.1152  0.0429  0.3469
  773MOL0     C 1915   9.206   4.587   2.663 -0.6882  0.3548 -0.7473
  773MOL0     C 1916   9.142   4.706   2.732  0.4653  0.0206 -0.3532
  773MOL0     C 1917   8.996   4.719   2.686 -0.4370 -0.2630  0.7939
  773MOL0     C 1918   8.905   4.642   2.771  0.6354  0.1864 -0.2813
  773MOL0     C 1919   8.760   4.644   2.724  0.2796  0.2090  0.8597
  773MOL0     C 1920   8.722   4.524   2.630 -0.0346 -0.5234  0.1952
  773MOL0     N 1921   8.579   4.491   2.636  0.7919  0.9354 -0.2468
  773MOL0     C 1922   8.489   4.568   2.562 -0.4357  0.1079 -0.5420
  773MOL0     C 1923   8.370   4.542   2.616 -0.4087  0.5478  0.1320
  773MOL0     C 1924   8.242   4.595   2.551  0.7544 -0.8618 -0.2824
  773MOL0     C 1925   8.125   4.521   2.621 -0.3418 -0.4998 -0.2496
  773MOL0     C 1926   7.998   4.558   2.555 -0.5575 -0.4879 -0.2862
  773MOL0     C 1927   7.880   4.506   2.632 -0.2835  0.0421  0.1643
  773MOL0     O 1928   7.851   4.607   2.731 -0.1233  0.0427  0.0282
  773MOL0     C 1929   7.731   4.628   2.792  0.5764  0.6731  0.4363
  773MOL0     C 1930   7.622   4.546   2.784 -0.6822 -0.1818  0.1112
  773MOL0     C 1931   7.493   4.585   2.826 -1.0444 -0.5438  0.8948
  773MOL0     C 1932   7.481   4.707   2.892  0.6622 -0.3639 -0.9210
  773MOL0     C 1933   7.347   4.748   2.941 -0.1591  0.0804  0.0377
  773MOL0     O 1934   7.252   4.657   2.953 -0.0644  0.1903  0.3552
  773MOL0     C 1935   7.117   4.694   2.919 -0.8243  0.6945  0.3995
  773MOL0     C 1936   7.091   4.678   2.785  1.0300  0.5532 -0.1491
  773MOL0     C 1937   6.958   4.678   2.732 -0.6883  0.6938 -0.9233
  773MOL0     C 1938   6.857   4.705   2.817  0.0803  0.4463 -0.2052
  773MOL0     O 1939   6.730   4.697   2.765  0.2170  0.1651 -0.4447
  773MOL0     C 1940   6.702   4.730   2.630 -0.5996  0.3821  0.2721
  773MOL0     C 1941   6.553   4.753   2.607 -0.7167 -0.6033 -0.6277
  773MOL0     C 1942   6.484   4.623   2.631 -0.4279  0.4426 -0.6742
  773MOL0     C 1943   6.334   4.649   2.596  0.0094 -0.1380  0.0624
  773MOL0     C 1944   6.245   4.541   2.657  1.1301 -0.3094  0.5986
  773MOL0     C 1945   6.286   4.402   2.616 -0.4105  0.5885 -0.5466
  773MOL0     C 1946   6.158   4.316   2.650  0.1437  1.0265  0.1559
  773MOL0     C 1947   6.061   4.325   2.526 -0.3166  0.6099  0.8948
  773MOL0    Cl 1948   5.911   4.239   2.540 -0.1410  0.3228 -0.2459
  773MOL0     C 1949   6.880   4.718   2.959 -0.4666 -0.0722  0.1205
  773MOL0     C 1950   7.013   4.707   3.012  0.5679  0.1282 -0.1166
  773MOL0     O 1951   7.335   4.862   2.989 -0.7732  0.6097  0.6458
  773MOL0     C 1952   7.601   4.778   2.922 -0.0552 -0.0912 -0.1217
  773MOL0     C 1953   7.721   4.743   2.859 -0.1220  0.5088  0.1545
  773MOL0     N 1954   8.388   4.457   2.730  0.1429  0.1113 -0.4097
  773MOL0     N 1955   8.516   4.428   2.743 -0.8749  0.0281  0.1181
  773MOL0     C 1956   9.536   4.910   2.798  0.0749 -0.1799  0.2748
  773MOL0     C 1957   9.656   4.984   2.831  0.6543 -0.6296  1.1619
  773MOL0     C 1958  10.011   5.207   2.909 -0.3182 -0.4666  0.4566
  773MOL0     C 1959  10.065   5.090   2.983  0.1697  0.3144 -0.1327
  773MOL0     C 1960  10.156   5.117   3.073  0.6717  0.3550  0.6203
  773MOL0     C 1961  10.219   5.246   3.094 -0.4726 -0.0548  0.0776
  773MOL0     O 1962  10.327   5.274   3.172  0.4276  0.7678 -0.6680
  773MOL0     C 1963  10.375   5.187   3.273  0.4422  0.1849 -0.7424
  773MOL0     C 1964  10.305   5.180   3.409  0.3675 -0.0136  0.9784
  773MOL0     C 1965  10.398   5.108   3.507 -0.0160 -0.0586  0.0791
  773MOL0     C 1966  10.321   5.055   3.631 -0.6198 -0.0409 -0.4013
  773MOL0     C 1967  10.201   4.964   3.602 -0.5297 -0.4002  0.6327
  773MOL0     C 1968  10.110   4.883   3.567  1.1729 -0.3058 -0.2571
  773MOL0     C 1969  10.163   5.356   3.024  0.4591 -0.0255 -0.2090
  773MOL0     C 1970  10.057   5.336   2.931  0.0109  0.4222 -0.8392
  773MOL0     H 1971   9.829   4.956   2.541  0.3903  0.5801 -0.0315
  773MOL0     H 1972   9.636   4.804   2.491  0.2930 -0.2048 -1.9961
  773MOL0     H 1973   9.545   4.605   2.642  1.0210  0.2706  0.8447
  773MOL0     H 1974   9.430   4.611   2.518  2.5863 -3.0829  0.0324
  773MOL0     H 1975   9.364   4.583   2.811  1.1176  1.2100 -0.0743
  773MOL0     H 1976   9.368   4.456   2.683 -1.7200  0.1092 -2.3580
  773MOL0     H 1977   9.148   4.501   2.699  0.5173 -0.0253  0.3109
  773MOL0     H 1978   9.194   4.594   2.554  0.9978  2.0989 -0.8667
  773MOL0     H 1979   9.150   4.691   2.840  3.9733  0.3601 -0.4395
  773MOL0     H 1980   9.194   4.801   2.712 -0.8983  1.3297  1.8281
  773MOL0     H 1981   8.983   4.681   2.584  0.2691 -0.1014  0.6422
  773MOL0     H 1982   8.967   4.824   2.693 -3.8128 -0.9573 -0.7850
  773MOL0     H 1983   8.914   4.695   2.867 -0.1099  0.0895 -0.1561
  773MOL0     H 1984   8.936   4.540   2.796  0.4369  0.5274  1.5128
  773MOL0     H 1985   8.688   4.631   2.805  0.0734 -4.3712  0.2251
  773MOL0     H 1986   8.748   4.741   2.675  1.5745 -0.7802 -1.6314
  773MOL0     H 1987   8.795   4.453   2.669  2.3978  3.1437  3.0745
  773MOL0     H 1988   8.729   4.544   2.523 -0.6719 -0.9540  0.0663
  773MOL0     H 1989   8.517   4.624   2.474  1.0172  0.4767  0.1273
  773MOL0     H 1990   8.254   4.582   2.443  0.7310  3.1739 -0.9215
  773MOL0     H 1991   8.223   4.701   2.570  0.6481 -1.0120  0.4880
  773MOL0     H 1992   8.120   4.547   2.727  0.7016  1.8522 -0.7238
  773MOL0     H 1993   8.140   4.412   2.623 -1.2084 -0.6554  2.6488
  773MOL0     H 1994   7.995   4.667   2.552  2.1312 -0.3561 -2.6642
  773MOL0     H 1995   7.993   4.530   2.449  0.7194  0.3250 -0.5887
  773MOL0     H 1996   7.913   4.416   2.684 -0.6927  1.0184  2.1908
  773MOL0     H 1997   7.794   4.473   2.574 -0.7101 -0.9005  1.3006
  773MOL0     H 1998   7.641   4.460   2.722  0.0922 -0.1212  0.2522
  773MOL0     H 1999   7.412   4.516   2.805 -1.0256  0.2426 -2.1139
  773MOL0     H 2000   7.161   4.657   2.705  0.4692 -1.3042 -0.2085
  773MOL0     H 2001   6.955   4.665   2.624  4.0550  1.9600 -1.4650
  773MOL0     H 2002   6.728   4.642   2.570 -0.1456  1.5434 -1.3236
  773MOL0     H 2003   6.773   4.798   2.581  2.3343 -3.4480 -1.3555
  773MOL0     H 2004   6.549   4.782   2.501  1.0210  3.0428  0.1494
  773MOL0     H 2005   6.511   4.840   2.659  0.7778 -1.0729  1.4492
  773MOL0     H 2006   6.497   4.584   2.733 -0.6337  4.2793  1.0043
  773MOL0     H 2007   6.533   4.557   2.559 -1.3717 -1.5680  0.4228
  773MOL0     H 2008   6.294   4.744   2.633  0.9403 -0.1825  1.2470
  773MOL0     H 2009   6.332   4.669   2.489 -1.5130 -1.3362 -0.1749
  773MOL0     H 2010   6.143   4.567   2.625  0.9266 -4.2024 -2.5771
  773MOL0     H 2011   6.247   4.556   2.765  2.4798  0.5424  0.4823
  773MOL0     H 2012   6.372   4.368   2.674  0.0462  2.7909  0.1968
  773MOL0     H 2013   6.308   4.396   2.509 -1.6440 -0.6911 -0.7490
  773MOL0     H 2014   6.200   4.215   2.659 -1.7773  0.0721 -1.0267
  773MOL0     H 2015   6.111   4.344   2.744 -0.7580 -2.2673  0.8134
  773MOL0     H 2016   6.104   4.303   2.428 -1.4753  1.8200  0.0806
  773MOL0     H 2017   6.040   4.430   2.507 -3.3291 -0.1087 -0.3162
  773MOL0     H 2018   6.795   4.729   3.027 -1.4302  2.2159 -1.3228
  773MOL0     H 2019   7.027   4.706   3.120 -1.3811 -1.3747  0.1739
  773MOL0     H 2020   7.589   4.860   2.991 -3.9563  0.5412 -1.3488
  773MOL0     H 2021   7.815   4.793   2.879  1.6364 -3.6177  3.8098
  773MOL0     H 2022   9.451   4.908   2.864 -0.2392 -1.0782 -0.1394
  773MOL0     H 2023   9.648   5.025   2.931  2.1051 -1.8408  1.8055
  773MOL0     H 2024  10.024   4.990   2.973  4.6246 -2.0677  2.2864
  773MOL0     H 2025  10.188   5.024   3.119  2.6327 -0.6399 -2.4918
  773MOL0     H 2026  10.481   5.213   3.285  0.1236  0.8366  0.9796
  773MOL0     H 2027  10.389   5.083   3.243  4.5103 -0.6648  3.0042
  773MOL0     H 2028  10.263   5.275   3.442 -3.5274 -0.4055 -2.1512
  773MOL0     H 2029  10.212   5.126   3.389 -2.1890  3.0623  3.4871
  773MOL0     H 2030  10.475   5.180   3.537 -1.1856  1.5509 -0.5997
  773MOL0     H 2031  10.454   5.027   3.461  0.9215  0.4272  0.3430
  773MOL0     H 2032  10.383   4.976   3.676 -1.7942 -1.0671 -0.5140
  773MOL0     H 2033  10.299   5.137   3.700  1.1141  0.6528 -0.6162
  773MOL0     H 2034  10.024   4.826   3.539 -0.3821  2.7837 -2.2846
  773MOL0     H 2035  10.206   5.455   3.034  2.3603 -0.8487  0.1864
  773MOL0     H 2036  10.002   5.414   2.880  1.4940  1.8330 -0.3715
  774MOL0     O 2037   9.084   1.109   6.473  0.3710  0.2909  0.0965
  774MOL0     C 2038   9.115   1.010   6.406 -0.4695 -0.1700  0.2608
  774MOL0     O 2039   9.029   0.914   6.349  0.5208  0.5900  0.2079
  774MOL0     C 2040   8.903   0.949   6.338  0.5473  0.1195 -0.0294
  774MOL0     C 2041   8.853   0.977   6.207  1.2443 -1.1794 -0.6322
  774MOL0     C 2042   8.707   1.009   6.197 -0.5194 -0.9165  0.0585
  774MOL0     C 2043   8.628   1.018   6.311  0.4410 -0.0527 -0.3885
  774MOL0     O 2044   8.485   1.034   6.316 -0.3962  0.5733 -0.2562
  774MOL0     C 2045   8.403   1.025   6.194 -0.1890 -0.0893 -0.5153
  774MOL0     C 2046   8.274   1.088   6.230  0.4096  0.9143  0.9350
  774MOL0     C 2047   8.257   1.243   6.196 -0.2818  0.0611  0.1990
  774MOL0     C 2048   8.113   1.278   6.215  0.6420 -0.6691  0.4296
  774MOL0     C 2049   8.080   1.425   6.183  0.2610 -1.1259  0.1635
  774MOL0     C 2050   8.185   1.528   6.244  0.5935 -0.8451  0.7920
  774MOL0     C 2051   8.137   1.675   6.248  0.0159 -0.7234  0.3244
  774MOL0     C 2052   8.242   1.757   6.327 -0.2317 -0.7375  0.4123
  774MOL0     N 2053   8.203   1.895   6.350  0.9145  0.0175  0.1186
  774MOL0     C 2054   8.223   2.000   6.258 -0.1556 -0.6679 -0.0425
  774MOL0     C 2055   8.174   2.105   6.327 -0.6093 -0.2489 -0.1547
  774MOL0     C 2056   8.185   2.245   6.270 -0.0223  0.4555  0.1873
  774MOL0     C 2057   8.160   2.337   6.386 -0.9701  0.2564  0.8408
  774MOL0     C 2058   8.144   2.489   6.334 -0.1169  0.2164 -0.1925
  774MOL0     C 2059   8.279   2.544   6.292  1.1387  0.3492  0.4334
  774MOL0     O 2060   8.253   2.666   6.222  0.8034 -0.8189  0.5856
  774MOL0     C 2061   8.198   2.650   6.093  0.7215 -0.1914  0.2480
  774MOL0     C 2062   8.184   2.540   6.010 -0.3485 -0.0976 -0.4323
  774MOL0     C 2063   8.142   2.543   5.879  0.4474  0.1133  0.8835
  774MOL0     C 2064   8.110   2.668   5.822  0.4250 -0.0398  0.2843
  774MOL0     C 2065   8.041   2.678   5.696 -0.4114 -0.2525  0.4402
  774MOL0     O 2066   7.997   2.809   5.654 -0.4230  0.7364 -0.3528
  774MOL0     C 2067   7.920   2.802   5.541  0.9455  0.6791 -1.0184
  774MOL0     C 2068   7.960   2.800   5.408  0.0065 -0.7826  0.3595
  774MOL0     C 2069   7.858   2.796   5.308 -0.4778  0.1001  0.0532
  774MOL0     C 2070   7.720   2.801   5.331 -1.2112 -0.8114 -0.0500
  774MOL0     O 2071   7.644   2.793   5.224  0.2505  0.8811  0.2737
  774MOL0     C 2072   7.507   2.768   5.259 -0.1124  0.5311 -0.5531
  774MOL0     C 2073   7.419   2.786   5.133 -0.0540 -1.0311  0.7991
  774MOL0     C 2074   7.271   2.752   5.172  0.9178  1.2075  0.4425
  774MOL0     C 2075   7.185   2.870   5.235 -0.1779  0.1957  0.1630
  774MOL0     C 2076   7.033   2.843   5.221  0.0431  0.5765 -0.1728
  774MOL0     C 2077   6.965   2.938   5.329  1.5563  0.4376 -0.0958
  774MOL0     C 2078   6.818   2.954   5.296 -1.7597 -0.2988 -0.3897
  774MOL0     C 2079   6.735   3.033   5.397  0.1033 -0.6938  0.5675
  774MOL0    Cl 2080   6.708   2.950   5.549 -0.3538  0.0130  0.0568
  774MOL0     C 2081   7.686   2.809   5.466  0.1136 -0.5479  0.4501
  774MOL0     C 2082   7.785   2.806   5.564 -0.2205 -0.8982  0.0764
  774MOL0     O 2083   8.042   2.568   5.630 -0.5650  0.3687 -0.4543
  774MOL0     C 2084   8.113   2.781   5.910 -0.1523 -0.9633 -0.3166
  774MOL0     C 2085   8.162   2.772   6.044  0.6264  0.1796  0.7956
  774MOL0     N 2086   8.134   2.063   6.455 -0.9986  0.1520  0.4609
  774MOL0     N 2087   8.150   1.935   6.466 -0.2122  0.0538 -0.2168
  774MOL0     C 2088   8.676   0.988   6.439  0.1989 -1.1821 -0.5404
  774MOL0     C 2089   8.814   0.956   6.452  0.0156 -0.3044 -0.2112
  774MOL0     C 2090   9.256   0.984   6.404 -0.7069 -0.7758 -0.3299
  774MOL0     C 2091   9.302   0.860   6.353  0.2683 -0.1357  0.1841
  774MOL0     C 2092   9.438   0.832   6.362  0.5071 -0.5821  0.6287
  774MOL0     C 2093   9.539   0.922   6.411  0.7233 -0.0930 -0.8713
  774MOL0     O 2094   9.675   0.884   6.400 -0.3096  0.0702  0.4589
  774MOL0     C 2095   9.775   0.988   6.414 -0.1776 -0.0159 -0.2548
  774MOL0     C 2096   9.912   0.923   6.369 -0.2637  0.8736  0.4276
  774MOL0     C 2097   9.910   0.910   6.215  0.2515  0.7827  0.0871
  774MOL0     C 2098   9.974   0.782   6.154  0.3380 -0.3127 -0.1420
  774MOL0     C 2099   9.949   0.773   6.005  0.5003  0.3060  1.0498
  774MOL0     C 2100   9.908   0.774   5.886  0.0995  0.0813  0.3888
  774MOL0     C 2101   9.492   1.050   6.444  0.2125  0.2614 -0.5449
  774MOL0     C 2102   9.353   1.083   6.445 -1.1018  0.0012  0.1133
  774MOL0     H 2103   8.900   0.978   6.109 -1.7470  0.9416 -2.2277
  774MOL0     H 2104   8.671   1.033   6.098  1.1147 -1.5623 -0.7227
  774MOL0     H 2105   8.390   0.921   6.162  1.9971 -0.5248 -0.1321
  774MOL0     H 2106   8.460   1.072   6.113  1.9975 -1.2202  0.2747
  774MOL0     H 2107   8.258   1.063   6.335 -1.3636 -2.1064  0.0702
  774MOL0     H 2108   8.190   1.029   6.190  0.9679  0.0806  0.9726
  774MOL0     H 2109   8.283   1.256   6.090 -0.1114  0.6839  0.3134
  774MOL0     H 2110   8.325   1.312   6.247  0.5830  1.5588 -2.7229
  774MOL0     H 2111   8.063   1.216   6.140  1.1512  0.3412 -0.7793
  774MOL0     H 2112   8.082   1.248   6.316 -0.2755 -2.1185 -0.2441
  774MOL0     H 2113   7.984   1.451   6.227  0.7365 -3.2257  2.6863
  774MOL0     H 2114   8.092   1.449   6.077  2.0364  0.7696  0.7190
  774MOL0     H 2115   8.275   1.532   6.182 -2.2748  1.7756 -3.7439
  774MOL0     H 2116   8.214   1.502   6.346  0.9371 -0.5806  0.7662
  774MOL0     H 2117   8.130   1.705   6.143  0.5540 -3.0880 -0.4413
  774MOL0     H 2118   8.038   1.691   6.293 -0.8638  1.9097 -2.2070
  774MOL0     H 2119   8.337   1.752   6.273 -1.7371 -4.4478 -2.3084
  774MOL0     H 2120   8.254   1.714   6.427 -2.8159 -1.2592  0.5570
  774MOL0     H 2121   8.256   1.994   6.155 -1.9539 -1.8170 -0.6039
  774MOL0     H 2122   8.102   2.258   6.201 -3.0662  0.4063  3.5240
  774MOL0     H 2123   8.284   2.261   6.225 -0.5562 -3.0623 -2.6397
  774MOL0     H 2124   8.245   2.333   6.455  0.1273 -2.0132 -0.5302
  774MOL0     H 2125   8.064   2.310   6.431 -0.3455 -1.2810  1.2959
  774MOL0     H 2126   8.075   2.495   6.250  0.8746 -0.9793 -1.1218
  774MOL0     H 2127   8.098   2.552   6.411 -0.9643 -0.1147 -0.4198
  774MOL0     H 2128   8.339   2.474   6.233  3.1885  2.9142 -0.7462
  774MOL0     H 2129   8.339   2.563   6.381  0.5598 -1.4411  1.2469
  774MOL0     H 2130   8.219   2.440   6.034  1.7843  0.6159 -0.3006
  774MOL0     H 2131   8.136   2.461   5.808 -2.5725  1.8165 -1.0287
  774MOL0     H 2132   8.064   2.791   5.380  1.4657 -0.9597  5.0018
  774MOL0     H 2133   7.884   2.788   5.203 -0.2071 -0.3588  0.1532
  774MOL0     H 2134   7.476   2.853   5.321  1.3482  2.2543 -2.0627
  774MOL0     H 2135   7.499   2.668   5.302  0.2971  0.3540 -0.8877
  774MOL0     H 2136   7.458   2.731   5.047 -0.5197 -0.7552  0.4040
  774MOL0     H 2137   7.428   2.888   5.095 -1.6545 -1.2549 -0.2875
  774MOL0     H 2138   7.279   2.671   5.244  2.6148  0.7075 -0.2760
  774MOL0     H 2139   7.223   2.719   5.079  5.0443  2.2777 -2.3379
  774MOL0     H 2140   7.217   2.865   5.340  1.4180  0.1475 -0.2940
  774MOL0     H 2141   7.206   2.964   5.184  0.1131 -0.4462 -0.9304
  774MOL0     H 2142   7.007   2.745   5.261  2.2209  0.3758  0.8708
  774MOL0     H 2143   6.999   2.868   5.120 -0.7530  1.7055  0.3507
  774MOL0     H 2144   6.998   3.043   5.334  1.1361  0.7420 -2.3018
  774MOL0     H 2145   6.972   2.895   5.429  0.9409 -3.4018 -1.5419
  774MOL0     H 2146   6.816   3.005   5.199 -1.2489  2.8097  1.1075
  774MOL0     H 2147   6.785   2.852   5.274 -1.9319 -0.2066 -0.5708
  774MOL0     H 2148   6.634   3.043   5.356 -0.3315 -0.0734  1.7252
  774MOL0     H 2149   6.781   3.132   5.408  0.1326 -0.6926  0.4326
  774MOL0     H 2150   7.581   2.825   5.490  0.4320 -1.2195  2.4563
  774MOL0     H 2151   7.768   2.816   5.671 -0.7681  1.4784 -0.1583
  774MOL0     H 2152   8.090   2.883   5.879  0.0693 -0.3901  1.3284
  774MOL0     H 2153   8.183   2.867   6.092 -1.2758  1.6027 -0.9919
  774MOL0     H 2154   8.601   1.007   6.515 -2.1335 -1.1019 -2.6906
  774MOL0     H 2155   8.862   0.947   6.549 -1.4629 -2.1681  0.4016
  774MOL0     H 2156   9.232   0.785   6.319  0.8320 -0.2120 -0.8727
  774MOL0     H 2157   9.475   0.735   6.332  3.1425 -0.6282  3.5326
  774MOL0     H 2158   9.764   1.034   6.513  0.2766  0.3162 -0.3552
  774MOL0     H 2159   9.779   1.076   6.350 -1.2109 -1.3668 -2.2669
  774MOL0     H 2160   9.999   0.984   6.391  0.9273 -0.0040 -1.5456
  774MOL0     H 2161   9.920   0.826   6.420 -1.9842  0.6797  0.4049
  774MOL0     H 2162   9.972   0.989   6.172 -0.2704  0.4821 -1.2722
  774MOL0     H 2163   9.806   0.920   6.183 -0.9152 -3.5835  1.7613
  774MOL0     H 2164  10.082   0.781   6.173  0.4822  0.1912 -0.9059
  774MOL0     H 2165   9.935   0.691   6.200  1.3341 -1.5320 -1.6073
  774MOL0     H 2166   9.865   0.779   5.789 -0.3671 -0.5336  0.5563
  774MOL0     H 2167   9.561   1.129   6.472  0.9270 -0.6717  0.3808
  774MOL0     H 2168   9.328   1.185   6.472 -0.3879  0.7859 -1.9673
  775MOL0     O 2169   2.254   2.057   7.301  0.3393  0.3914 -0.4130
  775MOL0     C 2170   2.308   2.131   7.385  0.2147 -0.1488 -0.3198
  775MOL0     O 2171   2.294   2.264   7.391  0.2652  0.0583  0.3006
  775MOL0     C 2172   2.203   2.328   7.310 -0.6062 -0.2157  1.1783
  775MOL0     C 2173   2.258   2.376   7.186 -0.3581 -0.0531  0.2881
  775MOL0     C 2174   2.169   2.446   7.094  0.5328  0.7119 -0.2526
  775MOL0     C 2175   2.036   2.458   7.124  0.0902  0.2215 -0.5330
  775MOL0     O 2176   1.948   2.517   7.035  0.5903  0.5979  0.3609
  775MOL0     C 2177   1.974   2.654   7.015 -0.8321 -0.4730  0.3070
  775MOL0     C 2178   1.844   2.729   6.990  0.5641 -0.1311 -0.4056
  775MOL0     C 2179   1.813   2.742   6.836 -0.6063 -0.2196 -0.6000
  775MOL0     C 2180   1.704   2.843   6.802 -0.0101  0.6545 -0.3387
  775MOL0     C 2181   1.566   2.777   6.839 -0.2848  0.2293 -0.0256
  775MOL0     C 2182   1.457   2.881   6.808  0.5042  0.6522 -0.3061
  775MOL0     C 2183   1.316   2.827   6.871 -0.2158  0.0769 -0.7471
  775MOL0     C 2184   1.199   2.916   6.844  0.1360 -0.2002 -0.6151
  775MOL0     N 2185   1.077   2.849   6.884  1.0470 -0.4017 -0.9448
  775MOL0     C 2186   0.991   2.781   6.804 -1.0390 -1.1148  0.4921
  775MOL0     C 2187   0.883   2.753   6.882 -0.4005  0.5557  0.3460
  775MOL0     C 2188   0.765   2.672   6.866 -0.7012 -0.7343  0.2451
  775MOL0     C 2189   0.813   2.524   6.873 -0.6349  0.1627 -0.0523
  775MOL0     C 2190   0.690   2.428   6.859 -0.7171  0.3140 -0.4219
  775MOL0     C 2191   0.740   2.283   6.859 -0.6548 -0.9514  0.5735
  775MOL0     O 2192   0.623   2.194   6.857  0.2301  0.2327  0.6213
  775MOL0     C 2193   0.654   2.065   6.823 -0.4639  0.1249  0.0117
  775MOL0     C 2194   0.540   1.986   6.825  0.0914 -0.8029  0.5399
  775MOL0     C 2195   0.529   1.852   6.776 -0.8840 -0.0429  0.8665
  775MOL0     C 2196   0.646   1.793   6.721 -0.1192 -0.1607 -0.1022
  775MOL0     C 2197   0.635   1.659   6.659  0.5018  0.9538 -0.2111
  775MOL0     O 2198   0.750   1.607   6.608  0.0210 -0.0546 -0.1367
  775MOL0     C 2199   0.752   1.489   6.550 -1.2277  0.0478 -0.0123
  775MOL0     C 2200   0.832   1.385   6.604  0.2694  1.0471  0.1264
  775MOL0     C 2201   0.834   1.263   6.539  0.9929 -0.2725 -0.0034
  775MOL0     C 2202   0.749   1.236   6.432 -0.3403 -0.6629  0.1736
  775MOL0     O 2203   0.746   1.103   6.384 -0.8353  0.7988  0.3403
  775MOL0     C 2204   0.701   1.083   6.248  0.4907 -0.8627  0.5745
  775MOL0     C 2205   0.719   0.934   6.206  1.2122 -0.2490 -0.3461
  775MOL0     C 2206   0.867   0.895   6.197 -0.9248  0.3311 -1.0611
  775MOL0     C 2207   0.896   0.777   6.104 -0.4479  0.3791  0.3282
  775MOL0     C 2208   1.007   0.681   6.138 -0.1189 -0.0708  0.0273
  775MOL0     C 2209   1.135   0.754   6.181 -0.0550  0.4170 -0.9511
  775MOL0     C 2210   1.248   0.653   6.154 -0.1987 -0.1021 -0.3348
  775MOL0     C 2211   1.389   0.703   6.191 -0.5111 -0.0993  0.6601
  775MOL0    Cl 2212   1.506   0.579   6.151 -0.1800  0.3659 -0.4198
  775MOL0     C 2213   0.663   1.333   6.388 -0.4956 -0.8906 -0.0898
  775MOL0     C 2214   0.675   1.464   6.437  0.2238 -0.3478 -0.0615
  775MOL0     O 2215   0.529   1.594   6.671 -0.4351  0.2563  0.2942
  775MOL0     C 2216   0.768   1.869   6.719 -0.5100 -1.4182  0.2814
  775MOL0     C 2217   0.766   2.007   6.760 -0.3892  0.8208  0.0697
  775MOL0     N 2218   0.918   2.809   7.011  0.1067 -0.4057 -0.0261
  775MOL0     N 2219   1.036   2.853   7.014 -0.1189  0.4690 -0.1664
  775MOL0     C 2220   1.980   2.400   7.241  0.0579 -0.5211  0.9744
  775MOL0     C 2221   2.064   2.334   7.336  0.0423 -0.1796  1.4782
  775MOL0     C 2222   2.418   2.080   7.465  0.5449 -0.6269  0.7050
  775MOL0     C 2223   2.464   1.954   7.429 -0.3541 -1.8166  0.2664
  775MOL0     C 2224   2.562   1.897   7.514 -0.0236  0.6481  0.6643
  775MOL0     C 2225   2.623   1.958   7.627  0.3314  0.3446 -0.2459
  775MOL0     O 2226   2.726   1.896   7.686 -0.2516  0.1769 -0.1104
  775MOL0     C 2227   2.798   1.970   7.783 -0.6281 -0.4120  0.0202
  775MOL0     C 2228   2.937   1.904   7.801 -0.0331  0.9118  0.4471
  775MOL0     C 2229   3.036   1.981   7.885 -0.1005  0.3334 -0.0460
  775MOL0     C 2230   2.997   1.987   8.037  0.5882 -0.3268  0.3256
  775MOL0     C 2231   3.014   1.864   8.104 -0.1271 -0.2493  0.1284
  775MOL0     C 2232   3.024   1.771   8.181  0.1246 -0.5741  0.6483
  775MOL0     C 2233   2.568   2.086   7.657  0.4733 -0.0311  0.6962
  775MOL0     C 2234   2.464   2.144   7.581  0.1160 -0.0190 -0.0141
  775MOL0     H 2235   2.362   2.371   7.155 -0.4247  0.2038  0.0221
  775MOL0     H 2236   2.218   2.500   7.014 -1.0956  1.7474 -0.5912
  775MOL0     H 2237   2.044   2.660   6.932 -1.0555 -0.9539  0.0774
  775MOL0     H 2238   2.031   2.697   7.098 -1.7862  0.5181  0.4914
  775MOL0     H 2239   1.868   2.831   7.023  3.3676 -0.4655 -1.1687
  775MOL0     H 2240   1.756   2.697   7.047  1.2570 -0.9253  0.2459
  775MOL0     H 2241   1.783   2.652   6.782 -1.2364  1.3528 -3.0769
  775MOL0     H 2242   1.904   2.788   6.794  0.0919  1.1807  2.1850
  775MOL0     H 2243   1.718   2.930   6.868  2.3439 -0.9148  1.4135
  775MOL0     H 2244   1.702   2.870   6.696 -2.1161  0.6982 -0.3397
  775MOL0     H 2245   1.555   2.757   6.946  1.1093  0.4342  0.1735
  775MOL0     H 2246   1.556   2.676   6.798 -1.7834  0.0579  0.6890
  775MOL0     H 2247   1.428   2.888   6.703 -4.5578  0.5045  0.8298
  775MOL0     H 2248   1.477   2.983   6.843 -3.8222  0.8169  2.3549
  775MOL0     H 2249   1.287   2.731   6.827 -0.4131 -0.3119  0.2123
  775MOL0     H 2250   1.327   2.808   6.978  2.3708  0.3436 -0.9039
  775MOL0     H 2251   1.190   2.946   6.739 -3.0655 -0.3756 -0.4635
  775MOL0     H 2252   1.222   3.005   6.903 -1.8619 -0.9688  1.4566
  775MOL0     H 2253   0.996   2.764   6.697 -1.0810  3.4627 -0.4368
  775MOL0     H 2254   0.711   2.690   6.773 -0.7062 -2.4835 -0.1201
  775MOL0     H 2255   0.694   2.702   6.944 -0.7017 -1.4522  0.5325
  775MOL0     H 2256   0.864   2.491   6.964 -1.6807 -2.5428 -0.3660
  775MOL0     H 2257   0.891   2.504   6.798  2.2472 -1.1585  3.0565
  775MOL0     H 2258   0.619   2.450   6.939  0.1256 -0.2420  0.5056
  775MOL0     H 2259   0.634   2.455   6.769  0.3412  3.4089 -0.2799
  775MOL0     H 2260   0.809   2.258   6.941  1.7481  0.4638 -0.8927
  775MOL0     H 2261   0.806   2.283   6.772  0.7120  4.9221  1.1665
  775MOL0     H 2262   0.446   2.031   6.856  1.4850  2.7082  0.0664
  775MOL0     H 2263   0.435   1.798   6.766 -1.1649  0.7216 -1.2077
  775MOL0     H 2264   0.883   1.398   6.699  0.1783 -1.1651  0.5334
  775MOL0     H 2265   0.900   1.184   6.573 -1.2780 -1.9465  0.7854
  775MOL0     H 2266   0.761   1.135   6.172 -1.8250 -2.5027 -2.6205
  775MOL0     H 2267   0.594   1.107   6.249  0.3291 -1.5505  0.3190
  775MOL0     H 2268   0.664   0.927   6.112 -4.2737 -5.1370  2.5660
  775MOL0     H 2269   0.665   0.867   6.274  0.3597  0.6796 -0.0966
  775MOL0     H 2270   0.909   0.868   6.294  0.0291 -0.3703 -1.6500
  775MOL0     H 2271   0.928   0.984   6.178  2.1328 -1.5942 -0.9299
  775MOL0     H 2272   0.803   0.721   6.090  0.3096 -0.1543 -4.1332
  775MOL0     H 2273   0.914   0.807   6.001  0.3817 -2.4071 -0.4312
  775MOL0     H 2274   1.030   0.629   6.045 -2.6197  1.0146 -1.2805
  775MOL0     H 2275   0.986   0.609   6.219  1.2805  0.9578  1.3633
  775MOL0     H 2276   1.122   0.771   6.288  2.1633 -1.7390 -0.2511
  775MOL0     H 2277   1.171   0.840   6.124  0.1537 -1.8010 -4.4717
  775MOL0     H 2278   1.243   0.556   6.206  0.1590  1.9677  4.0226
  775MOL0     H 2279   1.236   0.631   6.048 -3.1304  3.2806 -0.9014
  775MOL0     H 2280   1.399   0.712   6.300 -0.0347  2.6071  0.4666
  775MOL0     H 2281   1.406   0.790   6.126 -2.8098 -0.1696 -0.1304
  775MOL0     H 2282   0.607   1.311   6.298  1.3182 -0.4485 -1.3899
  775MOL0     H 2283   0.623   1.547   6.391  0.3498 -1.0292 -1.5086
  775MOL0     H 2284   0.861   1.843   6.670 -0.3406 -0.6967  0.2075
  775MOL0     H 2285   0.859   2.063   6.751 -0.9922  2.0546  1.1760
  775MOL0     H 2286   1.875   2.390   7.266 -0.3502 -1.2204 -0.8981
  775MOL0     H 2287   2.037   2.326   7.440  0.8144  2.0484  1.9002
  775MOL0     H 2288   2.449   1.893   7.341  1.3540 -1.7921 -0.0749
  775MOL0     H 2289   2.597   1.796   7.494  0.0944  0.7971  0.0922
  775MOL0     H 2290   2.740   1.985   7.875  3.1300 -0.9249  2.7106
  775MOL0     H 2291   2.821   2.068   7.739 -3.3019 -1.0463 -3.1621
  775MOL0     H 2292   2.923   1.799   7.830  5.2656 -0.4804 -0.7913
  775MOL0     H 2293   2.979   1.897   7.700 -0.0276 -3.1500  0.5470
  775MOL0     H 2294   3.032   2.083   7.846 -1.5991  0.0833 -0.5752
  775MOL0     H 2295   3.139   1.945   7.870 -1.1148 -1.9068 -2.3283
  775MOL0     H 2296   3.073   2.058   8.070  0.6527 -0.4385  0.4173
  775MOL0     H 2297   2.893   2.021   8.047 -0.4074 -2.7385 -0.9974
  775MOL0     H 2298   3.019   1.682   8.240  3.3877 -2.9600 -2.2113
  775MOL0     H 2299   2.605   2.136   7.745  0.9422  2.6052 -0.8957
  775MOL0     H 2300   2.444   2.249   7.600  0.2846  0.2771 -1.3782
  776MOL0     O 2301   2.650   5.264   0.615 -0.4614 -0.8074  0.8310
  776MOL0     C 2302   2.711   5.195   0.689  0.2339 -0.6370 -0.0897
  776MOL0     O 2303   2.665   5.115   0.795 -0.0434  0.4248  0.0688
  776MOL0     C 2304   2.532   5.130   0.824 -0.0283  0.2997 -0.7153
  776MOL0     C 2305   2.466   5.011   0.843  1.2610 -0.5145 -0.6917
  776MOL0     C 2306   2.329   5.012   0.891  0.2666  0.6654  0.2269
  776MOL0     C 2307   2.271   5.140   0.920 -0.8656 -0.2551 -1.0373
  776MOL0     O 2308   2.144   5.165   0.967 -0.1714 -1.2236  0.2898
  776MOL0     C 2309   2.059   5.053   1.011 -1.1719  0.3664  0.5815
  776MOL0     C 2310   1.977   4.993   0.902 -0.2392  0.8079  0.2457
  776MOL0     C 2311   1.843   4.964   0.956  0.3635  0.1907  0.3531
  776MOL0     C 2312   1.742   4.929   0.838 -0.2848 -0.8803  0.5645
  776MOL0     C 2313   1.606   4.932   0.882  0.3888 -0.4425 -0.4154
  776MOL0     C 2314   1.515   4.877   0.776  0.1549 -0.0580 -0.3527
  776MOL0     C 2315   1.371   4.857   0.814 -0.8945  0.3473 -0.2239
  776MOL0     C 2316   1.292   4.818   0.699  0.1575 -0.0670 -0.4854
  776MOL0     N 2317   1.158   4.774   0.746 -0.5141 -0.1622 -0.0369
  776MOL0     C 2318   1.070   4.832   0.840 -0.4733  0.3242 -0.6727
  776MOL0     C 2319   0.951   4.767   0.822  0.9800 -0.1928 -0.4104
  776MOL0     C 2320   0.831   4.786   0.912 -0.2754  0.1941  0.7209
  776MOL0     C 2321   0.744   4.900   0.849 -0.2086  0.1613  0.2448
  776MOL0     C 2322   0.654   4.962   0.953  0.4426  0.1914 -0.8230
  776MOL0     C 2323   0.517   4.895   0.962 -0.2580 -0.3649 -0.5582
  776MOL0     O 2324   0.440   4.940   1.072 -0.0524  0.1748 -0.0910
  776MOL0     C 2325   0.308   4.895   1.084  0.0083 -0.7432 -1.2561
  776MOL0     C 2326   0.244   4.820   0.986 -0.4684  0.8244  0.4187
  776MOL0     C 2327   0.120   4.771   1.001  0.0936  0.9214 -0.0966
  776MOL0     C 2328   0.049   4.797   1.120 -0.5276 -0.4162 -0.3137
  776MOL0     C 2329  -0.079   4.736   1.149 -0.1505  0.2782  0.0055
  776MOL0     O 2330  -0.111   4.626   1.065 -0.3287  0.0507  0.1552
  776MOL0     C 2331  -0.246   4.589   1.076  0.7845 -0.1011 -0.7216
  776MOL0     C 2332  -0.350   4.675   1.041  0.3394 -1.0634 -0.5155
  776MOL0     C 2333  -0.489   4.640   1.049 -0.3541 -1.0679 -0.0300
  776MOL0     C 2334  -0.518   4.521   1.105  0.1203 -0.5632 -1.2660
  776MOL0     O 2335  -0.647   4.492   1.152 -0.4003 -0.7304  0.9242
  776MOL0     C 2336  -0.732   4.605   1.181  0.2220 -0.3626 -0.4195
  776MOL0     C 2337  -0.859   4.567   1.252  0.3798 -0.1057  1.1259
  776MOL0     C 2338  -0.970   4.661   1.275 -0.7444 -0.1271  0.5281
  776MOL0     C 2339  -1.016   4.739   1.152 -0.0665  0.2602  1.1735
  776MOL0     C 2340  -1.065   4.653   1.047 -0.8719  0.1683  0.6934
  776MOL0     C 2341  -1.117   4.746   0.940  0.0707 -0.3196 -0.0532
  776MOL0     C 2342  -1.156   4.682   0.807  0.1747 -0.2152 -0.6398
  776MOL0     C 2343  -1.224   4.771   0.706 -0.7662 -0.1149  0.1458
  776MOL0    Cl 2344  -1.389   4.828   0.755 -0.2335  0.2190 -0.2412
  776MOL0     C 2345  -0.420   4.422   1.113  0.3986  0.3439 -0.5716
  776MOL0     C 2346  -0.283   4.449   1.098 -0.2634  0.3217  0.1046
  776MOL0     O 2347  -0.147   4.773   1.240  0.0155  0.1829 -0.1242
  776MOL0     C 2348   0.113   4.874   1.220  0.2619 -0.4500  0.7844
  776MOL0     C 2349   0.243   4.924   1.197  0.9659  0.2303  0.4385
  776MOL0     N 2350   0.959   4.674   0.715 -0.0294 -0.3236 -0.1747
  776MOL0     N 2351   1.086   4.692   0.667 -0.2080  0.7284 -0.2320
  776MOL0     C 2352   2.348   5.259   0.909 -0.6103 -0.3146  0.0331
  776MOL0     C 2353   2.468   5.248   0.859  0.6700  0.6481  0.1080
  776MOL0     C 2354   2.863   5.201   0.669 -0.6937  0.3595 -1.0222
  776MOL0     C 2355   2.920   5.263   0.567  0.3611 -0.2507 -0.7566
  776MOL0     C 2356   3.055   5.263   0.559 -0.3032  0.6020  0.0426
  776MOL0     C 2357   3.137   5.179   0.638 -0.4504 -0.1151 -0.8690
  776MOL0     O 2358   3.275   5.167   0.619 -0.0752 -0.6275  0.2670
  776MOL0     C 2359   3.364   5.278   0.598  0.4948  0.1005  0.5500
  776MOL0     C 2360   3.503   5.234   0.558 -0.0792 -0.9534 -0.1257
  776MOL0     C 2361   3.583   5.365   0.521  0.5248 -0.2172  0.2263
  776MOL0     C 2362   3.640   5.437   0.648  0.3865  0.2024  0.7953
  776MOL0     C 2363   3.776   5.475   0.618 -0.4312 -0.1157  0.0180
  776MOL0     C 2364   3.883   5.528   0.581  0.0734 -0.3419  0.4702
  776MOL0     C 2365   3.078   5.102   0.734  1.2515 -0.0434  0.0717
  776MOL0     C 2366   2.939   5.130   0.766  0.5394  0.2556 -0.5444
  776MOL0     H 2367   2.511   4.923   0.800  1.4547  0.0873 -1.7643
  776MOL0     H 2368   2.266   4.927   0.917  0.8974 -0.3689 -1.4606
  776MOL0     H 2369   1.993   5.090   1.089 -1.0817 -2.1037  1.9333
  776MOL0     H 2370   2.118   4.982   1.069 -2.4288 -0.8614  0.4152
  776MOL0     H 2371   2.036   4.907   0.867  1.5882  1.2879  1.9505
  776MOL0     H 2372   1.983   5.057   0.813  1.9770 -1.2100 -1.1872
  776MOL0     H 2373   1.790   5.043   1.010 -1.9501 -1.7232  1.0699
  776MOL0     H 2374   1.839   4.888   1.034 -0.3749  2.1820  2.3675
  776MOL0     H 2375   1.761   4.998   0.755  0.2138  1.1195  2.2724
  776MOL0     H 2376   1.763   4.829   0.800  0.8943  0.1975 -1.8694
  776MOL0     H 2377   1.576   5.022   0.935  2.0414  0.2600 -0.5990
  776MOL0     H 2378   1.603   4.855   0.960 -1.5641  0.7932  0.7940
  776MOL0     H 2379   1.548   4.783   0.733 -0.9776 -0.7342  0.2078
  776MOL0     H 2380   1.526   4.952   0.697 -2.6523 -0.2317 -1.0265
  776MOL0     H 2381   1.370   4.776   0.887 -2.5374 -1.0799 -1.7101
  776MOL0     H 2382   1.328   4.939   0.873  1.5875  2.8206 -1.5943
  776MOL0     H 2383   1.342   4.734   0.649 -1.8599 -3.1119  2.1797
  776MOL0     H 2384   1.279   4.896   0.624 -0.7804 -0.2607 -0.5310
  776MOL0     H 2385   1.085   4.906   0.918 -0.9680 -0.7181  0.4645
  776MOL0     H 2386   0.859   4.819   1.013  1.2436 -0.2891  0.4795
  776MOL0     H 2387   0.777   4.691   0.919 -1.5049  0.5155 -2.5409
  776MOL0     H 2388   0.693   4.851   0.765  3.1951 -1.3761 -1.1209
  776MOL0     H 2389   0.810   4.969   0.794 -1.0197 -0.7006 -1.9137
  776MOL0     H 2390   0.702   4.963   1.051 -2.8109  0.4406  0.8893
  776MOL0     H 2391   0.641   5.067   0.927  0.4354  0.3870 -0.0578
  776MOL0     H 2392   0.528   4.787   0.974 -0.3250 -0.3819 -0.6501
  776MOL0     H 2393   0.468   4.916   0.867  0.7239  2.1795 -0.5916
  776MOL0     H 2394   0.295   4.796   0.894 -4.4218 -1.8920 -1.3810
  776MOL0     H 2395   0.078   4.702   0.929  1.2778 -0.5415  0.5719
  776MOL0     H 2396  -0.328   4.777   1.010 -3.7101 -0.3649 -1.8100
  776MOL0     H 2397  -0.568   4.705   1.011 -0.3311 -0.2651  1.2512
  776MOL0     H 2398  -0.760   4.656   1.088 -2.4676  0.9913  1.0123
  776MOL0     H 2399  -0.688   4.683   1.244 -0.9616  0.0758 -0.1085
  776MOL0     H 2400  -0.822   4.529   1.348  2.1579 -1.5809 -0.0830
  776MOL0     H 2401  -0.896   4.473   1.209  5.4062 -0.8257 -2.5641
  776MOL0     H 2402  -0.927   4.736   1.342  1.0232 -0.4273 -0.2199
  776MOL0     H 2403  -1.047   4.604   1.328 -0.7832  0.2039  0.8313
  776MOL0     H 2404  -1.099   4.807   1.173 -0.1693 -0.4452  3.2527
  776MOL0     H 2405  -0.932   4.794   1.110  0.6005 -1.5914 -0.0745
  776MOL0     H 2406  -1.143   4.586   1.083  0.1356 -2.5926 -1.8215
  776MOL0     H 2407  -0.983   4.600   0.996 -0.5064  1.5783 -0.2618
  776MOL0     H 2408  -1.040   4.814   0.904 -1.6048 -0.0067 -3.3838
  776MOL0     H 2409  -1.203   4.799   0.984 -0.0994 -0.0179 -0.7406
  776MOL0     H 2410  -1.063   4.649   0.759  1.3546  1.2474  0.5463
  776MOL0     H 2411  -1.210   4.587   0.818 -0.6667 -0.0587 -2.9201
  776MOL0     H 2412  -1.230   4.744   0.600  0.0037  1.6301 -0.3745
  776MOL0     H 2413  -1.177   4.870   0.708 -0.7874 -0.1142  0.7126
  776MOL0     H 2414  -0.449   4.324   1.148 -0.4485  0.7403 -0.1272
  776MOL0     H 2415  -0.200   4.379   1.107 -0.6452 -0.1381  0.1168
  776MOL0     H 2416   0.067   4.919   1.307 -0.8578 -0.5322  0.2540
  776MOL0     H 2417   0.281   4.990   1.275  2.0084  2.0708 -1.5229
  776MOL0     H 2418   2.301   5.351   0.944 -0.9901 -0.1456 -0.8795
  776MOL0     H 2419   2.525   5.337   0.835 -0.5335  0.8612 -2.2634
  776MOL0     H 2420   2.852   5.322   0.506 -0.3460  1.2329  1.3543
  776MOL0     H 2421   3.098   5.325   0.482 -2.4187  0.4651 -1.3220
  776MOL0     H 2422   3.381   5.329   0.693 -0.4693 -1.8525  1.8563
  776MOL0     H 2423   3.317   5.337   0.519  0.0997  2.2790  2.3169
  776MOL0     H 2424   3.552   5.199   0.650  0.9363  1.4302  0.3272
  776MOL0     H 2425   3.510   5.167   0.473 -1.8700 -1.5000  0.1315
  776MOL0     H 2426   3.522   5.431   0.459 -1.5044 -2.1777 -0.0066
  776MOL0     H 2427   3.667   5.336   0.457 -0.2097 -0.4342 -0.6581
  776MOL0     H 2428   3.585   5.526   0.679 -3.2778 -1.5593 -0.0456
  776MOL0     H 2429   3.644   5.368   0.732  2.7695 -2.1294 -1.0879
  776MOL0     H 2430   3.974   5.576   0.552 -0.3940 -0.3041 -1.0219
  776MOL0     H 2431   3.124   5.031   0.802 -0.1383  0.3320  1.4566
  776MOL0     H 2432   2.895   5.086   0.856  0.6366  1.6003  0.1943
  777MOL0     O 2433   5.095   5.590  10.842  0.5718  0.8309  0.5226
  777MOL0     C 2434   5.101   5.467  10.829  0.2749 -0.3577  0.1284
  777MOL0     O 2435   4.999   5.397  10.771 -0.3885 -0.0194 -0.1876
  777MOL0     C 2436   4.888   5.466  10.732  0.9171 -0.3833 -0.9794
  777MOL0     C 2437   4.884   5.512  10.601 -0.5114  0.3949 -0.7376
  777MOL0     C 2438   4.779   5.595  10.555 -0.0610 -0.0019 -0.1123
  777MOL0     C 2439   4.677   5.630  10.636  0.1804  0.0738  0.0973
  777MOL0     O 2440   4.587   5.721  10.583  0.0844 -0.0243 -0.1227
  777MOL0     C 2441   4.455   5.735  10.646  0.2104 -0.6145 -0.7548
  777MOL0     C 2442   4.370   5.821  10.564  0.3322  0.5501 -0.3442
  777MOL0     C 2443   4.394   5.968  10.592  0.0433 -1.1642 -0.3687
  777MOL0     C 2444   4.298   6.072  10.530 -0.9734  1.0383 -0.0290
  777MOL0     C 2445   4.150   6.055  10.560 -0.4729  0.1711  0.0018
  777MOL0     C 2446   4.072   6.157  10.474  0.5566  0.0523  0.4216
  777MOL0     C 2447   4.064   6.123  10.327  0.2994  0.8078  0.6634
  777MOL0     C 2448   3.938   6.187  10.264  0.0278  0.0022 -0.5048
  777MOL0     N 2449   3.811   6.123  10.315 -0.1548 -0.0978 -0.7355
  777MOL0     C 2450   3.804   5.992  10.357 -0.3342 -0.5176 -0.4631
  777MOL0     C 2451   3.688   5.976  10.418 -0.8331 -0.5162 -0.6769
  777MOL0     C 2452   3.644   5.846  10.473  0.0559  0.1652 -0.4845
  777MOL0     C 2453   3.526   5.859  10.574  0.5501 -0.3400 -0.0493
  777MOL0     C 2454   3.546   5.940  10.711  0.0538 -0.6460  0.8845
  777MOL0     C 2455   3.623   5.860  10.812 -0.0808 -0.0133  0.6458
  777MOL0     O 2456   3.768   5.881  10.782  0.4321  0.6144 -0.6139
  777MOL0     C 2457   3.856   5.804  10.848 -0.0569 -0.0114 -0.2000
  777MOL0     C 2458   3.852   5.774  10.980 -0.7964 -0.1492 -0.1630
  777MOL0     C 2459   3.958   5.711  11.047  0.3617  0.5534 -0.2357
  777MOL0     C 2460   4.070   5.671  10.978  0.5448 -0.5218  0.9054
  777MOL0     C 2461   4.188   5.606  11.045  0.9429 -0.3025 -0.2483
  777MOL0     O 2462   4.294   5.574  10.968 -0.7446 -0.9846 -0.9754
  777MOL0     C 2463   4.399   5.509  11.020 -0.5306  0.5376  0.2084
  777MOL0     C 2464   4.418   5.370  10.966  0.2134  0.0013 -0.3228
  777MOL0     C 2465   4.537   5.300  11.012  0.0429  0.3830 -0.0223
  777MOL0     C 2466   4.629   5.353  11.104 -0.2666  0.9586 -0.2409
  777MOL0     O 2467   4.734   5.274  11.134  0.1555 -0.0737  0.3633
  777MOL0     C 2468   4.841   5.329  11.217 -0.6643  0.8405  0.5336
  777MOL0     C 2469   4.919   5.209  11.266  0.2964  0.0810  0.7188
  777MOL0     C 2470   5.057   5.250  11.316  0.2829 -0.4933  0.4059
  777MOL0     C 2471   5.129   5.133  11.369 -0.1334 -0.8164  0.0906
  777MOL0     C 2472   5.282   5.140  11.338 -0.1601 -0.5957 -0.9855
  777MOL0     C 2473   5.365   5.018  11.391 -0.6690 -0.9732 -0.2979
  777MOL0     C 2474   5.326   4.882  11.329  0.4061  0.2211 -0.0099
  777MOL0     C 2475   5.417   4.773  11.357 -0.4628  1.1750  0.5664
  777MOL0    Cl 2476   5.512   4.733  11.208  0.0303 -0.0235  0.0129
  777MOL0     C 2477   4.602   5.481  11.132  0.4377 -0.5823  0.1330
  777MOL0     C 2478   4.495   5.565  11.101  0.8715  0.5766 -0.2396
  777MOL0     O 2479   4.179   5.608  11.170 -1.0620 -0.5370 -0.0492
  777MOL0     C 2480   4.068   5.676  10.841  0.7499  0.4980  0.4471
  777MOL0     C 2481   3.961   5.745  10.774  0.0770  0.3952 -0.4054
  777MOL0     N 2482   3.616   6.093  10.410 -0.1004 -0.5280 -0.4717
  777MOL0     N 2483   3.698   6.183  10.359 -0.6164  0.6256 -0.0267
  777MOL0     C 2484   4.672   5.576  10.761  0.1227 -0.7887 -0.3742
  777MOL0     C 2485   4.778   5.492  10.814 -0.2030 -1.1174  0.6502
  777MOL0     C 2486   5.218   5.381  10.868 -0.1023 -0.1559 -0.4542
  777MOL0     C 2487   5.218   5.244  10.860 -0.8569  0.4418  0.4118
  777MOL0     C 2488   5.337   5.177  10.906 -0.4166  0.4587  0.3216
  777MOL0     C 2489   5.439   5.241  10.962  0.4972 -0.1887  0.0858
  777MOL0     O 2490   5.543   5.159  11.006 -0.0109  0.6749 -0.1183
  777MOL0     C 2491   5.652   5.212  11.087  0.0008  0.3085  0.3116
  777MOL0     C 2492   5.750   5.110  11.141  0.1963 -0.4433  0.2134
  777MOL0     C 2493   5.824   5.030  11.033 -0.0572  0.1827  0.2806
  777MOL0     C 2494   5.731   4.920  10.977  1.4512 -1.1232 -0.3128
  777MOL0     C 2495   5.813   4.824  10.908 -0.4859  0.0685  0.1189
  777MOL0     C 2496   5.875   4.763  10.826  0.0435 -0.0423 -0.2256
  777MOL0     C 2497   5.438   5.377  10.975  0.1777 -0.6337  0.7125
  777MOL0     C 2498   5.325   5.448  10.927 -0.3541 -0.0040  0.3966
  777MOL0     H 2499   4.960   5.470  10.536  1.4150 -1.5481  2.5112
  777MOL0     H 2500   4.794   5.628  10.452  1.3747 -2.6004 -0.8460
  777MOL0     H 2501   4.454   5.778  10.747 -0.6189  0.3413 -1.1586
  777MOL0     H 2502   4.403   5.638  10.645 -0.3979 -0.3038 -0.0542
  777MOL0     H 2503   4.268   5.797  10.595  0.2688  0.9098 -0.2758
  777MOL0     H 2504   4.384   5.791  10.459  2.0373 -1.3188  0.3515
  777MOL0     H 2505   4.492   6.000  10.556  0.8128 -4.2130 -1.3010
  777MOL0     H 2506   4.389   5.991  10.699 -1.0148  0.1333 -0.6762
  777MOL0     H 2507   4.329   6.171  10.564 -1.4157  1.4305 -0.7481
  777MOL0     H 2508   4.312   6.075  10.421 -2.7251 -0.5874 -0.3511
  777MOL0     H 2509   4.119   6.056  10.665 -1.5772 -2.0001 -0.2297
  777MOL0     H 2510   4.126   5.954  10.525  0.7856 -0.8400  1.9033
  777MOL0     H 2511   4.096   6.259  10.504  2.3727 -0.0823 -0.4940
  777MOL0     H 2512   3.969   6.144  10.511  1.2096 -0.3467  2.1748
  777MOL0     H 2513   4.159   6.148  10.279 -0.4385 -0.1914 -1.4451
  777MOL0     H 2514   4.051   6.015  10.320  1.0145  0.7128  0.7122
  777MOL0     H 2515   3.940   6.157  10.158  0.6835 -1.4626 -0.1071
  777MOL0     H 2516   3.940   6.293  10.291 -0.1261 -0.7231  2.7696
  777MOL0     H 2517   3.883   5.917  10.355  2.2537  2.0562 -1.5506
  777MOL0     H 2518   3.728   5.798  10.525 -1.6889 -2.8684 -0.2678
  777MOL0     H 2519   3.619   5.783  10.388 -0.8054 -1.0011  0.5925
  777MOL0     H 2520   3.496   5.755  10.588 -1.4110  0.2064  0.0984
  777MOL0     H 2521   3.442   5.902  10.519 -0.0780 -0.2381  0.9520
  777MOL0     H 2522   3.603   6.031  10.690  1.4968 -1.3151  1.7365
  777MOL0     H 2523   3.447   5.954  10.757 -1.2647 -2.8039 -1.0968
  777MOL0     H 2524   3.613   5.753  10.795  1.5663 -0.3462  1.4946
  777MOL0     H 2525   3.601   5.898  10.912 -1.3323 -0.1527  0.4407
  777MOL0     H 2526   3.760   5.794  11.035  0.6660 -3.2940  3.8951
  777MOL0     H 2527   3.946   5.667  11.145 -2.5706 -2.6519 -1.8231
  777MOL0     H 2528   4.369   5.342  10.874 -2.4198 -0.8102  1.2341
  777MOL0     H 2529   4.550   5.207  10.959 -0.4153 -0.5509  1.4362
  777MOL0     H 2530   4.797   5.384  11.302 -2.9114 -0.6887  0.4477
  777MOL0     H 2531   4.902   5.401  11.161 -2.4747 -0.5739 -3.6415
  777MOL0     H 2532   4.932   5.140  11.182 -2.5193  0.9676 -0.5712
  777MOL0     H 2533   4.864   5.161  11.347 -0.5948 -0.2440 -0.0602
  777MOL0     H 2534   5.050   5.326  11.395 -1.1639 -0.9507  0.7535
  777MOL0     H 2535   5.113   5.287  11.231 -1.7718  0.9637 -0.4000
  777MOL0     H 2536   5.110   5.126  11.476  1.9034 -2.0664  0.4255
  777MOL0     H 2537   5.086   5.044  11.322  2.2674 -1.7035 -0.5988
  777MOL0     H 2538   5.321   5.227  11.391  1.9483 -2.2192  0.3273
  777MOL0     H 2539   5.300   5.140  11.230 -0.8444 -1.1323 -1.1061
  777MOL0     H 2540   5.334   5.011  11.496 -2.0495 -2.1656 -0.7572
  777MOL0     H 2541   5.468   5.046  11.363 -1.0841  0.1222 -0.7826
  777MOL0     H 2542   5.233   4.873  11.385  1.8648  2.4301  3.0540
  777MOL0     H 2543   5.294   4.879  11.225  0.8756 -1.6388 -0.1410
  777MOL0     H 2544   5.360   4.684  11.386  0.6371 -1.0421 -3.3423
  777MOL0     H 2545   5.489   4.791  11.438  0.7906 -3.2345  0.6832
  777MOL0     H 2546   4.679   5.535  11.188  2.0313  1.1721 -3.4241
  777MOL0     H 2547   4.479   5.662  11.147 -3.2785  0.0406 -0.1942
  777MOL0     H 2548   4.147   5.633  10.780 -1.6173 -1.8562 -1.1521
  777MOL0     H 2549   3.968   5.761  10.667  2.5283  1.5926 -0.1230
  777MOL0     H 2550   4.584   5.606  10.816 -0.6664  0.2495 -2.1160
  777MOL0     H 2551   4.774   5.451  10.914  0.0559 -1.7375  0.4109
  777MOL0     H 2552   5.138   5.182  10.822  0.3363 -0.6884 -0.3569
  777MOL0     H 2553   5.328   5.069  10.902 -0.7301  0.4044  1.7997
  777MOL0     H 2554   5.624   5.263  11.180  1.0999 -0.8070  1.2905
  777MOL0     H 2555   5.717   5.273  11.024  3.7960 -1.1682  2.4663
  777MOL0     H 2556   5.824   5.167  11.198  0.3105 -0.8900  0.5113
  777MOL0     H 2557   5.699   5.039  11.206  0.9611 -1.4038 -0.2099
  777MOL0     H 2558   5.904   4.989  11.095 -0.3601 -0.2099  0.4213
  777MOL0     H 2559   5.856   5.091  10.948 -0.7824 -0.8283 -0.7587
  777MOL0     H 2560   5.670   4.867  11.051 -0.8288 -0.1650 -1.4138
  777MOL0     H 2561   5.648   4.955  10.915  0.2423 -1.9806  0.7509
  777MOL0     H 2562   5.938   4.716  10.753 -2.3219 -3.2482 -0.4605
  777MOL0     H 2563   5.513   5.428  11.033  0.1585  0.9108 -0.5566
  777MOL0     H 2564   5.318   5.555  10.941  0.0696 -0.0320  0.8526
  778MOL0     O 2565   0.803  10.548   9.094 -0.2858 -0.0949 -0.6428
  778MOL0     C 2566   0.906  10.505   9.154 -0.3533  0.1579  0.8425
  778MOL0     O 2567   0.942  10.379   9.176  0.6668 -0.1627  0.2615
  778MOL0     C 2568   0.880  10.278   9.108  0.1621  0.5796 -0.2584
  778MOL0     C 2569   0.871  10.281   8.960 -0.2860 -0.1699 -0.3013
  778MOL0     C 2570   0.819  10.171   8.894  1.0052  0.7057  0.0349
  778MOL0     C 2571   0.777  10.052   8.955  0.3254 -0.6224 -0.0963
  778MOL0     O 2572   0.708   9.951   8.894 -0.2488  0.8257  0.0089
  778MOL0     C 2573   0.751   9.908   8.766 -0.4441  0.6686  0.0688
  778MOL0     C 2574   0.661   9.964   8.657  0.6027 -0.3027 -0.0497
  778MOL0     C 2575   0.520   9.925   8.675  0.0311 -0.5600 -0.7522
  778MOL0     C 2576   0.431   9.981   8.568  0.3710 -0.1815  0.0096
  778MOL0     C 2577   0.289   9.935   8.605 -0.1594 -0.0528  1.0179
  778MOL0     C 2578   0.174  10.015   8.534 -0.3898  0.1994  0.2017
  778MOL0     C 2579   0.040   9.950   8.554 -0.1907  0.3567 -0.3536
  778MOL0     C 2580  -0.011   9.976   8.698  1.4329  0.4649  0.0005
  778MOL0     N 2581  -0.039  10.119   8.733 -0.3305 -0.6299 -0.1481
  778MOL0     C 2582  -0.157  10.180   8.692  0.3494  0.5840  0.4459
  778MOL0     C 2583  -0.162  10.308   8.737  0.0813  0.1182 -0.2151
  778MOL0     C 2584  -0.274  10.407   8.710 -0.1625  0.3735 -0.7247
  778MOL0     C 2585  -0.379  10.415   8.825 -0.3046 -0.0378 -0.3492
  778MOL0     C 2586  -0.487  10.512   8.782  0.1060  0.3967  0.6480
  778MOL0     C 2587  -0.621  10.461   8.729  0.4051  0.7996 -0.2199
  778MOL0     O 2588  -0.692  10.396   8.839 -0.2816  0.4494 -0.4311
  778MOL0     C 2589  -0.802  10.322   8.823  0.2351  1.3564  0.3261
  778MOL0     C 2590  -0.850  10.276   8.942 -0.7799  0.0731 -0.3037
  778MOL0     C 2591  -0.928  10.161   8.950  0.6929 -0.1292  0.8902
  778MOL0     C 2592  -0.986  10.110   8.826 -0.3591 -1.0040 -0.2759
  778MOL0     C 2593  -1.093  10.014   8.837 -0.0766  0.0066  0.6805
  778MOL0     O 2594  -1.145   9.985   8.956 -0.2588  0.3673  0.2075
  778MOL0     C 2595  -1.250   9.895   8.961  0.8192  0.0044  0.6019
  778MOL0     C 2596  -1.220   9.766   9.004  0.1612 -0.2260 -0.3678
  778MOL0     C 2597  -1.329   9.675   9.017  0.0285  0.5072 -0.4017
  778MOL0     C 2598  -1.467   9.718   8.999  0.4062 -0.3249 -0.1524
  778MOL0     O 2599  -1.575   9.641   9.014  0.5031 -0.7411 -0.3488
  778MOL0     C 2600  -1.574   9.502   8.978 -0.2743 -0.1206 -0.1730
  778MOL0     C 2601  -1.710   9.441   8.956  0.3957 -0.8555  0.1508
  778MOL0     C 2602  -1.794   9.458   9.083 -0.0920  0.6474 -0.1567
  778MOL0     C 2603  -1.946   9.434   9.056 -0.7932 -0.3140  0.4426
  778MOL0     C 2604  -2.005   9.368   9.182  0.0017 -0.6129  0.6696
  778MOL0     C 2605  -2.154   9.367   9.163  0.6148 -0.3496 -0.0388
  778MOL0     C 2606  -2.224   9.500   9.198 -0.2680  0.4750 -0.6042
  778MOL0     C 2607  -2.379   9.481   9.206  0.4275  0.4226 -0.0117
  778MOL0    Cl 2608  -2.439   9.436   9.044 -0.3309 -0.5566 -0.2924
  778MOL0     C 2609  -1.487   9.853   8.971 -0.4965 -0.1618  0.1103
  778MOL0     C 2610  -1.381   9.942   8.945 -0.9517  0.9018  0.3398
  778MOL0     O 2611  -1.123   9.950   8.732 -0.3625  0.3805 -0.0215
  778MOL0     C 2612  -0.946  10.167   8.702 -0.1310  0.9448 -0.3375
  778MOL0     C 2613  -0.852  10.270   8.703 -0.0730 -1.0330  0.0466
  778MOL0     N 2614  -0.043  10.319   8.815 -0.3542  0.3735  0.5854
  778MOL0     N 2615   0.026  10.209   8.811 -0.1619  0.1348  0.3594
  778MOL0     C 2616   0.792  10.045   9.096  1.2258  0.2128  0.0184
  778MOL0     C 2617   0.839  10.150   9.171 -0.7857 -1.0697  0.6730
  778MOL0     C 2618   1.009  10.599   9.209 -0.4736  0.0533  0.2353
  778MOL0     C 2619   1.143  10.563   9.214 -0.7256  0.3277 -0.3180
  778MOL0     C 2620   1.239  10.650   9.271 -0.2232  0.3655  0.2859
  778MOL0     C 2621   1.212  10.781   9.309  1.0375 -0.2124  0.7050
  778MOL0     O 2622   1.304  10.866   9.357  0.1084  0.5838 -0.0374
  778MOL0     C 2623   1.338  10.962   9.259  0.3048  0.5625 -0.1125
  778MOL0     C 2624   1.494  10.959   9.244  0.6278 -0.1624 -0.0914
  778MOL0     C 2625   1.567  11.018   9.364  0.4705  0.0477 -0.2773
  778MOL0     C 2626   1.704  11.022   9.321  0.1044 -0.1164 -0.4906
  778MOL0     C 2627   1.789  11.055   9.435  0.7331 -0.2714  0.1065
  778MOL0     C 2628   1.850  11.093   9.534  0.9293 -0.7497 -0.3011
  778MOL0     C 2629   1.074  10.819   9.295  0.0900  0.4170  0.7871
  778MOL0     C 2630   0.975  10.730   9.247 -0.2212 -0.8267  0.7082
  778MOL0     H 2631   0.907  10.364   8.901 -1.5150  0.1828 -0.5648
  778MOL0     H 2632   0.791  10.195   8.792  0.9782  0.7928  0.0627
  778MOL0     H 2633   0.735   9.800   8.762 -1.9809  0.7507  2.2918
  778MOL0     H 2634   0.858   9.924   8.755  0.2606 -3.3331 -0.4552
  778MOL0     H 2635   0.692   9.912   8.566 -2.2041 -2.4036  0.0626
  778MOL0     H 2636   0.667  10.071   8.640 -1.9731  0.1956  1.6148
  778MOL0     H 2637   0.486   9.950   8.777  4.1125 -1.7779  1.0931
  778MOL0     H 2638   0.514   9.816   8.672  2.5366 -0.7442 -0.7626
  778MOL0     H 2639   0.436  10.090   8.570  0.0555 -0.1613 -0.1358
  778MOL0     H 2640   0.454   9.957   8.464 -1.8033 -1.0949 -0.3144
  778MOL0     H 2641   0.268   9.942   8.713 -1.5296 -0.2734  0.7831
  778MOL0     H 2642   0.280   9.829   8.581  1.9512 -0.5975  2.3393
  778MOL0     H 2643   0.199  10.011   8.428 -1.8080 -4.4730 -0.1615
  778MOL0     H 2644   0.169  10.115   8.579  0.1944 -0.1130  0.9730
  778MOL0     H 2645  -0.039   9.979   8.484 -2.8035  2.1561  3.0026
  778MOL0     H 2646   0.054   9.844   8.535  1.2091  0.4092  0.2566
  778MOL0     H 2647   0.068   9.943   8.766  2.2223  2.6253  0.1998
  778MOL0     H 2648  -0.102   9.918   8.716  1.5714  0.6122  1.2203
  778MOL0     H 2649  -0.226  10.118   8.635  0.3876  1.3946 -0.5168
  778MOL0     H 2650  -0.325  10.381   8.617 -1.5617 -0.3498  0.2034
  778MOL0     H 2651  -0.223  10.502   8.696  1.0750  0.2660  2.3379
  778MOL0     H 2652  -0.339  10.452   8.920 -2.9304  1.7416  0.1576
  778MOL0     H 2653  -0.421  10.315   8.836  1.2725 -0.7547 -0.5720
  778MOL0     H 2654  -0.499  10.580   8.867  1.3149  2.3841 -0.6888
  778MOL0     H 2655  -0.448  10.572   8.700  0.5781 -1.6071 -0.6754
  778MOL0     H 2656  -0.614  10.392   8.645  0.1500 -0.2306  0.5816
  778MOL0     H 2657  -0.680  10.548   8.697 -3.6943 -2.1184 -1.3577
  778MOL0     H 2658  -0.821  10.321   9.037  1.0023 -2.4946  0.4767
  778MOL0     H 2659  -0.952  10.117   9.046 -0.3500 -2.1272 -0.2393
  778MOL0     H 2660  -1.118   9.739   9.031  0.1086  1.1169  1.3476
  778MOL0     H 2661  -1.320   9.581   9.069  2.5253  1.9713  2.0971
  778MOL0     H 2662  -1.526   9.453   9.063  0.7387  1.8604  0.4440
  778MOL0     H 2663  -1.502   9.494   8.896  0.0797 -0.9974  0.2114
  778MOL0     H 2664  -1.698   9.338   8.923 -0.9180 -0.4898 -1.6648
  778MOL0     H 2665  -1.759   9.500   8.877  0.3895  1.1152  1.5401
  778MOL0     H 2666  -1.788   9.556   9.130 -1.7738  0.1724  1.1268
  778MOL0     H 2667  -1.751   9.386   9.154  2.6738  2.4308  0.1353
  778MOL0     H 2668  -1.995   9.529   9.035  5.0401  3.3595  1.2331
  778MOL0     H 2669  -1.958   9.366   8.971  2.3736 -0.3999 -0.0572
  778MOL0     H 2670  -1.980   9.426   9.272  1.3549  1.2975 -0.8642
  778MOL0     H 2671  -1.964   9.267   9.197 -1.6322 -0.9592  3.7598
  778MOL0     H 2672  -2.196   9.293   9.232  1.7283 -0.4611  0.5468
  778MOL0     H 2673  -2.172   9.338   9.059 -1.0449 -1.3428  0.4825
  778MOL0     H 2674  -2.193   9.520   9.302  1.9284 -0.3371 -1.0444
  778MOL0     H 2675  -2.199   9.589   9.140 -0.9588 -1.1548 -3.5796
  778MOL0     H 2676  -2.423   9.578   9.230 -0.5913  1.1627 -4.1294
  778MOL0     H 2677  -2.407   9.408   9.283 -2.5517  2.4592  1.0580
  778MOL0     H 2678  -1.580   9.903   8.948  0.1419  2.3680  2.4579
  778MOL0     H 2679  -1.397  10.044   8.911  2.4707  0.7326 -2.3868
  778MOL0     H 2680  -0.983  10.133   8.606  0.7922 -0.5472 -0.1921
  778MOL0     H 2681  -0.810  10.311   8.611  0.5982  2.1033  1.6120
  778MOL0     H 2682   0.775   9.945   9.135 -0.8963  0.9743  1.2448
  778MOL0     H 2683   0.862  10.142   9.276  2.1632 -4.8358 -0.0212
  778MOL0     H 2684   1.173  10.462   9.188 -1.1973 -0.3760  1.6862
  778MOL0     H 2685   1.337  10.603   9.278  0.7564  2.3949  0.8169
  778MOL0     H 2686   1.311  11.063   9.292 -0.0085  0.2249  0.7014
  778MOL0     H 2687   1.306  10.938   9.157  2.8355  2.7946 -1.5606
  778MOL0     H 2688   1.535  10.858   9.233 -1.2330 -1.5767  4.0329
  778MOL0     H 2689   1.521  11.020   9.157 -1.1679  0.0186 -0.5596
  778MOL0     H 2690   1.542  10.965   9.457  0.6834  1.6615  0.7229
  778MOL0     H 2691   1.539  11.123   9.375  0.5966 -0.0039  0.5924
  778MOL0     H 2692   1.733  10.928   9.274 -1.9261 -0.4503 -1.1720
  778MOL0     H 2693   1.708  11.097   9.242 -0.9140 -0.6848 -1.1018
  778MOL0     H 2694   1.916  11.135   9.607  1.0043  2.4781 -2.0786
  778MOL0     H 2695   1.052  10.923   9.315  2.6872  1.2353 -0.1846
  778MOL0     H 2696   0.876  10.770   9.229  0.2034  0.2994  0.7571
  779MOL0     O 2697   0.139   4.612   4.848 -0.5745  0.0782 -0.3532
  779MOL0     C 2698   0.151   4.504   4.918  0.0193 -0.5391  0.0273
  779MOL0     O 2699   0.060   4.458   5.016 -0.9263 -0.2484 -0.1803
  779MOL0     C 2700  -0.037   4.538   5.063 -0.1098  0.0244  0.3232
  779MOL0     C 2701  -0.147   4.577   4.989  0.0522 -0.7859 -1.0134
  779MOL0     C 2702  -0.252   4.662   5.047 -0.8392  0.0465 -0.0826
  779MOL0     C 2703  -0.244   4.692   5.182 -0.4476  0.2258 -0.0403
  779MOL0     O 2704  -0.338   4.768   5.246  1.1166 -0.1322  0.2114
  779MOL0     C 2705  -0.468   4.789   5.180 -0.3464 -0.3639 -0.2272
  779MOL0     C 2706  -0.578   4.853   5.270 -0.2216 -0.4159  0.2121
  779MOL0     C 2707  -0.594   4.758   5.391  0.3267  0.5660 -0.7317
  779MOL0     C 2708  -0.674   4.833   5.495 -0.4644 -0.9814 -0.3225
  779MOL0     C 2709  -0.658   4.774   5.641 -1.1955 -0.4583  0.1131
  779MOL0     C 2710  -0.768   4.834   5.731 -0.9407 -0.3835 -0.9119
  779MOL0     C 2711  -0.886   4.746   5.716  0.1708 -0.3129 -0.6465
  779MOL0     C 2712  -1.021   4.821   5.711  0.6545  0.6490  0.1556
  779MOL0     N 2713  -1.131   4.728   5.677 -0.1476 -0.9586 -0.2616
  779MOL0     C 2714  -1.225   4.686   5.767 -0.2090 -0.8223 -0.0454
  779MOL0     C 2715  -1.332   4.639   5.699  0.4029  0.6958  0.9166
  779MOL0     C 2716  -1.446   4.561   5.749  0.0396  0.9422  0.0779
  779MOL0     C 2717  -1.425   4.497   5.886  0.0119  0.6385 -0.3518
  779MOL0     C 2718  -1.313   4.393   5.897  0.2771  0.7212  0.0974
  779MOL0     C 2719  -1.252   4.399   6.038  1.0114  0.5808  0.6816
  779MOL0     O 2720  -1.158   4.504   6.057  0.2251  0.0610  0.4521
  779MOL0     C 2721  -1.022   4.480   6.013 -0.1855  0.0811 -0.4648
  779MOL0     C 2722  -0.960   4.376   5.947  0.1934  0.3126 -0.3095
  779MOL0     C 2723  -0.828   4.369   5.916 -1.3514 -0.5013 -0.3029
  779MOL0     C 2724  -0.743   4.486   5.945  0.6269 -0.5248 -0.5577
  779MOL0     C 2725  -0.600   4.488   5.925  0.0568 -0.4267 -0.5569
  779MOL0     O 2726  -0.536   4.604   5.945 -0.6024  0.4684  0.5068
  779MOL0     C 2727  -0.427   4.643   5.878  0.0548  0.0355  0.1251
  779MOL0     C 2728  -0.349   4.739   5.937  0.0195  0.0118 -0.6339
  779MOL0     C 2729  -0.223   4.780   5.885 -0.8359  0.1074  0.3656
  779MOL0     C 2730  -0.164   4.726   5.772 -0.0587 -0.4185 -0.7785
  779MOL0     O 2731  -0.041   4.765   5.733  0.3009  0.5686  0.4020
  779MOL0     C 2732   0.007   4.758   5.599 -0.2383  0.0996 -0.1046
  779MOL0     C 2733   0.146   4.820   5.582  0.7111  0.6450  0.6044
  779MOL0     C 2734   0.242   4.778   5.693  0.6683 -0.2002 -0.0837
  779MOL0     C 2735   0.381   4.834   5.674  0.0325  0.1959 -0.3852
  779MOL0     C 2736   0.486   4.739   5.727  0.6291  0.1589 -0.5353
  779MOL0     C 2737   0.632   4.802   5.747  0.4279 -0.6690 -0.5786
  779MOL0     C 2738   0.688   4.841   5.608  0.3890 -0.6419  0.4058
  779MOL0     C 2739   0.666   4.747   5.494  0.2774 -0.0075 -0.1074
  779MOL0    Cl 2740   0.789   4.787   5.380 -0.2812 -0.7266  0.0433
  779MOL0     C 2741  -0.251   4.640   5.700  0.4092 -0.1870 -0.1390
  779MOL0     C 2742  -0.376   4.596   5.751  0.0630 -1.0883 -0.4000
  779MOL0     O 2743  -0.551   4.399   5.865 -0.0686  0.4348  0.3554
  779MOL0     C 2744  -0.804   4.597   6.014  0.9136  0.2266  0.2174
  779MOL0     C 2745  -0.941   4.591   6.044 -1.3613  0.0882  0.8075
  779MOL0     N 2746  -1.310   4.647   5.563 -0.3404  0.8784  0.0514
  779MOL0     N 2747  -1.193   4.714   5.552  0.1020 -0.1583  0.1196
  779MOL0     C 2748  -0.133   4.654   5.249 -0.0229  0.5937 -0.5965
  779MOL0     C 2749  -0.032   4.568   5.202  0.2501  0.0077  0.5765
  779MOL0     C 2750   0.277   4.422   4.900 -0.3201 -0.5541  0.1135
  779MOL0     C 2751   0.290   4.296   4.949 -0.7374  0.5660 -0.7124
  779MOL0     C 2752   0.411   4.231   4.931  0.8499  0.9050 -0.5502
  779MOL0     C 2753   0.525   4.289   4.863 -0.8559 -0.0783  0.5638
  779MOL0     O 2754   0.637   4.212   4.842 -0.1016 -0.6760 -0.1944
  779MOL0     C 2755   0.707   4.187   4.966 -0.9684 -0.0897  1.4877
  779MOL0     C 2756   0.852   4.162   4.933 -0.7546  0.2982  0.1832
  779MOL0     C 2757   0.877   4.011   4.960 -0.0617 -0.2114 -0.5138
  779MOL0     C 2758   1.031   3.984   4.959  0.1619 -0.0683 -0.2231
  779MOL0     C 2759   1.084   4.068   5.070 -0.4371 -0.7938 -0.9144
  779MOL0     C 2760   1.149   4.119   5.159 -0.6133  1.2826 -0.4580
  779MOL0     C 2761   0.506   4.413   4.807 -0.4240  0.4679 -0.0146
  779MOL0     C 2762   0.385   4.484   4.832  0.1537 -0.2426  0.4640
  779MOL0     H 2763  -0.144   4.556   4.883 -3.5343  0.5008 -1.5095
  779MOL0     H 2764  -0.340   4.691   4.990 -0.9874  0.8318  0.5372
  779MOL0     H 2765  -0.503   4.695   5.138  0.4061 -0.2046 -1.2411
  779MOL0     H 2766  -0.458   4.860   5.097  2.3304 -1.9506 -1.3854
  779MOL0     H 2767  -0.674   4.867   5.219  0.7860 -0.2797 -1.7607
  779MOL0     H 2768  -0.538   4.949   5.306  2.6220 -0.7577 -1.6752
  779MOL0     H 2769  -0.500   4.726   5.438  0.1550 -0.6476 -1.1781
  779MOL0     H 2770  -0.639   4.670   5.346 -0.7972  0.6615  0.1603
  779MOL0     H 2771  -0.650   4.940   5.503  1.0242 -1.3868  1.3991
  779MOL0     H 2772  -0.782   4.830   5.474 -0.7491 -1.7602  1.1100
  779MOL0     H 2773  -0.560   4.805   5.676 -2.3592  5.3243 -0.7280
  779MOL0     H 2774  -0.673   4.665   5.641  4.1496 -1.5108  2.2412
  779MOL0     H 2775  -0.781   4.941   5.712  2.1637  0.2886  0.1308
  779MOL0     H 2776  -0.737   4.819   5.835 -2.1739 -1.1476 -0.6460
  779MOL0     H 2777  -0.889   4.675   5.633  4.4142  0.5419 -1.7914
  779MOL0     H 2778  -0.883   4.674   5.798 -1.8262  0.8789  0.5663
  779MOL0     H 2779  -1.001   4.898   5.635 -3.5415  0.9938 -0.9005
  779MOL0     H 2780  -1.053   4.882   5.797  1.9944 -0.4151  1.4506
  779MOL0     H 2781  -1.211   4.679   5.875 -2.2187  0.5399  0.3700
  779MOL0     H 2782  -1.454   4.482   5.673  0.3805  1.8886 -0.9626
  779MOL0     H 2783  -1.540   4.615   5.740 -0.4218  0.4532  1.5985
  779MOL0     H 2784  -1.519   4.455   5.923  0.7251  0.1547  0.9716
  779MOL0     H 2785  -1.398   4.575   5.957  2.8850 -0.2503 -0.3301
  779MOL0     H 2786  -1.342   4.290   5.879  0.8962 -0.2863  3.9789
  779MOL0     H 2787  -1.237   4.410   5.819 -2.0112  1.1461 -2.1553
  779MOL0     H 2788  -1.199   4.307   6.066 -0.2883 -0.2584  0.5060
  779MOL0     H 2789  -1.340   4.402   6.104  0.7956  0.1732  0.4230
  779MOL0     H 2790  -1.031   4.301   5.916  0.8902 -1.4603  2.1054
  779MOL0     H 2791  -0.795   4.282   5.860  2.1089  1.1392 -1.0448
  779MOL0     H 2792  -0.390   4.782   6.028 -0.1949 -1.7169  0.1287
  779MOL0     H 2793  -0.160   4.849   5.940  1.4170 -2.1606  0.8331
  779MOL0     H 2794  -0.066   4.798   5.527  1.2504  1.3437 -0.9796
  779MOL0     H 2795   0.027   4.656   5.566 -1.1698  0.2297 -1.1430
  779MOL0     H 2796   0.137   4.928   5.568 -1.2113  1.2290  4.8623
  779MOL0     H 2797   0.172   4.785   5.482  1.4702 -2.5991  1.8006
  779MOL0     H 2798   0.245   4.669   5.688 -0.9815 -0.2431 -4.4737
  779MOL0     H 2799   0.211   4.820   5.790 -1.6052 -1.9241  0.0140
  779MOL0     H 2800   0.381   4.848   5.566 -2.3846 -1.6036 -0.6873
  779MOL0     H 2801   0.384   4.931   5.725 -0.7687 -0.2283  0.4949
  779MOL0     H 2802   0.495   4.651   5.662  0.1022  0.5128 -1.1017
  779MOL0     H 2803   0.459   4.696   5.824  0.8251 -0.3344 -0.6941
  779MOL0     H 2804   0.700   4.731   5.797  1.1833 -0.2493 -0.9954
  779MOL0     H 2805   0.618   4.892   5.808 -0.5258 -0.8411 -0.5278
  779MOL0     H 2806   0.660   4.943   5.578 -0.1635 -1.7614 -3.4038
  779MOL0     H 2807   0.796   4.855   5.625  1.3561 -1.4366 -3.8234
  779MOL0     H 2808   0.562   4.757   5.463 -0.3202  2.5022  2.2723
  779MOL0     H 2809   0.675   4.643   5.528 -2.2772 -0.8545 -1.7646
  779MOL0     H 2810  -0.217   4.614   5.601  2.7432  1.1199  0.2456
  779MOL0     H 2811  -0.422   4.517   5.693  0.3230 -0.5176 -1.3995
  779MOL0     H 2812  -0.751   4.679   6.061 -0.8429  0.8307  1.2408
  779MOL0     H 2813  -0.986   4.679   6.089 -0.0709  2.3257 -1.9518
  779MOL0     H 2814  -0.128   4.683   5.354 -1.0202  3.5716 -1.2592
  779MOL0     H 2815   0.046   4.533   5.268  0.7349 -0.9121 -0.4494
  779MOL0     H 2816   0.215   4.245   5.009 -1.9810  1.9875 -0.9973
  779MOL0     H 2817   0.423   4.131   4.972  0.3126  2.2045  3.1785
  779MOL0     H 2818   0.664   4.096   5.010 -0.5235 -1.2556 -0.3429
  779MOL0     H 2819   0.695   4.273   5.031 -1.9240  0.9952 -0.0559
  779MOL0     H 2820   0.877   4.179   4.827 -0.4991 -0.3986  0.1256
  779MOL0     H 2821   0.911   4.233   4.992 -1.2664 -0.4431  1.6133
  779MOL0     H 2822   0.851   3.945   4.877  0.6139 -3.2406  1.5309
  779MOL0     H 2823   0.827   3.966   5.047  0.5436 -1.8697 -0.9966
  779MOL0     H 2824   1.051   3.878   4.978 -1.0889 -0.4419 -0.8373
  779MOL0     H 2825   1.072   4.018   4.863 -0.3146  0.2512 -0.3163
  779MOL0     H 2826   1.212   4.181   5.220  1.2442  0.4896 -1.5012
  779MOL0     H 2827   0.591   4.451   4.750 -0.7511 -1.2703 -1.7956
  779MOL0     H 2828   0.375   4.584   4.792  3.5232 -0.3174 -0.9384
  780MOL0     O 2829   7.192   5.154   8.440  0.1854 -0.2376 -0.3210
  780MOL0     C 2830   7.234   5.260   8.477 -0.9104 -0.6489 -0.0523
  780MOL0     O 2831   7.361   5.280   8.536  0.8906 -0.0142  0.7178
  780MOL0     C 2832   7.453   5.185   8.542  0.2312  0.5393 -1.1344
  780MOL0     C 2833   7.541   5.177   8.648 -0.8389 -0.6200  0.1966
  780MOL0     C 2834   7.637   5.076   8.656 -0.5649 -0.4361 -0.2106
  780MOL0     C 2835   7.650   4.981   8.551  0.5634  0.0024 -0.8611
  780MOL0     O 2836   7.739   4.873   8.557  0.0031  0.1263 -0.2840
  780MOL0     C 2837   7.846   4.887   8.650 -0.4997  0.3260 -0.2821
  780MOL0     C 2838   7.922   4.752   8.629 -0.1794  0.0663 -0.6878
  780MOL0     C 2839   8.049   4.724   8.710  0.1798  0.3830  0.0356
  780MOL0     C 2840   8.149   4.847   8.702  0.3497  0.0421 -0.0965
  780MOL0     C 2841   8.291   4.793   8.681 -0.3986 -0.3458 -0.1040
  780MOL0     C 2842   8.349   4.723   8.810  0.2557  0.9034  0.5101
  780MOL0     C 2843   8.500   4.684   8.805 -0.6617 -0.1849 -0.2490
  780MOL0     C 2844   8.506   4.549   8.740  0.1087  1.0438 -0.2791
  780MOL0     N 2845   8.647   4.515   8.707  0.2732 -0.1744 -0.0364
  780MOL0     C 2846   8.716   4.436   8.797  0.3383 -0.2046  0.3188
  780MOL0     C 2847   8.842   4.427   8.735  0.0676  0.6814  0.0437
  780MOL0     C 2848   8.970   4.356   8.797 -0.6320 -0.6306  0.1154
  780MOL0     C 2849   9.097   4.368   8.714 -0.4677 -0.4938 -0.3429
  780MOL0     C 2850   9.214   4.312   8.800 -0.1703 -0.3236 -0.1741
  780MOL0     C 2851   9.332   4.310   8.703  0.3533  0.3159  0.1879
  780MOL0     O 2852   9.452   4.294   8.784  0.2901 -0.0833 -0.9486
  780MOL0     C 2853   9.575   4.331   8.734  0.0243  0.6599  0.0361
  780MOL0     C 2854   9.684   4.303   8.815 -0.1478  0.6712  0.6289
  780MOL0     C 2855   9.823   4.296   8.771  0.2622 -0.6217 -0.8213
  780MOL0     C 2856   9.855   4.345   8.647  0.0639 -0.9382  1.3852
  780MOL0     C 2857   9.993   4.354   8.601  1.0024 -0.5127  0.6860
  780MOL0     O 2858  10.098   4.357   8.692  0.0076  0.0726 -0.0352
  780MOL0     C 2859  10.220   4.403   8.633  0.1126  1.0621 -0.9676
  780MOL0     C 2860  10.319   4.294   8.620 -1.0385 -0.2269 -0.5779
  780MOL0     C 2861  10.447   4.329   8.579  0.0355 -0.1737  0.5145
  780MOL0     C 2862  10.470   4.456   8.527 -0.9643 -0.2917 -0.6018
  780MOL0     O 2863  10.585   4.477   8.452  0.2230 -0.3007  0.5095
  780MOL0     C 2864  10.621   4.610   8.435  0.7857 -0.2048 -0.7738
  780MOL0     C 2865  10.758   4.621   8.366 -0.1739  0.5071  0.2008
  780MOL0     C 2866  10.856   4.577   8.465 -0.0786 -0.5651  0.0889
  780MOL0     C 2867  10.998   4.628   8.435  0.8089 -0.8308  0.5359
  780MOL0     C 2868  11.098   4.563   8.523 -0.5809 -0.7148 -0.7715
  780MOL0     C 2869  11.245   4.619   8.502  0.1667 -0.1516 -0.5704
  780MOL0     C 2870  11.330   4.540   8.614  1.2365  0.1441 -0.1522
  780MOL0     C 2871  11.474   4.560   8.585  0.2262 -0.2211  0.5559
  780MOL0    Cl 2872  11.573   4.448   8.691 -0.4981 -0.3691  0.3639
  780MOL0     C 2873  10.379   4.556   8.554  0.1200 -0.4342 -0.7216
  780MOL0     C 2874  10.253   4.537   8.617  0.8891  0.6263 -0.1863
  780MOL0     O 2875  10.007   4.356   8.479  0.4750  0.2385 -0.0355
  780MOL0     C 2876   9.750   4.385   8.562  1.5402 -0.5011  0.1597
  780MOL0     C 2877   9.615   4.375   8.606 -0.1142  1.0858  0.3355
  780MOL0     N 2878   8.842   4.498   8.613  0.8377 -0.4941 -0.4812
  780MOL0     N 2879   8.724   4.553   8.602 -0.0198  0.1988 -0.0767
  780MOL0     C 2880   7.556   4.975   8.446 -0.6791 -0.2757 -0.6283
  780MOL0     C 2881   7.460   5.081   8.450  0.8802  0.0839  0.2779
  780MOL0     C 2882   7.148   5.382   8.460  0.6834  0.8344 -0.4222
  780MOL0     C 2883   7.195   5.517   8.490  0.9531 -0.4266  0.9271
  780MOL0     C 2884   7.116   5.631   8.472  0.0342 -0.6371  0.2897
  780MOL0     C 2885   6.985   5.612   8.437  0.7343 -0.1439  0.7855
  780MOL0     O 2886   6.890   5.714   8.437  0.5037 -0.1018  0.6616
  780MOL0     C 2887   6.797   5.698   8.553  0.2982  1.2206  0.4469
  780MOL0     C 2888   6.691   5.799   8.540  0.2349 -0.1566  0.5012
  780MOL0     C 2889   6.602   5.756   8.420  0.4174  0.3117 -0.5794
  780MOL0     C 2890   6.489   5.869   8.411 -0.1619  0.0136 -0.3780
  780MOL0     C 2891   6.410   5.850   8.286 -0.0688 -0.4636  0.0770
  780MOL0     C 2892   6.356   5.824   8.180 -0.2775 -0.4625 -0.3061
  780MOL0     C 2893   6.939   5.489   8.409  0.5235  0.7789  0.0962
  780MOL0     C 2894   7.016   5.375   8.421 -0.4571  0.8956 -0.4072
  780MOL0     H 2895   7.516   5.244   8.730  0.4126  0.7201 -0.4786
  780MOL0     H 2896   7.689   5.065   8.750  1.1182  1.9872 -0.7468
  780MOL0     H 2897   7.811   4.881   8.753  2.2033 -3.0757  0.6322
  780MOL0     H 2898   7.906   4.974   8.622 -1.1838  0.8596 -0.1009
  780MOL0     H 2899   7.939   4.728   8.524  2.3531 -2.2863  0.1594
  780MOL0     H 2900   7.850   4.674   8.657  0.2436 -0.2571 -0.5020
  780MOL0     H 2901   8.089   4.625   8.688 -2.6171 -1.0506  0.9166
  780MOL0     H 2902   8.025   4.712   8.816  2.0360  0.2063  0.4686
  780MOL0     H 2903   8.122   4.913   8.619  2.9091  2.8621  1.1002
  780MOL0     H 2904   8.136   4.910   8.791 -0.4449  1.6449 -1.2975
  780MOL0     H 2905   8.367   4.867   8.652  2.3591 -3.8572 -2.6399
  780MOL0     H 2906   8.294   4.718   8.602  2.8892 -3.8890  3.0006
  780MOL0     H 2907   8.283   4.638   8.833 -1.8038  1.2257 -3.2950
  780MOL0     H 2908   8.342   4.786   8.899 -2.4886 -0.9923  1.8152
  780MOL0     H 2909   8.563   4.761   8.758 -0.5115  0.5961  1.1830
  780MOL0     H 2910   8.528   4.678   8.911  0.8043  1.6780 -0.4791
  780MOL0     H 2911   8.452   4.553   8.645  0.7795 -2.8028 -0.9860
  780MOL0     H 2912   8.456   4.471   8.798  1.2526  1.2624  1.0505
  780MOL0     H 2913   8.675   4.395   8.888  0.0304  0.4940  0.5030
  780MOL0     H 2914   8.945   4.255   8.830 -0.2511 -0.1802  1.8896
  780MOL0     H 2915   8.994   4.401   8.894 -1.4945  0.6016 -0.2117
  780MOL0     H 2916   9.118   4.469   8.679 -0.6569 -0.9253 -1.7730
  780MOL0     H 2917   9.084   4.307   8.624 -4.1224 -0.5584  0.0669
  780MOL0     H 2918   9.231   4.377   8.887  2.3143 -0.3929 -0.5590
  780MOL0     H 2919   9.199   4.208   8.831 -1.8187 -0.7966 -2.3064
  780MOL0     H 2920   9.335   4.401   8.643  1.8369  0.8943  1.0878
  780MOL0     H 2921   9.311   4.229   8.633 -1.2152  0.4909  0.3991
  780MOL0     H 2922   9.668   4.267   8.916 -0.4120 -1.2868 -0.0592
  780MOL0     H 2923   9.889   4.255   8.847 -1.4631 -2.4213 -0.1902
  780MOL0     H 2924  10.291   4.196   8.656 -0.4223  0.4112  1.8070
  780MOL0     H 2925  10.526   4.255   8.573  0.6026  0.3723  1.1471
  780MOL0     H 2926  10.625   4.657   8.533  6.3005 -0.0557 -0.7931
  780MOL0     H 2927  10.555   4.673   8.376 -0.3360  1.0661  1.6928
  780MOL0     H 2928  10.768   4.726   8.338 -0.8851  0.8452  1.1763
  780MOL0     H 2929  10.758   4.562   8.274  0.8478  0.4813  0.2041
  780MOL0     H 2930  10.853   4.470   8.488  3.4247 -0.4832  1.5578
  780MOL0     H 2931  10.836   4.615   8.566 -1.2061  2.0496 -1.0159
  780MOL0     H 2932  11.025   4.595   8.335 -2.1614 -2.2172  0.1027
  780MOL0     H 2933  11.009   4.737   8.439 -1.8147 -0.3072 -2.6737
  780MOL0     H 2934  11.088   4.459   8.488  0.7603 -1.7497  1.6731
  780MOL0     H 2935  11.067   4.574   8.628  0.1605 -0.7047 -0.5515
  780MOL0     H 2936  11.252   4.723   8.538 -1.3613 -0.2220  0.0265
  780MOL0     H 2937  11.285   4.618   8.401 -0.4257 -1.6067 -0.8047
  780MOL0     H 2938  11.292   4.579   8.709 -3.7350  1.6320 -2.4301
  780MOL0     H 2939  11.313   4.433   8.602  0.9778  0.4165 -2.6097
  780MOL0     H 2940  11.518   4.660   8.598  1.1103 -0.4456 -0.4981
  780MOL0     H 2941  11.497   4.535   8.481 -1.0573 -0.4907  0.3188
  780MOL0     H 2942  10.390   4.661   8.530 -1.5307  0.0788  0.6079
  780MOL0     H 2943  10.184   4.620   8.627  0.5855  0.3887 -0.3194
  780MOL0     H 2944   9.774   4.428   8.466  0.4334  0.7227  0.3821
  780MOL0     H 2945   9.536   4.400   8.536  1.9345 -0.8262 -2.9767
  780MOL0     H 2946   7.559   4.898   8.369 -3.3627 -0.2558 -0.8314
  780MOL0     H 2947   7.398   5.085   8.361 -0.7862 -1.9026  1.2726
  780MOL0     H 2948   7.300   5.542   8.504  1.2068 -0.8005 -0.2228
  780MOL0     H 2949   7.143   5.733   8.500 -1.9461  0.0307 -0.0301
  780MOL0     H 2950   6.851   5.699   8.648  1.0016 -0.8941  0.1136
  780MOL0     H 2951   6.757   5.597   8.561 -0.3883  1.5922  2.1633
  780MOL0     H 2952   6.629   5.795   8.630  2.1456  0.8822  1.9495
  780MOL0     H 2953   6.739   5.894   8.517 -1.9408  1.1812  1.2136
  780MOL0     H 2954   6.561   5.655   8.434 -1.4716  0.5438 -3.5032
  780MOL0     H 2955   6.652   5.746   8.323 -0.0310 -0.7180 -0.7241
  780MOL0     H 2956   6.430   5.876   8.503  3.1098 -2.2422  2.1512
  780MOL0     H 2957   6.543   5.964   8.406 -3.2007  1.9420  0.9326
  780MOL0     H 2958   6.312   5.803   8.085  0.5721 -1.5814 -0.4687
  780MOL0     H 2959   6.839   5.470   8.370  2.7055 -1.1556 -5.5451
  780MOL0     H 2960   6.969   5.277   8.412  0.9063 -0.2046  3.0060
  781MOL0     O 2961   3.063   4.801  11.154 -0.3944  0.4458 -0.8688
  781MOL0     C 2962   3.123   4.698  11.122  0.5230  0.6685  0.1230
  781MOL0     O 2963   3.058   4.586  11.071  0.9376  0.0155  0.0428
  781MOL0     C 2964   2.917   4.572  11.058  0.0241  0.1622  0.2378
  781MOL0     C 2965   2.887   4.442  11.044 -0.3439  0.7317 -0.0090
  781MOL0     C 2966   2.754   4.400  11.030 -0.1516 -0.2182 -0.2586
  781MOL0     C 2967   2.648   4.492  11.037 -0.2088 -0.3876  1.2190
  781MOL0     O 2968   2.523   4.443  11.036 -1.1049 -0.2531 -0.3406
  781MOL0     C 2969   2.419   4.536  11.062  0.0631 -0.9155 -0.5999
  781MOL0     C 2970   2.276   4.479  11.065  0.9801  0.6555  0.8693
  781MOL0     C 2971   2.178   4.589  11.085  0.1130 -0.4705  0.1849
  781MOL0     C 2972   2.036   4.538  11.113 -0.8973 -0.0616  0.2799
  781MOL0     C 2973   1.955   4.657  11.130  0.6747 -0.0166 -0.6372
  781MOL0     C 2974   1.812   4.624  11.191 -0.6004 -0.5589 -0.0442
  781MOL0     C 2975   1.705   4.744  11.190 -0.7480  0.4955  0.1882
  781MOL0     C 2976   1.570   4.677  11.205  0.0606  0.4336 -0.5287
  781MOL0     N 2977   1.464   4.760  11.246 -0.0626  0.1152 -0.6053
  781MOL0     C 2978   1.450   4.893  11.210  0.3124 -0.1508  0.3320
  781MOL0     C 2979   1.321   4.925  11.243 -0.6170  0.6468 -0.5939
  781MOL0     C 2980   1.254   5.064  11.237  0.0166  0.3333  0.1187
  781MOL0     C 2981   1.252   5.139  11.361  0.5236  0.2641 -0.4333
  781MOL0     C 2982   1.199   5.281  11.365 -0.6414  0.4265  0.4471
  781MOL0     C 2983   1.046   5.281  11.347  0.2376 -0.3673  0.3216
  781MOL0     O 2984   1.002   5.420  11.349  0.1481  0.3177  0.0315
  781MOL0     C 2985   0.876   5.463  11.315  0.7300 -0.2739  0.7327
  781MOL0     C 2986   0.799   5.528  11.411 -1.5301  0.3051 -0.1499
  781MOL0     C 2987   0.662   5.560  11.368 -0.2734 -0.1734 -0.2820
  781MOL0     C 2988   0.619   5.525  11.235  0.5196  0.3539 -0.4201
  781MOL0     C 2989   0.483   5.559  11.188 -0.0710  0.2016  0.1000
  781MOL0     O 2990   0.437   5.468  11.093  0.4492  0.3256 -0.1104
  781MOL0     C 2991   0.301   5.454  11.081  0.1131 -0.7303  0.2374
  781MOL0     C 2992   0.232   5.375  11.176  0.3960 -0.0227 -0.2373
  781MOL0     C 2993   0.093   5.370  11.173 -0.1880  0.5428  0.1313
  781MOL0     C 2994   0.017   5.418  11.069  0.1296  0.6561  0.0945
  781MOL0     O 2995  -0.124   5.407  11.055 -0.7629  0.4275  0.0530
  781MOL0     C 2996  -0.215   5.383  11.166 -0.2477  0.0214 -0.3667
  781MOL0     C 2997  -0.347   5.433  11.129 -0.2826  0.6556  0.1101
  781MOL0     C 2998  -0.367   5.584  11.137  0.0469  0.1576  0.4937
  781MOL0     C 2999  -0.518   5.621  11.141 -0.5788  0.4535 -0.6047
  781MOL0     C 3000  -0.561   5.756  11.172 -0.2644  0.5018  0.0724
  781MOL0     C 3001  -0.478   5.857  11.084 -0.3954  0.4029  0.4397
  781MOL0     C 3002  -0.522   6.009  11.094  0.0147  0.1829  0.3051
  781MOL0     C 3003  -0.463   6.091  10.975 -0.6180  0.8134  0.6303
  781MOL0    Cl 3004  -0.282   6.073  10.974  0.1861  0.0976  0.6602
  781MOL0     C 3005   0.085   5.493  10.965  0.5851  1.0328 -0.8447
  781MOL0     C 3006   0.227   5.512  10.977 -0.3706  0.2773  0.6831
  781MOL0     O 3007   0.423   5.642  11.250  0.6804  1.2382  0.4849
  781MOL0     C 3008   0.712   5.475  11.146 -0.0582  0.8619 -0.1904
  781MOL0     C 3009   0.840   5.442  11.180  0.0571  0.2764  0.1069
  781MOL0     N 3010   1.256   4.808  11.282 -0.0125  0.6034 -0.1056
  781MOL0     N 3011   1.341   4.718  11.297  0.7620 -0.3326  0.5129
  781MOL0     C 3012   2.688   4.629  11.061  0.2005 -0.2649  0.4256
  781MOL0     C 3013   2.819   4.666  11.061  0.2236  0.2463 -0.5951
  781MOL0     C 3014   3.269   4.701  11.117 -0.2598  1.1486  0.9943
  781MOL0     C 3015   3.333   4.809  11.066  1.1549  0.1557 -0.2399
  781MOL0     C 3016   3.470   4.802  11.038 -0.2650  1.1227 -0.1017
  781MOL0     C 3017   3.539   4.678  11.037  0.5105  0.2202 -0.2977
  781MOL0     O 3018   3.671   4.697  11.014 -0.1042  0.1411  0.1480
  781MOL0     C 3019   3.742   4.593  10.946 -0.0401  0.0313  0.7089
  781MOL0     C 3020   3.713   4.583  10.794 -0.5244 -0.4520  0.0849
  781MOL0     C 3021   3.709   4.721  10.721  0.2376 -0.8253  0.3967
  781MOL0     C 3022   3.717   4.699  10.563  1.0132  0.9415  0.3236
  781MOL0     C 3023   3.584   4.653  10.514  1.0469 -0.3002 -0.0398
  781MOL0     C 3024   3.480   4.610  10.461 -0.2352  0.0695 -0.1983
  781MOL0     C 3025   3.466   4.562  11.082 -0.3002 -0.3069 -0.4132
  781MOL0     C 3026   3.327   4.567  11.113 -0.2520 -0.4814  0.4480
  781MOL0     H 3027   2.963   4.365  11.038  1.3932  2.2875  1.2112
  781MOL0     H 3028   2.731   4.294  11.027 -1.7439 -0.0546  2.5495
  781MOL0     H 3029   2.425   4.624  10.996  0.7645 -0.0447  0.5953
  781MOL0     H 3030   2.420   4.575  11.164  1.1050  0.6665 -1.1847
  781MOL0     H 3031   2.268   4.407  11.147  2.1175 -0.3808  0.0963
  781MOL0     H 3032   2.251   4.420  10.977 -0.7101 -1.3637  2.5701
  781MOL0     H 3033   2.186   4.651  10.995 -0.7647 -1.5053 -0.6387
  781MOL0     H 3034   2.203   4.643  11.177  0.0274 -2.8402  1.6995
  781MOL0     H 3035   2.013   4.488  11.019  2.3287  1.1003 -1.2631
  781MOL0     H 3036   2.036   4.478  11.205 -0.3800 -0.2738  0.1423
  781MOL0     H 3037   1.944   4.704  11.032 -1.1376 -2.9427 -2.0112
  781MOL0     H 3038   2.001   4.719  11.207 -1.6206  2.4511 -1.1179
  781MOL0     H 3039   1.835   4.616  11.297  0.5393 -1.1355 -0.3161
  781MOL0     H 3040   1.767   4.535  11.147 -0.2383 -0.5562 -0.4371
  781MOL0     H 3041   1.722   4.824  11.262 -3.4267  0.4279  1.0109
  781MOL0     H 3042   1.712   4.788  11.090 -1.9511 -0.9926 -0.5999
  781MOL0     H 3043   1.573   4.600  11.282  0.8127  3.3007  2.5838
  781MOL0     H 3044   1.553   4.626  11.110  3.3091 -0.4716 -0.7550
  781MOL0     H 3045   1.523   4.967  11.178 -0.7919  1.0242  0.4522
  781MOL0     H 3046   1.152   5.057  11.198  0.2959 -0.1159 -0.5461
  781MOL0     H 3047   1.311   5.127  11.168  0.1720 -0.7323 -0.7318
  781MOL0     H 3048   1.357   5.145  11.389  0.9081 -0.9176 -1.4850
  781MOL0     H 3049   1.206   5.072  11.434 -0.5205  0.3329 -1.0034
  781MOL0     H 3050   1.241   5.314  11.461  0.9939  2.1941 -0.7780
  781MOL0     H 3051   1.248   5.341  11.288 -3.0811  1.9205 -0.0377
  781MOL0     H 3052   0.997   5.223  11.425 -2.0705 -2.1626 -2.3072
  781MOL0     H 3053   1.013   5.248  11.249  0.4247  2.5068 -0.8077
  781MOL0     H 3054   0.851   5.541  11.506 -1.4188 -2.3668  0.2495
  781MOL0     H 3055   0.599   5.619  11.434 -0.4253  0.8504 -1.3038
  781MOL0     H 3056   0.276   5.340  11.269 -0.5726  0.4236  0.3989
  781MOL0     H 3057   0.037   5.314  11.248 -2.7097 -1.7237 -3.1490
  781MOL0     H 3058  -0.185   5.440  11.254 -3.9203 -1.1967  1.9139
  781MOL0     H 3059  -0.215   5.274  11.180  0.6636 -0.6179 -4.1907
  781MOL0     H 3060  -0.422   5.387  11.193 -2.1153 -1.7435 -3.4207
  781MOL0     H 3061  -0.379   5.404  11.028  0.7795  0.0891 -0.0831
  781MOL0     H 3062  -0.322   5.631  11.049 -1.7149 -0.3119 -0.7082
  781MOL0     H 3063  -0.310   5.631  11.218  0.7030  0.6958 -0.2486
  781MOL0     H 3064  -0.557   5.618  11.039  0.9335  3.5648 -1.3931
  781MOL0     H 3065  -0.568   5.551  11.209  2.2332 -1.6339 -0.5248
  781MOL0     H 3066  -0.551   5.779  11.279 -3.4482  1.5230  0.2555
  781MOL0     H 3067  -0.668   5.765  11.152 -0.5791  0.1633  1.4882
  781MOL0     H 3068  -0.491   5.832  10.978  1.2149  1.7262 -0.1060
  781MOL0     H 3069  -0.372   5.842  11.108 -0.5501  0.5711  1.2492
  781MOL0     H 3070  -0.630   6.023  11.101 -0.0318 -0.7900  2.6435
  781MOL0     H 3071  -0.475   6.049  11.185  1.3557  1.9598 -1.1080
  781MOL0     H 3072  -0.466   6.197  10.998 -1.7592  0.3554  2.8678
  781MOL0     H 3073  -0.514   6.083  10.878 -0.4328  3.5735  0.2285
  781MOL0     H 3074   0.022   5.534  10.887 -1.2508  0.2848  0.1787
  781MOL0     H 3075   0.282   5.565  10.900  0.9602 -2.9208 -0.7466
  781MOL0     H 3076   0.692   5.453  11.041 -1.0960 -1.5071  0.4447
  781MOL0     H 3077   0.910   5.388  11.117 -0.4833 -2.2465  1.5024
  781MOL0     H 3078   2.616   4.710  11.065 -0.2238 -0.6646  3.6774
  781MOL0     H 3079   2.845   4.769  11.083 -0.0895  0.5237 -1.5042
  781MOL0     H 3080   3.278   4.902  11.054 -1.3478 -1.2419 -0.1842
  781MOL0     H 3081   3.529   4.887  11.004  0.0840 -0.2141 -3.2420
  781MOL0     H 3082   3.718   4.500  10.997 -1.1764  0.4364  0.9256
  781MOL0     H 3083   3.850   4.614  10.948 -0.1885  0.7848  1.4219
  781MOL0     H 3084   3.792   4.532  10.738 -1.9609 -1.2733 -1.2792
  781MOL0     H 3085   3.614   4.538  10.778 -1.4827  1.9868 -1.3733
  781MOL0     H 3086   3.792   4.789  10.746 -1.8214  2.5505 -1.3251
  781MOL0     H 3087   3.622   4.776  10.757  0.9569  2.2335 -2.1105
  781MOL0     H 3088   3.746   4.792  10.514 -2.9966  2.7678  0.9704
  781MOL0     H 3089   3.797   4.630  10.534  1.3947  1.5516 -0.0968
  781MOL0     H 3090   3.391   4.582  10.408  1.3610 -1.7202 -2.1024
  781MOL0     H 3091   3.515   4.465  11.080 -1.6993 -1.0308 -0.7250
  781MOL0     H 3092   3.257   4.488  11.136 -1.6498  1.1667  2.1104
  782MOL0     O 3093   4.676  11.125   3.055  0.0982 -0.3692  1.1330
  782MOL0     C 3094   4.616  11.040   3.117  1.2180  0.3331 -0.3107
  782MOL0     O 3095   4.481  11.047   3.161 -0.3841 -0.4953  0.2905
  782MOL0     C 3096   4.397  11.149   3.137  0.3406  0.3461 -0.1240
  782MOL0     C 3097   4.272  11.133   3.196  0.1064  1.3257 -0.1528
  782MOL0     C 3098   4.171  11.224   3.187  0.0139 -0.8192  0.5007
  782MOL0     C 3099   4.187  11.343   3.112  0.0316  0.0537  0.8753
  782MOL0     O 3100   4.083  11.430   3.101  0.6485 -0.1379  0.0263
  782MOL0     C 3101   4.063  11.515   2.989 -0.5448 -0.2785  0.2739
  782MOL0     C 3102   3.935  11.592   2.985  0.1542 -0.0397 -0.7575
  782MOL0     C 3103   3.816  11.498   3.005 -0.2558  0.3060  0.1996
  782MOL0     C 3104   3.691  11.548   2.925 -0.8543  0.1814 -0.2938
  782MOL0     C 3105   3.569  11.464   2.960 -0.5834  0.4180  0.0361
  782MOL0     C 3106   3.532  11.362   2.851 -0.5286 -0.1793  0.4380
  782MOL0     C 3107   3.437  11.258   2.895 -0.0980  0.0137  0.1124
  782MOL0     C 3108   3.281  11.288   2.893 -0.3138  0.3369  0.1107
  782MOL0     N 3109   3.233  11.340   2.769  1.3460 -0.5720 -0.6417
  782MOL0     C 3110   3.225  11.468   2.730  0.6065  0.7372  0.1576
  782MOL0     C 3111   3.166  11.452   2.609 -0.0960 -0.4365 -0.2160
  782MOL0     C 3112   3.123  11.558   2.519  1.0858 -0.8440  0.3104
  782MOL0     C 3113   2.978  11.603   2.527  0.6046  0.3429  0.5619
  782MOL0     C 3114   2.941  11.721   2.437  0.3363  0.6406  0.1323
  782MOL0     C 3115   2.999  11.718   2.293  0.2618  0.5387  0.0101
  782MOL0     O 3116   2.965  11.838   2.232  0.3042  0.5795  0.5077
  782MOL0     C 3117   2.832  11.855   2.191 -0.4456  0.1870 -0.2654
  782MOL0     C 3118   2.722  11.770   2.199  1.0438  0.5821  0.2547
  782MOL0     C 3119   2.591  11.807   2.169  0.0927  0.1569 -0.0333
  782MOL0     C 3120   2.566  11.937   2.132  0.3091 -0.2899  0.1964
  782MOL0     C 3121   2.430  11.980   2.085 -0.1116 -0.4013  1.2012
  782MOL0     O 3122   2.363  11.895   2.003 -0.5244 -0.1079 -1.0123
  782MOL0     C 3123   2.237  11.935   1.965  0.8439  0.2723 -0.6812
  782MOL0     C 3124   2.144  11.972   2.069  0.5607  0.9248  0.5900
  782MOL0     C 3125   2.004  11.978   2.047  0.8035 -0.3716  0.0390
  782MOL0     C 3126   1.960  11.962   1.916  0.0421  1.2499  0.0009
  782MOL0     O 3127   1.829  11.976   1.896 -1.0954 -0.3681  0.1242
  782MOL0     C 3128   1.801  12.108   1.853  0.0528  0.7417  0.0823
  782MOL0     C 3129   1.838  12.135   1.704 -0.6870 -0.3533  0.0741
  782MOL0     C 3130   1.786  12.273   1.661  0.4042 -0.3810  0.7079
  782MOL0     C 3131   1.840  12.319   1.522  0.5547  0.4987 -0.1487
  782MOL0     C 3132   1.800  12.232   1.405  1.0773  1.2664  0.2176
  782MOL0     C 3133   1.646  12.228   1.382  0.0366 -0.3459 -0.4313
  782MOL0     C 3134   1.601  12.204   1.239 -0.1099  0.1254  0.3076
  782MOL0     C 3135   1.521  12.324   1.175  0.4369 -0.3905 -0.6928
  782MOL0    Cl 3136   1.369  12.346   1.275  0.0694  0.0202 -0.1907
  782MOL0     C 3137   2.049  11.928   1.813  0.0994  0.2187  0.8872
  782MOL0     C 3138   2.187  11.916   1.839 -0.0498  0.3984 -0.3061
  782MOL0     O 3139   2.398  12.097   2.111 -0.9870 -0.3294 -0.1264
  782MOL0     C 3140   2.673  12.024   2.115  0.2021  0.6422 -0.2933
  782MOL0     C 3141   2.797  11.978   2.139  0.2704  0.1300  0.4470
  782MOL0     N 3142   3.133  11.318   2.585 -0.7799  0.6315 -0.3074
  782MOL0     N 3143   3.186  11.253   2.678 -0.4191  0.8554 -0.1073
  782MOL0     C 3144   4.320  11.368   3.065 -0.0697 -0.7512  0.8979
  782MOL0     C 3145   4.426  11.269   3.074 -0.2151 -0.8481  0.0816
  782MOL0     C 3146   4.684  10.917   3.176  0.1938  0.2432 -0.4941
  782MOL0     C 3147   4.610  10.825   3.260 -0.0731 -0.2381 -0.1068
  782MOL0     C 3148   4.679  10.711   3.295  0.3269  0.0442 -0.3646
  782MOL0     C 3149   4.807  10.683   3.267  0.2514  0.3313 -0.0675
  782MOL0     O 3150   4.869  10.566   3.312  0.1900  0.5798  0.5800
  782MOL0     C 3151   4.854  10.445   3.234 -0.8090  0.5957 -1.3217
  782MOL0     C 3152   4.992  10.368   3.226 -0.9470  0.3127 -0.3941
  782MOL0     C 3153   5.020  10.307   3.363  0.0751 -0.3365 -0.5556
  782MOL0     C 3154   4.968  10.167   3.371  0.0328 -0.1186  0.1392
  782MOL0     C 3155   5.071  10.075   3.407 -0.4568  0.3670 -0.4382
  782MOL0     C 3156   5.161   9.995   3.423 -0.6000  0.1237 -0.9190
  782MOL0     C 3157   4.885  10.778   3.199  0.3351 -0.1552  1.3078
  782MOL0     C 3158   4.820  10.889   3.147  0.8012  0.0859 -0.0597
  782MOL0     H 3159   4.239  11.035   3.227 -0.7730  0.2020 -4.1040
  782MOL0     H 3160   4.076  11.202   3.235 -1.5201 -0.9235 -2.4046
  782MOL0     H 3161   4.067  11.441   2.909  2.6267 -0.9011  0.8875
  782MOL0     H 3162   4.142  11.590   2.982 -0.2410 -0.4878  1.3152
  782MOL0     H 3163   3.937  11.643   2.888  0.0234  2.4506  0.4454
  782MOL0     H 3164   3.937  11.678   3.054  2.9576 -1.2876  0.8721
  782MOL0     H 3165   3.805  11.485   3.113  1.2721 -1.6725  0.1643
  782MOL0     H 3166   3.834  11.399   2.962  3.2513  0.5502  0.8092
  782MOL0     H 3167   3.676  11.654   2.952  1.8815  0.7307 -0.7109
  782MOL0     H 3168   3.720  11.540   2.820 -1.4446 -1.3571 -0.3537
  782MOL0     H 3169   3.483  11.531   2.969 -1.6293 -1.0470  1.4809
  782MOL0     H 3170   3.567  11.427   3.063 -1.2157  2.3779  0.7756
  782MOL0     H 3171   3.629  11.318   2.826  1.0769  4.0028 -1.8372
  782MOL0     H 3172   3.495  11.398   2.754  0.2586 -2.9674 -1.0079
  782MOL0     H 3173   3.439  11.186   2.812 -1.5382  1.5894 -1.3825
  782MOL0     H 3174   3.475  11.210   2.986  1.1836 -2.9869 -1.8213
  782MOL0     H 3175   3.258  11.368   2.964 -2.7926 -0.2252  0.0357
  782MOL0     H 3176   3.224  11.202   2.931  0.3437 -1.1063 -1.9889
  782MOL0     H 3177   3.262  11.559   2.777  0.9286  0.2328  0.8952
  782MOL0     H 3178   3.140  11.509   2.423  4.3218 -1.8062  1.2540
  782MOL0     H 3179   3.195  11.635   2.549  0.0346  0.4477 -0.3863
  782MOL0     H 3180   2.948  11.642   2.625  0.5729  2.4285 -0.2330
  782MOL0     H 3181   2.918  11.516   2.499 -1.9876  1.9999  0.6206
  782MOL0     H 3182   2.832  11.716   2.430  0.4660  0.3273 -4.1219
  782MOL0     H 3183   2.977  11.818   2.474  0.6113  0.9806 -1.0018
  782MOL0     H 3184   2.964  11.626   2.244 -1.5390  0.3200  1.5715
  782MOL0     H 3185   3.107  11.706   2.290  0.2690  0.7791 -1.4211
  782MOL0     H 3186   2.735  11.664   2.217  0.2811  0.2761 -0.9295
  782MOL0     H 3187   2.511  11.735   2.157  1.3260 -1.1388 -0.8157
  782MOL0     H 3188   2.178  11.985   2.171  0.3241 -0.7188  0.9070
  782MOL0     H 3189   1.938  11.999   2.132 -0.8275  3.2326 -1.8834
  782MOL0     H 3190   1.826  12.188   1.924 -1.1499  0.8903  0.3732
  782MOL0     H 3191   1.693  12.113   1.874  0.2594 -2.5121  2.7430
  782MOL0     H 3192   1.802  12.058   1.636  1.2652 -0.0202 -1.4336
  782MOL0     H 3193   1.946  12.148   1.690 -1.1060  4.5006 -0.2217
  782MOL0     H 3194   1.815  12.346   1.738 -1.6130  1.2608  0.0072
  782MOL0     H 3195   1.677  12.266   1.660  0.4709 -1.4827  0.4671
  782MOL0     H 3196   1.809  12.422   1.506  1.6471  0.6732 -1.2933
  782MOL0     H 3197   1.949  12.317   1.534  0.5222 -2.1068  0.4035
  782MOL0     H 3198   1.839  12.130   1.415  3.8878  2.2775  0.5903
  782MOL0     H 3199   1.840  12.270   1.310 -1.1601  0.8020 -0.9732
  782MOL0     H 3200   1.619  12.329   1.414  1.8556  0.1146 -0.2028
  782MOL0     H 3201   1.610  12.143   1.440  0.5468 -0.8443 -0.8216
  782MOL0     H 3202   1.696  12.181   1.189  0.8874  0.5473  1.9531
  782MOL0     H 3203   1.539  12.115   1.228 -0.3966  0.6063 -3.5279
  782MOL0     H 3204   1.511  12.305   1.068  3.1734 -1.4939 -0.8286
  782MOL0     H 3205   1.571  12.420   1.182 -2.0835  1.1334 -2.0099
  782MOL0     H 3206   2.006  11.918   1.714 -0.0329 -3.0000  1.1469
  782MOL0     H 3207   2.254  11.885   1.759 -0.5358  1.8047 -1.2884
  782MOL0     H 3208   2.666  12.128   2.086  2.1694  0.6700 -0.7769
  782MOL0     H 3209   2.875  12.052   2.122 -0.4467  0.2333 -3.4303
  782MOL0     H 3210   4.346  11.458   3.010  0.4418 -1.6537 -0.4023
  782MOL0     H 3211   4.529  11.292   3.048  0.0013 -0.0864  1.5073
  782MOL0     H 3212   4.508  10.836   3.295  0.8189 -0.2963  2.7685
  782MOL0     H 3213   4.621  10.637   3.348 -1.5016 -1.5067 -4.1107
  782MOL0     H 3214   4.830  10.459   3.128  0.8088  1.7275 -1.5875
  782MOL0     H 3215   4.781  10.380   3.282 -0.5205  1.2899  0.1131
  782MOL0     H 3216   4.992  10.295   3.145 -3.8528 -2.0749  1.5192
  782MOL0     H 3217   5.069  10.444   3.214  1.2429 -1.5323  0.9267
  782MOL0     H 3218   4.978  10.359   3.449  2.2757 -2.9081  2.2778
  782MOL0     H 3219   5.129  10.312   3.366  0.0385  2.2018 -1.3175
  782MOL0     H 3220   4.892  10.162   3.450  0.4219  1.3705  0.6395
  782MOL0     H 3221   4.934  10.128   3.275  0.4121 -1.3777  0.4997
  782MOL0     H 3222   5.236   9.921   3.446 -1.2031 -0.7431 -1.6460
  782MOL0     H 3223   4.987  10.753   3.173 -0.6608 -3.0545 -0.3244
  782MOL0     H 3224   4.866  10.957   3.075  0.4710  0.0855 -0.2708
  783MOL0     O 3225   4.003   6.213   1.812 -0.3795 -0.2422  0.2182
  783MOL0     C 3226   4.070   6.111   1.771  1.5274 -0.8643 -0.3553
  783MOL0     O 3227   4.205   6.110   1.765  0.5326 -0.0792  0.2538
  783MOL0     C 3228   4.288   6.216   1.791 -1.6342  0.0484  0.0320
  783MOL0     C 3229   4.252   6.353   1.767 -0.9322 -0.6353  0.1911
  783MOL0     C 3230   4.347   6.454   1.791  0.0107 -0.3698 -0.8092
  783MOL0     C 3231   4.477   6.419   1.829 -0.7266 -0.1923  0.8581
  783MOL0     O 3232   4.586   6.507   1.836  0.3468  0.0539 -0.0258
  783MOL0     C 3233   4.586   6.639   1.792 -0.2663  0.4545  0.2434
  783MOL0     C 3234   4.723   6.712   1.805  0.0186 -0.3774  0.4732
  783MOL0     C 3235   4.754   6.833   1.713 -0.0278  0.8364 -0.5009
  783MOL0     C 3236   4.644   6.938   1.719 -0.1084  0.7986  0.3723
  783MOL0     C 3237   4.688   7.084   1.691 -0.6734 -0.0467 -1.1741
  783MOL0     C 3238   4.575   7.181   1.692  0.2696  0.1894  0.4098
  783MOL0     C 3239   4.611   7.329   1.662  0.8983  0.4063  0.2261
  783MOL0     C 3240   4.487   7.411   1.653  0.6436 -0.9555 -0.8540
  783MOL0     N 3241   4.408   7.439   1.778  0.1640  0.1542  0.8252
  783MOL0     C 3242   4.307   7.356   1.817 -0.1477  0.4687 -0.1693
  783MOL0     C 3243   4.251   7.406   1.935 -1.2073  0.0912 -0.0455
  783MOL0     C 3244   4.157   7.337   2.036  0.1291 -0.4845 -0.0340
  783MOL0     C 3245   4.017   7.401   2.045 -0.0762 -0.9567  0.5806
  783MOL0     C 3246   3.914   7.318   2.130 -0.6079  0.5601 -0.0883
  783MOL0     C 3247   3.771   7.343   2.080 -1.1395 -0.3307  0.2737
  783MOL0     O 3248   3.726   7.478   2.090  0.3725 -0.5799  0.1997
  783MOL0     C 3249   3.605   7.497   2.028  0.8179  0.9283  0.0120
  783MOL0     C 3250   3.490   7.519   2.100 -0.0178 -0.1305  0.8251
  783MOL0     C 3251   3.365   7.522   2.035 -1.4481  0.3404 -0.8467
  783MOL0     C 3252   3.352   7.483   1.899 -0.8479 -0.3981 -0.5978
  783MOL0     C 3253   3.220   7.459   1.831 -0.4058 -0.5947 -0.0478
  783MOL0     O 3254   3.114   7.505   1.899 -0.3568  0.5072 -0.4128
  783MOL0     C 3255   2.984   7.497   1.853 -0.3869  0.6995 -0.0774
  783MOL0     C 3256   2.924   7.377   1.815  0.0038  0.6363  0.7000
  783MOL0     C 3257   2.796   7.372   1.768  0.3207  0.7483 -0.2685
  783MOL0     C 3258   2.717   7.490   1.741 -0.7098  0.2975 -0.3278
  783MOL0     O 3259   2.583   7.489   1.705  1.0925  0.4241  0.6250
  783MOL0     C 3260   2.521   7.371   1.653 -0.3752  0.7353  0.5949
  783MOL0     C 3261   2.405   7.425   1.563 -0.3692  0.3722 -0.5739
  783MOL0     C 3262   2.309   7.518   1.629 -0.5372 -0.9013  0.6165
  783MOL0     C 3263   2.175   7.523   1.559 -0.2986  0.7659  0.1465
  783MOL0     C 3264   2.061   7.588   1.635 -0.6870  0.0867  0.2143
  783MOL0     C 3265   2.086   7.744   1.653  0.3439 -0.0391  1.3001
  783MOL0     C 3266   2.041   7.809   1.519  0.6400 -0.0457 -1.0804
  783MOL0     C 3267   2.079   7.960   1.520 -0.1903  0.7259  0.8678
  783MOL0    Cl 3268   2.249   7.959   1.454 -0.0084  0.0352 -0.0803
  783MOL0     C 3269   2.778   7.605   1.786  0.7006  0.0186 -0.2357
  783MOL0     C 3270   2.907   7.610   1.849  0.4185 -0.5165  1.2291
  783MOL0     O 3271   3.226   7.426   1.714  0.2043  0.6102 -0.6743
  783MOL0     C 3272   3.475   7.468   1.826  0.4923 -0.3612  0.0864
  783MOL0     C 3273   3.599   7.474   1.892  0.4650  0.0374  0.0145
  783MOL0     N 3274   4.335   7.517   1.959 -0.1108 -0.0491  0.1689
  783MOL0     N 3275   4.416   7.540   1.860 -1.2141 -0.1363  0.9674
  783MOL0     C 3276   4.515   6.286   1.857  0.1352 -0.1314 -0.9231
  783MOL0     C 3277   4.419   6.180   1.834 -0.4611 -0.2168  0.5760
  783MOL0     C 3278   3.996   5.982   1.737 -0.4802 -0.1098  0.3718
  783MOL0     C 3279   3.858   5.982   1.752 -0.2241 -0.2958  0.3052
  783MOL0     C 3280   3.789   5.858   1.743  1.0613 -0.8691  0.5153
  783MOL0     C 3281   3.851   5.744   1.693 -0.6894  0.0106  0.8225
  783MOL0     O 3282   3.775   5.630   1.671  1.3734 -0.4110 -0.2480
  783MOL0     C 3283   3.836   5.500   1.656 -0.5110 -0.4193  0.3363
  783MOL0     C 3284   3.730   5.406   1.610 -0.5099  0.6130 -0.3028
  783MOL0     C 3285   3.623   5.381   1.716 -0.4932 -0.4213 -0.5360
  783MOL0     C 3286   3.516   5.265   1.689 -0.2749 -0.9582  0.2921
  783MOL0     C 3287   3.442   5.286   1.564  0.1545 -0.9054 -0.3763
  783MOL0     C 3288   3.398   5.285   1.453  0.5096  0.0613 -0.1593
  783MOL0     C 3289   3.996   5.748   1.682  0.2279 -0.5961 -0.7301
  783MOL0     C 3290   4.067   5.863   1.704  0.4070  0.0045  0.0440
  783MOL0     H 3291   4.160   6.373   1.713  0.6807 -0.4214 -2.6766
  783MOL0     H 3292   4.316   6.557   1.774 -1.1646  0.1405  3.1452
  783MOL0     H 3293   4.522   6.692   1.863 -1.5693  4.2012 -3.3652
  783MOL0     H 3294   4.548   6.646   1.690 -3.0057  1.6254  1.2409
  783MOL0     H 3295   4.800   6.637   1.784  1.4485  1.3187 -0.5310
  783MOL0     H 3296   4.730   6.755   1.905 -4.8175  0.9949  0.4798
  783MOL0     H 3297   4.764   6.794   1.611  2.5413  1.0085 -0.3693
  783MOL0     H 3298   4.848   6.881   1.740  0.6500 -2.4677  4.1947
  783MOL0     H 3299   4.578   6.912   1.636 -1.4431 -0.2543  1.6994
  783MOL0     H 3300   4.586   6.939   1.812 -0.0874  1.4070  0.3831
  783MOL0     H 3301   4.742   7.084   1.596 -0.1163  0.9174 -0.8601
  783MOL0     H 3302   4.759   7.120   1.766  2.9262 -1.3920 -3.6943
  783MOL0     H 3303   4.530   7.176   1.792  0.0814 -1.8009  0.2664
  783MOL0     H 3304   4.494   7.140   1.630 -0.1687 -1.0991  1.7630
  783MOL0     H 3305   4.688   7.373   1.726  0.3258 -0.8831  1.8738
  783MOL0     H 3306   4.646   7.337   1.559  1.3365 -0.3596  0.3067
  783MOL0     H 3307   4.421   7.364   1.580 -1.2171  0.5179 -0.1810
  783MOL0     H 3308   4.515   7.508   1.610  1.1377 -0.7947 -0.1910
  783MOL0     H 3309   4.275   7.279   1.748  2.2667  1.0683 -2.1192
  783MOL0     H 3310   4.203   7.346   2.135 -2.6869  2.8249  1.1534
  783MOL0     H 3311   4.150   7.230   2.013  0.1498 -0.5298  0.1665
  783MOL0     H 3312   3.975   7.417   1.946  0.9620 -3.7529 -0.3919
  783MOL0     H 3313   4.032   7.503   2.083  0.1311 -0.1248 -1.5877
  783MOL0     H 3314   3.940   7.219   2.092  1.8998  2.1963 -3.0897
  783MOL0     H 3315   3.929   7.323   2.238 -1.9562 -2.5511  0.3565
  783MOL0     H 3316   3.691   7.287   2.129 -1.4807 -0.8443 -0.8185
  783MOL0     H 3317   3.771   7.304   1.977 -3.0533  2.0602 -0.7273
  783MOL0     H 3318   3.493   7.549   2.204 -0.0619  4.6199 -0.3201
  783MOL0     H 3319   3.279   7.551   2.093 -0.6443 -1.5351  1.4300
  783MOL0     H 3320   2.976   7.281   1.813  0.9282  1.1232 -1.5811
  783MOL0     H 3321   2.751   7.275   1.752 -1.3567  1.3143  0.6674
  783MOL0     H 3322   2.499   7.299   1.732  0.5110 -2.1756 -1.6728
  783MOL0     H 3323   2.585   7.306   1.594  3.1466  2.9111  1.6663
  783MOL0     H 3324   2.353   7.332   1.539  0.5690 -1.2407  2.9489
  783MOL0     H 3325   2.428   7.487   1.476 -2.5129  2.0166 -0.0515
  783MOL0     H 3326   2.361   7.614   1.621  0.6910 -1.4269  1.8250
  783MOL0     H 3327   2.299   7.480   1.732 -1.2641 -1.7607  0.2446
  783MOL0     H 3328   2.179   7.560   1.456 -0.2198 -2.1241 -1.0046
  783MOL0     H 3329   2.145   7.418   1.550  0.1680  0.6454 -0.0538
  783MOL0     H 3330   2.049   7.535   1.730 -3.3806 -0.1484 -0.1767
  783MOL0     H 3331   1.970   7.571   1.578 -0.1730 -2.8137  0.0903
  783MOL0     H 3332   2.191   7.767   1.677  0.5455  0.6225 -0.0783
  783MOL0     H 3333   2.022   7.783   1.733 -4.5340 -2.7564 -0.8357
  783MOL0     H 3334   2.090   7.752   1.440 -3.2800 -2.2357 -2.2068
  783MOL0     H 3335   1.932   7.801   1.516  0.4501  1.8140 -0.4841
  783MOL0     H 3336   2.077   8.002   1.622 -0.0183 -0.8568  1.5432
  783MOL0     H 3337   2.016   8.018   1.452  0.6268 -0.6364 -1.1545
  783MOL0     H 3338   2.724   7.698   1.773  2.7696  1.3494  0.1402
  783MOL0     H 3339   2.947   7.705   1.883  0.4641 -1.0894  2.8356
  783MOL0     H 3340   3.460   7.471   1.718 -2.8218 -0.5843  0.4533
  783MOL0     H 3341   3.684   7.460   1.825  1.8379  1.8210  1.2688
  783MOL0     H 3342   4.610   6.257   1.901  1.1432  3.8858  0.0047
  783MOL0     H 3343   4.435   6.074   1.850 -1.0750 -0.4465 -0.2603
  783MOL0     H 3344   3.802   6.074   1.762 -4.1137 -2.4531  0.7599
  783MOL0     H 3345   3.683   5.864   1.764  0.2827 -2.0003 -2.5408
  783MOL0     H 3346   3.881   5.475   1.753  2.0084 -0.1338 -0.6937
  783MOL0     H 3347   3.911   5.514   1.578 -1.3274  2.1652 -0.0945
  783MOL0     H 3348   3.677   5.446   1.523 -0.2290 -1.2153 -1.3544
  783MOL0     H 3349   3.780   5.312   1.585  0.4476  1.5074 -1.9209
  783MOL0     H 3350   3.561   5.471   1.716 -1.7814 -1.2812  0.3493
  783MOL0     H 3351   3.657   5.354   1.816 -2.0486  2.5063  0.8911
  783MOL0     H 3352   3.561   5.165   1.681 -2.8238 -2.1152 -0.5722
  783MOL0     H 3353   3.446   5.263   1.773 -1.3814  2.2341 -0.3953
  783MOL0     H 3354   3.352   5.276   1.357  0.3523  3.0996 -0.4470
  783MOL0     H 3355   4.051   5.660   1.647  0.6276 -2.5632  4.0446
  783MOL0     H 3356   4.171   5.867   1.675  0.7437  0.5813  1.2664
  784MOL0     O 3357   1.433   6.761   7.021 -0.3784 -0.2366 -0.0606
  784MOL0     C 3358   1.486   6.828   7.114 -1.0472  0.1841  0.1228
  784MOL0     O 3359   1.424   6.876   7.221 -0.3974 -0.2395 -0.8862
  784MOL0     C 3360   1.299   6.829   7.242 -0.2372  0.1627  0.0646
  784MOL0     C 3361   1.264   6.698   7.267 -0.3761  0.4375  0.7807
  784MOL0     C 3362   1.131   6.655   7.299 -0.4877  0.1735 -0.3650
  784MOL0     C 3363   1.029   6.747   7.303  0.2208  0.6337  0.0263
  784MOL0     O 3364   0.904   6.719   7.347  0.1120  0.0131 -0.2789
  784MOL0     C 3365   0.834   6.608   7.295 -0.0786  0.2703 -0.6710
  784MOL0     C 3366   0.705   6.634   7.230  0.0693 -0.1210  0.7685
  784MOL0     C 3367   0.613   6.702   7.329 -0.2468 -0.3184  0.4162
  784MOL0     C 3368   0.477   6.735   7.274 -0.6543 -0.0056  1.3158
  784MOL0     C 3369   0.398   6.828   7.362  0.7445  0.2423 -0.5389
  784MOL0     C 3370   0.293   6.901   7.278  0.0667  0.6110 -0.5521
  784MOL0     C 3371   0.221   7.001   7.368  0.5606  0.7515  0.3728
  784MOL0     C 3372   0.106   7.082   7.311 -0.4133  0.5115 -0.5654
  784MOL0     N 3373  -0.023   7.021   7.291  0.5685  0.1340 -0.2521
  784MOL0     C 3374  -0.121   7.011   7.385  0.1011 -0.0404 -0.1333
  784MOL0     C 3375  -0.228   6.964   7.318 -0.5471 -0.5547 -0.0385
  784MOL0     C 3376  -0.358   6.920   7.380  0.2005  0.0446 -0.0074
  784MOL0     C 3377  -0.328   6.858   7.518  0.5838  1.6321 -0.0377
  784MOL0     C 3378  -0.458   6.806   7.577 -0.0763 -0.1277 -0.2397
  784MOL0     C 3379  -0.496   6.667   7.517 -1.0184  0.0812 -0.2664
  784MOL0     O 3380  -0.613   6.606   7.571 -0.0952  0.0418 -0.7521
  784MOL0     C 3381  -0.705   6.568   7.479  0.1867 -0.0097  0.2827
  784MOL0     C 3382  -0.671   6.507   7.355 -0.2303 -0.2927 -1.1820
  784MOL0     C 3383  -0.765   6.468   7.260  0.4811 -0.5449  0.4216
  784MOL0     C 3384  -0.906   6.504   7.275  0.3729 -0.6634 -0.0353
  784MOL0     C 3385  -1.003   6.486   7.171 -0.1563 -0.4497 -1.6553
  784MOL0     O 3386  -0.967   6.413   7.066  0.8000  0.3793  0.5120
  784MOL0     C 3387  -1.060   6.372   6.967 -0.2142 -0.6297  0.2269
  784MOL0     C 3388  -1.155   6.459   6.913  0.5046  0.1017  0.8354
  784MOL0     C 3389  -1.240   6.413   6.811 -0.4022 -0.2674  0.9027
  784MOL0     C 3390  -1.230   6.290   6.764 -0.8358  0.7792 -0.5189
  784MOL0     O 3391  -1.299   6.255   6.653 -0.8930  0.3980  0.6682
  784MOL0     C 3392  -1.321   6.120   6.618  1.0673  0.0386  0.8711
  784MOL0     C 3393  -1.428   6.119   6.514 -0.2144  0.1294  0.5161
  784MOL0     C 3394  -1.477   5.975   6.470  0.4214  0.8108 -0.7455
  784MOL0     C 3395  -1.547   5.900   6.573 -0.3729 -0.2378 -0.3747
  784MOL0     C 3396  -1.582   5.760   6.519 -0.3416  0.4937 -0.2502
  784MOL0     C 3397  -1.653   5.678   6.631  0.0273  0.7199  0.0791
  784MOL0     C 3398  -1.685   5.538   6.596 -0.2249 -0.4430  0.1409
  784MOL0     C 3399  -1.803   5.476   6.668  0.4256  0.0753 -0.3199
  784MOL0    Cl 3400  -1.962   5.553   6.632  0.4279 -0.2770  0.1197
  784MOL0     C 3401  -1.137   6.200   6.821  0.6903  0.0755 -0.5573
  784MOL0     C 3402  -1.050   6.240   6.921 -0.0491 -0.5122  0.0590
  784MOL0     O 3403  -1.111   6.549   7.185  0.3003  0.2018 -0.1949
  784MOL0     C 3404  -0.947   6.570   7.400 -0.1435  0.2335  0.2604
  784MOL0     C 3405  -0.839   6.593   7.496  0.3572 -0.1859 -0.4189
  784MOL0     N 3406  -0.197   6.965   7.184  0.0408  0.9760 -0.3076
  784MOL0     N 3407  -0.076   6.994   7.174  0.2022  0.5768  0.5491
  784MOL0     C 3408   1.059   6.878   7.282  0.6885  0.5081  0.2317
  784MOL0     C 3409   1.192   6.920   7.242  0.3068  0.0423 -0.2677
  784MOL0     C 3410   1.628   6.877   7.089 -0.9593  1.0514  0.4729
  784MOL0     C 3411   1.677   6.900   6.959  0.7310  0.3548  0.0439
  784MOL0     C 3412   1.803   6.950   6.947  0.6569  0.0895  0.4327
  784MOL0     C 3413   1.897   6.962   7.056 -0.5129  0.0510  0.6899
  784MOL0     O 3414   2.022   7.009   7.005  0.4542  0.7440 -0.9633
  784MOL0     C 3415   2.133   7.007   7.093 -0.1837 -0.2555  0.0274
  784MOL0     C 3416   2.268   7.064   7.034 -0.6473  0.1156  0.6784
  784MOL0     C 3417   2.245   7.215   6.991  0.6746 -0.0889  0.3443
  784MOL0     C 3418   2.322   7.252   6.860 -0.6075 -0.6171  0.7824
  784MOL0     C 3419   2.253   7.185   6.744 -0.2833 -0.3433 -1.1377
  784MOL0     C 3420   2.213   7.125   6.650 -0.4293 -0.1401  0.7640
  784MOL0     C 3421   1.853   6.920   7.183  1.2586 -0.0178 -0.1697
  784MOL0     C 3422   1.716   6.892   7.202 -0.1683  1.1735  0.3747
  784MOL0     H 3423   1.336   6.618   7.254 -1.7972 -0.9677  1.1902
  784MOL0     H 3424   1.106   6.550   7.314 -0.4081  0.4784  2.4094
  784MOL0     H 3425   0.817   6.534   7.374 -1.5496 -1.6996 -2.6962
  784MOL0     H 3426   0.899   6.559   7.222  0.1662  0.6287 -0.6985
  784MOL0     H 3427   0.657   6.541   7.200  0.7483 -0.9337  2.0841
  784MOL0     H 3428   0.719   6.698   7.143 -4.0529  1.4170  1.0255
  784MOL0     H 3429   0.670   6.792   7.354 -0.9631  0.9304 -2.0355
  784MOL0     H 3430   0.599   6.645   7.421  3.7184 -2.4876 -0.1123
  784MOL0     H 3431   0.481   6.774   7.171 -1.6694 -0.2114  1.1958
  784MOL0     H 3432   0.419   6.644   7.259 -0.7112  0.0458  1.2177
  784MOL0     H 3433   0.473   6.895   7.405 -1.2863  0.5234  2.9299
  784MOL0     H 3434   0.358   6.778   7.451  2.5700  1.6192  1.1464
  784MOL0     H 3435   0.222   6.825   7.244  0.9551  0.7338 -2.8885
  784MOL0     H 3436   0.344   6.944   7.191 -1.7786  1.2653 -1.3660
  784MOL0     H 3437   0.187   6.939   7.452  0.4144  3.7326  2.6841
  784MOL0     H 3438   0.294   7.071   7.410  1.2485 -1.6261  3.5143
  784MOL0     H 3439   0.139   7.123   7.214 -1.7087 -2.7987 -2.5844
  784MOL0     H 3440   0.091   7.167   7.378  0.7192  0.1130  0.2099
  784MOL0     H 3441  -0.113   7.042   7.489 -0.1389  0.6138 -0.3073
  784MOL0     H 3442  -0.413   6.851   7.315 -3.5114  1.8369  0.9413
  784MOL0     H 3443  -0.428   7.004   7.390 -1.1809 -1.3215  3.4681
  784MOL0     H 3444  -0.285   6.928   7.591  1.3061  1.7799 -0.5976
  784MOL0     H 3445  -0.259   6.774   7.518 -3.4029 -2.0498 -1.9687
  784MOL0     H 3446  -0.466   6.801   7.686  0.2646  0.9596 -0.1585
  784MOL0     H 3447  -0.534   6.876   7.543 -1.2117 -0.4911  1.4217
  784MOL0     H 3448  -0.411   6.605   7.544 -2.0222 -0.7167  1.1865
  784MOL0     H 3449  -0.502   6.677   7.408  1.2119  2.1662 -0.2706
  784MOL0     H 3450  -0.568   6.479   7.338  0.3367  1.2000 -0.3224
  784MOL0     H 3451  -0.722   6.428   7.168  0.0791  0.6381 -0.3024
  784MOL0     H 3452  -1.169   6.559   6.951  5.0215  0.7865  1.2379
  784MOL0     H 3453  -1.317   6.484   6.782 -1.7927 -0.6555  3.3137
  784MOL0     H 3454  -1.356   6.062   6.704  0.9958 -1.7430 -0.3003
  784MOL0     H 3455  -1.226   6.070   6.594  0.9897 -0.3239  1.3180
  784MOL0     H 3456  -1.398   6.181   6.430  0.1701 -1.7080 -0.7666
  784MOL0     H 3457  -1.517   6.162   6.561 -2.1758 -1.7180 -1.2719
  784MOL0     H 3458  -1.389   5.911   6.457  0.5402  0.2391  2.2151
  784MOL0     H 3459  -1.535   5.973   6.377  1.0196  2.5786 -1.1916
  784MOL0     H 3460  -1.494   5.890   6.668  1.4975 -1.8861 -1.5114
  784MOL0     H 3461  -1.638   5.952   6.605  1.2624  2.2190  0.5657
  784MOL0     H 3462  -1.490   5.707   6.489 -1.4137 -1.3580 -0.4381
  784MOL0     H 3463  -1.644   5.764   6.429  0.9631 -0.9112 -1.2780
  784MOL0     H 3464  -1.740   5.737   6.661  0.7611  1.0724  1.6085
  784MOL0     H 3465  -1.580   5.671   6.712  1.1030 -1.5450 -1.0224
  784MOL0     H 3466  -1.698   5.529   6.488 -2.4685 -1.9896  0.4428
  784MOL0     H 3467  -1.591   5.483   6.611 -0.9190 -2.7811 -2.9112
  784MOL0     H 3468  -1.788   5.488   6.775 -1.3161 -3.0598  0.3891
  784MOL0     H 3469  -1.809   5.368   6.651 -1.1764 -0.3615  2.4839
  784MOL0     H 3470  -1.124   6.097   6.790 -0.8429  0.0845 -1.3210
  784MOL0     H 3471  -0.972   6.180   6.964  2.4988  0.4344 -2.8274
  784MOL0     H 3472  -1.047   6.609   7.420 -1.6227 -1.6163 -2.7279
  784MOL0     H 3473  -0.876   6.656   7.576  1.6526 -0.4738  0.4389
  784MOL0     H 3474   0.984   6.957   7.278  0.3583  0.1601 -0.9143
  784MOL0     H 3475   1.210   7.026   7.228  1.7379 -0.4879 -3.2748
  784MOL0     H 3476   1.611   6.894   6.872  0.8131 -1.0561  0.0559
  784MOL0     H 3477   1.826   6.977   6.844 -2.2168 -0.5676 -0.4831
  784MOL0     H 3478   2.149   6.905   7.129  0.9076 -0.6284 -1.4204
  784MOL0     H 3479   2.112   7.078   7.174  2.5385  0.1677  0.4625
  784MOL0     H 3480   2.354   7.056   7.101  1.1472  0.6422 -1.4489
  784MOL0     H 3481   2.299   7.014   6.942 -0.8531  1.2112 -0.0088
  784MOL0     H 3482   2.279   7.274   7.077  0.3713  1.7916 -0.7614
  784MOL0     H 3483   2.138   7.236   6.985 -0.4942 -4.5490  1.6756
  784MOL0     H 3484   2.312   7.360   6.846 -2.1412 -0.7839  0.4176
  784MOL0     H 3485   2.427   7.222   6.871 -0.7838 -1.1682  0.9793
  784MOL0     H 3486   2.175   7.056   6.577 -3.2390  0.7838  1.2381
  784MOL0     H 3487   1.916   6.927   7.272  0.5361  0.6881  0.2991
  784MOL0     H 3488   1.673   6.871   7.299 -1.7344 -3.5947 -1.0633
  785MOL0     O 3489   5.710   2.214   1.880  0.4680 -0.0296  0.0249
  785MOL0     C 3490   5.793   2.124   1.902 -0.1505  0.5573 -0.3758
  785MOL0     O 3491   5.826   2.020   1.815 -0.0146  0.1897  0.3509
  785MOL0     C 3492   5.739   2.002   1.711 -0.7863 -0.9570  0.5870
  785MOL0     C 3493   5.725   2.103   1.621 -0.1861  0.4582 -0.7842
  785MOL0     C 3494   5.643   2.085   1.513  0.2874  0.7792  0.6880
  785MOL0     C 3495   5.578   1.961   1.484 -0.2882 -0.2165 -0.7653
  785MOL0     O 3496   5.476   1.940   1.390  0.1615 -1.0842 -0.4637
  785MOL0     C 3497   5.450   2.038   1.293 -0.1982  0.0891 -0.1606
  785MOL0     C 3498   5.334   2.136   1.322  1.0656 -0.0534 -0.7191
  785MOL0     C 3499   5.303   2.230   1.201  0.9411 -0.0455 -0.5927
  785MOL0     C 3500   5.179   2.308   1.238 -0.0112  0.4070 -0.7314
  785MOL0     C 3501   5.049   2.248   1.170 -0.7992 -0.0474  0.4369
  785MOL0     C 3502   5.021   2.096   1.200  0.2630  0.2123  0.6978
  785MOL0     C 3503   4.887   2.057   1.129  0.6554  0.2409 -0.6566
  785MOL0     C 3504   4.860   1.901   1.135 -0.2830 -0.1524  1.1111
  785MOL0     N 3505   4.976   1.827   1.071  0.2726 -0.0932  0.7413
  785MOL0     C 3506   5.060   1.741   1.133  0.6023 -0.1132  0.1686
  785MOL0     C 3507   5.136   1.688   1.034 -1.1245 -0.6284 -0.5060
  785MOL0     C 3508   5.240   1.587   1.057  0.1271  0.0017  0.1846
  785MOL0     C 3509   5.194   1.448   1.036  0.0570 -0.8977  0.3218
  785MOL0     C 3510   5.124   1.417   0.889 -0.3309 -0.3975 -0.7658
  785MOL0     C 3511   5.091   1.270   0.887 -0.0590  0.4681  0.3876
  785MOL0     O 3512   5.208   1.193   0.908 -0.2264  0.1783 -0.0055
  785MOL0     C 3513   5.298   1.166   0.813  0.6852  0.5110  0.3043
  785MOL0     C 3514   5.296   1.190   0.676  0.5225  0.3960 -0.0334
  785MOL0     C 3515   5.408   1.181   0.599  1.0540 -0.7014 -0.4059
  785MOL0     C 3516   5.534   1.139   0.649  0.3719 -0.8509  0.7850
  785MOL0     C 3517   5.659   1.135   0.571  0.3316 -0.2603 -0.7726
  785MOL0     O 3518   5.780   1.150   0.639 -0.2546  0.0932 -0.2110
  785MOL0     C 3519   5.901   1.175   0.569  0.6906 -0.4020 -0.7290
  785MOL0     C 3520   5.949   1.299   0.540 -0.4058  0.3654  0.3648
  785MOL0     C 3521   6.067   1.310   0.472 -0.1829 -0.0109 -0.8013
  785MOL0     C 3522   6.140   1.200   0.437 -0.0093 -0.5166 -0.4598
  785MOL0     O 3523   6.259   1.231   0.381 -0.2555  0.6386 -0.2130
  785MOL0     C 3524   6.355   1.128   0.371 -0.1521  0.2635 -0.4781
  785MOL0     C 3525   6.475   1.191   0.292  0.7600 -0.0096 -0.4525
  785MOL0     C 3526   6.555   1.310   0.343  0.0381  0.4947 -0.5272
  785MOL0     C 3527   6.464   1.435   0.353  0.6981 -0.1894 -0.1230
  785MOL0     C 3528   6.538   1.553   0.409  0.5158  0.1050  0.5517
  785MOL0     C 3529   6.468   1.693   0.433 -0.4253 -0.7530 -0.1859
  785MOL0     C 3530   6.358   1.678   0.538  0.1508  0.0641  0.0787
  785MOL0     C 3531   6.298   1.809   0.578 -0.1654 -0.2240  1.2561
  785MOL0    Cl 3532   6.170   1.779   0.702  0.0798  0.1438  0.2295
  785MOL0     C 3533   6.098   1.069   0.471  0.0550 -0.0221  0.1996
  785MOL0     C 3534   5.977   1.067   0.542 -0.6321  0.3524 -1.0124
  785MOL0     O 3535   5.643   1.146   0.450 -0.2969  0.6707 -0.4053
  785MOL0     C 3536   5.533   1.119   0.790 -0.3814  0.5708  0.0167
  785MOL0     C 3537   5.421   1.131   0.873 -0.2579  0.6641 -0.2210
  785MOL0     N 3538   5.099   1.744   0.913 -0.5963 -1.4475 -0.8008
  785MOL0     N 3539   5.001   1.830   0.940 -0.5667 -0.1728 -1.1465
  785MOL0     C 3540   5.598   1.858   1.579  0.3793 -1.2109  0.4016
  785MOL0     C 3541   5.674   1.882   1.695 -0.2535 -0.1354  0.5594
  785MOL0     C 3542   5.853   2.123   2.043 -0.3413  0.1153 -0.4185
  785MOL0     C 3543   5.813   2.216   2.139  0.2934  0.4441 -0.6594
  785MOL0     C 3544   5.865   2.196   2.268 -0.5835  0.5541  0.8935
  785MOL0     C 3545   5.954   2.092   2.292 -0.2388  0.8107  0.6992
  785MOL0     O 3546   6.015   2.076   2.410 -0.0408 -0.7893  0.5373
  785MOL0     C 3547   6.137   2.152   2.435 -0.2377  0.2043 -0.2575
  785MOL0     C 3548   6.187   2.127   2.579  0.5407  0.4934 -0.6811
  785MOL0     C 3549   6.233   1.985   2.596 -0.6347  0.5221 -0.0102
  785MOL0     C 3550   6.247   1.934   2.740  0.2516  0.4389  0.2139
  785MOL0     C 3551   6.268   2.030   2.840  1.0662 -0.6465  0.2229
  785MOL0     C 3552   6.295   2.115   2.926  1.2603  0.3343 -0.6399
  785MOL0     C 3553   5.994   1.997   2.196  0.6066 -0.9003  0.7670
  785MOL0     C 3554   5.944   2.020   2.065 -0.2688  0.4406  0.2140
  785MOL0     H 3555   5.773   2.199   1.637  0.4523 -0.0059  0.1383
  785MOL0     H 3556   5.621   2.165   1.443  0.2116 -2.0219 -2.7604
  785MOL0     H 3557   5.421   1.981   1.204  3.3574  1.4230 -2.4040
  785MOL0     H 3558   5.539   2.095   1.265 -0.9060  2.7505  2.5769
  785MOL0     H 3559   5.363   2.198   1.407  0.8287 -2.8828  1.5548
  785MOL0     H 3560   5.242   2.089   1.356  0.4764  3.3650  3.1829
  785MOL0     H 3561   5.287   2.186   1.102 -2.9559  1.9805 -1.0301
  785MOL0     H 3562   5.385   2.302   1.194 -1.5328  3.2233  1.3906
  785MOL0     H 3563   5.159   2.308   1.345 -2.4165 -0.0163 -1.1118
  785MOL0     H 3564   5.195   2.415   1.223  1.6530  0.4963  1.2918
  785MOL0     H 3565   5.064   2.257   1.062 -1.6397 -0.2259  0.2934
  785MOL0     H 3566   4.965   2.314   1.194  0.5140  2.5622 -1.6733
  785MOL0     H 3567   5.015   2.082   1.308  1.5796  0.7293  0.8578
  785MOL0     H 3568   5.104   2.043   1.154  0.2014 -0.8522  1.7780
  785MOL0     H 3569   4.802   2.115   1.166 -0.1093 -1.3342  0.1313
  785MOL0     H 3570   4.900   2.087   1.025 -1.0990  2.1832 -0.3836
  785MOL0     H 3571   4.764   1.881   1.086  0.7294 -4.9911  0.5996
  785MOL0     H 3572   4.850   1.864   1.237  0.7272 -0.0303  1.2620
  785MOL0     H 3573   5.056   1.726   1.240  0.5936 -3.1994 -0.1813
  785MOL0     H 3574   5.289   1.612   1.152 -1.3919 -0.5069  1.1304
  785MOL0     H 3575   5.306   1.598   0.969 -1.6568 -3.8282 -1.8595
  785MOL0     H 3576   5.118   1.431   1.113  0.0861 -0.1189  0.5267
  785MOL0     H 3577   5.279   1.380   1.046 -0.8024 -2.4883 -2.2074
  785MOL0     H 3578   5.036   1.482   0.876 -0.1468 -0.2105 -1.0859
  785MOL0     H 3579   5.190   1.453   0.810  0.7264  3.5759  1.6408
  785MOL0     H 3580   5.046   1.246   0.790  0.9496  4.3829 -1.2239
  785MOL0     H 3581   5.015   1.244   0.961 -1.3372  0.7087 -0.7910
  785MOL0     H 3582   5.210   1.227   0.622 -0.7544  1.5530  2.5983
  785MOL0     H 3583   5.394   1.203   0.494  2.5567  2.7438 -0.0047
  785MOL0     H 3584   5.886   1.384   0.566 -1.7083 -0.6410  0.6247
  785MOL0     H 3585   6.109   1.407   0.446  1.2049 -0.4569 -0.2927
  785MOL0     H 3586   6.321   1.043   0.312  0.8287  1.4763 -2.9184
  785MOL0     H 3587   6.386   1.087   0.468 -0.3793  0.1213 -0.4649
  785MOL0     H 3588   6.441   1.223   0.193 -0.2794  2.7687  0.6938
  785MOL0     H 3589   6.542   1.109   0.264  2.1128  0.0355  2.3403
  785MOL0     H 3590   6.642   1.332   0.281  0.0686  2.4600  0.1367
  785MOL0     H 3591   6.591   1.276   0.441 -2.6011 -0.3425  0.2443
  785MOL0     H 3592   6.425   1.470   0.257 -0.3817  2.1038  1.0704
  785MOL0     H 3593   6.386   1.413   0.426  0.5760 -0.3941 -0.3126
  785MOL0     H 3594   6.633   1.567   0.357  1.5817 -3.2491  1.3398
  785MOL0     H 3595   6.567   1.521   0.509 -0.4326  0.0771  0.8311
  785MOL0     H 3596   6.432   1.731   0.337 -0.7849  1.1124  0.6294
  785MOL0     H 3597   6.545   1.762   0.470 -2.2717  2.5037 -1.9393
  785MOL0     H 3598   6.278   1.615   0.499 -2.2373  1.4937  2.3576
  785MOL0     H 3599   6.392   1.623   0.626  0.8276  0.6207  0.1803
  785MOL0     H 3600   6.262   1.868   0.493  3.1066 -0.2944 -0.3171
  785MOL0     H 3601   6.380   1.869   0.617 -0.4368  1.6781 -0.8198
  785MOL0     H 3602   6.147   0.978   0.438 -1.2635 -0.8101  0.3230
  785MOL0     H 3603   5.944   0.978   0.594  0.4181  0.9635  0.8130
  785MOL0     H 3604   5.616   1.084   0.849 -0.1352  1.5019  0.2370
  785MOL0     H 3605   5.434   1.110   0.979  1.5647 -0.6650 -0.6709
  785MOL0     H 3606   5.543   1.765   1.572 -2.1479  0.1958  0.3217
  785MOL0     H 3607   5.654   1.814   1.777 -0.9296 -1.7716 -0.8954
  785MOL0     H 3608   5.753   2.305   2.128  1.2625  1.1843 -0.0847
  785MOL0     H 3609   5.847   2.256   2.357 -0.5558  1.5533  0.2479
  785MOL0     H 3610   6.121   2.259   2.420 -3.7391 -0.0558  0.6947
  785MOL0     H 3611   6.205   2.112   2.359 -2.8522 -4.0011 -0.6965
  785MOL0     H 3612   6.273   2.189   2.606  0.5041  1.1140 -1.9118
  785MOL0     H 3613   6.105   2.145   2.650  1.2598 -4.4180  1.8683
  785MOL0     H 3614   6.333   1.989   2.552 -0.3873 -0.7904  0.4114
  785MOL0     H 3615   6.174   1.913   2.541 -1.3700  1.1286 -0.0326
  785MOL0     H 3616   6.162   1.874   2.772  0.8810 -0.9883 -0.6952
  785MOL0     H 3617   6.334   1.867   2.741  0.5303  0.5851 -3.0811
  785MOL0     H 3618   6.338   2.172   3.006  0.8663  0.2213 -0.3414
  785MOL0     H 3619   6.066   1.918   2.218 -0.6988 -2.9507 -1.7971
  785MOL0     H 3620   5.989   1.974   1.978 -2.6200  2.3374 -2.1717
  786MOL0     O 3621   1.744   6.650   9.838  1.0304  0.3370  0.2458
  786MOL0     C 3622   1.669   6.550   9.853 -0.2884  0.2973  0.6238
  786MOL0     O 3623   1.703   6.430   9.825  0.5081 -0.3937 -0.5061
  786MOL0     C 3624   1.826   6.383   9.856 -0.7932  1.1999 -0.4464
  786MOL0     C 3625   1.883   6.297   9.761 -0.1415  1.3110  0.0486
  786MOL0     C 3626   2.010   6.240   9.782 -0.4168 -0.7461 -0.6359
  786MOL0     C 3627   2.084   6.261   9.895  0.6846  0.0485 -0.1133
  786MOL0     O 3628   2.207   6.199   9.915  0.1422  0.3095  0.4569
  786MOL0     C 3629   2.285   6.166   9.801  0.0139 -0.0772  0.6266
  786MOL0     C 3630   2.431   6.142   9.836 -0.3857 -0.8076  0.5387
  786MOL0     C 3631   2.501   6.059   9.733 -0.4982  0.2389  0.2079
  786MOL0     C 3632   2.645   6.019   9.774  0.0204 -0.6615 -1.1190
  786MOL0     C 3633   2.700   5.934   9.661  0.2484  0.4926 -0.1984
  786MOL0     C 3634   2.744   6.015   9.536  0.2736  1.2855  0.1410
  786MOL0     C 3635   2.839   5.942   9.444  0.7280  0.3295  0.5377
  786MOL0     C 3636   2.756   5.842   9.351  0.7456  1.4087  0.0136
  786MOL0     N 3637   2.806   5.800   9.225 -0.3323  1.0197 -0.0064
  786MOL0     C 3638   2.913   5.851   9.161  0.2183 -0.1412  0.4554
  786MOL0     C 3639   2.914   5.780   9.038 -0.3764 -0.6234  0.4001
  786MOL0     C 3640   3.007   5.803   8.927 -0.3272 -0.1376 -0.0891
  786MOL0     C 3641   3.091   5.692   8.873 -0.7907 -0.0789 -0.2889
  786MOL0     C 3642   3.189   5.630   8.976 -0.9671  0.1534  0.3562
  786MOL0     C 3643   3.321   5.711   8.992 -0.1995 -0.6786 -0.1189
  786MOL0     O 3644   3.408   5.636   9.072 -0.7624  0.1888  0.3398
  786MOL0     C 3645   3.535   5.698   9.091 -0.4466  0.7055  0.3601
  786MOL0     C 3646   3.559   5.827   9.148 -0.7323  0.3813 -0.6031
  786MOL0     C 3647   3.685   5.889   9.144 -0.3963  1.3402  0.6970
  786MOL0     C 3648   3.795   5.821   9.086 -0.1094 -0.5337  0.3579
  786MOL0     C 3649   3.935   5.880   9.082 -0.2732  0.7627  0.1069
  786MOL0     O 3650   4.042   5.805   9.058  0.5689 -0.2180 -0.2056
  786MOL0     C 3651   4.161   5.866   9.074 -1.2065 -0.4139 -0.6511
  786MOL0     C 3652   4.209   5.974   9.000 -0.2230 -0.7905 -0.1616
  786MOL0     C 3653   4.335   6.031   9.019  0.5120 -0.4319 -0.0504
  786MOL0     C 3654   4.427   5.967   9.101  0.7422 -0.4578  0.6919
  786MOL0     O 3655   4.556   6.018   9.111 -0.2689  0.6502  0.0013
  786MOL0     C 3656   4.651   5.931   9.158  0.3896 -0.7222 -0.6676
  786MOL0     C 3657   4.780   6.011   9.117 -1.0402  0.6506 -0.3842
  786MOL0     C 3658   4.892   5.975   9.216 -0.2630  0.0980 -0.5021
  786MOL0     C 3659   4.937   5.824   9.212  0.4285 -1.1088 -0.0226
  786MOL0     C 3660   5.056   5.793   9.297  0.4817  0.0648  1.1990
  786MOL0     C 3661   5.173   5.887   9.268 -0.0538  0.4015  1.0691
  786MOL0     C 3662   5.300   5.849   9.340 -1.0440  0.1549 -1.2561
  786MOL0     C 3663   5.288   5.829   9.487  0.2161  0.3612  0.5142
  786MOL0    Cl 3664   5.454   5.806   9.552 -0.1255 -0.4104  0.3214
  786MOL0     C 3665   4.379   5.865   9.189  0.0413 -0.0507 -0.2738
  786MOL0     C 3666   4.252   5.817   9.170  0.3284  0.2711  0.5000
  786MOL0     O 3667   3.937   5.999   9.104  0.3461  0.1819 -0.0033
  786MOL0     C 3668   3.781   5.686   9.051 -0.5514  0.0842 -0.0535
  786MOL0     C 3669   3.651   5.627   9.047 -0.3002  0.6483 -0.0545
  786MOL0     N 3670   2.815   5.687   9.035 -0.8611 -0.8426 -0.9106
  786MOL0     N 3671   2.746   5.699   9.152 -1.1384 -0.1172  0.5664
  786MOL0     C 3672   2.023   6.337   9.992  0.1089  0.1415  0.6775
  786MOL0     C 3673   1.899   6.397   9.974  0.2604  0.8856 -0.1975
  786MOL0     C 3674   1.533   6.569   9.897 -0.4214  0.5142 -0.1581
  786MOL0     C 3675   1.490   6.693   9.954  0.7329  0.2739  0.6930
  786MOL0     C 3676   1.357   6.708   9.993  0.1197  0.9733 -0.5342
  786MOL0     C 3677   1.265   6.596   9.995  0.1217  0.7057  1.3217
  786MOL0     O 3678   1.133   6.613  10.038  0.7187 -0.2071 -0.5124
  786MOL0     C 3679   1.087   6.724  10.118 -0.2436  0.0042 -0.4505
  786MOL0     C 3680   0.926   6.718  10.114  0.2394 -0.8560  0.1070
  786MOL0     C 3681   0.866   6.847  10.184  0.8438  0.0200  0.1574
  786MOL0     C 3682   0.716   6.874  10.145 -0.8552  0.4747  0.8780
  786MOL0     C 3683   0.666   6.991  10.220  0.4264 -0.0787  0.1148
  786MOL0     C 3684   0.647   7.082  10.288 -0.3609  0.1987  0.3551
  786MOL0     C 3685   1.301   6.484   9.928 -0.2800  0.3663 -1.1253
  786MOL0     C 3686   1.430   6.468   9.871  0.3113  0.0241  0.3073
  786MOL0     H 3687   1.836   6.279   9.665  4.0006  0.6479 -2.1123
  786MOL0     H 3688   2.052   6.174   9.707  2.3790 -1.0048  1.0077
  786MOL0     H 3689   2.284   6.255   9.738  2.6923  0.0158  0.6213
  786MOL0     H 3690   2.249   6.073   9.754 -1.7529 -0.5976  2.8064
  786MOL0     H 3691   2.417   6.079   9.925 -2.4326 -3.3815 -1.4366
  786MOL0     H 3692   2.495   6.227   9.860 -0.2473 -1.1994  1.6415
  786MOL0     H 3693   2.524   6.127   9.650  3.0019  0.9440  1.5718
  786MOL0     H 3694   2.438   5.978   9.696 -0.4362 -0.3723  1.3975
  786MOL0     H 3695   2.701   6.112   9.782 -0.7464 -0.3527  1.6991
  786MOL0     H 3696   2.658   5.972   9.872 -0.4372  0.7656 -0.3593
  786MOL0     H 3697   2.636   5.848   9.642 -1.1708  1.2471  0.9932
  786MOL0     H 3698   2.792   5.888   9.700 -0.9702 -1.1095  0.9077
  786MOL0     H 3699   2.784   6.113   9.564 -1.0632  1.7114  0.6387
  786MOL0     H 3700   2.656   6.045   9.479 -2.0487  0.8022  3.2031
  786MOL0     H 3701   2.888   6.014   9.378  2.4587 -2.1217 -1.0213
  786MOL0     H 3702   2.911   5.879   9.497 -1.3639  1.5640  5.4107
  786MOL0     H 3703   2.657   5.885   9.334  0.4863  1.8717  2.3623
  786MOL0     H 3704   2.723   5.752   9.404 -1.6480 -0.2335 -3.8042
  786MOL0     H 3705   2.974   5.931   9.201  0.9273 -1.2092  1.5817
  786MOL0     H 3706   3.077   5.883   8.953  0.2951 -0.9324  0.7412
  786MOL0     H 3707   2.939   5.832   8.846 -1.1964 -1.8769 -0.0236
  786MOL0     H 3708   3.151   5.722   8.787 -1.6354 -0.5756 -1.0612
  786MOL0     H 3709   3.019   5.620   8.835 -2.1926  0.6378  0.8928
  786MOL0     H 3710   3.133   5.621   9.070  1.4712  0.4665  1.9370
  786MOL0     H 3711   3.213   5.527   8.946 -0.3675 -0.8372  3.8183
  786MOL0     H 3712   3.297   5.808   9.037 -4.3078 -1.5400 -0.0536
  786MOL0     H 3713   3.358   5.750   8.897  0.4450  2.9062  1.4361
  786MOL0     H 3714   3.485   5.887   9.199  0.5540 -0.7093  2.8185
  786MOL0     H 3715   3.706   5.984   9.192 -1.0202  1.3762  0.9122
  786MOL0     H 3716   4.159   6.014   8.912  1.9230  0.9024 -0.7258
  786MOL0     H 3717   4.363   6.106   8.946  0.4612 -2.3336 -2.1161
  786MOL0     H 3718   4.637   5.831   9.114 -2.3136 -0.4277 -0.6731
  786MOL0     H 3719   4.629   5.927   9.265  3.5502 -1.3918  0.0670
  786MOL0     H 3720   4.759   6.119   9.110 -2.1681  0.8376  3.6838
  786MOL0     H 3721   4.812   5.981   9.017  0.6607 -1.0160  0.6063
  786MOL0     H 3722   4.859   5.996   9.318 -2.9453 -2.8022 -0.6247
  786MOL0     H 3723   4.976   6.040   9.192 -0.3443  0.3273 -0.1687
  786MOL0     H 3724   4.856   5.759   9.247 -0.5950  0.8564  1.4416
  786MOL0     H 3725   4.962   5.801   9.108 -1.3123  2.4114 -1.3782
  786MOL0     H 3726   5.093   5.692   9.278 -0.1760  0.4948 -3.6883
  786MOL0     H 3727   5.029   5.800   9.403  0.1033 -0.9605  1.1766
  786MOL0     H 3728   5.160   5.989   9.305 -0.2246  0.7142  0.1936
  786MOL0     H 3729   5.203   5.896   9.163  0.2289 -0.8417  1.0348
  786MOL0     H 3730   5.345   5.762   9.291  0.7850  0.9602 -1.1232
  786MOL0     H 3731   5.377   5.925   9.322 -2.3034  1.5607 -0.9280
  786MOL0     H 3732   5.231   5.736   9.497 -0.0760  0.1628 -2.1848
  786MOL0     H 3733   5.252   5.919   9.537  1.5303  2.0233 -1.3810
  786MOL0     H 3734   4.436   5.823   9.271 -0.6162  1.8094  1.2023
  786MOL0     H 3735   4.219   5.728   9.223 -0.7846 -0.9186 -2.0257
  786MOL0     H 3736   3.869   5.634   9.015  1.1882  1.3026  2.1818
  786MOL0     H 3737   3.635   5.529   9.002 -1.4301  1.2595 -1.0268
  786MOL0     H 3738   2.076   6.349  10.086  2.1804  2.1211 -0.6454
  786MOL0     H 3739   1.877   6.473  10.049  3.1578  3.9965 -2.1630
  786MOL0     H 3740   1.562   6.774   9.953 -1.0112  1.9205  2.1036
  786MOL0     H 3741   1.328   6.798  10.046  2.1562 -0.3066  3.0954
  786MOL0     H 3742   1.108   6.823  10.075 -0.0039 -0.2951 -1.0281
  786MOL0     H 3743   1.130   6.725  10.219 -2.8179  3.0215  0.7966
  786MOL0     H 3744   0.898   6.718  10.008 -2.0593 -1.5112  0.6448
  786MOL0     H 3745   0.879   6.635  10.168 -0.1977 -0.1225  0.8882
  786MOL0     H 3746   0.931   6.935  10.169 -0.9579  1.6686  1.5685
  786MOL0     H 3747   0.877   6.826  10.290  5.1077 -1.2885 -0.3589
  786MOL0     H 3748   0.717   6.903  10.040  4.5446 -0.5305  0.3670
  786MOL0     H 3749   0.650   6.790  10.167  1.0531 -1.5087 -0.5844
  786MOL0     H 3750   0.629   7.159  10.360 -1.9437 -1.1217  1.4517
  786MOL0     H 3751   1.230   6.403   9.923  1.6702 -1.4408 -0.9526
  786MOL0     H 3752   1.465   6.373   9.830  3.3576  0.2891  1.9557
  787MOL0     O 3753   4.846   0.113   1.223 -0.0488  0.3684  0.2136
  787MOL0     C 3754   4.786   0.093   1.325  0.1978  1.4537 -0.2743
  787MOL0     O 3755   4.838   0.079   1.452  0.5184  0.2835 -0.5076
  787MOL0     C 3756   4.966   0.111   1.459 -0.6238  0.0485 -0.3557
  787MOL0     C 3757   5.060   0.011   1.469 -0.2287  0.2909  0.0048
  787MOL0     C 3758   5.200   0.043   1.475  0.1772 -0.5329  0.0541
  787MOL0     C 3759   5.242   0.183   1.464  0.1368  0.9101  0.3545
  787MOL0     O 3760   5.370   0.235   1.469  0.7199  0.2723  0.3545
  787MOL0     C 3761   5.480   0.148   1.494  0.3590  0.3287  0.2925
  787MOL0     C 3762   5.616   0.221   1.485 -0.9583 -0.4857 -0.0326
  787MOL0     C 3763   5.748   0.146   1.527  0.3233 -0.0229 -1.1710
  787MOL0     C 3764   5.878   0.211   1.486 -0.1829 -0.4927  0.3718
  787MOL0     C 3765   5.986   0.123   1.543  0.1492  0.5411  0.4732
  787MOL0     C 3766   5.971  -0.031   1.500 -0.2324  0.0659 -0.3608
  787MOL0     C 3767   5.972  -0.047   1.352  0.6569  0.0927 -0.6923
  787MOL0     C 3768   6.010  -0.186   1.302  0.3493  0.1606 -0.0258
  787MOL0     N 3769   5.932  -0.293   1.368  1.5603  0.8102  0.8472
  787MOL0     C 3770   5.951  -0.354   1.496  0.3403 -0.0551 -0.5757
  787MOL0     C 3771   5.861  -0.454   1.500  0.1083 -0.0738  0.3302
  787MOL0     C 3772   5.825  -0.552   1.614  0.3451  0.2751  1.0157
  787MOL0     C 3773   5.942  -0.640   1.681  0.0908 -1.0366  0.7703
  787MOL0     C 3774   6.041  -0.554   1.761 -0.6411 -0.4140 -0.2165
  787MOL0     C 3775   5.984  -0.502   1.896 -0.4032 -1.0352  0.0106
  787MOL0     O 3776   5.965  -0.364   1.879  0.8141 -0.0618 -0.3146
  787MOL0     C 3777   6.078  -0.278   1.877  0.4489  0.6561  0.6691
  787MOL0     C 3778   6.210  -0.315   1.906  0.5981 -0.3933  0.5343
  787MOL0     C 3779   6.318  -0.227   1.898  0.5055  0.7190  0.5571
  787MOL0     C 3780   6.292  -0.094   1.870  0.1356 -0.1129 -0.5727
  787MOL0     C 3781   6.391   0.011   1.880 -1.6784 -0.3004  0.4567
  787MOL0     O 3782   6.527  -0.018   1.888  0.0317 -0.5809  0.2086
  787MOL0     C 3783   6.610   0.076   1.857  0.3544  0.0318  0.5459
  787MOL0     C 3784   6.633   0.106   1.720 -0.5956 -0.5975  1.5131
  787MOL0     C 3785   6.737   0.194   1.690 -0.0245 -0.5581 -0.1393
  787MOL0     C 3786   6.819   0.253   1.793 -0.7975  0.2125 -0.5871
  787MOL0     O 3787   6.911   0.350   1.781  0.2373 -0.4495 -0.0211
  787MOL0     C 3788   6.997   0.326   1.677  0.9824 -0.3734  1.0201
  787MOL0     C 3789   7.144   0.335   1.712 -0.3750  0.0070 -0.1784
  787MOL0     C 3790   7.169   0.476   1.785 -0.1971 -0.0249  0.6397
  787MOL0     C 3791   7.319   0.480   1.840  0.2179  0.4644 -1.2793
  787MOL0     C 3792   7.429   0.529   1.744 -0.6638  0.0986 -1.3260
  787MOL0     C 3793   7.564   0.494   1.804  0.5105  0.0495 -0.2653
  787MOL0     C 3794   7.596   0.576   1.925 -0.5149 -0.2162 -0.3408
  787MOL0     C 3795   7.740   0.536   1.979  0.1346  0.3646  0.0098
  787MOL0    Cl 3796   7.738   0.359   2.022  0.1229 -0.3993 -0.3510
  787MOL0     C 3797   6.781   0.223   1.926  0.4350  0.5441  1.0509
  787MOL0     C 3798   6.683   0.129   1.955  0.2831  0.6287 -0.1837
  787MOL0     O 3799   6.352   0.125   1.875  0.1438  0.0003  0.6599
  787MOL0     C 3800   6.156  -0.054   1.852 -0.4051 -0.5695 -0.3393
  787MOL0     C 3801   6.050  -0.154   1.851  0.9845  0.0705 -0.5960
  787MOL0     N 3802   5.790  -0.454   1.384 -0.1593  1.0698 -0.4848
  787MOL0     N 3803   5.827  -0.361   1.314  0.4393 -0.4781  1.2566
  787MOL0     C 3804   5.136   0.272   1.455 -0.0520  0.5310 -1.3154
  787MOL0     C 3805   5.000   0.240   1.459 -0.6683 -0.3096  0.2327
  787MOL0     C 3806   4.635   0.094   1.307 -0.1132 -0.1646 -0.1200
  787MOL0     C 3807   4.554   0.147   1.408 -0.3567  0.0182 -0.8012
  787MOL0     C 3808   4.419   0.133   1.403  0.0455  0.2286 -0.0482
  787MOL0     C 3809   4.354   0.082   1.290  0.2792  0.1253  0.4604
  787MOL0     O 3810   4.222   0.092   1.288 -0.2737  0.5075 -0.4642
  787MOL0     C 3811   4.157   0.018   1.189 -0.6352 -0.8424  0.3304
  787MOL0     C 3812   4.005   0.047   1.212  0.3602 -0.0065 -0.0763
  787MOL0     C 3813   3.944   0.183   1.163  0.6467 -0.5596 -0.1049
  787MOL0     C 3814   4.020   0.304   1.206  0.3547  0.6808 -0.2625
  787MOL0     C 3815   3.975   0.442   1.172 -0.3009  0.1055  0.0328
  787MOL0     C 3816   3.938   0.551   1.129 -0.5889  0.7117  1.1875
  787MOL0     C 3817   4.423   0.046   1.181  0.5470  0.5024 -0.1021
  787MOL0     C 3818   4.561   0.042   1.195 -0.4717 -0.9479  0.2532
  787MOL0     H 3819   5.026  -0.089   1.495  1.2618 -0.1836  0.2274
  787MOL0     H 3820   5.271  -0.039   1.490  0.0460 -0.9196 -1.2636
  787MOL0     H 3821   5.491   0.065   1.424  0.5961 -0.7461  1.5822
  787MOL0     H 3822   5.467   0.096   1.589  2.2752 -0.1985  0.3005
  787MOL0     H 3823   5.595   0.304   1.554  1.6823  0.3045 -0.0811
  787MOL0     H 3824   5.632   0.257   1.383  3.4025 -1.5882  0.0813
  787MOL0     H 3825   5.731   0.043   1.493  2.6055 -1.0613  0.5743
  787MOL0     H 3826   5.740   0.140   1.636  0.1933 -3.4284 -1.2591
  787MOL0     H 3827   5.891   0.218   1.377  1.7872 -1.4565  0.5112
  787MOL0     H 3828   5.880   0.312   1.529 -1.4184  0.5085 -1.7434
  787MOL0     H 3829   5.983   0.133   1.652 -2.1388  0.6755  0.4369
  787MOL0     H 3830   6.082   0.159   1.504  0.9464 -1.3775  0.5505
  787MOL0     H 3831   5.890  -0.082   1.553  0.8954 -2.0757 -0.5712
  787MOL0     H 3832   6.060  -0.086   1.530  1.5086  1.6956 -2.1689
  787MOL0     H 3833   5.870  -0.030   1.317  0.5357  0.2410 -0.2644
  787MOL0     H 3834   6.049   0.012   1.301  0.5685  1.6107  0.8664
  787MOL0     H 3835   6.118  -0.190   1.315  0.5823 -0.9627 -1.9537
  787MOL0     H 3836   5.997  -0.195   1.194 -0.2295  0.4850  0.0092
  787MOL0     H 3837   6.014  -0.319   1.577 -1.2557  1.5022  0.0521
  787MOL0     H 3838   5.764  -0.628   1.565  0.9182  1.2904 -1.3851
  787MOL0     H 3839   5.766  -0.499   1.689 -0.0617  1.9491 -0.4216
  787MOL0     H 3840   5.994  -0.707   1.612  1.6453 -2.7800  3.4381
  787MOL0     H 3841   5.883  -0.710   1.741 -1.1925 -0.6036  0.0477
  787MOL0     H 3842   6.112  -0.627   1.802 -3.1624 -0.8573  3.9243
  787MOL0     H 3843   6.097  -0.481   1.702  2.2272 -2.0017  0.3314
  787MOL0     H 3844   6.052  -0.531   1.977  0.0902 -0.3826 -0.1633
  787MOL0     H 3845   5.885  -0.542   1.921 -0.6480  1.2070  3.0962
  787MOL0     H 3846   6.232  -0.420   1.921  0.2235 -0.4730  0.5115
  787MOL0     H 3847   6.419  -0.259   1.921 -0.7135 -1.2889  3.7719
  787MOL0     H 3848   6.576   0.056   1.642  0.7727  3.4533 -2.4891
  787MOL0     H 3849   6.744   0.228   1.587 -3.9603  0.7162 -0.1884
  787MOL0     H 3850   6.972   0.403   1.603  2.5914 -0.8667 -0.0892
  787MOL0     H 3851   6.960   0.240   1.620 -0.1525  0.4918  0.4026
  787MOL0     H 3852   7.210   0.326   1.625  1.0262  2.8116  0.4738
  787MOL0     H 3853   7.183   0.249   1.767  0.1219 -0.8357 -1.7863
  787MOL0     H 3854   7.098   0.486   1.867 -1.9373 -1.5097 -0.6152
  787MOL0     H 3855   7.170   0.568   1.725 -1.6349  1.6848  3.0675
  787MOL0     H 3856   7.321   0.552   1.922 -0.2623  1.0649 -1.7866
  787MOL0     H 3857   7.334   0.376   1.868  0.3094  0.0389 -2.7843
  787MOL0     H 3858   7.427   0.636   1.724 -0.6174  0.6771  1.4167
  787MOL0     H 3859   7.418   0.475   1.649 -1.4455 -1.5761 -0.3275
  787MOL0     H 3860   7.646   0.519   1.735  2.1908  2.0693  2.2849
  787MOL0     H 3861   7.562   0.387   1.824  1.0412 -0.3135 -1.9430
  787MOL0     H 3862   7.590   0.679   1.889 -2.0048 -0.3245 -0.4568
  787MOL0     H 3863   7.520   0.568   2.003  1.2057  3.1223  1.9097
  787MOL0     H 3864   7.758   0.594   2.070  0.8588 -3.2367  2.3847
  787MOL0     H 3865   7.813   0.543   1.898 -1.5242  0.3411 -1.5523
  787MOL0     H 3866   6.827   0.277   2.008 -0.2749  3.4364 -0.3095
  787MOL0     H 3867   6.679   0.090   2.056 -0.2933 -0.5220 -0.6280
  787MOL0     H 3868   6.124   0.049   1.858 -1.3863 -0.9520  2.5347
  787MOL0     H 3869   5.946  -0.131   1.832  0.1570 -0.4378  2.7502
  787MOL0     H 3870   5.157   0.378   1.455  2.4097  0.2366  2.3485
  787MOL0     H 3871   4.925   0.316   1.475 -0.8378 -1.1772  5.5168
  787MOL0     H 3872   4.607   0.192   1.491 -0.6383 -2.7164  0.9948
  787MOL0     H 3873   4.340   0.162   1.471 -1.8043 -3.2268 -0.5261
  787MOL0     H 3874   4.171  -0.089   1.204 -3.1008 -1.6981 -2.5589
  787MOL0     H 3875   4.185   0.046   1.087 -2.0321  1.7966  0.5818
  787MOL0     H 3876   3.961  -0.047   1.177  0.9754 -0.7719  1.1287
  787MOL0     H 3877   3.981   0.047   1.318  0.5102 -3.4841  0.0822
  787MOL0     H 3878   3.839   0.200   1.191  1.4048  3.3141  0.9894
  787MOL0     H 3879   3.923   0.176   1.055 -0.2484  1.1359 -0.0745
  787MOL0     H 3880   4.015   0.298   1.315  2.6910  3.1702  0.0960
  787MOL0     H 3881   4.126   0.300   1.180  0.8715  1.9665  1.5192
  787MOL0     H 3882   3.919   0.648   1.087  1.5019  0.0481 -1.5617
  787MOL0     H 3883   4.381  -0.000   1.092 -0.1344  3.0348 -1.1948
  787MOL0     H 3884   4.615   0.007   1.108  0.2096  1.3002 -0.2984
  788MOL0     O 3885   7.888   5.455  10.206 -0.5644  0.0314 -0.1697
  788MOL0     C 3886   7.922   5.571  10.188 -0.3360 -0.3056 -0.8244
  788MOL0     O 3887   8.027   5.613  10.103  0.3015 -0.2341 -0.6463
  788MOL0     C 3888   8.082   5.532  10.001  0.5015 -0.0714  0.8974
  788MOL0     C 3889   8.034   5.411   9.942  0.6966 -0.1793  0.0864
  788MOL0     C 3890   8.114   5.333   9.856 -0.0890 -0.7989 -0.3272
  788MOL0     C 3891   8.235   5.383   9.814 -0.7118  1.0594 -0.7980
  788MOL0     O 3892   8.303   5.297   9.724 -0.0807 -0.3679 -0.5420
  788MOL0     C 3893   8.424   5.339   9.651  0.1916 -0.1043 -0.3291
  788MOL0     C 3894   8.485   5.231   9.558  0.7864 -0.2159 -0.4516
  788MOL0     C 3895   8.494   5.097   9.632 -0.8078  0.3354  0.3005
  788MOL0     C 3896   8.547   4.979   9.538  0.6177 -0.8969  0.6695
  788MOL0     C 3897   8.629   4.872   9.601 -0.0894 -0.2398 -0.3477
  788MOL0     C 3898   8.542   4.766   9.666 -0.1630  0.3377 -0.1608
  788MOL0     C 3899   8.623   4.648   9.729 -0.2071  0.2614 -0.5993
  788MOL0     C 3900   8.556   4.517   9.684  0.3241 -0.5782  0.0937
  788MOL0     N 3901   8.539   4.413   9.782  0.0772 -0.0946 -0.3375
  788MOL0     C 3902   8.639   4.346   9.847 -0.2704 -0.7030  0.3802
  788MOL0     C 3903   8.579   4.255   9.928  0.2666  0.4319 -0.0280
  788MOL0     C 3904   8.670   4.147   9.989  0.4171 -0.1646 -1.0365
  788MOL0     C 3905   8.659   4.150  10.146  0.0661  0.0336  0.4177
  788MOL0     C 3906   8.732   4.277  10.213 -0.0431 -0.7199 -0.4948
  788MOL0     C 3907   8.880   4.287  10.180  0.8302  0.3543  0.4360
  788MOL0     O 3908   8.929   4.409  10.237  0.1488  0.6435 -0.2714
  788MOL0     C 3909   9.043   4.464  10.196  0.6886  0.2090 -0.5862
  788MOL0     C 3910   9.061   4.600  10.231  0.3501  0.3673 -0.0035
  788MOL0     C 3911   9.173   4.676  10.207  0.0438  0.2566  0.4937
  788MOL0     C 3912   9.282   4.614  10.142 -1.3530  0.1132 -0.1828
  788MOL0     C 3913   9.412   4.692  10.130  0.1533  0.3018 -0.0329
  788MOL0     O 3914   9.392   4.823  10.119 -0.4847  0.1910 -0.8029
  788MOL0     C 3915   9.501   4.897  10.134 -0.5253 -0.9801 -0.6069
  788MOL0     C 3916   9.517   4.956  10.262 -0.1477 -0.2880  0.3554
  788MOL0     C 3917   9.645   5.002  10.298 -0.3093 -0.0048  0.3376
  788MOL0     C 3918   9.752   5.006  10.209  0.3510  0.8344  0.2000
  788MOL0     O 3919   9.882   5.047  10.241 -0.1149  1.1621 -0.6116
  788MOL0     C 3920   9.933   5.033  10.375  0.5047  0.6999 -0.5124
  788MOL0     C 3921  10.091   5.055  10.386  0.2651  0.1918  0.1065
  788MOL0     C 3922  10.121   5.200  10.350 -0.0242  0.2330  0.2503
  788MOL0     C 3923  10.264   5.250  10.384  0.1921  0.2658  0.5314
  788MOL0     C 3924  10.299   5.269  10.538  0.2581  0.6270 -0.3563
  788MOL0     C 3925  10.441   5.299  10.570 -1.1661  0.1314  0.1745
  788MOL0     C 3926  10.454   5.355  10.710  0.5040 -0.3297 -0.3372
  788MOL0     C 3927  10.599   5.345  10.774  0.4457  0.0581 -0.0390
  788MOL0    Cl 3928  10.618   5.476  10.897 -0.4666 -0.0303 -0.0669
  788MOL0     C 3929   9.734   4.962  10.078 -0.5038  0.3295 -0.4422
  788MOL0     C 3930   9.607   4.902  10.041 -1.1547  0.1657 -0.8450
  788MOL0     O 3931   9.515   4.631  10.127 -0.4050 -0.4613 -0.5068
  788MOL0     C 3932   9.277   4.471  10.103  0.4623 -0.7542 -0.4523
  788MOL0     C 3933   9.151   4.401  10.129 -0.3159  0.3591 -0.2516
  788MOL0     N 3934   8.440   4.253   9.897 -0.7043  0.5087  0.8478
  788MOL0     N 3935   8.422   4.355   9.814  0.3923 -0.2041  0.0630
  788MOL0     C 3936   8.279   5.506   9.866 -0.4743  0.7329  0.0294
  788MOL0     C 3937   8.204   5.578   9.959  0.2703  0.4437  0.2465
  788MOL0     C 3938   7.860   5.673  10.277  0.7507  0.3844  0.0543
  788MOL0     C 3939   7.909   5.805  10.257 -0.2628  0.3765  0.1635
  788MOL0     C 3940   7.852   5.914  10.329 -0.0504 -0.2454  0.7700
  788MOL0     C 3941   7.764   5.893  10.430 -0.0768 -0.2863  0.2608
  788MOL0     O 3942   7.726   6.007  10.509 -0.7850 -0.1397  0.2465
  788MOL0     C 3943   7.690   5.975  10.646  0.7474 -0.0700  0.5022
  788MOL0     C 3944   7.707   6.097  10.739  0.0661  0.2041  0.0480
  788MOL0     C 3945   7.645   6.063  10.880 -0.8286  0.8806 -0.2581
  788MOL0     C 3946   7.722   6.153  10.978  0.0085 -0.3705 -0.4919
  788MOL0     C 3947   7.635   6.192  11.092 -0.8454 -0.0131  0.5880
  788MOL0     C 3948   7.578   6.228  11.192 -1.2597  0.6211 -0.3353
  788MOL0     C 3949   7.710   5.766  10.443 -0.3211 -0.4479  0.4389
  788MOL0     C 3950   7.759   5.655  10.366 -0.4908  0.5137 -0.5266
  788MOL0     H 3951   7.941   5.369   9.979  0.9146 -1.9012 -1.2400
  788MOL0     H 3952   8.089   5.235   9.818  0.9258 -2.5129  3.0144
  788MOL0     H 3953   8.497   5.359   9.730  0.6988 -2.4247 -0.1237
  788MOL0     H 3954   8.401   5.425   9.587  2.4047  0.8955  0.1210
  788MOL0     H 3955   8.580   5.259   9.513  0.1269  2.3295 -0.4116
  788MOL0     H 3956   8.414   5.213   9.477 -0.3588 -2.7385  0.9716
  788MOL0     H 3957   8.395   5.057   9.655 -0.5195 -1.1174 -0.8749
  788MOL0     H 3958   8.552   5.108   9.725 -2.2288 -1.4598  1.4842
  788MOL0     H 3959   8.478   4.928   9.471  1.4109 -1.8841  0.5737
  788MOL0     H 3960   8.613   5.043   9.478 -0.5404  0.9252  1.2293
  788MOL0     H 3961   8.698   4.909   9.678 -0.2969 -0.1084 -0.2209
  788MOL0     H 3962   8.681   4.819   9.521  1.2734  1.0466 -0.3671
  788MOL0     H 3963   8.470   4.721   9.596 -1.5761 -2.7489  2.9757
  788MOL0     H 3964   8.486   4.813   9.747 -1.4986 -0.2555 -0.7227
  788MOL0     H 3965   8.726   4.655   9.693  0.1352 -2.7079 -0.4400
  788MOL0     H 3966   8.617   4.649   9.839 -0.9078  0.0907 -0.6320
  788MOL0     H 3967   8.610   4.473   9.599 -0.6318  1.6533 -1.7646
  788MOL0     H 3968   8.455   4.547   9.656  1.6963  3.3145 -1.3852
  788MOL0     H 3969   8.746   4.362   9.843 -0.1634 -1.6056 -1.0967
  788MOL0     H 3970   8.773   4.165   9.957  0.7058  1.8144  0.7486
  788MOL0     H 3971   8.640   4.048   9.953 -1.9488  0.3193 -0.5676
  788MOL0     H 3972   8.707   4.057  10.177  0.2994 -0.4539 -1.3396
  788MOL0     H 3973   8.556   4.149  10.183  0.5541  0.4683  1.8741
  788MOL0     H 3974   8.685   4.369  10.178  1.3350  0.3654  0.3866
  788MOL0     H 3975   8.725   4.272  10.322 -0.3522  0.5379 -0.4457
  788MOL0     H 3976   8.895   4.305  10.073  0.4212  0.0340  0.3252
  788MOL0     H 3977   8.933   4.200  10.218  0.0369  0.6497  2.2971
  788MOL0     H 3978   8.981   4.637  10.294  0.2669  2.1252 -1.0954
  788MOL0     H 3979   9.179   4.777  10.247 -0.4011 -0.0085  1.2523
  788MOL0     H 3980   9.431   4.950  10.328 -1.7991  2.0466 -1.4383
  788MOL0     H 3981   9.660   5.028  10.403 -0.3261 -2.4918  1.0080
  788MOL0     H 3982   9.912   4.938  10.425  1.3325  1.5278  1.5383
  788MOL0     H 3983   9.888   5.109  10.441  0.0761  0.4069 -0.4689
  788MOL0     H 3984  10.135   4.992  10.308 -0.5538 -1.2161  0.7457
  788MOL0     H 3985  10.139   5.027  10.481  1.6811  0.5918 -0.4580
  788MOL0     H 3986  10.058   5.267  10.409  0.7665  1.5391 -0.3491
  788MOL0     H 3987  10.102   5.213  10.243 -0.6213  0.5496  0.3918
  788MOL0     H 3988  10.334   5.173  10.351  1.1670  2.0537 -1.8051
  788MOL0     H 3989  10.288   5.339  10.325  0.7759  1.4426  2.4475
  788MOL0     H 3990  10.281   5.178  10.596 -1.6203  1.8914  1.1689
  788MOL0     H 3991  10.236   5.349  10.578 -0.3971 -1.2045  2.5831
  788MOL0     H 3992  10.465   5.384  10.504 -1.7511 -0.2242 -0.5167
  788MOL0     H 3993  10.505   5.211  10.563  3.1705  2.8121  2.1323
  788MOL0     H 3994  10.415   5.457  10.705 -3.3970 -1.6307 -0.2654
  788MOL0     H 3995  10.383   5.303  10.776  1.0662  2.6776  2.9435
  788MOL0     H 3996  10.681   5.348  10.701  0.1140  0.4658 -0.3981
  788MOL0     H 3997  10.594   5.249  10.827 -1.5203 -1.6341 -3.0100
  788MOL0     H 3998   9.815   4.952  10.007 -1.0098  0.2944 -1.0277
  788MOL0     H 3999   9.609   4.865   9.939  1.8074  0.3097 -0.9292
  788MOL0     H 4000   9.366   4.430  10.057 -0.0674  0.8199 -3.0813
  788MOL0     H 4001   9.142   4.294  10.113  2.3643 -0.5313  3.0123
  788MOL0     H 4002   8.371   5.556   9.837  0.3655 -0.4381  0.6088
  788MOL0     H 4003   8.247   5.673   9.989  1.8790 -0.4634  0.9435
  788MOL0     H 4004   7.980   5.829  10.178 -1.8474  3.2760 -0.5246
  788MOL0     H 4005   7.881   6.017  10.309 -3.9999  0.5930 -1.9140
  788MOL0     H 4006   7.752   5.891  10.678 -1.2210 -1.1949  1.5106
  788MOL0     H 4007   7.584   5.948  10.642  0.3516  0.8215  3.1664
  788MOL0     H 4008   7.811   6.131  10.746  0.0377  0.1282  0.9388
  788MOL0     H 4009   7.658   6.187  10.701  2.3223  1.4008 -0.1961
  788MOL0     H 4010   7.645   5.956  10.903 -1.0865  0.2879 -2.8060
  788MOL0     H 4011   7.538   6.084  10.875 -0.7540  0.9944 -2.1004
  788MOL0     H 4012   7.801   6.091  11.020  0.2364  0.0569 -0.2752
  788MOL0     H 4013   7.765   6.242  10.929 -2.9553  0.4899 -1.7700
  788MOL0     H 4014   7.508   6.254  11.268 -0.5344  0.6839  0.3204
  788MOL0     H 4015   7.630   5.756  10.516 -0.3068  0.7150  0.6309
  788MOL0     H 4016   7.715   5.557  10.381  1.3091 -0.3112 -0.3146
  789MOL0     O 4017   0.229  10.319   6.431 -0.9347  0.8340 -0.7785
  789MOL0     C 4018   0.267  10.438   6.434 -0.7846  0.1822 -0.0254
  789MOL0     O 4019   0.361  10.485   6.525  0.1222  0.3177  0.1898
  789MOL0     C 4020   0.415  10.391   6.609  0.7134  0.6221 -0.3158
  789MOL0     C 4021   0.556  10.382   6.610  0.6570 -0.1938 -0.2938
  789MOL0     C 4022   0.618  10.304   6.705 -0.8602  0.8880  0.0643
  789MOL0     C 4023   0.544  10.212   6.787  0.8206  0.4127  0.3093
  789MOL0     O 4024   0.616  10.125   6.865  0.8200 -0.0113 -0.1109
  789MOL0     C 4025   0.609  10.154   7.004  0.9816  0.1364 -0.2464
  789MOL0     C 4026   0.738  10.220   7.066  0.2079  0.8318  0.3569
  789MOL0     C 4027   0.716  10.277   7.210 -0.4926  0.1130  0.2975
  789MOL0     C 4028   0.660  10.186   7.320 -0.6599 -0.3827  0.0726
  789MOL0     C 4029   0.718  10.226   7.450 -1.1409 -0.6872 -1.6047
  789MOL0     C 4030   0.668  10.146   7.573  0.1474 -0.5808  0.7894
  789MOL0     C 4031   0.702   9.997   7.577  0.3789  0.6203  0.2994
  789MOL0     C 4032   0.648   9.938   7.708 -0.1472  0.4407 -0.8852
  789MOL0     N 4033   0.730   9.950   7.823 -0.1032 -1.3197 -0.1754
  789MOL0     C 4034   0.748  10.069   7.890 -0.1777 -0.0476 -0.0315
  789MOL0     C 4035   0.843  10.042   7.982  0.1398  0.2097  0.1275
  789MOL0     C 4036   0.905  10.139   8.087  0.5155  0.9404  0.4242
  789MOL0     C 4037   1.062  10.135   8.075  0.2145  0.4414 -0.1667
  789MOL0     C 4038   1.122  10.250   8.164  0.3670 -0.2593  0.2383
  789MOL0     C 4039   1.166  10.209   8.306 -0.4833  0.1046  0.4671
  789MOL0     O 4040   1.042  10.203   8.382  0.7092  0.4369  0.1703
  789MOL0     C 4041   1.068  10.216   8.513  0.1990 -0.2618 -0.3457
  789MOL0     C 4042   1.105  10.342   8.563  0.1050  0.7886  0.1699
  789MOL0     C 4043   1.151  10.355   8.698  0.7342 -0.0170 -0.4805
  789MOL0     C 4044   1.163  10.233   8.780 -1.1616  0.0285  0.5015
  789MOL0     C 4045   1.211  10.242   8.918  0.1726  0.8158 -0.2079
  789MOL0     O 4046   1.207  10.132   8.994  0.0728  0.3849 -0.0413
  789MOL0     C 4047   1.244  10.137   9.125  0.1938 -0.1124 -0.9344
  789MOL0     C 4048   1.365  10.188   9.162  0.5617  1.3064 -0.0012
  789MOL0     C 4049   1.408  10.187   9.300  0.0487 -0.1864 -0.4499
  789MOL0     C 4050   1.315  10.148   9.396 -0.2754  0.0665 -0.2010
  789MOL0     O 4051   1.332  10.167   9.532  0.6564 -0.8028 -0.5131
  789MOL0     C 4052   1.466  10.156   9.585 -0.6342  0.5526  0.1324
  789MOL0     C 4053   1.470  10.060   9.705 -0.6018 -0.1680  0.2693
  789MOL0     C 4054   1.479   9.917   9.650 -0.6974  0.1536  0.0485
  789MOL0     C 4055   1.444   9.803   9.746 -0.5498 -0.2909 -0.2544
  789MOL0     C 4056   1.533   9.804   9.864 -1.0386  0.4308  0.7564
  789MOL0     C 4057   1.505   9.680   9.956 -0.6240  0.4995  0.3503
  789MOL0     C 4058   1.607   9.677  10.056 -0.1638 -0.1616 -0.9179
  789MOL0     C 4059   1.610   9.533  10.118  0.5875 -0.4465  0.1360
  789MOL0    Cl 4060   1.730   9.539  10.255 -0.3742 -0.1662 -0.1016
  789MOL0     C 4061   1.185  10.108   9.357  0.1521 -0.4306 -0.0671
  789MOL0     C 4062   1.157  10.097   9.223 -0.0931 -0.4548  0.3784
  789MOL0     O 4063   1.255  10.352   8.958 -0.4424  0.1204  0.9102
  789MOL0     C 4064   1.130  10.110   8.721 -0.6930 -0.1434 -0.2914
  789MOL0     C 4065   1.085  10.103   8.593 -0.7144 -0.7937  0.8095
  789MOL0     N 4066   0.891   9.915   7.961  1.0525  0.1937  1.0597
  789MOL0     N 4067   0.824   9.866   7.871  0.0460  0.0747 -0.5315
  789MOL0     C 4068   0.407  10.210   6.777  0.6526  0.6716  0.4382
  789MOL0     C 4069   0.340  10.303   6.691  0.9891 -0.5251  0.4454
  789MOL0     C 4070   0.229  10.534   6.332 -0.0289 -0.6280 -0.1046
  789MOL0     C 4071   0.287  10.665   6.344  0.2370  0.1468 -0.2445
  789MOL0     C 4072   0.264  10.758   6.240 -0.8605  0.3052  0.2814
  789MOL0     C 4073   0.197  10.717   6.117 -0.9845 -0.1945 -0.0327
  789MOL0     O 4074   0.173  10.790   6.009  0.9219 -0.0312 -0.9224
  789MOL0     C 4075   0.209  10.933   6.008  0.6992  0.7139 -0.5617
  789MOL0     C 4076   0.127  11.015   5.908 -0.1071  0.2304 -0.6195
  789MOL0     C 4077   0.131  11.159   5.946 -0.4050  0.8903  0.6133
  789MOL0     C 4078   0.263  11.223   5.909  0.0474 -0.6918  0.2148
  789MOL0     C 4079   0.293  11.356   5.977 -0.5215 -0.3363  0.2899
  789MOL0     C 4080   0.321  11.462   6.023  0.5910 -0.5120 -0.1054
  789MOL0     C 4081   0.142  10.590   6.112  0.3266 -0.1032 -0.1461
  789MOL0     C 4082   0.148  10.503   6.220 -0.9847  1.1996 -0.4179
  789MOL0     H 4083   0.612  10.434   6.533 -0.4182 -0.3884 -1.2385
  789MOL0     H 4084   0.727  10.304   6.705 -0.8156 -0.0257 -2.3438
  789MOL0     H 4085   0.583  10.058   7.048  4.2355 -1.1588 -0.8636
  789MOL0     H 4086   0.526  10.223   7.022  1.2006  0.7140 -1.3583
  789MOL0     H 4087   0.769  10.300   6.999  1.8067  0.7670  0.9696
  789MOL0     H 4088   0.822  10.149   7.072  0.6116  1.1486 -1.2367
  789MOL0     H 4089   0.655  10.367   7.208  1.1690  1.2921  0.8711
  789MOL0     H 4090   0.808  10.321   7.249 -2.0765  2.9356  1.0500
  789MOL0     H 4091   0.552  10.197   7.335 -0.6150 -1.7727  1.7813
  789MOL0     H 4092   0.683  10.084   7.287  0.5212 -0.0379 -0.2183
  789MOL0     H 4093   0.704  10.334   7.461  0.8668 -0.3577 -1.8411
  789MOL0     H 4094   0.825  10.209   7.438 -1.2009 -0.1713 -3.1315
  789MOL0     H 4095   0.560  10.159   7.568  0.2078 -0.4156 -0.7340
  789MOL0     H 4096   0.711  10.192   7.663 -0.2587 -1.5235  1.4758
  789MOL0     H 4097   0.661   9.951   7.487  1.5671 -3.6755  1.7094
  789MOL0     H 4098   0.811   9.984   7.584  0.6515  3.1311  2.7297
  789MOL0     H 4099   0.639   9.833   7.679  2.0029  0.1814 -0.7173
  789MOL0     H 4100   0.544   9.969   7.723 -0.1477  1.4667 -2.6667
  789MOL0     H 4101   0.684  10.157   7.890  0.7301  0.6244  0.0416
  789MOL0     H 4102   0.870  10.107   8.186 -0.7331  0.5401 -0.1274
  789MOL0     H 4103   0.868  10.241   8.072  2.9533  1.8091 -0.0492
  789MOL0     H 4104   1.089  10.137   7.969  0.1763 -1.4399 -0.2489
  789MOL0     H 4105   1.097  10.041   8.120  3.3618  2.5325  2.2339
  789MOL0     H 4106   1.215  10.290   8.124 -0.7320  1.1751 -0.9820
  789MOL0     H 4107   1.047  10.329   8.160  1.3101  0.6004 -1.9369
  789MOL0     H 4108   1.251  10.270   8.338  2.8401 -2.9854 -1.7439
  789MOL0     H 4109   1.201  10.106   8.313 -0.6387 -0.0552 -0.7515
  789MOL0     H 4110   1.074  10.427   8.503 -1.2483  0.9174  1.0200
  789MOL0     H 4111   1.171  10.456   8.731 -1.1704  0.9946 -2.2144
  789MOL0     H 4112   1.430  10.237   9.089  0.4057  1.1812 -0.2245
  789MOL0     H 4113   1.499  10.243   9.317 -0.9591  1.5779 -0.6256
  789MOL0     H 4114   1.503  10.255   9.615 -0.0594 -0.1531  1.8261
  789MOL0     H 4115   1.540  10.114   9.517  0.2916  0.8496  0.9384
  789MOL0     H 4116   1.379  10.053   9.766 -0.5050 -2.4753  0.2365
  789MOL0     H 4117   1.559  10.076   9.766 -0.6014 -3.0542  1.2033
  789MOL0     H 4118   1.571   9.885   9.601 -1.4783 -0.8361 -0.7966
  789MOL0     H 4119   1.404   9.909   9.571  0.9775  0.8462 -1.6902
  789MOL0     H 4120   1.339   9.821   9.770 -0.4141  4.0459 -1.9084
  789MOL0     H 4121   1.457   9.710   9.691 -2.6573  0.4079 -2.0663
  789MOL0     H 4122   1.517   9.900   9.914  0.5225  0.7903  0.6141
  789MOL0     H 4123   1.640   9.808   9.840 -0.8549  1.4878  1.6823
  789MOL0     H 4124   1.497   9.589   9.896 -3.8969  0.6674  0.3649
  789MOL0     H 4125   1.405   9.681  10.001 -0.7687  2.1737  0.0489
  789MOL0     H 4126   1.705   9.715  10.025 -1.3645  2.4544 -1.8791
  789MOL0     H 4127   1.575   9.745  10.135  3.1154 -1.5289  1.8147
  789MOL0     H 4128   1.641   9.458  10.044 -2.6103 -0.1509 -1.7180
  789MOL0     H 4129   1.515   9.486  10.146  0.2387 -2.7371 -4.0478
  789MOL0     H 4130   1.117  10.076   9.435 -0.8642 -1.7771 -1.4186
  789MOL0     H 4131   1.071  10.036   9.199  0.3354 -0.9727  0.1405
  789MOL0     H 4132   1.145  10.014   8.769 -1.3468  0.8387  2.0026
  789MOL0     H 4133   1.070  10.012   8.537 -1.1753 -1.5802  2.1618
  789MOL0     H 4134   0.346  10.151   6.844 -0.4586  3.0642  1.6459
  789MOL0     H 4135   0.233  10.320   6.693  1.3786  2.6485 -0.8070
  789MOL0     H 4136   0.341  10.689   6.435 -1.9531 -1.6118  1.6714
  789MOL0     H 4137   0.308  10.857   6.248 -0.2897  0.1437 -0.6331
  789MOL0     H 4138   0.317  10.945   5.995  1.0540 -1.8879 -0.5943
  789MOL0     H 4139   0.181  10.971   6.107  0.1333  0.1136 -0.4856
  789MOL0     H 4140   0.156  10.993   5.804 -0.2606 -1.1694 -0.3827
  789MOL0     H 4141   0.023  10.983   5.912 -0.7573  2.3133  1.2173
  789MOL0     H 4142   0.109  11.163   6.053  0.4226  0.5516  0.8090
  789MOL0     H 4143   0.060  11.213   5.883  2.7163  2.8774 -1.4473
  789MOL0     H 4144   0.342  11.155   5.940  0.6814  0.5534  1.4956
  789MOL0     H 4145   0.269  11.241   5.801 -0.8618  0.4110  0.3282
  789MOL0     H 4146   0.330  11.561   6.064  3.7927 -1.0597  0.7414
  789MOL0     H 4147   0.080  10.572   6.025  0.5737  2.0100 -0.8341
  789MOL0     H 4148   0.101  10.407   6.206  0.1188  0.9249 -2.8040
  790MOL0     O 4149   8.147   0.272  10.377 -0.5296 -0.3126 -0.2121
  790MOL0     C 4150   8.128   0.310  10.265  0.1479  0.4663 -0.0301
  790MOL0     O 4151   8.026   0.388  10.225 -0.1141  0.1450 -0.1602
  790MOL0     C 4152   7.916   0.387  10.302  0.3859  0.5844 -0.1716
  790MOL0     C 4153   7.851   0.506  10.336  1.2744 -0.0697 -0.8500
  790MOL0     C 4154   7.736   0.508  10.415 -0.3112  0.0053  0.1180
  790MOL0     C 4155   7.667   0.388  10.449  0.8655 -0.2885 -0.2075
  790MOL0     O 4156   7.536   0.395  10.501  0.1557 -0.9110 -0.1273
  790MOL0     C 4157   7.522   0.459  10.625 -0.6850  0.4542 -0.8632
  790MOL0     C 4158   7.391   0.434  10.694  0.3957 -0.5954  0.1950
  790MOL0     C 4159   7.360   0.294  10.728  0.5771  0.2096  0.2601
  790MOL0     C 4160   7.243   0.265  10.832  0.6258  1.0717  0.3412
  790MOL0     C 4161   7.234   0.117  10.851  0.5803 -0.1414 -0.7702
  790MOL0     C 4162   7.104   0.087  10.930  0.1377 -0.6694  0.1604
  790MOL0     C 4163   6.969   0.137  10.861 -0.2501 -0.7843 -0.2044
  790MOL0     C 4164   6.854   0.058  10.921  0.4714  0.0234  0.1115
  790MOL0     N 4165   6.728   0.103  10.867 -1.1925  0.2899  1.0094
  790MOL0     C 4166   6.648   0.206  10.905 -1.1523 -0.4697 -0.6496
  790MOL0     C 4167   6.554   0.215  10.809  0.1985 -0.2419 -0.2356
  790MOL0     C 4168   6.438   0.307  10.784 -0.9563  0.4310 -0.2131
  790MOL0     C 4169   6.333   0.294  10.899  0.2630 -0.3902  0.0429
  790MOL0     C 4170   6.248   0.164  10.881  0.0158  0.2941  0.6070
  790MOL0     C 4171   6.124   0.178  10.971  0.5478 -0.6549  1.0228
  790MOL0     O 4172   6.057   0.054  10.988 -0.3595 -0.4641  0.5836
  790MOL0     C 4173   5.945   0.060  11.058 -0.8241  0.6043  0.3150
  790MOL0     C 4174   5.822   0.055  10.981 -0.7205  0.7798 -0.7162
  790MOL0     C 4175   5.696   0.043  11.044 -0.1749  0.4123  0.2708
  790MOL0     C 4176   5.688   0.049  11.181 -0.5057 -0.2692  0.1570
  790MOL0     C 4177   5.557   0.049  11.258 -0.9999  0.6115  1.0493
  790MOL0     O 4178   5.551   0.083  11.380  0.3890  0.0407 -0.2021
  790MOL0     C 4179   5.432   0.088  11.448 -0.1121  0.1643 -1.2211
  790MOL0     C 4180   5.307   0.127  11.394  0.6907 -0.4023 -0.4541
  790MOL0     C 4181   5.195   0.152  11.472 -0.4924 -0.0365  0.2610
  790MOL0     C 4182   5.200   0.123  11.609 -0.2652  0.0565  1.4195
  790MOL0     O 4183   5.105   0.142  11.697  0.8310 -1.7318 -0.1766
  790MOL0     C 4184   4.968   0.170  11.655  0.4650  0.0547  0.1429
  790MOL0     C 4185   4.861   0.161  11.762 -0.1331  0.3870 -0.1314
  790MOL0     C 4186   4.749   0.262  11.736  0.1518 -0.4166 -0.6734
  790MOL0     C 4187   4.639   0.212  11.634  0.0746 -0.3110 -0.5418
  790MOL0     C 4188   4.516   0.308  11.619 -1.0760  0.7554  0.0604
  790MOL0     C 4189   4.435   0.285  11.747  0.1302 -0.4306  0.0594
  790MOL0     C 4190   4.288   0.332  11.730  0.1027 -0.3237  0.5224
  790MOL0     C 4191   4.195   0.283  11.843  0.1514  0.2430  0.2982
  790MOL0    Cl 4192   4.109   0.141  11.799 -0.8023  0.0695 -0.0447
  790MOL0     C 4193   5.317   0.073  11.655 -0.4058  0.9362 -0.8648
  790MOL0     C 4194   5.438   0.063  11.586  0.1109  0.5427 -0.7861
  790MOL0     O 4195   5.464   0.004  11.192 -0.4864 -0.2209  0.3071
  790MOL0     C 4196   5.809   0.059  11.256 -0.6246  1.0387  0.4544
  790MOL0     C 4197   5.939   0.064  11.196 -0.3553  1.3739 -0.7499
  790MOL0     N 4198   6.592   0.130  10.707 -0.3517  0.3012 -0.4027
  790MOL0     N 4199   6.697   0.063  10.736 -0.4596 -0.3200 -0.8175
  790MOL0     C 4200   7.732   0.265  10.422 -0.6588  0.0522 -0.2690
  790MOL0     C 4201   7.860   0.271  10.352  0.5444  0.6245  0.0817
  790MOL0     C 4202   8.244   0.283  10.174 -0.2131 -0.8825 -0.7654
  790MOL0     C 4203   8.274   0.382  10.084  0.7003 -0.5596  0.0327
  790MOL0     C 4204   8.387   0.376  10.001  0.0999  0.0333 -0.2669
  790MOL0     C 4205   8.462   0.253  10.010  0.1280 -0.6388  0.4329
  790MOL0     O 4206   8.578   0.225   9.934 -0.7774  0.1831 -0.0345
  790MOL0     C 4207   8.630   0.346   9.865  0.1843  0.0288 -0.9090
  790MOL0     C 4208   8.744   0.304   9.775  0.2715  0.2629 -0.2186
  790MOL0     C 4209   8.876   0.258   9.842 -0.4821  0.4111 -0.2764
  790MOL0     C 4210   8.982   0.259   9.737 -0.2935  0.5287  0.7814
  790MOL0     C 4211   9.108   0.212   9.798 -0.7063  0.4760 -0.4710
  790MOL0     C 4212   9.215   0.167   9.839 -0.3717 -0.1141 -0.5874
  790MOL0     C 4213   8.429   0.151  10.099  1.4046 -0.4230 -0.7636
  790MOL0     C 4214   8.314   0.171  10.173 -0.2814  0.0722 -0.6483
  790MOL0     H 4215   7.891   0.603  10.307 -0.8640  0.9143 -0.6804
  790MOL0     H 4216   7.692   0.603  10.443  0.2701  1.1564 -2.6026
  790MOL0     H 4217   7.528   0.568  10.628  2.0310  0.3641  0.3874
  790MOL0     H 4218   7.606   0.415  10.682 -2.1457 -1.4411 -0.0441
  790MOL0     H 4219   7.307   0.472  10.636 -1.2661 -0.6208  2.4284
  790MOL0     H 4220   7.389   0.496  10.784 -1.5294 -4.3271  3.0166
  790MOL0     H 4221   7.453   0.262  10.776 -0.7411 -0.0001  2.8697
  790MOL0     H 4222   7.345   0.238  10.636 -0.1336  2.0588 -0.8032
  790MOL0     H 4223   7.266   0.317  10.925 -0.5460  2.3819 -0.0630
  790MOL0     H 4224   7.149   0.310  10.797 -1.1418  0.1975  3.6114
  790MOL0     H 4225   7.316   0.080  10.913  1.9158  1.3568 -1.5643
  790MOL0     H 4226   7.247   0.083  10.748 -1.2083  0.1786 -1.1429
  790MOL0     H 4227   7.102   0.121  11.034 -0.6423 -2.1677  0.6667
  790MOL0     H 4228   7.088  -0.019  10.949 -2.1953 -0.1709  1.3152
  790MOL0     H 4229   6.954   0.240  10.896  1.4236 -1.4280  2.6974
  790MOL0     H 4230   6.965   0.146  10.752 -3.1509  3.4406 -0.0211
  790MOL0     H 4231   6.853   0.075  11.029 -0.8948  1.9570 -0.1597
  790MOL0     H 4232   6.864  -0.050  10.901 -3.7594 -0.5348  0.0254
  790MOL0     H 4233   6.641   0.267  10.995  0.1286  1.5374 -1.8349
  790MOL0     H 4234   6.400   0.274  10.686  2.1377 -0.7997 -1.1132
  790MOL0     H 4235   6.478   0.408  10.781  0.4790 -0.1208 -0.1793
  790MOL0     H 4236   6.265   0.378  10.880 -0.8279 -0.9851  1.1712
  790MOL0     H 4237   6.372   0.292  11.001  0.1449 -1.2171  0.0734
  790MOL0     H 4238   6.215   0.140  10.779  0.8351 -1.2401  0.6746
  790MOL0     H 4239   6.298   0.072  10.914  2.3527  1.5249  0.6732
  790MOL0     H 4240   6.065   0.264  10.937  1.0304 -0.5154  0.5361
  790MOL0     H 4241   6.164   0.203  11.070 -1.0318  1.1248  1.2848
  790MOL0     H 4242   5.827   0.042  10.873 -1.3674  0.8457 -0.7584
  790MOL0     H 4243   5.612   0.014  10.982  1.5890 -2.9232 -0.8199
  790MOL0     H 4244   5.295   0.145  11.288 -1.7095  1.6565  0.0841
  790MOL0     H 4245   5.108   0.201  11.431  0.1676  2.3438  1.4710
  790MOL0     H 4246   4.944   0.093  11.581 -1.3163 -0.3598  1.1140
  790MOL0     H 4247   4.944   0.264  11.605 -3.2414  0.1142  1.7752
  790MOL0     H 4248   4.899   0.179  11.863 -0.6759 -0.0406  0.1527
  790MOL0     H 4249   4.836   0.054  11.770  1.4750 -0.0177 -0.1498
  790MOL0     H 4250   4.784   0.359  11.701  0.0079 -0.1025  0.0424
  790MOL0     H 4251   4.702   0.276  11.834  1.3535 -1.3468  0.0713
  790MOL0     H 4252   4.680   0.231  11.534  4.4846  1.7115  1.4091
  790MOL0     H 4253   4.609   0.107  11.647 -0.5143  0.1444  2.4078
  790MOL0     H 4254   4.468   0.281  11.525 -2.3409 -0.7988  1.0910
  790MOL0     H 4255   4.547   0.412  11.613 -0.9794  0.9132  2.4345
  790MOL0     H 4256   4.485   0.354  11.816  0.7012  0.6243 -1.3608
  790MOL0     H 4257   4.444   0.186  11.792 -1.5037  0.3175  2.1922
  790MOL0     H 4258   4.277   0.440  11.743  1.2557  0.1741 -2.1986
  790MOL0     H 4259   4.239   0.295  11.640  2.9655  0.7533 -1.6085
  790MOL0     H 4260   4.124   0.359  11.877 -2.2252 -0.8837 -1.8362
  790MOL0     H 4261   4.260   0.277  11.931  0.2225  0.2343  0.2454
  790MOL0     H 4262   5.324   0.036  11.757 -2.2444 -1.0852 -1.4045
  790MOL0     H 4263   5.529   0.026  11.633 -0.8591  1.0937  1.6842
  790MOL0     H 4264   5.802   0.075  11.363 -1.4623 -0.4044  0.6441
  790MOL0     H 4265   6.023   0.065  11.266 -0.8938 -0.6222 -0.0070
  790MOL0     H 4266   7.688   0.176  10.466  1.8078 -0.8597  0.4816
  790MOL0     H 4267   7.907   0.173  10.345 -3.8091 -2.1327  3.8503
  790MOL0     H 4268   8.219   0.475  10.074  0.3719 -0.7582 -0.0666
  790MOL0     H 4269   8.416   0.457   9.935 -0.8758 -0.1283 -0.9181
  790MOL0     H 4270   8.646   0.420   9.945 -1.4766 -0.6762  0.1334
  790MOL0     H 4271   8.552   0.388   9.801 -1.8959 -3.9553 -1.2986
  790MOL0     H 4272   8.717   0.219   9.712  0.9272 -2.8291  3.3193
  790MOL0     H 4273   8.759   0.397   9.718 -2.8539  1.2313  0.3725
  790MOL0     H 4274   8.872   0.153   9.875  2.2872 -0.0419 -1.0959
  790MOL0     H 4275   8.900   0.328   9.922  1.1729  2.0494 -2.1128
  790MOL0     H 4276   8.943   0.191   9.661 -2.0052  1.5502  0.6767
  790MOL0     H 4277   8.995   0.357   9.689  0.8776  1.4284  2.7696
  790MOL0     H 4278   9.310   0.135   9.878 -0.4110 -1.2708 -1.3897
  790MOL0     H 4279   8.488   0.061  10.106  1.1980 -0.5159 -0.0859
  790MOL0     H 4280   8.288   0.089  10.239  1.2359 -0.0138 -0.1099
  791MOL0     O 4281   2.737  10.012   5.747 -0.1578 -0.4610  0.3179
  791MOL0     C 4282   2.792   9.909   5.715  0.9678  0.5196 -0.0020
  791MOL0     O 4283   2.832   9.871   5.588  0.0730 -0.4151  0.2450
  791MOL0     C 4284   2.841   9.964   5.490 -0.0777  0.6836 -0.1200
  791MOL0     C 4285   2.968   9.990   5.422  0.6808  1.4051  0.0933
  791MOL0     C 4286   2.975  10.067   5.309 -0.7673 -0.4690  0.0316
  791MOL0     C 4287   2.859  10.093   5.238 -0.5728  0.3358  0.0710
  791MOL0     O 4288   2.863  10.171   5.124  0.7322  0.3130 -0.1875
  791MOL0     C 4289   2.983  10.217   5.065 -0.4492 -0.5229  0.4112
  791MOL0     C 4290   2.964  10.272   4.929 -0.0818 -0.8806  0.3666
  791MOL0     C 4291   2.916  10.170   4.831 -0.2240 -0.6640 -0.2573
  791MOL0     C 4292   2.884  10.233   4.693 -1.0948  0.8367 -0.0946
  791MOL0     C 4293   2.922  10.136   4.579 -1.0066  0.5620  1.3310
  791MOL0     C 4294   2.840  10.006   4.566  0.6908 -0.0336 -0.8326
  791MOL0     C 4295   2.879   9.910   4.449 -0.7569 -0.5100 -0.4204
  791MOL0     C 4296   2.787   9.916   4.319 -0.6002 -0.1359  0.5124
  791MOL0     N 4297   2.663   9.829   4.301  0.3536  0.7476 -0.7089
  791MOL0     C 4298   2.633   9.703   4.356  0.0469  0.4799 -0.6903
  791MOL0     C 4299   2.503   9.683   4.325 -0.2418 -1.0049 -0.1335
  791MOL0     C 4300   2.413   9.566   4.370 -0.1745 -0.1464 -0.1792
  791MOL0     C 4301   2.271   9.571   4.322  0.9509 -0.0074 -0.0005
  791MOL0     C 4302   2.188   9.464   4.384  0.8780 -1.1025 -0.4304
  791MOL0     C 4303   2.037   9.486   4.352 -0.2161  0.1446  0.1214
  791MOL0     O 4304   1.977   9.357   4.342 -0.1340  0.1339  0.1479
  791MOL0     C 4305   1.910   9.303   4.444 -0.3130  0.6146 -0.5827
  791MOL0     C 4306   1.799   9.231   4.403  0.3925  0.4480  0.5274
  791MOL0     C 4307   1.693   9.186   4.487  0.0941 -0.2985 -0.0010
  791MOL0     C 4308   1.705   9.217   4.624 -0.4857 -0.0915 -0.1819
  791MOL0     C 4309   1.603   9.192   4.719 -0.5527 -0.5327 -0.4324
  791MOL0     O 4310   1.480   9.147   4.667  0.6410  0.1080  0.2591
  791MOL0     C 4311   1.366   9.157   4.748  0.5686  0.2838  0.3838
  791MOL0     C 4312   1.264   9.227   4.695  0.3717 -0.3655  0.1396
  791MOL0     C 4313   1.143   9.223   4.758 -0.3106  0.8675  0.9040
  791MOL0     C 4314   1.123   9.147   4.873  0.1232 -0.4309  0.9702
  791MOL0     O 4315   1.002   9.172   4.932  0.1807  0.4529 -0.0180
  791MOL0     C 4316   1.008   9.188   5.076 -0.5119  0.1640 -0.2768
  791MOL0     C 4317   1.105   9.303   5.136  0.1902  0.5841 -0.9204
  791MOL0     C 4318   1.102   9.423   5.050 -0.6971 -0.1417 -0.0713
  791MOL0     C 4319   1.177   9.534   5.124  0.5085 -0.0742  0.5812
  791MOL0     C 4320   1.310   9.507   5.183 -0.6532 -0.2015 -0.7477
  791MOL0     C 4321   1.424   9.486   5.076  0.7072  0.8227 -0.7446
  791MOL0     C 4322   1.547   9.422   5.129  0.5326 -0.3464  0.7867
  791MOL0     C 4323   1.523   9.283   5.178  0.0051  0.0698  0.5602
  791MOL0    Cl 4324   1.452   9.265   5.341  0.0362 -0.4231 -0.1372
  791MOL0     C 4325   1.236   9.083   4.923 -0.1157 -0.2475 -0.4865
  791MOL0     C 4326   1.357   9.091   4.860 -0.3706 -0.2359  0.7839
  791MOL0     O 4327   1.619   9.228   4.839 -0.3482 -0.8944  0.1803
  791MOL0     C 4328   1.822   9.281   4.665 -0.2111 -1.0219 -0.1318
  791MOL0     C 4329   1.921   9.329   4.577  0.1856 -0.4051  0.0011
  791MOL0     N 4330   2.464   9.787   4.241 -0.0935  0.0427 -0.9095
  791MOL0     N 4331   2.559   9.868   4.225 -0.1667 -0.4082 -0.4498
  791MOL0     C 4332   2.737  10.065   5.298  0.1041  0.4899 -0.6817
  791MOL0     C 4333   2.729  10.005   5.429 -0.2767  0.2532 -0.3829
  791MOL0     C 4334   2.804   9.812   5.828 -0.4089 -0.9406 -0.9055
  791MOL0     C 4335   2.721   9.834   5.940  0.2639 -1.1484  0.1041
  791MOL0     C 4336   2.748   9.756   6.050 -0.0208  0.4410 -0.4945
  791MOL0     C 4337   2.846   9.665   6.065  0.2681  0.1926  0.2808
  791MOL0     O 4338   2.855   9.563   6.162  0.0185  1.0493  0.3923
  791MOL0     C 4339   2.750   9.528   6.252  0.9267  0.0667 -0.1486
  791MOL0     C 4340   2.792   9.414   6.349 -0.5314 -0.3684  0.2917
  791MOL0     C 4341   2.814   9.288   6.264  0.2962 -0.0848  0.4234
  791MOL0     C 4342   2.857   9.169   6.350  0.0845  0.8555 -0.3581
  791MOL0     C 4343   2.765   9.124   6.450  1.0526 -0.5007 -0.1267
  791MOL0     C 4344   2.683   9.088   6.533  0.4052 -0.1490 -0.6584
  791MOL0     C 4345   2.929   9.652   5.951 -0.2100  1.3720 -0.2396
  791MOL0     C 4346   2.904   9.726   5.828 -0.2800  0.4442 -0.8389
  791MOL0     H 4347   3.058   9.947   5.466 -0.5988  0.8080  2.2935
  791MOL0     H 4348   3.070  10.103   5.270 -0.7459 -0.0956  0.4253
  791MOL0     H 4349   3.053  10.134   5.060 -1.7852 -1.8480  2.1981
  791MOL0     H 4350   3.023  10.301   5.124  1.1260  1.0121 -2.6385
  791MOL0     H 4351   3.066  10.301   4.900 -0.4106 -0.2516 -0.1897
  791MOL0     H 4352   2.902  10.362   4.920 -1.9748 -2.1353  0.3981
  791MOL0     H 4353   2.818  10.132   4.864  1.2019 -0.8078  4.5764
  791MOL0     H 4354   2.988  10.088   4.820  1.2903  0.4480  0.9163
  791MOL0     H 4355   2.782  10.271   4.684 -0.7360  1.9904  0.5047
  791MOL0     H 4356   2.958  10.312   4.681  0.4414 -0.8215 -2.6453
  791MOL0     H 4357   3.029  10.114   4.588 -1.2205 -0.9657  0.4046
  791MOL0     H 4358   2.888  10.184   4.487  0.4006 -1.1230 -0.1293
  791MOL0     H 4359   2.733  10.027   4.561  1.1074  2.6301 -0.4318
  791MOL0     H 4360   2.862   9.947   4.655  2.0820  1.3376 -0.2177
  791MOL0     H 4361   2.981   9.937   4.420 -1.0073  2.1110  0.7972
  791MOL0     H 4362   2.888   9.808   4.489  0.3025 -0.1171  0.3732
  791MOL0     H 4363   2.838   9.882   4.228 -1.4582  0.5670 -0.2479
  791MOL0     H 4364   2.756  10.020   4.305  1.6146  0.6477  0.9809
  791MOL0     H 4365   2.697   9.644   4.421 -1.0208  0.6707  0.5677
  791MOL0     H 4366   2.420   9.570   4.480 -0.9406  3.5473 -0.1456
  791MOL0     H 4367   2.458   9.475   4.329 -0.4419  0.2794 -1.4457
  791MOL0     H 4368   2.267   9.560   4.213 -2.0219  0.2307  0.0045
  791MOL0     H 4369   2.229   9.666   4.356 -0.8722 -1.0539  0.8408
  791MOL0     H 4370   2.223   9.368   4.345  1.1714 -0.2440 -2.4018
  791MOL0     H 4371   2.213   9.480   4.489  1.3192  1.9550 -0.9214
  791MOL0     H 4372   2.026   9.537   4.256 -0.3211 -4.0303 -2.3226
  791MOL0     H 4373   1.986   9.546   4.427  0.7954  0.7995  0.3002
  791MOL0     H 4374   1.784   9.218   4.297  1.7069  0.2653  0.3446
  791MOL0     H 4375   1.612   9.125   4.449 -0.7360 -1.1329  2.8686
  791MOL0     H 4376   1.289   9.292   4.612  1.8542 -1.2331 -0.1202
  791MOL0     H 4377   1.061   9.277   4.712 -0.0620  0.5930  0.1242
  791MOL0     H 4378   1.036   9.100   5.135 -1.1166 -0.5956 -1.0828
  791MOL0     H 4379   0.909   9.225   5.104  0.5973  3.2629 -0.0682
  791MOL0     H 4380   1.207   9.265   5.145  0.7824  2.4498  0.9760
  791MOL0     H 4381   1.080   9.328   5.240  0.5297  0.9451 -0.9274
  791MOL0     H 4382   1.002   9.468   5.042 -0.0892  0.9539 -2.4300
  791MOL0     H 4383   1.137   9.400   4.949 -0.3402  1.3300 -0.3055
  791MOL0     H 4384   1.172   9.630   5.071 -2.3333  1.5868  3.4490
  791MOL0     H 4385   1.125   9.554   5.218  0.4450 -2.5977  1.1412
  791MOL0     H 4386   1.293   9.426   5.255 -4.2582  0.9173 -0.0951
  791MOL0     H 4387   1.347   9.589   5.246  1.9712 -1.2761 -0.7726
  791MOL0     H 4388   1.444   9.590   5.049 -0.2061  1.1803 -0.0753
  791MOL0     H 4389   1.377   9.425   4.997 -0.0747  0.2598  0.1319
  791MOL0     H 4390   1.627   9.419   5.054  2.4137  0.4211  2.6586
  791MOL0     H 4391   1.592   9.475   5.214 -1.2784 -1.5891  2.6064
  791MOL0     H 4392   1.611   9.219   5.174 -1.2496 -1.7442  0.3746
  791MOL0     H 4393   1.442   9.234   5.124 -0.8329 -1.2754  2.8879
  791MOL0     H 4394   1.225   9.020   5.011 -1.9306  1.1695  0.3819
  791MOL0     H 4395   1.442   9.040   4.905  2.3850  3.2199  0.0044
  791MOL0     H 4396   1.839   9.291   4.772 -2.7043  0.6251  0.1856
  791MOL0     H 4397   2.002   9.384   4.623 -0.5723  0.0782  0.7952
  791MOL0     H 4398   2.649  10.103   5.246  1.8936  0.5422 -3.9286
  791MOL0     H 4399   2.631   9.996   5.475  0.5869 -0.0159  1.5384
  791MOL0     H 4400   2.639   9.905   5.938 -0.0317 -1.4675  0.7024
  791MOL0     H 4401   2.673   9.758   6.129  1.2265 -1.7333  0.8346
  791MOL0     H 4402   2.663   9.495   6.195  0.9389  0.4647 -0.4005
  791MOL0     H 4403   2.727   9.616   6.312  1.1830  0.3581 -0.4810
  791MOL0     H 4404   2.889   9.446   6.390 -1.7477  0.4740  2.6962
  791MOL0     H 4405   2.730   9.405   6.439  1.5687  2.1079  2.1421
  791MOL0     H 4406   2.891   9.310   6.191 -2.4382  0.4856 -2.5125
  791MOL0     H 4407   2.725   9.256   6.209  0.1773  0.3392  0.3674
  791MOL0     H 4408   2.872   9.093   6.273  0.3285  0.7248 -0.1801
  791MOL0     H 4409   2.954   9.180   6.399  0.5497 -3.8050  0.1611
  791MOL0     H 4410   2.616   9.053   6.609  0.4006  1.3567  0.0686
  791MOL0     H 4411   2.997   9.568   5.942 -2.7352 -0.8695  0.5442
  791MOL0     H 4412   2.979   9.713   5.751 -0.1542 -0.8971 -0.5198
  792MOL0     O 4413   1.510   7.380   1.883  0.0670  0.4797 -0.0131
  792MOL0     C 4414   1.496   7.441   1.778  0.2053  0.2559 -0.7160
  792MOL0     O 4415   1.428   7.555   1.757 -0.2754 -0.1028 -0.0821
  792MOL0     C 4416   1.377   7.630   1.869  0.4003 -1.0819  1.4941
  792MOL0     C 4417   1.241   7.662   1.864 -0.2556  0.0924  0.7885
  792MOL0     C 4418   1.183   7.727   1.973 -0.5609 -0.3146 -0.3003
  792MOL0     C 4419   1.257   7.790   2.073  0.2147  0.1240  0.6876
  792MOL0     O 4420   1.188   7.858   2.161  0.0125 -0.3170 -0.4448
  792MOL0     C 4421   1.260   7.952   2.245  0.0548 -0.2525 -0.1322
  792MOL0     C 4422   1.168   8.052   2.303  0.0636  0.1381  0.6203
  792MOL0     C 4423   1.064   7.987   2.401  0.1658  0.3270  0.6279
  792MOL0     C 4424   0.964   8.081   2.476 -0.7213 -0.4389 -0.3890
  792MOL0     C 4425   0.992   8.095   2.628  0.4162  0.1716 -0.2194
  792MOL0     C 4426   0.916   8.204   2.697  0.6127 -0.0253  0.4695
  792MOL0     C 4427   0.766   8.203   2.671  0.8669  1.0716 -0.0035
  792MOL0     C 4428   0.691   8.285   2.775  0.3892 -0.1145  0.0605
  792MOL0     N 4429   0.547   8.265   2.749  0.8174  0.4413  0.2605
  792MOL0     C 4430   0.445   8.364   2.751  0.2506  0.4234  0.1223
  792MOL0     C 4431   0.328   8.293   2.747  0.2572  0.4338  1.1543
  792MOL0     C 4432   0.199   8.360   2.757  0.2102  0.2572  0.4144
  792MOL0     C 4433   0.170   8.454   2.634  0.4263 -0.2323 -0.8166
  792MOL0     C 4434   0.083   8.408   2.526 -0.0688 -1.7964  1.0911
  792MOL0     C 4435  -0.064   8.458   2.527 -0.9944 -0.2958  0.5001
  792MOL0     O 4436  -0.134   8.414   2.417  1.3735 -0.1467  0.3220
  792MOL0     C 4437  -0.234   8.498   2.353 -0.6927  0.2089 -0.9366
  792MOL0     C 4438  -0.280   8.449   2.234  0.2104  0.4808  0.0376
  792MOL0     C 4439  -0.379   8.514   2.160  0.6298  0.1596 -0.1358
  792MOL0     C 4440  -0.429   8.638   2.213 -0.5169 -0.1111 -0.2978
  792MOL0     C 4441  -0.524   8.721   2.141  0.4073 -0.5211 -0.9804
  792MOL0     O 4442  -0.559   8.846   2.181  0.1047 -0.1536 -0.5732
  792MOL0     C 4443  -0.601   8.957   2.108 -0.1137  0.5717 -0.2685
  792MOL0     C 4444  -0.606   8.961   1.964  0.0991 -0.4434 -0.0915
  792MOL0     C 4445  -0.659   9.078   1.896  0.3165 -0.0321 -0.1152
  792MOL0     C 4446  -0.708   9.184   1.980 -0.4326 -0.1614  0.4250
  792MOL0     O 4447  -0.744   9.301   1.920 -0.2791 -0.0215 -0.2247
  792MOL0     C 4448  -0.696   9.422   1.986 -0.9584  0.0024  0.2653
  792MOL0     C 4449  -0.757   9.555   1.942 -0.3821  0.4226 -0.3571
  792MOL0     C 4450  -0.692   9.675   2.019 -0.3818 -0.2245 -1.0781
  792MOL0     C 4451  -0.718   9.809   1.952 -0.7862 -0.2711  0.5168
  792MOL0     C 4452  -0.642   9.923   2.021  0.1630  0.1682  0.7173
  792MOL0     C 4453  -0.711  10.053   2.001 -0.3434  0.0845 -0.6131
  792MOL0     C 4454  -0.712  10.103   1.854 -0.2704  0.7871 -0.7483
  792MOL0     C 4455  -0.753  10.250   1.845  0.1752  0.3795 -0.1301
  792MOL0    Cl 4456  -0.616  10.357   1.843  0.3114  0.0077 -0.6902
  792MOL0     C 4457  -0.704   9.176   2.120  1.0131 -0.0324  0.9540
  792MOL0     C 4458  -0.652   9.061   2.186 -1.1849  0.6825  0.4670
  792MOL0     O 4459  -0.567   8.673   2.035 -0.2534  0.0145 -0.5919
  792MOL0     C 4460  -0.387   8.673   2.341  0.7301  0.4872  0.4557
  792MOL0     C 4461  -0.289   8.613   2.414  0.5769  0.2314 -0.5216
  792MOL0     N 4462   0.356   8.163   2.742 -0.4960 -0.1551  0.5678
  792MOL0     N 4463   0.481   8.149   2.762  0.1149  0.8395 -0.3835
  792MOL0     C 4464   1.390   7.764   2.078  0.8559 -0.0102 -0.0269
  792MOL0     C 4465   1.447   7.687   1.977 -1.2033 -0.4224  0.2248
  792MOL0     C 4466   1.581   7.388   1.674 -0.6621  0.7232 -0.7557
  792MOL0     C 4467   1.565   7.445   1.550 -0.1857  0.1726  0.8132
  792MOL0     C 4468   1.666   7.429   1.451 -1.1857  0.1975  0.2899
  792MOL0     C 4469   1.767   7.337   1.470  0.0380 -1.0243 -0.4144
  792MOL0     O 4470   1.873   7.326   1.379 -0.6946 -0.2707 -0.1681
  792MOL0     C 4471   1.923   7.192   1.356 -0.3820 -0.3863 -0.4661
  792MOL0     C 4472   2.061   7.160   1.445 -0.2221 -0.1587 -0.0234
  792MOL0     C 4473   2.086   7.018   1.447 -0.6474  0.8746 -0.2163
  792MOL0     C 4474   2.079   6.929   1.331 -0.6982 -0.5158  0.1531
  792MOL0     C 4475   2.186   6.961   1.229 -0.6694 -0.8197 -0.4194
  792MOL0     C 4476   2.268   6.996   1.150  0.7359  0.3945  0.4643
  792MOL0     C 4477   1.775   7.276   1.597 -1.4369 -0.2940  0.1704
  792MOL0     C 4478   1.687   7.291   1.705 -0.2834 -0.1522 -0.8213
  792MOL0     H 4479   1.179   7.636   1.779  1.2233 -1.8692  0.2512
  792MOL0     H 4480   1.074   7.727   1.977 -0.6643  0.7244 -2.1146
  792MOL0     H 4481   1.317   8.015   2.176 -1.4586 -0.5326 -1.7209
  792MOL0     H 4482   1.317   7.891   2.316  0.0408 -1.8364 -1.4226
  792MOL0     H 4483   1.109   8.102   2.225 -3.8061 -4.3480  0.1827
  792MOL0     H 4484   1.226   8.133   2.349 -0.3378  0.9530 -0.2743
  792MOL0     H 4485   1.113   7.928   2.479 -0.8116 -2.2172 -0.5845
  792MOL0     H 4486   0.995   7.932   2.337 -2.0293  4.5399 -1.0585
  792MOL0     H 4487   0.972   8.186   2.447  0.9011  0.0286  1.5492
  792MOL0     H 4488   0.863   8.045   2.456 -1.3427  0.3787  1.1278
  792MOL0     H 4489   1.099   8.118   2.634  0.5396  0.3164 -2.2589
  792MOL0     H 4490   0.974   8.007   2.690 -0.8419  2.7204  3.3659
  792MOL0     H 4491   0.954   8.299   2.661 -1.1438  0.2432 -0.8192
  792MOL0     H 4492   0.934   8.194   2.804 -3.6704  0.7167  1.4602
  792MOL0     H 4493   0.757   8.248   2.572  1.4719 -1.7085 -1.4409
  792MOL0     H 4494   0.730   8.099   2.674 -0.3558  1.4897  0.3367
  792MOL0     H 4495   0.712   8.392   2.768 -0.8135  0.0857 -0.6416
  792MOL0     H 4496   0.714   8.245   2.875  3.9365 -2.3111 -1.4116
  792MOL0     H 4497   0.465   8.470   2.757  1.7269  0.2583 -1.1813
  792MOL0     H 4498   0.206   8.406   2.856  3.7767 -1.8497  1.3236
  792MOL0     H 4499   0.112   8.294   2.759  0.0665 -0.1715 -5.0185
  792MOL0     H 4500   0.263   8.486   2.586  1.8991 -1.5429  1.0255
  792MOL0     H 4501   0.120   8.542   2.674  0.8025 -0.5488  0.3922
  792MOL0     H 4502   0.112   8.448   2.428 -4.2607 -3.0886 -0.8818
  792MOL0     H 4503   0.089   8.299   2.520  0.1496 -1.7445  0.1640
  792MOL0     H 4504  -0.067   8.567   2.531 -1.2116 -0.3265  1.4939
  792MOL0     H 4505  -0.106   8.428   2.624  1.0954 -0.7694  1.3197
  792MOL0     H 4506  -0.231   8.355   2.215 -0.1955  0.3294 -0.2652
  792MOL0     H 4507  -0.424   8.482   2.067 -1.7390  0.0184  0.9790
  792MOL0     H 4508  -0.559   8.887   1.900 -1.8560 -2.3966  0.6234
  792MOL0     H 4509  -0.646   9.073   1.788 -0.6467 -2.1809 -0.1758
  792MOL0     H 4510  -0.589   9.428   1.968 -0.8423 -1.4024  0.3946
  792MOL0     H 4511  -0.711   9.430   2.094  0.0814 -1.9493  0.6008
  792MOL0     H 4512  -0.866   9.546   1.945 -0.2437 -3.3155 -1.1795
  792MOL0     H 4513  -0.740   9.571   1.835  1.0366 -0.6913 -0.3251
  792MOL0     H 4514  -0.585   9.656   2.028 -0.0254  0.1055 -3.8617
  792MOL0     H 4515  -0.723   9.669   2.124  0.2641 -0.8733 -0.9187
  792MOL0     H 4516  -0.696   9.791   1.847 -1.4601 -0.4479  0.3987
  792MOL0     H 4517  -0.824   9.837   1.957 -0.2787  1.5734  3.0523
  792MOL0     H 4518  -0.538   9.923   1.986  0.4996 -0.3021  1.6945
  792MOL0     H 4519  -0.635   9.904   2.128  3.7050 -0.1617  0.5297
  792MOL0     H 4520  -0.655  10.128   2.057 -2.8972  0.7830  1.1698
  792MOL0     H 4521  -0.801  10.036   2.060 -0.3993 -2.2471 -1.2435
  792MOL0     H 4522  -0.609  10.098   1.819 -0.6367 -2.4947 -1.7245
  792MOL0     H 4523  -0.769  10.046   1.779 -0.5822  0.4716 -0.2813
  792MOL0     H 4524  -0.835  10.276   1.913 -2.8709 -4.4076 -1.4704
  792MOL0     H 4525  -0.799  10.271   1.748  3.4033  1.0906 -1.6418
  792MOL0     H 4526  -0.759   9.246   2.183  0.9103  2.3104 -1.5429
  792MOL0     H 4527  -0.662   9.060   2.294  0.6338 -1.4358  0.6761
  792MOL0     H 4528  -0.436   8.755   2.394  2.0743  1.9712 -0.5052
  792MOL0     H 4529  -0.265   8.649   2.513  1.0810 -0.6383 -0.3192
  792MOL0     H 4530   1.444   7.809   2.160  0.4486  0.3012  0.0765
  792MOL0     H 4531   1.549   7.649   1.971 -1.2981 -0.4551 -1.6375
  792MOL0     H 4532   1.477   7.506   1.533  0.7594  1.5757  0.7519
  792MOL0     H 4533   1.663   7.492   1.363  1.8031 -0.7053 -0.5696
  792MOL0     H 4534   1.935   7.177   1.248  1.4380 -0.5131 -0.2663
  792MOL0     H 4535   1.860   7.110   1.392  1.5706 -2.1455 -0.9013
  792MOL0     H 4536   2.139   7.222   1.401 -1.5769  1.0826 -0.7639
  792MOL0     H 4537   2.040   7.188   1.549 -0.8141  0.7375 -0.3729
  792MOL0     H 4538   2.011   6.981   1.517  0.8738  0.0517  1.0356
  792MOL0     H 4539   2.183   7.001   1.496 -0.1459  2.0462 -0.7465
  792MOL0     H 4540   2.074   6.823   1.356 -2.9923 -0.3786  0.5533
  792MOL0     H 4541   1.980   6.938   1.285 -0.7648 -4.1163 -0.7216
  792MOL0     H 4542   2.325   7.012   1.061 -0.2686  1.7513  0.0300
  792MOL0     H 4543   1.861   7.218   1.628 -0.7427  1.6623  2.2180
  792MOL0     H 4544   1.700   7.235   1.797  2.6543 -1.3084 -1.8319
  793MOL0     O 4545   9.361  10.180   8.979 -0.0104  0.7263  0.1764
  793MOL0     C 4546   9.487  10.199   8.971 -0.3297 -0.9220 -0.1043
  793MOL0     O 4547   9.561  10.227   8.857 -0.3998  0.1910  0.4627
  793MOL0     C 4548   9.489  10.240   8.742 -0.1024  0.0416 -0.4923
  793MOL0     C 4549   9.423  10.357   8.712  0.2754 -0.0221  0.2005
  793MOL0     C 4550   9.362  10.365   8.587  0.1245 -0.8770  0.9191
  793MOL0     C 4551   9.363  10.263   8.494 -0.2135  0.4959 -0.3612
  793MOL0     O 4552   9.303  10.274   8.371  0.0307  0.1170  0.2741
  793MOL0     C 4553   9.373  10.237   8.253 -0.3243 -0.5807  0.3903
  793MOL0     C 4554   9.489  10.335   8.211  0.3692 -1.0157 -0.8022
  793MOL0     C 4555   9.450  10.470   8.162 -0.5130  0.4377 -0.0977
  793MOL0     C 4556   9.434  10.571   8.277  0.9600 -0.2656 -0.6130
  793MOL0     C 4557   9.422  10.709   8.233  0.1885  0.3186  0.8058
  793MOL0     C 4558   9.388  10.811   8.337 -0.2274 -0.0819 -0.9348
  793MOL0     C 4559   9.510  10.843   8.430  0.3389 -0.4408  0.1066
  793MOL0     C 4560   9.480  10.920   8.560 -0.2065 -0.1972  0.0070
  793MOL0     N 4561   9.592  10.938   8.642  0.0492 -1.0462 -0.2080
  793MOL0     C 4562   9.590  10.928   8.781 -0.4139 -0.9874  0.4530
  793MOL0     C 4563   9.699  11.002   8.821  0.5499  0.7086 -0.2622
  793MOL0     C 4564   9.729  11.062   8.953  0.1426  0.7563  0.1074
  793MOL0     C 4565   9.686  11.211   8.957  0.1350  0.4623  0.0218
  793MOL0     C 4566   9.685  11.262   9.105  0.3947 -1.1222  0.0294
  793MOL0     C 4567   9.616  11.402   9.110  0.3164  0.9940 -0.2527
  793MOL0     O 4568   9.693  11.505   9.058 -0.4397 -0.1021  0.1772
  793MOL0     C 4569   9.768  11.563   9.161  0.1027  0.4503  0.8542
  793MOL0     C 4570   9.902  11.538   9.174  0.0847  0.1684  0.3848
  793MOL0     C 4571   9.979  11.601   9.274 -0.1664  0.4022  0.1674
  793MOL0     C 4572   9.928  11.705   9.351 -0.5930 -0.5001 -0.6736
  793MOL0     C 4573  10.010  11.803   9.433  0.2455 -0.2535  0.4254
  793MOL0     O 4574   9.956  11.929   9.439 -0.3539  0.6450  0.1210
  793MOL0     C 4575  10.029  12.032   9.504  0.9442  0.4261  1.1119
  793MOL0     C 4576  10.143  12.093   9.443 -1.2542 -0.7028 -0.4282
  793MOL0     C 4577  10.191  12.207   9.509 -0.1479  0.1911  1.0908
  793MOL0     C 4578  10.130  12.267   9.617  0.2462 -0.3039 -0.3083
  793MOL0     O 4579  10.201  12.371   9.664  0.8961  0.4451  0.4028
  793MOL0     C 4580  10.151  12.437   9.778 -0.2370  0.8192 -0.0293
  793MOL0     C 4581  10.244  12.550   9.805 -0.0546 -0.4232 -0.0565
  793MOL0     C 4582  10.373  12.509   9.872  0.6004  0.0478 -0.0150
  793MOL0     C 4583  10.449  12.631   9.920 -0.0198 -0.0643 -0.4217
  793MOL0     C 4584  10.551  12.600  10.024 -0.0110 -0.7343 -0.0600
  793MOL0     C 4585  10.606  12.720  10.091  0.2693 -0.4098 -0.4745
  793MOL0     C 4586  10.729  12.698  10.180  0.0081 -0.0801 -0.1012
  793MOL0     C 4587  10.750  12.825  10.274  0.1372  0.9095 -1.1784
  793MOL0    Cl 4588  10.796  12.961  10.174 -0.7004  0.5794 -0.5062
  793MOL0     C 4589  10.016  12.204   9.665 -0.2495 -0.3626  1.1118
  793MOL0     C 4590   9.964  12.091   9.608  0.4760 -0.1035  0.4801
  793MOL0     O 4591  10.115  11.763   9.484  0.0106 -0.1056 -0.6471
  793MOL0     C 4592   9.795  11.733   9.339  0.2197  0.4097 -0.6586
  793MOL0     C 4593   9.716  11.661   9.239 -0.3652  0.8506 -1.0168
  793MOL0     N 4594   9.769  11.047   8.709  1.1892  0.4027 -0.8680
  793MOL0     N 4595   9.702  11.008   8.606  0.2877 -0.1383  0.6008
  793MOL0     C 4596   9.423  10.140   8.526  0.7771  1.0222 -0.6907
  793MOL0     C 4597   9.495  10.130   8.647 -0.0471 -0.3312  0.8069
  793MOL0     C 4598   9.584  10.178   9.080 -0.1426 -0.1869  0.7708
  793MOL0     C 4599   9.545  10.107   9.190 -0.0663 -0.0213 -0.3589
  793MOL0     C 4600   9.627  10.089   9.300 -0.1728  0.3825  0.0163
  793MOL0     C 4601   9.756  10.146   9.303 -0.5529  0.0897 -0.0892
  793MOL0     O 4602   9.830  10.117   9.414 -0.9326 -0.0195  0.1588
  793MOL0     C 4603   9.903  10.228   9.474 -0.6642  0.4509 -1.1141
  793MOL0     C 4604   9.872  10.218   9.616  0.3158  0.4907 -0.2826
  793MOL0     C 4605   9.952  10.318   9.709  0.6655 -0.1834  0.4500
  793MOL0     C 4606  10.098  10.277   9.719 -0.7105  0.1323  0.2636
  793MOL0     C 4607  10.151  10.342   9.836 -0.8980  0.2240  0.1166
  793MOL0     C 4608  10.191  10.394   9.939  0.1557 -0.3987 -0.3613
  793MOL0     C 4609   9.795  10.229   9.197 -0.0763  0.3478 -0.6936
  793MOL0     C 4610   9.714  10.235   9.084 -0.3378  0.4486  0.0938
  793MOL0     H 4611   9.418  10.448   8.771 -1.5844  0.3524 -0.4783
  793MOL0     H 4612   9.291  10.445   8.567 -1.1745 -1.7165  2.0064
  793MOL0     H 4613   9.295  10.220   8.177  0.4158 -0.2794 -0.4593
  793MOL0     H 4614   9.416  10.137   8.263 -0.2225 -0.4634  1.1679
  793MOL0     H 4615   9.535  10.278   8.130  0.6032 -1.5401 -0.3136
  793MOL0     H 4616   9.562  10.342   8.292 -0.1174 -1.8427 -0.2794
  793MOL0     H 4617   9.357  10.453   8.107  1.0271  1.0242 -3.0777
  793MOL0     H 4618   9.523  10.509   8.091 -1.4498  1.8003 -0.3605
  793MOL0     H 4619   9.340  10.547   8.328  2.1362 -2.3909  0.7022
  793MOL0     H 4620   9.516  10.569   8.348  0.9818  1.1448 -0.5724
  793MOL0     H 4621   9.343  10.708   8.157  1.0306  0.9698 -0.1051
  793MOL0     H 4622   9.512  10.738   8.177 -1.7524  1.9568 -1.7234
  793MOL0     H 4623   9.302  10.784   8.398  0.2085  0.3516 -0.1062
  793MOL0     H 4624   9.361  10.905   8.287  0.3419  1.6992  1.8575
  793MOL0     H 4625   9.539  10.745   8.467 -0.0460  0.0379  1.7475
  793MOL0     H 4626   9.584  10.892   8.365  1.4439 -2.9175 -0.6190
  793MOL0     H 4627   9.394  10.873   8.608  0.5342 -1.9150 -0.2664
  793MOL0     H 4628   9.451  11.021   8.529  0.3714  0.0577  0.2856
  793MOL0     H 4629   9.510  10.900   8.847  1.3266  0.2808  3.3099
  793MOL0     H 4630   9.828  11.040   8.993 -0.4753 -0.8327  0.8677
  793MOL0     H 4631   9.657  11.011   9.018 -2.1464  4.7581  1.1095
  793MOL0     H 4632   9.582  11.209   8.922 -0.4923  1.8113  1.6736
  793MOL0     H 4633   9.753  11.273   8.897 -0.5612  1.6442  0.4323
  793MOL0     H 4634   9.625  11.187   9.158 -2.9242  1.4186  0.2130
  793MOL0     H 4635   9.792  11.268   9.125  0.8773 -2.4127 -1.8214
  793MOL0     H 4636   9.577  11.426   9.209 -1.2695  2.3154 -1.1528
  793MOL0     H 4637   9.528  11.382   9.048  0.1471 -1.5842  0.7152
  793MOL0     H 4638   9.948  11.474   9.100 -1.1368 -0.3905  0.0703
  793MOL0     H 4639  10.087  11.588   9.272  0.1147  2.2610  1.1386
  793MOL0     H 4640  10.183  12.051   9.351  0.7448  1.2977 -0.5535
  793MOL0     H 4641  10.286  12.240   9.468  0.4558 -0.1586  2.1765
  793MOL0     H 4642  10.150  12.375   9.868 -0.5723 -1.0536 -1.2549
  793MOL0     H 4643  10.048  12.469   9.763 -0.1570  1.3722  0.5524
  793MOL0     H 4644  10.194  12.626   9.865 -0.8632 -1.8928  1.2046
  793MOL0     H 4645  10.259  12.597   9.707 -0.5374 -0.7874 -0.3119
  793MOL0     H 4646  10.424  12.432   9.814  0.3587 -0.0918 -0.0467
  793MOL0     H 4647  10.334  12.454   9.959 -1.6656 -1.6563 -1.9600
  793MOL0     H 4648  10.493  12.675   9.830 -0.7651  0.5370 -0.5010
  793MOL0     H 4649  10.390  12.712   9.965  2.9435  1.5017  0.9805
  793MOL0     H 4650  10.629  12.545   9.971 -0.0340  0.8257 -1.7619
  793MOL0     H 4651  10.500  12.542  10.102 -1.7718 -0.1039 -0.7026
  793MOL0     H 4652  10.532  12.788  10.134  0.3850 -1.2967  1.2208
  793MOL0     H 4653  10.638  12.786  10.009  1.5959  0.1296  0.4394
  793MOL0     H 4654  10.712  12.613  10.246  0.3951  0.4080  0.6488
  793MOL0     H 4655  10.826  12.687  10.129  1.7422 -1.8620  3.2342
  793MOL0     H 4656  10.821  12.804  10.354 -0.0799 -1.8441 -1.6175
  793MOL0     H 4657  10.656  12.840  10.328 -1.1144  0.4937 -3.1060
  793MOL0     H 4658   9.960  12.254   9.744 -0.3952 -0.0399  0.8077
  793MOL0     H 4659   9.875  12.039   9.644 -1.3353  2.4612  0.0357
  793MOL0     H 4660   9.752  11.816   9.394  0.4232  0.4731 -0.5933
  793MOL0     H 4661   9.618  11.707   9.227 -1.2043 -1.4002 -4.3323
  793MOL0     H 4662   9.422  10.062   8.450 -2.6341  0.9804 -0.7408
  793MOL0     H 4663   9.537  10.036   8.684  2.2654  0.7039  1.0202
  793MOL0     H 4664   9.442  10.073   9.183 -0.9939  2.8711 -4.1758
  793MOL0     H 4665   9.576  10.034   9.378  1.7364  2.2622  2.7747
  793MOL0     H 4666   9.866  10.320   9.427 -2.5661  0.5580  0.4951
  793MOL0     H 4667  10.007  10.219   9.441 -0.2294  0.1287  0.3120
  793MOL0     H 4668   9.764  10.238   9.622  0.3754  0.7373  0.0123
  793MOL0     H 4669   9.885  10.112   9.642  0.2908  0.6068  0.2255
  793MOL0     H 4670   9.899  10.319   9.805 -0.6254 -2.6084 -0.1440
  793MOL0     H 4671   9.951  10.421   9.674  0.8585  0.6373  2.6786
  793MOL0     H 4672  10.114  10.170   9.732 -1.1814  0.2140  1.5953
  793MOL0     H 4673  10.155  10.319   9.635 -1.3588  1.5758  0.5115
  793MOL0     H 4674  10.221  10.446  10.027 -0.9652 -0.6434  0.1885
  793MOL0     H 4675   9.890  10.281   9.186  2.4476 -3.0352  2.3870
  793MOL0     H 4676   9.764  10.283   9.000  2.1929 -1.0012  0.6602
  794MOL0     O 4677   0.641   8.534   2.932 -0.4518  0.1786  0.1732
  794MOL0     C 4678   0.654   8.594   3.042  0.3684 -0.5684 -0.0323
  794MOL0     O 4679   0.559   8.666   3.102 -0.5474  0.2455 -0.6278
  794MOL0     C 4680   0.439   8.693   3.045 -0.5152 -0.4138  0.9035
  794MOL0     C 4681   0.414   8.788   2.943  0.1984 -1.0998 -0.3352
  794MOL0     C 4682   0.287   8.828   2.889 -0.3527  0.4874  0.2473
  794MOL0     C 4683   0.184   8.751   2.929  0.4803  0.6002 -0.4556
  794MOL0     O 4684   0.057   8.778   2.877  0.6031  0.0191 -0.1268
  794MOL0     C 4685  -0.059   8.705   2.922 -0.2423 -0.3447 -0.9030
  794MOL0     C 4686  -0.191   8.742   2.866 -0.2363 -1.0328  0.7078
  794MOL0     C 4687  -0.300   8.652   2.926 -0.8067 -0.6939 -0.4602
  794MOL0     C 4688  -0.325   8.666   3.082 -0.7470 -0.0759  0.4752
  794MOL0     C 4689  -0.438   8.585   3.115  0.1125  0.5796 -0.0600
  794MOL0     C 4690  -0.489   8.636   3.254  0.6762 -0.9190  0.6410
  794MOL0     C 4691  -0.581   8.531   3.306  0.1506  1.4540 -0.0811
  794MOL0     C 4692  -0.686   8.589   3.404 -0.1866 -1.0807 -0.6722
  794MOL0     N 4693  -0.628   8.641   3.534 -0.0640 -0.3445  1.4570
  794MOL0     C 4694  -0.678   8.614   3.656  0.6135 -0.1707 -0.7807
  794MOL0     C 4695  -0.586   8.618   3.760 -0.3082  0.0900  0.5648
  794MOL0     C 4696  -0.604   8.591   3.904  0.5482  0.5984  1.4194
  794MOL0     C 4697  -0.728   8.676   3.939  0.1009  0.2219 -0.6565
  794MOL0     C 4698  -0.740   8.697   4.087 -0.1618  0.1676 -0.1927
  794MOL0     C 4699  -0.867   8.767   4.121  0.6656 -0.5899 -0.0200
  794MOL0     O 4700  -0.965   8.667   4.115  0.1959  0.4051  0.5940
  794MOL0     C 4701  -1.092   8.671   4.176 -0.1662 -1.0281  0.8684
  794MOL0     C 4702  -1.188   8.571   4.145  0.3362  0.5507  0.3220
  794MOL0     C 4703  -1.312   8.583   4.196  0.5868 -0.4951 -0.0301
  794MOL0     C 4704  -1.342   8.674   4.299  0.1609 -1.0232  0.9775
  794MOL0     C 4705  -1.473   8.664   4.367 -0.6812 -0.5029 -0.7456
  794MOL0     O 4706  -1.545   8.551   4.352 -0.7252 -0.0122 -0.7280
  794MOL0     C 4707  -1.657   8.518   4.409  0.6809 -0.5255  1.0507
  794MOL0     C 4708  -1.709   8.570   4.529 -0.3670 -0.4282 -0.1782
  794MOL0     C 4709  -1.827   8.516   4.588  0.0678  0.1225  0.3548
  794MOL0     C 4710  -1.887   8.401   4.526 -0.8745 -0.8305 -0.1069
  794MOL0     O 4711  -1.971   8.316   4.597  0.1408 -0.4737  0.3267
  794MOL0     C 4712  -2.097   8.320   4.530  0.1271  0.2169  0.3503
  794MOL0     C 4713  -2.210   8.250   4.603  0.1123 -0.4064  0.9329
  794MOL0     C 4714  -2.341   8.313   4.558  0.2159 -0.0590  0.7702
  794MOL0     C 4715  -2.460   8.242   4.614  0.2008 -0.9633 -0.6233
  794MOL0     C 4716  -2.477   8.112   4.552 -0.5596  0.0869 -0.3676
  794MOL0     C 4717  -2.614   8.042   4.573 -0.5024 -0.6366  0.3510
  794MOL0     C 4718  -2.606   7.894   4.526  0.3585  0.5366  0.0077
  794MOL0     C 4719  -2.580   7.855   4.385  0.3809 -0.4452 -0.2646
  794MOL0    Cl 4720  -2.698   7.943   4.278  0.2151 -0.0108 -0.4955
  794MOL0     C 4721  -1.830   8.342   4.415 -1.1352  0.9530 -0.1117
  794MOL0     C 4722  -1.716   8.403   4.352 -0.5618  0.0708  0.6661
  794MOL0     O 4723  -1.498   8.767   4.436  0.0994  0.7170 -0.9398
  794MOL0     C 4724  -1.250   8.780   4.324  0.1527 -0.1595  0.1014
  794MOL0     C 4725  -1.127   8.771   4.264 -0.2655  0.3465  0.3757
  794MOL0     N 4726  -0.467   8.659   3.694 -0.5695 -0.4203  0.2287
  794MOL0     N 4727  -0.494   8.678   3.563  0.0994 -0.3589 -0.2101
  794MOL0     C 4728   0.193   8.659   3.052  0.3092 -0.2426  1.3124
  794MOL0     C 4729   0.321   8.634   3.096 -0.1192  1.0448 -0.4725
  794MOL0     C 4730   0.777   8.569   3.125  0.1342 -0.5882  0.2993
  794MOL0     C 4731   0.873   8.484   3.069  0.2483 -0.3776  0.3602
  794MOL0     C 4732   0.986   8.444   3.149 -0.0919  0.6644 -0.5611
  794MOL0     C 4733   0.997   8.487   3.277 -0.5047  0.2838 -0.2550
  794MOL0     O 4734   1.106   8.430   3.343 -0.3242  1.0572 -0.1658
  794MOL0     C 4735   1.132   8.458   3.482 -0.1054 -0.5419  0.1417
  794MOL0     C 4736   1.241   8.362   3.517  0.1566  0.5398  0.4418
  794MOL0     C 4737   1.312   8.408   3.643 -0.0118  0.4153 -0.3985
  794MOL0     C 4738   1.433   8.312   3.680  0.3755  0.0140 -0.2327
  794MOL0     C 4739   1.476   8.318   3.821  0.0150  0.4459 -0.6497
  794MOL0     C 4740   1.494   8.329   3.942  0.0434  1.0233  0.1178
  794MOL0     C 4741   0.907   8.571   3.338  0.3902 -0.0313 -0.3563
  794MOL0     C 4742   0.797   8.608   3.259 -0.0285 -0.0476 -0.3513
  794MOL0     H 4743   0.506   8.830   2.905  0.3524 -3.6904 -3.2495
  794MOL0     H 4744   0.277   8.899   2.808  4.1213  1.6058  0.3898
  794MOL0     H 4745  -0.065   8.710   3.031  0.9100 -0.5927 -0.8068
  794MOL0     H 4746  -0.041   8.598   2.910  1.7957 -0.2422  0.6506
  794MOL0     H 4747  -0.194   8.741   2.756 -0.0474  2.1154  0.5697
  794MOL0     H 4748  -0.210   8.846   2.895 -0.9065 -1.1953  0.8625
  794MOL0     H 4749  -0.260   8.551   2.908  2.3415  0.4062 -0.3166
  794MOL0     H 4750  -0.393   8.686   2.881 -1.7027 -0.1473  1.6597
  794MOL0     H 4751  -0.234   8.638   3.135  0.4439 -0.8473 -1.8122
  794MOL0     H 4752  -0.348   8.772   3.093  0.4708  0.2166  0.3570
  794MOL0     H 4753  -0.403   8.481   3.115 -0.6751  0.2879 -2.0508
  794MOL0     H 4754  -0.516   8.596   3.040  2.3341  1.0237 -2.4329
  794MOL0     H 4755  -0.540   8.733   3.253  2.7421  0.2216  1.0532
  794MOL0     H 4756  -0.405   8.655   3.322  0.2623  2.8573  0.3000
  794MOL0     H 4757  -0.638   8.489   3.223 -0.2290  0.3099  0.7223
  794MOL0     H 4758  -0.534   8.450   3.364 -0.3806  0.4281 -1.0588
  794MOL0     H 4759  -0.765   8.514   3.413  0.8217 -2.5336 -3.0025
  794MOL0     H 4760  -0.731   8.671   3.348 -1.7688 -3.3604 -2.9408
  794MOL0     H 4761  -0.784   8.596   3.672  0.1151  1.2074 -2.3215
  794MOL0     H 4762  -0.517   8.623   3.962 -0.4649  2.5299  1.9771
  794MOL0     H 4763  -0.631   8.489   3.929 -2.3596  0.4795 -1.4455
  794MOL0     H 4764  -0.810   8.613   3.903  0.3291 -1.3665  1.4011
  794MOL0     H 4765  -0.711   8.773   3.891  0.2388  1.2185  1.3126
  794MOL0     H 4766  -0.723   8.596   4.126  2.1915 -0.4500 -2.5580
  794MOL0     H 4767  -0.664   8.759   4.134 -2.6617  1.9137  1.8425
  794MOL0     H 4768  -0.887   8.848   4.050 -0.5363 -0.3736  0.5509
  794MOL0     H 4769  -0.859   8.824   4.214 -4.4435 -0.8210  0.8399
  794MOL0     H 4770  -1.177   8.480   4.086 -2.3626  0.5057 -0.2324
  794MOL0     H 4771  -1.396   8.519   4.172 -0.1556 -0.1432  1.5500
  794MOL0     H 4772  -1.667   8.662   4.570  0.0937  0.0655 -1.6998
  794MOL0     H 4773  -1.869   8.542   4.684  0.9886 -0.4540  0.9227
  794MOL0     H 4774  -2.103   8.280   4.429 -1.3590 -0.6474  0.7515
  794MOL0     H 4775  -2.125   8.426   4.528 -1.1358 -0.0723  1.4082
  794MOL0     H 4776  -2.205   8.251   4.712  0.5495 -0.1304  0.9147
  794MOL0     H 4777  -2.199   8.145   4.575  0.3671 -0.3301  0.7365
  794MOL0     H 4778  -2.346   8.314   4.449  0.0056 -1.3963  0.7546
  794MOL0     H 4779  -2.360   8.416   4.590  0.5867 -0.1890  1.4178
  794MOL0     H 4780  -2.453   8.229   4.723 -4.6193  0.0961  0.0553
  794MOL0     H 4781  -2.547   8.305   4.592 -0.2985 -1.1759  0.6206
  794MOL0     H 4782  -2.395   8.050   4.588 -2.6180 -4.0074 -2.1337
  794MOL0     H 4783  -2.464   8.120   4.443  4.2992 -1.2205 -0.0902
  794MOL0     H 4784  -2.689   8.086   4.507  2.0105 -2.6816 -4.3301
  794MOL0     H 4785  -2.644   8.043   4.678 -0.9167 -3.1631  0.3321
  794MOL0     H 4786  -2.533   7.833   4.581  3.3485  1.4884 -2.6144
  794MOL0     H 4787  -2.697   7.838   4.548  1.1907 -1.5987 -1.6202
  794MOL0     H 4788  -2.574   7.750   4.357  2.5068 -0.4032 -0.1114
  794MOL0     H 4789  -2.486   7.907   4.362 -0.5555  0.9496 -1.0701
  794MOL0     H 4790  -1.875   8.248   4.386 -3.0734  2.3261 -1.9341
  794MOL0     H 4791  -1.656   8.355   4.276  0.3344  0.3825  1.1633
  794MOL0     H 4792  -1.280   8.852   4.399 -0.5101  1.9875 -2.0715
  794MOL0     H 4793  -1.063   8.845   4.311  0.2787 -0.8218  1.5300
  794MOL0     H 4794   0.106   8.617   3.101 -0.8185  0.8861  0.3240
  794MOL0     H 4795   0.333   8.565   3.179  0.7829  2.0616  0.2560
  794MOL0     H 4796   0.867   8.459   2.963 -0.7609  0.2126  0.2633
  794MOL0     H 4797   1.047   8.361   3.115 -1.1528 -0.5461  0.3919
  794MOL0     H 4798   1.041   8.426   3.534  1.2648 -0.6225  2.6551
  794MOL0     H 4799   1.154   8.562   3.511  1.4788 -0.9502  0.4998
  794MOL0     H 4800   1.207   8.258   3.528 -1.0698  0.6418 -1.7912
  794MOL0     H 4801   1.310   8.354   3.432  0.6723  0.6502  0.8458
  794MOL0     H 4802   1.243   8.404   3.728  1.6524  0.8629  1.0227
  794MOL0     H 4803   1.342   8.511   3.626 -2.9377  1.7554  1.6264
  794MOL0     H 4804   1.416   8.206   3.661  0.7891 -0.1473  0.3080
  794MOL0     H 4805   1.522   8.335   3.620  1.6816 -2.4275  0.6635
  794MOL0     H 4806   1.516   8.343   4.046 -0.3582 -0.8552  0.4882
  794MOL0     H 4807   0.917   8.612   3.438 -2.5125 -1.8422  0.8155
  794MOL0     H 4808   0.725   8.669   3.312  0.0867 -0.1704 -0.0436
  795MOL0     O 4809   1.315   8.654   5.688 -0.1941 -0.2701  0.6148
  795MOL0     C 4810   1.368   8.580   5.776 -0.3013 -1.1254  1.1787
  795MOL0     O 4811   1.342   8.439   5.796  0.2099 -0.8272  0.0741
  795MOL0     C 4812   1.268   8.375   5.690  0.2278  0.3831 -0.7256
  795MOL0     C 4813   1.324   8.382   5.556  0.5191  0.1370 -0.6394
  795MOL0     C 4814   1.260   8.315   5.462 -0.3247  0.4995 -0.1235
  795MOL0     C 4815   1.143   8.239   5.486 -0.8075  0.0217 -0.6349
  795MOL0     O 4816   1.091   8.194   5.367  0.3138  0.4884  0.0481
  795MOL0     C 4817   1.015   8.078   5.373 -0.1008  0.4717  0.2779
  795MOL0     C 4818   1.094   7.951   5.317  0.4363 -0.9488 -0.2426
  795MOL0     C 4819   1.010   7.823   5.337  0.6619  0.3220  0.3944
  795MOL0     C 4820   1.092   7.693   5.330  0.6004  0.1050 -0.0483
  795MOL0     C 4821   1.004   7.570   5.352  0.2785 -0.0919 -0.2765
  795MOL0     C 4822   0.979   7.530   5.494  0.4127 -0.8107 -0.8761
  795MOL0     C 4823   0.944   7.387   5.518 -0.3947 -0.5305 -0.6424
  795MOL0     C 4824   1.069   7.319   5.580 -0.5604 -0.8327 -0.4107
  795MOL0     N 4825   1.032   7.180   5.603 -0.0517 -0.7210 -0.8857
  795MOL0     C 4826   0.937   7.142   5.702  0.2023 -0.5713  1.0199
  795MOL0     C 4827   0.899   7.017   5.664 -0.5962  0.1611  0.1725
  795MOL0     C 4828   0.808   6.924   5.734 -0.2579 -0.2810 -0.0606
  795MOL0     C 4829   0.671   6.914   5.662 -0.1416  0.0528  0.2151
  795MOL0     C 4830   0.580   6.817   5.738 -0.5168 -0.0393  0.0728
  795MOL0     C 4831   0.469   6.757   5.652 -0.5536 -0.0116  0.7950
  795MOL0     O 4832   0.385   6.855   5.582 -0.1789  0.7040 -0.0430
  795MOL0     C 4833   0.285   6.787   5.515 -0.2356 -0.0857  0.2970
  795MOL0     C 4834   0.163   6.737   5.575 -0.2930 -0.4364  0.1222
  795MOL0     C 4835   0.060   6.690   5.497  0.4371 -0.2445 -0.5120
  795MOL0     C 4836   0.079   6.696   5.354  0.0265  0.1327  0.1828
  795MOL0     C 4837  -0.027   6.650   5.271  0.8434  0.5161  0.6273
  795MOL0     O 4838  -0.090   6.749   5.204  0.4117  0.2584 -0.0414
  795MOL0     C 4839  -0.203   6.732   5.129 -0.0767 -0.3124  0.1928
  795MOL0     C 4840  -0.300   6.830   5.117  0.6131  0.4518  0.4385
  795MOL0     C 4841  -0.429   6.804   5.060 -0.3892 -0.7487 -0.1153
  795MOL0     C 4842  -0.459   6.683   5.000 -0.5690 -0.0215 -0.3813
  795MOL0     O 4843  -0.590   6.669   4.972  0.5651  0.8457  0.7243
  795MOL0     C 4844  -0.616   6.564   4.871 -0.4039  0.5756  0.6607
  795MOL0     C 4845  -0.763   6.574   4.836 -0.8456  0.1821  0.9511
  795MOL0     C 4846  -0.826   6.453   4.773 -0.4758 -0.0827 -0.2469
  795MOL0     C 4847  -0.980   6.485   4.770 -0.3754 -0.0854 -0.6314
  795MOL0     C 4848  -1.054   6.372   4.712  0.5666 -0.4805 -0.2056
  795MOL0     C 4849  -1.211   6.380   4.725 -0.3697  0.7771 -0.1449
  795MOL0     C 4850  -1.274   6.239   4.720  0.0122 -0.2483 -0.1967
  795MOL0     C 4851  -1.414   6.243   4.659 -0.0189 -0.5328  0.2673
  795MOL0    Cl 4852  -1.419   6.337   4.504 -0.3756  0.2875 -0.2775
  795MOL0     C 4853  -0.359   6.584   5.000 -0.3825 -0.5651 -0.4951
  795MOL0     C 4854  -0.239   6.609   5.066  1.2366  0.4821  0.1635
  795MOL0     O 4855  -0.059   6.528   5.278 -0.2966 -0.0357 -0.1981
  795MOL0     C 4856   0.195   6.746   5.297  0.3719  1.0425 -0.2271
  795MOL0     C 4857   0.301   6.782   5.377  0.3629 -0.0882  0.7061
  795MOL0     N 4858   0.982   6.978   5.561 -0.2064  0.1287  0.6061
  795MOL0     N 4859   1.061   7.072   5.527 -0.0988 -0.7675 -0.8295
  795MOL0     C 4860   1.092   8.233   5.616 -0.6937  0.1658  0.9493
  795MOL0     C 4861   1.157   8.308   5.715  0.6945  0.4703  0.4853
  795MOL0     C 4862   1.443   8.658   5.876 -0.1325  0.8435  1.1923
  795MOL0     C 4863   1.480   8.795   5.868  1.0724  0.5580  0.3305
  795MOL0     C 4864   1.550   8.860   5.969  0.0809 -0.5140  0.3616
  795MOL0     C 4865   1.609   8.785   6.076  0.4430  0.4409 -0.7738
  795MOL0     O 4866   1.686   8.848   6.174  0.4086  0.8646  0.4049
  795MOL0     C 4867   1.766   8.954   6.131  0.6968 -0.5785  0.3633
  795MOL0     C 4868   1.892   8.971   6.215 -0.0527  0.2240  0.0905
  795MOL0     C 4869   1.884   9.042   6.348  0.1202  0.0416 -0.1910
  795MOL0     C 4870   1.882   9.190   6.316 -0.0509  0.4867 -0.8958
  795MOL0     C 4871   1.940   9.284   6.416  0.4764  0.1690 -0.7103
  795MOL0     C 4872   1.995   9.349   6.503 -0.7699  0.5454 -0.4376
  795MOL0     C 4873   1.577   8.651   6.089 -0.6170 -0.2145  1.1369
  795MOL0     C 4874   1.497   8.586   5.986  0.5083 -0.0438 -0.0677
  795MOL0     H 4875   1.411   8.447   5.544  1.7855 -0.8934  2.1437
  795MOL0     H 4876   1.307   8.318   5.364 -1.9981 -0.1191 -0.9706
  795MOL0     H 4877   0.935   8.090   5.299  0.3320 -0.8692 -0.4477
  795MOL0     H 4878   0.966   8.077   5.471  0.1379  0.9802  0.4028
  795MOL0     H 4879   1.186   7.946   5.376  0.6293  2.1302 -0.1164
  795MOL0     H 4880   1.121   7.959   5.211 -0.5580  2.9715 -0.3500
  795MOL0     H 4881   0.944   7.819   5.250  0.7755 -0.8088  0.3510
  795MOL0     H 4882   0.946   7.835   5.425  1.0349  1.7610  0.5035
  795MOL0     H 4883   1.125   7.686   5.226 -3.4012 -4.2437 -1.3519
  795MOL0     H 4884   1.175   7.695   5.401 -0.3921  0.8854  1.1342
  795MOL0     H 4885   1.073   7.504   5.298  0.7692  0.3346 -0.1822
  795MOL0     H 4886   0.906   7.578   5.304  0.5342  1.6804 -0.5653
  795MOL0     H 4887   0.900   7.595   5.534 -0.1378 -0.3850 -2.5424
  795MOL0     H 4888   1.059   7.564   5.561  0.7820 -2.0637 -0.6628
  795MOL0     H 4889   0.863   7.379   5.591 -0.2764  0.1748 -0.4267
  795MOL0     H 4890   0.914   7.325   5.433 -0.4196 -1.4265 -0.0030
  795MOL0     H 4891   1.087   7.355   5.682  2.0262 -3.5301  0.2079
  795MOL0     H 4892   1.160   7.331   5.521 -0.7042 -0.8213 -0.6328
  795MOL0     H 4893   0.898   7.207   5.779 -1.3434  0.1752 -0.3210
  795MOL0     H 4894   0.792   6.954   5.838 -2.7090  1.5826 -0.8710
  795MOL0     H 4895   0.850   6.824   5.740 -0.6736 -0.3548  2.3876
  795MOL0     H 4896   0.689   6.874   5.562 -0.9422 -1.8388  0.7887
  795MOL0     H 4897   0.623   7.011   5.647 -0.4107  0.2530  2.1061
  795MOL0     H 4898   0.627   6.726   5.777 -1.9028 -0.2508  1.3272
  795MOL0     H 4899   0.540   6.872   5.823 -0.7902 -1.9615  1.2561
  795MOL0     H 4900   0.408   6.703   5.725  1.5462 -1.9459  1.2294
  795MOL0     H 4901   0.501   6.682   5.579 -3.6173 -1.6546  0.9461
  795MOL0     H 4902   0.156   6.734   5.683 -1.2931 -1.4539  0.0517
  795MOL0     H 4903  -0.031   6.652   5.540  0.5086  0.3384  0.1654
  795MOL0     H 4904  -0.285   6.929   5.157  1.0827  1.1409 -1.3834
  795MOL0     H 4905  -0.505   6.881   5.063  1.7784  1.6616 -2.2281
  795MOL0     H 4906  -0.593   6.463   4.906  1.8760 -0.3057 -2.8482
  795MOL0     H 4907  -0.543   6.574   4.790  0.6724 -0.2876  1.4819
  795MOL0     H 4908  -0.773   6.651   4.759 -2.2587 -0.1175  0.8082
  795MOL0     H 4909  -0.809   6.611   4.928  0.5375  1.5603  1.1159
  795MOL0     H 4910  -0.821   6.359   4.829 -0.4031  0.1190  0.0867
  795MOL0     H 4911  -0.779   6.443   4.675 -0.9169  0.8044 -0.5560
  795MOL0     H 4912  -1.013   6.510   4.871  0.2717  3.0337 -1.0843
  795MOL0     H 4913  -0.995   6.574   4.707  2.0469  1.8150  1.2461
  795MOL0     H 4914  -1.022   6.280   4.761  3.4396  0.8587  0.6611
  795MOL0     H 4915  -1.029   6.378   4.606  0.1278  2.4811 -0.2303
  795MOL0     H 4916  -1.253   6.453   4.655 -0.9948 -0.8897 -1.5850
  795MOL0     H 4917  -1.229   6.408   4.830 -0.1515  3.2924 -0.7085
  795MOL0     H 4918  -1.209   6.187   4.649  1.0067  2.3640 -1.3313
  795MOL0     H 4919  -1.277   6.183   4.813 -2.2303 -0.3988 -0.2963
  795MOL0     H 4920  -1.478   6.285   4.737 -3.0615 -1.2441 -1.6737
  795MOL0     H 4921  -1.458   6.147   4.632  0.5379 -0.4853 -0.8255
  795MOL0     H 4922  -0.380   6.484   4.965 -1.4281  0.0514 -1.6993
  795MOL0     H 4923  -0.169   6.528   5.084 -1.4985 -1.8850  0.9906
  795MOL0     H 4924   0.197   6.762   5.189  0.0708  3.0962  0.0254
  795MOL0     H 4925   0.392   6.810   5.325 -1.4172  0.9382 -2.0470
  795MOL0     H 4926   1.000   8.178   5.637 -1.0090  0.2273 -0.2056
  795MOL0     H 4927   1.125   8.308   5.818  0.7760  2.5836  0.5615
  795MOL0     H 4928   1.439   8.854   5.786 -2.3641 -0.2740  1.2714
  795MOL0     H 4929   1.579   8.963   5.955 -2.9691  0.4322  0.2005
  795MOL0     H 4930   1.707   9.046   6.126  0.7060 -0.6187 -3.2101
  795MOL0     H 4931   1.786   8.949   6.024  0.7530 -1.3632  0.4037
  795MOL0     H 4932   1.928   8.870   6.240  0.6749  0.1694 -1.0912
  795MOL0     H 4933   1.962   9.008   6.140 -1.1882 -2.9495 -2.7988
  795MOL0     H 4934   1.979   9.019   6.397 -1.0565 -1.8183  1.3669
  795MOL0     H 4935   1.805   8.994   6.406 -0.4842  0.2733 -0.8054
  795MOL0     H 4936   1.950   9.198   6.230 -0.8934 -1.0290 -1.7359
  795MOL0     H 4937   1.786   9.220   6.273  0.3015  2.1476 -0.5940
  795MOL0     H 4938   2.044   9.399   6.584  0.9513 -0.0753 -1.0510
  795MOL0     H 4939   1.616   8.596   6.174 -0.0877 -2.8270 -0.6846
  795MOL0     H 4940   1.514   8.479   5.987 -0.7091 -0.2646 -0.6252
  796MOL0     O 4941   1.993   8.450   0.771 -0.3986 -0.3911  0.0527
  796MOL0     C 4942   2.083   8.523   0.826  0.4511  0.2372  0.2623
  796MOL0     O 4943   2.068   8.639   0.885 -0.4074 -0.5201 -0.8414
  796MOL0     C 4944   1.962   8.724   0.855 -0.4599  0.2725  0.7144
  796MOL0     C 4945   1.891   8.730   0.731 -0.4472  1.1441 -0.0679
  796MOL0     C 4946   1.781   8.817   0.710 -0.2816 -0.7331 -0.2565
  796MOL0     C 4947   1.744   8.902   0.812 -0.4527 -0.9067 -0.0510
  796MOL0     O 4948   1.630   8.981   0.794  0.7860  0.1071 -0.3132
  796MOL0     C 4949   1.591   9.074   0.888  0.6123  1.6945 -0.7378
  796MOL0     C 4950   1.468   9.147   0.832 -0.4232  0.6552 -0.3942
  796MOL0     C 4951   1.353   9.058   0.874 -0.1610  0.2623 -0.0626
  796MOL0     C 4952   1.230   9.091   0.789  0.2105  0.8747  0.9732
  796MOL0     C 4953   1.118   8.983   0.772  0.5954 -0.0410  0.1073
  796MOL0     C 4954   1.045   8.959   0.905 -0.3659  0.2204  0.3999
  796MOL0     C 4955   0.919   8.874   0.900  1.0296  0.4634  0.2872
  796MOL0     C 4956   0.808   8.935   0.811 -0.3183  0.2851  0.6400
  796MOL0     N 4957   0.698   8.836   0.818  0.1531 -0.0304  0.3309
  796MOL0     C 4958   0.581   8.882   0.867  0.0785 -0.3821  0.4102
  796MOL0     C 4959   0.491   8.784   0.850  0.1598 -0.0696 -0.4550
  796MOL0     C 4960   0.360   8.790   0.910  1.0763 -0.1179 -0.3368
  796MOL0     C 4961   0.303   8.667   0.982 -0.3238  0.6083 -0.8470
  796MOL0     C 4962   0.252   8.554   0.886 -0.2117  0.3095  0.0990
  796MOL0     C 4963   0.185   8.432   0.957 -0.3142 -0.8096  0.5090
  796MOL0     O 4964   0.282   8.325   0.969  0.6438 -0.3766 -0.0903
  796MOL0     C 4965   0.232   8.210   1.026 -0.1556  0.9759 -0.7855
  796MOL0     C 4966   0.315   8.104   1.049  0.4406  0.2374 -0.4713
  796MOL0     C 4967   0.265   7.971   1.096  0.5045 -0.5565  0.0711
  796MOL0     C 4968   0.128   7.954   1.121  0.4459 -0.0917 -0.3723
  796MOL0     C 4969   0.067   7.820   1.150 -0.2098 -0.0036  1.0804
  796MOL0     O 4970  -0.054   7.799   1.090 -0.3280  0.6857  0.6543
  796MOL0     C 4971  -0.124   7.689   1.131 -0.4041 -0.0276  0.3651
  796MOL0     C 4972  -0.167   7.679   1.261  1.5935  0.3023 -0.1868
  796MOL0     C 4973  -0.255   7.567   1.313 -0.5942 -0.4454 -1.0166
  796MOL0     C 4974  -0.293   7.473   1.222  0.3392 -0.6814 -0.0642
  796MOL0     O 4975  -0.384   7.365   1.228 -0.3226 -1.0208 -0.0261
  796MOL0     C 4976  -0.452   7.339   1.354  0.6740 -0.5370  0.0185
  796MOL0     C 4977  -0.370   7.264   1.453 -0.1476 -0.7033  0.2254
  796MOL0     C 4978  -0.284   7.145   1.395 -0.3685 -0.1578 -0.2368
  796MOL0     C 4979  -0.288   7.029   1.508  0.0070 -0.4251  0.6444
  796MOL0     C 4980  -0.179   6.933   1.476 -0.6878  0.1335  1.0210
  796MOL0     C 4981  -0.217   6.795   1.538  0.2600  0.7143 -0.0572
  796MOL0     C 4982  -0.082   6.717   1.541 -0.5257  0.7790  0.3082
  796MOL0     C 4983  -0.108   6.571   1.594 -0.0799 -0.8596 -0.4654
  796MOL0    Cl 4984   0.054   6.514   1.650 -0.0932 -0.2462  0.0039
  796MOL0     C 4985  -0.237   7.484   1.083 -0.5962 -0.2874  0.1470
  796MOL0     C 4986  -0.163   7.600   1.038 -0.0591  0.7689 -0.5186
  796MOL0     O 4987   0.132   7.729   1.205 -0.5227  0.1701  0.2932
  796MOL0     C 4988   0.045   8.067   1.111  0.7421  0.4445  0.3018
  796MOL0     C 4989   0.094   8.186   1.056 -0.2994  1.0484  0.0257
  796MOL0     N 4990   0.561   8.691   0.761 -0.1223  0.2794 -0.7359
  796MOL0     N 4991   0.683   8.728   0.742  0.0546  0.7510  0.2404
  796MOL0     C 4992   1.820   8.907   0.939  0.1036  0.5280 -1.1607
  796MOL0     C 4993   1.921   8.811   0.951  0.0093  0.0975  0.1554
  796MOL0     C 4994   2.216   8.460   0.858  0.3195 -0.9335 -0.9431
  796MOL0     C 4995   2.252   8.329   0.814  0.0273  0.9686 -0.6693
  796MOL0     C 4996   2.371   8.273   0.865  0.4346  0.2264  0.4654
  796MOL0     C 4997   2.469   8.351   0.934 -0.7818 -1.1220  1.0671
  796MOL0     O 4998   2.591   8.297   0.957 -0.0232  0.9835 -1.1334
  796MOL0     C 4999   2.710   8.372   0.999 -0.1435  0.2221 -0.4508
  796MOL0     C 5000   2.825   8.275   0.980 -0.1665 -0.0704  0.2056
  796MOL0     C 5001   2.848   8.202   0.851  0.1212 -0.9324  0.1255
  796MOL0     C 5002   2.969   8.119   0.858  0.9935 -0.0762  0.5753
  796MOL0     C 5003   2.932   7.979   0.908  0.4903  0.4303  0.2680
  796MOL0     C 5004   2.891   7.877   0.950  0.0800  0.2433  0.0075
  796MOL0     C 5005   2.436   8.483   0.972 -0.0211 -0.2505  0.4895
  796MOL0     C 5006   2.310   8.539   0.938  0.1065 -0.5063  0.6215
  796MOL0     H 5007   1.919   8.661   0.652 -1.7357 -0.2296  0.6189
  796MOL0     H 5008   1.723   8.830   0.619  2.0165 -0.7907 -1.8170
  796MOL0     H 5009   1.667   9.151   0.901  1.9942  0.5143 -1.5177
  796MOL0     H 5010   1.567   9.029   0.985  1.3060 -1.3765 -1.8845
  796MOL0     H 5011   1.478   9.170   0.725 -2.8743 -1.1657 -1.1007
  796MOL0     H 5012   1.458   9.241   0.888  1.4018  0.3956  0.4345
  796MOL0     H 5013   1.333   9.070   0.981  0.3328 -1.4569  0.2469
  796MOL0     H 5014   1.373   8.952   0.859  0.4096  0.3775 -0.1388
  796MOL0     H 5015   1.184   9.183   0.827 -1.7715  0.3519  0.0269
  796MOL0     H 5016   1.258   9.109   0.685 -1.9697  1.1164  0.3761
  796MOL0     H 5017   1.171   8.889   0.757 -0.1290 -0.7707  1.8563
  796MOL0     H 5018   1.045   9.013   0.696  0.6937 -1.5331 -0.5951
  796MOL0     H 5019   1.024   9.056   0.951  0.7970  0.6727  0.0382
  796MOL0     H 5020   1.122   8.902   0.958  0.4412  0.8103 -0.1155
  796MOL0     H 5021   0.942   8.771   0.872 -0.8739 -0.5066  2.0041
  796MOL0     H 5022   0.895   8.861   1.006 -1.7526 -2.7197 -0.5522
  796MOL0     H 5023   0.832   8.941   0.704  0.8983 -0.5383  0.8439
  796MOL0     H 5024   0.776   9.034   0.844 -0.6242 -0.0067  1.2264
  796MOL0     H 5025   0.560   8.974   0.921 -1.1221 -0.5589  0.2710
  796MOL0     H 5026   0.283   8.821   0.839  0.6128  0.5017  0.4171
  796MOL0     H 5027   0.349   8.876   0.977 -0.5407  0.0093 -0.7192
  796MOL0     H 5028   0.213   8.694   1.038 -0.1159  3.6922 -1.7977
  796MOL0     H 5029   0.379   8.633   1.053 -2.0858  2.0040  1.8508
  796MOL0     H 5030   0.187   8.597   0.810  0.2179 -0.8682 -0.9669
  796MOL0     H 5031   0.336   8.517   0.826  0.4190  1.4220  0.2623
  796MOL0     H 5032   0.103   8.400   0.893 -0.0331  1.4743 -1.1241
  796MOL0     H 5033   0.154   8.472   1.055  0.7443  1.8882 -0.1587
  796MOL0     H 5034   0.419   8.100   1.020  0.6854 -0.7178  0.4551
  796MOL0     H 5035   0.320   7.878   1.098 -2.6641 -2.6168 -0.1380
  796MOL0     H 5036  -0.131   7.740   1.343 -4.0960  1.7247  1.7099
  796MOL0     H 5037  -0.290   7.570   1.416 -0.1804  0.5234 -0.8944
  796MOL0     H 5038  -0.548   7.289   1.338  0.9818 -1.5313  1.1010
  796MOL0     H 5039  -0.484   7.436   1.392 -1.0191  0.4563 -3.5086
  796MOL0     H 5040  -0.437   7.213   1.523  1.2941 -3.1653 -0.0459
  796MOL0     H 5041  -0.317   7.348   1.498 -1.7687  1.0247 -0.9398
  796MOL0     H 5042  -0.183   7.171   1.361 -0.1636 -1.1729 -0.4322
  796MOL0     H 5043  -0.325   7.113   1.299  1.1120 -0.5480 -0.7652
  796MOL0     H 5044  -0.273   7.082   1.602 -1.4786 -0.3215  0.8415
  796MOL0     H 5045  -0.388   6.986   1.497  0.6383 -1.6283 -0.7124
  796MOL0     H 5046  -0.085   6.976   1.512 -0.0699  1.0082 -1.3872
  796MOL0     H 5047  -0.161   6.909   1.371 -0.0256  0.8337  0.9667
  796MOL0     H 5048  -0.290   6.747   1.471 -0.6646  3.3974 -1.0892
  796MOL0     H 5049  -0.261   6.794   1.638 -0.4711 -2.2746 -0.2905
  796MOL0     H 5050  -0.036   6.709   1.443  1.1222 -0.1085  1.1142
  796MOL0     H 5051  -0.010   6.770   1.604 -1.1057  1.6262  0.2782
  796MOL0     H 5052  -0.136   6.502   1.514  1.0801 -2.8007  0.7235
  796MOL0     H 5053  -0.181   6.578   1.676  0.5901 -2.4173  0.2965
  796MOL0     H 5054  -0.266   7.424   0.998 -2.5376  0.8123 -0.0065
  796MOL0     H 5055  -0.151   7.613   0.931  1.5514 -1.1928 -0.6302
  796MOL0     H 5056  -0.062   8.057   1.130  0.8981  2.6156  3.0266
  796MOL0     H 5057   0.012   8.256   1.042 -3.3676 -2.4431 -1.3217
  796MOL0     H 5058   1.800   8.978   1.019  1.4634  0.4706 -0.7293
  796MOL0     H 5059   1.987   8.815   1.037 -1.4234  0.7047  1.2590
  796MOL0     H 5060   2.172   8.278   0.760 -2.5872  2.4933  1.4808
  796MOL0     H 5061   2.402   8.170   0.851 -0.5953 -0.1790  1.0177
  796MOL0     H 5062   2.711   8.426   1.094 -3.7956 -1.0616  0.5064
  796MOL0     H 5063   2.709   8.452   0.925 -4.5565  0.0480 -0.8377
  796MOL0     H 5064   2.912   8.334   1.009 -0.9564 -0.3395  3.6772
  796MOL0     H 5065   2.820   8.198   1.058  0.5712  0.7795  1.1065
  796MOL0     H 5066   2.855   8.285   0.779  1.0686  2.0072  3.3417
  796MOL0     H 5067   2.761   8.137   0.839  0.8143 -1.6626 -1.2224
  796MOL0     H 5068   2.995   8.115   0.752 -3.7068  2.5133 -0.9909
  796MOL0     H 5069   3.053   8.158   0.915  1.7358 -2.8210  1.4998
  796MOL0     H 5070   2.849   7.789   0.995  0.5318 -1.1087 -2.0325
  796MOL0     H 5071   2.507   8.533   1.037  2.7003 -1.2747 -1.5216
  796MOL0     H 5072   2.289   8.642   0.965 -0.0511  0.2381 -2.0325
  797MOL0     O 5073   5.817   9.542   5.673  0.0248  0.6167  1.0525
  797MOL0     C 5074   5.820   9.418   5.686  0.4276  0.2570  0.0078
  797MOL0     O 5075   5.730   9.348   5.768  0.2129 -0.4067 -0.1727
  797MOL0     C 5076   5.604   9.416   5.796 -0.4054 -0.4964  0.6656
  797MOL0     C 5077   5.583   9.545   5.842 -0.0685  0.2929  0.6433
  797MOL0     C 5078   5.448   9.591   5.869  0.4942 -0.2394 -0.2845
  797MOL0     C 5079   5.344   9.506   5.834 -0.0602 -0.4792  0.1881
  797MOL0     O 5080   5.219   9.561   5.876 -0.4735  0.4163  0.4887
  797MOL0     C 5081   5.105   9.468   5.863 -0.2867  0.0832  0.2585
  797MOL0     C 5082   4.971   9.547   5.894 -0.1227 -0.1577 -0.0776
  797MOL0     C 5083   4.979   9.634   6.014 -0.3383  0.9658 -0.7530
  797MOL0     C 5084   4.838   9.701   6.044 -0.8879 -0.7201 -0.0912
  797MOL0     C 5085   4.820   9.801   6.157  0.1942  0.3699 -0.6126
  797MOL0     C 5086   4.670   9.837   6.165  0.1616  0.2134 -0.0219
  797MOL0     C 5087   4.647   9.938   6.275  1.0998  0.0882 -0.0423
  797MOL0     C 5088   4.500   9.985   6.282  0.2302 -0.2566 -0.3538
  797MOL0     N 5089   4.453  10.044   6.155  0.0709 -0.8108 -0.4414
  797MOL0     C 5090   4.531  10.125   6.071  0.0876  1.2973  0.7605
  797MOL0     C 5091   4.451  10.149   5.967  0.4877  0.1238  0.8115
  797MOL0     C 5092   4.502  10.245   5.856  0.0686 -0.1109 -0.6413
  797MOL0     C 5093   4.472  10.397   5.880 -0.4806 -0.2681 -1.0879
  797MOL0     C 5094   4.325  10.428   5.856 -0.6645 -0.8084 -0.1114
  797MOL0     C 5095   4.234  10.379   5.961 -0.5863 -0.3173  0.4862
  797MOL0     O 5096   4.128  10.471   5.982 -0.3356  0.0283  0.5967
  797MOL0     C 5097   4.035  10.440   6.076  0.6356  0.4036  0.5843
  797MOL0     C 5098   4.032  10.321   6.151  0.2296 -0.5363  0.0546
  797MOL0     C 5099   3.944  10.299   6.256  0.4904  0.2871  0.5009
  797MOL0     C 5100   3.845  10.396   6.283  0.1068 -0.9517  1.2142
  797MOL0     C 5101   3.743  10.371   6.389  0.2252  1.0612  0.5648
  797MOL0     O 5102   3.625  10.443   6.388 -0.1766  0.1089 -0.3526
  797MOL0     C 5103   3.525  10.401   6.467  1.4342 -0.0463 -0.0927
  797MOL0     C 5104   3.447  10.290   6.455 -0.4287 -0.3444 -0.6684
  797MOL0     C 5105   3.346  10.254   6.540 -0.2052  0.1641 -1.0121
  797MOL0     C 5106   3.324  10.324   6.659 -0.2764 -0.5026  0.6062
  797MOL0     O 5107   3.229  10.276   6.743 -0.2914 -0.1797  0.3424
  797MOL0     C 5108   3.144  10.380   6.803  0.1309 -0.2499  0.6883
  797MOL0     C 5109   3.022  10.312   6.870 -0.1067 -0.0054 -0.0641
  797MOL0     C 5110   3.050  10.202   6.969  0.7959  0.1347  0.0554
  797MOL0     C 5111   2.944  10.089   6.984  0.2171 -0.0819  0.7332
  797MOL0     C 5112   2.910  10.016   6.865 -0.3392  0.9686  0.2663
  797MOL0     C 5113   3.033   9.962   6.797  0.7189  0.8206  0.2628
  797MOL0     C 5114   2.992   9.862   6.691 -0.3766  0.3594  1.2405
  797MOL0     C 5115   3.099   9.849   6.581 -0.2517 -0.0797  1.1001
  797MOL0    Cl 5116   3.109   9.683   6.513 -0.1356 -0.0146  0.4512
  797MOL0     C 5117   3.408  10.442   6.684  0.3626  0.9672  0.3464
  797MOL0     C 5118   3.503  10.474   6.584  1.1780 -0.5494  0.1350
  797MOL0     O 5119   3.774  10.278   6.462  0.0812 -0.2434  0.1919
  797MOL0     C 5120   3.841  10.516   6.209  0.0154 -0.4313 -0.0648
  797MOL0     C 5121   3.934  10.536   6.106  0.2349  0.0143 -1.2952
  797MOL0     N 5122   4.329  10.083   5.982  0.5812 -0.3897  0.1780
  797MOL0     N 5123   4.330  10.020   6.094  0.3449 -0.2457 -0.9463
  797MOL0     C 5124   5.359   9.380   5.776 -0.2780  1.0779  0.5987
  797MOL0     C 5125   5.488   9.338   5.754 -0.5580 -1.0297 -0.3075
  797MOL0     C 5126   5.930   9.340   5.628  0.9770 -0.6276  0.0662
  797MOL0     C 5127   5.968   9.216   5.680  0.0010 -1.4427  0.7349
  797MOL0     C 5128   6.076   9.141   5.627  0.2694  0.2922  1.1118
  797MOL0     C 5129   6.157   9.198   5.535  0.1401  0.2791 -0.3470
  797MOL0     O 5130   6.279   9.140   5.505 -0.2303  0.1243  0.3782
  797MOL0     C 5131   6.298   8.999   5.530 -0.6871  0.0962  0.4772
  797MOL0     C 5132   6.428   8.930   5.504 -0.8862  1.2476 -0.2460
  797MOL0     C 5133   6.490   8.977   5.372  0.3038  0.2897 -0.0757
  797MOL0     C 5134   6.642   8.922   5.358  0.6335 -1.3489  0.1525
  797MOL0     C 5135   6.691   8.978   5.228 -0.2988  0.8699 -0.3703
  797MOL0     C 5136   6.727   9.012   5.119  0.6968 -0.3782  0.0564
  797MOL0     C 5137   6.116   9.323   5.479  0.1483  0.2727 -0.4115
  797MOL0     C 5138   6.013   9.397   5.531 -0.4442  0.0640  0.1478
  797MOL0     H 5139   5.666   9.609   5.869 -0.6939  2.0370 -1.3043
  797MOL0     H 5140   5.425   9.687   5.914  0.2754 -0.6641  0.5451
  797MOL0     H 5141   5.109   9.390   5.940 -4.0052 -1.6154 -1.0287
  797MOL0     H 5142   5.089   9.417   5.767  2.8899 -0.5313 -0.0571
  797MOL0     H 5143   4.893   9.474   5.919 -0.4667  0.0528 -0.5241
  797MOL0     H 5144   4.947   9.611   5.808  1.4404  0.1300 -0.3396
  797MOL0     H 5145   5.062   9.705   6.006 -1.7680  2.9506  0.8526
  797MOL0     H 5146   4.992   9.564   6.097 -1.7846 -3.0287 -3.5823
  797MOL0     H 5147   4.813   9.754   5.952 -0.0161 -2.0673 -1.1491
  797MOL0     H 5148   4.776   9.611   6.055  0.8065 -1.9228  0.0619
  797MOL0     H 5149   4.882   9.891   6.150  0.3238  0.3743  0.4431
  797MOL0     H 5150   4.850   9.763   6.255 -1.3740 -1.5353 -0.8254
  797MOL0     H 5151   4.604   9.752   6.185 -2.8959  2.9265  2.5021
  797MOL0     H 5152   4.639   9.876   6.067  1.9427  0.9392 -0.3493
  797MOL0     H 5153   4.666   9.887   6.370 -3.2611  0.7994  1.4474
  797MOL0     H 5154   4.720  10.017   6.260  0.6282 -0.0588 -4.0166
  797MOL0     H 5155   4.486  10.057   6.363 -2.5299 -0.5118 -0.4955
  797MOL0     H 5156   4.442   9.895   6.306  0.0090 -0.5958 -1.9942
  797MOL0     H 5157   4.633  10.160   6.079  0.9300  0.0356 -2.5169
  797MOL0     H 5158   4.460  10.207   5.762  2.0556 -3.5305 -0.3152
  797MOL0     H 5159   4.609  10.228   5.843  0.4522  0.9566  0.9344
  797MOL0     H 5160   4.540  10.454   5.817 -0.0797 -2.4253 -2.7544
  797MOL0     H 5161   4.489  10.417   5.986 -0.2924  0.0071 -1.1718
  797MOL0     H 5162   4.312  10.536   5.847 -1.1075 -0.7807  0.7899
  797MOL0     H 5163   4.304  10.381   5.760 -0.2620 -1.9936  0.3629
  797MOL0     H 5164   4.275  10.364   6.062 -2.1738 -2.1939  0.9224
  797MOL0     H 5165   4.196  10.286   5.916  2.2475 -1.3410 -0.0095
  797MOL0     H 5166   4.093  10.234   6.128  0.6603 -0.3940  0.6454
  797MOL0     H 5167   3.957  10.207   6.313 -1.3146  0.4310  1.2133
  797MOL0     H 5168   3.454  10.225   6.368 -1.7119 -0.7146 -0.5217
  797MOL0     H 5169   3.287  10.164   6.522  0.7274 -0.4483 -1.0745
  797MOL0     H 5170   3.123  10.473   6.750  0.8445 -0.2076  0.4648
  797MOL0     H 5171   3.205  10.419   6.885  0.9315  0.8928 -0.4043
  797MOL0     H 5172   2.956  10.276   6.791 -2.8887  1.2613  1.5100
  797MOL0     H 5173   2.964  10.395   6.911 -0.7251 -0.5621  0.1997
  797MOL0     H 5174   3.072  10.244   7.068 -1.8965 -1.6303  1.5270
  797MOL0     H 5175   3.139  10.156   6.925 -0.2994 -0.9441 -1.0917
  797MOL0     H 5176   2.984  10.018   7.057 -0.0736 -3.2998 -1.9613
  797MOL0     H 5177   2.854  10.131   7.029 -1.3501 -1.0791 -1.3067
  797MOL0     H 5178   2.843  10.074   6.801 -0.1385  1.1007  0.1752
  797MOL0     H 5179   2.844   9.935   6.898 -1.7513  3.1154  3.1693
  797MOL0     H 5180   3.097   9.907   6.866 -0.0128 -1.1753 -0.5632
  797MOL0     H 5181   3.086  10.041   6.743  0.5967 -0.1490 -1.3571
  797MOL0     H 5182   2.982   9.767   6.744  0.6637 -0.1768  0.4924
  797MOL0     H 5183   2.900   9.882   6.634 -0.1762 -2.7991 -0.3739
  797MOL0     H 5184   3.196   9.886   6.616  0.6451 -0.2825 -0.9985
  797MOL0     H 5185   3.086   9.929   6.507  2.7195  0.7742  1.3647
  797MOL0     H 5186   3.387  10.497   6.775 -3.9270  1.1020 -0.4877
  797MOL0     H 5187   3.567  10.561   6.597 -1.5779  1.9182 -1.5388
  797MOL0     H 5188   3.766  10.591   6.234  1.0254  0.1670  1.3482
  797MOL0     H 5189   3.918  10.626   6.048 -1.1234  1.0013  0.4812
  797MOL0     H 5190   5.279   9.309   5.759  0.4673  0.5046 -0.6390
  797MOL0     H 5191   5.506   9.241   5.708 -1.0434  1.4242 -6.6492
  797MOL0     H 5192   5.915   9.181   5.767 -0.7454  1.9028  1.7857
  797MOL0     H 5193   6.069   9.047   5.681  0.3423  0.7880  1.9995
  797MOL0     H 5194   6.222   8.947   5.470 -0.9960  2.6802 -1.5328
  797MOL0     H 5195   6.284   8.986   5.637  0.8178  0.9552  0.8026
  797MOL0     H 5196   6.502   8.955   5.581 -0.9649  2.7428 -0.6281
  797MOL0     H 5197   6.419   8.821   5.506  2.1146  0.9148 -0.1754
  797MOL0     H 5198   6.495   9.086   5.375 -1.7760  0.4054  1.2161
  797MOL0     H 5199   6.426   8.939   5.293 -2.1487 -2.1943  2.8507
  797MOL0     H 5200   6.709   8.960   5.435 -0.6509 -0.4561  0.8697
  797MOL0     H 5201   6.650   8.813   5.361 -1.0669 -1.4762  1.6341
  797MOL0     H 5202   6.738   9.045   5.017  1.9987  0.1203  0.3414
  797MOL0     H 5203   6.178   9.372   5.404  2.9161 -0.0912  1.4542
  797MOL0     H 5204   5.983   9.495   5.496  1.1531  1.3027  2.0292
  798MOL0     O 5205   2.588  10.795   5.890 -0.1869 -0.0377  0.1282
  798MOL0     C 5206   2.640  10.699   5.838 -0.4147 -0.0645  0.0881
  798MOL0     O 5207   2.779  10.679   5.837  0.5855  0.1720  0.2859
  798MOL0     C 5208   2.855  10.791   5.850  1.1439 -0.2970  0.0204
  798MOL0     C 5209   2.940  10.800   5.962  0.0349  0.3482 -1.0721
  798MOL0     C 5210   3.018  10.912   5.991 -0.5950  0.7025  0.5424
  798MOL0     C 5211   3.012  11.024   5.911  0.0065 -0.1518  1.1029
  798MOL0     O 5212   3.087  11.134   5.944  0.4235  0.8852 -0.7044
  798MOL0     C 5213   3.060  11.257   5.879 -0.1033 -0.6046 -0.4761
  798MOL0     C 5214   3.113  11.383   5.953  0.3517 -0.4165 -1.3786
  798MOL0     C 5215   3.053  11.385   6.093 -0.4121 -0.8511 -0.7475
  798MOL0     C 5216   3.092  11.505   6.183 -0.2361  0.4563  0.4663
  798MOL0     C 5217   3.040  11.642   6.117 -0.9948  0.8917 -1.0138
  798MOL0     C 5218   3.079  11.743   6.236  0.8521  0.2195 -0.4463
  798MOL0     C 5219   3.055  11.885   6.199  0.1681  0.3247  0.4265
  798MOL0     C 5220   2.904  11.921   6.221 -0.3087 -0.0363 -0.0757
  798MOL0     N 5221   2.890  12.068   6.214  0.4225  0.3300 -0.1291
  798MOL0     C 5222   2.945  12.163   6.303  0.3408  0.3951 -0.5080
  798MOL0     C 5223   2.876  12.279   6.292 -0.6634 -0.5073 -0.1501
  798MOL0     C 5224   2.913  12.408   6.362 -0.1410  0.5209  0.5625
  798MOL0     C 5225   3.044  12.475   6.315 -0.1485 -1.1586  0.6643
  798MOL0     C 5226   3.058  12.621   6.380  0.1992 -0.7301  0.1175
  798MOL0     C 5227   3.164  12.707   6.329 -0.1892  0.3871 -1.0632
  798MOL0     O 5228   3.143  12.831   6.389  0.5595  0.2411 -0.4382
  798MOL0     C 5229   3.206  12.935   6.334  0.7232  0.3853 -0.4873
  798MOL0     C 5230   3.310  12.923   6.245 -0.7015 -0.8576  0.4113
  798MOL0     C 5231   3.377  13.043   6.203 -0.1573  0.9791 -1.1260
  798MOL0     C 5232   3.329  13.161   6.241 -0.3270 -0.2691 -0.0296
  798MOL0     C 5233   3.397  13.283   6.187  0.3069  0.5653 -1.0992
  798MOL0     O 5234   3.386  13.405   6.244  0.5671 -0.0939  0.0521
  798MOL0     C 5235   3.465  13.500   6.200  0.1539 -0.2044 -0.1713
  798MOL0     C 5236   3.396  13.613   6.153 -0.7286 -0.3242 -0.4731
  798MOL0     C 5237   3.454  13.720   6.089  1.1209  1.1079 -0.3024
  798MOL0     C 5238   3.591  13.713   6.060 -0.4261  0.2213  0.4821
  798MOL0     O 5239   3.639  13.817   5.981 -0.1508 -0.1445 -0.0888
  798MOL0     C 5240   3.786  13.821   5.956  0.0295  0.6916 -1.2432
  798MOL0     C 5241   3.821  13.927   5.868 -0.6028 -0.5847  0.3186
  798MOL0     C 5242   3.749  13.920   5.734 -0.5195 -1.1126  0.0773
  798MOL0     C 5243   3.789  14.038   5.648 -0.9607  0.4173  0.7235
  798MOL0     C 5244   3.708  14.164   5.671 -0.0109  0.2559 -0.4386
  798MOL0     C 5245   3.562  14.149   5.644 -1.0598 -0.2589 -0.2086
  798MOL0     C 5246   3.495  14.289   5.625  0.2416 -0.4235 -0.3559
  798MOL0     C 5247   3.519  14.341   5.481 -0.1090 -0.0358  0.3004
  798MOL0    Cl 5248   3.421  14.248   5.372  0.4163 -0.1248 -0.1783
  798MOL0     C 5249   3.661  13.598   6.105 -0.9182 -0.8552  0.0823
  798MOL0     C 5250   3.604  13.493   6.172 -0.3162  0.1269 -0.2334
  798MOL0     O 5251   3.460  13.260   6.081  0.2577 -0.2027  0.9983
  798MOL0     C 5252   3.209  13.167   6.312 -0.0943  0.4334  0.5209
  798MOL0     C 5253   3.148  13.048   6.371 -0.7019 -1.0818 -0.3246
  798MOL0     N 5254   2.773  12.253   6.204  0.2786 -0.1342  0.2126
  798MOL0     N 5255   2.780  12.130   6.159  0.1660  0.1788 -0.0013
  798MOL0     C 5256   2.926  11.016   5.793 -0.7730  0.5277  0.0273
  798MOL0     C 5257   2.843  10.908   5.775  0.4006  0.5119 -0.0473
  798MOL0     C 5258   2.558  10.601   5.779  0.3396  0.3993 -0.3713
  798MOL0     C 5259   2.416  10.595   5.808  0.1929  0.6402  1.1156
  798MOL0     C 5260   2.333  10.492   5.751 -0.0399 -0.2546  0.3132
  798MOL0     C 5261   2.390  10.415   5.653  0.7733  0.4471 -0.3992
  798MOL0     O 5262   2.324  10.314   5.589 -0.2451  0.4735 -0.4402
  798MOL0     C 5263   2.184  10.310   5.579 -0.2720  0.8569  0.3197
  798MOL0     C 5264   2.145  10.223   5.462 -0.5728  0.0407 -0.0827
  798MOL0     C 5265   2.245  10.235   5.344  0.4503  0.5345 -1.4269
  798MOL0     C 5266   2.354  10.124   5.350 -0.0351  0.0785  0.1983
  798MOL0     C 5267   2.405  10.086   5.221 -0.3557 -0.4271  0.5080
  798MOL0     C 5268   2.452  10.035   5.121  0.6036 -0.5762  0.8035
  798MOL0     C 5269   2.527  10.416   5.632 -0.5328  0.3755  0.0790
  798MOL0     C 5270   2.613  10.505   5.691 -0.3963 -0.2263 -0.5351
  798MOL0     H 5271   2.933  10.716   6.031 -2.4287 -0.5565 -2.3175
  798MOL0     H 5272   3.089  10.911   6.073 -0.7136 -1.9139  0.6785
  798MOL0     H 5273   2.952  11.273   5.868 -0.1824 -1.2782 -0.7617
  798MOL0     H 5274   3.107  11.250   5.781  0.6676  0.0023 -0.1619
  798MOL0     H 5275   3.089  11.471   5.893 -0.7328  0.4833  0.2988
  798MOL0     H 5276   3.223  11.386   5.946  0.4318  2.0052 -0.0032
  798MOL0     H 5277   3.091  11.295   6.142 -2.8645 -0.2432  2.5818
  798MOL0     H 5278   2.945  11.369   6.088 -0.7220  1.2860 -3.2349
  798MOL0     H 5279   3.048  11.488   6.282 -2.8608 -0.0898 -0.6815
  798MOL0     H 5280   3.199  11.513   6.203  0.6203  0.1025 -3.3485
  798MOL0     H 5281   2.934  11.641   6.090 -0.2778  1.1210 -4.2082
  798MOL0     H 5282   3.091  11.669   6.024 -1.7063  1.9230 -1.1128
  798MOL0     H 5283   3.184  11.737   6.267  1.4647  0.4121 -2.3578
  798MOL0     H 5284   3.012  11.719   6.319  1.1543 -3.6588 -1.1364
  798MOL0     H 5285   3.121  11.947   6.261  0.1498  0.1865  0.5850
  798MOL0     H 5286   3.073  11.903   6.093 -2.3862  1.1688  0.0483
  798MOL0     H 5287   2.878  11.881   6.320  3.7629 -0.6217  0.9666
  798MOL0     H 5288   2.835  11.877   6.150  2.8812 -2.0722 -2.1631
  798MOL0     H 5289   3.027  12.152   6.374 -0.7089 -1.4429  0.4971
  798MOL0     H 5290   2.921  12.389   6.470  2.8466  2.5811  0.8167
  798MOL0     H 5291   2.823  12.469   6.351  0.6087  1.7187  0.9307
  798MOL0     H 5292   3.042  12.477   6.206  0.9518 -0.1725  0.6466
  798MOL0     H 5293   3.125  12.407   6.341  1.6043  0.9378  0.8945
  798MOL0     H 5294   2.962  12.672   6.367 -1.2992 -3.6125 -0.7872
  798MOL0     H 5295   3.065  12.597   6.486 -0.7687 -1.0763  0.1145
  798MOL0     H 5296   3.188  12.701   6.222 -1.9990  1.9824 -1.6091
  798MOL0     H 5297   3.253  12.662   6.374  0.1580  1.5186 -0.5865
  798MOL0     H 5298   3.361  12.836   6.204 -0.9518 -0.9669  0.3331
  798MOL0     H 5299   3.465  13.025   6.141 -0.1061  0.4388 -0.9029
  798MOL0     H 5300   3.290  13.618   6.177 -1.2511 -1.2150 -2.3485
  798MOL0     H 5301   3.392  13.805   6.060 -1.4310 -0.8911 -1.0976
  798MOL0     H 5302   3.816  13.725   5.914 -1.4998 -0.1212 -0.5855
  798MOL0     H 5303   3.833  13.833   6.053  0.7236 -0.2148 -1.4562
  798MOL0     H 5304   3.928  13.929   5.844 -1.0095  1.4167 -1.7485
  798MOL0     H 5305   3.794  14.021   5.917  1.9379 -0.3097  1.3427
  798MOL0     H 5306   3.640  13.915   5.745 -0.3666 -0.5237  2.2216
  798MOL0     H 5307   3.788  13.836   5.676  3.4857 -0.4284  1.4982
  798MOL0     H 5308   3.896  14.059   5.658 -0.2755 -1.4977 -1.5960
  798MOL0     H 5309   3.785  14.014   5.541 -2.9144  2.4443  0.2628
  798MOL0     H 5310   3.743  14.246   5.608  3.7072 -0.3844  0.5703
  798MOL0     H 5311   3.725  14.199   5.773  0.7380 -1.2030 -0.0314
  798MOL0     H 5312   3.517  14.107   5.734 -1.2543 -0.9421 -0.6206
  798MOL0     H 5313   3.557  14.085   5.556  0.0678 -0.4954 -0.1096
  798MOL0     H 5314   3.387  14.275   5.639  0.6715 -1.2520  2.6546
  798MOL0     H 5315   3.512  14.359   5.707 -1.0869  0.3776 -0.7167
  798MOL0     H 5316   3.624  14.335   5.452 -0.4191 -0.0610 -0.8657
  798MOL0     H 5317   3.482  14.444   5.474 -1.6390 -0.5837 -0.2426
  798MOL0     H 5318   3.768  13.607   6.095 -0.4117 -1.7786  3.4119
  798MOL0     H 5319   3.658  13.402   6.198 -1.4248  0.4665  4.1351
  798MOL0     H 5320   3.177  13.264   6.350  2.3787  0.3707  3.1216
  798MOL0     H 5321   3.061  13.048   6.436 -0.6437 -1.2744 -0.2447
  798MOL0     H 5322   2.940  11.086   5.712 -2.8727  0.4303 -0.4618
  798MOL0     H 5323   2.773  10.907   5.692  0.6429  3.4642 -0.3852
  798MOL0     H 5324   2.385  10.653   5.894 -0.1892  0.7599  0.8974
  798MOL0     H 5325   2.232  10.473   5.785 -0.7937 -0.0580 -1.7096
  798MOL0     H 5326   2.167  10.417   5.566 -0.2678  1.1735  2.5156
  798MOL0     H 5327   2.123  10.272   5.662 -1.3563 -2.4939 -1.7762
  798MOL0     H 5328   2.130  10.120   5.493  3.0742  0.4527  3.9520
  798MOL0     H 5329   2.050  10.256   5.419  1.1544  0.9663 -3.5955
  798MOL0     H 5330   2.280  10.338   5.337 -1.1876  1.2527  0.0210
  798MOL0     H 5331   2.192  10.210   5.252 -0.7265 -1.7034 -0.2215
  798MOL0     H 5332   2.439  10.156   5.411  0.7071 -0.6270 -0.4287
  798MOL0     H 5333   2.309  10.037   5.398  0.2361 -1.0310 -1.4805
  798MOL0     H 5334   2.492   9.995   5.030 -2.0641  2.0360 -1.7424
  798MOL0     H 5335   2.569  10.341   5.566 -1.3083  1.6750 -1.9617
  798MOL0     H 5336   2.718  10.494   5.666  1.0174  1.6811  3.6239
  799MOL0     O 5337   7.930   6.936   3.542 -0.3836  0.0387  0.5027
  799MOL0     C 5338   7.892   6.818   3.545 -1.2521  0.2014 -0.7231
  799MOL0     O 5339   7.956   6.710   3.481 -0.9325  0.5712  0.4084
  799MOL0     C 5340   8.073   6.741   3.430 -0.5913 -0.3567  0.9600
  799MOL0     C 5341   8.090   6.742   3.290 -0.1235  0.3404 -0.5009
  799MOL0     C 5342   8.213   6.773   3.230  1.1497 -1.3711 -0.4762
  799MOL0     C 5343   8.325   6.804   3.304  0.7489 -0.4455 -0.0461
  799MOL0     O 5344   8.442   6.857   3.254  0.2205 -0.3698  0.1021
  799MOL0     C 5345   8.439   6.906   3.122  0.4562  0.4030  0.4519
  799MOL0     C 5346   8.557   6.992   3.098  0.1399 -0.0763  0.0613
  799MOL0     C 5347   8.687   6.917   3.075 -0.5581  0.1727  0.3479
  799MOL0     C 5348   8.776   6.884   3.205 -0.8055 -0.1811  0.7902
  799MOL0     C 5349   8.910   6.814   3.171 -0.2265  0.4773  0.7758
  799MOL0     C 5350   8.950   6.710   3.273 -0.2009 -1.0492  0.5527
  799MOL0     C 5351   9.088   6.654   3.249 -0.1053  0.4624  1.5684
  799MOL0     C 5352   9.208   6.744   3.262 -0.0091  0.1973  0.0008
  799MOL0     N 5353   9.337   6.664   3.257  0.3926  0.3548 -0.1962
  799MOL0     C 5354   9.376   6.545   3.323 -0.3232 -0.0353  0.2441
  799MOL0     C 5355   9.496   6.521   3.293 -0.4647 -0.1262 -0.4508
  799MOL0     C 5356   9.580   6.415   3.337  0.1131  0.3932 -0.9968
  799MOL0     C 5357   9.520   6.294   3.410  0.3390 -0.2356  0.2552
  799MOL0     C 5358   9.644   6.208   3.448 -0.5767  0.4220  0.7227
  799MOL0     C 5359   9.741   6.275   3.543  0.1551 -0.1560 -0.2854
  799MOL0     O 5360   9.826   6.182   3.612 -0.1089 -0.4372  0.3565
  799MOL0     C 5361   9.950   6.167   3.555 -0.2045 -0.2902  0.1051
  799MOL0     C 5362  10.007   6.247   3.455 -0.4577 -0.0914 -0.0241
  799MOL0     C 5363  10.135   6.230   3.409  0.6071 -0.2875  1.1375
  799MOL0     C 5364  10.215   6.121   3.464  0.1724  0.9644  0.1761
  799MOL0     C 5365  10.349   6.095   3.415  1.1140 -0.4332  0.0682
  799MOL0     O 5366  10.398   6.178   3.313 -0.1400  0.3844  0.5858
  799MOL0     C 5367  10.520   6.148   3.248  0.4449  0.1202 -0.1764
  799MOL0     C 5368  10.539   6.021   3.200 -1.2630 -0.5679  0.8109
  799MOL0     C 5369  10.644   5.998   3.106  0.4144 -0.8479 -0.5241
  799MOL0     C 5370  10.715   6.111   3.051 -0.6682  0.1242  0.1989
  799MOL0     O 5371  10.809   6.081   2.955 -0.2791  0.3161 -0.6697
  799MOL0     C 5372  10.848   6.179   2.859  0.0015 -0.1449  0.3603
  799MOL0     C 5373  10.971   6.132   2.779 -1.0199 -0.1753  0.4889
  799MOL0     C 5374  11.095   6.098   2.867  0.1929  0.1155 -0.0213
  799MOL0     C 5375  11.202   6.052   2.765 -0.9676 -0.1358 -0.4089
  799MOL0     C 5376  11.331   6.000   2.838 -0.1812 -0.3043  0.5969
  799MOL0     C 5377  11.440   5.944   2.737 -0.1244 -1.2467  0.1417
  799MOL0     C 5378  11.529   6.058   2.684  0.1206  0.5837  0.2430
  799MOL0     C 5379  11.614   6.019   2.564 -0.0726 -0.4442 -0.3278
  799MOL0    Cl 5380  11.750   6.134   2.534  0.0212  0.2890 -0.2341
  799MOL0     C 5381  10.699   6.243   3.110  0.3271  0.8997 -0.3188
  799MOL0     C 5382  10.597   6.258   3.206 -0.0767 -0.7972  0.5405
  799MOL0     O 5383  10.416   6.015   3.483  0.2414 -0.5620 -0.7249
  799MOL0     C 5384  10.152   6.036   3.560 -0.0201  1.1918  0.6065
  799MOL0     C 5385  10.021   6.057   3.600 -0.1560  0.0400  0.0543
  799MOL0     N 5386   9.539   6.628   3.209 -0.8828  0.0594 -1.0781
  799MOL0     N 5387   9.445   6.716   3.193  0.1656 -0.7211 -0.3674
  799MOL0     C 5388   8.314   6.802   3.439 -0.4607  0.6545  0.0827
  799MOL0     C 5389   8.195   6.766   3.507  0.6734 -0.6232  0.2726
  799MOL0     C 5390   7.771   6.783   3.629  0.1187  0.4667 -0.1342
  799MOL0     C 5391   7.707   6.659   3.633  0.1620 -0.6515 -0.0958
  799MOL0     C 5392   7.597   6.638   3.702 -0.0091 -0.5435 -0.3818
  799MOL0     C 5393   7.531   6.733   3.779  0.3824  0.8748 -0.7530
  799MOL0     O 5394   7.413   6.698   3.842 -0.3224  0.0340  0.5637
  799MOL0     C 5395   7.343   6.799   3.914  0.0971 -0.1835  0.2797
  799MOL0     C 5396   7.226   6.737   3.989  0.2004  0.0834  0.1596
  799MOL0     C 5397   7.138   6.831   4.076 -0.0835 -0.0012  0.1532
  799MOL0     C 5398   7.041   6.746   4.167 -0.1115 -0.3505  0.2574
  799MOL0     C 5399   6.940   6.680   4.085 -0.4238 -0.0430  0.0123
  799MOL0     C 5400   6.858   6.629   4.016 -0.3775  0.4102  0.5754
  799MOL0     C 5401   7.582   6.868   3.774  0.4551 -0.1063 -0.5630
  799MOL0     C 5402   7.701   6.884   3.701  0.3851 -0.7000 -0.5534
  799MOL0     H 5403   8.013   6.703   3.225  1.2831 -1.9924 -0.8774
  799MOL0     H 5404   8.214   6.745   3.125 -3.3879 -1.4280 -0.7408
  799MOL0     H 5405   8.362   6.982   3.110  0.9974  0.7487 -1.0016
  799MOL0     H 5406   8.426   6.831   3.043  1.6829  2.2358 -1.5867
  799MOL0     H 5407   8.571   7.065   3.178  0.3919 -0.3456  0.2651
  799MOL0     H 5408   8.535   7.043   3.003  0.4097 -1.5095 -0.8059
  799MOL0     H 5409   8.747   6.975   3.004 -2.4839 -0.5229 -2.0042
  799MOL0     H 5410   8.672   6.818   3.031  1.5805 -0.3219  0.6349
  799MOL0     H 5411   8.798   6.983   3.247  0.4148  0.5626 -1.4748
  799MOL0     H 5412   8.722   6.823   3.278 -0.5986 -2.1615 -0.6374
  799MOL0     H 5413   8.986   6.892   3.157  3.7006 -3.2598 -1.0776
  799MOL0     H 5414   8.892   6.753   3.082  2.0687 -2.7114  2.2713
  799MOL0     H 5415   8.874   6.632   3.288 -0.6385 -0.5022  1.2830
  799MOL0     H 5416   8.941   6.759   3.371 -0.2904 -1.0437  0.5421
  799MOL0     H 5417   9.096   6.571   3.319 -0.9629 -0.7292  0.3074
  799MOL0     H 5418   9.075   6.618   3.147  0.5883  0.9202  1.3147
  799MOL0     H 5419   9.209   6.804   3.354 -1.6564  0.2027  0.0408
  799MOL0     H 5420   9.215   6.820   3.183  0.0146  1.7106  1.3932
  799MOL0     H 5421   9.329   6.488   3.402  1.2168 -0.8483  0.6134
  799MOL0     H 5422   9.659   6.467   3.392  0.4402 -0.2303 -0.8726
  799MOL0     H 5423   9.629   6.376   3.247  2.4069  2.2076 -0.6487
  799MOL0     H 5424   9.455   6.246   3.337  1.0291  2.4714 -2.3328
  799MOL0     H 5425   9.463   6.327   3.498  0.1473  1.0632 -0.3286
  799MOL0     H 5426   9.615   6.113   3.493  1.7012 -0.5096  0.3216
  799MOL0     H 5427   9.695   6.181   3.355  0.1043 -0.4882  1.3465
  799MOL0     H 5428   9.682   6.323   3.622  0.0360  0.6449 -0.8447
  799MOL0     H 5429   9.792   6.363   3.504 -1.7259  2.7260  3.1322
  799MOL0     H 5430   9.959   6.328   3.402  1.6028  0.6964 -0.7508
  799MOL0     H 5431  10.169   6.302   3.335  0.4303 -0.4995  0.8427
  799MOL0     H 5432  10.468   5.947   3.236 -0.2600 -1.8808  0.1722
  799MOL0     H 5433  10.680   5.903   3.068  2.4661  0.2993 -1.6012
  799MOL0     H 5434  10.862   6.267   2.923 -1.8085 -1.5629  2.8573
  799MOL0     H 5435  10.766   6.201   2.790  0.6786  0.9328 -0.1237
  799MOL0     H 5436  11.001   6.204   2.702  0.5626  0.6022  1.7885
  799MOL0     H 5437  10.949   6.042   2.721  1.0728 -0.6805  0.4190
  799MOL0     H 5438  11.081   6.024   2.946 -2.5277  0.4565 -0.1129
  799MOL0     H 5439  11.122   6.189   2.921 -0.6313 -0.9476  2.2783
  799MOL0     H 5440  11.166   5.964   2.711  0.0172 -1.1902  0.5756
  799MOL0     H 5441  11.212   6.130   2.689 -2.4146 -1.0864 -1.6312
  799MOL0     H 5442  11.295   5.918   2.901 -0.5743 -1.0456 -0.5611
  799MOL0     H 5443  11.367   6.077   2.908 -2.6238 -2.0425  4.0920
  799MOL0     H 5444  11.395   5.885   2.657  0.1096 -1.4938  0.1888
  799MOL0     H 5445  11.514   5.882   2.789  0.8676 -0.8856 -0.8057
  799MOL0     H 5446  11.469   6.137   2.639  1.7833  0.5502 -2.1989
  799MOL0     H 5447  11.600   6.100   2.755 -0.0683  0.1698  0.6870
  799MOL0     H 5448  11.542   6.023   2.481  1.1837  2.7328 -1.4054
  799MOL0     H 5449  11.648   5.915   2.575  0.2035 -0.5241 -1.6562
  799MOL0     H 5450  10.760   6.325   3.071  1.3518 -0.5824 -1.9615
  799MOL0     H 5451  10.569   6.356   3.243 -2.2445 -1.3130  0.4124
  799MOL0     H 5452  10.202   5.952   3.609  0.2534  0.8579 -0.2222
  799MOL0     H 5453   9.985   6.007   3.689  0.1071  0.4816  0.4165
  799MOL0     H 5454   8.397   6.826   3.504 -1.5136  2.7605  0.7134
  799MOL0     H 5455   8.180   6.754   3.614  0.7330 -1.9236  0.1490
  799MOL0     H 5456   7.746   6.573   3.579 -0.3802 -0.3147 -1.0433
  799MOL0     H 5457   7.559   6.538   3.721  0.2062 -0.5783 -0.1322
  799MOL0     H 5458   7.305   6.874   3.844  4.3116  3.2005  1.1377
  799MOL0     H 5459   7.417   6.843   3.981  1.0314 -1.8377  0.3955
  799MOL0     H 5460   7.154   6.693   3.920 -0.6155  1.2950  0.2041
  799MOL0     H 5461   7.265   6.664   4.061 -3.2434  0.5786  2.7935
  799MOL0     H 5462   7.065   6.897   4.028 -4.1899 -0.8614  4.5009
  799MOL0     H 5463   7.203   6.900   4.131  1.2311 -0.6268 -0.5520
  799MOL0     H 5464   7.096   6.682   4.237 -1.4431 -1.5307  0.2665
  799MOL0     H 5465   6.986   6.809   4.237 -1.6253 -0.7862 -0.4915
  799MOL0     H 5466   6.803   6.591   3.932 -0.1422  2.1940 -0.4471
  799MOL0     H 5467   7.552   6.950   3.839  1.3498 -1.4070  1.5850
  799MOL0     H 5468   7.745   6.983   3.701  0.3511 -0.6814  0.0960
  800MOL0     O 5469   9.364   9.899  10.955  0.5616 -0.4182 -0.4182
  800MOL0     C 5470   9.451   9.916  11.041  0.5788 -0.3467 -0.3424
  800MOL0     O 5471   9.423   9.947  11.172 -0.5942  0.0805 -0.3311
  800MOL0     C 5472   9.298   9.961  11.221  0.4261  0.0837  0.1554
  800MOL0     C 5473   9.187  10.014  11.159  1.0015 -0.8297 -0.1422
  800MOL0     C 5474   9.063  10.014  11.227  0.4841 -0.5212 -0.4463
  800MOL0     C 5475   9.047   9.951  11.353 -0.5072 -0.2025 -0.6506
  800MOL0     O 5476   8.932   9.965  11.431 -0.2241  0.6413  0.1294
  800MOL0     C 5477   8.884  10.085  11.475  0.6986  0.2127 -0.3757
  800MOL0     C 5478   8.905  10.112  11.621  0.3905  0.0628 -0.3450
  800MOL0     C 5479   8.825  10.009  11.709  0.4995 -0.2528 -0.8859
  800MOL0     C 5480   8.667  10.014  11.685  0.3436 -0.1098 -0.4289
  800MOL0     C 5481   8.585   9.965  11.805 -0.2893  0.5407 -0.1739
  800MOL0     C 5482   8.622   9.831  11.870  0.2571 -0.1233  0.2652
  800MOL0     C 5483   8.536   9.788  11.984  0.0474 -0.0802  0.4461
  800MOL0     C 5484   8.554   9.645  12.023 -0.9425  0.9806 -0.4308
  800MOL0     N 5485   8.509   9.618  12.158  0.2540  0.4178 -0.4373
  800MOL0     C 5486   8.553   9.523  12.252 -0.0712 -0.3879 -0.2304
  800MOL0     C 5487   8.469   9.541  12.355 -0.3089  0.0021  0.2825
  800MOL0     C 5488   8.470   9.481  12.486  0.1038  0.1115 -0.4678
  800MOL0     C 5489   8.595   9.523  12.562 -0.7474 -0.8610  0.6595
  800MOL0     C 5490   8.621   9.445  12.687 -0.0493 -0.0739  0.1454
  800MOL0     C 5491   8.512   9.439  12.789  0.7090 -0.5158 -0.5555
  800MOL0     O 5492   8.550   9.368  12.899  0.2404  0.0877 -0.9979
  800MOL0     C 5493   8.446   9.326  12.992 -0.5538 -0.3051  0.9031
  800MOL0     C 5494   8.305   9.345  12.983  0.5478  0.2200 -0.6465
  800MOL0     C 5495   8.214   9.301  13.086  0.0513  0.3824  0.6185
  800MOL0     C 5496   8.269   9.234  13.195  0.8163  1.0569  0.4106
  800MOL0     C 5497   8.189   9.184  13.312 -0.7022  0.1667  0.1303
  800MOL0     O 5498   8.264   9.167  13.425 -0.0423  0.0194  0.6116
  800MOL0     C 5499   8.196   9.116  13.530  0.6965  0.5034 -0.5787
  800MOL0     C 5500   8.192   8.978  13.539  0.3036 -0.3110 -0.0732
  800MOL0     C 5501   8.120   8.918  13.641 -0.7530  0.3122  0.2290
  800MOL0     C 5502   8.053   8.987  13.746  0.1939 -0.5170 -0.0148
  800MOL0     O 5503   7.959   8.920  13.826  0.5803 -0.1716  0.3732
  800MOL0     C 5504   7.898   8.981  13.938  0.5476  0.2342  0.2391
  800MOL0     C 5505   7.824   8.874  14.006 -0.1302 -0.0204  1.0720
  800MOL0     C 5506   7.752   8.929  14.130  0.8763  0.5442  0.0207
  800MOL0     C 5507   7.660   8.833  14.190 -0.4318  0.1783  0.3934
  800MOL0     C 5508   7.620   8.896  14.322  0.4192  0.3151  1.0819
  800MOL0     C 5509   7.535   8.793  14.405 -0.2060 -0.9378 -0.5061
  800MOL0     C 5510   7.448   8.878  14.508 -0.2257  0.2155  0.1326
  800MOL0     C 5511   7.364   8.787  14.605 -0.4009 -0.3692 -0.0393
  800MOL0    Cl 5512   7.477   8.703  14.713  0.1582  0.2038  0.2738
  800MOL0     C 5513   8.058   9.128  13.733 -0.9349 -0.2199 -0.4542
  800MOL0     C 5514   8.132   9.196  13.628 -0.3152 -0.6523  0.5749
  800MOL0     O 5515   8.069   9.163  13.310 -0.3857 -0.0446 -0.2193
  800MOL0     C 5516   8.407   9.224  13.199 -0.6044  0.4253 -0.4735
  800MOL0     C 5517   8.497   9.270  13.107  0.2142 -0.7218 -0.4318
  800MOL0     N 5518   8.365   9.625  12.319  1.3500  0.1595 -0.2940
  800MOL0     N 5519   8.387   9.660  12.195 -0.3617 -1.1438 -0.1069
  800MOL0     C 5520   9.164   9.914  11.421  0.9193 -1.7993 -0.3024
  800MOL0     C 5521   9.282   9.907  11.356 -0.3056 -0.4865 -0.2228
  800MOL0     C 5522   9.589   9.895  11.004 -0.5101  0.9885  0.4139
  800MOL0     C 5523   9.686   9.921  11.103  0.0284 -0.0556 -0.4673
  800MOL0     C 5524   9.817   9.904  11.070  0.0401  0.0896  1.0383
  800MOL0     C 5525   9.865   9.872  10.938  0.3376  0.2004  0.8050
  800MOL0     O 5526   9.992   9.863  10.896 -0.7101  0.3356  0.0290
  800MOL0     C 5527  10.102   9.949  10.945  0.1432 -0.2182  0.5120
  800MOL0     C 5528  10.172  10.012  10.822 -0.0304  0.2969 -0.1326
  800MOL0     C 5529  10.306  10.065  10.882 -0.5751 -0.2176  0.0740
  800MOL0     C 5530  10.422  10.060  10.788 -0.6548  0.2742  0.3162
  800MOL0     C 5531  10.457   9.922  10.779  0.1696 -0.3563 -0.0778
  800MOL0     C 5532  10.469   9.798  10.791  0.0882 -0.3066 -0.0790
  800MOL0     C 5533   9.763   9.858  10.839 -0.0018  0.5852  0.7581
  800MOL0     C 5534   9.625   9.861  10.867 -0.0122  0.1629  0.8434
  800MOL0     H 5535   9.184  10.054  11.058  3.6041  1.0077  0.4112
  800MOL0     H 5536   8.982  10.076  11.190  0.2636 -0.5189  0.0309
  800MOL0     H 5537   8.778  10.088  11.450  0.2698  0.6947  1.3488
  800MOL0     H 5538   8.931  10.170  11.424  2.8606  0.0509  1.2064
  800MOL0     H 5539   8.896  10.219  11.642 -1.0941  0.3907 -2.4246
  800MOL0     H 5540   9.009  10.088  11.646  0.7677  2.0222  0.1726
  800MOL0     H 5541   8.851  10.021  11.815 -1.0997 -0.7775 -0.4130
  800MOL0     H 5542   8.863   9.908  11.693 -1.1048 -1.3267  1.5959
  800MOL0     H 5543   8.640  10.119  11.668  0.9903 -0.1400 -1.7425
  800MOL0     H 5544   8.641   9.968  11.589  0.1164  0.6399 -0.7382
  800MOL0     H 5545   8.480   9.964  11.774 -0.3737  1.4330  0.0505
  800MOL0     H 5546   8.603  10.033  11.890  1.3046 -2.4469  2.0545
  800MOL0     H 5547   8.719   9.852  11.915 -0.4399  0.9588  1.3280
  800MOL0     H 5548   8.645   9.749  11.802 -0.2380  0.9916 -1.3027
  800MOL0     H 5549   8.575   9.839  12.072  2.3510  0.8811 -1.0308
  800MOL0     H 5550   8.431   9.812  11.967  0.4311  1.8482  0.6375
  800MOL0     H 5551   8.655   9.604  12.022 -0.9230  1.0328 -0.6800
  800MOL0     H 5552   8.492   9.581  11.959  0.6885 -1.0423 -0.0772
  800MOL0     H 5553   8.643   9.463  12.260 -1.5073 -2.3919  3.9277
  800MOL0     H 5554   8.462   9.372  12.486 -0.1419  0.1273 -0.1542
  800MOL0     H 5555   8.379   9.512  12.538  1.6555 -0.2381  2.7617
  800MOL0     H 5556   8.589   9.630  12.583  1.1778 -0.9825  2.2532
  800MOL0     H 5557   8.685   9.513  12.500 -0.0665  1.3493  1.2096
  800MOL0     H 5558   8.648   9.343  12.658 -0.4396 -0.0264 -0.4065
  800MOL0     H 5559   8.713   9.489  12.728  1.5590 -3.7065  0.8813
  800MOL0     H 5560   8.424   9.389  12.747 -0.8432  1.7765 -0.2354
  800MOL0     H 5561   8.475   9.536  12.823  0.3087 -0.7460 -0.3180
  800MOL0     H 5562   8.257   9.399  12.902 -3.6314  0.0460  1.4780
  800MOL0     H 5563   8.107   9.304  13.073  0.0550  0.4888  0.6074
  800MOL0     H 5564   8.217   8.916  13.453 -1.6571 -2.2903  0.6862
  800MOL0     H 5565   8.127   8.810  13.651  4.5288  0.5795  4.1527
  800MOL0     H 5566   7.824   9.058  13.919 -0.2694 -0.2429  1.3936
  800MOL0     H 5567   7.968   9.032  14.005  0.0420 -0.6047  1.4700
  800MOL0     H 5568   7.898   8.796  14.027  2.0811  1.5678 -0.4109
  800MOL0     H 5569   7.745   8.830  13.943  0.7712 -0.3093  0.1144
  800MOL0     H 5570   7.696   9.017  14.098  5.6734  3.8926 -0.2835
  800MOL0     H 5571   7.821   8.969  14.205 -0.7480  5.4610 -0.7993
  800MOL0     H 5572   7.569   8.828  14.129 -1.2681 -2.3008  1.6596
  800MOL0     H 5573   7.702   8.735  14.213  0.6921  0.4424 -0.4862
  800MOL0     H 5574   7.560   8.985  14.300 -1.7017 -1.8514 -3.2390
  800MOL0     H 5575   7.707   8.924  14.381  0.2526 -0.1097  1.5374
  800MOL0     H 5576   7.602   8.723  14.456 -0.2119 -0.2371  0.4919
  800MOL0     H 5577   7.470   8.733  14.342 -1.6001  0.8384 -0.8507
  800MOL0     H 5578   7.504   8.950  14.568 -1.0906 -0.9227  2.4521
  800MOL0     H 5579   7.374   8.929  14.445  1.6392  0.5148 -1.9016
  800MOL0     H 5580   7.308   8.720  14.539  0.6317 -1.4421  0.1318
  800MOL0     H 5581   7.295   8.846  14.666 -0.1036  1.3332 -1.2773
  800MOL0     H 5582   8.018   9.187  13.815 -4.0211 -1.4474 -0.9630
  800MOL0     H 5583   8.133   9.305  13.627 -0.9492 -0.5543 -2.6251
  800MOL0     H 5584   8.451   9.177  13.286  0.6127  0.5984 -0.9887
  800MOL0     H 5585   8.604   9.273  13.122  0.2328  2.9010 -0.3558
  800MOL0     H 5586   9.156   9.883  11.525 -0.7063 -1.4629 -0.3144
  800MOL0     H 5587   9.360   9.849  11.404  1.3023  1.8922  0.1649
  800MOL0     H 5588   9.661   9.953  11.204 -2.1261  1.6343 -1.4693
  800MOL0     H 5589   9.895   9.921  11.144 -0.9298  0.9624  1.8773
  800MOL0     H 5590  10.163   9.874  10.995  0.4119 -1.0146 -0.9663
  800MOL0     H 5591  10.079  10.021  11.025  2.8664 -0.5204  1.6704
  800MOL0     H 5592  10.196   9.939  10.745 -1.4634  3.1842 -3.5842
  800MOL0     H 5593  10.110  10.089  10.776 -1.0080 -0.3764  0.0351
  800MOL0     H 5594  10.335  10.012  10.973  5.2205  2.0829 -0.0017
  800MOL0     H 5595  10.294  10.170  10.910 -3.1639 -0.4638  0.1051
  800MOL0     H 5596  10.393  10.105  10.693 -0.7905  1.0138  0.6994
  800MOL0     H 5597  10.507  10.113  10.833 -1.0508 -1.5849  3.5410
  800MOL0     H 5598  10.477   9.692  10.793  0.3325 -0.2894 -0.1295
  800MOL0     H 5599   9.787   9.828  10.737 -2.3585 -0.8364  0.5529
  800MOL0     H 5600   9.551   9.838  10.791 -0.7195  2.0309  0.9241
  801MOL0     O 5601   6.566   7.978   4.826  0.2786 -0.5800 -0.4884
  801MOL0     C 5602   6.609   7.865   4.792  0.2906 -0.2788  1.0204
  801MOL0     O 5603   6.536   7.754   4.775  0.3679 -0.0797  0.1408
  801MOL0     C 5604   6.401   7.755   4.795  0.3109  0.7131  0.2953
  801MOL0     C 5605   6.346   7.637   4.763  0.0300 -0.7462  0.4144
  801MOL0     C 5606   6.203   7.615   4.777  0.1482 -0.0525 -0.0297
  801MOL0     C 5607   6.124   7.710   4.843 -0.6105 -0.2195  0.5008
  801MOL0     O 5608   5.993   7.703   4.873  0.6464  0.6389 -0.0502
  801MOL0     C 5609   5.898   7.726   4.763  0.2381 -1.4666 -0.4871
  801MOL0     C 5610   5.905   7.624   4.647  0.6920 -0.2779 -0.5653
  801MOL0     C 5611   5.774   7.639   4.551  0.2570 -0.0509 -0.3710
  801MOL0     C 5612   5.762   7.540   4.439 -0.0574 -0.0492 -0.6517
  801MOL0     C 5613   5.673   7.578   4.326  0.9385  0.3589  0.1152
  801MOL0     C 5614   5.530   7.591   4.365 -0.5220  0.9464  0.5281
  801MOL0     C 5615   5.453   7.706   4.304 -0.0897  0.1278 -0.4481
  801MOL0     C 5616   5.476   7.842   4.380 -0.8451 -0.2231  0.0164
  801MOL0     N 5617   5.401   7.849   4.508 -0.2645  0.3250 -0.4042
  801MOL0     C 5618   5.460   7.849   4.624  0.1344 -0.3452  0.6382
  801MOL0     C 5619   5.357   7.869   4.708 -0.9847  0.1264  0.2028
  801MOL0     C 5620   5.385   7.875   4.855 -0.6290  0.1070  0.7276
  801MOL0     C 5621   5.274   7.930   4.932  0.1803 -0.7252 -0.2578
  801MOL0     C 5622   5.238   8.076   4.907  0.6707  0.3503 -0.5263
  801MOL0     C 5623   5.105   8.108   4.986 -0.0055  0.5610  0.6596
  801MOL0     O 5624   5.075   8.248   4.945  1.0381  0.0644  0.8907
  801MOL0     C 5625   4.968   8.313   5.012  1.4693 -0.1947  0.4965
  801MOL0     C 5626   4.947   8.446   4.988 -0.1487 -0.1100 -0.1033
  801MOL0     C 5627   4.844   8.520   5.046  0.5278  0.1751 -0.1801
  801MOL0     C 5628   4.751   8.456   5.126 -0.0434 -0.4292  0.1702
  801MOL0     C 5629   4.624   8.526   5.172 -0.0396 -0.0291 -0.3059
  801MOL0     O 5630   4.525   8.448   5.194  0.3941 -0.0227 -0.1198
  801MOL0     C 5631   4.433   8.495   5.278  0.6185 -0.0708 -0.2855
  801MOL0     C 5632   4.302   8.463   5.254  0.0910  0.2176  0.9149
  801MOL0     C 5633   4.205   8.506   5.340  1.1186  0.6921  0.6293
  801MOL0     C 5634   4.237   8.580   5.449  0.0951  0.0549 -0.7822
  801MOL0     O 5635   4.145   8.605   5.541  0.4850  0.0283  0.6103
  801MOL0     C 5636   4.128   8.731   5.595 -0.7900 -0.7253 -1.2013
  801MOL0     C 5637   3.988   8.742   5.640  0.7240 -0.7583 -0.5475
  801MOL0     C 5638   3.966   8.896   5.672 -0.4619  0.3291  0.1913
  801MOL0     C 5639   3.815   8.931   5.698 -0.1191  0.5903  0.4452
  801MOL0     C 5640   3.790   9.080   5.730 -0.8647 -0.2191  0.1720
  801MOL0     C 5641   3.636   9.115   5.747 -0.0336 -0.8187  0.0075
  801MOL0     C 5642   3.567   9.138   5.620  0.0208  0.1462  0.3690
  801MOL0     C 5643   3.444   9.228   5.625 -0.2930  1.1144  0.1307
  801MOL0    Cl 5644   3.404   9.268   5.448  0.4033  0.1387  0.4595
  801MOL0     C 5645   4.366   8.602   5.482 -0.0008 -0.2461 -0.3945
  801MOL0     C 5646   4.471   8.571   5.394  0.4097 -0.1471  0.2008
  801MOL0     O 5647   4.622   8.651   5.161 -0.1009 -0.1319 -0.2196
  801MOL0     C 5648   4.772   8.327   5.143  0.1586  0.1477  0.3596
  801MOL0     C 5649   4.875   8.248   5.089 -1.6140 -0.5241 -0.3661
  801MOL0     N 5650   5.238   7.879   4.639 -0.0925  0.0522 -0.0454
  801MOL0     N 5651   5.265   7.861   4.515 -0.6269 -0.0905  0.6323
  801MOL0     C 5652   6.189   7.821   4.901 -0.5127 -0.0386  0.1113
  801MOL0     C 5653   6.321   7.845   4.864  0.6665 -1.2573  0.6997
  801MOL0     C 5654   6.762   7.863   4.770  0.4928 -0.5433 -0.5239
  801MOL0     C 5655   6.838   7.980   4.788  0.1732 -0.0248 -0.1584
  801MOL0     C 5656   6.978   7.977   4.774 -0.0791 -0.0333 -0.0290
  801MOL0     C 5657   7.042   7.858   4.747  0.8165 -0.9793  0.1423
  801MOL0     O 5658   7.175   7.859   4.741  0.1451 -0.2462  0.7301
  801MOL0     C 5659   7.226   7.823   4.607  0.1997 -0.1549 -0.4845
  801MOL0     C 5660   7.289   7.947   4.555  0.1455  0.1712 -0.4751
  801MOL0     C 5661   7.378   7.915   4.445 -0.5378  1.1590 -0.6340
  801MOL0     C 5662   7.445   8.034   4.383 -0.7459 -0.3580 -0.4751
  801MOL0     C 5663   7.538   7.988   4.277 -1.1457  0.0740  0.4190
  801MOL0     C 5664   7.620   7.949   4.192  0.5476 -0.4836  0.5037
  801MOL0     C 5665   6.972   7.742   4.751  0.8148  0.4866  0.5980
  801MOL0     C 5666   6.829   7.743   4.755  0.3710  0.0764 -0.3030
  801MOL0     H 5667   6.405   7.556   4.723  1.1792 -0.7135  1.9622
  801MOL0     H 5668   6.145   7.527   4.753 -0.9093 -0.2477  2.9186
  801MOL0     H 5669   5.923   7.820   4.714 -1.2872 -1.5869 -1.5598
  801MOL0     H 5670   5.797   7.741   4.801  1.6586 -1.1382  3.6863
  801MOL0     H 5671   5.889   7.522   4.683 -2.9688 -0.1907 -1.4871
  801MOL0     H 5672   5.999   7.638   4.593  0.4910  1.3704 -0.5346
  801MOL0     H 5673   5.786   7.742   4.515 -0.1445  0.8225  1.8447
  801MOL0     H 5674   5.687   7.629   4.615  0.9601 -3.2506  0.2688
  801MOL0     H 5675   5.859   7.532   4.388 -0.2081  1.4167 -1.2424
  801MOL0     H 5676   5.719   7.443   4.464  0.2665 -0.2190 -0.7398
  801MOL0     H 5677   5.675   7.507   4.242 -1.8195  1.1238 -0.7107
  801MOL0     H 5678   5.715   7.669   4.283  1.4067 -0.1658 -0.5718
  801MOL0     H 5679   5.528   7.620   4.471  1.3079 -1.4748  1.3066
  801MOL0     H 5680   5.474   7.498   4.354  0.7287  0.4298 -2.5393
  801MOL0     H 5681   5.488   7.720   4.202  0.8390 -1.9950 -0.4694
  801MOL0     H 5682   5.347   7.679   4.293 -0.0017  0.3940 -2.2518
  801MOL0     H 5683   5.445   7.928   4.320 -0.7938  1.1385  1.8595
  801MOL0     H 5684   5.583   7.863   4.390 -0.7517  1.2333 -2.9385
  801MOL0     H 5685   5.566   7.836   4.646  0.5234  2.9816  1.3067
  801MOL0     H 5686   5.481   7.917   4.888 -0.4115 -1.9067  2.9142
  801MOL0     H 5687   5.397   7.771   4.886 -0.0564 -0.1453 -0.2670
  801MOL0     H 5688   5.294   7.928   5.040  2.5519  2.9397 -0.4850
  801MOL0     H 5689   5.179   7.882   4.904 -0.3193 -1.9523  3.0034
  801MOL0     H 5690   5.320   8.140   4.941 -0.1768  1.1231  0.1248
  801MOL0     H 5691   5.214   8.089   4.801  1.9612 -0.0430 -0.8845
  801MOL0     H 5692   5.106   8.091   5.094  4.6527 -2.4543  0.4461
  801MOL0     H 5693   5.027   8.051   4.935 -0.9245  2.6491 -0.3740
  801MOL0     H 5694   5.008   8.492   4.911 -1.3033  0.5123 -0.6789
  801MOL0     H 5695   4.828   8.624   5.020  2.1656  0.4292 -0.2914
  801MOL0     H 5696   4.267   8.406   5.169 -1.8701  0.9485  1.1853
  801MOL0     H 5697   4.102   8.470   5.332  2.1743 -2.2281 -2.1961
  801MOL0     H 5698   4.144   8.797   5.509 -2.8978 -0.4972 -1.4653
  801MOL0     H 5699   4.189   8.758   5.682 -3.9573 -0.8934  1.2665
  801MOL0     H 5700   3.971   8.685   5.731 -1.3757  1.3114  0.4501
  801MOL0     H 5701   3.918   8.700   5.567  0.8611  0.3924 -1.3855
  801MOL0     H 5702   4.001   8.949   5.583 -0.3725 -1.3315 -0.8155
  801MOL0     H 5703   4.030   8.920   5.757 -2.5802 -1.2297  2.3327
  801MOL0     H 5704   3.766   8.890   5.610  1.2891 -1.6664  0.6342
  801MOL0     H 5705   3.773   8.879   5.786 -2.3268 -0.2696 -1.0131
  801MOL0     H 5706   3.842   9.134   5.651  1.6484  2.8519  3.5949
  801MOL0     H 5707   3.850   9.102   5.819  4.1189 -4.1511 -1.7429
  801MOL0     H 5708   3.649   9.219   5.778  1.5254 -0.0251 -2.9074
  801MOL0     H 5709   3.585   9.043   5.810  1.9460 -2.8369 -0.5709
  801MOL0     H 5710   3.640   9.163   5.543  0.9206  1.3347  1.5660
  801MOL0     H 5711   3.522   9.043   5.589  0.1521 -0.2785  1.4553
  801MOL0     H 5712   3.467   9.319   5.681  1.3245 -0.6109  2.3986
  801MOL0     H 5713   3.363   9.172   5.672  1.2039 -0.5124  0.8421
  801MOL0     H 5714   4.394   8.656   5.572 -2.5583  0.6597 -0.0630
  801MOL0     H 5715   4.571   8.605   5.420  0.4734 -1.4913  1.8713
  801MOL0     H 5716   4.698   8.279   5.206 -1.3884  1.5629 -0.2877
  801MOL0     H 5717   4.888   8.146   5.121 -1.6448 -0.0039  1.4628
  801MOL0     H 5718   6.122   7.897   4.939 -0.0534 -0.4363  1.8089
  801MOL0     H 5719   6.356   7.935   4.914  0.3975  0.8331 -2.5940
  801MOL0     H 5720   6.804   8.084   4.793  3.0929  1.2048 -2.6617
  801MOL0     H 5721   7.038   8.068   4.774  2.5267 -1.6636 -0.3923
  801MOL0     H 5722   7.151   7.779   4.540 -1.4457 -3.0687  2.9171
  801MOL0     H 5723   7.296   7.740   4.621 -0.3437 -0.3526  1.3190
  801MOL0     H 5724   7.206   8.005   4.513 -0.3321  0.4105  0.7710
  801MOL0     H 5725   7.333   8.007   4.635  0.9027  2.0986 -2.2377
  801MOL0     H 5726   7.315   7.857   4.376 -3.1538 -1.4969  3.5443
  801MOL0     H 5727   7.456   7.845   4.479  1.1736  2.9236 -0.7727
  801MOL0     H 5728   7.375   8.095   4.325  0.6648 -0.2051 -2.1117
  801MOL0     H 5729   7.494   8.093   4.461 -2.2328 -0.9774  0.9804
  801MOL0     H 5730   7.688   7.922   4.114 -1.0643 -1.7445 -0.5383
  801MOL0     H 5731   7.027   7.651   4.729  2.4188  1.3262  1.0500
  801MOL0     H 5732   6.769   7.654   4.741  1.6429 -0.7615 -0.5491
  802MOL0     O 5733   9.883   4.358   1.519  0.2277  0.2879 -0.3675
  802MOL0     C 5734   9.918   4.460   1.472  0.7985 -1.0151 -0.3339
  802MOL0     O 5735   9.876   4.501   1.348  0.6260 -0.9247 -0.2808
  802MOL0     C 5736   9.738   4.499   1.331 -0.1078  0.3588  0.4348
  802MOL0     C 5737   9.653   4.602   1.364  0.0242 -0.6970  0.4324
  802MOL0     C 5738   9.512   4.593   1.340 -0.1102 -0.9640 -0.2368
  802MOL0     C 5739   9.453   4.472   1.304 -0.1581 -0.2070 -0.4167
  802MOL0     O 5740   9.316   4.465   1.291  0.4788  0.3273  0.3547
  802MOL0     C 5741   9.260   4.336   1.251 -0.7099 -0.5895 -0.1138
  802MOL0     C 5742   9.113   4.365   1.210 -0.2220 -0.3561  0.3413
  802MOL0     C 5743   9.046   4.252   1.138 -0.2516 -0.4161 -0.7410
  802MOL0     C 5744   8.897   4.267   1.137  0.3697 -0.3892  0.8743
  802MOL0     C 5745   8.834   4.133   1.089  0.6465 -0.2068  0.0981
  802MOL0     C 5746   8.685   4.148   1.053 -0.9258  0.4628  0.1650
  802MOL0     C 5747   8.628   4.028   0.986 -1.9001  0.1417  0.3072
  802MOL0     C 5748   8.611   3.899   1.075  1.6460  0.1704 -0.1792
  802MOL0     N 5749   8.492   3.819   1.024 -0.4574  0.0666 -0.2022
  802MOL0     C 5750   8.365   3.872   1.024 -0.8869  0.0079  1.1240
  802MOL0     C 5751   8.295   3.768   0.978 -0.6232 -0.0786  0.1380
  802MOL0     C 5752   8.143   3.772   0.937 -0.6913  0.2118  0.1726
  802MOL0     C 5753   8.064   3.710   1.041  0.0227  0.1824 -0.5364
  802MOL0     C 5754   8.056   3.555   1.042 -0.5006 -0.6066 -0.1417
  802MOL0     C 5755   8.027   3.495   0.902  0.3579 -0.4123  0.4723
  802MOL0     O 5756   8.005   3.349   0.903  0.9853  0.0136  0.4150
  802MOL0     C 5757   7.875   3.306   0.910 -0.2756 -0.1561  0.1036
  802MOL0     C 5758   7.859   3.176   0.878  0.3437 -0.3435  0.0387
  802MOL0     C 5759   7.736   3.117   0.875  0.8491  0.6296  0.1277
  802MOL0     C 5760   7.613   3.182   0.900 -0.3580  0.3047 -0.0788
  802MOL0     C 5761   7.475   3.125   0.887 -0.6129  0.0617 -0.3916
  802MOL0     O 5762   7.385   3.174   0.977 -0.3667  0.1139  0.2226
  802MOL0     C 5763   7.260   3.208   0.945  0.1445  0.9904  0.6457
  802MOL0     C 5764   7.180   3.182   1.055  0.5001  0.0218 -1.1130
  802MOL0     C 5765   7.047   3.179   1.045 -0.1796  0.3731 -0.4752
  802MOL0     C 5766   6.992   3.198   0.916 -0.9326 -0.6738 -0.1398
  802MOL0     O 5767   6.863   3.181   0.888  0.1134  1.1113  0.5379
  802MOL0     C 5768   6.825   3.053   0.926  0.5821 -1.7518 -0.4943
  802MOL0     C 5769   6.672   3.015   0.893  0.0972  0.3794 -0.2584
  802MOL0     C 5770   6.660   2.955   0.758  0.1987  0.0197  0.1874
  802MOL0     C 5771   6.513   2.929   0.726 -0.0738 -0.0034 -0.4694
  802MOL0     C 5772   6.499   2.851   0.602 -0.4370  0.7461  0.0740
  802MOL0     C 5773   6.354   2.881   0.561 -0.4283  0.1920  0.7115
  802MOL0     C 5774   6.316   2.784   0.447 -0.0125  0.3844  0.6824
  802MOL0     C 5775   6.176   2.838   0.389  0.7650 -0.6252  0.2845
  802MOL0    Cl 5776   6.134   2.741   0.236  0.3272  0.1288 -0.7256
  802MOL0     C 5777   7.072   3.226   0.809  0.4198  0.4799  1.3854
  802MOL0     C 5778   7.203   3.225   0.823  0.7004 -0.9405  0.4819
  802MOL0     O 5779   7.444   3.049   0.795  0.1888 -1.2595  0.2701
  802MOL0     C 5780   7.629   3.325   0.936 -0.2886 -0.1366  0.1600
  802MOL0     C 5781   7.755   3.383   0.935 -0.5378  0.8106 -0.4578
  802MOL0     N 5782   8.376   3.655   0.951 -1.5421 -0.2729 -0.0324
  802MOL0     N 5783   8.498   3.688   0.970 -0.0616  0.1808 -1.0735
  802MOL0     C 5784   9.543   4.364   1.288  0.2084  0.8942 -0.4953
  802MOL0     C 5785   9.679   4.375   1.297 -0.0357 -0.9554 -0.3049
  802MOL0     C 5786   9.997   4.560   1.551  0.2519  0.3629 -0.1053
  802MOL0     C 5787  10.010   4.552   1.691  0.2549  0.5341 -0.7336
  802MOL0     C 5788  10.088   4.635   1.767  0.2881  0.1641  0.0231
  802MOL0     C 5789  10.161   4.746   1.707  0.1282  0.2602 -0.1909
  802MOL0     O 5790  10.254   4.801   1.793 -0.5807 -0.0279  0.4897
  802MOL0     C 5791  10.377   4.836   1.741 -0.2683  0.1776  0.7409
  802MOL0     C 5792  10.464   4.733   1.673 -0.1387 -0.3680 -0.0213
  802MOL0     C 5793  10.483   4.608   1.754  1.1004  0.3317 -0.7016
  802MOL0     C 5794  10.552   4.501   1.673  0.2433  0.9215 -0.8257
  802MOL0     C 5795  10.682   4.534   1.628  0.2173 -0.7375 -0.1931
  802MOL0     C 5796  10.797   4.564   1.597 -0.1923  0.0521  0.6594
  802MOL0     C 5797  10.129   4.765   1.574  0.2878 -1.0324 -1.0178
  802MOL0     C 5798  10.050   4.675   1.491 -0.3321 -0.7735  0.2167
  802MOL0     H 5799   9.685   4.700   1.398 -0.9230  0.0050 -0.6284
  802MOL0     H 5800   9.459   4.686   1.361 -1.2152 -0.8902 -2.8592
  802MOL0     H 5801   9.280   4.267   1.334  1.1103 -1.4789 -1.2297
  802MOL0     H 5802   9.318   4.297   1.167 -0.2353  1.0105 -0.5556
  802MOL0     H 5803   9.096   4.454   1.150  0.5033  0.3830  1.2009
  802MOL0     H 5804   9.068   4.375   1.310  2.0237  0.5759  1.3252
  802MOL0     H 5805   9.076   4.157   1.182 -0.5473  0.5461  1.6747
  802MOL0     H 5806   9.086   4.250   1.036 -0.8771 -1.9380 -0.9826
  802MOL0     H 5807   8.855   4.291   1.235  0.1461  0.6879  0.5244
  802MOL0     H 5808   8.874   4.353   1.073 -0.8188 -0.4732  1.1700
  802MOL0     H 5809   8.861   4.060   1.166  0.3905 -0.4061 -0.0002
  802MOL0     H 5810   8.889   4.098   1.000  2.7024  0.8789  0.8656
  802MOL0     H 5811   8.680   4.229   0.980  3.1141  0.2714 -0.5435
  802MOL0     H 5812   8.630   4.173   1.144 -1.0334 -1.6342  0.7312
  802MOL0     H 5813   8.532   4.062   0.946 -0.7161  0.6352 -2.3999
  802MOL0     H 5814   8.699   4.007   0.905  0.7375 -0.8755  2.7282
  802MOL0     H 5815   8.600   3.928   1.180 -1.5341 -1.6731  0.1242
  802MOL0     H 5816   8.704   3.842   1.065  3.7283  3.1063  1.1349
  802MOL0     H 5817   8.344   3.978   1.034  0.1604  0.4302 -0.6267
  802MOL0     H 5818   8.132   3.726   0.839 -4.2350  1.5717 -0.2098
  802MOL0     H 5819   8.111   3.876   0.926  0.9816  0.9515  1.6290
  802MOL0     H 5820   7.957   3.734   1.036  0.0886  0.2690 -3.3528
  802MOL0     H 5821   8.105   3.752   1.133  0.9054 -2.0744  0.1544
  802MOL0     H 5822   8.148   3.513   1.083 -0.6042  1.6493  2.6974
  802MOL0     H 5823   7.974   3.533   1.110 -2.3925  0.4149 -1.9615
  802MOL0     H 5824   8.112   3.520   0.838  0.9734 -1.9885  0.6457
  802MOL0     H 5825   7.948   3.552   0.852  0.7338 -1.4390 -1.3983
  802MOL0     H 5826   7.942   3.111   0.851  2.2440  1.7962  0.5119
  802MOL0     H 5827   7.741   3.014   0.843  1.4817  1.1241 -1.4975
  802MOL0     H 5828   7.220   3.155   1.152 -3.0301 -1.5003  0.1128
  802MOL0     H 5829   6.983   3.153   1.128 -0.1134 -0.0901 -0.5641
  802MOL0     H 5830   6.843   3.023   1.030  2.9282 -1.8787 -0.8823
  802MOL0     H 5831   6.879   2.982   0.862 -0.2453 -1.1754 -1.8784
  802MOL0     H 5832   6.604   3.099   0.912  1.1911  0.9941  1.1497
  802MOL0     H 5833   6.637   2.931   0.953  1.8021 -2.7723 -3.3052
  802MOL0     H 5834   6.722   2.865   0.751  2.4771  1.6404 -2.0013
  802MOL0     H 5835   6.700   3.021   0.681  3.5901  0.3119  1.9920
  802MOL0     H 5836   6.474   2.856   0.797 -1.4278  0.6130 -0.5542
  802MOL0     H 5837   6.461   3.024   0.741  1.7632  0.7577  1.9324
  802MOL0     H 5838   6.532   2.748   0.619 -1.8818  0.3355  0.4948
  802MOL0     H 5839   6.573   2.889   0.531  0.2178 -0.4351  0.0953
  802MOL0     H 5840   6.356   2.985   0.526  0.7098  0.1062  0.4924
  802MOL0     H 5841   6.275   2.863   0.636 -1.0180  1.6696  0.4844
  802MOL0     H 5842   6.383   2.792   0.361 -0.4286  3.0126  0.5357
  802MOL0     H 5843   6.305   2.679   0.475 -3.5643  0.4410 -0.0243
  802MOL0     H 5844   6.170   2.944   0.366 -0.2862 -0.7332  0.0244
  802MOL0     H 5845   6.097   2.817   0.461 -1.3569  0.0239 -1.7520
  802MOL0     H 5846   7.021   3.244   0.715 -0.4999  0.3060  1.8339
  802MOL0     H 5847   7.259   3.236   0.731 -2.2379 -0.4296 -1.3546
  802MOL0     H 5848   7.537   3.382   0.949 -0.9036 -0.3996 -2.3712
  802MOL0     H 5849   7.750   3.490   0.952 -3.2087  1.2270 -2.9045
  802MOL0     H 5850   9.510   4.267   1.254  0.3630  0.5141  0.4168
  802MOL0     H 5851   9.733   4.283   1.281  0.5100 -1.1120  2.0245
  802MOL0     H 5852   9.969   4.460   1.733 -0.1743 -0.2541 -2.7699
  802MOL0     H 5853  10.114   4.607   1.868  0.4281  2.5174  0.6822
  802MOL0     H 5854  10.422   4.874   1.833 -1.3407 -1.6036  2.0480
  802MOL0     H 5855  10.373   4.920   1.671 -0.1282 -0.4534 -0.0432
  802MOL0     H 5856  10.421   4.707   1.576  0.2778 -1.3545  0.0420
  802MOL0     H 5857  10.558   4.786   1.657  0.7142 -1.0019  2.4129
  802MOL0     H 5858  10.385   4.564   1.777  1.8436 -1.2964 -0.5309
  802MOL0     H 5859  10.530   4.637   1.849 -1.0923  1.0260  0.2468
  802MOL0     H 5860  10.556   4.411   1.735 -3.7105  1.8390  1.0403
  802MOL0     H 5861  10.495   4.476   1.584  2.8096 -1.6067 -1.9211
  802MOL0     H 5862  10.897   4.563   1.558  0.7618 -3.7478  2.7106
  802MOL0     H 5863  10.182   4.848   1.529  1.9743 -2.2289 -1.3494
  802MOL0     H 5864  10.034   4.692   1.385  0.4684  0.0780  0.2173
  803MOL0     O 5865   8.348   1.547   9.238  0.2775  0.4559 -0.5661
  803MOL0     C 5866   8.378   1.432   9.279  0.6424  0.0988  0.2982
  803MOL0     O 5867   8.305   1.356   9.366  0.5289 -0.0604  0.2028
  803MOL0     C 5868   8.181   1.397   9.415  0.1521  0.3628  1.2923
  803MOL0     C 5869   8.156   1.353   9.547 -0.7448  0.2403 -0.2213
  803MOL0     C 5870   8.047   1.403   9.613  0.1424 -0.7870  0.1530
  803MOL0     C 5871   7.953   1.482   9.545 -0.6664 -0.1066 -0.6458
  803MOL0     O 5872   7.848   1.545   9.613 -0.7586 -0.2410  0.0362
  803MOL0     C 5873   7.829   1.530   9.755 -0.4023  0.4416 -1.1716
  803MOL0     C 5874   7.696   1.599   9.785  1.2260  0.3618  0.0611
  803MOL0     C 5875   7.571   1.539   9.722  0.7003  0.1719  0.2921
  803MOL0     C 5876   7.431   1.587   9.760 -1.1355 -0.7813  0.2522
  803MOL0     C 5877   7.326   1.518   9.666  0.2597  0.3758  0.2217
  803MOL0     C 5878   7.184   1.514   9.716  0.5390  0.7080 -0.0135
  803MOL0     C 5879   7.116   1.661   9.716 -0.2558  0.8675 -0.0787
  803MOL0     C 5880   6.994   1.675   9.802 -0.8139 -0.0497  0.3029
  803MOL0     N 5881   7.014   1.635   9.941 -0.8352  0.7627 -0.7787
  803MOL0     C 5882   6.969   1.508   9.983  0.5439 -0.4141 -0.6421
  803MOL0     C 5883   6.999   1.502  10.114 -0.0799  0.1856  0.7142
  803MOL0     C 5884   6.995   1.384  10.209 -0.4884  0.4500 -0.5780
  803MOL0     C 5885   7.138   1.318  10.211  0.1865  0.0952 -0.0140
  803MOL0     C 5886   7.147   1.237  10.339 -0.1907  0.0190 -0.2121
  803MOL0     C 5887   7.284   1.179  10.349 -0.5181  0.2283  1.0734
  803MOL0     O 5888   7.293   1.087  10.244 -0.4318 -0.1816 -0.4166
  803MOL0     C 5889   7.421   1.038  10.222 -0.1995 -0.3785  0.4351
  803MOL0     C 5890   7.530   1.056  10.313  0.0137 -0.8914  0.0261
  803MOL0     C 5891   7.648   0.981  10.302 -0.0515  0.1209 -0.7406
  803MOL0     C 5892   7.669   0.910  10.181 -0.2604  1.2337 -0.0101
  803MOL0     C 5893   7.796   0.852  10.141 -0.1694 -0.1641 -0.2557
  803MOL0     O 5894   7.777   0.749  10.056  1.3255 -0.5200  0.3439
  803MOL0     C 5895   7.877   0.682   9.988  0.5233 -0.9554  0.6454
  803MOL0     C 5896   7.841   0.557   9.936 -0.2322 -0.2807  0.4686
  803MOL0     C 5897   7.928   0.483   9.853 -0.5836 -0.2623 -0.2950
  803MOL0     C 5898   8.066   0.520   9.831  0.0165  0.4369 -0.2959
  803MOL0     O 5899   8.168   0.463   9.759 -0.6430  0.3225 -0.3893
  803MOL0     C 5900   8.127   0.321   9.722 -0.1829 -0.4474 -0.2918
  803MOL0     C 5901   8.241   0.259   9.632  0.1752 -0.0130 -1.1607
  803MOL0     C 5902   8.252   0.314   9.497  0.7398 -0.3139  0.7893
  803MOL0     C 5903   8.358   0.233   9.413  0.0641 -0.2779  0.0388
  803MOL0     C 5904   8.367   0.273   9.262  0.2467  0.0567 -0.0768
  803MOL0     C 5905   8.473   0.178   9.203 -0.5057  0.9609 -0.0648
  803MOL0     C 5906   8.535   0.216   9.065 -0.0330 -0.0042 -0.8663
  803MOL0     C 5907   8.600   0.087   8.996  0.0570 -0.3387 -0.9104
  803MOL0    Cl 5908   8.683   0.118   8.848 -0.1394  0.1357  0.4576
  803MOL0     C 5909   8.098   0.638   9.889  0.3590 -0.0062  0.7218
  803MOL0     C 5910   8.006   0.720   9.964  0.5834  0.3330 -0.1414
  803MOL0     O 5911   7.902   0.884  10.198  0.5038 -0.1930  0.7562
  803MOL0     C 5912   7.561   0.887  10.098  0.1685  0.0454 -0.0782
  803MOL0     C 5913   7.443   0.953  10.113  0.7713  0.8855  0.3939
  803MOL0     N 5914   7.049   1.628  10.147 -0.4247 -0.5590  0.4830
  803MOL0     N 5915   7.061   1.709  10.045  0.0847  0.4351 -0.1278
  803MOL0     C 5916   7.968   1.500   9.409 -0.3189 -0.2124 -0.5523
  803MOL0     C 5917   8.082   1.464   9.345  1.1244 -1.6443  0.1427
  803MOL0     C 5918   8.500   1.369   9.218 -0.6749  0.2312 -0.3581
  803MOL0     C 5919   8.573   1.261   9.278  0.3090  0.6914  0.8631
  803MOL0     C 5920   8.680   1.202   9.217 -0.7618  0.1331  0.1813
  803MOL0     C 5921   8.705   1.232   9.079 -0.2792  1.1597 -0.1388
  803MOL0     O 5922   8.801   1.162   9.011 -0.3309 -0.6545  0.0503
  803MOL0     C 5923   8.881   1.054   9.066 -0.1941  0.0924  0.8312
  803MOL0     C 5924   8.990   1.028   8.973 -1.4040 -0.7524 -0.3671
  803MOL0     C 5925   8.966   0.905   8.879 -0.3211  0.0568  0.1049
  803MOL0     C 5926   9.082   0.876   8.792 -0.8614  0.0689  0.6701
  803MOL0     C 5927   9.052   0.759   8.705  0.7892  0.4929 -0.0170
  803MOL0     C 5928   9.040   0.658   8.642 -0.4856  0.2202 -1.0557
  803MOL0     C 5929   8.636   1.333   9.019  0.0077 -0.0097  0.0218
  803MOL0     C 5930   8.532   1.405   9.083  0.1141 -0.1810 -0.8714
  803MOL0     H 5931   8.225   1.287   9.598  1.4673 -0.2966 -3.5643
  803MOL0     H 5932   8.060   1.393   9.720  1.9618  0.0849  0.0585
  803MOL0     H 5933   7.913   1.577   9.806 -1.7672  0.2964  1.3542
  803MOL0     H 5934   7.825   1.426   9.788 -1.5313  1.4351  2.2207
  803MOL0     H 5935   7.693   1.704   9.754 -1.6720 -0.2360 -2.0484
  803MOL0     H 5936   7.690   1.598   9.894 -2.3771  2.5620  0.0220
  803MOL0     H 5937   7.575   1.430   9.726 -2.5199 -0.1518 -1.9979
  803MOL0     H 5938   7.578   1.568   9.617 -1.9852 -1.8047 -0.5244
  803MOL0     H 5939   7.420   1.569   9.867  0.6340 -0.0600  0.6030
  803MOL0     H 5940   7.418   1.695   9.752 -1.2028 -0.7260  1.0460
  803MOL0     H 5941   7.374   1.420   9.659 -1.0608 -0.1939 -3.4618
  803MOL0     H 5942   7.330   1.551   9.561  0.1797  1.9013  0.6697
  803MOL0     H 5943   7.189   1.478   9.819 -0.2976 -1.4779 -0.6812
  803MOL0     H 5944   7.126   1.442   9.657  0.4655 -0.3417  1.2820
  803MOL0     H 5945   7.188   1.730   9.761  0.5269 -1.2358  2.0887
  803MOL0     H 5946   7.118   1.699   9.613  1.8508 -2.7817 -1.5899
  803MOL0     H 5947   6.914   1.621   9.751 -1.3532 -1.0228  2.0823
  803MOL0     H 5948   6.942   1.770   9.788  0.2328  0.5081  0.1139
  803MOL0     H 5949   6.922   1.431   9.923  0.7543 -1.2726  0.2858
  803MOL0     H 5950   6.915   1.320  10.171 -1.6299  3.2511 -3.3727
  803MOL0     H 5951   6.967   1.429  10.305  1.1351  3.7778 -1.4891
  803MOL0     H 5952   7.221   1.389  10.212 -0.3902  0.8128  2.0281
  803MOL0     H 5953   7.150   1.247  10.129  0.4322  2.0598 -1.7600
  803MOL0     H 5954   7.126   1.301  10.425  2.6443  0.9872 -0.1486
  803MOL0     H 5955   7.082   1.149  10.332 -1.8596  1.0813  0.9756
  803MOL0     H 5956   7.287   1.112  10.435  0.7577 -2.1758 -0.7192
  803MOL0     H 5957   7.364   1.253  10.356  0.1449 -0.6163  4.7109
  803MOL0     H 5958   7.525   1.132  10.391  4.5223 -0.5866  0.3113
  803MOL0     H 5959   7.725   0.999  10.377 -2.3894  0.8688  1.6242
  803MOL0     H 5960   7.738   0.527   9.952 -0.5429 -0.7383 -2.0001
  803MOL0     H 5961   7.899   0.389   9.807  0.8336  0.1018 -2.0362
  803MOL0     H 5962   8.032   0.314   9.668 -1.1773 -1.9729  1.5332
  803MOL0     H 5963   8.126   0.254   9.808  0.8502 -0.3674 -0.2014
  803MOL0     H 5964   8.243   0.150   9.626  3.8164 -0.2109  0.6613
  803MOL0     H 5965   8.335   0.291   9.678 -0.8570  2.2792 -0.5141
  803MOL0     H 5966   8.288   0.417   9.486  0.0683 -0.1377  0.1692
  803MOL0     H 5967   8.157   0.300   9.445  2.4393 -2.5195 -2.0948
  803MOL0     H 5968   8.458   0.255   9.453  0.8372 -0.8984 -1.4869
  803MOL0     H 5969   8.328   0.129   9.427  1.5744 -0.3155  5.4349
  803MOL0     H 5970   8.408   0.374   9.251  1.0741 -0.3636 -1.0269
  803MOL0     H 5971   8.273   0.252   9.211  0.7821 -0.2486 -0.9656
  803MOL0     H 5972   8.437   0.075   9.195  0.0277  0.3097  3.7107
  803MOL0     H 5973   8.561   0.183   9.269  1.1820  2.3629 -2.2913
  803MOL0     H 5974   8.472   0.263   8.989  1.8466 -0.1437 -2.6047
  803MOL0     H 5975   8.608   0.295   9.082 -0.4157  0.4370 -1.2376
  803MOL0     H 5976   8.524   0.008   8.988  0.4409 -0.9202  0.7665
  803MOL0     H 5977   8.675   0.050   9.066  1.4343  2.0343 -1.0410
  803MOL0     H 5978   8.203   0.665   9.896  0.5051 -0.8000  1.7762
  803MOL0     H 5979   8.044   0.806  10.018  3.9834 -1.4572  0.5931
  803MOL0     H 5980   7.564   0.822  10.011 -1.9242 -0.0659 -0.1305
  803MOL0     H 5981   7.368   0.930  10.038  1.2790 -0.2379  0.2084
  803MOL0     H 5982   7.903   1.564   9.350  2.4270  2.0727 -1.3163
  803MOL0     H 5983   8.094   1.496   9.243 -2.8384 -0.2555 -0.0585
  803MOL0     H 5984   8.545   1.233   9.379 -0.0369  1.5262  1.0027
  803MOL0     H 5985   8.736   1.128   9.272 -1.0653 -0.7944 -0.7423
  803MOL0     H 5986   8.827   0.960   9.076 -0.7078  0.3815  0.8175
  803MOL0     H 5987   8.915   1.091   9.163  0.4586  1.2243  0.2026
  803MOL0     H 5988   9.005   1.115   8.908 -1.5692 -1.0239 -0.7745
  803MOL0     H 5989   9.078   1.009   9.034 -1.4997 -1.3811 -0.4140
  803MOL0     H 5990   8.874   0.913   8.820  0.0152 -0.5322 -0.5076
  803MOL0     H 5991   8.953   0.811   8.934  0.4088 -2.3065 -3.4461
  803MOL0     H 5992   9.097   0.971   8.739 -3.6867 -0.7764 -1.8863
  803MOL0     H 5993   9.161   0.841   8.859 -2.4124 -0.9938  2.0204
  803MOL0     H 5994   9.037   0.564   8.590  0.2723  0.3296 -1.3162
  803MOL0     H 5995   8.661   1.370   8.920  0.8980  0.9547  0.5771
  803MOL0     H 5996   8.467   1.470   9.025 -2.4270 -2.5420 -0.8821
  804MOL0     O 5997   8.944   7.295   0.975  0.5961 -0.4373 -0.3835
  804MOL0     C 5998   8.984   7.289   1.091 -0.1359  0.4954  0.3313
  804MOL0     O 5999   9.115   7.330   1.124 -0.3394  0.7183 -0.2308
  804MOL0     C 6000   9.213   7.351   1.036 -0.0287  0.3796 -0.0298
  804MOL0     C 6001   9.227   7.287   0.910 -0.5402  0.4012  0.3799
  804MOL0     C 6002   9.334   7.310   0.828  0.1165  1.0752 -0.8521
  804MOL0     C 6003   9.426   7.407   0.867 -0.6761 -0.8140  0.6671
  804MOL0     O 6004   9.541   7.420   0.793 -0.0991 -0.2359  0.3165
  804MOL0     C 6005   9.555   7.356   0.661 -0.4723  0.3199  0.0504
  804MOL0     C 6006   9.684   7.408   0.593 -0.4112 -0.3297  0.4980
  804MOL0     C 6007   9.703   7.384   0.437 -0.5802 -0.5433  0.0386
  804MOL0     C 6008   9.741   7.233   0.425  0.6066  0.0074  0.2050
  804MOL0     C 6009   9.769   7.182   0.273  0.6673  0.3736 -0.5478
  804MOL0     C 6010   9.760   7.030   0.273  0.8029  0.2921 -0.5436
  804MOL0     C 6011   9.611   6.971   0.247  0.0225  0.5685  0.2460
  804MOL0     C 6012   9.606   6.817   0.222 -0.7520  0.4311 -0.0405
  804MOL0     N 6013   9.473   6.770   0.223 -0.0608  0.0606  0.0487
  804MOL0     C 6014   9.392   6.766   0.339  0.0183 -1.0746 -0.0256
  804MOL0     C 6015   9.262   6.748   0.299  0.5184 -0.6350 -0.0260
  804MOL0     C 6016   9.139   6.769   0.382  0.3294  1.7148 -0.0702
  804MOL0     C 6017   9.020   6.679   0.316  0.6066  0.7981 -0.5887
  804MOL0     C 6018   9.053   6.537   0.350 -0.1005  0.6253  1.1355
  804MOL0     C 6019   8.951   6.455   0.268  0.1786  0.6224  0.6917
  804MOL0     O 6020   8.960   6.311   0.279  0.2648  0.6377 -0.4769
  804MOL0     C 6021   8.853   6.231   0.309 -0.6331  0.7982  0.3299
  804MOL0     C 6022   8.876   6.119   0.385  0.6621  0.7187 -0.7441
  804MOL0     C 6023   8.773   6.033   0.412  0.7443  1.0307 -0.9453
  804MOL0     C 6024   8.637   6.045   0.354 -0.8930 -1.2494 -0.1581
  804MOL0     C 6025   8.522   5.949   0.374  0.2955 -0.0287  0.2093
  804MOL0     O 6026   8.536   5.847   0.467 -0.2363 -0.6428 -0.4916
  804MOL0     C 6027   8.451   5.746   0.500 -0.3893  0.8102  0.4290
  804MOL0     C 6028   8.348   5.690   0.417 -0.4576  0.5640 -0.4562
  804MOL0     C 6029   8.275   5.580   0.472  0.3377  0.2711 -1.0161
  804MOL0     C 6030   8.304   5.530   0.600 -0.3510  0.3691 -0.6829
  804MOL0     O 6031   8.230   5.432   0.666  0.1319 -1.0309 -0.1654
  804MOL0     C 6032   8.115   5.362   0.603  0.5072  0.5188  0.2187
  804MOL0     C 6033   8.021   5.295   0.701 -0.2296  0.8452  0.2795
  804MOL0     C 6034   8.099   5.184   0.771 -1.3432 -0.3422 -0.8501
  804MOL0     C 6035   8.008   5.096   0.853  0.2500  1.1510  0.0976
  804MOL0     C 6036   8.070   4.960   0.885 -0.7154  0.4619 -0.3148
  804MOL0     C 6037   7.993   4.894   1.002  0.3927 -0.2388  0.1371
  804MOL0     C 6038   8.045   4.764   1.059 -0.0034  1.1253 -0.3442
  804MOL0     C 6039   8.020   4.641   0.972  0.0249 -0.3987 -0.0394
  804MOL0    Cl 6040   7.867   4.559   1.010  0.3342 -0.3061  0.4090
  804MOL0     C 6041   8.410   5.582   0.673  0.5174 -0.0038 -0.4039
  804MOL0     C 6042   8.475   5.693   0.626 -0.5186  0.3325 -0.4502
  804MOL0     O 6043   8.433   5.952   0.290  0.4473  0.9650  0.0824
  804MOL0     C 6044   8.615   6.167   0.286  0.6696 -0.1606 -0.1393
  804MOL0     C 6045   8.722   6.252   0.262 -0.6708 -0.3203  0.4618
  804MOL0     N 6046   9.266   6.753   0.158  0.2780  0.0980 -0.3636
  804MOL0     N 6047   9.383   6.769   0.111 -1.0646 -0.0171 -0.2931
  804MOL0     C 6048   9.415   7.470   0.992 -0.4819  1.0297 -0.3219
  804MOL0     C 6049   9.314   7.438   1.080  0.1781  0.5076  0.3236
  804MOL0     C 6050   8.886   7.233   1.179  0.4028  1.1417  0.3318
  804MOL0     C 6051   8.930   7.217   1.315 -0.1783 -0.8912 -0.1433
  804MOL0     C 6052   8.850   7.145   1.401  0.1469 -0.2388 -0.9511
  804MOL0     C 6053   8.719   7.113   1.378  0.0331 -1.5780  0.8904
  804MOL0     O 6054   8.633   7.060   1.468 -0.4388 -0.0855 -0.9322
  804MOL0     C 6055   8.656   6.926   1.490 -0.5150  0.4872  0.2107
  804MOL0     C 6056   8.537   6.867   1.555 -0.9937 -0.1791 -0.0337
  804MOL0     C 6057   8.421   6.845   1.455 -0.2497  0.4185  0.1560
  804MOL0     C 6058   8.296   6.776   1.524 -0.1719 -0.3928 -0.8978
  804MOL0     C 6059   8.233   6.887   1.604  0.1929 -0.4726 -0.0797
  804MOL0     C 6060   8.192   6.970   1.690 -0.3961  0.5066 -0.0730
  804MOL0     C 6061   8.673   7.130   1.244 -0.7893 -0.4334 -0.9808
  804MOL0     C 6062   8.761   7.186   1.146  2.0124 -0.3602  0.0722
  804MOL0     H 6063   9.155   7.214   0.874  1.7218 -0.8602 -2.0552
  804MOL0     H 6064   9.357   7.245   0.744  1.6945 -0.7987  0.9273
  804MOL0     H 6065   9.462   7.376   0.607 -2.2917 -3.8501  1.2638
  804MOL0     H 6066   9.556   7.247   0.662 -0.4228  0.3126  1.6984
  804MOL0     H 6067   9.765   7.363   0.650  0.7591  1.7208  0.5409
  804MOL0     H 6068   9.687   7.517   0.601 -2.1251 -0.0163 -1.9459
  804MOL0     H 6069   9.790   7.442   0.406 -0.2825 -1.2111 -0.3843
  804MOL0     H 6070   9.605   7.414   0.398 -0.2487 -0.2483 -0.5951
  804MOL0     H 6071   9.831   7.214   0.484  1.3547  2.4650 -0.0275
  804MOL0     H 6072   9.652   7.176   0.453 -0.0044 -0.5360 -2.4818
  804MOL0     H 6073   9.876   7.204   0.266  0.5067  0.6969 -3.0859
  804MOL0     H 6074   9.715   7.228   0.190 -1.3322 -2.2141 -0.8081
  804MOL0     H 6075   9.793   6.991   0.369 -2.1681  1.1197  0.9136
  804MOL0     H 6076   9.821   6.991   0.191  4.4384 -1.8802  2.8403
  804MOL0     H 6077   9.529   7.001   0.313 -1.9745  0.9001 -2.2142
  804MOL0     H 6078   9.582   7.011   0.149  1.6680 -3.0027 -1.9189
  804MOL0     H 6079   9.658   6.761   0.300 -1.5505 -0.0619  0.1528
  804MOL0     H 6080   9.647   6.791   0.124 -2.1232  0.7391 -0.7217
  804MOL0     H 6081   9.430   6.782   0.439  2.4213  0.1630 -1.0479
  804MOL0     H 6082   9.108   6.873   0.375 -1.6901  1.0554 -2.7468
  804MOL0     H 6083   9.148   6.745   0.489 -0.9559  2.1792  0.1596
  804MOL0     H 6084   9.008   6.704   0.210  0.6466  2.8467 -0.1497
  804MOL0     H 6085   8.918   6.694   0.352  0.8332  0.1049  0.3736
  804MOL0     H 6086   9.158   6.512   0.328 -0.9245 -0.9352 -1.4602
  804MOL0     H 6087   9.030   6.508   0.453  2.7986 -2.4203  1.1029
  804MOL0     H 6088   8.947   6.488   0.164  0.8148 -3.8302 -0.9675
  804MOL0     H 6089   8.853   6.485   0.306 -1.2756  0.1989 -2.4338
  804MOL0     H 6090   8.977   6.099   0.420 -0.1506 -0.0845  1.3204
  804MOL0     H 6091   8.774   5.937   0.462  2.5549  0.2549 -2.3558
  804MOL0     H 6092   8.324   5.735   0.321  0.1909  3.8097  0.7414
  804MOL0     H 6093   8.187   5.549   0.417 -0.0200  2.4647 -1.8039
  804MOL0     H 6094   8.146   5.290   0.527 -0.7187 -0.7255  0.8495
  804MOL0     H 6095   8.058   5.439   0.550  0.8360  1.5372  1.2907
  804MOL0     H 6096   7.928   5.261   0.655 -0.3581  1.2251  0.2583
  804MOL0     H 6097   7.998   5.367   0.781 -0.2947  1.5083 -0.3279
  804MOL0     H 6098   8.172   5.232   0.836 -1.2817 -1.1471 -0.3060
  804MOL0     H 6099   8.164   5.128   0.703 -0.7633  0.4812 -0.9881
  804MOL0     H 6100   7.984   5.157   0.940 -1.8951  1.4595 -0.6614
  804MOL0     H 6101   7.906   5.081   0.818  0.4434  0.6419 -0.2592
  804MOL0     H 6102   8.172   4.987   0.914 -0.1949 -1.7629  0.1646
  804MOL0     H 6103   8.071   4.891   0.800  1.4135 -1.9363  1.5074
  804MOL0     H 6104   7.892   4.873   0.966  0.9026 -2.5786 -0.1158
  804MOL0     H 6105   7.989   4.964   1.085 -1.5557  1.3815 -1.2320
  804MOL0     H 6106   8.153   4.773   1.073  0.9501 -1.3862 -4.3214
  804MOL0     H 6107   8.002   4.737   1.155 -0.0211 -0.1224 -0.6942
  804MOL0     H 6108   8.103   4.571   0.967 -0.7901 -1.5010  1.0869
  804MOL0     H 6109   8.007   4.668   0.866  6.8703 -0.4731 -1.3313
  804MOL0     H 6110   8.419   5.538   0.772  0.4206 -2.9671 -1.6046
  804MOL0     H 6111   8.548   5.748   0.685  1.9089  0.6061 -3.4477
  804MOL0     H 6112   8.519   6.192   0.243  0.0632 -1.4114  0.4501
  804MOL0     H 6113   8.713   6.347   0.210  2.2585  1.3941  2.7741
  804MOL0     H 6114   9.504   7.525   1.021  0.6194 -1.3024  1.0720
  804MOL0     H 6115   9.311   7.482   1.179  2.3879  1.9191 -0.1592
  804MOL0     H 6116   9.023   7.260   1.353 -2.3402  3.8922  0.4109
  804MOL0     H 6117   8.886   7.113   1.498 -3.1541 -1.8027 -0.1013
  804MOL0     H 6118   8.746   6.904   1.549 -0.5080 -1.8735 -0.5555
  804MOL0     H 6119   8.681   6.874   1.397  0.4540  3.3442 -1.2343
  804MOL0     H 6120   8.564   6.773   1.603  1.3395 -1.3257 -3.2102
  804MOL0     H 6121   8.503   6.943   1.626  2.8770  4.7894 -2.7863
  804MOL0     H 6122   8.465   6.793   1.369  0.1929 -0.0051  0.6274
  804MOL0     H 6123   8.391   6.938   1.407  2.5375  0.8508 -0.9151
  804MOL0     H 6124   8.218   6.751   1.452 -1.7953  0.9218  0.3170
  804MOL0     H 6125   8.309   6.682   1.579  0.8427  0.6893  0.8137
  804MOL0     H 6126   8.164   7.039   1.766  0.5016  0.8622 -0.0549
  804MOL0     H 6127   8.574   7.092   1.220 -1.2564 -1.4195  2.0887
  804MOL0     H 6128   8.727   7.211   1.046  1.6956  0.2620  0.3315
  805MOL0     O 6129   0.223   4.171   3.306  0.0334  0.0005  0.1414
  805MOL0     C 6130   0.247   4.189   3.423  0.3558  0.0103 -0.1786
  805MOL0     O 6131   0.146   4.182   3.522 -0.7585  0.1657  1.0203
  805MOL0     C 6132   0.025   4.136   3.477  0.9337 -0.1229  0.2300
  805MOL0     C 6133  -0.005   3.998   3.493 -0.2570 -0.0153 -0.2376
  805MOL0     C 6134  -0.135   3.950   3.470  1.0364  0.1524 -0.2824
  805MOL0     C 6135  -0.229   4.032   3.408 -0.6103  1.3439  1.3971
  805MOL0     O 6136  -0.348   3.967   3.401  0.5243  0.5015  0.4111
  805MOL0     C 6137  -0.474   4.045   3.407 -0.8378  0.7808 -1.0495
  805MOL0     C 6138  -0.586   3.943   3.381  0.1009 -0.2351  0.8166
  805MOL0     C 6139  -0.580   3.847   3.489  0.0761  0.1933  0.4837
  805MOL0     C 6140  -0.640   3.707   3.438  0.0285  0.1864  0.1331
  805MOL0     C 6141  -0.697   3.621   3.551 -0.2947  0.1375  0.0999
  805MOL0     C 6142  -0.780   3.698   3.653  0.5922  0.6846  1.2319
  805MOL0     C 6143  -0.882   3.611   3.733 -0.2694  1.2386  0.5702
  805MOL0     C 6144  -0.937   3.685   3.848  0.3885  0.2138 -0.0050
  805MOL0     N 6145  -1.035   3.781   3.805  0.8118 -0.2428 -1.0318
  805MOL0     C 6146  -1.143   3.756   3.712 -0.5661 -0.1894 -0.2880
  805MOL0     C 6147  -1.199   3.873   3.705 -0.0911 -0.5791  1.3793
  805MOL0     C 6148  -1.316   3.913   3.616 -0.8420 -0.5910  0.2727
  805MOL0     C 6149  -1.302   4.047   3.543  0.0047  0.3282  0.0749
  805MOL0     C 6150  -1.194   4.040   3.433  0.2247  0.2372  0.0616
  805MOL0     C 6151  -1.184   4.178   3.369  0.2649  0.1877  0.2223
  805MOL0     O 6152  -1.103   4.141   3.249  0.3105 -0.2145 -0.0861
  805MOL0     C 6153  -0.987   4.207   3.233  0.5227  0.2137  0.5580
  805MOL0     C 6154  -0.956   4.236   3.098 -0.2050 -0.0326  0.2036
  805MOL0     C 6155  -0.842   4.302   3.058  0.3291 -0.3877 -0.0480
  805MOL0     C 6156  -0.745   4.335   3.160  0.5584 -0.2336  1.1838
  805MOL0     C 6157  -0.625   4.410   3.101  0.7358 -0.7712 -0.6198
  805MOL0     O 6158  -0.624   4.449   2.969  0.7798  0.4270  0.1071
  805MOL0     C 6159  -0.521   4.530   2.924 -0.4580 -0.3081 -0.0896
  805MOL0     C 6160  -0.473   4.643   2.997  0.1532  0.1538  0.3567
  805MOL0     C 6161  -0.362   4.712   2.958 -0.3675 -1.0120 -0.3638
  805MOL0     C 6162  -0.305   4.692   2.839 -1.7621  0.0062  0.4224
  805MOL0     O 6163  -0.182   4.755   2.816 -0.4568 -0.9370  0.3479
  805MOL0     C 6164  -0.112   4.729   2.693  0.4113 -0.4413 -0.2764
  805MOL0     C 6165   0.001   4.827   2.665  0.2804 -0.0121 -0.0472
  805MOL0     C 6166   0.099   4.816   2.775 -0.6823  0.0703 -0.6264
  805MOL0     C 6167   0.210   4.918   2.754 -0.0590  0.6935 -0.6073
  805MOL0     C 6168   0.344   4.894   2.835  1.2756 -0.1310 -1.1224
  805MOL0     C 6169   0.323   4.898   2.985 -0.0387  0.2517  0.2641
  805MOL0     C 6170   0.358   5.019   3.060  0.4345 -0.4945 -0.1873
  805MOL0     C 6171   0.286   5.014   3.201 -0.0466 -0.9483  0.0027
  805MOL0    Cl 6172   0.351   5.170   3.259  0.1941 -0.3541  0.1333
  805MOL0     C 6173  -0.359   4.591   2.757  0.0518  0.2863  0.4929
  805MOL0     C 6174  -0.464   4.510   2.801 -1.1762 -1.0725  0.8969
  805MOL0     O 6175  -0.541   4.421   3.188 -0.4232 -0.0075 -0.2483
  805MOL0     C 6176  -0.772   4.304   3.298  0.7550 -0.3319  0.4039
  805MOL0     C 6177  -0.893   4.241   3.339 -0.3801 -0.2792  0.4683
  805MOL0     N 6178  -1.129   3.963   3.786 -0.6668 -0.2278 -0.7948
  805MOL0     N 6179  -1.033   3.909   3.839  0.0637 -0.5185 -0.7190
  805MOL0     C 6180  -0.193   4.161   3.361 -0.5422  0.2026  1.0336
  805MOL0     C 6181  -0.068   4.214   3.405  0.1281  0.5515  1.1318
  805MOL0     C 6182   0.384   4.209   3.463 -0.6502 -0.1344  0.9405
  805MOL0     C 6183   0.478   4.236   3.362 -0.2780 -0.4580  1.0429
  805MOL0     C 6184   0.610   4.251   3.400 -0.4698 -0.0089 -0.6994
  805MOL0     C 6185   0.659   4.257   3.531  1.2100  0.5451  1.1279
  805MOL0     O 6186   0.796   4.266   3.546  0.4272  0.1415 -0.3569
  805MOL0     C 6187   0.843   4.278   3.681  0.6634 -0.2180 -0.0421
  805MOL0     C 6188   0.987   4.310   3.688 -0.7752 -0.4038  0.3510
  805MOL0     C 6189   1.075   4.192   3.649  0.1975 -0.0419  0.1177
  805MOL0     C 6190   1.231   4.231   3.672  0.0553  0.0271 -0.7383
  805MOL0     C 6191   1.332   4.128   3.623  0.3136 -1.2253  0.1749
  805MOL0     C 6192   1.421   4.051   3.586  0.7551 -0.4204 -0.1950
  805MOL0     C 6193   0.565   4.237   3.632 -0.6194  0.2110  0.4388
  805MOL0     C 6194   0.431   4.218   3.597 -0.3954 -0.4791  0.1290
  805MOL0     H 6195   0.067   3.951   3.560  1.0701  4.3776  1.8074
  805MOL0     H 6196  -0.174   3.855   3.504  1.4411  0.6941  1.8662
  805MOL0     H 6197  -0.471   4.132   3.341  0.2222  2.7028  1.4259
  805MOL0     H 6198  -0.479   4.067   3.513 -0.5978  0.8557 -1.0546
  805MOL0     H 6199  -0.571   3.900   3.281 -2.4229  0.6829 -0.0517
  805MOL0     H 6200  -0.681   3.999   3.381 -0.4338 -0.7730  5.2484
  805MOL0     H 6201  -0.618   3.888   3.583  0.8554 -2.1385  1.9027
  805MOL0     H 6202  -0.482   3.804   3.512 -1.9503 -4.8984  0.8810
  805MOL0     H 6203  -0.713   3.723   3.358  0.0864 -0.1262  0.0172
  805MOL0     H 6204  -0.563   3.644   3.392  1.4222  0.2224  2.2804
  805MOL0     H 6205  -0.612   3.588   3.613 -1.2953  1.6828  2.4243
  805MOL0     H 6206  -0.739   3.531   3.506  3.2973 -0.0986 -3.4084
  805MOL0     H 6207  -0.827   3.775   3.591  2.8624  0.9892 -0.2546
  805MOL0     H 6208  -0.709   3.751   3.717  2.2575 -0.9371  0.8475
  805MOL0     H 6209  -0.966   3.578   3.671 -1.4510  0.1591  2.6598
  805MOL0     H 6210  -0.824   3.528   3.774  3.1731  2.5198 -1.2257
  805MOL0     H 6211  -0.868   3.742   3.911 -1.0836  3.0500 -0.8169
  805MOL0     H 6212  -0.980   3.612   3.917 -0.9233  3.0077  2.3302
  805MOL0     H 6213  -1.170   3.672   3.649  0.4760  0.6237 -1.8730
  805MOL0     H 6214  -1.402   3.913   3.683  0.7585 -0.8894  2.4578
  805MOL0     H 6215  -1.340   3.835   3.543 -0.0866 -1.5889  1.0564
  805MOL0     H 6216  -1.275   4.119   3.620 -0.8669 -0.6880  1.3619
  805MOL0     H 6217  -1.401   4.067   3.501  0.0879 -2.7197 -1.9851
  805MOL0     H 6218  -1.100   3.990   3.459  0.2856 -0.3418 -1.1615
  805MOL0     H 6219  -1.232   3.972   3.356  0.4119  1.5129 -1.1883
  805MOL0     H 6220  -1.137   4.244   3.443 -0.9938  0.4904  0.7745
  805MOL0     H 6221  -1.283   4.214   3.341 -0.4912 -1.3129  0.8893
  805MOL0     H 6222  -1.031   4.221   3.021 -0.5752  0.8772  0.3721
  805MOL0     H 6223  -0.823   4.320   2.952  0.0691 -1.2213 -0.2424
  805MOL0     H 6224  -0.510   4.673   3.094 -1.3405  0.7275 -0.3543
  805MOL0     H 6225  -0.326   4.789   3.025 -0.8884 -2.1815  1.3092
  805MOL0     H 6226  -0.180   4.726   2.607  0.0861 -3.3470 -0.0132
  805MOL0     H 6227  -0.069   4.630   2.708  1.7781  0.3612  1.3109
  805MOL0     H 6228  -0.053   4.922   2.673  1.3862  0.4666  3.1173
  805MOL0     H 6229   0.057   4.809   2.573 -1.3185  0.4900 -1.1633
  805MOL0     H 6230   0.144   4.717   2.785  2.6838  1.7383  3.8689
  805MOL0     H 6231   0.050   4.844   2.869  0.8986  3.0735 -0.5624
  805MOL0     H 6232   0.230   4.911   2.647 -2.6065 -5.9649 -1.1134
  805MOL0     H 6233   0.173   5.015   2.789  2.4184  1.9982 -1.3426
  805MOL0     H 6234   0.415   4.972   2.806  2.3267 -1.2593 -1.6758
  805MOL0     H 6235   0.394   4.804   2.797  0.6687 -1.2171  0.5497
  805MOL0     H 6236   0.383   4.819   3.033  1.8970  2.7808  2.3121
  805MOL0     H 6237   0.220   4.865   3.002 -1.4764  0.1349 -6.2051
  805MOL0     H 6238   0.467   5.034   3.062  0.6364 -1.8509  1.5075
  805MOL0     H 6239   0.315   5.098   2.998  1.3324  2.1823  2.3338
  805MOL0     H 6240   0.329   4.928   3.253  0.1116  0.8524  3.0747
  805MOL0     H 6241   0.177   5.010   3.188  0.0630 -2.6741 -0.6527
  805MOL0     H 6242  -0.322   4.576   2.656 -3.1860  0.5429 -0.8708
  805MOL0     H 6243  -0.503   4.425   2.745  0.3485 -2.8571  2.4240
  805MOL0     H 6244  -0.690   4.334   3.363  1.7358  0.9127 -1.3052
  805MOL0     H 6245  -0.894   4.217   3.445  4.8827  0.7908  1.0409
  805MOL0     H 6246  -0.257   4.223   3.298 -0.0202  0.9764  1.2547
  805MOL0     H 6247  -0.051   4.319   3.383 -2.6984  0.8479 -0.0772
  805MOL0     H 6248   0.454   4.225   3.256  3.5799 -2.2935  0.1710
  805MOL0     H 6249   0.694   4.254   3.331 -0.1371  2.4344 -0.3080
  805MOL0     H 6250   0.813   4.181   3.724 -1.0837 -1.5374 -3.8039
  805MOL0     H 6251   0.794   4.357   3.738 -0.3462  1.2888 -2.8412
  805MOL0     H 6252   1.002   4.393   3.618 -2.2984 -0.5436 -0.1786
  805MOL0     H 6253   1.014   4.353   3.785  2.4465  3.3818 -1.9171
  805MOL0     H 6254   1.042   4.155   3.552  1.4302 -3.8213  0.9789
  805MOL0     H 6255   1.046   4.112   3.718 -0.7222  0.7786  0.7119
  805MOL0     H 6256   1.254   4.317   3.608 -1.1851  0.1625 -1.0258
  805MOL0     H 6257   1.230   4.252   3.779 -2.2215  2.3376 -1.1057
  805MOL0     H 6258   1.505   3.990   3.556  2.2647  2.2398 -1.8503
  805MOL0     H 6259   0.589   4.221   3.737 -2.9805 -3.4831  0.5679
  805MOL0     H 6260   0.352   4.203   3.669 -0.5355  1.4055  0.4074
  806MOL0     O 6261   8.791   4.153   0.700 -0.2968  0.4179  0.2313
  806MOL0     C 6262   8.892   4.125   0.626  0.4276 -0.0956 -0.6823
  806MOL0     O 6263   8.891   4.038   0.523  1.1872 -0.2844 -0.2123
  806MOL0     C 6264   8.788   3.938   0.520  0.0823 -0.0818 -0.7662
  806MOL0     C 6265   8.757   3.891   0.389 -0.1068  0.9274 -0.1897
  806MOL0     C 6266   8.676   3.783   0.374 -0.7321  0.6586  0.2815
  806MOL0     C 6267   8.597   3.722   0.477 -1.2256  0.7512 -0.1026
  806MOL0     O 6268   8.510   3.625   0.450  0.2191 -1.0493 -0.3577
  806MOL0     C 6269   8.384   3.654   0.526 -0.0824  0.2979 -0.1180
  806MOL0     C 6270   8.278   3.541   0.501  0.0898  0.5929  0.0769
  806MOL0     C 6271   8.123   3.588   0.514 -0.1183  0.3863 -0.3762
  806MOL0     C 6272   8.025   3.490   0.445 -0.6827  0.2617  0.2104
  806MOL0     C 6273   7.884   3.527   0.481 -0.2383  0.1754  0.6329
  806MOL0     C 6274   7.769   3.455   0.403 -0.4510  0.7694 -0.7294
  806MOL0     C 6275   7.707   3.325   0.468 -0.0821 -0.0099  0.0380
  806MOL0     C 6276   7.582   3.357   0.559  0.7197  0.4957 -0.1293
  806MOL0     N 6277   7.456   3.304   0.499 -0.7376 -0.2197  0.2372
  806MOL0     C 6278   7.425   3.168   0.483 -0.3210 -0.2050 -0.4338
  806MOL0     C 6279   7.321   3.167   0.400  0.0247  0.8805  0.1200
  806MOL0     C 6280   7.239   3.045   0.372 -0.2055 -0.0012  0.6976
  806MOL0     C 6281   7.111   3.029   0.456 -0.3443 -0.0447 -0.2692
  806MOL0     C 6282   7.014   2.926   0.397  0.0948 -0.5024  0.2082
  806MOL0     C 6283   6.878   2.928   0.472 -0.0880  0.6886  0.0571
  806MOL0     O 6284   6.816   3.061   0.461  0.8187 -0.3834 -0.5539
  806MOL0     C 6285   6.775   3.126   0.344 -0.6194  0.2551  0.2373
  806MOL0     C 6286   6.714   3.048   0.238  0.6518  0.8526  1.1513
  806MOL0     C 6287   6.678   3.118   0.121 -0.5963 -0.1890 -0.2018
  806MOL0     C 6288   6.726   3.250   0.097  0.3273 -0.2149 -0.2255
  806MOL0     C 6289   6.702   3.317  -0.035 -0.1516 -0.4219 -0.2236
  806MOL0     O 6290   6.766   3.442  -0.062 -0.7203 -0.0300 -0.1719
  806MOL0     C 6291   6.750   3.495  -0.185  1.4041  0.9881  0.9802
  806MOL0     C 6292   6.620   3.551  -0.216 -0.1520 -0.1935 -0.1101
  806MOL0     C 6293   6.601   3.626  -0.338 -0.2099  0.4197 -0.5258
  806MOL0     C 6294   6.715   3.632  -0.422  0.2630 -0.1983  0.3994
  806MOL0     O 6295   6.704   3.692  -0.547 -0.0798 -0.2140 -0.9134
  806MOL0     C 6296   6.659   3.833  -0.543 -0.3456  0.3525  0.6780
  806MOL0     C 6297   6.771   3.932  -0.548 -1.0044  0.4874 -0.0953
  806MOL0     C 6298   6.900   3.915  -0.464  0.3374  0.1447  0.3486
  806MOL0     C 6299   7.010   4.016  -0.508  0.1630  0.7521  0.0852
  806MOL0     C 6300   7.134   4.026  -0.418  0.9828 -0.4272 -0.1470
  806MOL0     C 6301   7.234   3.909  -0.430 -0.4531 -0.0492 -0.2261
  806MOL0     C 6302   7.361   3.910  -0.336  0.1869  0.9587  0.6560
  806MOL0     C 6303   7.466   4.025  -0.353 -0.3644  0.1357  0.0424
  806MOL0    Cl 6304   7.421   4.182  -0.282  0.1021  0.2836 -0.0881
  806MOL0     C 6305   6.842   3.586  -0.388  0.1587 -0.1105  0.1417
  806MOL0     C 6306   6.862   3.506  -0.272 -0.0100 -1.0217  0.2088
  806MOL0     O 6307   6.646   3.244  -0.112 -0.0823 -0.3591  0.3610
  806MOL0     C 6308   6.789   3.319   0.198 -0.4480  0.3772  0.5335
  806MOL0     C 6309   6.813   3.259   0.316  0.6269  0.9460 -0.7536
  806MOL0     N 6310   7.300   3.295   0.360 -0.1483 -0.6856 -0.3300
  806MOL0     N 6311   7.378   3.380   0.422  0.8080 -0.4369  1.0209
  806MOL0     C 6312   8.637   3.764   0.607 -0.6337 -0.4380  0.3579
  806MOL0     C 6313   8.733   3.874   0.628 -0.7674 -0.5000  0.3092
  806MOL0     C 6314   9.020   4.184   0.675  0.1062  0.1076  0.4577
  806MOL0     C 6315   9.142   4.121   0.652 -0.6005 -0.3072 -0.5776
  806MOL0     C 6316   9.262   4.170   0.707 -0.2468  0.1592 -0.0220
  806MOL0     C 6317   9.266   4.291   0.782  0.5263  0.1740  0.7094
  806MOL0     O 6318   9.381   4.336   0.850 -0.0009 -0.2923  0.3390
  806MOL0     C 6319   9.512   4.278   0.821 -0.1163 -0.0064 -0.7759
  806MOL0     C 6320   9.620   4.297   0.927  0.3624  0.6611  0.1160
  806MOL0     C 6321   9.653   4.448   0.936 -0.8600 -0.3319 -0.3800
  806MOL0     C 6322   9.799   4.475   0.936 -0.7879 -0.6748 -0.3000
  806MOL0     C 6323   9.867   4.442   0.808  0.1858 -0.1174  0.0107
  806MOL0     C 6324   9.927   4.425   0.700 -0.0591 -0.9353  0.4080
  806MOL0     C 6325   9.146   4.351   0.814 -0.6778 -0.3167  0.1487
  806MOL0     C 6326   9.022   4.300   0.759 -0.9516  0.4646 -0.2518
  806MOL0     H 6327   8.787   3.950   0.304  0.8142  2.0705  0.8980
  806MOL0     H 6328   8.661   3.746   0.273 -0.7871 -2.5572  1.3526
  806MOL0     H 6329   8.345   3.748   0.486  1.4229 -0.1360 -2.8660
  806MOL0     H 6330   8.393   3.650   0.635 -0.6185 -4.9103  0.0088
  806MOL0     H 6331   8.306   3.454   0.561 -1.9510 -1.6565 -2.0564
  806MOL0     H 6332   8.288   3.500   0.400 -3.0447  3.3757 -1.5421
  806MOL0     H 6333   8.098   3.683   0.466 -0.2491  0.4029 -0.2746
  806MOL0     H 6334   8.094   3.605   0.618 -1.4459 -3.6382  0.0946
  806MOL0     H 6335   8.045   3.506   0.338  2.1227 -0.0277  0.6156
  806MOL0     H 6336   8.037   3.385   0.471 -3.0783 -0.2981 -0.6479
  806MOL0     H 6337   7.880   3.634   0.459 -0.9759  0.3605  1.6049
  806MOL0     H 6338   7.872   3.522   0.589 -2.2157  1.6734  0.5412
  806MOL0     H 6339   7.823   3.433   0.310 -0.2644  0.4692 -0.5510
  806MOL0     H 6340   7.688   3.524   0.380  1.3123  2.2299 -3.0695
  806MOL0     H 6341   7.686   3.250   0.391 -1.5660  1.6260 -1.2218
  806MOL0     H 6342   7.775   3.268   0.532 -2.5195 -0.1694  2.6790
  806MOL0     H 6343   7.574   3.466   0.573 -2.2783  0.5292 -1.3948
  806MOL0     H 6344   7.583   3.305   0.656 -3.2173 -0.7059 -0.5726
  806MOL0     H 6345   7.459   3.085   0.544 -4.6562 -1.2663  0.8874
  806MOL0     H 6346   7.312   2.967   0.397  0.1852  0.8784  2.4541
  806MOL0     H 6347   7.209   3.037   0.267  0.9256 -2.9279  0.4964
  806MOL0     H 6348   7.073   3.131   0.460  0.6566  0.3172  0.0166
  806MOL0     H 6349   7.119   3.013   0.564  0.3437 -1.4735 -0.5039
  806MOL0     H 6350   6.998   2.960   0.295  0.9511  1.5097  0.7000
  806MOL0     H 6351   7.041   2.820   0.394 -1.4336 -0.9438  0.8120
  806MOL0     H 6352   6.895   2.900   0.577 -1.1273 -2.5244 -0.5103
  806MOL0     H 6353   6.808   2.851   0.437 -0.6053  0.6156  1.2090
  806MOL0     H 6354   6.709   2.939   0.232  1.1534  0.9050 -1.3584
  806MOL0     H 6355   6.619   3.073   0.042  0.8077  1.2995 -2.2015
  806MOL0     H 6356   6.537   3.532  -0.149  0.4624 -0.4034  0.5994
  806MOL0     H 6357   6.502   3.671  -0.344 -0.0778  0.9485  0.8469
  806MOL0     H 6358   6.602   3.845  -0.451  0.1856 -0.9925  1.2118
  806MOL0     H 6359   6.589   3.833  -0.627  1.7133  1.5027 -1.1476
  806MOL0     H 6360   6.735   4.033  -0.526 -1.6474  0.1271  0.5541
  806MOL0     H 6361   6.801   3.943  -0.653 -1.9605 -0.3639 -0.4722
  806MOL0     H 6362   6.935   3.813  -0.476  0.2766  0.3686 -2.4167
  806MOL0     H 6363   6.872   3.930  -0.359  0.7488  0.9188  0.3606
  806MOL0     H 6364   7.057   3.991  -0.603  2.6337 -0.0725  1.4165
  806MOL0     H 6365   6.963   4.114  -0.504  1.9762  1.6440  3.8390
  806MOL0     H 6366   7.114   4.019  -0.310  1.6821  2.4395  0.2536
  806MOL0     H 6367   7.188   4.120  -0.437 -0.1667  0.2132 -0.3320
  806MOL0     H 6368   7.271   3.906  -0.533  0.3974 -1.0338  0.0868
  806MOL0     H 6369   7.191   3.808  -0.428 -2.6143  0.7365 -2.3805
  806MOL0     H 6370   7.326   3.918  -0.232 -2.0406  2.7164 -0.1579
  806MOL0     H 6371   7.417   3.816  -0.345  1.4750  1.3379  3.4506
  806MOL0     H 6372   7.487   4.042  -0.459 -0.6438 -4.4077 -0.9313
  806MOL0     H 6373   7.557   3.984  -0.307 -2.0090 -2.7489  0.9597
  806MOL0     H 6374   6.916   3.610  -0.464  1.3587 -4.6137 -0.4179
  806MOL0     H 6375   6.957   3.463  -0.241  0.9812  1.5856  1.1263
  806MOL0     H 6376   6.823   3.421   0.185  2.0917 -0.6035 -1.4168
  806MOL0     H 6377   6.854   3.331   0.386 -1.9597  0.7196  1.1621
  806MOL0     H 6378   8.601   3.716   0.697 -1.4216  1.1776  0.9428
  806MOL0     H 6379   8.756   3.905   0.729  1.3695  0.4320 -0.4058
  806MOL0     H 6380   9.135   4.026   0.599  0.1284  0.3170 -1.8472
  806MOL0     H 6381   9.354   4.114   0.698  0.2344  0.9796 -0.2289
  806MOL0     H 6382   9.551   4.318   0.727  0.3200  0.3618 -0.4342
  806MOL0     H 6383   9.491   4.170   0.818 -2.8164  0.4100  0.0517
  806MOL0     H 6384   9.587   4.269   1.028  1.9761 -0.3056  0.4162
  806MOL0     H 6385   9.708   4.243   0.893  0.0842  1.0578 -1.2863
  806MOL0     H 6386   9.604   4.485   1.027 -1.4564 -0.5040 -0.6304
  806MOL0     H 6387   9.611   4.506   0.854  0.7083  1.1712 -0.1825
  806MOL0     H 6388   9.823   4.578   0.964  1.1373 -1.7291  2.2974
  806MOL0     H 6389   9.846   4.422   1.019 -1.6540 -0.2420  0.4915
  806MOL0     H 6390   9.980   4.407   0.609  2.6245 -0.7632  1.8211
  806MOL0     H 6391   9.147   4.444   0.870 -2.7909  0.7217 -1.3560
  806MOL0     H 6392   8.926   4.346   0.783 -0.0798  2.0933  0.2555
  807MOL0     O 6393   1.450   4.135   9.262 -0.3616 -0.0229 -1.1379
  807MOL0     C 6394   1.363   4.113   9.179 -0.6770 -0.8614 -0.1547
  807MOL0     O 6395   1.229   4.147   9.203 -0.5543 -0.0760  0.1235
  807MOL0     C 6396   1.197   4.171   9.332  0.1811 -0.2594 -0.2905
  807MOL0     C 6397   1.219   4.080   9.431  0.1109 -0.2648 -0.1957
  807MOL0     C 6398   1.191   4.112   9.564  0.2788  0.4286  0.6033
  807MOL0     C 6399   1.130   4.238   9.592 -0.4423 -0.3599  0.0569
  807MOL0     O 6400   1.089   4.277   9.720 -0.4105  0.4558  0.2907
  807MOL0     C 6401   0.975   4.208   9.754 -0.4147  0.5460 -0.6837
  807MOL0     C 6402   0.873   4.311   9.807  0.1242 -0.8502 -0.3999
  807MOL0     C 6403   0.927   4.433   9.893 -0.4950  0.2655  1.1853
  807MOL0     C 6404   0.817   4.534   9.923 -0.6037 -0.0735  0.1535
  807MOL0     C 6405   0.845   4.649  10.024 -0.8914 -0.2556 -0.1013
  807MOL0     C 6406   0.852   4.598  10.168  0.6584  0.1980  0.2270
  807MOL0     C 6407   0.904   4.710  10.256 -0.7619 -0.2372 -0.8695
  807MOL0     C 6408   1.038   4.672  10.313  0.9256  0.3775 -0.0468
  807MOL0     N 6409   1.134   4.689  10.199 -0.2442  1.8288 -0.5623
  807MOL0     C 6410   1.191   4.587  10.126  0.3055  0.3045  0.2035
  807MOL0     C 6411   1.237   4.655  10.019  0.1881 -0.0479  0.6182
  807MOL0     C 6412   1.286   4.606   9.884 -1.0263  0.3548  0.1349
  807MOL0     C 6413   1.413   4.503   9.903  0.6199  0.4226  0.3894
  807MOL0     C 6414   1.468   4.473   9.768  0.2677 -0.4487 -0.6423
  807MOL0     C 6415   1.594   4.397   9.760 -0.5890  0.1038  0.1654
  807MOL0     O 6416   1.703   4.455   9.832 -0.4761 -0.0978 -0.9035
  807MOL0     C 6417   1.825   4.400   9.863  0.1875  0.1287 -0.3743
  807MOL0     C 6418   1.880   4.280   9.816 -0.3972  0.3202 -0.8084
  807MOL0     C 6419   2.008   4.242   9.844  0.6347  0.4045 -0.1126
  807MOL0     C 6420   2.087   4.314   9.929 -0.3974 -0.9996 -0.0882
  807MOL0     C 6421   2.225   4.274   9.980  0.3175 -0.3172 -0.1746
  807MOL0     O 6422   2.299   4.366  10.046 -0.0044  0.0236  0.0819
  807MOL0     C 6423   2.424   4.344  10.101  0.9614 -0.0899  0.1726
  807MOL0     C 6424   2.465   4.234  10.173  0.3618 -0.6609  1.1008
  807MOL0     C 6425   2.592   4.230  10.222  0.8306 -0.0208  0.1692
  807MOL0     C 6426   2.688   4.324  10.194  0.2492  0.3080 -0.2641
  807MOL0     O 6427   2.815   4.307  10.247  0.8404  0.2546 -0.2104
  807MOL0     C 6428   2.909   4.422  10.218  0.1433  0.3719  0.0706
  807MOL0     C 6429   3.052   4.394  10.258  0.3927  0.2737  0.6237
  807MOL0     C 6430   3.049   4.348  10.405  0.0642 -0.6937 -0.0713
  807MOL0     C 6431   3.199   4.314  10.446  0.8205 -0.9227  0.4972
  807MOL0     C 6432   3.258   4.216  10.348 -0.1574 -0.2125 -0.7044
  807MOL0     C 6433   3.383   4.155  10.412  0.2420  0.3002  0.3395
  807MOL0     C 6434   3.454   4.067  10.309  0.2799 -0.8312 -0.4516
  807MOL0     C 6435   3.380   3.941  10.260  0.9136 -0.4233  1.0469
  807MOL0    Cl 6436   3.424   3.894  10.094 -0.1363  0.6986 -0.0695
  807MOL0     C 6437   2.642   4.435  10.114 -0.7401  0.3996  1.0171
  807MOL0     C 6438   2.510   4.441  10.067 -0.7275 -0.6132 -0.3055
  807MOL0     O 6439   2.265   4.158   9.955 -0.1164 -0.1907  0.1136
  807MOL0     C 6440   2.035   4.435   9.980 -0.0867  1.0353 -0.4838
  807MOL0     C 6441   1.907   4.476   9.951  0.1227  0.8373  0.2780
  807MOL0     N 6442   1.212   4.788  10.038 -0.0668 -0.2999  0.4284
  807MOL0     N 6443   1.172   4.806  10.156  0.6512 -0.0967 -0.3455
  807MOL0     C 6444   1.095   4.322   9.487 -0.3807  0.1699  0.6089
  807MOL0     C 6445   1.139   4.295   9.364  0.0680  0.4624  0.5458
  807MOL0     C 6446   1.413   4.068   9.049  0.7099  0.2655 -0.8677
  807MOL0     C 6447   1.557   4.057   9.022  0.0809 -1.1099  0.1304
  807MOL0     C 6448   1.587   3.969   8.913 -0.7202  0.0350 -0.4417
  807MOL0     C 6449   1.492   3.902   8.839 -0.4559 -0.7740  0.3712
  807MOL0     O 6450   1.511   3.816   8.736 -0.2042  0.9411 -0.3997
  807MOL0     C 6451   1.645   3.786   8.694 -0.2088  0.2490 -0.4037
  807MOL0     C 6452   1.634   3.717   8.562  0.4095 -0.2253 -0.0417
  807MOL0     C 6453   1.606   3.567   8.585 -0.0080 -0.8290 -1.2180
  807MOL0     C 6454   1.585   3.487   8.458 -0.6038 -0.2942  0.4185
  807MOL0     C 6455   1.701   3.459   8.381  0.7951 -0.6335  0.1997
  807MOL0     C 6456   1.785   3.436   8.293 -1.3525  1.1795 -0.0067
  807MOL0     C 6457   1.360   3.941   8.852  0.8559  1.3734  0.3890
  807MOL0     C 6458   1.319   4.017   8.964  0.9464  0.7168  0.0003
  807MOL0     H 6459   1.269   3.991   9.395  1.7867  1.0681 -1.3934
  807MOL0     H 6460   1.199   4.035   9.640 -1.7178 -0.4354  0.0078
  807MOL0     H 6461   0.999   4.131   9.829 -1.5975  1.6019  0.8641
  807MOL0     H 6462   0.935   4.163   9.663  0.9334  0.8777 -1.4579
  807MOL0     H 6463   0.795   4.251   9.854  0.0257 -1.1405 -0.9274
  807MOL0     H 6464   0.817   4.350   9.722 -0.3975  1.5751  0.9890
  807MOL0     H 6465   1.005   4.478   9.830 -0.9041  0.9376  1.1490
  807MOL0     H 6466   0.974   4.396   9.985 -0.6647 -1.3150  0.6608
  807MOL0     H 6467   0.786   4.583   9.831 -2.5940 -0.6020  0.5051
  807MOL0     H 6468   0.741   4.480   9.980  0.5584 -1.3136  0.5802
  807MOL0     H 6469   0.764   4.721  10.007 -1.6909 -0.9343  0.7244
  807MOL0     H 6470   0.937   4.697   9.990  0.1607 -0.9184  1.6425
  807MOL0     H 6471   0.897   4.499  10.178 -1.3111 -0.4995  3.6597
  807MOL0     H 6472   0.749   4.582  10.201  0.3614 -2.1690 -1.5969
  807MOL0     H 6473   0.927   4.804  10.207 -0.4369 -0.9398 -2.0845
  807MOL0     H 6474   0.835   4.719  10.341 -0.3945  2.8351 -0.7779
  807MOL0     H 6475   1.036   4.577  10.366  3.0068  0.3866  0.1306
  807MOL0     H 6476   1.063   4.741  10.393  2.3968 -0.7053  0.4649
  807MOL0     H 6477   1.180   4.479  10.133  0.6303  0.2034 -0.7020
  807MOL0     H 6478   1.324   4.695   9.834 -2.5718  1.2807  0.5491
  807MOL0     H 6479   1.201   4.561   9.832  0.5354 -1.6296 -0.8773
  807MOL0     H 6480   1.389   4.408   9.953 -1.7987  0.5374 -0.4286
  807MOL0     H 6481   1.484   4.557   9.967 -0.3216 -0.0591  1.9174
  807MOL0     H 6482   1.385   4.426   9.714 -0.6302  0.9462 -0.5211
  807MOL0     H 6483   1.478   4.568   9.715  1.1246 -0.9137 -1.3371
  807MOL0     H 6484   1.617   4.377   9.655  1.4611  0.7613  0.4354
  807MOL0     H 6485   1.589   4.295   9.801  2.8246 -0.5381 -0.6386
  807MOL0     H 6486   1.820   4.230   9.740 -3.0427 -0.6201  1.7015
  807MOL0     H 6487   2.038   4.147   9.800  3.1305  0.4888  1.2020
  807MOL0     H 6488   2.398   4.153  10.200 -1.1999 -0.8187 -2.6352
  807MOL0     H 6489   2.615   4.147  10.289 -1.4242  0.6455  1.8813
  807MOL0     H 6490   2.876   4.514  10.267 -0.5961 -0.1771  0.6336
  807MOL0     H 6491   2.911   4.448  10.112 -2.4435  0.9447  0.0858
  807MOL0     H 6492   3.110   4.487  10.259  2.1636 -0.7795 -0.3014
  807MOL0     H 6493   3.099   4.335  10.179  0.4386  0.6663  0.3558
  807MOL0     H 6494   2.997   4.254  10.424  1.0505 -1.8421 -2.6168
  807MOL0     H 6495   3.012   4.434  10.462  3.6622 -0.6373  2.5040
  807MOL0     H 6496   3.258   4.405  10.453 -2.9347  1.6960  1.1972
  807MOL0     H 6497   3.189   4.264  10.544  0.9932  1.1407  1.6173
  807MOL0     H 6498   3.287   4.270  10.257  1.1092 -0.4269 -0.4408
  807MOL0     H 6499   3.182   4.146  10.313  0.5068 -0.0405 -2.6641
  807MOL0     H 6500   3.349   4.097  10.499 -0.3281 -0.4573 -0.3642
  807MOL0     H 6501   3.452   4.233  10.444  0.5916 -1.1126  3.4512
  807MOL0     H 6502   3.482   4.130  10.225 -2.8554 -2.0131 -2.5635
  807MOL0     H 6503   3.548   4.042  10.361  0.0462 -0.5168  0.1313
  807MOL0     H 6504   3.276   3.969  10.240  1.0047 -0.9466 -0.2204
  807MOL0     H 6505   3.388   3.856  10.329  0.2263 -1.8323 -0.5334
  807MOL0     H 6506   2.705   4.512  10.073 -1.9659  1.0840  0.3486
  807MOL0     H 6507   2.486   4.525  10.004  2.5720  0.4526 -0.3133
  807MOL0     H 6508   2.083   4.496  10.057 -1.3095  1.5324 -0.0947
  807MOL0     H 6509   1.889   4.577   9.985  3.9873  1.2547  1.5805
  807MOL0     H 6510   1.055   4.423   9.490  0.3649  0.6083 -1.9395
  807MOL0     H 6511   1.109   4.356   9.279 -4.5703  1.1044  2.3380
  807MOL0     H 6512   1.639   4.112   9.066  1.2615  0.9538 -4.0577
  807MOL0     H 6513   1.690   3.948   8.886 -0.1910 -0.3152  1.6519
  807MOL0     H 6514   1.700   3.716   8.758 -0.7644 -1.0016 -1.2390
  807MOL0     H 6515   1.702   3.878   8.680 -0.5299  0.2344 -1.9284
  807MOL0     H 6516   1.557   3.757   8.496  1.8959  1.6112 -0.7624
  807MOL0     H 6517   1.731   3.731   8.513 -0.4042  1.0740 -1.3605
  807MOL0     H 6518   1.513   3.560   8.642 -2.2303  2.6422 -4.0798
  807MOL0     H 6519   1.684   3.529   8.653  0.0661  3.3616  1.4029
  807MOL0     H 6520   1.533   3.393   8.481 -0.8909 -0.7630 -1.8816
  807MOL0     H 6521   1.517   3.545   8.396  3.0112  1.7454 -1.9397
  807MOL0     H 6522   1.858   3.427   8.215 -1.6280 -0.8173 -0.0893
  807MOL0     H 6523   1.287   3.898   8.784 -0.8892  3.0541  1.1041
  807MOL0     H 6524   1.214   4.035   8.984  0.6864  1.1271 -1.6514
  808MOL0     O 6525   0.569   5.827   8.405  0.9130  0.6798  0.2549
  808MOL0     C 6526   0.445   5.824   8.429  0.2334  0.2957 -0.2368
  808MOL0     O 6527   0.359   5.742   8.374 -0.7072 -0.0362  0.4524
  808MOL0     C 6528   0.396   5.658   8.271  0.9183  0.3113  0.4311
  808MOL0     C 6529   0.376   5.520   8.290 -0.3016  0.0722 -1.1797
  808MOL0     C 6530   0.392   5.426   8.198 -0.4030 -0.0526  0.8202
  808MOL0     C 6531   0.430   5.472   8.068  0.1543  0.9999 -0.4617
  808MOL0     O 6532   0.417   5.378   7.968  0.6986  0.5256 -0.3722
  808MOL0     C 6533   0.437   5.403   7.825  0.3982  0.5500 -0.9673
  808MOL0     C 6534   0.347   5.308   7.737 -0.0896  0.9397  1.1400
  808MOL0     C 6535   0.213   5.363   7.711  0.0691  0.1109 -0.2314
  808MOL0     C 6536   0.120   5.245   7.673 -0.6394 -1.1198 -0.0335
  808MOL0     C 6537   0.000   5.276   7.591  0.1943  0.3450 -0.0865
  808MOL0     C 6538  -0.131   5.326   7.659  0.2176 -0.0543  0.7807
  808MOL0     C 6539  -0.114   5.472   7.705  0.1511 -0.3040 -0.4221
  808MOL0     C 6540  -0.242   5.530   7.779  0.6144 -0.0222  0.3331
  808MOL0     N 6541  -0.269   5.463   7.906 -0.3184 -0.0891 -0.5835
  808MOL0     C 6542  -0.272   5.525   8.029 -0.1722 -0.0207  0.4156
  808MOL0     C 6543  -0.335   5.438   8.109 -0.1040  0.8216  0.3651
  808MOL0     C 6544  -0.368   5.465   8.251  0.4890 -0.2002  0.3681
  808MOL0     C 6545  -0.505   5.541   8.261 -0.5089  0.1883 -0.5699
  808MOL0     C 6546  -0.487   5.651   8.372 -0.5721 -0.2243  0.4621
  808MOL0     C 6547  -0.426   5.775   8.309  0.7822  0.0755  0.6235
  808MOL0     O 6548  -0.476   5.807   8.180 -0.4363  0.3603 -0.1063
  808MOL0     C 6549  -0.585   5.881   8.152  0.5751  0.0838  0.0894
  808MOL0     C 6550  -0.668   5.955   8.234 -0.1744  0.7139  0.6997
  808MOL0     C 6551  -0.770   6.038   8.186  0.6463  0.6755  0.2422
  808MOL0     C 6552  -0.815   6.026   8.051 -0.4766  0.5880 -0.2693
  808MOL0     C 6553  -0.905   6.127   7.995  0.1264  0.5929  0.4558
  808MOL0     O 6554  -0.949   6.234   8.067 -0.0184  0.2023 -0.2253
  808MOL0     C 6555  -1.055   6.311   8.020 -0.4755  0.4982  0.6624
  808MOL0     C 6556  -1.158   6.282   7.927  0.2788  0.5885 -0.1728
  808MOL0     C 6557  -1.252   6.368   7.886  0.5612 -0.1093  1.3417
  808MOL0     C 6558  -1.248   6.498   7.941 -0.0857 -0.5755  0.0147
  808MOL0     O 6559  -1.334   6.589   7.916  0.1061  0.1576 -1.5307
  808MOL0     C 6560  -1.362   6.627   7.778 -0.8595  0.6022 -0.3001
  808MOL0     C 6561  -1.502   6.700   7.774 -0.2058 -0.7592  0.0078
  808MOL0     C 6562  -1.629   6.624   7.816 -0.0993  0.7122  0.3501
  808MOL0     C 6563  -1.679   6.525   7.718 -0.1937 -1.0796  0.7944
  808MOL0     C 6564  -1.741   6.598   7.592 -0.8924 -0.1855  0.3251
  808MOL0     C 6565  -1.880   6.649   7.608 -0.0079  0.3628  0.6985
  808MOL0     C 6566  -1.937   6.676   7.473 -0.4244 -0.1867  0.1103
  808MOL0     C 6567  -2.091   6.673   7.466  0.0318 -0.8204 -0.0840
  808MOL0    Cl 6568  -2.138   6.772   7.607  0.0464 -0.5026 -0.1085
  808MOL0     C 6569  -1.154   6.532   8.040  0.5666 -0.3128  0.2957
  808MOL0     C 6570  -1.058   6.439   8.067  0.5948 -0.4192 -0.4278
  808MOL0     O 6571  -0.934   6.108   7.875  1.1290 -0.9498 -0.4491
  808MOL0     C 6572  -0.734   5.943   7.963  0.9096  0.0178 -0.3713
  808MOL0     C 6573  -0.617   5.880   8.013  1.0930 -0.3663 -0.8518
  808MOL0     N 6574  -0.371   5.324   8.029 -0.2299 -1.0157 -0.1934
  808MOL0     N 6575  -0.320   5.342   7.912  0.0659  0.5136  0.4280
  808MOL0     C 6576   0.452   5.609   8.046 -0.1622  0.3460  0.4015
  808MOL0     C 6577   0.430   5.697   8.147  0.7882 -1.1210  0.3474
  808MOL0     C 6578   0.398   5.913   8.525 -0.2675 -0.7436 -0.1680
  808MOL0     C 6579   0.479   5.961   8.619 -0.7840  0.6996 -0.0294
  808MOL0     C 6580   0.438   6.044   8.723 -0.0024 -0.3036  0.8543
  808MOL0     C 6581   0.311   6.097   8.719  0.2425  0.2521  0.3347
  808MOL0     O 6582   0.263   6.192   8.795  0.6589  0.4556 -0.0534
  808MOL0     C 6583   0.320   6.210   8.932  1.2788  0.6891 -0.2808
  808MOL0     C 6584   0.211   6.288   9.016  0.5124  0.0316 -0.1685
  808MOL0     C 6585   0.091   6.210   9.050  0.9137 -0.2872 -1.2015
  808MOL0     C 6586  -0.005   6.316   9.115 -0.1305  0.0106 -0.5938
  808MOL0     C 6587  -0.122   6.247   9.155  0.7751  0.8750 -0.2367
  808MOL0     C 6588  -0.218   6.172   9.181  0.7092  0.1726 -0.9162
  808MOL0     C 6589   0.218   6.032   8.631 -0.3065 -0.1454  0.3445
  808MOL0     C 6590   0.263   5.947   8.529 -0.1801 -0.7607  0.2648
  808MOL0     H 6591   0.344   5.488   8.389 -3.1068  0.5341 -1.8728
  808MOL0     H 6592   0.366   5.323   8.221  0.6891 -1.0757 -2.0687
  808MOL0     H 6593   0.535   5.376   7.785 -0.4619 -1.4365 -1.8759
  808MOL0     H 6594   0.407   5.502   7.787  0.4319  0.9363 -0.0183
  808MOL0     H 6595   0.349   5.206   7.776  2.8972  0.5693  0.2777
  808MOL0     H 6596   0.398   5.297   7.640 -1.3107 -3.9063  0.7956
  808MOL0     H 6597   0.216   5.442   7.635  1.4278  1.3130  1.0318
  808MOL0     H 6598   0.167   5.404   7.801 -1.3592 -0.0087 -0.8608
  808MOL0     H 6599   0.182   5.189   7.602 -0.0707  0.7519 -1.0758
  808MOL0     H 6600   0.099   5.179   7.758 -2.2211 -2.3966 -1.3349
  808MOL0     H 6601  -0.029   5.180   7.549 -1.9627  1.2748 -0.8689
  808MOL0     H 6602   0.020   5.344   7.507 -5.3022  2.5275 -0.0292
  808MOL0     H 6603  -0.165   5.261   7.739 -0.1337 -0.5778  0.2078
  808MOL0     H 6604  -0.201   5.316   7.576  1.0552  4.0052 -0.6717
  808MOL0     H 6605  -0.025   5.479   7.768 -1.7522  2.1937  2.2568
  808MOL0     H 6606  -0.091   5.537   7.621 -0.8740 -0.3507 -0.7570
  808MOL0     H 6607  -0.325   5.534   7.708  1.1591  2.3209 -0.2440
  808MOL0     H 6608  -0.217   5.634   7.801 -1.4120  0.2056  1.8564
  808MOL0     H 6609  -0.223   5.616   8.064 -0.8553 -0.2548  2.0673
  808MOL0     H 6610  -0.291   5.533   8.291 -0.0315  0.4624  0.2696
  808MOL0     H 6611  -0.363   5.366   8.297 -1.7272 -1.9271 -2.7503
  808MOL0     H 6612  -0.580   5.469   8.294 -0.5423  1.1572  1.6967
  808MOL0     H 6613  -0.544   5.579   8.166 -1.3769 -5.5321 -2.9151
  808MOL0     H 6614  -0.582   5.677   8.418  0.0628  0.4766  1.4327
  808MOL0     H 6615  -0.419   5.620   8.453 -0.3479 -0.6994  0.0977
  808MOL0     H 6616  -0.321   5.750   8.296  0.4528 -2.0128  1.5052
  808MOL0     H 6617  -0.443   5.861   8.375  1.0794  1.2632 -0.7838
  808MOL0     H 6618  -0.642   5.958   8.339  0.9875  2.0092  0.4047
  808MOL0     H 6619  -0.820   6.097   8.262  0.5468  0.1622  0.5790
  808MOL0     H 6620  -1.158   6.183   7.880 -1.6369  0.7071 -0.4969
  808MOL0     H 6621  -1.336   6.339   7.823 -0.4284 -2.6506  3.6333
  808MOL0     H 6622  -1.346   6.539   7.715  0.5274 -0.3953  1.3495
  808MOL0     H 6623  -1.289   6.704   7.753 -0.0934  1.0170  2.8128
  808MOL0     H 6624  -1.503   6.753   7.678  1.9187 -1.2552 -0.3467
  808MOL0     H 6625  -1.486   6.780   7.847  0.7353 -2.1585  1.3994
  808MOL0     H 6626  -1.711   6.695   7.833 -1.2863 -0.8203  1.3987
  808MOL0     H 6627  -1.604   6.557   7.899 -0.6183  1.0351  0.7802
  808MOL0     H 6628  -1.598   6.456   7.691  0.4323  0.2048 -0.7763
  808MOL0     H 6629  -1.759   6.466   7.764 -0.3715  0.9881  3.3431
  808MOL0     H 6630  -1.720   6.524   7.515  2.3478  1.7624 -0.8668
  808MOL0     H 6631  -1.680   6.686   7.566  0.6938 -1.9796 -2.5129
  808MOL0     H 6632  -1.874   6.735   7.675 -2.5198  0.6482  0.6549
  808MOL0     H 6633  -1.943   6.573   7.656  0.4670  0.2871  1.2071
  808MOL0     H 6634  -1.913   6.781   7.452 -2.1846  0.4743  1.2033
  808MOL0     H 6635  -1.887   6.614   7.398  0.8241 -1.6102  2.0442
  808MOL0     H 6636  -2.115   6.567   7.470 -1.3205 -0.4780  1.7711
  808MOL0     H 6637  -2.126   6.717   7.372  0.7639 -1.0837 -0.4932
  808MOL0     H 6638  -1.169   6.622   8.098 -0.6976  2.3974 -3.7927
  808MOL0     H 6639  -0.978   6.462   8.136  2.1265 -0.7156 -2.0186
  808MOL0     H 6640  -0.752   5.952   7.856 -1.5057 -0.3049 -0.0560
  808MOL0     H 6641  -0.541   5.843   7.945  3.1177 -0.1312  1.1742
  808MOL0     H 6642   0.472   5.656   7.950 -4.0407  3.9850  1.0907
  808MOL0     H 6643   0.438   5.805   8.150  4.3957 -1.2532  3.9718
  808MOL0     H 6644   0.576   5.912   8.616 -0.4341  1.3508 -3.7733
  808MOL0     H 6645   0.506   6.075   8.802 -0.5084  1.0440  0.7987
  808MOL0     H 6646   0.405   6.279   8.936  0.9372  1.1702 -0.9667
  808MOL0     H 6647   0.330   6.112   8.980 -0.9455  0.6622  0.2557
  808MOL0     H 6648   0.254   6.332   9.106  2.6216  0.8746 -1.4875
  808MOL0     H 6649   0.188   6.376   8.955  0.5045 -0.6159 -1.1341
  808MOL0     H 6650   0.135   6.134   9.116 -0.4479  0.4311  0.6296
  808MOL0     H 6651   0.048   6.157   8.965 -2.0473 -2.0268  1.1602
  808MOL0     H 6652   0.052   6.361   9.197 -0.0077  3.1363 -2.2271
  808MOL0     H 6653  -0.024   6.396   9.042 -1.8220 -2.0696 -2.5966
  808MOL0     H 6654  -0.300   6.111   9.211  0.4570  1.7996  2.1036
  808MOL0     H 6655   0.116   6.066   8.629 -0.0787  0.6208  1.0603
  808MOL0     H 6656   0.188   5.895   8.469 -3.3004  1.7912  1.6568
  809MOL0     O 6657   5.640   3.327   8.163  1.1832 -0.4084 -0.5941
  809MOL0     C 6658   5.582   3.255   8.087 -0.3282 -0.0740  0.4270
  809MOL0     O 6659   5.560   3.119   8.110  0.0371  0.7169  0.3751
  809MOL0     C 6660   5.610   3.061   8.223 -0.2722 -0.4694  0.1667
  809MOL0     C 6661   5.716   2.971   8.207 -0.2578 -1.0262 -0.5630
  809MOL0     C 6662   5.787   2.928   8.325  0.2819 -0.0170  0.1960
  809MOL0     C 6663   5.747   2.966   8.456 -0.0106  1.5216 -0.0345
  809MOL0     O 6664   5.818   2.928   8.565 -1.1095 -0.4445  0.2421
  809MOL0     C 6665   5.781   2.946   8.703  0.0579  0.2569  0.6940
  809MOL0     C 6666   5.883   2.905   8.812 -0.5531 -1.2246 -0.2034
  809MOL0     C 6667   5.934   2.765   8.790 -0.3411  0.1430  0.2154
  809MOL0     C 6668   6.029   2.724   8.903  0.2876 -0.2945 -0.6905
  809MOL0     C 6669   6.074   2.580   8.911 -0.0302 -0.1425  0.9695
  809MOL0     C 6670   6.153   2.544   8.777  0.2942  0.1706  1.3051
  809MOL0     C 6671   6.161   2.389   8.763  0.0658  0.0855 -0.2016
  809MOL0     C 6672   6.048   2.331   8.680  0.0588  0.8407 -0.3465
  809MOL0     N 6673   6.066   2.348   8.539 -0.1327  0.0982  0.0348
  809MOL0     C 6674   5.999   2.438   8.460  0.0359 -0.4060  0.4313
  809MOL0     C 6675   6.056   2.447   8.334  0.7206  1.3223 -0.1859
  809MOL0     C 6676   6.009   2.540   8.221  0.2704 -0.8312 -0.8313
  809MOL0     C 6677   6.121   2.635   8.176 -0.0398 -0.5926 -0.5499
  809MOL0     C 6678   6.076   2.747   8.082 -0.3027 -0.4247 -0.0473
  809MOL0     C 6679   6.055   2.688   7.941 -0.2535 -0.1640 -0.9674
  809MOL0     O 6680   6.006   2.779   7.842  0.1119  0.7392  0.0177
  809MOL0     C 6681   6.074   2.786   7.730 -0.4843  0.2323 -0.2744
  809MOL0     C 6682   6.187   2.874   7.728  0.2856 -0.5988 -0.2060
  809MOL0     C 6683   6.263   2.882   7.615  1.1049 -0.6059  0.4684
  809MOL0     C 6684   6.237   2.803   7.499  0.1545  0.1728 -0.6316
  809MOL0     C 6685   6.302   2.819   7.367  0.0056 -0.3971  0.1140
  809MOL0     O 6686   6.431   2.868   7.386  0.3659 -0.4058  0.3615
  809MOL0     C 6687   6.508   2.907   7.275  0.4728 -0.1247 -1.4615
  809MOL0     C 6688   6.488   3.037   7.213  0.7958  0.1425  0.1199
  809MOL0     C 6689   6.579   3.073   7.110  0.5022 -0.4684 -0.9278
  809MOL0     C 6690   6.674   2.984   7.059 -0.1552  0.0710 -0.1910
  809MOL0     O 6691   6.764   3.020   6.965 -0.9105 -1.0162 -0.3675
  809MOL0     C 6692   6.730   3.129   6.873 -0.3968  0.1549  0.4052
  809MOL0     C 6693   6.787   3.269   6.894  0.6081  0.3262 -0.4814
  809MOL0     C 6694   6.705   3.373   6.812 -0.1808  0.1633 -0.0079
  809MOL0     C 6695   6.667   3.341   6.665 -0.0955  0.1368 -0.3845
  809MOL0     C 6696   6.570   3.454   6.613  0.3841 -0.8008  0.2047
  809MOL0     C 6697   6.560   3.447   6.471 -0.4190  0.7946  0.8350
  809MOL0     C 6698   6.431   3.501   6.413 -0.2024 -0.3528 -0.0471
  809MOL0     C 6699   6.418   3.497   6.262 -0.5006 -1.5374  0.3105
  809MOL0    Cl 6700   6.520   3.638   6.191  0.5212  0.0563  0.1992
  809MOL0     C 6701   6.687   2.848   7.111  1.0290  0.0326 -0.0696
  809MOL0     C 6702   6.608   2.825   7.224 -0.1775 -0.3492  0.4818
  809MOL0     O 6703   6.266   2.779   7.260  0.2491 -0.2481 -0.1852
  809MOL0     C 6704   6.131   2.711   7.509  0.1736  0.3314  0.1969
  809MOL0     C 6705   6.058   2.694   7.623 -0.2860 -0.0801 -0.9165
  809MOL0     N 6706   6.177   2.370   8.356  0.0432  0.6786 -0.5494
  809MOL0     N 6707   6.181   2.314   8.469  0.6258 -0.2191  0.4257
  809MOL0     C 6708   5.631   3.044   8.470  0.2321 -0.7269 -0.1066
  809MOL0     C 6709   5.565   3.093   8.359 -0.3685  0.2975 -0.1948
  809MOL0     C 6710   5.548   3.306   7.953 -0.3288 -0.6944  0.0989
  809MOL0     C 6711   5.548   3.448   7.929  0.8668 -0.5867  0.8453
  809MOL0     C 6712   5.497   3.503   7.808  0.9226  0.2553  0.9677
  809MOL0     C 6713   5.436   3.416   7.714 -0.2975  1.2976 -0.5729
  809MOL0     O 6714   5.385   3.483   7.612 -0.2966  0.4521  0.4886
  809MOL0     C 6715   5.373   3.411   7.491 -0.7045  0.5684  0.8409
  809MOL0     C 6716   5.441   3.494   7.393 -0.7686  0.3599  0.2083
  809MOL0     C 6717   5.467   3.416   7.260  0.2631  0.4199 -0.1785
  809MOL0     C 6718   5.536   3.495   7.158 -0.5192  0.8453 -0.4125
  809MOL0     C 6719   5.530   3.428   7.026  0.3236 -0.5284  0.4292
  809MOL0     C 6720   5.505   3.388   6.909  0.1587 -0.0954  0.2611
  809MOL0     C 6721   5.431   3.274   7.739  0.7661  0.1555  1.0283
  809MOL0     C 6722   5.490   3.227   7.851 -0.1082  0.4904  0.5278
  809MOL0     H 6723   5.734   2.940   8.105 -3.2838 -0.9157 -1.2212
  809MOL0     H 6724   5.866   2.853   8.324 -0.6863 -1.0909  0.8533
  809MOL0     H 6725   5.693   2.886   8.727  0.3813 -0.6716 -0.3402
  809MOL0     H 6726   5.760   3.054   8.709  1.3107  0.8384 -2.9347
  809MOL0     H 6727   5.819   2.897   8.901  0.0160  0.6679  0.4202
  809MOL0     H 6728   5.967   2.974   8.816  1.4365 -3.5595  0.6424
  809MOL0     H 6729   5.970   2.767   8.687 -1.7157 -1.5853 -0.3430
  809MOL0     H 6730   5.845   2.703   8.801  0.6472 -1.4909 -0.5760
  809MOL0     H 6731   6.116   2.791   8.909 -0.4254  0.5922  0.0061
  809MOL0     H 6732   5.970   2.748   8.991 -2.1249  1.3392 -2.6056
  809MOL0     H 6733   5.988   2.515   8.931 -0.1440 -0.1346  0.5181
  809MOL0     H 6734   6.140   2.552   8.994  0.3575 -3.4011 -0.2904
  809MOL0     H 6735   6.250   2.593   8.774  2.3265 -3.5396  0.5185
  809MOL0     H 6736   6.098   2.583   8.691  0.4631 -0.1101  1.0704
  809MOL0     H 6737   6.252   2.346   8.721  1.0879 -0.5424  2.4629
  809MOL0     H 6738   6.165   2.354   8.867 -1.1364 -0.4845 -0.3318
  809MOL0     H 6739   5.956   2.381   8.709 -1.3244 -1.0134 -1.3521
  809MOL0     H 6740   6.038   2.224   8.698 -3.6320  1.6205  4.1110
  809MOL0     H 6741   5.907   2.491   8.486 -2.8855 -4.0526 -1.3994
  809MOL0     H 6742   5.926   2.603   8.255  0.2409 -0.5221 -1.4706
  809MOL0     H 6743   5.973   2.487   8.133  0.4833 -0.3318 -1.2226
  809MOL0     H 6744   6.201   2.573   8.134  0.7270 -0.7318  1.0632
  809MOL0     H 6745   6.163   2.677   8.267 -2.8269 -0.4932  0.8061
  809MOL0     H 6746   5.994   2.802   8.131  1.2911  0.6930  1.5160
  809MOL0     H 6747   6.165   2.811   8.071 -0.6777  0.5984  2.1900
  809MOL0     H 6748   5.986   2.604   7.953 -1.8114  1.3551  1.5606
  809MOL0     H 6749   6.152   2.648   7.910  0.0894 -0.0717 -0.0295
  809MOL0     H 6750   6.199   2.949   7.806  1.0760 -1.4938  0.5608
  809MOL0     H 6751   6.333   2.964   7.603  0.5980 -0.5114 -2.8769
  809MOL0     H 6752   6.416   3.106   7.256 -1.1295 -1.4087 -0.4820
  809MOL0     H 6753   6.564   3.174   7.072 -2.5694  0.0727  1.3820
  809MOL0     H 6754   6.621   3.125   6.861 -0.5374 -0.7964  1.7728
  809MOL0     H 6755   6.779   3.098   6.781 -2.6388  2.0126 -1.5381
  809MOL0     H 6756   6.895   3.268   6.876  0.3841 -1.2855 -2.0606
  809MOL0     H 6757   6.780   3.288   7.002  1.3317  2.0918 -0.7138
  809MOL0     H 6758   6.759   3.468   6.817 -1.6200  1.0702 -0.7873
  809MOL0     H 6759   6.609   3.387   6.862 -0.1693  3.4871 -0.6770
  809MOL0     H 6760   6.756   3.324   6.603  1.5279 -1.8474  2.2731
  809MOL0     H 6761   6.605   3.251   6.658  1.7093 -1.1768 -0.3182
  809MOL0     H 6762   6.609   3.552   6.640  0.8629 -0.5148 -1.4009
  809MOL0     H 6763   6.473   3.420   6.651  1.2909 -3.8080  0.1048
  809MOL0     H 6764   6.568   3.347   6.426  4.0637  1.6614 -0.8950
  809MOL0     H 6765   6.643   3.499   6.421  1.2898 -2.2475  0.2287
  809MOL0     H 6766   6.347   3.453   6.462 -0.6224 -3.2538 -3.2308
  809MOL0     H 6767   6.437   3.607   6.439  3.4581 -0.6339  0.7953
  809MOL0     H 6768   6.315   3.517   6.234 -0.9164  2.4646  3.7751
  809MOL0     H 6769   6.450   3.404   6.213 -2.2676 -2.1999  0.3515
  809MOL0     H 6770   6.755   2.775   7.070 -1.2276 -3.7794  2.3218
  809MOL0     H 6771   6.618   2.724   7.263 -1.1900 -3.6389 -6.2565
  809MOL0     H 6772   6.124   2.637   7.430  1.1887 -0.5235  0.8784
  809MOL0     H 6773   5.982   2.616   7.629 -3.0063  2.3625  5.1640
  809MOL0     H 6774   5.596   3.076   8.568 -4.0408 -1.3283 -1.2315
  809MOL0     H 6775   5.486   3.166   8.371  0.7335  1.4300  0.3833
  809MOL0     H 6776   5.601   3.515   7.996  0.7742  1.5554 -1.0810
  809MOL0     H 6777   5.506   3.609   7.790  1.7203  0.4633  2.4480
  809MOL0     H 6778   5.269   3.407   7.460 -1.1683  1.1869  2.2315
  809MOL0     H 6779   5.418   3.311   7.497 -1.1851  0.3944  1.7282
  809MOL0     H 6780   5.387   3.587   7.373 -3.1884 -0.8356  0.7590
  809MOL0     H 6781   5.540   3.510   7.436 -2.0586  1.9655  2.8579
  809MOL0     H 6782   5.373   3.379   7.217 -0.8580  0.4008  2.1486
  809MOL0     H 6783   5.516   3.323   7.291 -3.2572 -1.0155  1.7143
  809MOL0     H 6784   5.491   3.593   7.145 -1.2456  0.7892  1.3714
  809MOL0     H 6785   5.638   3.516   7.194 -1.8061  1.2994  3.4510
  809MOL0     H 6786   5.498   3.356   6.807  2.9564  0.4016 -0.1760
  809MOL0     H 6787   5.367   3.212   7.677 -1.1330  1.9350  1.0969
  809MOL0     H 6788   5.483   3.119   7.862  0.3222  0.3533 -0.4637
  810MOL0     O 6789  10.763   9.916   7.892 -1.4387  0.0690 -0.6353
  810MOL0     C 6790  10.785   9.990   7.797 -0.9672  0.2340  0.0998
  810MOL0     O 6791  10.693  10.024   7.700  0.4099 -0.7254 -0.1164
  810MOL0     C 6792  10.566   9.971   7.740 -0.6903 -0.7867 -0.1916
  810MOL0     C 6793  10.483  10.017   7.843 -0.3546 -0.2810  0.6647
  810MOL0     C 6794  10.368   9.954   7.872  0.8749 -0.1598 -0.5157
  810MOL0     C 6795  10.329   9.837   7.803 -0.5058 -0.0909 -0.2228
  810MOL0     O 6796  10.207   9.784   7.810  0.5762  0.1149  0.0551
  810MOL0     C 6797  10.191   9.642   7.775  0.2289 -0.3469  0.5152
  810MOL0     C 6798  10.083   9.577   7.858 -0.5023  0.0322  0.0828
  810MOL0     C 6799   9.947   9.660   7.853 -0.5446  0.4422 -0.1904
  810MOL0     C 6800   9.871   9.628   7.980 -0.6529 -0.6996  0.1102
  810MOL0     C 6801   9.757   9.736   8.001  0.2776 -0.1891 -0.4352
  810MOL0     C 6802   9.717   9.775   8.151  0.1860  0.1615  0.5528
  810MOL0     C 6803   9.655   9.656   8.228  0.7184  0.1208 -0.0576
  810MOL0     C 6804   9.539   9.581   8.154 -0.0685 -0.3367  0.2418
  810MOL0     N 6805   9.414   9.659   8.171 -0.3983  0.0941 -0.7916
  810MOL0     C 6806   9.338   9.679   8.284  0.7051  0.5194 -0.6349
  810MOL0     C 6807   9.245   9.779   8.248 -0.5610 -0.2549  0.3588
  810MOL0     C 6808   9.132   9.806   8.336 -0.4268 -0.3088 -0.4364
  810MOL0     C 6809   9.107   9.957   8.338 -0.2663  0.3356 -0.7347
  810MOL0     C 6810   8.997   9.992   8.427 -0.2447  0.1546 -0.8959
  810MOL0     C 6811   8.866   9.970   8.345 -0.5904 -0.3066  0.1740
  810MOL0     O 6812   8.752   9.940   8.432  0.7656  0.5506 -0.4496
  810MOL0     C 6813   8.634   9.942   8.363 -0.3461  0.0091  0.3152
  810MOL0     C 6814   8.577   9.816   8.335  0.1794  0.3762 -0.0984
  810MOL0     C 6815   8.472   9.803   8.243  0.1999  0.0432  0.0988
  810MOL0     C 6816   8.401   9.923   8.199 -1.2638  0.5102 -0.4937
  810MOL0     C 6817   8.284   9.907   8.110 -1.3049 -0.0000 -0.7540
  810MOL0     O 6818   8.205  10.013   8.115  0.4451  0.2314  0.2600
  810MOL0     C 6819   8.090  10.022   8.044 -0.1402 -0.0420  1.0069
  810MOL0     C 6820   8.070  10.143   7.986 -0.2491 -0.7658 -0.4556
  810MOL0     C 6821   7.962  10.165   7.896  0.6694  0.3405  0.0973
  810MOL0     C 6822   7.862  10.069   7.884  0.5963  0.1070  0.5806
  810MOL0     O 6823   7.765  10.091   7.793 -0.3775  0.7100  0.6025
  810MOL0     C 6824   7.662   9.994   7.758  0.5450  0.1368  0.3461
  810MOL0     C 6825   7.717   9.914   7.644 -0.2135  0.4669 -0.5960
  810MOL0     C 6826   7.639   9.789   7.605 -0.7911  0.1096 -0.2761
  810MOL0     C 6827   7.493   9.805   7.566 -0.3512  0.1154  0.0989
  810MOL0     C 6828   7.456   9.716   7.453 -0.0022 -0.0101 -0.4208
  810MOL0     C 6829   7.309   9.704   7.416  0.7361  0.4097  0.0683
  810MOL0     C 6830   7.267   9.590   7.319  0.4950 -0.6453 -0.1957
  810MOL0     C 6831   7.311   9.456   7.359  0.1872  0.2797 -0.5597
  810MOL0    Cl 6832   7.276   9.439   7.532  0.1380  0.4878 -0.0471
  810MOL0     C 6833   7.875   9.951   7.964  0.2344 -0.9690 -0.1598
  810MOL0     C 6834   7.991   9.924   8.036 -0.4139  0.4327 -0.1170
  810MOL0     O 6835   8.262   9.795   8.070  0.0112 -0.0230  0.0844
  810MOL0     C 6836   8.461  10.049   8.225 -0.9180 -0.3337  0.2474
  810MOL0     C 6837   8.574  10.055   8.304 -0.4563 -0.4683  0.2977
  810MOL0     N 6838   9.265   9.802   8.110 -0.2367  0.6984  0.2329
  810MOL0     N 6839   9.359   9.721   8.067 -0.0558  0.1478 -0.1770
  810MOL0     C 6840  10.422   9.795   7.702 -1.1896  0.4452  0.1627
  810MOL0     C 6841  10.538   9.860   7.670  0.6211 -0.6809  0.3428
  810MOL0     C 6842  10.915  10.069   7.813  0.0193  0.5926 -0.0229
  810MOL0     C 6843  10.933  10.186   7.743 -0.4266  1.0550 -0.4933
  810MOL0     C 6844  11.044  10.264   7.758 -0.8434  0.0506  0.0793
  810MOL0     C 6845  11.156  10.221   7.833  0.0307 -1.0774  1.0714
  810MOL0     O 6846  11.261  10.300   7.861  0.2137 -0.6294 -0.3316
  810MOL0     C 6847  11.247  10.439   7.880 -0.4557 -0.0891 -0.1117
  810MOL0     C 6848  11.383  10.481   7.939  0.0781  0.0022 -1.1227
  810MOL0     C 6849  11.501  10.513   7.848 -0.4551 -0.7301  0.2629
  810MOL0     C 6850  11.479  10.617   7.731 -0.5109  0.4854 -0.3245
  810MOL0     C 6851  11.582  10.628   7.631 -0.4668 -1.2294  1.0270
  810MOL0     C 6852  11.666  10.656   7.554  0.4593  0.5367 -0.1389
  810MOL0     C 6853  11.143  10.091   7.893 -0.0343  0.6116  0.5942
  810MOL0     C 6854  11.023  10.019   7.896  0.1370  0.3295  0.7188
  810MOL0     H 6855  10.503  10.105   7.904 -2.8264  0.1681  0.9309
  810MOL0     H 6856  10.300   9.990   7.949 -0.5703  0.1158 -1.8650
  810MOL0     H 6857  10.274   9.571   7.775 -1.4245 -2.4160 -0.9283
  810MOL0     H 6858  10.167   9.642   7.668  0.4601 -0.3046  0.4623
  810MOL0     H 6859  10.133   9.570   7.954 -0.4196 -1.5652 -0.0489
  810MOL0     H 6860  10.079   9.476   7.818  0.1456  0.2184 -0.4715
  810MOL0     H 6861   9.884   9.643   7.765  0.4888 -3.3687 -0.3610
  810MOL0     H 6862   9.976   9.765   7.845  0.4181  0.0158 -3.7407
  810MOL0     H 6863   9.825   9.529   7.983  2.0417 -2.0463  2.6387
  810MOL0     H 6864   9.943   9.643   8.061 -2.5012  2.4553  1.3554
  810MOL0     H 6865   9.674   9.707   7.936  1.4803  1.9259 -3.0992
  810MOL0     H 6866   9.786   9.827   7.949  0.6779  0.2734  0.5740
  810MOL0     H 6867   9.661   9.868   8.164  1.3533  0.8950  0.5121
  810MOL0     H 6868   9.816   9.793   8.195  0.4356 -1.1892  0.5834
  810MOL0     H 6869   9.736   9.584   8.240  0.8813  0.2038 -0.6133
  810MOL0     H 6870   9.628   9.680   8.331  1.2855 -1.2752  0.4373
  810MOL0     H 6871   9.522   9.486   8.205 -2.7860 -0.4622 -0.7575
  810MOL0     H 6872   9.568   9.555   8.051  0.8055 -0.0858  0.4170
  810MOL0     H 6873   9.361   9.626   8.375  1.4327 -0.2558 -1.2525
  810MOL0     H 6874   9.155   9.784   8.440  1.1805  0.4626 -0.6052
  810MOL0     H 6875   9.037   9.760   8.305 -1.1394  1.8688 -1.7791
  810MOL0     H 6876   9.072   9.994   8.241  1.9256 -0.4561 -1.8812
  810MOL0     H 6877   9.197  10.009   8.372 -0.4399 -0.9438  1.9691
  810MOL0     H 6878   9.005   9.928   8.516 -1.7416 -1.1591 -1.6622
  810MOL0     H 6879   9.013  10.097   8.456  1.2490  0.6097 -3.1644
  810MOL0     H 6880   8.877   9.899   8.263 -0.8001  1.7571 -1.7404
  810MOL0     H 6881   8.843  10.062   8.290 -0.4865 -0.4280 -0.0764
  810MOL0     H 6882   8.630   9.733   8.379  1.3260  2.3098  2.4121
  810MOL0     H 6883   8.430   9.710   8.206  2.1901 -0.7691 -0.2318
  810MOL0     H 6884   8.157  10.207   7.983 -1.0545  0.5560  1.8288
  810MOL0     H 6885   7.961  10.253   7.832  0.3697  1.9041  2.1297
  810MOL0     H 6886   7.583  10.060   7.720  0.4455 -1.0414 -1.6152
  810MOL0     H 6887   7.628   9.931   7.840 -0.5100  0.3840  0.1044
  810MOL0     H 6888   7.819   9.887   7.672 -1.0752 -1.9230  0.5404
  810MOL0     H 6889   7.733   9.975   7.554  1.6623 -0.1981 -0.7480
  810MOL0     H 6890   7.653   9.710   7.679  1.3316 -0.5730 -1.3056
  810MOL0     H 6891   7.691   9.749   7.517 -2.7785 -0.2530 -1.3318
  810MOL0     H 6892   7.441   9.784   7.660  3.0459 -0.4305  2.0130
  810MOL0     H 6893   7.477   9.911   7.543  4.2072  0.6554 -1.5274
  810MOL0     H 6894   7.499   9.616   7.467 -0.8908 -0.4699 -0.9286
  810MOL0     H 6895   7.509   9.750   7.364  1.1334  2.2752  1.0294
  810MOL0     H 6896   7.279   9.795   7.363  2.7473  0.6564 -0.7335
  810MOL0     H 6897   7.238   9.698   7.500  0.1527 -2.5910 -0.5411
  810MOL0     H 6898   7.159   9.595   7.304  0.5022  0.7184  0.0957
  810MOL0     H 6899   7.312   9.616   7.223  1.2214 -1.1948 -0.0144
  810MOL0     H 6900   7.419   9.439   7.350 -0.3937 -3.3757 -3.1935
  810MOL0     H 6901   7.252   9.388   7.296 -0.8171  0.9345 -0.3464
  810MOL0     H 6902   7.805   9.868   7.968 -1.0737  0.0851 -0.5012
  810MOL0     H 6903   7.995   9.827   8.085 -0.6126  0.0120 -0.9206
  810MOL0     H 6904   8.421  10.137   8.175 -1.7083 -1.2552 -0.8017
  810MOL0     H 6905   8.623  10.151   8.312 -0.5235 -0.4459  0.4373
  810MOL0     H 6906  10.416   9.700   7.650 -2.5011 -0.9211  2.5991
  810MOL0     H 6907  10.584   9.821   7.580 -2.7677  0.5065 -2.1084
  810MOL0     H 6908  10.850  10.227   7.686 -1.6809  3.3605  2.6986
  810MOL0     H 6909  11.056  10.362   7.713 -0.2839  0.0471  0.2078
  810MOL0     H 6910  11.158  10.459   7.941 -1.7481  3.0931 -2.6782
  810MOL0     H 6911  11.217  10.494   7.790 -0.7018  2.8420  1.6330
  810MOL0     H 6912  11.366  10.558   8.015  1.3290 -1.6242  0.9133
  810MOL0     H 6913  11.425  10.401   8.000 -0.1183  2.2616  2.2413
  810MOL0     H 6914  11.528  10.422   7.794  1.3992  0.3007 -0.6405
  810MOL0     H 6915  11.587  10.550   7.905  1.5782 -0.0826 -2.9724
  810MOL0     H 6916  11.390  10.595   7.672 -0.8884  1.9670 -0.3530
  810MOL0     H 6917  11.464  10.715   7.776 -1.2174 -0.0640  0.6667
  810MOL0     H 6918  11.735  10.680   7.475  0.0622  0.4351 -0.5201
  810MOL0     H 6919  11.224  10.047   7.949 -0.6658 -1.1811  0.1800
  810MOL0     H 6920  11.012   9.924   7.947 -0.6855  0.4003  0.6810
  811MOL0     O 6921   4.589   1.703   3.201 -0.3770 -0.9825  0.0478
  811MOL0     C 6922   4.549   1.754   3.305  0.2503  0.2875 -0.4439
  811MOL0     O 6923   4.460   1.855   3.315  0.3388  0.7363  0.0648
  811MOL0     C 6924   4.405   1.906   3.199 -0.9663 -0.5352 -0.2781
  811MOL0     C 6925   4.275   1.870   3.158 -0.4159 -0.4643 -0.2094
  811MOL0     C 6926   4.208   1.943   3.061 -0.3628  0.1245  0.4813
  811MOL0     C 6927   4.273   2.034   2.982  1.0628 -0.0117  1.2750
  811MOL0     O 6928   4.203   2.086   2.877 -0.5686 -0.6876  0.2003
  811MOL0     C 6929   4.268   2.115   2.750  0.4964  0.1552  0.0195
  811MOL0     C 6930   4.326   1.991   2.678 -0.1106 -0.1051  0.3697
  811MOL0     C 6931   4.353   1.997   2.526  0.4142  0.0453 -0.6490
  811MOL0     C 6932   4.225   2.040   2.457  0.2272  0.2077 -0.1440
  811MOL0     C 6933   4.204   1.964   2.328  0.4741  0.4572  0.2619
  811MOL0     C 6934   4.119   2.054   2.237 -0.9861  0.8510 -0.5467
  811MOL0     C 6935   4.110   1.988   2.101 -0.0357  0.2312 -0.2248
  811MOL0     C 6936   4.003   2.063   2.019 -0.0765  0.4016 -0.7864
  811MOL0     N 6937   3.870   2.092   2.087 -0.1856  0.5033  0.3886
  811MOL0     C 6938   3.833   2.201   2.151  0.4857  0.0055 -0.2059
  811MOL0     C 6939   3.704   2.194   2.178  0.5745  0.3432 -0.4064
  811MOL0     C 6940   3.625   2.282   2.270  0.2757  0.7819  0.0659
  811MOL0     C 6941   3.563   2.207   2.390 -0.1957  0.0140  0.1460
  811MOL0     C 6942   3.456   2.290   2.466  0.0387  0.6704  0.1326
  811MOL0     C 6943   3.438   2.252   2.605 -0.0813  0.5644  0.2775
  811MOL0     O 6944   3.392   2.123   2.619 -0.2009  0.5620  0.6527
  811MOL0     C 6945   3.262   2.095   2.624  1.4105 -0.6307 -0.0915
  811MOL0     C 6946   3.225   1.968   2.676 -1.8096 -0.5518 -0.1724
  811MOL0     C 6947   3.099   1.910   2.681  0.0216 -1.1139 -0.8542
  811MOL0     C 6948   2.992   1.994   2.647 -0.3041 -0.1799  0.1325
  811MOL0     C 6949   2.854   1.956   2.693 -1.1388 -0.9057 -1.6625
  811MOL0     O 6950   2.857   1.852   2.772  0.7734  0.0887 -0.1244
  811MOL0     C 6951   2.732   1.797   2.814 -0.2498 -0.7364  1.2038
  811MOL0     C 6952   2.645   1.871   2.881 -0.2918 -1.2777  0.0037
  811MOL0     C 6953   2.515   1.833   2.908 -0.2577 -0.0074  0.0469
  811MOL0     C 6954   2.465   1.700   2.866  0.6195 -0.4675  1.3146
  811MOL0     O 6955   2.339   1.667   2.904 -0.1633  0.5284 -0.2878
  811MOL0     C 6956   2.287   1.547   2.850 -0.8658 -0.3985 -0.2190
  811MOL0     C 6957   2.326   1.425   2.932  0.0825 -0.5887 -0.6807
  811MOL0     C 6958   2.268   1.445   3.068 -0.7495  0.3778 -0.1759
  811MOL0     C 6959   2.265   1.307   3.152 -0.1041  0.0689  0.2295
  811MOL0     C 6960   2.184   1.309   3.282 -0.0799  0.4572 -0.6685
  811MOL0     C 6961   2.120   1.172   3.318  0.5384 -0.8480  0.2706
  811MOL0     C 6962   2.228   1.056   3.335  0.8651  1.0698  0.6361
  811MOL0     C 6963   2.331   1.107   3.442  0.3872 -0.2231 -0.2669
  811MOL0    Cl 6964   2.466   0.992   3.468 -0.0581 -0.0458  0.5603
  811MOL0     C 6965   2.559   1.626   2.803  0.3254  0.8686  0.6721
  811MOL0     C 6966   2.691   1.670   2.779  0.5866 -0.9571  0.1610
  811MOL0     O 6967   2.758   2.025   2.674  0.4067  0.2273 -0.5645
  811MOL0     C 6968   3.015   2.130   2.598  0.2490  0.7097 -0.4331
  811MOL0     C 6969   3.148   2.175   2.584 -0.3030 -0.5749  0.2159
  811MOL0     N 6970   3.661   2.072   2.119 -0.3583 -0.7091  0.2387
  811MOL0     N 6971   3.760   2.017   2.063  0.7704 -0.8110 -0.3823
  811MOL0     C 6972   4.405   2.063   3.013  0.3097 -0.3928 -0.8331
  811MOL0     C 6973   4.472   1.993   3.116 -0.8123  0.0666 -0.5566
  811MOL0     C 6974   4.579   1.686   3.431  0.4843 -0.4224  0.1104
  811MOL0     C 6975   4.625   1.555   3.426 -0.1258  0.0600  0.0019
  811MOL0     C 6976   4.678   1.494   3.539  0.2174  0.8004 -0.4260
  811MOL0     C 6977   4.680   1.558   3.655 -0.6814 -0.6099 -0.6957
  811MOL0     O 6978   4.738   1.509   3.765  0.3533  0.4788  0.2303
  811MOL0     C 6979   4.665   1.395   3.812 -0.4665 -0.3643  0.5423
  811MOL0     C 6980   4.743   1.328   3.928  0.4898 -0.6720  0.6903
  811MOL0     C 6981   4.818   1.421   4.018  0.2476 -0.4840 -0.3108
  811MOL0     C 6982   4.862   1.348   4.152 -0.2274  0.0044  0.2468
  811MOL0     C 6983   4.966   1.252   4.132 -1.2953 -0.0674  0.8913
  811MOL0     C 6984   5.055   1.174   4.107  0.1527 -0.1725  0.4462
  811MOL0     C 6985   4.654   1.697   3.656  0.0727 -0.3235 -0.5469
  811MOL0     C 6986   4.597   1.765   3.543  0.4105  0.1947 -1.1093
  811MOL0     H 6987   4.208   1.799   3.205 -1.2881  0.8512  0.5979
  811MOL0     H 6988   4.104   1.917   3.044 -2.0133  4.5344  2.1101
  811MOL0     H 6989   4.333   2.202   2.761  1.9966 -1.1887  3.2654
  811MOL0     H 6990   4.183   2.146   2.688  0.0996  3.7178  2.0815
  811MOL0     H 6991   4.250   1.916   2.701 -1.1932  1.0748  0.7378
  811MOL0     H 6992   4.410   1.956   2.740 -0.1726  3.2249  2.6043
  811MOL0     H 6993   4.386   1.897   2.497  0.6156 -0.9683  2.6924
  811MOL0     H 6994   4.439   2.063   2.509  2.5422 -2.1289  0.9514
  811MOL0     H 6995   4.136   2.036   2.520 -0.3719 -1.7579 -1.0202
  811MOL0     H 6996   4.237   2.148   2.446  2.8649 -0.0670 -0.6018
  811MOL0     H 6997   4.152   1.869   2.345 -0.7814  1.2662  1.1301
  811MOL0     H 6998   4.298   1.950   2.273 -0.1500  1.3086 -1.0619
  811MOL0     H 6999   4.165   2.153   2.231  2.8143 -0.7896 -1.1331
  811MOL0     H 7000   4.021   2.051   2.287 -0.6573 -1.5519  0.1025
  811MOL0     H 7001   4.209   1.992   2.055 -0.0426  3.7330 -0.1829
  811MOL0     H 7002   4.090   1.881   2.112  1.1286 -0.0963 -1.0781
  811MOL0     H 7003   3.987   2.006   1.927  1.3023 -2.8105  0.8000
  811MOL0     H 7004   4.041   2.159   1.981 -1.4701 -0.2531 -4.1816
  811MOL0     H 7005   3.907   2.277   2.172 -1.2408  1.4807  0.7907
  811MOL0     H 7006   3.540   2.314   2.210 -1.8573 -0.8073  2.0951
  811MOL0     H 7007   3.679   2.374   2.295  2.6804 -0.4353 -0.3545
  811MOL0     H 7008   3.644   2.177   2.457  0.5979 -2.0979 -1.6056
  811MOL0     H 7009   3.523   2.113   2.350 -2.0017  0.0858  1.6742
  811MOL0     H 7010   3.482   2.395   2.453  1.5884  0.1843 -1.0303
  811MOL0     H 7011   3.360   2.272   2.417 -0.6320  1.5261  1.0965
  811MOL0     H 7012   3.370   2.328   2.645 -3.0752 -1.7349 -0.1296
  811MOL0     H 7013   3.529   2.266   2.665 -1.0238  3.0297  1.2926
  811MOL0     H 7014   3.299   1.891   2.698  0.2212 -0.1420 -4.5381
  811MOL0     H 7015   3.091   1.812   2.728  1.2655 -0.6189  0.4670
  811MOL0     H 7016   2.688   1.963   2.919  0.6853 -2.2299  1.3149
  811MOL0     H 7017   2.444   1.890   2.967 -0.4129 -0.7331  0.5839
  811MOL0     H 7018   2.310   1.533   2.744  0.5415 -3.0998  0.3638
  811MOL0     H 7019   2.179   1.563   2.840 -0.3119  3.7619 -1.9543
  811MOL0     H 7020   2.432   1.397   2.922  0.1924 -0.9613  1.1844
  811MOL0     H 7021   2.270   1.336   2.901 -0.6069 -0.7346  0.8784
  811MOL0     H 7022   2.166   1.480   3.046  0.3062  2.9094 -1.5332
  811MOL0     H 7023   2.321   1.520   3.127 -1.8973  0.4951  0.7450
  811MOL0     H 7024   2.215   1.236   3.086 -1.2672 -3.3400  4.3243
  811MOL0     H 7025   2.360   1.258   3.175 -0.7314 -2.0098 -1.3191
  811MOL0     H 7026   2.103   1.381   3.272 -0.9192 -0.4119 -0.2821
  811MOL0     H 7027   2.248   1.353   3.359 -0.3779  0.9978 -0.7306
  811MOL0     H 7028   2.055   1.134   3.238 -2.1015 -3.4535  3.4023
  811MOL0     H 7029   2.053   1.177   3.404  1.1087 -2.5069  0.8260
  811MOL0     H 7030   2.183   0.967   3.378 -2.9441  2.2566 -0.4722
  811MOL0     H 7031   2.268   1.040   3.234  0.3179  1.8854  0.2812
  811MOL0     H 7032   2.268   1.120   3.531 -2.0003  0.1591 -1.9179
  811MOL0     H 7033   2.371   1.206   3.418  3.2637 -1.7672 -2.4842
  811MOL0     H 7034   2.545   1.524   2.767  1.7140  1.9769 -3.4156
  811MOL0     H 7035   2.756   1.615   2.712 -0.4409  0.2621 -1.9480
  811MOL0     H 7036   2.933   2.200   2.587 -1.4358 -1.1318 -0.2323
  811MOL0     H 7037   3.159   2.276   2.546 -3.9508 -0.5652 -1.2560
  811MOL0     H 7038   4.453   2.141   2.955  0.7928 -1.2109 -1.5582
  811MOL0     H 7039   4.570   2.028   3.146 -0.9823  0.5005 -0.4931
  811MOL0     H 7040   4.637   1.491   3.339  1.4536  1.1703 -0.6536
  811MOL0     H 7041   4.693   1.387   3.528  0.4033  0.7267  0.5058
  811MOL0     H 7042   4.642   1.322   3.734  1.6207 -0.7244  0.2145
  811MOL0     H 7043   4.576   1.436   3.861 -0.7780 -0.8276  0.3753
  811MOL0     H 7044   4.661   1.286   3.986 -2.2513  1.6365 -1.2627
  811MOL0     H 7045   4.809   1.253   3.882 -0.7955 -1.1128 -0.4994
  811MOL0     H 7046   4.755   1.506   4.047  0.9777  0.9825 -2.7451
  811MOL0     H 7047   4.904   1.457   3.962  0.9339 -1.5782  0.0224
  811MOL0     H 7048   4.882   1.416   4.235 -1.5163  2.9275 -1.6627
  811MOL0     H 7049   4.786   1.276   4.185  1.6809 -1.6304  1.2976
  811MOL0     H 7050   5.141   1.112   4.090 -0.2904 -0.8708  0.6943
  811MOL0     H 7051   4.680   1.759   3.741 -1.2572 -0.5688  0.0521
  811MOL0     H 7052   4.574   1.871   3.541 -0.2762  0.0417 -2.7501
  812MOL0     O 7053  11.175  11.054   9.795  0.4560  1.0977 -0.3158
  812MOL0     C 7054  11.209  11.002   9.692 -0.4091  0.3000 -0.9105
  812MOL0     O 7055  11.237  10.869   9.676 -0.5356 -0.2239  0.0206
  812MOL0     C 7056  11.194  10.789   9.778 -0.6407  0.5043 -0.1429
  812MOL0     C 7057  11.064  10.776   9.817 -0.5038  0.5026 -0.3306
  812MOL0     C 7058  11.020  10.690   9.914 -0.8262  0.2513 -0.7769
  812MOL0     C 7059  11.107  10.602   9.981  0.3719 -0.5328 -0.4706
  812MOL0     O 7060  11.065  10.500  10.074  0.1620  0.2391 -0.0481
  812MOL0     C 7061  10.933  10.451  10.076 -0.1534  0.3656  0.1799
  812MOL0     C 7062  10.914  10.350  10.193 -0.3752 -0.2385 -0.1203
  812MOL0     C 7063  10.971  10.216  10.163 -0.5939  0.0760 -0.1124
  812MOL0     C 7064  11.120  10.201  10.149  0.4166  0.7542  0.5727
  812MOL0     C 7065  11.145  10.065  10.105 -0.5708 -0.4563 -0.4915
  812MOL0     C 7066  11.289  10.026  10.110 -0.2124  0.6611 -0.3414
  812MOL0     C 7067  11.310   9.879  10.057  0.3317 -0.9790 -0.6373
  812MOL0     C 7068  11.451   9.831  10.080 -0.2363  0.7246 -0.3409
  812MOL0     N 7069  11.457   9.698  10.018 -0.0257  0.7368 -0.1409
  812MOL0     C 7070  11.401   9.581  10.060 -0.0788  0.4685 -0.0476
  812MOL0     C 7071  11.443   9.487   9.977 -0.1539 -0.0898  0.8291
  812MOL0     C 7072  11.412   9.344   9.959 -0.0158 -0.1900  0.6282
  812MOL0     C 7073  11.384   9.274  10.088 -0.6062 -0.0552 -1.3850
  812MOL0     C 7074  11.375   9.125  10.053 -0.2031  1.1254  0.0137
  812MOL0     C 7075  11.396   9.026  10.159 -0.4069  0.3764 -1.1908
  812MOL0     O 7076  11.292   9.037  10.257  0.0374 -0.0707  0.2501
  812MOL0     C 7077  11.186   8.951  10.251 -0.3873  1.1191  0.0342
  812MOL0     C 7078  11.166   8.861  10.141 -0.0476  0.1514 -0.2945
  812MOL0     C 7079  11.064   8.770  10.150  0.2785  0.5182  0.9285
  812MOL0     C 7080  10.976   8.748  10.262 -0.4057 -0.3491  0.1731
  812MOL0     C 7081  10.860   8.652  10.257  0.4917 -0.8769 -0.1603
  812MOL0     O 7082  10.795   8.609  10.381 -1.7285  0.7535  0.2783
  812MOL0     C 7083  10.701   8.514  10.358  0.7826 -0.7347  0.6957
  812MOL0     C 7084  10.574   8.568  10.336 -0.3617  0.7616 -0.0607
  812MOL0     C 7085  10.471   8.490  10.278 -0.3573  0.3899 -0.4191
  812MOL0     C 7086  10.492   8.348  10.243  0.7272  0.7004  0.0082
  812MOL0     O 7087  10.402   8.300  10.145  0.0631 -0.1997  0.1694
  812MOL0     C 7088  10.372   8.159  10.149  0.2705  0.0275  0.6070
  812MOL0     C 7089  10.246   8.146  10.074  0.7361 -0.1473  0.3332
  812MOL0     C 7090  10.202   7.992  10.059 -0.2690  0.8123 -0.3173
  812MOL0     C 7091  10.065   7.980  10.003 -0.4208 -0.7833 -0.0551
  812MOL0     C 7092  10.022   7.833  10.006 -1.1740  0.5963  0.0929
  812MOL0     C 7093   9.925   7.789   9.900  0.7193  0.3144  0.1267
  812MOL0     C 7094   9.811   7.891   9.892  0.3732 -0.7796 -0.1405
  812MOL0     C 7095   9.676   7.820   9.846 -0.5288  0.7387  0.6416
  812MOL0    Cl 7096   9.697   7.815   9.675  1.2241  0.3248 -0.1350
  812MOL0     C 7097  10.615   8.293  10.282 -0.3011  0.2053  0.0804
  812MOL0     C 7098  10.718   8.371  10.340  0.0866 -0.1542  0.6696
  812MOL0     O 7099  10.827   8.613  10.145 -0.3215  0.3373  1.0282
  812MOL0     C 7100  10.995   8.844  10.359 -0.4859 -0.7712 -0.3458
  812MOL0     C 7101  11.090   8.947  10.347  0.2177 -0.6670  0.0454
  812MOL0     N 7102  11.518   9.549   9.878 -0.3620  0.9744  0.8938
  812MOL0     N 7103  11.525   9.673   9.901  0.8041 -0.4441 -0.3616
  812MOL0     C 7104  11.244  10.617   9.957 -0.4276 -0.6748 -0.4866
  812MOL0     C 7105  11.290  10.712   9.853  0.1691 -0.3161  1.3398
  812MOL0     C 7106  11.209  11.087   9.574  0.5818 -0.3856 -0.5632
  812MOL0     C 7107  11.192  11.222   9.589  0.5672 -0.0985  0.0616
  812MOL0     C 7108  11.175  11.300   9.472 -0.3987 -0.3041  0.4829
  812MOL0     C 7109  11.175  11.242   9.339  0.0854 -0.0885 -0.9076
  812MOL0     O 7110  11.157  11.316   9.220  0.5161 -0.5774 -0.3908
  812MOL0     C 7111  11.117  11.460   9.246  0.1671  0.5193 -0.1248
  812MOL0     C 7112  11.079  11.527   9.113  0.7203  0.0634 -0.2255
  812MOL0     C 7113  11.175  11.516   8.997 -0.1762  0.0803  0.2818
  812MOL0     C 7114  11.317  11.549   9.023 -0.1189  0.2631 -0.2144
  812MOL0     C 7115  11.353  11.699   9.033 -0.3381 -0.2450  0.3118
  812MOL0     C 7116  11.374  11.808   9.071  0.1093 -0.6132  1.1117
  812MOL0     C 7117  11.194  11.101   9.337 -0.4733  0.0626 -0.8599
  812MOL0     C 7118  11.202  11.032   9.454  0.5727  0.2764 -0.1980
  812MOL0     H 7119  10.990  10.846   9.781  1.1010  2.3189 -0.2486
  812MOL0     H 7120  10.914  10.687   9.938 -0.1495 -2.5960  2.8131
  812MOL0     H 7121  10.914  10.391   9.986  1.5634 -1.5689  1.0250
  812MOL0     H 7122  10.859  10.531  10.091 -1.1267 -0.5600  0.4419
  812MOL0     H 7123  10.806  10.347  10.213 -0.2210 -1.0277  0.7303
  812MOL0     H 7124  10.956  10.392  10.285  0.2034  0.8798 -0.8723
  812MOL0     H 7125  10.929  10.179  10.069 -1.6314  1.0460 -0.0542
  812MOL0     H 7126  10.940  10.152  10.246 -0.4099 -2.0862 -1.6546
  812MOL0     H 7127  11.166  10.265  10.073  0.1162 -1.3762 -1.5027
  812MOL0     H 7128  11.163  10.215  10.249 -0.8798 -1.6683  1.5598
  812MOL0     H 7129  11.105  10.059  10.003 -0.3875  1.6329 -0.7229
  812MOL0     H 7130  11.092   9.991  10.166  1.3943 -0.8985  0.7833
  812MOL0     H 7131  11.325  10.044  10.212 -2.1315 -0.4255  0.5866
  812MOL0     H 7132  11.353  10.086  10.044  1.8305  1.6493  2.3544
  812MOL0     H 7133  11.238   9.809  10.100  0.6157 -0.2210  1.1478
  812MOL0     H 7134  11.284   9.867   9.952 -0.5141 -0.4187 -0.4994
  812MOL0     H 7135  11.444   9.823  10.188 -2.9595  0.9989 -0.4258
  812MOL0     H 7136  11.522   9.906  10.044  1.2642 -1.2070 -1.5929
  812MOL0     H 7137  11.328   9.578  10.140 -0.1353 -0.6700 -0.1369
  812MOL0     H 7138  11.502   9.301   9.915 -0.3565 -2.5533  2.0406
  812MOL0     H 7139  11.325   9.329   9.895 -0.7912 -1.9727  2.0169
  812MOL0     H 7140  11.296   9.305  10.145  0.4914  0.4082  0.1350
  812MOL0     H 7141  11.466   9.292  10.159  0.3242 -0.7393 -2.2497
  812MOL0     H 7142  11.272   9.115  10.017 -1.3274  0.8624  2.9721
  812MOL0     H 7143  11.445   9.105   9.972 -0.6970 -1.0504  0.0807
  812MOL0     H 7144  11.492   9.054  10.203  0.6655 -1.5775 -2.1478
  812MOL0     H 7145  11.412   8.927  10.115 -0.3062  0.9637 -2.5356
  812MOL0     H 7146  11.215   8.870  10.045 -2.5635  1.9460 -1.5057
  812MOL0     H 7147  11.048   8.697  10.071 -0.4293 -0.0863  1.6297
  812MOL0     H 7148  10.554   8.667  10.375  0.7849 -0.2476  3.4740
  812MOL0     H 7149  10.373   8.530  10.257 -1.1046 -0.8034  0.6178
  812MOL0     H 7150  10.341   8.133  10.250 -0.5900  2.4056  1.0003
  812MOL0     H 7151  10.454   8.088  10.129 -1.4149 -2.5562  2.1974
  812MOL0     H 7152  10.272   8.205   9.986  1.7229  0.0446  0.7368
  812MOL0     H 7153  10.171   8.201  10.132  0.7635  1.8883 -1.4266
  812MOL0     H 7154  10.201   7.951  10.160 -3.0467  1.1200 -0.1639
  812MOL0     H 7155  10.277   7.938  10.000  1.2406  0.5451  1.7569
  812MOL0     H 7156  10.003   8.045  10.065 -0.9882 -0.9300 -0.4672
  812MOL0     H 7157  10.067   7.999   9.895  1.6782  0.8987  0.2085
  812MOL0     H 7158   9.987   7.806  10.106  2.6519  0.0901  1.4618
  812MOL0     H 7159  10.109   7.767  10.005 -1.2493  0.4910 -0.8615
  812MOL0     H 7160   9.885   7.695   9.939 -3.1445  1.6116 -0.2529
  812MOL0     H 7161   9.971   7.765   9.804  2.3747 -0.3256  1.0417
  812MOL0     H 7162   9.776   7.917   9.992 -0.3577 -4.6425  0.7789
  812MOL0     H 7163   9.828   7.979   9.830  1.0603 -1.3433 -0.7790
  812MOL0     H 7164   9.590   7.880   9.877 -0.3823  1.1591  0.2454
  812MOL0     H 7165   9.667   7.717   9.881  2.4437  1.1397  3.0185
  812MOL0     H 7166  10.633   8.190  10.255 -1.8240  0.0340 -0.3463
  812MOL0     H 7167  10.817   8.334  10.367 -0.7831 -1.5148  2.1492
  812MOL0     H 7168  10.938   8.849  10.452 -0.8199  0.8497 -0.6030
  812MOL0     H 7169  11.110   9.030  10.414  0.2433  1.4967 -2.4432
  812MOL0     H 7170  11.322  10.552   9.995 -1.1252 -2.4181 -1.8994
  812MOL0     H 7171  11.396  10.724   9.833  0.2510 -0.9605  1.3936
  812MOL0     H 7172  11.189  11.272   9.685  1.3841  0.5416 -0.2191
  812MOL0     H 7173  11.150  11.402   9.500  0.7337  0.6370 -1.6385
  812MOL0     H 7174  11.202  11.508   9.296  3.7858 -4.4137 -0.7350
  812MOL0     H 7175  11.024  11.473   9.302 -0.0813 -1.6544  0.0804
  812MOL0     H 7176  10.985  11.478   9.085  1.1570  0.3774 -2.3791
  812MOL0     H 7177  11.049  11.632   9.127  3.3191  0.6047  2.3558
  812MOL0     H 7178  11.147  11.579   8.912  1.4203  2.0433  1.1316
  812MOL0     H 7179  11.173  11.412   8.962  0.8318 -1.2425  3.7892
  812MOL0     H 7180  11.370  11.494   9.101  4.5641  1.5346 -2.1368
  812MOL0     H 7181  11.361  11.503   8.934  0.3221 -0.6220  0.4472
  812MOL0     H 7182  11.403  11.908   9.099  1.5430 -0.8888  0.7070
  812MOL0     H 7183  11.193  11.056   9.238 -4.3438  1.4953 -1.6468
  812MOL0     H 7184  11.198  10.924   9.448  1.0015  0.2783 -0.5770
  813MOL0     O 7185  10.406   5.894   8.728 -0.1608  0.4194  0.7008
  813MOL0     C 7186  10.397   5.932   8.616 -0.4190  0.1190  0.1656
  813MOL0     O 7187  10.487   5.988   8.537 -0.4045 -0.8655 -0.6094
  813MOL0     C 7188  10.611   6.008   8.591  0.8879 -0.7435  0.6901
  813MOL0     C 7189  10.681   5.912   8.659 -0.7193  0.0965  0.0722
  813MOL0     C 7190  10.816   5.923   8.677  0.1846  0.1296  0.3092
  813MOL0     C 7191  10.886   6.036   8.641  0.5733  0.0821  1.1825
  813MOL0     O 7192  11.021   6.055   8.662  0.0534 -0.4778  0.2768
  813MOL0     C 7193  11.071   6.103   8.795  0.1619  0.0078  0.5582
  813MOL0     C 7194  11.092   6.257   8.787 -0.9693 -0.4368 -0.8868
  813MOL0     C 7195  11.174   6.290   8.659 -0.7271 -0.3105 -0.1059
  813MOL0     C 7196  11.208   6.437   8.661 -0.5947 -1.0864 -0.1204
  813MOL0     C 7197  11.296   6.476   8.546 -0.6683 -0.2705  0.3439
  813MOL0     C 7198  11.444   6.461   8.577  0.3997  0.5629  0.0649
  813MOL0     C 7199  11.491   6.545   8.691 -0.0091  0.0253  0.7422
  813MOL0     C 7200  11.648   6.568   8.679  0.9085 -0.2366  0.1093
  813MOL0     N 7201  11.694   6.653   8.569 -0.0210  0.0721 -0.6263
  813MOL0     C 7202  11.801   6.628   8.482 -1.0729 -0.2859 -0.5746
  813MOL0     C 7203  11.822   6.727   8.398  0.1276 -0.6520  1.3287
  813MOL0     C 7204  11.904   6.732   8.270  0.3656  0.1577 -0.2218
  813MOL0     C 7205  12.049   6.784   8.289 -0.1040  0.5164  0.3039
  813MOL0     C 7206  12.041   6.935   8.323 -0.5894  0.2983  0.1143
  813MOL0     C 7207  12.172   6.996   8.278 -0.1826 -0.0766  0.2759
  813MOL0     O 7208  12.285   6.928   8.333  0.5568  0.4735  0.1233
  813MOL0     C 7209  12.368   6.845   8.255 -0.1494  0.0204 -1.0044
  813MOL0     C 7210  12.439   6.741   8.312 -0.2798  0.1324 -0.3215
  813MOL0     C 7211  12.535   6.676   8.231 -0.2310  0.0912  0.4498
  813MOL0     C 7212  12.564   6.708   8.102  0.1911 -0.4183 -0.5493
  813MOL0     C 7213  12.659   6.640   8.026 -0.5736  0.3458  0.2822
  813MOL0     O 7214  12.669   6.502   8.037  0.9001 -0.4742 -0.3096
  813MOL0     C 7215  12.784   6.449   7.990 -0.1048 -0.1835 -0.3168
  813MOL0     C 7216  12.874   6.399   8.088  0.6208  0.0738  1.3173
  813MOL0     C 7217  12.982   6.325   8.046 -0.4236 -0.3665  0.6259
  813MOL0     C 7218  13.002   6.293   7.914 -1.0660 -0.3361  0.1331
  813MOL0     O 7219  13.110   6.225   7.868  0.5295  0.9789 -0.6555
  813MOL0     C 7220  13.232   6.209   7.941 -0.6054  0.7213 -0.6569
  813MOL0     C 7221  13.350   6.209   7.835  0.1917  0.1200 -1.2772
  813MOL0     C 7222  13.318   6.312   7.725  0.6639  0.5002  0.7672
  813MOL0     C 7223  13.443   6.357   7.649 -0.0793  0.2600  0.5162
  813MOL0     C 7224  13.534   6.243   7.591  0.4902  0.0208 -0.5244
  813MOL0     C 7225  13.659   6.302   7.525 -0.8339  1.3173 -0.7144
  813MOL0     C 7226  13.762   6.372   7.617 -0.0212  0.5203  0.5942
  813MOL0     C 7227  13.828   6.268   7.708  0.6247  0.3792  0.4922
  813MOL0    Cl 7228  13.977   6.318   7.779  0.2205 -0.1750  0.5139
  813MOL0     C 7229  12.924   6.348   7.823 -0.0879 -0.6445  0.6348
  813MOL0     C 7230  12.808   6.423   7.852 -0.1217  0.2307 -0.8530
  813MOL0     O 7231  12.748   6.716   7.977  0.8319  0.0171  0.0375
  813MOL0     C 7232  12.497   6.809   8.039  0.1304 -0.6778 -0.3229
  813MOL0     C 7233  12.400   6.878   8.118 -0.4162 -0.1387  0.0879
  813MOL0     N 7234  11.724   6.821   8.435  0.5333  0.4272  0.0743
  813MOL0     N 7235  11.658   6.779   8.537 -0.1024  0.2874 -0.5834
  813MOL0     C 7236  10.806   6.140   8.586 -0.6708  0.1932  0.3537
  813MOL0     C 7237  10.672   6.127   8.560  0.2215  0.4146  0.1713
  813MOL0     C 7238  10.263   5.914   8.553  0.6445 -0.5573  0.1476
  813MOL0     C 7239  10.243   5.913   8.408 -0.2284 -1.0111  0.0555
  813MOL0     C 7240  10.116   5.883   8.355 -0.6301  0.6832  0.3936
  813MOL0     C 7241  10.011   5.847   8.432  1.0531 -0.0113  0.8391
  813MOL0     O 7242   9.904   5.797   8.362  1.0833 -0.5845 -0.2751
  813MOL0     C 7243   9.797   5.727   8.434 -0.8882 -0.3812  0.8894
  813MOL0     C 7244   9.675   5.812   8.483  0.5991  0.0680 -0.0229
  813MOL0     C 7245   9.579   5.727   8.564 -0.0442  0.2875  0.2693
  813MOL0     C 7246   9.440   5.800   8.564 -1.3546 -0.2412 -1.5003
  813MOL0     C 7247   9.329   5.707   8.564 -0.1464 -0.1522  0.9646
  813MOL0     C 7248   9.241   5.625   8.566 -0.5044 -0.2706  0.5138
  813MOL0     C 7249  10.022   5.863   8.566  0.0898  0.2861 -1.2605
  813MOL0     C 7250  10.145   5.888   8.627  0.0515  0.3163 -0.3925
  813MOL0     H 7251  10.639   5.818   8.690 -1.5734  0.0136 -1.2304
  813MOL0     H 7252  10.865   5.841   8.728  0.0143  1.4649  2.7749
  813MOL0     H 7253  11.162   6.046   8.817 -0.8352 -1.3907  1.2578
  813MOL0     H 7254  11.008   6.067   8.877  0.7774 -0.0994  0.9934
  813MOL0     H 7255  11.141   6.296   8.876 -1.5956  2.4872 -1.7055
  813MOL0     H 7256  10.992   6.303   8.781 -1.4682 -1.5388 -1.1807
  813MOL0     H 7257  11.116   6.289   8.566 -2.4346  1.9936  0.8412
  813MOL0     H 7258  11.264   6.228   8.661 -0.2109  0.4508  0.6901
  813MOL0     H 7259  11.117   6.497   8.649  0.6815  0.5717 -2.1393
  813MOL0     H 7260  11.257   6.467   8.754  3.2727  3.7748 -3.2345
  813MOL0     H 7261  11.297   6.584   8.534 -0.7596 -0.2242  0.7366
  813MOL0     H 7262  11.270   6.431   8.450 -2.7876  3.6856 -1.1573
  813MOL0     H 7263  11.491   6.494   8.483  0.0605 -0.3193 -0.4222
  813MOL0     H 7264  11.470   6.358   8.602  3.2927  0.7904 -1.5062
  813MOL0     H 7265  11.444   6.643   8.690 -3.4363 -1.4855  1.2262
  813MOL0     H 7266  11.465   6.502   8.788  1.0623  2.8297  2.4057
  813MOL0     H 7267  11.699   6.471   8.678 -3.7720 -3.1062 -3.6929
  813MOL0     H 7268  11.675   6.610   8.776  3.2250 -0.9385 -0.1747
  813MOL0     H 7269  11.858   6.536   8.489  1.9899  1.5372  0.7105
  813MOL0     H 7270  11.845   6.796   8.204  1.4603  0.9437 -0.4793
  813MOL0     H 7271  11.908   6.635   8.222 -1.0480 -0.4770  0.8630
  813MOL0     H 7272  12.107   6.771   8.197 -1.1169  0.0494 -0.2834
  813MOL0     H 7273  12.109   6.718   8.354  0.0675 -0.0940 -0.4635
  813MOL0     H 7274  11.961   6.996   8.281 -1.6082  0.4884  2.1974
  813MOL0     H 7275  12.033   6.948   8.431  2.0630 -2.5723  0.8022
  813MOL0     H 7276  12.181   7.103   8.297 -0.6545 -0.3252  2.0766
  813MOL0     H 7277  12.167   6.985   8.169  2.2067  2.0504 -0.1382
  813MOL0     H 7278  12.419   6.718   8.416 -1.0837 -0.2913 -0.5675
  813MOL0     H 7279  12.589   6.592   8.276 -1.5791 -0.9517  0.1830
  813MOL0     H 7280  12.849   6.435   8.187 -0.5562 -1.2998  1.5560
  813MOL0     H 7281  13.051   6.286   8.120 -1.3577 -0.5679  1.4119
  813MOL0     H 7282  13.230   6.120   8.005 -4.3352 -0.9133 -2.7499
  813MOL0     H 7283  13.249   6.302   7.997 -0.1557 -0.7317  1.7698
  813MOL0     H 7284  13.346   6.108   7.792 -0.4053  0.2000 -1.4198
  813MOL0     H 7285  13.445   6.213   7.887 -0.8641 -0.4527  0.8085
  813MOL0     H 7286  13.263   6.397   7.764 -1.1984  0.5686 -1.7090
  813MOL0     H 7287  13.259   6.260   7.648  0.2038  1.7569  0.2475
  813MOL0     H 7288  13.427   6.416   7.559  3.5377  0.2958 -0.2230
  813MOL0     H 7289  13.500   6.412   7.725  2.4478  0.1595 -1.2095
  813MOL0     H 7290  13.477   6.182   7.521  0.4646 -1.0902  0.4266
  813MOL0     H 7291  13.558   6.179   7.677  0.9532 -0.9450 -1.3623
  813MOL0     H 7292  13.629   6.371   7.446 -0.9715  2.6510  0.4586
  813MOL0     H 7293  13.717   6.223   7.476  0.9554  0.5151  2.3736
  813MOL0     H 7294  13.834   6.423   7.553 -1.0679  1.3767  0.0601
  813MOL0     H 7295  13.721   6.450   7.682  0.0642 -0.2316  1.5948
  813MOL0     H 7296  13.855   6.183   7.645  3.4071  1.1533  0.5055
  813MOL0     H 7297  13.762   6.233   7.789  0.0864  1.1555  0.4008
  813MOL0     H 7298  12.961   6.339   7.721  1.9629  0.0449  1.2716
  813MOL0     H 7299  12.731   6.458   7.785  2.9198  3.0725 -3.2232
  813MOL0     H 7300  12.526   6.830   7.936 -0.7396 -4.2602 -1.4424
  813MOL0     H 7301  12.347   6.957   8.068 -1.6038 -0.8164  0.2410
  813MOL0     H 7302  10.845   6.239   8.564 -0.8935  0.1408 -0.3046
  813MOL0     H 7303  10.619   6.208   8.511  0.4854  1.3414  1.3555
  813MOL0     H 7304  10.325   5.933   8.339  0.3984  0.3397  1.1367
  813MOL0     H 7305  10.114   5.864   8.248  2.0869  1.6195  0.0929
  813MOL0     H 7306   9.847   5.682   8.520  0.2244 -0.4200  0.2453
  813MOL0     H 7307   9.764   5.648   8.366 -1.4892 -0.2340  1.0035
  813MOL0     H 7308   9.698   5.900   8.544 -0.7840  0.9037 -0.6472
  813MOL0     H 7309   9.633   5.846   8.388 -1.9901  0.2053  1.0849
  813MOL0     H 7310   9.615   5.690   8.660 -2.2958 -1.6627  0.4591
  813MOL0     H 7311   9.562   5.631   8.515 -0.2535 -0.9112  2.5494
  813MOL0     H 7312   9.431   5.866   8.650  3.1603  0.5085 -1.3570
  813MOL0     H 7313   9.437   5.859   8.472  3.2002  0.0120 -1.7376
  813MOL0     H 7314   9.171   5.545   8.570  3.6302 -4.2702  1.6968
  813MOL0     H 7315   9.938   5.846   8.632  0.9928 -1.5392 -0.5207
  813MOL0     H 7316  10.152   5.889   8.735 -1.7896  0.9117 -0.2378
  814MOL0     O 7317  11.046   7.540   5.446 -0.1723  0.8247  0.8797
  814MOL0     C 7318  11.070   7.621   5.354 -0.5512  0.8276  1.0364
  814MOL0     O 7319  10.978   7.677   5.275  0.3718  0.2465  0.2282
  814MOL0     C 7320  10.852   7.627   5.264 -0.8065  0.5151  0.5500
  814MOL0     C 7321  10.744   7.637   5.351  0.0762 -0.0140  0.5632
  814MOL0     C 7322  10.627   7.556   5.331 -0.3063  0.7350  0.1954
  814MOL0     C 7323  10.607   7.480   5.215  0.8522 -0.6804  0.4952
  814MOL0     O 7324  10.484   7.435   5.162 -0.5365  0.5091 -0.2634
  814MOL0     C 7325  10.392   7.394   5.261 -0.3162 -0.3559 -0.0968
  814MOL0     C 7326  10.294   7.306   5.192  0.6253  0.4108  1.0018
  814MOL0     C 7327  10.202   7.389   5.086  0.0372 -0.0247  0.7558
  814MOL0     C 7328  10.131   7.302   4.992 -0.1544  0.8540 -0.0605
  814MOL0     C 7329  10.016   7.232   5.066 -0.8692 -0.2008  0.5966
  814MOL0     C 7330   9.891   7.311   5.080 -0.5508 -0.5129 -0.6377
  814MOL0     C 7331   9.795   7.225   5.169 -1.0529 -0.0668 -0.3564
  814MOL0     C 7332   9.682   7.312   5.189  0.9103  0.2361 -0.4298
  814MOL0     N 7333   9.579   7.219   5.251  0.9007  0.2499  0.0078
  814MOL0     C 7334   9.484   7.137   5.190  0.8174 -0.7132 -0.1419
  814MOL0     C 7335   9.408   7.089   5.289  0.1304 -0.4900  0.7404
  814MOL0     C 7336   9.297   6.993   5.255  0.2067  0.0786  0.2837
  814MOL0     C 7337   9.161   7.065   5.269  0.1368 -0.4048  0.3285
  814MOL0     C 7338   9.125   7.078   5.415  0.2128  0.4856  0.2376
  814MOL0     C 7339   9.028   7.188   5.441 -0.3225 -0.1194 -0.6722
  814MOL0     O 7340   8.962   7.161   5.572  0.6434 -0.1407  0.2979
  814MOL0     C 7341   8.856   7.086   5.576  0.5159  0.2613  0.2789
  814MOL0     C 7342   8.736   7.129   5.526  0.3005 -0.8201 -0.4863
  814MOL0     C 7343   8.617   7.057   5.552 -0.2150 -0.0864 -0.9320
  814MOL0     C 7344   8.636   6.931   5.619 -0.1732  0.0557 -0.3527
  814MOL0     C 7345   8.519   6.850   5.647 -0.3844  0.5138  0.7449
  814MOL0     O 7346   8.536   6.727   5.703  0.0409  0.1626  0.0995
  814MOL0     C 7347   8.421   6.647   5.719 -0.6985  0.4856 -0.0916
  814MOL0     C 7348   8.382   6.552   5.620 -0.3754 -0.2705 -0.1943
  814MOL0     C 7349   8.272   6.479   5.635  0.7705 -0.2612  0.6156
  814MOL0     C 7350   8.193   6.492   5.742  0.4004  0.8195 -0.5748
  814MOL0     O 7351   8.071   6.422   5.737  0.8542  0.0968 -1.1635
  814MOL0     C 7352   7.974   6.448   5.838  0.6967  1.0985  0.2708
  814MOL0     C 7353   7.920   6.585   5.800 -0.1992 -0.0490  0.0417
  814MOL0     C 7354   7.810   6.616   5.884 -1.0190 -0.8320 -0.2165
  814MOL0     C 7355   7.739   6.747   5.836  0.1623 -0.1348 -0.2307
  814MOL0     C 7356   7.636   6.809   5.939 -0.1926  0.3750 -0.5700
  814MOL0     C 7357   7.593   6.943   5.901  0.6696 -0.6926  0.4379
  814MOL0     C 7358   7.486   6.954   5.787  0.0086  0.1865  0.4950
  814MOL0     C 7359   7.481   7.094   5.729 -0.3913  0.1616  0.6732
  814MOL0    Cl 7360   7.643   7.144   5.658  0.3542  0.2886 -0.1525
  814MOL0     C 7361   8.234   6.575   5.851 -0.3390  0.4389 -0.4750
  814MOL0     C 7362   8.355   6.645   5.838  0.0973 -0.3307  0.4202
  814MOL0     O 7363   8.413   6.905   5.626 -0.0280  0.1178  0.0693
  814MOL0     C 7364   8.768   6.882   5.653 -0.1628  0.5435  0.3107
  814MOL0     C 7365   8.875   6.961   5.638 -0.1376  0.2027  0.0545
  814MOL0     N 7366   9.459   7.143   5.410  0.7890  0.1745 -0.2778
  814MOL0     N 7367   9.566   7.205   5.387 -0.1821 -0.1022  0.2824
  814MOL0     C 7368  10.711   7.477   5.123 -0.0200  0.4192  0.1365
  814MOL0     C 7369  10.832   7.553   5.147  0.4601 -0.5534 -0.1437
  814MOL0     C 7370  11.219   7.664   5.329  0.0788 -0.2032  0.6688
  814MOL0     C 7371  11.329   7.617   5.405  0.0862  0.6759 -0.1105
  814MOL0     C 7372  11.459   7.664   5.386 -0.4886 -0.4555  0.0625
  814MOL0     C 7373  11.482   7.758   5.283 -0.1950  0.0517 -0.4657
  814MOL0     O 7374  11.606   7.809   5.259 -0.4464 -0.0254 -0.2693
  814MOL0     C 7375  11.717   7.751   5.327  0.5362 -0.7719 -0.4316
  814MOL0     C 7376  11.827   7.868   5.332 -1.5086 -0.0760  0.5251
  814MOL0     C 7377  11.877   7.921   5.197  0.2818  0.4030  0.6099
  814MOL0     C 7378  11.971   7.824   5.125 -1.0737 -0.2970  0.9757
  814MOL0     C 7379  12.065   7.891   5.025  0.1872  0.2083 -0.6822
  814MOL0     C 7380  12.135   7.947   4.947  0.6414 -0.8224  0.9408
  814MOL0     C 7381  11.371   7.805   5.199  0.6612 -0.0201 -0.1321
  814MOL0     C 7382  11.244   7.755   5.221  1.0854  0.6854  0.8380
  814MOL0     H 7383  10.751   7.676   5.452 -0.8524 -1.6885  1.3157
  814MOL0     H 7384  10.554   7.557   5.412 -0.1718  0.0108  0.3317
  814MOL0     H 7385  10.329   7.477   5.293 -1.4841 -0.8412 -1.0897
  814MOL0     H 7386  10.425   7.354   5.358 -1.5076 -1.8105 -0.2604
  814MOL0     H 7387  10.226   7.259   5.263  1.2968 -0.6639  0.9602
  814MOL0     H 7388  10.349   7.226   5.141  0.2450  1.6996 -1.6190
  814MOL0     H 7389  10.274   7.457   5.039  2.4581 -2.4393  0.6931
  814MOL0     H 7390  10.128   7.441   5.148  3.8578  1.5979  4.5069
  814MOL0     H 7391  10.088   7.348   4.902 -3.5207 -3.4436 -1.0002
  814MOL0     H 7392  10.195   7.219   4.961 -2.9303 -1.7047  0.6291
  814MOL0     H 7393  10.039   7.190   5.164 -0.4635 -1.7259 -0.1272
  814MOL0     H 7394   9.991   7.142   5.009 -4.3583  1.6543 -1.1730
  814MOL0     H 7395   9.847   7.325   4.981  1.9220 -1.9980 -2.0449
  814MOL0     H 7396   9.909   7.412   5.116 -1.2106 -0.6878  0.2340
  814MOL0     H 7397   9.770   7.138   5.109  3.2216 -0.7173 -1.5093
  814MOL0     H 7398   9.837   7.198   5.267  0.5075  1.7605 -0.4672
  814MOL0     H 7399   9.644   7.361   5.098 -5.9927 -2.5948  0.3134
  814MOL0     H 7400   9.707   7.387   5.265  0.9222 -0.0310 -0.1719
  814MOL0     H 7401   9.467   7.124   5.084  0.7351 -0.3547 -0.1745
  814MOL0     H 7402   9.311   6.913   5.329 -0.3012 -0.5022 -0.2350
  814MOL0     H 7403   9.311   6.952   5.155  0.7626  1.1395 -0.0779
  814MOL0     H 7404   9.087   7.007   5.213  1.7016 -1.8956 -0.2797
  814MOL0     H 7405   9.167   7.159   5.214 -2.1467 -1.3323 -1.6759
  814MOL0     H 7406   9.074   6.984   5.440 -2.4744  1.6948 -0.2680
  814MOL0     H 7407   9.212   7.085   5.481 -0.7119 -3.9063  2.2751
  814MOL0     H 7408   8.953   7.196   5.362  0.4684 -0.0046 -1.4159
  814MOL0     H 7409   9.078   7.285   5.441 -0.8851  0.1811 -1.3843
  814MOL0     H 7410   8.734   7.235   5.501  1.1957 -0.1781  1.9153
  814MOL0     H 7411   8.521   7.100   5.529  0.0956  0.6633 -0.8582
  814MOL0     H 7412   8.455   6.538   5.541 -0.5395  0.1791 -0.4234
  814MOL0     H 7413   8.236   6.420   5.551  0.0235  2.6207 -1.2132
  814MOL0     H 7414   8.009   6.439   5.941 -1.8621  1.2109  1.2313
  814MOL0     H 7415   7.896   6.373   5.818  0.5713  1.5148 -0.8907
  814MOL0     H 7416   7.876   6.574   5.700  0.2116  2.2908 -0.4462
  814MOL0     H 7417   7.993   6.666   5.793 -0.4488  0.1685 -0.0817
  814MOL0     H 7418   7.849   6.628   5.985 -0.8252 -1.8615 -0.1525
  814MOL0     H 7419   7.735   6.536   5.889 -2.2177 -0.0409 -3.3561
  814MOL0     H 7420   7.817   6.820   5.812 -0.7571  0.5897 -1.1147
  814MOL0     H 7421   7.676   6.725   5.749 -0.7272  1.4426 -0.0178
  814MOL0     H 7422   7.695   6.810   6.031  2.8118  3.2051 -2.2834
  814MOL0     H 7423   7.551   6.742   5.949 -1.4282  1.7932 -1.1176
  814MOL0     H 7424   7.684   6.993   5.866  0.8902 -0.7018  0.9892
  814MOL0     H 7425   7.551   7.002   5.983 -1.8987 -1.0235 -0.5589
  814MOL0     H 7426   7.514   6.883   5.708  1.6186 -0.1018  1.2728
  814MOL0     H 7427   7.386   6.928   5.823 -0.3216 -0.7535 -1.0297
  814MOL0     H 7428   7.458   7.158   5.815 -3.8543 -2.2988  1.8047
  814MOL0     H 7429   7.399   7.112   5.660 -0.8729  1.8366  1.6244
  814MOL0     H 7430   8.174   6.562   5.941  0.3762 -0.0712 -0.0549
  814MOL0     H 7431   8.382   6.696   5.930  2.5692  1.6763 -1.2641
  814MOL0     H 7432   8.783   6.782   5.691 -0.1804  0.6301  0.5474
  814MOL0     H 7433   8.975   6.929   5.665 -0.0888  0.7814  0.5853
  814MOL0     H 7434  10.687   7.438   5.025 -2.7063  2.4960 -0.1616
  814MOL0     H 7435  10.910   7.548   5.071  0.5246 -1.9021 -0.0059
  814MOL0     H 7436  11.304   7.545   5.481 -0.1328  0.5933 -0.2574
  814MOL0     H 7437  11.539   7.630   5.452  1.1330  0.6724 -1.2399
  814MOL0     H 7438  11.758   7.665   5.272  0.2383 -1.5659  0.5511
  814MOL0     H 7439  11.704   7.722   5.431 -2.6690 -1.5639 -0.9401
  814MOL0     H 7440  11.782   7.951   5.387  0.3448  0.8901  0.6890
  814MOL0     H 7441  11.908   7.838   5.399 -3.5496  2.7796  4.6950
  814MOL0     H 7442  11.928   8.014   5.224  2.3123 -0.2682 -0.6573
  814MOL0     H 7443  11.788   7.938   5.136  0.3005 -0.4757  0.3207
  814MOL0     H 7444  12.034   7.783   5.205 -1.6702  0.3270  1.7774
  814MOL0     H 7445  11.909   7.748   5.078 -0.4967 -1.1817  1.6105
  814MOL0     H 7446  12.213   7.999   4.894  1.3281 -1.3812  1.3842
  814MOL0     H 7447  11.378   7.880   5.121  4.2208  2.3333  2.1537
  814MOL0     H 7448  11.162   7.779   5.153  0.1696 -1.1023  1.2678
  815MOL0     O 7449   9.111   4.525   3.201  0.4322 -0.1531 -1.2661
  815MOL0     C 7450   9.026   4.485   3.120  0.2906 -0.1284 -0.4911
  815MOL0     O 7451   8.899   4.537   3.109 -0.5668  0.0761 -0.5359
  815MOL0     C 7452   8.859   4.621   3.209  0.4454  0.7142  0.3786
  815MOL0     C 7453   8.825   4.756   3.183 -0.1931 -0.9399  0.8353
  815MOL0     C 7454   8.781   4.853   3.267 -0.3253 -0.0271  0.1861
  815MOL0     C 7455   8.757   4.815   3.400 -0.5266  0.1699  0.4733
  815MOL0     O 7456   8.729   4.912   3.491  0.7202 -0.5105  0.2131
  815MOL0     C 7457   8.625   5.003   3.444 -0.3379 -0.2676 -0.4157
  815MOL0     C 7458   8.489   4.945   3.456 -0.2935 -0.6316  1.6851
  815MOL0     C 7459   8.390   5.061   3.424  0.0523 -0.1318 -0.4140
  815MOL0     C 7460   8.249   5.003   3.459  0.3089 -0.6657 -0.1752
  815MOL0     C 7461   8.145   5.103   3.398  0.2632  0.3768  0.3579
  815MOL0     C 7462   7.998   5.073   3.427 -1.2826 -1.1414 -0.9348
  815MOL0     C 7463   7.943   4.926   3.425  0.4942 -0.2603  0.3249
  815MOL0     C 7464   7.959   4.850   3.289  0.2803  0.2454  0.3138
  815MOL0     N 7465   7.936   4.917   3.158  0.2119  1.3842  0.5130
  815MOL0     C 7466   7.824   4.990   3.114 -0.1488  0.6990 -0.5522
  815MOL0     C 7467   7.872   5.055   3.007  0.2463 -0.1835 -1.1913
  815MOL0     C 7468   7.793   5.154   2.921 -1.0044  0.1844 -0.0975
  815MOL0     C 7469   7.654   5.090   2.871  0.2632  0.3799  0.4604
  815MOL0     C 7470   7.587   5.177   2.761 -0.4829  0.6513  0.3301
  815MOL0     C 7471   7.437   5.126   2.747 -1.0336  0.5190  0.6964
  815MOL0     O 7472   7.361   5.190   2.849 -0.4659 -0.8886  0.4865
  815MOL0     C 7473   7.226   5.206   2.844 -0.1277  0.2733  0.0438
  815MOL0     C 7474   7.177   5.336   2.846 -0.6343  0.5856 -1.5784
  815MOL0     C 7475   7.038   5.340   2.855  0.2508 -1.0168  0.1170
  815MOL0     C 7476   6.947   5.237   2.833 -0.7699 -0.3794 -0.2064
  815MOL0     C 7477   6.800   5.257   2.832  0.1058  0.1065  0.2958
  815MOL0     O 7478   6.731   5.170   2.900  0.0199 -0.2647  0.0070
  815MOL0     C 7479   6.591   5.174   2.922  0.0792 -0.0602 -0.1728
  815MOL0     C 7480   6.520   5.291   2.941  0.1179  0.3879 -1.3791
  815MOL0     C 7481   6.382   5.292   2.976 -0.4176  0.5680  0.6257
  815MOL0     C 7482   6.319   5.177   2.995 -0.4449  0.2675 -0.3204
  815MOL0     O 7483   6.192   5.151   3.038  0.1922  0.1434 -0.2041
  815MOL0     C 7484   6.107   5.270   3.045  0.0286  0.1632  0.3634
  815MOL0     C 7485   5.975   5.258   3.117 -0.0395 -0.8460  0.4358
  815MOL0     C 7486   5.991   5.251   3.268 -0.6390  0.3348  0.5586
  815MOL0     C 7487   5.853   5.267   3.332 -0.2269  0.5769 -0.0052
  815MOL0     C 7488   5.754   5.148   3.320 -0.9657 -0.4057 -0.5511
  815MOL0     C 7489   5.651   5.143   3.425  0.0607 -0.7513 -0.6451
  815MOL0     C 7490   5.547   5.036   3.394 -0.1554 -0.7869  0.6245
  815MOL0     C 7491   5.414   5.095   3.372  0.8065  0.9968 -0.2449
  815MOL0    Cl 7492   5.349   5.205   3.496 -0.4348  0.1787  0.1961
  815MOL0     C 7493   6.392   5.060   2.974 -0.8243 -0.4592  0.1954
  815MOL0     C 7494   6.525   5.056   2.922  0.9730 -0.3839  0.5010
  815MOL0     O 7495   6.749   5.358   2.775 -0.2989 -0.7745  0.7832
  815MOL0     C 7496   7.002   5.110   2.821 -0.7668  0.2078  2.0541
  815MOL0     C 7497   7.143   5.096   2.832  0.6331  0.1055  0.7649
  815MOL0     N 7498   7.994   5.002   2.974 -0.2071  0.3844  1.1136
  815MOL0     N 7499   8.038   4.920   3.062 -0.4466 -0.3989  0.8248
  815MOL0     C 7500   8.803   4.688   3.442  0.2533 -0.6376 -1.2812
  815MOL0     C 7501   8.852   4.586   3.351  0.8400 -0.4576 -0.4469
  815MOL0     C 7502   9.065   4.380   3.019 -0.0821  0.1979 -0.1681
  815MOL0     C 7503   9.202   4.359   2.996  0.6007 -0.0355 -0.0511
  815MOL0     C 7504   9.253   4.263   2.910 -0.6878 -0.6985  0.6014
  815MOL0     C 7505   9.154   4.191   2.837  0.5206  0.4592 -0.5056
  815MOL0     O 7506   9.184   4.088   2.759 -0.4937 -0.0875 -0.4647
  815MOL0     C 7507   9.318   4.044   2.742 -0.8974 -1.1027 -0.4539
  815MOL0     C 7508   9.398   4.154   2.662 -0.1350  0.4705 -0.4669
  815MOL0     C 7509   9.533   4.098   2.619  0.3505 -0.0811  0.3311
  815MOL0     C 7510   9.627   4.070   2.738  0.1106 -0.9575  0.4250
  815MOL0     C 7511   9.732   4.172   2.742  0.2024  0.1103 -0.4069
  815MOL0     C 7512   9.813   4.259   2.725  0.2944 -0.0063 -0.0517
  815MOL0     C 7513   9.016   4.222   2.848  1.1319  0.8488  0.2445
  815MOL0     C 7514   8.980   4.303   2.944  0.7682 -0.5255 -0.2523
  815MOL0     H 7515   8.812   4.778   3.077  0.1550  1.9790  1.3148
  815MOL0     H 7516   8.768   4.959   3.248 -0.5525 -0.3356 -1.5295
  815MOL0     H 7517   8.643   5.034   3.341 -0.1763 -5.3131 -2.1918
  815MOL0     H 7518   8.642   5.092   3.505  1.2044 -0.6358 -0.2637
  815MOL0     H 7519   8.467   4.919   3.560 -1.0691  1.7527  2.1887
  815MOL0     H 7520   8.475   4.855   3.396 -0.1073  0.3302  0.1142
  815MOL0     H 7521   8.401   5.088   3.318  1.6065  0.5607 -0.1084
  815MOL0     H 7522   8.402   5.143   3.495  5.6179 -1.7679  1.0214
  815MOL0     H 7523   8.240   4.902   3.419  0.3939  0.5882 -3.7760
  815MOL0     H 7524   8.229   4.992   3.565 -0.2743 -0.0526 -0.2165
  815MOL0     H 7525   8.149   5.109   3.289  0.1706  0.1656  0.3417
  815MOL0     H 7526   8.161   5.206   3.430 -0.5376  1.3668 -2.1575
  815MOL0     H 7527   7.926   5.133   3.371  0.1847 -1.7922 -3.7039
  815MOL0     H 7528   7.988   5.101   3.532 -2.7581 -0.1611 -1.3125
  815MOL0     H 7529   7.991   4.865   3.502 -0.0589 -0.4448  0.5259
  815MOL0     H 7530   7.835   4.938   3.435  0.4441  0.9399 -1.1980
  815MOL0     H 7531   7.886   4.769   3.283  2.0873 -1.4769  0.7875
  815MOL0     H 7532   8.053   4.794   3.292 -0.4795 -1.1789  4.2727
  815MOL0     H 7533   7.727   4.997   3.161  1.4645 -2.0311  3.8534
  815MOL0     H 7534   7.857   5.191   2.840  0.7672  0.5793  1.4278
  815MOL0     H 7535   7.771   5.240   2.985 -2.0792 -1.5390  1.9680
  815MOL0     H 7536   7.583   5.079   2.954 -0.5870 -1.8097 -0.4533
  815MOL0     H 7537   7.677   4.992   2.829  4.1128  1.8959 -1.4441
  815MOL0     H 7538   7.576   5.283   2.785 -0.3741  1.1984 -1.8927
  815MOL0     H 7539   7.641   5.171   2.666 -0.6104 -0.4197  0.3169
  815MOL0     H 7540   7.427   5.018   2.756 -0.9274  0.2526 -1.6513
  815MOL0     H 7541   7.405   5.161   2.648 -1.1377  0.2247  0.6270
  815MOL0     H 7542   7.237   5.427   2.849 -2.2983  1.7773  2.6562
  815MOL0     H 7543   6.997   5.438   2.873  3.7494  0.3984  1.2600
  815MOL0     H 7544   6.553   5.390   2.909 -2.7664  1.1501 -2.3216
  815MOL0     H 7545   6.338   5.390   2.990 -0.7106  1.0479 -2.7221
  815MOL0     H 7546   6.093   5.304   2.942 -0.3497 -0.1128  0.3249
  815MOL0     H 7547   6.161   5.341   3.109 -1.1229 -0.7751  2.4867
  815MOL0     H 7548   5.926   5.166   3.083  0.8611 -0.7885 -1.0865
  815MOL0     H 7549   5.917   5.345   3.085  0.3592  0.0230  1.9689
  815MOL0     H 7550   6.062   5.326   3.305  0.8282 -0.9976  0.5724
  815MOL0     H 7551   6.044   5.159   3.295  1.1132  0.6493 -1.5516
  815MOL0     H 7552   5.870   5.282   3.439  1.5404  1.0062 -0.3187
  815MOL0     H 7553   5.807   5.363   3.305  0.2503 -0.0585 -3.5284
  815MOL0     H 7554   5.821   5.061   3.321  0.6241  0.7167  1.8415
  815MOL0     H 7555   5.708   5.149   3.221  0.6899 -0.4067 -1.3546
  815MOL0     H 7556   5.599   5.239   3.432 -1.5461 -1.4342 -2.2533
  815MOL0     H 7557   5.694   5.124   3.523 -5.3684  0.2467  2.3611
  815MOL0     H 7558   5.572   4.969   3.311 -1.2220 -2.0388  1.2956
  815MOL0     H 7559   5.546   4.975   3.484  2.5254 -0.0231  1.2685
  815MOL0     H 7560   5.337   5.019   3.355  0.4063  0.9586  1.5758
  815MOL0     H 7561   5.425   5.152   3.280 -2.0062  3.4799  0.7931
  815MOL0     H 7562   6.337   4.969   2.993 -1.0748 -0.6875 -1.4911
  815MOL0     H 7563   6.577   4.967   2.887 -3.1487 -2.3242 -1.2947
  815MOL0     H 7564   6.947   5.017   2.813  0.0899 -0.2478  1.4194
  815MOL0     H 7565   7.179   4.995   2.815  1.6584  0.7936 -1.6123
  815MOL0     H 7566   8.794   4.673   3.549  0.0680 -0.3327 -1.2538
  815MOL0     H 7567   8.886   4.490   3.387  1.1136  0.1775  1.0544
  815MOL0     H 7568   9.277   4.411   3.056  1.0214 -0.3745 -0.2778
  815MOL0     H 7569   9.359   4.246   2.919 -1.1348 -5.0105 -0.3051
  815MOL0     H 7570   9.326   3.946   2.695 -0.4951 -1.7968  0.9942
  815MOL0     H 7571   9.361   4.034   2.842 -2.2753  2.3040  0.6644
  815MOL0     H 7572   9.333   4.181   2.579 -0.7587 -0.3188 -0.2468
  815MOL0     H 7573   9.417   4.248   2.714 -1.2130  0.3820  0.1131
  815MOL0     H 7574   9.578   4.161   2.542 -1.4729 -2.2613 -2.7083
  815MOL0     H 7575   9.497   4.009   2.567 -0.2272  1.3055 -1.7578
  815MOL0     H 7576   9.565   4.081   2.827 -0.5564  2.5946 -0.3160
  815MOL0     H 7577   9.685   3.979   2.726  0.1803 -0.5817 -3.7820
  815MOL0     H 7578   9.870   4.350   2.721  0.0087  0.2339  0.9678
  815MOL0     H 7579   8.944   4.164   2.792 -0.1942 -0.7996  3.4269
  815MOL0     H 7580   8.877   4.326   2.968  0.5938 -1.9804  0.4579
  816MOL0     O 7581   7.433   8.562   5.959 -0.3564  0.3834 -0.1036
  816MOL0     C 7582   7.476   8.649   6.033 -0.4235 -0.1638  0.3247
  816MOL0     O 7583   7.423   8.700   6.142  0.1215  0.5037  0.1126
  816MOL0     C 7584   7.295   8.685   6.168 -0.5971 -1.0400  0.3271
  816MOL0     C 7585   7.217   8.802   6.168  0.0770 -1.0273 -0.2556
  816MOL0     C 7586   7.081   8.800   6.201 -0.5499  0.2320  0.0266
  816MOL0     C 7587   7.015   8.674   6.210 -0.2229 -0.4715 -0.5989
  816MOL0     O 7588   6.883   8.663   6.225 -0.4242 -0.5066 -0.3581
  816MOL0     C 7589   6.804   8.757   6.306  0.2946 -0.7155 -0.1994
  816MOL0     C 7590   6.735   8.672   6.416  0.1760 -1.3770 -0.1850
  816MOL0     C 7591   6.644   8.746   6.516  0.7162 -0.5349 -0.6034
  816MOL0     C 7592   6.716   8.817   6.628 -0.0740 -0.4721 -1.0541
  816MOL0     C 7593   6.603   8.893   6.713  0.0324 -0.1855  0.4425
  816MOL0     C 7594   6.640   8.954   6.855  0.1790 -0.3101  0.4883
  816MOL0     C 7595   6.529   8.969   6.954  0.2295 -0.7824  0.9409
  816MOL0     C 7596   6.594   8.968   7.103  0.7591  0.3922  0.7469
  816MOL0     N 7597   6.522   9.059   7.198  0.3223  0.2523 -0.4718
  816MOL0     C 7598   6.562   9.183   7.237 -0.0220 -0.8286 -0.4000
  816MOL0     C 7599   6.485   9.218   7.346  1.0314 -0.8980  0.4280
  816MOL0     C 7600   6.489   9.345   7.437  0.7742  0.6502  1.0433
  816MOL0     C 7601   6.403   9.367   7.561 -0.1923  0.3958  0.0465
  816MOL0     C 7602   6.261   9.354   7.534  0.7507 -0.4805  0.8713
  816MOL0     C 7603   6.167   9.400   7.651  0.0583  0.6497 -0.6758
  816MOL0     O 7604   6.176   9.302   7.752 -0.0438 -0.1850 -0.0456
  816MOL0     C 7605   6.088   9.315   7.856 -1.4132 -0.1423  0.4153
  816MOL0     C 7606   6.062   9.199   7.923  0.2927  0.2536  0.0489
  816MOL0     C 7607   5.974   9.195   8.031 -0.0402 -0.7350  1.1656
  816MOL0     C 7608   5.907   9.312   8.077  0.6628  0.0176  0.6637
  816MOL0     C 7609   5.817   9.311   8.188 -0.1827  0.2302  0.0164
  816MOL0     O 7610   5.809   9.430   8.255 -0.5507 -0.1278  0.1854
  816MOL0     C 7611   5.702   9.458   8.340  0.1412 -0.8593 -0.0421
  816MOL0     C 7612   5.714   9.564   8.428  0.6718 -0.2150 -0.5174
  816MOL0     C 7613   5.614   9.606   8.504  0.5054 -0.5344 -0.4965
  816MOL0     C 7614   5.482   9.552   8.495 -0.8503  1.2175 -0.9930
  816MOL0     O 7615   5.397   9.615   8.577  0.5684 -0.2257 -0.1796
  816MOL0     C 7616   5.281   9.537   8.609 -0.0349 -0.2298 -0.3239
  816MOL0     C 7617   5.200   9.636   8.684  0.6869 -0.2870  0.3825
  816MOL0     C 7618   5.058   9.586   8.728 -0.0470 -0.3602 -0.9035
  816MOL0     C 7619   5.000   9.688   8.831 -0.0608  0.4561  0.8760
  816MOL0     C 7620   4.883   9.621   8.919 -0.1022 -0.4254  0.6471
  816MOL0     C 7621   4.869   9.707   9.055  0.8535  0.8781  0.9465
  816MOL0     C 7622   4.818   9.846   9.042  0.2379 -0.3632  0.1482
  816MOL0     C 7623   4.806   9.919   9.174 -0.6187  0.3726 -0.0001
  816MOL0    Cl 7624   4.670   9.835   9.261 -0.2542 -0.1129  0.3064
  816MOL0     C 7625   5.462   9.443   8.407  0.0140  0.3150  0.1066
  816MOL0     C 7626   5.578   9.393   8.332  0.2089  0.2883 -0.0466
  816MOL0     O 7627   5.765   9.205   8.225  0.1467 -0.4702  0.1823
  816MOL0     C 7628   5.946   9.430   8.017  0.6893 -0.5244 -0.7345
  816MOL0     C 7629   6.035   9.431   7.911 -0.4437  0.9306  0.3276
  816MOL0     N 7630   6.398   9.108   7.361  0.8116  0.6371  0.4793
  816MOL0     N 7631   6.418   9.017   7.268  0.0744  0.3680 -0.0235
  816MOL0     C 7632   7.090   8.561   6.202 -0.4065  0.8965  0.6862
  816MOL0     C 7633   7.230   8.565   6.179 -0.0727 -0.7471  0.0687
  816MOL0     C 7634   7.604   8.706   5.989 -0.8140  0.8203 -0.4546
  816MOL0     C 7635   7.683   8.788   6.072 -0.1137 -0.1220 -0.1987
  816MOL0     C 7636   7.811   8.838   6.019 -0.3322  0.0587  0.4584
  816MOL0     C 7637   7.853   8.799   5.890  0.2916  0.0298 -0.7610
  816MOL0     O 7638   7.968   8.847   5.825 -0.3147 -0.2105  0.3240
  816MOL0     C 7639   8.046   8.938   5.906 -0.8624 -0.4270  0.5472
  816MOL0     C 7640   8.136   9.010   5.808  0.6877 -0.3794  0.5085
  816MOL0     C 7641   8.050   9.061   5.684  0.4426 -0.1261  0.6525
  816MOL0     C 7642   8.118   9.165   5.586  0.5118  0.0107 -0.8039
  816MOL0     C 7643   8.257   9.129   5.549 -0.2176 -0.0453  0.0529
  816MOL0     C 7644   8.372   9.129   5.496  0.8601  0.2420  0.1255
  816MOL0     C 7645   7.771   8.715   5.810 -0.2083  0.2767 -0.3362
  816MOL0     C 7646   7.649   8.666   5.856 -0.4422 -0.3228 -0.0084
  816MOL0     H 7647   7.258   8.900   6.147 -0.6303 -0.0690  2.4213
  816MOL0     H 7648   7.015   8.885   6.201 -0.8937  0.0312 -1.9335
  816MOL0     H 7649   6.736   8.805   6.235  1.7252  1.3371 -0.2438
  816MOL0     H 7650   6.870   8.833   6.346 -1.9331  2.3497 -1.8974
  816MOL0     H 7651   6.810   8.616   6.473 -1.0327 -3.3414 -0.4101
  816MOL0     H 7652   6.670   8.615   6.349  1.0676 -0.7406 -1.6218
  816MOL0     H 7653   6.580   8.667   6.556 -2.3614  1.9821 -0.2440
  816MOL0     H 7654   6.587   8.828   6.474 -1.8589 -1.0614  1.5864
  816MOL0     H 7655   6.766   8.733   6.676 -2.2512 -1.3242 -0.1470
  816MOL0     H 7656   6.786   8.890   6.587  0.3095 -0.6872 -0.7867
  816MOL0     H 7657   6.532   8.814   6.736 -1.7499  0.0578 -3.3259
  816MOL0     H 7658   6.550   8.969   6.653  1.3897 -0.9211 -1.8318
  816MOL0     H 7659   6.685   9.051   6.828 -0.3027 -0.5563 -1.2789
  816MOL0     H 7660   6.725   8.895   6.891  0.7140 -0.4833 -0.9986
  816MOL0     H 7661   6.458   9.046   6.923  0.9108 -1.5036 -2.9340
  816MOL0     H 7662   6.481   8.872   6.965  3.6600 -2.4143  3.4462
  816MOL0     H 7663   6.692   9.015   7.094  0.0020  3.1504  4.5039
  816MOL0     H 7664   6.597   8.866   7.143 -3.1153  1.0853  3.3343
  816MOL0     H 7665   6.637   9.240   7.182 -0.6955  0.6912  0.2084
  816MOL0     H 7666   6.456   9.422   7.367 -5.7475 -0.4734  2.2033
  816MOL0     H 7667   6.594   9.361   7.465  2.6726 -2.4255 -3.2249
  816MOL0     H 7668   6.414   9.470   7.597  0.9121  0.5683 -0.7451
  816MOL0     H 7669   6.432   9.296   7.640 -0.9655 -2.5388 -2.1400
  816MOL0     H 7670   6.233   9.412   7.445  1.8231  0.1183  0.9060
  816MOL0     H 7671   6.230   9.253   7.503  0.2023  0.6515 -2.8091
  816MOL0     H 7672   6.062   9.406   7.622 -1.5984  0.5725  4.3047
  816MOL0     H 7673   6.201   9.499   7.685 -1.0975  0.8704 -0.1247
  816MOL0     H 7674   6.096   9.102   7.890 -4.8475 -1.5605 -0.9243
  816MOL0     H 7675   5.950   9.100   8.077  2.5773 -1.4539  1.2044
  816MOL0     H 7676   5.808   9.617   8.434 -1.6162  4.2941 -0.1293
  816MOL0     H 7677   5.630   9.686   8.576 -1.9902  0.5126 -0.9918
  816MOL0     H 7678   5.316   9.449   8.663 -3.9478 -3.1066 -2.0138
  816MOL0     H 7679   5.227   9.518   8.516  0.4158  1.6616 -1.0162
  816MOL0     H 7680   5.180   9.721   8.618 -0.4372 -1.7101 -1.1738
  816MOL0     H 7681   5.261   9.677   8.765  0.0073  0.5273  0.5014
  816MOL0     H 7682   5.078   9.488   8.772  2.6365 -0.9041 -3.0825
  816MOL0     H 7683   4.989   9.569   8.645  1.5747 -1.0194 -2.1840
  816MOL0     H 7684   5.084   9.721   8.894  0.7534 -0.2985  0.2132
  816MOL0     H 7685   4.956   9.773   8.778 -1.3192  1.2184  3.0098
  816MOL0     H 7686   4.894   9.517   8.951  1.8543 -0.4698  0.0058
  816MOL0     H 7687   4.792   9.617   8.858  0.5637  0.0960 -0.4194
  816MOL0     H 7688   4.973   9.712   9.090  1.9801 -2.2907 -1.4976
  816MOL0     H 7689   4.807   9.654   9.129  0.7983  0.8539  0.8839
  816MOL0     H 7690   4.888   9.902   8.981 -0.5214  1.4476  0.8697
  816MOL0     H 7691   4.720   9.860   8.994  0.1474  0.3726  0.5307
  816MOL0     H 7692   4.783  10.023   9.150  1.7693  0.9874  0.1898
  816MOL0     H 7693   4.904   9.915   9.221  0.0821 -0.6337 -1.4696
  816MOL0     H 7694   5.368   9.391   8.394  0.4338 -1.0010  1.9122
  816MOL0     H 7695   5.580   9.329   8.244  3.5814  1.6536 -1.1426
  816MOL0     H 7696   5.892   9.518   8.048 -1.7944 -0.6938 -4.0645
  816MOL0     H 7697   6.048   9.524   7.856 -0.6838  0.0347 -1.2966
  816MOL0     H 7698   7.044   8.463   6.196  0.5575  0.4924 -3.4942
  816MOL0     H 7699   7.283   8.470   6.175 -3.5319 -2.7964 -1.0670
  816MOL0     H 7700   7.649   8.822   6.169  1.5927  1.5304 -0.1228
  816MOL0     H 7701   7.871   8.899   6.086 -1.1101 -0.3168  1.5428
  816MOL0     H 7702   8.119   8.884   5.968 -1.2551 -2.1068 -0.3766
  816MOL0     H 7703   7.985   9.010   5.960  0.3987 -1.7236  3.9406
  816MOL0     H 7704   8.172   9.105   5.848  0.9833 -0.0069 -0.5915
  816MOL0     H 7705   8.219   8.951   5.767  0.0872  0.0819 -1.5119
  816MOL0     H 7706   7.957   9.099   5.727  0.9033 -0.7350  2.2570
  816MOL0     H 7707   8.014   8.978   5.622 -0.1889  1.7069 -1.5755
  816MOL0     H 7708   8.072   9.176   5.487  1.6795  3.1568 -1.0892
  816MOL0     H 7709   8.124   9.261   5.637 -2.1120 -1.4337  2.6189
  816MOL0     H 7710   8.459   9.144   5.434  0.1922 -0.7896 -1.1103
  816MOL0     H 7711   7.784   8.696   5.704  0.5307  2.8031 -0.7847
  816MOL0     H 7712   7.589   8.604   5.791 -0.6265 -1.6884  1.3981
  817MOL0     O 7713   1.165   6.565   6.610  0.1834  0.6121 -0.1766
  817MOL0     C 7714   1.204   6.555   6.492  0.6626 -1.4351 -0.3498
  817MOL0     O 7715   1.212   6.661   6.409  0.1547  0.2631 -0.2183
  817MOL0     C 7716   1.115   6.761   6.397 -0.8533  0.4164  0.1038
  817MOL0     C 7717   0.985   6.747   6.450 -0.7564  0.6934  0.3784
  817MOL0     C 7718   0.892   6.842   6.411 -0.4858  0.2932 -0.1553
  817MOL0     C 7719   0.916   6.948   6.326 -0.4236 -0.3170 -0.1504
  817MOL0     O 7720   0.808   7.027   6.273  0.1942  0.4555  0.7078
  817MOL0     C 7721   0.820   7.075   6.136  0.3696  0.3357  1.1052
  817MOL0     C 7722   0.683   7.126   6.083  1.0847  0.2444  0.1260
  817MOL0     C 7723   0.565   7.033   6.076  1.1068  0.1085 -0.0448
  817MOL0     C 7724   0.440   7.089   6.009 -0.2891  0.6292 -0.0991
  817MOL0     C 7725   0.343   7.154   6.111  0.8519  0.4517  0.2684
  817MOL0     C 7726   0.237   7.233   6.039 -1.6728 -0.7953  0.0262
  817MOL0     C 7727   0.206   7.197   5.896 -0.7295 -0.1379 -0.6501
  817MOL0     C 7728   0.100   7.281   5.845  0.2220 -0.0684  0.6658
  817MOL0     N 7729   0.098   7.285   5.702  0.5359  0.5253  0.2068
  817MOL0     C 7730   0.087   7.178   5.614 -0.0985  0.6223  0.0126
  817MOL0     C 7731   0.099   7.230   5.489 -0.7267 -1.2779  0.0000
  817MOL0     C 7732   0.124   7.158   5.362  0.0826 -0.5080 -0.7705
  817MOL0     C 7733  -0.010   7.127   5.279 -0.4588 -0.0503 -0.5003
  817MOL0     C 7734  -0.092   7.250   5.238 -1.0372 -0.1711 -0.1758
  817MOL0     C 7735  -0.042   7.319   5.108  0.6336 -0.0314 -0.9188
  817MOL0     O 7736  -0.042   7.239   4.992  0.2076  0.1035  0.0249
  817MOL0     C 7737  -0.159   7.190   4.955  0.1331 -0.3089  0.1595
  817MOL0     C 7738  -0.157   7.080   4.862  0.0797 -0.8983 -0.1014
  817MOL0     C 7739  -0.279   7.025   4.824 -0.2024 -0.3996 -0.1060
  817MOL0     C 7740  -0.400   7.088   4.859 -0.4082  0.6309 -0.4881
  817MOL0     C 7741  -0.527   7.035   4.804 -0.6288 -0.5618  0.5538
  817MOL0     O 7742  -0.516   6.919   4.728 -0.6233  1.3435  0.0475
  817MOL0     C 7743  -0.614   6.854   4.648  0.4550 -0.2016 -0.1088
  817MOL0     C 7744  -0.748   6.892   4.642  0.6131  0.1956  0.0801
  817MOL0     C 7745  -0.841   6.817   4.565 -0.0197 -0.7699 -0.1168
  817MOL0     C 7746  -0.796   6.715   4.477 -0.0914  0.3473 -0.1863
  817MOL0     O 7747  -0.898   6.653   4.413  0.0910  0.2648  0.8377
  817MOL0     C 7748  -0.875   6.513   4.369  1.2245  1.3856 -1.0630
  817MOL0     C 7749  -0.990   6.485   4.269  0.1353 -0.0047 -0.3725
  817MOL0     C 7750  -1.129   6.540   4.306  0.5189 -0.6317 -0.2414
  817MOL0     C 7751  -1.233   6.536   4.202  0.5943  0.7223  0.2704
  817MOL0     C 7752  -1.273   6.398   4.167  0.6555 -0.0899 -0.4072
  817MOL0     C 7753  -1.385   6.384   4.062 -0.3033  0.2937  0.3311
  817MOL0     C 7754  -1.366   6.257   3.973 -0.1846  0.8580  0.3643
  817MOL0     C 7755  -1.501   6.194   3.927 -0.3045 -0.9856  0.0435
  817MOL0    Cl 7756  -1.589   6.133   4.063 -0.3127  0.2715 -0.1972
  817MOL0     C 7757  -0.665   6.682   4.479 -0.2100  1.1920  0.3482
  817MOL0     C 7758  -0.573   6.747   4.564  1.4800  0.1979 -0.0160
  817MOL0     O 7759  -0.625   7.111   4.808  0.0727 -0.1713  0.3077
  817MOL0     C 7760  -0.397   7.198   4.932 -0.1001 -0.8443 -0.1062
  817MOL0     C 7761  -0.283   7.256   4.982 -0.2074 -0.4092  0.0972
  817MOL0     N 7762   0.105   7.370   5.499  0.1869 -0.9549 -0.3299
  817MOL0     N 7763   0.095   7.400   5.627 -0.2267 -0.0471 -1.3322
  817MOL0     C 7764   1.044   6.961   6.286 -1.6099  0.4150 -0.0128
  817MOL0     C 7765   1.146   6.871   6.318  0.3113 -0.6319 -0.1573
  817MOL0     C 7766   1.280   6.430   6.446  0.0963  0.8936  0.1093
  817MOL0     C 7767   1.236   6.305   6.487 -0.3268 -0.2600  0.3470
  817MOL0     C 7768   1.314   6.193   6.457  0.7167 -0.1953  0.9197
  817MOL0     C 7769   1.426   6.199   6.366 -0.2764 -0.3462 -0.8451
  817MOL0     O 7770   1.491   6.091   6.336  0.2670  0.0877  1.0417
  817MOL0     C 7771   1.599   6.086   6.231  0.6942  0.5694 -0.5896
  817MOL0     C 7772   1.739   6.116   6.281  0.6226 -0.7850  0.4100
  817MOL0     C 7773   1.845   6.107   6.163  0.0769 -0.0747 -0.5623
  817MOL0     C 7774   1.822   6.225   6.063  0.3930 -0.0531  0.3862
  817MOL0     C 7775   1.748   6.179   5.937  0.0953 -0.5132 -0.5114
  817MOL0     C 7776   1.704   6.147   5.828  0.5920 -0.8660 -0.1096
  817MOL0     C 7777   1.449   6.321   6.314  0.7626 -0.0485  0.0309
  817MOL0     C 7778   1.379   6.437   6.350  1.1945  0.4084 -0.2569
  817MOL0     H 7779   0.964   6.652   6.498 -0.3490  0.0344 -0.7054
  817MOL0     H 7780   0.789   6.826   6.443 -0.4583 -2.1386 -1.1161
  817MOL0     H 7781   0.846   6.988   6.076 -1.1714 -1.4057  2.8459
  817MOL0     H 7782   0.894   7.154   6.123 -2.1158  2.9043  1.4602
  817MOL0     H 7783   0.705   7.156   5.980  2.6333  1.7646  0.8404
  817MOL0     H 7784   0.656   7.212   6.145 -0.9636 -0.8207  0.7974
  817MOL0     H 7785   0.535   7.007   6.178 -1.5737  3.6286  0.2718
  817MOL0     H 7786   0.595   6.938   6.032 -1.8262 -1.3985  0.9339
  817MOL0     H 7787   0.464   7.154   5.925 -0.8432 -1.2669 -1.7935
  817MOL0     H 7788   0.394   7.003   5.959 -0.0996  2.0933 -2.9846
  817MOL0     H 7789   0.406   7.219   6.172  1.7238 -0.7713  0.7257
  817MOL0     H 7790   0.299   7.075   6.173 -0.4460 -1.0641 -2.3928
  817MOL0     H 7791   0.271   7.336   6.023 -3.0268 -0.6148 -2.0589
  817MOL0     H 7792   0.148   7.242   6.102 -2.0016 -0.6881 -0.4467
  817MOL0     H 7793   0.293   7.202   5.831 -1.6116 -0.1965 -1.8648
  817MOL0     H 7794   0.178   7.091   5.905 -0.0996 -0.3954 -1.5916
  817MOL0     H 7795   0.105   7.389   5.865 -2.8718  0.4919 -0.9058
  817MOL0     H 7796   0.011   7.244   5.898  1.9625 -3.2408  1.6139
  817MOL0     H 7797   0.086   7.070   5.629  0.7236  0.8918  2.3065
  817MOL0     H 7798   0.174   7.064   5.386 -0.1737 -0.3711  0.4003
  817MOL0     H 7799   0.194   7.223   5.310  2.5944  1.2099  4.0806
  817MOL0     H 7800  -0.080   7.070   5.340  1.7703 -0.8046  1.5390
  817MOL0     H 7801   0.028   7.057   5.203  0.5247 -0.6668  0.5119
  817MOL0     H 7802  -0.193   7.210   5.228 -0.6681 -1.8174  1.8523
  817MOL0     H 7803  -0.102   7.333   5.308  1.5905  2.0758 -2.2500
  817MOL0     H 7804   0.059   7.360   5.120 -0.1016  0.8971  4.3186
  817MOL0     H 7805  -0.097   7.414   5.098 -1.6457 -0.8429  2.3610
  817MOL0     H 7806  -0.057   7.049   4.834  0.5225  3.0910 -3.9940
  817MOL0     H 7807  -0.275   6.922   4.788  2.4154 -1.1195  1.9079
  817MOL0     H 7808  -0.784   6.978   4.698  2.6295  0.1411  1.5692
  817MOL0     H 7809  -0.946   6.844   4.567 -0.2014 -1.4652  0.3354
  817MOL0     H 7810  -0.894   6.442   4.450 -2.4273  0.8623 -2.1686
  817MOL0     H 7811  -0.786   6.498   4.308  1.0673  2.5685 -1.6155
  817MOL0     H 7812  -1.002   6.378   4.252 -1.1776 -0.0442  0.6343
  817MOL0     H 7813  -0.954   6.508   4.169  3.0857  0.1750  0.6525
  817MOL0     H 7814  -1.124   6.643   4.344 -2.2255 -1.3072  2.2870
  817MOL0     H 7815  -1.174   6.482   4.387 -1.0729  0.5383 -0.2278
  817MOL0     H 7816  -1.318   6.593   4.241  1.1013  1.7586 -0.0998
  817MOL0     H 7817  -1.205   6.582   4.107 -1.5202 -1.4861 -1.5533
  817MOL0     H 7818  -1.301   6.334   4.251  0.4623 -2.0824 -1.9107
  817MOL0     H 7819  -1.187   6.346   4.122  0.9609 -0.0758  0.1458
  817MOL0     H 7820  -1.376   6.469   3.993  0.7675 -0.2788 -0.2713
  817MOL0     H 7821  -1.477   6.378   4.120 -0.7956 -0.9436 -0.5090
  817MOL0     H 7822  -1.302   6.274   3.886 -0.7485 -0.5059 -0.3514
  817MOL0     H 7823  -1.317   6.182   4.036 -0.5589 -0.6909 -1.0973
  817MOL0     H 7824  -1.495   6.119   3.848 -1.3653 -1.2341  0.1791
  817MOL0     H 7825  -1.557   6.272   3.874  1.5460 -1.0268 -2.1079
  817MOL0     H 7826  -0.626   6.601   4.418 -1.9318  1.3038 -1.0002
  817MOL0     H 7827  -0.469   6.721   4.582  0.3897 -2.1190  4.2505
  817MOL0     H 7828  -0.489   7.255   4.941 -0.3520 -1.4710  1.6009
  817MOL0     H 7829  -0.287   7.354   5.028 -1.2289  1.5057 -3.6161
  817MOL0     H 7830   1.062   7.040   6.214 -5.1412 -1.0286 -2.7588
  817MOL0     H 7831   1.241   6.861   6.265 -0.3846 -2.4917 -1.1532
  817MOL0     H 7832   1.149   6.293   6.550 -1.2014  0.0920 -0.7630
  817MOL0     H 7833   1.287   6.098   6.502  1.1284  0.8895  3.6741
  817MOL0     H 7834   1.578   6.146   6.142  2.7188  1.4795 -0.5187
  817MOL0     H 7835   1.597   5.980   6.203  1.2606  0.4153 -0.0862
  817MOL0     H 7836   1.752   6.208   6.339  0.2912  0.2934 -1.1559
  817MOL0     H 7837   1.758   6.029   6.344 -2.6072 -2.1054 -0.2781
  817MOL0     H 7838   1.846   6.005   6.123  0.6280 -2.0316  3.8686
  817MOL0     H 7839   1.949   6.126   6.194  2.0584 -0.7416 -5.8119
  817MOL0     H 7840   1.760   6.300   6.113  0.2424 -0.6789  1.1503
  817MOL0     H 7841   1.917   6.274   6.039  0.9483  0.2766  2.9277
  817MOL0     H 7842   1.667   6.124   5.730  2.9344 -0.4209 -1.1624
  817MOL0     H 7843   1.528   6.341   6.242  0.8847 -0.6017  0.0119
  817MOL0     H 7844   1.400   6.535   6.307  4.4601  1.3990  3.0530
  818MOL0     O 7845   5.619   7.938  11.260 -0.5638 -0.3143 -0.9066
  818MOL0     C 7846   5.610   7.876  11.364 -0.3615  0.4876  0.6042
  818MOL0     O 7847   5.559   7.919  11.485  0.6204  0.1373  0.5096
  818MOL0     C 7848   5.486   8.034  11.474  0.2760  0.5108  0.3845
  818MOL0     C 7849   5.538   8.166  11.455 -0.1013 -0.2389 -0.6667
  818MOL0     C 7850   5.449   8.276  11.447 -0.7030 -0.3299  0.1213
  818MOL0     C 7851   5.308   8.250  11.458 -0.7154 -0.5568 -0.4077
  818MOL0     O 7852   5.205   8.345  11.466  0.2558 -0.0647 -0.6903
  818MOL0     C 7853   5.232   8.478  11.431 -0.1868 -0.8255 -0.5252
  818MOL0     C 7854   5.113   8.560  11.439 -0.8017 -0.6881  0.6900
  818MOL0     C 7855   5.004   8.517  11.338  1.2077  0.7104  1.0797
  818MOL0     C 7856   5.049   8.533  11.180  0.7993  0.4675  0.4954
  818MOL0     C 7857   4.978   8.431  11.086 -0.6780 -0.8334  0.3266
  818MOL0     C 7858   4.828   8.451  11.067  0.8840  0.5920  0.1191
  818MOL0     C 7859   4.785   8.583  11.003  0.4607  0.2942 -0.3713
  818MOL0     C 7860   4.860   8.608  10.874 -0.6025  0.5092  0.2797
  818MOL0     N 7861   4.784   8.705  10.790  0.1478 -0.0536  0.2756
  818MOL0     C 7862   4.682   8.667  10.702 -0.7171 -0.1783 -0.6389
  818MOL0     C 7863   4.686   8.767  10.612 -0.2537 -0.3936  0.5548
  818MOL0     C 7864   4.623   8.755  10.477  0.4774  0.2879  0.1581
  818MOL0     C 7865   4.708   8.703  10.349 -0.9399 -0.0695 -0.0861
  818MOL0     C 7866   4.857   8.728  10.359 -0.8679  0.2681  0.0665
  818MOL0     C 7867   4.915   8.682  10.220  0.1423  0.0031 -0.0039
  818MOL0     O 7868   4.922   8.534  10.212 -0.2750  0.2668 -0.7328
  818MOL0     C 7869   5.016   8.485  10.126 -0.5600  0.7198 -0.4506
  818MOL0     C 7870   5.076   8.551  10.013  0.1777  0.2732  0.5412
  818MOL0     C 7871   5.180   8.492   9.945  0.6771  0.6672  0.6069
  818MOL0     C 7872   5.231   8.366   9.988  0.7470 -0.5819  1.0970
  818MOL0     C 7873   5.359   8.329   9.936 -0.3885  0.6248 -0.0662
  818MOL0     O 7874   5.431   8.414   9.854  0.4488 -0.5523 -0.3122
  818MOL0     C 7875   5.538   8.360   9.797 -0.4948 -0.4655  0.5007
  818MOL0     C 7876   5.658   8.424   9.812 -0.3153 -0.0459 -0.3760
  818MOL0     C 7877   5.776   8.392   9.742  0.3657 -0.5962 -0.0451
  818MOL0     C 7878   5.773   8.291   9.643 -0.0030  0.2804  0.4967
  818MOL0     O 7879   5.873   8.248   9.555  0.5600 -0.0370 -0.7920
  818MOL0     C 7880   5.887   8.333   9.447  0.1962 -0.4152  0.5078
  818MOL0     C 7881   5.996   8.281   9.347 -0.0031  1.1621  0.4685
  818MOL0     C 7882   5.945   8.156   9.274 -0.3232  0.3846 -0.1351
  818MOL0     C 7883   6.012   8.131   9.137  0.1209 -0.0710 -0.2177
  818MOL0     C 7884   5.958   7.993   9.086  0.0593  0.4745  0.0693
  818MOL0     C 7885   6.016   7.976   8.947  0.7852  1.3655 -0.2982
  818MOL0     C 7886   6.165   7.930   8.962  0.6526 -0.1679 -0.6069
  818MOL0     C 7887   6.225   7.875   8.834 -0.1188  0.1023  0.1701
  818MOL0    Cl 7888   6.307   8.004   8.738  0.7044 -0.6314  0.4052
  818MOL0     C 7889   5.647   8.225   9.626  0.3092 -0.3418  0.3435
  818MOL0     C 7890   5.534   8.254   9.708 -0.3305 -0.5661  0.6401
  818MOL0     O 7891   5.392   8.210   9.957 -0.2276 -0.2874  0.6943
  818MOL0     C 7892   5.180   8.302  10.107  0.8673  0.1287  0.0703
  818MOL0     C 7893   5.066   8.355  10.171  0.0679 -0.0621  0.2225
  818MOL0     N 7894   4.780   8.864  10.648 -0.0963 -0.2681  0.1138
  818MOL0     N 7895   4.836   8.827  10.757  0.2804 -0.3367  0.0349
  818MOL0     C 7896   5.257   8.120  11.470 -0.8042 -0.3510  0.1228
  818MOL0     C 7897   5.352   8.012  11.496  0.8275 -0.1255  0.0719
  818MOL0     C 7898   5.678   7.750  11.358  1.0254 -0.5215 -0.2025
  818MOL0     C 7899   5.661   7.648  11.445  0.2888 -0.3070 -0.6354
  818MOL0     C 7900   5.713   7.518  11.421 -1.1598 -0.4958 -0.7354
  818MOL0     C 7901   5.809   7.501  11.321  0.3889  0.3216 -0.0455
  818MOL0     O 7902   5.883   7.396  11.289  0.1867  1.0215  0.3689
  818MOL0     C 7903   5.861   7.268  11.350  0.3232  0.0687  0.0823
  818MOL0     C 7904   5.959   7.156  11.293 -0.3508 -0.3840 -1.0013
  818MOL0     C 7905   6.105   7.196  11.312  0.0588 -0.2744  0.0822
  818MOL0     C 7906   6.148   7.186  11.460  0.2451  0.1438 -0.2811
  818MOL0     C 7907   6.287   7.220  11.478  2.1837 -0.0834  0.5029
  818MOL0     C 7908   6.399   7.264  11.491  0.4346  0.3911  1.0483
  818MOL0     C 7909   5.827   7.609  11.239  0.0825  0.7046  0.4117
  818MOL0     C 7910   5.771   7.729  11.254 -0.5878 -0.0939 -0.2206
  818MOL0     H 7911   5.643   8.191  11.461  0.6274 -1.7860 -4.0414
  818MOL0     H 7912   5.483   8.379  11.434  0.1938 -0.5675  0.5164
  818MOL0     H 7913   5.277   8.481  11.332 -2.3742  0.9073 -1.5572
  818MOL0     H 7914   5.300   8.524  11.503 -1.6270 -0.8740  0.9465
  818MOL0     H 7915   5.147   8.661  11.415  0.5488 -0.8872  1.6184
  818MOL0     H 7916   5.077   8.559  11.542  1.1991 -1.0795  1.4368
  818MOL0     H 7917   4.910   8.573  11.346  0.6174 -0.0054 -0.3820
  818MOL0     H 7918   4.978   8.411  11.347  0.2138  0.6780 -1.3775
  818MOL0     H 7919   5.032   8.638  11.153  0.4988  0.8057  1.9062
  818MOL0     H 7920   5.157   8.522  11.163  0.4426 -0.3848 -1.4454
  818MOL0     H 7921   4.990   8.327  11.118 -0.3950 -0.2736  2.1902
  818MOL0     H 7922   5.031   8.428  10.991 -0.9726  1.9033  0.0022
  818MOL0     H 7923   4.783   8.440  11.167  3.0447 -2.4523  0.8927
  818MOL0     H 7924   4.788   8.369  11.007  2.6409  1.5523 -2.5773
  818MOL0     H 7925   4.677   8.569  10.992  0.7779 -2.2806 -0.8623
  818MOL0     H 7926   4.803   8.671  11.065  2.3610 -0.3813  0.0941
  818MOL0     H 7927   4.851   8.523  10.805 -4.0558  2.5086 -2.0756
  818MOL0     H 7928   4.966   8.633  10.874 -0.7595  1.5803 -2.6261
  818MOL0     H 7929   4.632   8.571  10.709 -0.9741 -0.2848 -2.9899
  818MOL0     H 7930   4.576   8.852  10.459  0.1948  0.5092  1.9053
  818MOL0     H 7931   4.540   8.683  10.483 -1.9608  2.8712 -0.6069
  818MOL0     H 7932   4.659   8.737  10.258 -2.0221  4.6989  1.9629
  818MOL0     H 7933   4.685   8.596  10.353 -0.3451 -0.2267 -0.6721
  818MOL0     H 7934   4.888   8.831  10.378  4.3305 -1.0631  0.1805
  818MOL0     H 7935   4.901   8.665  10.437  3.4328  0.4920 -1.8872
  818MOL0     H 7936   5.016   8.724  10.208  0.0683  0.5993  1.3788
  818MOL0     H 7937   4.849   8.710  10.137 -0.6174  0.4417  0.7421
  818MOL0     H 7938   5.042   8.651   9.990  1.4815  0.0543 -2.8429
  818MOL0     H 7939   5.229   8.540   9.861  2.7546 -1.6774  0.3434
  818MOL0     H 7940   5.650   8.501   9.889  1.5445 -1.5563  1.4435
  818MOL0     H 7941   5.873   8.437   9.760 -0.7898  1.0454  2.7433
  818MOL0     H 7942   5.912   8.436   9.474 -0.3663  0.5143 -2.1464
  818MOL0     H 7943   5.791   8.335   9.394  0.5722 -0.0554 -0.1865
  818MOL0     H 7944   6.097   8.274   9.389  0.2654 -1.2621 -0.4336
  818MOL0     H 7945   6.004   8.355   9.266  1.1680 -1.8267 -2.3604
  818MOL0     H 7946   5.836   8.152   9.269 -0.2996  1.1770 -2.0609
  818MOL0     H 7947   5.968   8.064   9.328 -2.7131 -1.2393 -1.7084
  818MOL0     H 7948   5.985   8.218   9.077 -1.7969  1.4008  2.5408
  818MOL0     H 7949   6.121   8.129   9.149  0.4558 -4.3472 -1.9480
  818MOL0     H 7950   5.849   8.000   9.085  0.1356  2.2954 -1.2116
  818MOL0     H 7951   5.991   7.906   9.143  1.5053  0.3811 -0.8550
  818MOL0     H 7952   6.006   8.068   8.889  0.3899  1.2267 -0.4585
  818MOL0     H 7953   5.954   7.898   8.901  2.9843  0.9709 -2.7782
  818MOL0     H 7954   6.227   8.017   8.986  0.7054  0.6858 -3.4516
  818MOL0     H 7955   6.181   7.872   9.053  0.8156  1.8615  0.7166
  818MOL0     H 7956   6.144   7.818   8.787  1.3386 -1.4839 -0.4746
  818MOL0     H 7957   6.292   7.795   8.867 -0.7463 -0.2030  0.7318
  818MOL0     H 7958   5.628   8.137   9.565 -0.0197  0.8469 -1.3205
  818MOL0     H 7959   5.436   8.210   9.694  0.1013 -1.0470 -1.1615
  818MOL0     H 7960   5.224   8.212  10.148 -0.3852 -0.2998  0.5214
  818MOL0     H 7961   5.034   8.310  10.264  0.3334 -0.9138 -0.0960
  818MOL0     H 7962   5.149   8.117  11.472 -1.2106  4.4324 -1.6175
  818MOL0     H 7963   5.312   7.912  11.510 -1.7423  0.5913 -1.4573
  818MOL0     H 7964   5.598   7.658  11.532  2.0198  1.7713  0.4520
  818MOL0     H 7965   5.690   7.443  11.495 -1.5859 -0.9136 -1.2895
  818MOL0     H 7966   5.758   7.238  11.326 -0.1512 -0.3189  2.4210
  818MOL0     H 7967   5.874   7.286  11.457  0.5842 -0.3694  0.1302
  818MOL0     H 7968   5.941   7.063  11.348 -1.2935  1.5349  2.2265
  818MOL0     H 7969   5.945   7.140  11.186  0.0207  1.8700 -1.4402
  818MOL0     H 7970   6.119   7.301  11.285 -1.2676  1.1678  4.2228
  818MOL0     H 7971   6.183   7.149  11.252  1.0734 -1.9752  2.5588
  818MOL0     H 7972   6.086   7.249  11.525  0.7705  0.7633 -0.3819
  818MOL0     H 7973   6.129   7.083  11.492  0.4715  0.4579  0.8950
  818MOL0     H 7974   6.496   7.301  11.517  3.7477 -6.0067 -0.1359
  818MOL0     H 7975   5.902   7.608  11.159 -1.0530  3.2236 -0.8045
  818MOL0     H 7976   5.780   7.802  11.174  1.9424  2.7164  2.4050
  819MOL0     O 7977   4.528   7.759   9.819  0.7292  0.0952  0.7323
  819MOL0     C 7978   4.498   7.874   9.835  0.6052 -0.4054  0.0314
  819MOL0     O 7979   4.422   7.925   9.937 -0.6397  0.0714 -0.1748
  819MOL0     C 7980   4.332   7.843  10.004  0.7646  0.2205  0.6314
  819MOL0     C 7981   4.260   7.913  10.107 -0.5377 -0.1221  0.4132
  819MOL0     C 7982   4.152   7.858  10.170 -0.5327  0.8608 -0.8859
  819MOL0     C 7983   4.120   7.720  10.136 -0.5808 -0.0490 -0.0841
  819MOL0     O 7984   4.014   7.653  10.199 -0.3853 -0.0178  0.6988
  819MOL0     C 7985   4.040   7.619  10.333  0.5076  0.4409  1.5083
  819MOL0     C 7986   3.932   7.514  10.372 -0.1076  0.6552  0.5369
  819MOL0     C 7987   3.790   7.566  10.388  0.0621  0.3562 -0.3117
  819MOL0     C 7988   3.763   7.575  10.545  0.8051 -0.4775 -0.1535
  819MOL0     C 7989   3.618   7.593  10.567  0.4291  1.1495  0.4281
  819MOL0     C 7990   3.531   7.465  10.559 -0.1691  0.1581  0.4033
  819MOL0     C 7991   3.392   7.513  10.573  0.5737  0.1218 -1.0542
  819MOL0     C 7992   3.346   7.549  10.719 -0.5790 -0.0081  1.0485
  819MOL0     N 7993   3.223   7.623  10.724 -0.5121 -0.3434 -0.6362
  819MOL0     C 7994   3.207   7.764  10.720 -0.0894 -0.1237 -0.2563
  819MOL0     C 7995   3.070   7.770  10.734 -0.6472 -0.3087 -0.0991
  819MOL0     C 7996   2.982   7.896  10.728 -0.6346  0.4049  1.2755
  819MOL0     C 7997   2.981   7.995  10.607  0.9068  0.6313 -1.0523
  819MOL0     C 7998   3.122   8.052  10.574  0.7506  0.3225 -0.3531
  819MOL0     C 7999   3.095   8.158  10.463  0.6855  0.2168  0.2176
  819MOL0     O 8000   3.026   8.098  10.350 -0.0926  0.0903 -0.4516
  819MOL0     C 8001   3.095   8.058  10.240  0.3019 -0.3256  0.4369
  819MOL0     C 8002   3.215   8.120  10.199  0.3714 -0.2023  0.1068
  819MOL0     C 8003   3.261   8.096  10.072  0.5966 -0.3744  0.5123
  819MOL0     C 8004   3.197   8.000   9.976 -1.2544 -0.0719  0.3977
  819MOL0     C 8005   3.248   7.970   9.837  0.4581  0.0507 -0.1080
  819MOL0     O 8006   3.194   7.862   9.776  0.1130  0.5277  0.3325
  819MOL0     C 8007   3.255   7.807   9.658  0.1411  0.2175  0.5687
  819MOL0     C 8008   3.216   7.672   9.627 -0.2022  0.1331 -0.3993
  819MOL0     C 8009   3.262   7.598   9.511  0.3958 -1.3475  0.3808
  819MOL0     C 8010   3.340   7.670   9.419  0.6322 -0.8000 -0.2201
  819MOL0     O 8011   3.400   7.622   9.312 -0.1685 -0.1927 -0.3668
  819MOL0     C 8012   3.344   7.503   9.251 -0.0308  0.4489  0.6900
  819MOL0     C 8013   3.427   7.489   9.123  0.3948 -0.2307  0.3991
  819MOL0     C 8014   3.385   7.601   9.025 -0.4041  0.2405 -0.9564
  819MOL0     C 8015   3.438   7.553   8.893  1.1271 -0.3004  0.1715
  819MOL0     C 8016   3.395   7.647   8.785 -0.3954  1.4120  0.6578
  819MOL0     C 8017   3.425   7.604   8.644  0.0601 -0.7064  0.1920
  819MOL0     C 8018   3.571   7.598   8.617  0.2256 -0.4860 -1.5784
  819MOL0     C 8019   3.591   7.578   8.472 -0.6920  0.3616 -0.9188
  819MOL0    Cl 8020   3.759   7.545   8.439  0.0700 -0.0528  0.1240
  819MOL0     C 8021   3.369   7.803   9.446 -0.5576  0.2390  0.1706
  819MOL0     C 8022   3.335   7.877   9.563 -0.0531  1.0360  0.4955
  819MOL0     O 8023   3.339   8.041   9.795 -0.2998  0.1537 -0.0126
  819MOL0     C 8024   3.094   7.925  10.029 -0.2055 -0.1300 -0.3192
  819MOL0     C 8025   3.048   7.952  10.159 -0.2082 -1.0296  0.2718
  819MOL0     N 8026   3.010   7.641  10.734  0.4685  0.4407 -0.0518
  819MOL0     N 8027   3.106   7.559  10.743  0.7227  0.2008  0.2623
  819MOL0     C 8028   4.193   7.644  10.042  1.2020 -0.2918  0.3512
  819MOL0     C 8029   4.301   7.709   9.980  0.3953 -0.1393  0.8745
  819MOL0     C 8030   4.559   7.965   9.732 -0.2786  0.1624 -0.1221
  819MOL0     C 8031   4.579   8.103   9.750 -0.2480  0.0452 -0.2771
  819MOL0     C 8032   4.636   8.187   9.651  0.0593 -0.4190 -0.6603
  819MOL0     C 8033   4.666   8.132   9.529 -0.2678 -0.7194  0.4634
  819MOL0     O 8034   4.711   8.231   9.445  0.0334  0.3858  0.6487
  819MOL0     C 8035   4.785   8.207   9.329 -0.1203 -0.1916 -0.2824
  819MOL0     C 8036   4.698   8.211   9.208  0.6210 -1.1133 -0.0747
  819MOL0     C 8037   4.768   8.161   9.079 -0.0802 -0.0718  1.3545
  819MOL0     C 8038   4.783   8.011   9.073  0.3088  0.7758  0.0547
  819MOL0     C 8039   4.657   7.939   9.105  0.0970 -0.1472 -0.3685
  819MOL0     C 8040   4.550   7.895   9.134  0.0637  0.5415  0.3850
  819MOL0     C 8041   4.662   7.993   9.504 -0.1588 -0.1750 -0.2555
  819MOL0     C 8042   4.607   7.912   9.608  1.3121  0.0732  0.5009
  819MOL0     H 8043   4.282   8.018  10.118 -4.8266  1.0014  0.0424
  819MOL0     H 8044   4.102   7.920  10.243  0.3100 -1.1646  1.5531
  819MOL0     H 8045   4.023   7.707  10.396  0.1137  3.6887 -2.6839
  819MOL0     H 8046   4.141   7.582  10.349  2.4977  3.4749 -2.4705
  819MOL0     H 8047   3.956   7.465  10.467 -1.6993 -2.2578 -0.4268
  819MOL0     H 8048   3.926   7.435  10.296 -1.2221  0.0702  1.1971
  819MOL0     H 8049   3.716   7.503  10.339  0.4750 -0.3050 -0.0907
  819MOL0     H 8050   3.776   7.662  10.337  1.5778  0.2149 -1.0444
  819MOL0     H 8051   3.790   7.485  10.602 -2.8854 -0.7925  1.3333
  819MOL0     H 8052   3.807   7.656  10.604 -1.5431  0.1422  0.8666
  819MOL0     H 8053   3.578   7.663  10.493  1.5994 -3.0813 -4.8520
  819MOL0     H 8054   3.614   7.625  10.672 -0.7922  1.7019  0.2248
  819MOL0     H 8055   3.561   7.400  10.641 -1.4074 -2.0513 -0.7929
  819MOL0     H 8056   3.547   7.412  10.464  0.3314 -0.5537  0.8711
  819MOL0     H 8057   3.372   7.598  10.506  0.2074 -0.2065 -1.3676
  819MOL0     H 8058   3.323   7.433  10.546 -1.3054  1.0060  0.8771
  819MOL0     H 8059   3.433   7.596  10.764  1.2111  0.2490 -2.3165
  819MOL0     H 8060   3.323   7.464  10.784  1.6928 -0.9570  0.7257
  819MOL0     H 8061   3.277   7.846  10.705 -1.1477  0.6079 -1.4443
  819MOL0     H 8062   3.010   7.954  10.817 -0.8895 -0.1686  1.7385
  819MOL0     H 8063   2.877   7.871  10.747 -2.5627  5.1555 -1.3811
  819MOL0     H 8064   2.903   8.071  10.619  0.4167 -0.0956  0.6640
  819MOL0     H 8065   2.963   7.932  10.519  1.6150  0.5247 -1.1300
  819MOL0     H 8066   3.160   8.098  10.665 -1.5101 -3.5109  2.8726
  819MOL0     H 8067   3.184   7.971  10.535  0.8965 -0.7275  1.9148
  819MOL0     H 8068   3.187   8.207  10.433  0.2400  0.2290 -1.1686
  819MOL0     H 8069   3.030   8.234  10.507 -0.4523 -0.2685 -0.5716
  819MOL0     H 8070   3.260   8.207  10.248 -2.5854  3.9553 -3.7447
  819MOL0     H 8071   3.351   8.149  10.041 -0.6965  0.2019 -2.6894
  819MOL0     H 8072   3.143   7.626   9.693  1.6680 -1.0828  0.8828
  819MOL0     H 8073   3.236   7.498   9.475 -0.6060 -0.6504 -0.9483
  819MOL0     H 8074   3.236   7.516   9.238 -0.5705 -0.8305  3.2256
  819MOL0     H 8075   3.362   7.415   9.314  1.8740  0.0947 -0.2866
  819MOL0     H 8076   3.402   7.391   9.083  2.5508 -0.8922  0.5540
  819MOL0     H 8077   3.533   7.489   9.151 -0.1663 -0.4052  2.7728
  819MOL0     H 8078   3.426   7.695   9.063 -1.8087 -0.1079  1.6493
  819MOL0     H 8079   3.276   7.600   9.018 -0.4633 -1.1492 -0.2303
  819MOL0     H 8080   3.546   7.537   8.897  1.1238 -2.7258 -3.6462
  819MOL0     H 8081   3.397   7.456   8.863 -2.0184  1.5836 -2.2390
  819MOL0     H 8082   3.446   7.738   8.818  0.3116  0.3139  2.8048
  819MOL0     H 8083   3.286   7.653   8.775 -0.3143  0.8756 -0.7929
  819MOL0     H 8084   3.384   7.685   8.584 -2.4810 -2.0735 -0.0695
  819MOL0     H 8085   3.369   7.515   8.614 -1.4924  0.5878 -0.9347
  819MOL0     H 8086   3.612   7.698   8.631  3.5743 -2.0104  1.0681
  819MOL0     H 8087   3.618   7.523   8.683 -1.5029  0.4045  0.8091
  819MOL0     H 8088   3.574   7.673   8.420  1.8791  1.9833  0.9459
  819MOL0     H 8089   3.530   7.499   8.427  0.0050 -0.2744 -0.7816
  819MOL0     H 8090   3.423   7.844   9.361 -0.2422 -0.2897  0.1133
  819MOL0     H 8091   3.367   7.981   9.568 -2.1216  2.2608 -5.2379
  819MOL0     H 8092   3.053   7.840   9.975 -1.9622 -1.3488  2.6708
  819MOL0     H 8093   2.955   7.911  10.197 -0.2431 -0.7217  0.5204
  819MOL0     H 8094   4.165   7.540  10.045 -0.0459  0.0179  3.8969
  819MOL0     H 8095   4.360   7.642   9.919  0.5148  0.4281  0.3608
  819MOL0     H 8096   4.561   8.138   9.851  3.0785 -1.7272  1.1053
  819MOL0     H 8097   4.640   8.294   9.667  1.6391 -0.6162  0.5552
  819MOL0     H 8098   4.838   8.111   9.332 -2.3205 -1.4763 -0.1772
  819MOL0     H 8099   4.869   8.275   9.310 -0.6204  0.4910 -0.0618
  819MOL0     H 8100   4.602   8.160   9.223 -0.6000 -0.0280 -3.3571
  819MOL0     H 8101   4.664   8.313   9.187  0.6308 -1.1758 -0.4008
  819MOL0     H 8102   4.871   8.197   9.075  0.6034 -2.0045  0.4486
  819MOL0     H 8103   4.719   8.192   8.986  0.9128  0.4290  0.9800
  819MOL0     H 8104   4.811   7.986   8.970 -1.7969  1.0522 -0.6322
  819MOL0     H 8105   4.856   7.988   9.151  0.3549  2.8338  0.6761
  819MOL0     H 8106   4.454   7.849   9.149 -1.1647  2.0387 -2.2767
  819MOL0     H 8107   4.713   7.960   9.413  2.4783  0.7495  0.7832
  819MOL0     H 8108   4.598   7.805   9.593  0.4292  0.3347 -1.0744
  820MOL0     O 8109  11.320   8.483   9.296  0.5023 -0.3939 -0.7997
  820MOL0     C 8110  11.220   8.524   9.367 -0.8804  0.2649  0.5240
  820MOL0     O 8111  11.214   8.631   9.452 -0.0034  0.5443 -0.6353
  820MOL0     C 8112  11.335   8.689   9.477 -0.2108 -0.3336 -0.0261
  820MOL0     C 8113  11.375   8.791   9.385  0.9757 -0.4253 -0.4766
  820MOL0     C 8114  11.506   8.831   9.392 -0.3272 -0.0781 -0.2416
  820MOL0     C 8115  11.602   8.775   9.481 -0.9255 -0.4787  0.2951
  820MOL0     O 8116  11.730   8.825   9.468  0.2484  0.6426  0.0770
  820MOL0     C 8117  11.838   8.753   9.536  0.8321  0.0117  0.2706
  820MOL0     C 8118  11.971   8.804   9.503 -1.3751  0.0675 -0.4962
  820MOL0     C 8119  12.016   8.932   9.582 -0.2363 -0.2596 -0.2373
  820MOL0     C 8120  12.149   8.996   9.531  0.4045 -0.1104 -0.0368
  820MOL0     C 8121  12.267   8.966   9.619 -0.4149 -0.4413  0.2944
  820MOL0     C 8122  12.385   9.040   9.558 -0.7127 -0.7715 -0.0159
  820MOL0     C 8123  12.518   9.011   9.625  0.6922  0.0587 -0.7280
  820MOL0     C 8124  12.632   9.103   9.563 -0.5590 -0.3782  0.0673
  820MOL0     N 8125  12.650   9.107   9.412  0.5867 -0.7494  0.0826
  820MOL0     C 8126  12.627   9.010   9.320 -0.6050  0.4868 -0.7713
  820MOL0     C 8127  12.656   9.071   9.201  0.1608  0.5354 -0.7059
  820MOL0     C 8128  12.660   9.006   9.070 -0.0974  0.5372  0.0291
  820MOL0     C 8129  12.533   9.037   8.981 -0.5279  0.0812 -0.0371
  820MOL0     C 8130  12.401   8.994   9.040  0.1112  0.1708  0.2297
  820MOL0     C 8131  12.287   9.004   8.938 -0.9259  0.1142  0.0347
  820MOL0     O 8132  12.301   8.883   8.857 -0.5360 -0.3524  0.7825
  820MOL0     C 8133  12.193   8.856   8.775  0.4269  0.2828  0.4328
  820MOL0     C 8134  12.146   8.723   8.762  0.0323 -0.3029 -0.9032
  820MOL0     C 8135  12.033   8.691   8.692  0.5273  0.0856  0.3363
  820MOL0     C 8136  11.956   8.790   8.625  0.3686 -0.0127 -0.0105
  820MOL0     C 8137  11.830   8.764   8.554  0.8781  0.3052 -0.0608
  820MOL0     O 8138  11.741   8.866   8.532  0.7006 -0.3498 -0.1097
  820MOL0     C 8139  11.647   8.846   8.432  0.5438  0.3280  0.6867
  820MOL0     C 8140  11.692   8.860   8.299  0.6414 -0.2745 -0.6772
  820MOL0     C 8141  11.597   8.825   8.195  0.7410  0.1097 -0.5140
  820MOL0     C 8142  11.468   8.779   8.220  0.0909 -0.7431  0.4682
  820MOL0     O 8143  11.374   8.774   8.121  0.2643  0.9075 -0.3222
  820MOL0     C 8144  11.398   8.678   8.020  0.0286  0.2788  1.1264
  820MOL0     C 8145  11.413   8.736   7.877 -0.2997  0.1084 -0.4645
  820MOL0     C 8146  11.317   8.856   7.850  0.2043  0.7132  0.0660
  820MOL0     C 8147  11.166   8.830   7.870 -0.4587  0.9527  0.1374
  820MOL0     C 8148  11.107   8.759   7.750  0.2787  0.6447  0.4385
  820MOL0     C 8149  10.961   8.785   7.724  0.7736  0.3920  1.3101
  820MOL0     C 8150  10.940   8.930   7.665 -0.5846  1.2827  0.2085
  820MOL0     C 8151  10.789   8.956   7.641  0.4435 -0.2985 -0.1792
  820MOL0    Cl 8152  10.774   9.131   7.622 -0.9016 -0.0870  0.0656
  820MOL0     C 8153  11.435   8.766   8.354 -0.1280 -0.5599  0.0704
  820MOL0     C 8154  11.525   8.795   8.461 -0.1930  0.0217 -0.7747
  820MOL0     O 8155  11.813   8.640   8.526 -0.3121 -0.3026  0.0567
  820MOL0     C 8156  12.010   8.918   8.629 -0.4880 -0.0523  0.3970
  820MOL0     C 8157  12.122   8.954   8.704  0.3520  0.6911  0.2111
  820MOL0     N 8158  12.681   9.201   9.223 -0.4946  0.5835  0.5686
  820MOL0     N 8159  12.688   9.222   9.347  0.2786  0.5484  0.2849
  820MOL0     C 8160  11.557   8.675   9.567 -0.8563 -0.5939 -0.6986
  820MOL0     C 8161  11.421   8.639   9.570 -0.1961 -0.0377 -0.6303
  820MOL0     C 8162  11.088   8.457   9.360  0.3415 -0.0798  0.7365
  820MOL0     C 8163  11.052   8.409   9.237 -0.3788  0.1892  0.0999
  820MOL0     C 8164  10.933   8.341   9.226 -1.0907  0.7583  0.6038
  820MOL0     C 8165  10.847   8.304   9.333  0.2559  0.0952 -0.5340
  820MOL0     O 8166  10.735   8.218   9.337  0.7280  0.5209 -0.3911
  820MOL0     C 8167  10.694   8.144   9.230 -0.1547  0.8565  0.3585
  820MOL0     C 8168  10.576   8.059   9.268  0.1485  0.1023  0.0100
  820MOL0     C 8169  10.541   7.954   9.158 -0.5657 -0.0902 -0.1852
  820MOL0     C 8170  10.410   7.873   9.179 -0.0814  0.1689  0.1084
  820MOL0     C 8171  10.350   7.802   9.061  0.6352  0.3694  1.1443
  820MOL0     C 8172  10.308   7.723   8.976 -0.2077 -0.1883 -0.0023
  820MOL0     C 8173  10.889   8.363   9.452  0.0848  1.0146  0.5149
  820MOL0     C 8174  11.001   8.443   9.462  0.3070  0.1586  0.0107
  820MOL0     H 8175  11.295   8.831   9.323  1.3232 -1.0350 -1.3490
  820MOL0     H 8176  11.533   8.896   9.309 -0.5019  0.6364  0.2508
  820MOL0     H 8177  11.836   8.653   9.490  0.3231  1.8823 -4.3745
  820MOL0     H 8178  11.818   8.750   9.643 -1.0616 -1.3301 -0.0518
  820MOL0     H 8179  11.975   8.826   9.396  0.1464  0.0997 -0.4572
  820MOL0     H 8180  12.038   8.719   9.522 -1.8429 -0.1847  0.0626
  820MOL0     H 8181  12.016   8.913   9.689 -0.5610 -3.1153 -0.6794
  820MOL0     H 8182  11.946   9.013   9.559 -3.1222 -3.0233 -2.0170
  820MOL0     H 8183  12.155   8.978   9.423 -3.0428 -0.5291 -0.2868
  820MOL0     H 8184  12.132   9.101   9.553 -1.4638 -0.3747  0.0112
  820MOL0     H 8185  12.281   8.858   9.618 -1.1650 -0.5726 -2.2329
  820MOL0     H 8186  12.247   8.993   9.723 -2.1545  0.7279 -0.2921
  820MOL0     H 8187  12.377   9.149   9.557 -3.1283 -0.8993 -0.3952
  820MOL0     H 8188  12.395   9.004   9.455  1.8280 -0.3557  0.0294
  820MOL0     H 8189  12.499   9.037   9.729  2.8675  0.2747 -0.3478
  820MOL0     H 8190  12.536   8.903   9.631 -0.3017 -0.0430  1.6312
  820MOL0     H 8191  12.730   9.082   9.607 -0.1364 -0.3195 -0.8021
  820MOL0     H 8192  12.615   9.207   9.592  0.0145 -0.1252 -0.4586
  820MOL0     H 8193  12.608   8.904   9.337 -0.0309  0.3992 -0.6677
  820MOL0     H 8194  12.674   8.900   9.095 -1.1140  0.8248  2.0806
  820MOL0     H 8195  12.739   9.047   9.007 -2.7394  2.5415 -2.2220
  820MOL0     H 8196  12.540   8.996   8.880  0.1682  1.0046 -0.3805
  820MOL0     H 8197  12.533   9.145   8.965  1.2486 -0.2498 -2.9593
  820MOL0     H 8198  12.423   8.899   9.090  4.8220  2.3120  2.9364
  820MOL0     H 8199  12.380   9.074   9.110  0.8823  0.6022 -0.0136
  820MOL0     H 8200  12.306   9.089   8.870 -1.1646 -0.5967 -0.9447
  820MOL0     H 8201  12.195   9.020   8.994 -1.8957  1.1599 -1.7644
  820MOL0     H 8202  12.206   8.647   8.811 -0.5298  0.1003  0.4401
  820MOL0     H 8203  12.011   8.586   8.675  2.5880 -0.3446  0.1417
  820MOL0     H 8204  11.795   8.891   8.286 -0.1306  3.1303  0.2008
  820MOL0     H 8205  11.619   8.830   8.089 -3.5966  2.0370 -1.5464
  820MOL0     H 8206  11.315   8.607   8.018  0.0222  0.2355 -1.4094
  820MOL0     H 8207  11.493   8.626   8.033  0.8075  1.2692 -0.2843
  820MOL0     H 8208  11.387   8.659   7.804  1.5353  0.3006 -1.3884
  820MOL0     H 8209  11.517   8.760   7.855 -0.1896  0.9891  0.9131
  820MOL0     H 8210  11.323   8.885   7.745 -0.7876 -3.1882 -1.2055
  820MOL0     H 8211  11.360   8.943   7.901  2.4757  1.1400 -2.3454
  820MOL0     H 8212  11.151   8.758   7.950  0.6424  2.4471  1.7691
  820MOL0     H 8213  11.115   8.922   7.900  1.2679  1.5832  1.3092
  820MOL0     H 8214  11.114   8.654   7.781 -0.3982  1.0600  2.0933
  820MOL0     H 8215  11.164   8.778   7.659  1.9130  0.6320  1.4172
  820MOL0     H 8216  10.894   8.767   7.808 -1.7638 -2.0134 -1.0204
  820MOL0     H 8217  10.929   8.709   7.653 -2.7088 -0.0534  3.1264
  820MOL0     H 8218  10.992   9.009   7.720  3.1684  0.3983 -1.7554
  820MOL0     H 8219  10.991   8.932   7.568  2.2217  1.7394  1.6105
  820MOL0     H 8220  10.727   8.923   7.725 -0.9992  1.8255 -0.3283
  820MOL0     H 8221  10.754   8.897   7.555  2.4369 -0.6316 -0.8023
  820MOL0     H 8222  11.344   8.728   8.400  0.0196  0.1099  0.9403
  820MOL0     H 8223  11.501   8.795   8.567 -1.1340  1.6205 -0.9462
  820MOL0     H 8224  11.971   8.988   8.556 -2.3431  2.9712  3.9512
  820MOL0     H 8225  12.163   9.053   8.722  3.0162 -0.4306  0.7899
  820MOL0     H 8226  11.628   8.632   9.637 -1.8756  2.4152  2.5262
  820MOL0     H 8227  11.370   8.568   9.634  4.2211 -0.8508  2.4817
  820MOL0     H 8228  11.119   8.429   9.155 -0.0815 -0.1138  0.2644
  820MOL0     H 8229  10.901   8.325   9.124 -0.4696  0.5238  0.4362
  820MOL0     H 8230  10.774   8.076   9.201 -1.4726 -1.0094  0.9257
  820MOL0     H 8231  10.663   8.208   9.147  1.6630  1.2450 -0.0479
  820MOL0     H 8232  10.607   8.010   9.361  0.8215  1.5641  0.5891
  820MOL0     H 8233  10.492   8.124   9.291  1.5347  2.4649 -1.2115
  820MOL0     H 8234  10.624   7.887   9.134  0.9695  2.4861 -2.7517
  820MOL0     H 8235  10.550   8.001   9.060  0.7087  1.2137  0.5145
  820MOL0     H 8236  10.436   7.787   9.242 -0.9666  0.5829  1.0640
  820MOL0     H 8237  10.331   7.927   9.232 -0.5369 -0.9668  0.6116
  820MOL0     H 8238  10.263   7.644   8.920  0.4419 -2.4698  2.4756
  820MOL0     H 8239  10.816   8.349   9.532  0.5045  1.0014  0.8961
  820MOL0     H 8240  11.031   8.500   9.550  2.0110 -4.1171  2.4985
  821MOL0     O 8241   0.268   9.763   6.481 -0.0198 -0.0348  0.1601
  821MOL0     C 8242   0.290   9.759   6.603  0.7387 -0.8823 -0.2939
  821MOL0     O 8243   0.204   9.817   6.688  0.1552 -0.2960 -0.2070
  821MOL0     C 8244   0.091   9.878   6.642  0.6018 -1.1396  0.3068
  821MOL0     C 8245   0.087  10.018   6.668 -0.1352  0.0586  0.5326
  821MOL0     C 8246  -0.028  10.087   6.624 -0.2957  0.0556 -0.8243
  821MOL0     C 8247  -0.141  10.025   6.571 -0.4354  1.5690 -0.6488
  821MOL0     O 8248  -0.251  10.097   6.551  0.1427 -0.3383 -0.7730
  821MOL0     C 8249  -0.364  10.046   6.477 -0.7797  0.3549  0.4460
  821MOL0     C 8250  -0.487  10.133   6.511 -0.0686  0.5630 -0.0992
  821MOL0     C 8251  -0.620  10.063   6.469 -0.3745  0.1410  0.2483
  821MOL0     C 8252  -0.657  10.085   6.328  0.7519  0.5355  0.5812
  821MOL0     C 8253  -0.658  10.239   6.287  0.0711  1.0679  0.2136
  821MOL0     C 8254  -0.721  10.283   6.156 -0.0634 -1.3161 -0.1230
  821MOL0     C 8255  -0.872  10.266   6.167  0.7311  0.6634 -0.3069
  821MOL0     C 8256  -0.940  10.350   6.059  0.9886  0.2814 -1.3689
  821MOL0     N 8257  -0.937  10.491   6.089  0.4676 -0.5662 -0.1365
  821MOL0     C 8258  -1.038  10.546   6.165  0.0410 -0.5683  0.4377
  821MOL0     C 8259  -1.035  10.680   6.149 -0.1254  0.3992  0.3313
  821MOL0     C 8260  -1.124  10.786   6.206  0.3225  0.3511 -0.0049
  821MOL0     C 8261  -1.233  10.749   6.319 -0.2553 -0.7789 -0.1812
  821MOL0     C 8262  -1.303  10.865   6.382 -0.4681 -0.4896  0.3313
  821MOL0     C 8263  -1.456  10.840   6.392  0.2182 -0.2929  0.4891
  821MOL0     O 8264  -1.506  10.857   6.257  0.1529  0.6236  0.7345
  821MOL0     C 8265  -1.639  10.828   6.233 -0.4400  0.6758  0.3235
  821MOL0     C 8266  -1.738  10.809   6.335 -0.1167 -0.6078  0.1370
  821MOL0     C 8267  -1.872  10.783   6.314 -0.4946 -0.7882  0.6327
  821MOL0     C 8268  -1.910  10.787   6.179  0.8361  0.3876  0.5682
  821MOL0     C 8269  -2.036  10.759   6.131 -0.1868  0.8221 -0.3866
  821MOL0     O 8270  -2.108  10.669   6.208 -0.2553 -0.1817 -0.2907
  821MOL0     C 8271  -2.239  10.643   6.200 -1.0539  0.3729 -0.3403
  821MOL0     C 8272  -2.285  10.544   6.289  1.5192  0.4678  0.2461
  821MOL0     C 8273  -2.416  10.503   6.299  0.5795  0.0949 -0.3013
  821MOL0     C 8274  -2.514  10.573   6.239 -0.3326  0.1804 -0.7054
  821MOL0     O 8275  -2.638  10.532   6.249 -0.2675 -0.1728 -0.0243
  821MOL0     C 8276  -2.703  10.503   6.374 -0.0596 -0.0455  0.1854
  821MOL0     C 8277  -2.819  10.405   6.360 -0.9801 -0.2812  0.7246
  821MOL0     C 8278  -2.948  10.483   6.324  0.2804 -0.5617  0.3829
  821MOL0     C 8279  -3.074  10.398   6.322 -0.0871 -0.8137 -0.5035
  821MOL0     C 8280  -3.134  10.355   6.462 -0.0044  0.0124  0.4542
  821MOL0     C 8281  -3.283  10.315   6.431 -1.0051 -0.7570  0.4972
  821MOL0     C 8282  -3.342  10.238   6.545 -0.5863 -0.3057  0.6010
  821MOL0     C 8283  -3.472  10.165   6.504  0.3026  0.1372  0.5064
  821MOL0    Cl 8284  -3.505  10.069   6.650 -0.6806 -0.1245 -0.2417
  821MOL0     C 8285  -2.475  10.679   6.161 -0.6134 -0.4214 -1.0752
  821MOL0     C 8286  -2.340  10.716   6.146  0.0188 -0.7628  0.9101
  821MOL0     O 8287  -2.077  10.812   6.035 -0.6305 -0.2241  0.0789
  821MOL0     C 8288  -1.815  10.815   6.073 -0.5179 -0.0218  0.1089
  821MOL0     C 8289  -1.681  10.834   6.097 -0.2277 -0.2790 -0.7020
  821MOL0     N 8290  -0.930  10.701   6.064  0.4398 -0.1971  0.4840
  821MOL0     N 8291  -0.870  10.587   6.033  0.6634 -0.2053  0.7579
  821MOL0     C 8292  -0.137   9.884   6.567  0.3669  0.7386 -1.1694
  821MOL0     C 8293  -0.019   9.814   6.592  0.2912  0.8566 -0.0924
  821MOL0     C 8294   0.418   9.715   6.653 -0.1113 -0.1841 -0.6509
  821MOL0     C 8295   0.439   9.583   6.678 -0.4690  0.5197  0.2971
  821MOL0     C 8296   0.556   9.549   6.746 -0.4391 -0.5342  0.6816
  821MOL0     C 8297   0.641   9.642   6.809 -0.4072  0.3254  0.1757
  821MOL0     O 8298   0.738   9.621   6.901 -0.7440 -0.0124  1.0829
  821MOL0     C 8299   0.788   9.495   6.935 -1.4599  0.5900 -0.7884
  821MOL0     C 8300   0.861   9.412   6.827 -0.2589 -0.4824 -0.1845
  821MOL0     C 8301   0.901   9.273   6.897  0.3790  0.3908  0.5577
  821MOL0     C 8302   0.991   9.180   6.811 -0.1085  0.3765 -0.6036
  821MOL0     C 8303   0.923   9.127   6.692  0.4631 -0.2932  0.1125
  821MOL0     C 8304   0.878   9.097   6.583 -0.6639  0.5094 -1.2583
  821MOL0     C 8305   0.612   9.775   6.787  0.0785 -0.5672  0.0704
  821MOL0     C 8306   0.497   9.813   6.714  0.0633 -0.1098 -0.8587
  821MOL0     H 8307   0.168  10.066   6.722  1.6319 -0.4879 -1.4664
  821MOL0     H 8308  -0.053  10.192   6.638 -0.2542  0.2084 -1.8193
  821MOL0     H 8309  -0.395   9.952   6.523 -0.9866 -0.9457 -2.2051
  821MOL0     H 8310  -0.331  10.040   6.373 -2.4790 -1.1407 -0.0546
  821MOL0     H 8311  -0.483  10.230   6.460 -1.4336  1.8469  2.1019
  821MOL0     H 8312  -0.491  10.151   6.618  1.9630 -0.1180  0.1260
  821MOL0     H 8313  -0.699  10.113   6.526 -1.2729 -2.3417  1.2823
  821MOL0     H 8314  -0.617   9.959   6.501 -0.8845  0.0749  0.0877
  821MOL0     H 8315  -0.586  10.037   6.259 -0.9666  1.0449 -1.6742
  821MOL0     H 8316  -0.751  10.036   6.303  1.9470 -1.4797 -0.1873
  821MOL0     H 8317  -0.553  10.268   6.272 -0.0573 -0.0600 -4.1490
  821MOL0     H 8318  -0.696  10.303   6.367  1.5693  0.0770  1.7794
  821MOL0     H 8319  -0.686  10.223   6.072 -0.0482 -1.4509 -0.0213
  821MOL0     H 8320  -0.678  10.382   6.139  2.2245 -2.5715 -2.3397
  821MOL0     H 8321  -0.888  10.160   6.144  1.6193  0.3511  0.4721
  821MOL0     H 8322  -0.921  10.297   6.260 -3.7261  1.6642 -2.6636
  821MOL0     H 8323  -1.042  10.310   6.053 -0.6698  3.2058  2.8374
  821MOL0     H 8324  -0.890  10.344   5.962  2.9807  2.6766 -0.5657
  821MOL0     H 8325  -1.112  10.491   6.224  0.4877 -2.7891 -0.9724
  821MOL0     H 8326  -1.173  10.825   6.116  1.0148  0.5591 -0.2974
  821MOL0     H 8327  -1.074  10.871   6.252 -1.4673  2.7181 -2.1553
  821MOL0     H 8328  -1.174  10.700   6.397  2.2830 -0.7337 -1.9545
  821MOL0     H 8329  -1.304  10.670   6.293  0.2441 -1.5066  0.6220
  821MOL0     H 8330  -1.271  10.875   6.486  2.4935 -1.9136 -0.3604
  821MOL0     H 8331  -1.285  10.954   6.320 -2.2156  1.5995  2.6079
  821MOL0     H 8332  -1.495  10.920   6.455  2.0719  0.7671  0.3611
  821MOL0     H 8333  -1.471  10.736   6.424  1.6724 -0.3392  1.0873
  821MOL0     H 8334  -1.709  10.810   6.439  0.4192 -2.2049  0.0197
  821MOL0     H 8335  -1.945  10.758   6.391 -0.8953 -0.9584  0.2096
  821MOL0     H 8336  -2.205  10.485   6.334 -1.0229 -2.5310  1.2619
  821MOL0     H 8337  -2.430  10.414   6.359  0.6357  0.2406 -0.0748
  821MOL0     H 8338  -2.736  10.599   6.413 -1.0999  0.8184 -2.6111
  821MOL0     H 8339  -2.634  10.453   6.443  0.8025  1.5644  0.5201
  821MOL0     H 8340  -2.829  10.332   6.441 -0.8699 -2.0105 -0.7531
  821MOL0     H 8341  -2.810  10.338   6.273 -0.8670 -0.3245  0.7686
  821MOL0     H 8342  -2.937  10.519   6.221 -0.0612  1.4429  1.0023
  821MOL0     H 8343  -2.961  10.570   6.389 -0.4961 -0.3334 -0.0693
  821MOL0     H 8344  -3.151  10.464   6.280  0.6914  2.9498  3.2539
  821MOL0     H 8345  -3.057  10.310   6.259 -2.3221 -2.7717  1.4122
  821MOL0     H 8346  -3.131  10.441   6.529 -2.5625 -1.0106  2.0107
  821MOL0     H 8347  -3.085  10.271   6.511 -0.2725 -0.2905  0.2097
  821MOL0     H 8348  -3.288  10.255   6.340  1.3859 -0.1478 -0.1190
  821MOL0     H 8349  -3.323  10.414   6.409  1.3874 -0.5609 -4.3958
  821MOL0     H 8350  -3.270  10.165   6.581 -1.1217  0.4769  3.5536
  821MOL0     H 8351  -3.352  10.305   6.632 -0.7372  1.7939 -0.9592
  821MOL0     H 8352  -3.457  10.099   6.418  2.8994  2.3480 -0.9327
  821MOL0     H 8353  -3.547  10.236   6.469  2.7273  3.4340  1.4868
  821MOL0     H 8354  -2.549  10.743   6.113 -0.0799  1.2187  0.2001
  821MOL0     H 8355  -2.310  10.808   6.096  0.3945 -3.0752 -3.7480
  821MOL0     H 8356  -1.851  10.817   5.971  0.2204 -1.2669 -0.2025
  821MOL0     H 8357  -1.621  10.859   6.011  1.5304 -0.9665  0.2626
  821MOL0     H 8358  -0.228   9.831   6.541 -2.4475  4.3428  0.3213
  821MOL0     H 8359  -0.015   9.707   6.576 -2.0145  0.7615 -0.5097
  821MOL0     H 8360   0.383   9.498   6.639 -0.9163  0.2147  1.5688
  821MOL0     H 8361   0.586   9.445   6.752  0.8166 -0.2528 -0.3554
  821MOL0     H 8362   0.713   9.431   6.983 -0.2614  0.8004  1.4995
  821MOL0     H 8363   0.865   9.513   7.011 -1.3466  0.4476 -0.8707
  821MOL0     H 8364   0.795   9.397   6.741 -3.3012 -0.7877  2.0571
  821MOL0     H 8365   0.947   9.468   6.790 -0.7390 -1.0456 -2.3158
  821MOL0     H 8366   0.816   9.211   6.929  1.9901 -2.2424  0.0067
  821MOL0     H 8367   0.962   9.286   6.987 -1.6943  1.1533  1.9437
  821MOL0     H 8368   1.082   9.238   6.788  0.9199 -0.6786  0.6614
  821MOL0     H 8369   1.009   9.089   6.869  0.4871 -0.2558 -1.7375
  821MOL0     H 8370   0.844   9.078   6.484 -0.1712 -1.6711 -1.0481
  821MOL0     H 8371   0.665   9.857   6.836 -0.6695  1.5589 -2.4355
  821MOL0     H 8372   0.463   9.916   6.718 -1.2885 -0.5795  1.0402
  822MOL0     O 8373   7.904   3.570   6.704 -0.2909 -0.5751 -0.4141
  822MOL0     C 8374   7.953   3.538   6.808 -0.5511  0.1430  0.0405
  822MOL0     O 8375   7.912   3.434   6.882 -0.6872 -0.3236 -0.1782
  822MOL0     C 8376   7.808   3.364   6.835 -0.6223  0.1749  0.3978
  822MOL0     C 8377   7.803   3.231   6.886 -0.0132  0.1154 -0.0359
  822MOL0     C 8378   7.698   3.142   6.864  0.2832  0.3332  0.1324
  822MOL0     C 8379   7.587   3.175   6.784 -0.6824 -0.6064 -0.5449
  822MOL0     O 8380   7.474   3.094   6.752 -1.1465 -0.3887  0.0423
  822MOL0     C 8381   7.500   2.950   6.747  0.5620 -0.1486 -0.1036
  822MOL0     C 8382   7.549   2.898   6.605 -0.3638 -0.2544 -0.1847
  822MOL0     C 8383   7.580   2.747   6.605 -0.2098  0.8599  0.2176
  822MOL0     C 8384   7.605   2.691   6.458  0.3099 -0.7856 -0.0282
  822MOL0     C 8385   7.756   2.710   6.417 -0.4486  0.9510 -0.6605
  822MOL0     C 8386   7.791   2.729   6.267 -0.5487 -0.2164  1.3878
  822MOL0     C 8387   7.782   2.605   6.182 -0.2785 -0.4513 -1.1599
  822MOL0     C 8388   7.765   2.627   6.042 -0.2630 -0.1376  0.0280
  822MOL0     N 8389   7.640   2.689   5.989 -0.4672 -0.3139 -0.0501
  822MOL0     C 8390   7.530   2.695   6.053  0.4225 -0.1346 -0.4584
  822MOL0     C 8391   7.460   2.798   6.003 -0.2009 -0.3904 -0.5439
  822MOL0     C 8392   7.354   2.866   6.084 -0.6601  0.0035  0.8395
  822MOL0     C 8393   7.403   2.959   6.196  0.9199  0.4243 -0.1268
  822MOL0     C 8394   7.410   3.096   6.138  0.6004 -0.2831 -0.4779
  822MOL0     C 8395   7.505   3.185   6.211 -0.3674  0.1848 -0.5032
  822MOL0     O 8396   7.635   3.155   6.159  0.1017  0.3071  0.4842
  822MOL0     C 8397   7.735   3.131   6.248 -1.1029  0.3208 -0.1782
  822MOL0     C 8398   7.749   3.138   6.387 -0.4519  0.4283 -0.5349
  822MOL0     C 8399   7.875   3.106   6.449 -0.4026 -0.4193  1.1254
  822MOL0     C 8400   7.994   3.087   6.370 -0.5275  0.1925 -0.0570
  822MOL0     C 8401   8.130   3.069   6.431  0.3075  0.2708 -0.2907
  822MOL0     O 8402   8.231   3.021   6.350 -0.5847 -0.0979  0.2842
  822MOL0     C 8403   8.356   2.990   6.391 -0.3880 -0.0769  0.3045
  822MOL0     C 8404   8.467   3.076   6.365  0.9128  0.2722 -0.6381
  822MOL0     C 8405   8.583   3.042   6.434  0.1537  0.6790  0.0868
  822MOL0     C 8406   8.606   2.925   6.501 -0.2654  0.5081 -0.7009
  822MOL0     O 8407   8.722   2.901   6.566  0.3128  0.0675 -0.0481
  822MOL0     C 8408   8.852   2.963   6.532 -0.4697 -0.1640 -1.1087
  822MOL0     C 8409   8.960   2.859   6.578 -1.1030 -0.4504 -0.1757
  822MOL0     C 8410   9.090   2.867   6.485 -0.2149  0.1413  0.2312
  822MOL0     C 8411   9.180   2.735   6.495  0.1281  0.2708 -1.1360
  822MOL0     C 8412   9.100   2.615   6.454 -0.5006 -0.5666 -0.2728
  822MOL0     C 8413   9.193   2.493   6.439  0.4302 -0.1324  1.0997
  822MOL0     C 8414   9.101   2.364   6.405 -0.3239 -0.3640 -0.7216
  822MOL0     C 8415   9.183   2.251   6.331 -0.1691  0.1503 -0.0254
  822MOL0    Cl 8416   9.102   2.086   6.340 -0.3403  0.2098  0.3186
  822MOL0     C 8417   8.502   2.838   6.520 -0.4115 -0.0693  0.3931
  822MOL0     C 8418   8.382   2.870   6.464 -0.2053 -0.8549  0.3986
  822MOL0     O 8419   8.135   3.095   6.552  0.0614 -0.1997 -0.3530
  822MOL0     C 8420   7.980   3.087   6.232  0.1203  0.9625  0.1535
  822MOL0     C 8421   7.853   3.099   6.175 -1.0130 -0.4845  0.3032
  822MOL0     N 8422   7.535   2.855   5.902  0.4927 -0.4152 -0.6214
  822MOL0     N 8423   7.636   2.781   5.887 -0.1759 -0.8800  0.0369
  822MOL0     C 8424   7.582   3.307   6.745  0.2617  0.9564 -0.9803
  822MOL0     C 8425   7.689   3.401   6.767 -0.7129  0.1156  0.0906
  822MOL0     C 8426   8.078   3.606   6.856  0.0232  0.1066  0.1579
  822MOL0     C 8427   8.121   3.717   6.796  0.6477 -0.5945 -0.7965
  822MOL0     C 8428   8.250   3.777   6.815  0.1654 -0.0772  0.0058
  822MOL0     C 8429   8.339   3.730   6.915  0.5726 -0.3271 -0.0026
  822MOL0     O 8430   8.449   3.804   6.959 -0.7891  0.1269  0.1449
  822MOL0     C 8431   8.564   3.727   6.996  0.1219  0.1565  0.7508
  822MOL0     C 8432   8.630   3.665   6.867  0.4101  0.8062  0.1306
  822MOL0     C 8433   8.698   3.765   6.783 -1.0308 -0.6004  0.1998
  822MOL0     C 8434   8.707   3.703   6.642  0.1982  0.3811 -0.0646
  822MOL0     C 8435   8.835   3.727   6.582 -0.1774 -0.3150  0.1168
  822MOL0     C 8436   8.951   3.729   6.549  0.0221  0.1472 -0.6537
  822MOL0     C 8437   8.294   3.610   6.978 -0.2385 -1.4935 -0.5236
  822MOL0     C 8438   8.163   3.550   6.949  0.1566  0.6214 -0.0734
  822MOL0     H 8439   7.892   3.194   6.936 -0.4703 -2.7287 -1.1365
  822MOL0     H 8440   7.703   3.051   6.923 -0.5214  0.8504  1.0201
  822MOL0     H 8441   7.408   2.895   6.770 -1.1077  2.4440 -0.2329
  822MOL0     H 8442   7.569   2.918   6.826 -2.1073 -0.9743  2.0550
  822MOL0     H 8443   7.636   2.955   6.569  0.9824 -2.1601 -0.0835
  822MOL0     H 8444   7.464   2.924   6.541  0.3344  2.5567 -0.0911
  822MOL0     H 8445   7.493   2.708   6.659  1.5493 -0.8197  1.9959
  822MOL0     H 8446   7.665   2.728   6.671  2.6244  0.7336 -3.2003
  822MOL0     H 8447   7.574   2.586   6.461  1.7165 -1.3058 -2.1401
  822MOL0     H 8448   7.542   2.735   6.380 -1.1093  1.6230  2.3083
  822MOL0     H 8449   7.807   2.623   6.457 -0.6279  0.5788 -1.2294
  822MOL0     H 8450   7.787   2.805   6.463 -1.4271  0.5861  0.8138
  822MOL0     H 8451   7.889   2.773   6.243 -0.9481 -1.7089 -4.6196
  822MOL0     H 8452   7.720   2.805   6.237  0.0272 -0.2520 -0.1625
  822MOL0     H 8453   7.868   2.541   6.204 -0.5356 -0.4495 -0.1028
  822MOL0     H 8454   7.698   2.541   6.213 -1.3314  1.4100  0.0475
  822MOL0     H 8455   7.761   2.523   6.010 -0.2442  0.3747 -1.7647
  822MOL0     H 8456   7.844   2.686   5.994 -0.8552 -0.7643 -1.7992
  822MOL0     H 8457   7.495   2.642   6.140  0.4549  0.4551 -0.0804
  822MOL0     H 8458   7.289   2.790   6.129 -1.2965 -1.8338 -2.7324
  822MOL0     H 8459   7.301   2.924   6.008  3.9662  0.4435 -2.4248
  822MOL0     H 8460   7.504   2.942   6.234  1.3498  0.0244 -1.3965
  822MOL0     H 8461   7.328   2.948   6.274  2.9302 -1.1684  1.7188
  822MOL0     H 8462   7.432   3.093   6.031  1.8901 -1.3895 -0.2051
  822MOL0     H 8463   7.309   3.138   6.139  1.0921  0.9438 -0.1717
  822MOL0     H 8464   7.500   3.165   6.319 -1.5235  0.5417 -0.4792
  822MOL0     H 8465   7.473   3.289   6.197  0.4485  1.4298  4.6354
  822MOL0     H 8466   7.684   3.181   6.463  2.0963  0.6057  1.7183
  822MOL0     H 8467   7.875   3.117   6.556 -0.7647  1.4022  0.9654
  822MOL0     H 8468   8.465   3.170   6.310  1.6032  0.2598 -0.6926
  822MOL0     H 8469   8.666   3.112   6.433  2.1781 -1.5780  0.3629
  822MOL0     H 8470   8.865   3.062   6.577 -0.7981 -0.1916 -0.9488
  822MOL0     H 8471   8.861   2.981   6.424 -1.3842  0.7034 -1.0516
  822MOL0     H 8472   8.918   2.758   6.577 -0.2669 -0.8027 -0.2347
  822MOL0     H 8473   8.983   2.884   6.682 -0.7384  1.0707 -0.5840
  822MOL0     H 8474   9.152   2.952   6.515  0.6358  0.8251 -3.0046
  822MOL0     H 8475   9.071   2.881   6.378 -2.1928  1.3211  0.6866
  822MOL0     H 8476   9.264   2.748   6.426  2.3850 -4.3972  0.3057
  822MOL0     H 8477   9.215   2.716   6.597  0.3711  0.3528 -1.2046
  822MOL0     H 8478   9.034   2.623   6.367  0.4435 -3.6845 -1.4483
  822MOL0     H 8479   9.043   2.597   6.546  0.6847  3.5622  1.4735
  822MOL0     H 8480   9.249   2.469   6.530  0.9768 -1.1053  0.5190
  822MOL0     H 8481   9.258   2.511   6.353  0.5820  0.8207  1.4003
  822MOL0     H 8482   9.078   2.315   6.500 -0.1367  3.1427  1.2902
  822MOL0     H 8483   9.012   2.397   6.351 -0.7338 -0.3613 -0.0573
  822MOL0     H 8484   9.272   2.235   6.393  0.1190  0.6640 -0.2964
  822MOL0     H 8485   9.220   2.271   6.230 -2.2453 -1.2340 -1.1116
  822MOL0     H 8486   8.527   2.751   6.579  4.2457 -0.6694 -1.9985
  822MOL0     H 8487   8.301   2.796   6.467  0.0632 -1.1957 -0.5050
  822MOL0     H 8488   8.064   3.065   6.168  0.7579 -1.7844  1.7811
  822MOL0     H 8489   7.850   3.090   6.067 -1.8766  0.6690  0.2105
  822MOL0     H 8490   7.495   3.345   6.692 -1.9855 -3.3383 -0.7865
  822MOL0     H 8491   7.688   3.495   6.714  1.4044 -0.6126 -1.3624
  822MOL0     H 8492   8.064   3.757   6.713  2.4556  1.3035 -1.2223
  822MOL0     H 8493   8.281   3.867   6.762 -2.0836  0.8069  0.0765
  822MOL0     H 8494   8.542   3.641   7.060  0.8972 -1.6233 -1.2628
  822MOL0     H 8495   8.630   3.801   7.042  0.3342  1.7797 -1.9342
  822MOL0     H 8496   8.705   3.590   6.896 -1.6286 -0.8393  1.4562
  822MOL0     H 8497   8.557   3.611   6.805  0.4154  1.8326 -0.7936
  822MOL0     H 8498   8.796   3.795   6.822 -1.5298  1.3736  0.0487
  822MOL0     H 8499   8.633   3.853   6.773 -0.4758 -0.2850 -0.7349
  822MOL0     H 8500   8.688   3.596   6.649 -1.9900  0.6611 -0.9614
  822MOL0     H 8501   8.623   3.746   6.587  0.4702  0.5225 -0.3742
  822MOL0     H 8502   9.053   3.736   6.519  0.3468 -1.4232 -0.0144
  822MOL0     H 8503   8.356   3.581   7.062  1.2091  1.1911 -0.5431
  822MOL0     H 8504   8.143   3.471   7.021  2.0257  0.0995 -0.0783
  823MOL0     O 8505   8.872   1.409   5.178 -0.7437 -0.0182  0.0521
  823MOL0     C 8506   8.870   1.402   5.055  0.0821 -0.4424  0.0008
  823MOL0     O 8507   8.777   1.345   4.985 -0.9263 -0.1194 -0.0362
  823MOL0     C 8508   8.652   1.349   5.051 -0.2095  0.0978  0.6221
  823MOL0     C 8509   8.581   1.233   5.089  0.7633 -0.0005 -0.6430
  823MOL0     C 8510   8.472   1.238   5.174  0.3078 -0.8238  0.0677
  823MOL0     C 8511   8.410   1.361   5.201 -0.3682 -0.6499 -0.2801
  823MOL0     O 8512   8.302   1.385   5.281  0.6481 -0.0472 -0.2902
  823MOL0     C 8513   8.207   1.280   5.281  0.1633  0.2301  0.0276
  823MOL0     C 8514   8.071   1.331   5.319  0.3564  0.6886  0.0758
  823MOL0     C 8515   7.994   1.411   5.201 -0.1686  0.4415 -0.0869
  823MOL0     C 8516   7.851   1.468   5.247 -1.2219  0.6908  0.0591
  823MOL0     C 8517   7.860   1.577   5.358  0.9634  0.8834 -0.2782
  823MOL0     C 8518   7.726   1.649   5.386  0.9414 -0.2173  0.3636
  823MOL0     C 8519   7.711   1.771   5.300 -1.3093  0.2176 -0.0054
  823MOL0     C 8520   7.584   1.836   5.339  0.7620 -0.2886  0.3182
  823MOL0     N 8521   7.608   1.936   5.435 -0.0729 -0.3058  0.6211
  823MOL0     C 8522   7.617   2.069   5.396 -0.8692 -0.1457  0.0215
  823MOL0     C 8523   7.642   2.138   5.510 -0.6334  0.0240 -0.0656
  823MOL0     C 8524   7.634   2.282   5.555 -0.2693 -0.0513  0.1423
  823MOL0     C 8525   7.497   2.339   5.516 -0.1838 -0.3279 -0.1170
  823MOL0     C 8526   7.387   2.294   5.609 -0.3925 -0.5556 -0.2068
  823MOL0     C 8527   7.392   2.376   5.733  0.2655  0.3601 -0.0218
  823MOL0     O 8528   7.286   2.322   5.820  0.1668 -0.5974  1.2773
  823MOL0     C 8529   7.188   2.391   5.875  0.9728 -0.1189  1.0528
  823MOL0     C 8530   7.064   2.321   5.886 -0.8012  0.5299 -0.2804
  823MOL0     C 8531   6.953   2.379   5.945  0.1511 -0.8110  0.8761
  823MOL0     C 8532   6.947   2.514   5.967  0.7319 -0.3762 -0.4581
  823MOL0     C 8533   6.831   2.577   6.031  0.2026 -0.2444  0.5358
  823MOL0     O 8534   6.751   2.501   6.109 -0.3773 -0.6257 -0.0360
  823MOL0     C 8535   6.631   2.549   6.158 -0.7168  0.2679 -0.7297
  823MOL0     C 8536   6.629   2.586   6.292 -0.1191 -0.1832  0.6960
  823MOL0     C 8537   6.503   2.625   6.344 -0.2303 -0.0055 -0.4032
  823MOL0     C 8538   6.393   2.660   6.262 -0.4630  0.0873  0.7174
  823MOL0     O 8539   6.290   2.742   6.307  0.3057 -0.1683  0.5767
  823MOL0     C 8540   6.298   2.882   6.268 -0.9146 -0.1034 -0.2510
  823MOL0     C 8541   6.150   2.930   6.258 -0.7171 -0.9969  0.3115
  823MOL0     C 8542   6.135   3.079   6.247  0.3963  0.3818 -0.3348
  823MOL0     C 8543   5.992   3.110   6.210  0.4630  0.1996  0.0338
  823MOL0     C 8544   5.965   3.106   6.058  0.6230  0.0817 -0.1956
  823MOL0     C 8545   6.045   3.216   5.986  1.0049 -0.7174  0.3858
  823MOL0     C 8546   6.038   3.357   6.048  0.4229  0.4563 -0.6251
  823MOL0     C 8547   6.109   3.460   5.964 -0.5914 -0.5749 -0.3308
  823MOL0    Cl 8548   6.106   3.633   6.043 -0.3708  0.2597 -0.0074
  823MOL0     C 8549   6.400   2.637   6.125  0.6196 -0.1199  0.5034
  823MOL0     C 8550   6.526   2.587   6.070  0.0646  0.7118 -0.4727
  823MOL0     O 8551   6.815   2.691   5.998  0.4874 -0.6075  0.6250
  823MOL0     C 8552   7.072   2.588   5.955  0.3808 -0.0797 -0.0196
  823MOL0     C 8553   7.183   2.528   5.902  0.2417 -0.3391  0.6584
  823MOL0     N 8554   7.666   2.043   5.607 -0.1750  0.7173 -0.0918
  823MOL0     N 8555   7.648   1.923   5.564 -0.4606 -0.1824 -1.0148
  823MOL0     C 8556   8.463   1.475   5.140 -0.0225  0.5439 -0.9201
  823MOL0     C 8557   8.577   1.466   5.061  0.6464  0.4684  0.2927
  823MOL0     C 8558   8.985   1.455   4.982 -0.0075 -0.3156 -0.4075
  823MOL0     C 8559   8.976   1.515   4.858 -0.7774 -0.2176 -0.2124
  823MOL0     C 8560   9.087   1.578   4.800  0.5456  1.3619  0.2103
  823MOL0     C 8561   9.207   1.587   4.869 -0.0464 -0.3788  0.7348
  823MOL0     O 8562   9.326   1.651   4.829 -0.4703  0.4449  0.1457
  823MOL0     C 8563   9.302   1.739   4.719 -0.7720 -0.6132  0.2296
  823MOL0     C 8564   9.436   1.821   4.688  0.9206 -0.9170  0.3757
  823MOL0     C 8565   9.427   1.905   4.565 -0.2308  0.2048  0.6747
  823MOL0     C 8566   9.537   2.000   4.534 -0.1339  0.0956  0.1467
  823MOL0     C 8567   9.502   2.067   4.408 -0.6235 -0.1614  0.2830
  823MOL0     C 8568   9.476   2.123   4.304  0.8382  0.4506 -0.1210
  823MOL0     C 8569   9.219   1.515   4.982 -0.0373 -0.7426 -0.3556
  823MOL0     C 8570   9.103   1.461   5.048  0.4866  0.3913  0.7071
  823MOL0     H 8571   8.629   1.137   5.068 -1.2727 -0.8621 -1.7023
  823MOL0     H 8572   8.429   1.155   5.229  1.0459 -2.0017 -1.0549
  823MOL0     H 8573   8.242   1.206   5.354  1.1207  0.9639  0.3433
  823MOL0     H 8574   8.209   1.228   5.184 -3.2585  2.9089 -1.6737
  823MOL0     H 8575   8.086   1.399   5.403 -0.7257 -2.6763  3.2781
  823MOL0     H 8576   8.009   1.248   5.355  2.1097 -0.4045  0.7196
  823MOL0     H 8577   7.983   1.345   5.113 -0.7187 -1.0927  1.0863
  823MOL0     H 8578   8.061   1.484   5.154 -0.0943  1.5409  1.6584
  823MOL0     H 8579   7.810   1.520   5.160  3.5119  0.7229 -2.5294
  823MOL0     H 8580   7.787   1.383   5.271 -2.7245  2.0295  1.0210
  823MOL0     H 8581   7.932   1.651   5.324  0.7214  0.1100 -2.6114
  823MOL0     H 8582   7.886   1.526   5.452 -1.2875 -1.3331 -0.7190
  823MOL0     H 8583   7.712   1.672   5.492 -2.1542  2.0403 -0.3860
  823MOL0     H 8584   7.635   1.591   5.366  0.1668  0.9180  0.4756
  823MOL0     H 8585   7.800   1.834   5.311 -1.6412  0.8269 -0.6952
  823MOL0     H 8586   7.714   1.741   5.195 -0.1365  0.0260  0.0794
  823MOL0     H 8587   7.505   1.765   5.364  0.2300  0.8801  2.1433
  823MOL0     H 8588   7.557   1.886   5.246  1.2728 -1.2171 -0.3349
  823MOL0     H 8589   7.619   2.128   5.305 -2.0127 -0.0338  0.0561
  823MOL0     H 8590   7.716   2.330   5.501 -0.6232  1.1335  0.6281
  823MOL0     H 8591   7.655   2.297   5.662  1.4085  1.5692 -0.3508
  823MOL0     H 8592   7.480   2.309   5.413  2.7911  2.0648 -1.4936
  823MOL0     H 8593   7.502   2.449   5.517  0.7501 -0.3637  0.2750
  823MOL0     H 8594   7.287   2.292   5.563  0.2406 -0.1095 -1.6564
  823MOL0     H 8595   7.415   2.190   5.624  2.0207 -0.1948 -1.7172
  823MOL0     H 8596   7.382   2.480   5.700  0.5023  0.6557  0.8129
  823MOL0     H 8597   7.487   2.372   5.786  1.0562 -1.7370 -1.4594
  823MOL0     H 8598   7.067   2.213   5.882  0.5954  0.5593 -0.7714
  823MOL0     H 8599   6.862   2.330   5.977 -1.2070  1.3292  0.4537
  823MOL0     H 8600   6.716   2.563   6.353 -0.0293 -0.1858  0.5675
  823MOL0     H 8601   6.494   2.641   6.451 -0.7160  1.0747 -0.5954
  823MOL0     H 8602   6.346   2.892   6.170 -2.6780  2.2114 -0.9737
  823MOL0     H 8603   6.341   2.945   6.346  1.1961 -0.5945 -0.9610
  823MOL0     H 8604   6.105   2.887   6.348 -1.1271 -2.2530 -0.4836
  823MOL0     H 8605   6.121   2.877   6.167  2.8308 -0.6767 -1.1558
  823MOL0     H 8606   6.211   3.120   6.180  2.9315  0.2967  2.3000
  823MOL0     H 8607   6.147   3.119   6.348 -3.3832  2.6291 -0.6135
  823MOL0     H 8608   5.942   3.029   6.264  1.4038 -1.7950 -1.8949
  823MOL0     H 8609   5.962   3.207   6.251  0.0802 -1.2463  3.5156
  823MOL0     H 8610   5.857   3.111   6.043  0.1384 -2.2849  1.8216
  823MOL0     H 8611   5.998   3.004   6.035  0.8226  0.2949 -0.8893
  823MOL0     H 8612   6.007   3.219   5.883  2.2669  4.7512 -0.2274
  823MOL0     H 8613   6.153   3.204   5.988  1.0247 -0.4994  2.0590
  823MOL0     H 8614   5.935   3.393   6.058 -0.6253 -1.5151 -3.1390
  823MOL0     H 8615   6.087   3.364   6.146  0.1703  3.9816 -0.6222
  823MOL0     H 8616   6.075   3.463   5.859  0.4164  0.5350 -0.6472
  823MOL0     H 8617   6.214   3.432   5.954 -0.4638 -0.3888  0.4366
  823MOL0     H 8618   6.318   2.653   6.056  1.8017 -3.1745 -1.8929
  823MOL0     H 8619   6.535   2.583   5.962  2.4069  0.9945 -0.3393
  823MOL0     H 8620   7.060   2.696   5.963  1.6564 -0.0075  1.0853
  823MOL0     H 8621   7.265   2.586   5.860 -0.6681 -0.3012 -1.1917
  823MOL0     H 8622   8.425   1.574   5.161  1.0619  0.4802  1.5934
  823MOL0     H 8623   8.622   1.558   5.026 -3.0792  1.1797 -3.4238
  823MOL0     H 8624   8.880   1.514   4.808 -0.3628  0.8335 -1.0748
  823MOL0     H 8625   9.073   1.623   4.702 -1.5765  1.2011  0.4062
  823MOL0     H 8626   9.215   1.803   4.732 -1.0721 -0.7726 -0.8429
  823MOL0     H 8627   9.282   1.685   4.626  2.7116 -2.5490  0.3839
  823MOL0     H 8628   9.479   1.869   4.776  0.8867  1.1122 -0.6399
  823MOL0     H 8629   9.509   1.745   4.660  1.7342 -1.3086  3.2765
  823MOL0     H 8630   9.342   1.973   4.577  1.5325  3.2636 -2.4143
  823MOL0     H 8631   9.398   1.849   4.475 -1.3181  1.7268  0.0324
  823MOL0     H 8632   9.551   2.079   4.609  2.5327 -1.3604  1.3205
  823MOL0     H 8633   9.630   1.943   4.538  0.8294  1.3853  5.9018
  823MOL0     H 8634   9.444   2.157   4.208 -1.5414  1.4868  0.9646
  823MOL0     H 8635   9.305   1.530   5.047 -0.1548 -1.9180  0.0946
  823MOL0     H 8636   9.114   1.408   5.141  2.3185 -0.8509 -0.1476
  824MOL0     O 8637   4.948   6.431   8.053  0.7335  0.4730 -0.0747
  824MOL0     C 8638   4.993   6.317   8.059 -0.1213  0.6680  0.7203
  824MOL0     O 8639   4.960   6.214   7.980  0.4404 -0.7964 -0.5529
  824MOL0     C 8640   4.854   6.232   7.896  0.3317 -0.4519  0.9699
  824MOL0     C 8641   4.867   6.314   7.787  0.1605  0.0502  0.2605
  824MOL0     C 8642   4.766   6.333   7.699 -0.0235  0.0051  0.2803
  824MOL0     C 8643   4.647   6.258   7.700 -0.3514 -0.9102 -0.6164
  824MOL0     O 8644   4.564   6.274   7.599  0.4395 -0.1039 -0.6715
  824MOL0     C 8645   4.433   6.211   7.615  0.6484  0.3479 -1.1271
  824MOL0     C 8646   4.339   6.268   7.508  0.5685  0.3096 -0.3837
  824MOL0     C 8647   4.306   6.409   7.544  0.8569  0.0993 -0.2239
  824MOL0     C 8648   4.231   6.477   7.434  0.2096  0.1422  0.1073
  824MOL0     C 8649   4.093   6.415   7.427  0.1708  0.0159  0.3900
  824MOL0     C 8650   4.019   6.454   7.300 -0.1544 -0.0311  0.0675
  824MOL0     C 8651   3.995   6.601   7.270 -0.6784 -0.5390 -0.1457
  824MOL0     C 8652   3.950   6.686   7.394  0.7926  0.3410 -1.1568
  824MOL0     N 8653   3.803   6.667   7.412 -0.7080  0.0679 -0.2350
  824MOL0     C 8654   3.742   6.563   7.480 -0.3576  0.9757 -0.6103
  824MOL0     C 8655   3.612   6.590   7.459  0.4834  0.6215  0.0291
  824MOL0     C 8656   3.511   6.482   7.495 -0.1248 -0.4621 -0.2377
  824MOL0     C 8657   3.362   6.530   7.468 -0.2791 -0.5282  0.3237
  824MOL0     C 8658   3.258   6.441   7.529  0.9999 -0.4691 -0.2351
  824MOL0     C 8659   3.121   6.486   7.473 -0.6403  0.5241 -0.7674
  824MOL0     O 8660   3.037   6.377   7.515 -0.2611  0.1239 -0.2461
  824MOL0     C 8661   2.949   6.334   7.423 -0.3315 -0.6475 -0.4382
  824MOL0     C 8662   2.816   6.333   7.455 -0.0411 -0.2569  0.3310
  824MOL0     C 8663   2.721   6.298   7.375 -0.1935 -0.4710 -0.9493
  824MOL0     C 8664   2.744   6.268   7.241 -0.1683  0.7163  0.4349
  824MOL0     C 8665   2.637   6.246   7.147  0.8980 -0.4657 -0.8568
  824MOL0     O 8666   2.675   6.217   7.017  0.3250 -0.3403  0.4564
  824MOL0     C 8667   2.576   6.216   6.914  0.4064 -0.4136 -0.9856
  824MOL0     C 8668   2.546   6.093   6.850 -1.2122  0.1677 -0.0489
  824MOL0     C 8669   2.457   6.098   6.740  0.1504  0.3891 -0.1022
  824MOL0     C 8670   2.399   6.219   6.701  0.1852  0.0182  0.4532
  824MOL0     O 8671   2.303   6.214   6.601 -0.4954 -0.7460 -0.0716
  824MOL0     C 8672   2.212   6.328   6.594 -0.0074 -0.2009 -0.0490
  824MOL0     C 8673   2.083   6.276   6.534 -0.2358 -0.3820  0.2485
  824MOL0     C 8674   1.997   6.192   6.641 -0.7262 -0.4103  0.6495
  824MOL0     C 8675   1.868   6.147   6.586  0.1618  1.0244  0.3590
  824MOL0     C 8676   1.785   6.081   6.695  0.2117 -0.0911  0.2842
  824MOL0     C 8677   1.683   5.993   6.618 -0.3832 -0.5766  0.0837
  824MOL0     C 8678   1.580   5.933   6.705  0.4103 -0.4964  0.2303
  824MOL0     C 8679   1.450   5.868   6.629  0.2052 -0.2735  0.2439
  824MOL0    Cl 8680   1.303   5.923   6.712 -0.1870  0.0687 -0.4628
  824MOL0     C 8681   2.434   6.336   6.761  0.1351  0.3174 -0.2604
  824MOL0     C 8682   2.529   6.334   6.873 -0.6447  0.2964 -0.2375
  824MOL0     O 8683   2.521   6.249   7.186  0.4877  0.2974  1.0580
  824MOL0     C 8684   2.878   6.270   7.203 -1.1680 -0.3261  0.9905
  824MOL0     C 8685   2.980   6.285   7.299 -0.7473 -0.5011  1.0588
  824MOL0     N 8686   3.595   6.698   7.374  0.1029 -0.2181  0.7344
  824MOL0     N 8687   3.717   6.747   7.356  0.1470  0.1432 -0.1490
  824MOL0     C 8688   4.636   6.160   7.807 -0.2304 -0.1163  0.2322
  824MOL0     C 8689   4.737   6.149   7.904 -0.5930 -0.2174  0.4613
  824MOL0     C 8690   5.098   6.287   8.162  0.1059  0.8031 -0.2028
  824MOL0     C 8691   5.125   6.156   8.197  0.4059 -0.1044 -0.8720
  824MOL0     C 8692   5.235   6.137   8.293  0.5736 -0.6386 -1.0632
  824MOL0     C 8693   5.305   6.241   8.353  0.2730 -0.2435  0.6371
  824MOL0     O 8694   5.381   6.241   8.464  0.0401  0.1602  0.7057
  824MOL0     C 8695   5.382   6.127   8.553 -1.0496  0.6285  0.7895
  824MOL0     C 8696   5.512   6.131   8.633  0.8022  0.1904  0.8175
  824MOL0     C 8697   5.631   6.128   8.533  0.6353  0.2416  0.7643
  824MOL0     C 8698   5.684   5.990   8.499  0.3445  0.4089  0.4757
  824MOL0     C 8699   5.751   5.936   8.618  0.1582 -0.5917 -0.1173
  824MOL0     C 8700   5.800   5.888   8.718 -0.4298 -0.9265 -0.6204
  824MOL0     C 8701   5.270   6.374   8.314 -0.0586  0.2793 -0.9058
  824MOL0     C 8702   5.169   6.401   8.219  0.0562  0.9205  0.3421
  824MOL0     H 8703   4.959   6.365   7.763 -0.8047  1.6557 -0.2173
  824MOL0     H 8704   4.789   6.396   7.613 -1.0153 -0.0356 -0.0265
  824MOL0     H 8705   4.396   6.219   7.718 -0.6640 -0.2687 -1.5284
  824MOL0     H 8706   4.445   6.102   7.603  1.1959 -0.3870  3.7985
  824MOL0     H 8707   4.246   6.209   7.506  1.0161 -0.6279  2.3304
  824MOL0     H 8708   4.385   6.258   7.409 -1.4154 -0.6067 -1.2741
  824MOL0     H 8709   4.405   6.452   7.556  1.2110 -0.7307 -0.0663
  824MOL0     H 8710   4.253   6.409   7.639 -1.6179 -2.2338 -1.4439
  824MOL0     H 8711   4.223   6.582   7.465 -0.5278 -0.3385  1.6597
  824MOL0     H 8712   4.298   6.456   7.350  1.6913 -0.3416  1.3629
  824MOL0     H 8713   4.029   6.427   7.515 -1.3700 -0.8279 -0.5590
  824MOL0     H 8714   4.097   6.306   7.416  0.9696 -0.1784  2.1919
  824MOL0     H 8715   3.925   6.400   7.285  0.7733 -1.5947 -0.3325
  824MOL0     H 8716   4.081   6.417   7.218 -4.5530 -0.9285 -3.2486
  824MOL0     H 8717   4.088   6.641   7.230 -0.5474 -0.1999  0.4839
  824MOL0     H 8718   3.921   6.622   7.192 -0.4441 -2.5590 -0.9607
  824MOL0     H 8719   3.957   6.794   7.376 -0.4130  0.6477  0.1289
  824MOL0     H 8720   3.991   6.649   7.488 -2.5990 -0.1789  0.2549
  824MOL0     H 8721   3.781   6.472   7.527 -1.5915  0.8265  0.1590
  824MOL0     H 8722   3.501   6.459   7.601  0.6039 -1.1554 -0.3094
  824MOL0     H 8723   3.528   6.394   7.431  2.3094 -0.1456 -0.1212
  824MOL0     H 8724   3.349   6.549   7.361  0.5767 -1.0529  0.1198
  824MOL0     H 8725   3.349   6.633   7.504  2.2109  0.5856 -1.6168
  824MOL0     H 8726   3.277   6.334   7.513  2.0570 -1.1657  4.3394
  824MOL0     H 8727   3.266   6.445   7.638  0.9035 -4.8954  0.1065
  824MOL0     H 8728   3.122   6.493   7.364 -0.3638 -0.1279 -0.8139
  824MOL0     H 8729   3.089   6.584   7.509 -2.1186 -0.7900  1.8253
  824MOL0     H 8730   2.795   6.351   7.560 -1.4454  0.4410 -0.0512
  824MOL0     H 8731   2.621   6.297   7.419  1.0522 -0.8723  2.1509
  824MOL0     H 8732   2.583   6.000   6.891 -0.4117  1.0055  1.1852
  824MOL0     H 8733   2.421   6.006   6.695 -3.5479  0.1525  2.8736
  824MOL0     H 8734   2.251   6.405   6.526 -0.6927 -0.3794 -0.6494
  824MOL0     H 8735   2.201   6.369   6.695  0.6751  1.7663 -0.7168
  824MOL0     H 8736   2.111   6.210   6.452  1.4365 -2.1038  2.0902
  824MOL0     H 8737   2.030   6.361   6.490 -0.2773  1.5444  3.6423
  824MOL0     H 8738   1.974   6.251   6.730 -1.4811  1.6835 -0.8619
  824MOL0     H 8739   2.047   6.099   6.669  1.1844 -0.5794 -2.7521
  824MOL0     H 8740   1.805   6.229   6.552 -1.6237 -0.5184 -0.2419
  824MOL0     H 8741   1.899   6.076   6.509  0.9067  3.9290 -2.2192
  824MOL0     H 8742   1.736   6.160   6.753 -0.6604 -0.4790  0.0855
  824MOL0     H 8743   1.837   6.017   6.767  1.8540  1.3902  0.5111
  824MOL0     H 8744   1.740   5.922   6.558 -0.4708 -1.2118  0.7386
  824MOL0     H 8745   1.628   6.056   6.546 -1.9250 -3.8704 -1.9042
  824MOL0     H 8746   1.620   5.841   6.748  2.8837 -0.5093 -1.8820
  824MOL0     H 8747   1.544   6.010   6.774  0.1938 -1.0015  0.6883
  824MOL0     H 8748   1.462   5.759   6.629 -1.5315 -0.4890  0.1860
  824MOL0     H 8749   1.451   5.910   6.528 -0.7534 -1.4671 -0.2897
  824MOL0     H 8750   2.389   6.432   6.738  0.4602  0.2549 -1.2218
  824MOL0     H 8751   2.555   6.425   6.926 -1.4931  1.0043 -0.9991
  824MOL0     H 8752   2.904   6.249   7.100 -2.6119  1.2577  0.2660
  824MOL0     H 8753   3.084   6.274   7.269 -1.2075  2.7832 -2.6446
  824MOL0     H 8754   4.557   6.088   7.822 -0.0664 -0.2221  0.5948
  824MOL0     H 8755   4.740   6.083   7.990  2.4946  0.1939  0.7546
  824MOL0     H 8756   5.075   6.071   8.153 -1.3364  1.6921 -2.5877
  824MOL0     H 8757   5.272   6.038   8.317  2.3804 -0.3657 -2.4444
  824MOL0     H 8758   5.375   6.034   8.495 -0.0632  0.8905  0.2309
  824MOL0     H 8759   5.298   6.131   8.623 -0.7186  3.2373  1.1155
  824MOL0     H 8760   5.514   6.228   8.684 -2.5429  0.9190 -0.2079
  824MOL0     H 8761   5.523   6.052   8.707  3.1659 -0.8876 -0.5641
  824MOL0     H 8762   5.711   6.192   8.572  1.0846  0.6922 -0.8155
  824MOL0     H 8763   5.606   6.164   8.433  1.0183  0.2541  0.6711
  824MOL0     H 8764   5.598   5.934   8.464  1.1807 -1.6918  1.5835
  824MOL0     H 8765   5.757   5.987   8.417  0.4321 -0.4797  0.5763
  824MOL0     H 8766   5.830   5.838   8.808 -0.7306  0.5650  0.3317
  824MOL0     H 8767   5.328   6.453   8.360  2.9477 -3.0150  1.4843
  824MOL0     H 8768   5.143   6.501   8.187  0.1036  1.1574  1.0360
  825MOL0     O 8769   4.330   2.422  10.969  0.4304 -0.5320  0.1082
  825MOL0     C 8770   4.286   2.453  10.860  0.5770  0.1911  0.7072
  825MOL0     O 8771   4.339   2.432  10.732 -0.4390  0.4008 -0.0714
  825MOL0     C 8772   4.457   2.368  10.725 -0.3903 -0.5400  0.7684
  825MOL0     C 8773   4.566   2.356  10.822  0.5623  0.0631  0.4873
  825MOL0     C 8774   4.677   2.267  10.800  0.1288  0.6620  0.4548
  825MOL0     C 8775   4.682   2.199  10.683 -0.3245  0.4184 -1.0756
  825MOL0     O 8776   4.796   2.120  10.651 -0.5694  0.3040 -0.1101
  825MOL0     C 8777   4.914   2.108  10.742 -0.1317 -0.2355 -0.2489
  825MOL0     C 8778   4.997   2.006  10.669 -0.1215  0.1129 -0.0640
  825MOL0     C 8779   5.003   1.877  10.745 -0.0791 -0.0282  0.5197
  825MOL0     C 8780   5.116   1.794  10.685 -0.4226  0.8086 -0.7308
  825MOL0     C 8781   5.109   1.647  10.743  0.2979  0.0974 -0.4520
  825MOL0     C 8782   5.246   1.574  10.703  1.0666  0.1897  0.4528
  825MOL0     C 8783   5.265   1.522  10.564  0.9474  0.3640  0.2577
  825MOL0     C 8784   5.407   1.523  10.520  0.2723  1.2810  0.2005
  825MOL0     N 8785   5.477   1.396  10.553 -0.4061  0.8277 -0.0276
  825MOL0     C 8786   5.603   1.368  10.503 -0.1274  0.2683 -0.0688
  825MOL0     C 8787   5.641   1.260  10.575  0.0812 -0.3201 -1.1315
  825MOL0     C 8788   5.778   1.184  10.581  0.9073  0.7315  0.0042
  825MOL0     C 8789   5.787   1.059  10.673 -0.2412  0.1860  0.5239
  825MOL0     C 8790   5.799   1.092  10.829 -0.0558  0.5364  0.1534
  825MOL0     C 8791   5.766   0.957  10.894 -0.6021 -0.4940 -0.1205
  825MOL0     O 8792   5.744   0.963  11.037  0.2153 -0.5921  0.1348
  825MOL0     C 8793   5.611   0.973  11.088  0.4655  0.2881 -0.2545
  825MOL0     C 8794   5.497   1.013  11.016 -0.4184  0.1971 -0.2992
  825MOL0     C 8795   5.378   1.020  11.085  0.2806 -0.3502  0.1730
  825MOL0     C 8796   5.362   1.000  11.225 -1.3280  0.0543 -0.3192
  825MOL0     C 8797   5.224   1.021  11.272 -0.2405 -0.4510 -0.3775
  825MOL0     O 8798   5.135   1.086  11.194 -0.3740 -0.3991 -0.0086
  825MOL0     C 8799   5.007   1.050  11.215 -0.3471  0.4604 -0.3098
  825MOL0     C 8800   4.934   0.950  11.154  0.4579  0.0924 -0.8864
  825MOL0     C 8801   4.798   0.907  11.184 -0.4798  0.4150 -0.7047
  825MOL0     C 8802   4.732   0.985  11.276 -0.1889 -0.0309 -0.7972
  825MOL0     O 8803   4.595   0.966  11.295  0.9920 -0.3459 -0.0078
  825MOL0     C 8804   4.502   1.076  11.301  0.3980  0.1486 -0.0118
  825MOL0     C 8805   4.496   1.165  11.177 -0.0154 -0.3411  0.2398
  825MOL0     C 8806   4.407   1.291  11.201 -1.2910 -0.1953  0.0461
  825MOL0     C 8807   4.417   1.386  11.080  0.3542  0.0738 -0.3350
  825MOL0     C 8808   4.323   1.504  11.111  0.5198 -0.1678  0.3467
  825MOL0     C 8809   4.174   1.486  11.072 -0.9526 -0.6043  0.7228
  825MOL0     C 8810   4.097   1.616  11.104 -0.1429 -0.1053  0.2998
  825MOL0     C 8811   4.087   1.676  11.244  0.0577  0.5760 -0.2773
  825MOL0    Cl 8812   3.995   1.539  11.337 -0.2707 -0.2521  0.0071
  825MOL0     C 8813   4.801   1.101  11.328  0.2799  1.0974  0.4695
  825MOL0     C 8814   4.935   1.120  11.303  0.5994 -0.2636 -0.3736
  825MOL0     O 8815   5.200   0.967  11.373  0.6701  0.1675 -0.2583
  825MOL0     C 8816   5.487   0.968  11.295 -0.3519 -0.8798  0.0788
  825MOL0     C 8817   5.601   0.947  11.229 -0.9651 -0.3551  0.4095
  825MOL0     N 8818   5.540   1.223  10.663 -0.6793 -0.0711 -0.4437
  825MOL0     N 8819   5.439   1.310  10.648  0.2537 -0.1661 -0.1715
  825MOL0     C 8820   4.590   2.229  10.582 -0.1005 -0.1951 -0.4087
  825MOL0     C 8821   4.485   2.312  10.597  0.4266  0.5379  0.5371
  825MOL0     C 8822   4.156   2.522  10.862  0.1237 -0.8349 -0.4925
  825MOL0     C 8823   4.087   2.528  10.979 -0.3181  0.0408 -0.1694
  825MOL0     C 8824   3.962   2.589  10.999 -0.3973  0.0954 -0.2301
  825MOL0     C 8825   3.901   2.657  10.892 -0.5599 -0.0579 -0.8647
  825MOL0     O 8826   3.782   2.726  10.898  0.5319  0.5709  0.0521
  825MOL0     C 8827   3.702   2.725  11.014 -0.0692  0.0954  0.5839
  825MOL0     C 8828   3.572   2.813  10.998  0.1248 -0.1306  0.4783
  825MOL0     C 8829   3.625   2.963  11.021 -0.8422 -0.2523 -0.1686
  825MOL0     C 8830   3.704   3.024  10.900  0.0756  0.3529  1.4647
  825MOL0     C 8831   3.613   3.043  10.786  0.4190  0.7734 -0.0617
  825MOL0     C 8832   3.546   3.063  10.685 -0.4398 -0.3820 -0.2156
  825MOL0     C 8833   3.962   2.639  10.768 -0.3408 -0.9908 -0.3940
  825MOL0     C 8834   4.092   2.588  10.754  0.3936 -0.4704  0.2294
  825MOL0     H 8835   4.554   2.422  10.907 -3.6050  0.0506  0.1099
  825MOL0     H 8836   4.755   2.271  10.875 -0.1531  0.7184  0.7510
  825MOL0     H 8837   4.887   2.074  10.842  1.8848  0.2383  0.5139
  825MOL0     H 8838   4.971   2.201  10.750  0.2872 -0.5397  0.4732
  825MOL0     H 8839   5.096   2.047  10.648 -0.2015 -0.6518 -2.0893
  825MOL0     H 8840   4.952   1.992  10.571 -1.6175  3.4234 -0.0044
  825MOL0     H 8841   4.904   1.834  10.726  0.7133 -1.5998 -0.3126
  825MOL0     H 8842   5.018   1.891  10.852 -1.3026 -1.3631  0.8915
  825MOL0     H 8843   5.122   1.806  10.576  1.2747  3.3237 -0.4432
  825MOL0     H 8844   5.207   1.849  10.711  1.0132 -0.6633 -2.3277
  825MOL0     H 8845   5.028   1.603  10.683  0.7927 -0.9863 -0.3496
  825MOL0     H 8846   5.080   1.644  10.848 -2.2468 -2.9445 -1.0823
  825MOL0     H 8847   5.248   1.487  10.769 -2.8961 -2.4502 -2.4443
  825MOL0     H 8848   5.331   1.637  10.730  2.2692 -0.3849 -1.7337
  825MOL0     H 8849   5.228   1.419  10.552  0.9679  0.2942  0.7982
  825MOL0     H 8850   5.212   1.581  10.489  1.8401  1.1062  0.1939
  825MOL0     H 8851   5.457   1.611  10.562  1.0297  1.4930 -1.0919
  825MOL0     H 8852   5.396   1.527  10.411 -0.0109 -0.8261  0.1094
  825MOL0     H 8853   5.659   1.430  10.434  1.2771  1.3827  1.9654
  825MOL0     H 8854   5.858   1.249  10.618 -0.0243  1.3095  1.0224
  825MOL0     H 8855   5.809   1.152  10.481  0.1204 -2.5406  0.7139
  825MOL0     H 8856   5.874   0.994  10.659  1.0464  1.6033  1.6029
  825MOL0     H 8857   5.699   0.999  10.650 -0.7103 -0.0149  2.6924
  825MOL0     H 8858   5.902   1.121  10.850 -0.7776  1.1403  3.5505
  825MOL0     H 8859   5.728   1.169  10.861  0.8526  0.7521  1.7564
  825MOL0     H 8860   5.859   0.902  10.874  0.3367  1.0068 -0.0168
  825MOL0     H 8861   5.679   0.912  10.845 -0.3720 -0.8642 -0.1931
  825MOL0     H 8862   5.491   1.026  10.908 -2.3666 -2.6933 -0.6512
  825MOL0     H 8863   5.291   1.036  11.021 -0.1986  3.5141  1.5181
  825MOL0     H 8864   4.983   0.876  11.092 -3.3468 -0.3681 -3.7155
  825MOL0     H 8865   4.746   0.823  11.139  1.7557 -0.7459 -1.2577
  825MOL0     H 8866   4.530   1.136  11.388  2.9471 -0.6576 -0.1920
  825MOL0     H 8867   4.408   1.031  11.335  1.1980 -0.8053  1.0026
  825MOL0     H 8868   4.468   1.104  11.090 -0.7991  2.6645 -1.7710
  825MOL0     H 8869   4.598   1.199  11.156  0.4003 -1.0614  1.0316
  825MOL0     H 8870   4.437   1.343  11.292 -1.2566  1.8581 -1.0752
  825MOL0     H 8871   4.302   1.260  11.215 -1.2074 -1.1698 -1.2678
  825MOL0     H 8872   4.521   1.404  11.051 -0.1585 -1.6237 -3.6993
  825MOL0     H 8873   4.369   1.333  10.997 -2.0149  1.9783 -0.2684
  825MOL0     H 8874   4.356   1.602  11.075  0.2619 -0.1328  0.2026
  825MOL0     H 8875   4.306   1.514  11.219 -1.9395  0.1374 -0.0005
  825MOL0     H 8876   4.132   1.395  11.115  0.6230 -1.2242  1.0033
  825MOL0     H 8877   4.181   1.470  10.964  4.4813 -0.3048  0.7774
  825MOL0     H 8878   4.133   1.691  11.033  0.1047 -0.7227 -0.2340
  825MOL0     H 8879   3.995   1.582  11.087 -0.3622  1.0220 -0.7879
  825MOL0     H 8880   4.027   1.768  11.252 -0.7737  0.1749 -1.6375
  825MOL0     H 8881   4.186   1.688  11.290  0.5263 -3.5394  0.1153
  825MOL0     H 8882   4.751   1.174  11.391 -1.2654  1.6765 -1.3452
  825MOL0     H 8883   4.970   1.205  11.362  1.8307 -2.1549  1.7859
  825MOL0     H 8884   5.485   0.959  11.403 -1.8576  0.4858  0.2096
  825MOL0     H 8885   5.681   0.910  11.293 -1.5019 -1.0062  0.7285
  825MOL0     H 8886   4.597   2.183  10.484 -0.8712  0.3439 -0.7223
  825MOL0     H 8887   4.418   2.318  10.512 -0.6927  2.2020  1.4922
  825MOL0     H 8888   4.127   2.475  11.065  0.4595 -0.4559 -0.8237
  825MOL0     H 8889   3.924   2.598  11.100 -0.9888  3.9589 -0.6568
  825MOL0     H 8890   3.763   2.749  11.102  1.7201 -2.7893  0.2633
  825MOL0     H 8891   3.677   2.619  11.019  6.2532 -1.7512  1.0826
  825MOL0     H 8892   3.537   2.791  10.896  3.1006 -1.5592 -0.3502
  825MOL0     H 8893   3.500   2.784  11.074 -0.0239 -3.8991 -0.9180
  825MOL0     H 8894   3.686   2.965  11.112 -1.8356  0.1686  0.5062
  825MOL0     H 8895   3.540   3.028  11.046  0.3561  0.3608  2.8493
  825MOL0     H 8896   3.741   3.122  10.930 -1.3431  2.0419 -1.8058
  825MOL0     H 8897   3.791   2.967  10.867 -0.5387 -0.1946  0.7588
  825MOL0     H 8898   3.472   3.086  10.611 -0.5329  1.1264  0.3120
  825MOL0     H 8899   3.916   2.686  10.682  0.1005 -2.1429 -1.3063
  825MOL0     H 8900   4.131   2.573  10.654 -1.5276 -0.4947 -0.5532
  826MOL0     O 8901   3.190   9.009  10.088 -0.2915  0.4542 -0.1703
  826MOL0     C 8902   3.209   8.970   9.970  0.3086 -0.0226  0.1016
  826MOL0     O 8903   3.120   8.931   9.879 -0.2742 -0.2933  0.2687
  826MOL0     C 8904   2.993   8.923   9.915  0.7481 -0.0127 -0.2811
  826MOL0     C 8905   2.917   8.826   9.859 -0.1841 -0.2115 -0.1100
  826MOL0     C 8906   2.783   8.789   9.897 -0.9251  0.6645  1.1911
  826MOL0     C 8907   2.721   8.882   9.972  0.9119 -0.1335  0.0900
  826MOL0     O 8908   2.601   8.843  10.020  0.6481 -0.0060  0.0674
  826MOL0     C 8909   2.548   8.909  10.137 -0.4416  0.0288 -0.5806
  826MOL0     C 8910   2.416   8.849  10.187 -0.5502 -0.4167  0.9752
  826MOL0     C 8911   2.348   8.939  10.288 -0.7139  0.1906 -0.0821
  826MOL0     C 8912   2.229   8.866  10.338  0.3672 -0.1964 -0.1774
  826MOL0     C 8913   2.162   8.945  10.451  0.8275  0.8942 -0.8998
  826MOL0     C 8914   2.032   8.891  10.515  0.2772 -1.0722 -0.6474
  826MOL0     C 8915   2.026   8.748  10.569  0.6790 -0.2425  0.6389
  826MOL0     C 8916   1.931   8.662  10.486 -0.0884  1.1075 -0.7202
  826MOL0     N 8917   2.004   8.624  10.369 -0.7776  0.1125 -0.4138
  826MOL0     C 8918   1.970   8.653  10.242  0.3616 -0.0792 -0.3966
  826MOL0     C 8919   2.071   8.589  10.164 -0.1091 -0.8610 -0.3611
  826MOL0     C 8920   2.107   8.615  10.025  0.5141 -1.1347 -0.3254
  826MOL0     C 8921   2.058   8.508   9.937 -0.2929 -0.5265  0.6398
  826MOL0     C 8922   1.905   8.487   9.926 -0.5316 -0.4439 -0.1038
  826MOL0     C 8923   1.859   8.366   9.838  0.0253  0.2338  0.2933
  826MOL0     O 8924   1.716   8.360   9.836 -0.2603  1.1407  0.5091
  826MOL0     C 8925   1.669   8.253   9.756 -0.0677 -0.8459  0.5395
  826MOL0     C 8926   1.528   8.239   9.759 -0.4243 -0.1142  0.3409
  826MOL0     C 8927   1.472   8.139   9.684  0.0862  0.2131 -0.0546
  826MOL0     C 8928   1.542   8.070   9.582 -0.1436  0.5344  0.0467
  826MOL0     C 8929   1.471   7.977   9.489 -0.3512 -0.1306 -0.7132
  826MOL0     O 8930   1.343   7.943   9.525 -0.4353  0.2936  0.1787
  826MOL0     C 8931   1.273   7.862   9.437 -0.1450  0.5070  0.2125
  826MOL0     C 8932   1.195   7.924   9.332 -0.6389  0.0977 -0.2065
  826MOL0     C 8933   1.155   7.846   9.223  0.4184  1.5874  0.0059
  826MOL0     C 8934   1.168   7.705   9.232  0.1261  0.9419 -0.5415
  826MOL0     O 8935   1.129   7.615   9.133 -0.3090 -0.1682  0.0018
  826MOL0     C 8936   1.041   7.657   9.025  0.2210  0.3800 -0.1215
  826MOL0     C 8937   0.895   7.684   9.077 -0.2563 -0.3041  0.6501
  826MOL0     C 8938   0.814   7.736   8.950 -0.0789  0.0905 -0.0905
  826MOL0     C 8939   0.676   7.677   8.955  0.3950 -0.2455  0.5313
  826MOL0     C 8940   0.589   7.718   8.837  0.4951 -0.4500  1.4046
  826MOL0     C 8941   0.632   7.642   8.711 -0.7350  0.6194  0.0396
  826MOL0     C 8942   0.673   7.739   8.607 -0.2426 -0.7029  0.0297
  826MOL0     C 8943   0.755   7.656   8.500  0.2387  1.0515 -0.5685
  826MOL0    Cl 8944   0.651   7.525   8.433 -0.1971 -0.5340 -0.3154
  826MOL0     C 8945   1.242   7.653   9.336 -0.0038  0.5645  0.6354
  826MOL0     C 8946   1.296   7.727   9.435  0.5138  0.3003  0.5435
  826MOL0     O 8947   1.527   7.942   9.383 -0.1601  0.2291  0.6842
  826MOL0     C 8948   1.684   8.091   9.570 -0.4054 -0.8009 -0.2908
  826MOL0     C 8949   1.743   8.174   9.664 -0.8273  0.5799  0.0100
  826MOL0     N 8950   2.147   8.514  10.253 -0.5723  0.6688  1.1581
  826MOL0     N 8951   2.112   8.536  10.369  0.3018  0.1164 -0.4802
  826MOL0     C 8952   2.790   8.995  10.021 -0.1561 -0.3112 -0.7677
  826MOL0     C 8953   2.926   9.020   9.999 -0.8123  1.3027  0.1490
  826MOL0     C 8954   3.351   8.962   9.924 -0.0268 -0.4471 -0.2163
  826MOL0     C 8955   3.456   8.980  10.011  0.1097  0.6217 -0.2833
  826MOL0     C 8956   3.588   8.972   9.965 -0.5418  0.5974  0.9518
  826MOL0     C 8957   3.617   8.933   9.837 -0.1950 -0.5123  0.2150
  826MOL0     O 8958   3.748   8.956   9.799  0.1128 -0.8737  0.4394
  826MOL0     C 8959   3.790   8.923   9.669 -0.4665 -0.6037 -0.1017
  826MOL0     C 8960   3.781   9.053   9.582 -0.4962 -0.7681  0.8463
  826MOL0     C 8961   3.902   9.051   9.475  0.1249  0.2490 -0.5810
  826MOL0     C 8962   4.028   9.135   9.525 -0.7238 -0.6950 -1.4181
  826MOL0     C 8963   4.125   9.153   9.421 -0.1456 -0.5394 -0.0327
  826MOL0     C 8964   4.209   9.153   9.330  0.1875 -0.0024  0.0439
  826MOL0     C 8965   3.511   8.912   9.747 -0.3497 -1.1830  0.4168
  826MOL0     C 8966   3.377   8.937   9.785  0.0058 -0.4610  0.0473
  826MOL0     H 8967   2.978   8.763   9.794  1.5447  0.9422  0.3275
  826MOL0     H 8968   2.730   8.699   9.868  1.8116  0.2286 -3.6463
  826MOL0     H 8969   2.535   9.015  10.114 -0.7251 -0.0550 -0.8181
  826MOL0     H 8970   2.625   8.901  10.213 -1.1283 -1.3156  0.0123
  826MOL0     H 8971   2.444   8.752  10.228 -0.6392  0.0408  2.1636
  826MOL0     H 8972   2.370   8.835  10.089  0.6684  3.7845 -0.4171
  826MOL0     H 8973   2.320   9.029  10.232 -1.9098 -1.2768 -1.9776
  826MOL0     H 8974   2.411   8.976  10.370 -0.3815 -1.7222  0.5688
  826MOL0     H 8975   2.158   8.847  10.257 -0.5807 -0.2601  0.6457
  826MOL0     H 8976   2.259   8.770  10.381  2.0566  1.1304  1.8103
  826MOL0     H 8977   2.143   9.046  10.412 -0.2627  0.3648 -1.7709
  826MOL0     H 8978   2.238   8.939  10.529 -0.3633 -3.5943  0.1809
  826MOL0     H 8979   1.960   8.905  10.434  3.4975 -0.3959 -3.6179
  826MOL0     H 8980   2.004   8.959  10.597  4.0408  1.4149 -1.1676
  826MOL0     H 8981   2.125   8.703  10.572  1.0971  0.3515  5.7247
  826MOL0     H 8982   1.995   8.749  10.674  2.1453  1.6116  1.1052
  826MOL0     H 8983   1.833   8.707  10.467 -0.6425 -0.5965 -2.1781
  826MOL0     H 8984   1.894   8.577  10.543  1.6707  0.4130 -0.5537
  826MOL0     H 8985   1.894   8.723  10.208 -1.1586 -1.1595  0.6625
  826MOL0     H 8986   2.215   8.613  10.006  0.6133  1.6230 -0.4529
  826MOL0     H 8987   2.068   8.713   9.998 -1.0949 -1.2390  1.3924
  826MOL0     H 8988   2.101   8.418   9.982 -2.7064 -2.0727  0.0468
  826MOL0     H 8989   2.101   8.531   9.839  1.7380 -0.2033  1.5612
  826MOL0     H 8990   1.877   8.464  10.030 -3.6911 -0.8617 -0.9482
  826MOL0     H 8991   1.869   8.583   9.889  0.0978 -0.3086 -0.3833
  826MOL0     H 8992   1.898   8.269   9.867 -0.9322 -0.6152 -1.1126
  826MOL0     H 8993   1.886   8.387   9.734 -1.0631  2.6981  0.4179
  826MOL0     H 8994   1.463   8.296   9.826  0.8919  1.6522  0.1970
  826MOL0     H 8995   1.365   8.122   9.691 -0.2379  1.5691 -1.3838
  826MOL0     H 8996   1.164   8.028   9.333 -0.7185  0.1246  2.8249
  826MOL0     H 8997   1.103   7.897   9.142 -1.7474 -2.3764 -1.3385
  826MOL0     H 8998   1.043   7.573   8.955  0.4555 -1.8755  2.4202
  826MOL0     H 8999   1.066   7.754   8.981 -1.2939  0.5950 -0.5340
  826MOL0     H 9000   0.888   7.765   9.152 -0.9401  1.0563 -0.8196
  826MOL0     H 9001   0.858   7.595   9.128 -4.0315  1.5501  1.5482
  826MOL0     H 9002   0.850   7.693   8.856 -1.3588  0.5545 -0.8195
  826MOL0     H 9003   0.819   7.845   8.947  1.4596  0.0325 -2.4539
  826MOL0     H 9004   0.694   7.569   8.956  0.7299 -0.2004  2.6060
  826MOL0     H 9005   0.614   7.703   9.041 -2.1639 -3.0943 -0.2676
  826MOL0     H 9006   0.585   7.826   8.823 -0.5679 -0.7199 -0.8482
  826MOL0     H 9007   0.481   7.701   8.848 -0.6895  1.1399 -4.2225
  826MOL0     H 9008   0.548   7.586   8.669 -1.2095  0.5685  1.0447
  826MOL0     H 9009   0.712   7.573   8.739 -2.1507 -0.8153  0.7328
  826MOL0     H 9010   0.587   7.783   8.557  1.0248 -0.7474 -2.3268
  826MOL0     H 9011   0.738   7.817   8.649 -3.1091  1.7105  0.3464
  826MOL0     H 9012   0.850   7.618   8.540 -0.9219  0.6697  2.0524
  826MOL0     H 9013   0.785   7.721   8.417 -0.4122  0.1070 -1.5602
  826MOL0     H 9014   1.258   7.546   9.326  2.3993  0.9258 -0.2257
  826MOL0     H 9015   1.362   7.679   9.507 -1.5759 -2.4970  0.7331
  826MOL0     H 9016   1.745   8.032   9.502 -1.1389 -2.5999  0.5338
  826MOL0     H 9017   1.845   8.196   9.634 -1.1351  1.9048 -0.1593
  826MOL0     H 9018   2.750   9.070  10.088  2.0456  0.0529  0.2526
  826MOL0     H 9019   2.990   9.100  10.037  1.1109 -0.7181  1.3917
  826MOL0     H 9020   3.440   8.996  10.117 -2.6381 -0.2846 -0.4701
  826MOL0     H 9021   3.681   8.992  10.017  0.9123 -0.6807 -1.0334
  826MOL0     H 9022   3.727   8.839   9.637  2.8436 -3.1331 -0.5141
  826MOL0     H 9023   3.895   8.894   9.667  0.0292  1.1164 -1.1831
  826MOL0     H 9024   3.683   9.062   9.536  0.2279  2.0524 -0.3149
  826MOL0     H 9025   3.798   9.140   9.646  0.4797 -0.1140 -0.2717
  826MOL0     H 9026   3.868   9.102   9.384 -1.7379 -1.8013 -1.1061
  826MOL0     H 9027   3.932   8.949   9.451  2.2321  1.0272 -1.5881
  826MOL0     H 9028   4.004   9.234   9.564  3.2963  0.0324 -0.2691
  826MOL0     H 9029   4.068   9.086   9.614 -1.8492 -4.7216 -2.9074
  826MOL0     H 9030   4.286   9.162   9.256 -0.2979 -0.4076 -0.5174
  826MOL0     H 9031   3.530   8.888   9.643  1.1762  0.1185  0.3640
  826MOL0     H 9032   3.312   8.907   9.703  1.1145 -0.4499 -0.8478
  827MOL0     O 9033   0.750   1.806  10.339  0.4294 -0.1459  0.0516
  827MOL0     C 9034   0.723   1.742  10.241 -0.1909  1.7349  0.8110
  827MOL0     O 9035   0.793   1.735  10.127  0.5826  0.3201  0.3132
  827MOL0     C 9036   0.925   1.788  10.109 -0.3887  0.1580 -0.3390
  827MOL0     C 9037   0.950   1.826   9.977 -0.2530  0.1499  0.0277
  827MOL0     C 9038   1.076   1.868   9.934  0.5924 -0.2332 -0.0664
  827MOL0     C 9039   1.176   1.868  10.033 -0.2946  0.1924 -0.2307
  827MOL0     O 9040   1.314   1.872  10.002  0.4465 -0.0608 -0.0631
  827MOL0     C 9041   1.367   1.904   9.868 -0.3267 -1.1795 -0.4370
  827MOL0     C 9042   1.516   1.885   9.837  0.4834 -0.4504 -0.1965
  827MOL0     C 9043   1.553   1.734   9.867  0.7589 -0.4473  0.2776
  827MOL0     C 9044   1.698   1.707   9.898 -1.1546 -0.2452 -0.0546
  827MOL0     C 9045   1.730   1.554   9.871 -0.1200  0.2469  0.0220
  827MOL0     C 9046   1.875   1.541   9.913  0.4645  0.3254 -0.7335
  827MOL0     C 9047   1.924   1.402   9.900  1.1486  0.9235  1.3284
  827MOL0     C 9048   2.059   1.388   9.831 -0.2148 -0.0071  0.7664
  827MOL0     N 9049   2.060   1.435   9.695 -0.0299  0.1507  0.2188
  827MOL0     C 9050   2.006   1.355   9.599 -0.0217 -0.1422 -0.8361
  827MOL0     C 9051   2.013   1.426   9.485  0.5748  0.4641 -0.4610
  827MOL0     C 9052   1.958   1.392   9.352  0.2106  0.0200  0.6308
  827MOL0     C 9053   1.797   1.402   9.334  0.4405 -0.3981 -0.2495
  827MOL0     C 9054   1.750   1.542   9.309  0.0712 -0.4381  0.4489
  827MOL0     C 9055   1.603   1.575   9.324 -0.6823  0.4874  0.1836
  827MOL0     O 9056   1.546   1.477   9.229 -0.5301 -0.2668 -0.6063
  827MOL0     C 9057   1.419   1.452   9.233 -0.7615 -0.3957 -0.2834
  827MOL0     C 9058   1.324   1.538   9.292 -0.4142 -0.1751  0.1358
  827MOL0     C 9059   1.184   1.516   9.273 -1.0488 -0.2171 -0.1782
  827MOL0     C 9060   1.133   1.399   9.213  0.2782  0.2373  0.2432
  827MOL0     C 9061   0.995   1.374   9.193  0.1601  0.5282 -0.4923
  827MOL0     O 9062   0.962   1.295   9.084 -0.1413 -0.5862 -0.7189
  827MOL0     C 9063   0.842   1.237   9.070  0.0008  0.1395 -0.6455
  827MOL0     C 9064   0.762   1.173   9.163  0.0790  0.2427  0.6029
  827MOL0     C 9065   0.648   1.091   9.119 -0.4648  0.0780  0.5707
  827MOL0     C 9066   0.621   1.074   8.986 -0.2589  0.2639 -0.3007
  827MOL0     O 9067   0.510   0.998   8.965 -0.4477  0.3834  0.0005
  827MOL0     C 9068   0.445   1.009   8.836 -0.3896  0.5837  0.8187
  827MOL0     C 9069   0.391   1.147   8.799 -0.5342 -0.5552  0.3298
  827MOL0     C 9070   0.288   1.137   8.687  0.2584  0.1178 -0.2193
  827MOL0     C 9071   0.266   1.279   8.647  1.0130 -0.1306  0.3854
  827MOL0     C 9072   0.172   1.354   8.742 -0.3348  0.1035  0.7562
  827MOL0     C 9073   0.123   1.492   8.680  0.6919  0.0642 -0.7862
  827MOL0     C 9074   0.085   1.583   8.791 -0.1889 -0.0884 -0.0249
  827MOL0     C 9075   0.203   1.636   8.878 -0.2035  0.5162 -0.3587
  827MOL0    Cl 9076   0.373   1.652   8.805 -0.2648  0.1132 -0.3779
  827MOL0     C 9077   0.703   1.136   8.900  0.0381 -0.0006 -0.9810
  827MOL0     C 9078   0.806   1.215   8.937 -0.8181  0.3327 -0.3950
  827MOL0     O 9079   0.923   1.404   9.283  0.1200 -0.0837  0.3974
  827MOL0     C 9080   1.228   1.299   9.171 -0.5106 -1.2224  1.0425
  827MOL0     C 9081   1.370   1.330   9.171 -0.8923 -0.4745 -0.2105
  827MOL0     N 9082   2.057   1.552   9.513  0.2791  0.3286 -0.4735
  827MOL0     N 9083   2.089   1.558   9.637 -0.9919  0.3773 -0.6161
  827MOL0     C 9084   1.152   1.833  10.169 -0.3210  0.0992  0.2740
  827MOL0     C 9085   1.025   1.800  10.206  0.2411  0.9468 -0.6519
  827MOL0     C 9086   0.595   1.657  10.229  0.2422 -0.1605 -0.4101
  827MOL0     C 9087   0.549   1.602  10.108  0.4609  0.4612 -0.3555
  827MOL0     C 9088   0.415   1.550  10.102 -0.4798 -0.5980 -0.9429
  827MOL0     C 9089   0.329   1.559  10.202  0.9893  0.2745  0.3374
  827MOL0     O 9090   0.193   1.519  10.185  0.1187 -0.7994 -0.1400
  827MOL0     C 9091   0.138   1.478  10.060  0.0540 -0.6235  1.2920
  827MOL0     C 9092   0.007   1.400  10.080  0.1547 -0.0530 -0.1766
  827MOL0     C 9093  -0.120   1.490  10.080 -0.4048  0.1315  0.2188
  827MOL0     C 9094  -0.245   1.405  10.115  0.2889  0.4024 -0.1863
  827MOL0     C 9095  -0.251   1.365  10.258 -0.1898  0.0062 -0.2868
  827MOL0     C 9096  -0.269   1.337  10.377  0.0971  0.2966  0.0709
  827MOL0     C 9097   0.382   1.597  10.326 -0.3291 -0.1630  0.5399
  827MOL0     C 9098   0.506   1.659  10.337  0.4753  0.1746 -0.5684
  827MOL0     H 9099   0.865   1.816   9.909  0.2100  1.1959 -0.7260
  827MOL0     H 9100   1.079   1.874   9.826 -0.6088  1.4149 -0.0355
  827MOL0     H 9101   1.351   2.010   9.847  1.9538 -0.8291 -0.6431
  827MOL0     H 9102   1.313   1.844   9.794  1.5932 -1.8905 -1.3254
  827MOL0     H 9103   1.578   1.949   9.900 -1.2995  1.4808 -0.2855
  827MOL0     H 9104   1.527   1.907   9.730 -3.4169  0.7065 -0.5113
  827MOL0     H 9105   1.520   1.673   9.782  0.3918 -0.9118  0.7455
  827MOL0     H 9106   1.502   1.685   9.950 -0.4176 -0.3131 -0.3345
  827MOL0     H 9107   1.756   1.775   9.835 -0.1655  0.2385  1.3452
  827MOL0     H 9108   1.704   1.741  10.001  0.2581 -0.3143 -0.0954
  827MOL0     H 9109   1.722   1.528   9.765  2.9364 -0.7857 -0.0502
  827MOL0     H 9110   1.662   1.489   9.926 -0.3804 -1.0647 -1.7808
  827MOL0     H 9111   1.877   1.565  10.020  0.5570  0.3433 -0.7395
  827MOL0     H 9112   1.931   1.611   9.851  2.2787 -1.7094 -1.5056
  827MOL0     H 9113   1.936   1.352   9.997 -0.4587 -1.4464  0.3803
  827MOL0     H 9114   1.855   1.330   9.855  0.8874  1.4524  0.8738
  827MOL0     H 9115   2.096   1.286   9.845 -0.9419 -0.1148  2.0241
  827MOL0     H 9116   2.137   1.450   9.877  2.8583 -2.0175 -1.3332
  827MOL0     H 9117   1.958   1.257   9.606  0.2212 -0.1707  0.8284
  827MOL0     H 9118   1.987   1.289   9.330 -0.6225  0.2090 -1.5895
  827MOL0     H 9119   2.008   1.450   9.274  0.7026  1.8721  2.2751
  827MOL0     H 9120   1.756   1.365   9.428 -0.0241  0.3765 -0.1479
  827MOL0     H 9121   1.767   1.338   9.250 -2.1242  3.8615 -2.9223
  827MOL0     H 9122   1.793   1.614   9.379  0.6047  0.3458 -0.6630
  827MOL0     H 9123   1.791   1.570   9.212  1.7263 -2.2137  0.5643
  827MOL0     H 9124   1.588   1.681   9.302 -0.0912  0.0913 -2.5686
  827MOL0     H 9125   1.563   1.556   9.424 -2.5932 -3.0756 -1.0686
  827MOL0     H 9126   1.356   1.641   9.303  0.1753 -0.3829  0.3755
  827MOL0     H 9127   1.117   1.588   9.320  0.2327  2.4237 -2.0985
  827MOL0     H 9128   0.794   1.174   9.267  1.9853  1.4372  0.0703
  827MOL0     H 9129   0.591   1.032   9.190 -1.3122 -2.0550 -1.7265
  827MOL0     H 9130   0.364   0.935   8.842 -0.5001  0.6116 -0.1611
  827MOL0     H 9131   0.513   0.973   8.757 -0.3672 -3.4849  2.4260
  827MOL0     H 9132   0.469   1.215   8.765 -0.8431  0.5063  1.6615
  827MOL0     H 9133   0.350   1.189   8.892 -0.4404  0.3638 -0.0433
  827MOL0     H 9134   0.201   1.073   8.709  0.1065  1.0537  2.1583
  827MOL0     H 9135   0.327   1.087   8.598  0.6620  1.1492 -0.6364
  827MOL0     H 9136   0.362   1.330   8.634  1.2073 -0.9019 -1.3600
  827MOL0     H 9137   0.216   1.298   8.552  0.9338  1.2625  0.6778
  827MOL0     H 9138   0.203   1.369   8.846 -0.3982  1.9561  0.5483
  827MOL0     H 9139   0.088   1.284   8.751 -0.2114 -0.2682 -0.8091
  827MOL0     H 9140   0.043   1.474   8.607  1.0977  2.4755 -1.9311
  827MOL0     H 9141   0.201   1.542   8.622  1.2304  0.5649  0.3453
  827MOL0     H 9142   0.027   1.665   8.746 -1.0671 -0.2276  0.8113
  827MOL0     H 9143   0.011   1.536   8.857  0.4750  0.5355  1.1962
  827MOL0     H 9144   0.214   1.568   8.964  0.1456  0.9021 -0.0957
  827MOL0     H 9145   0.159   1.728   8.917 -1.0811 -0.1027  0.1540
  827MOL0     H 9146   0.692   1.120   8.793 -2.7810  1.5827 -1.0093
  827MOL0     H 9147   0.876   1.262   8.870  1.1278  2.4388  2.8350
  827MOL0     H 9148   1.189   1.201   9.143 -1.3186 -1.0877  1.6440
  827MOL0     H 9149   1.446   1.261   9.137 -0.1292 -2.9379  5.3280
  827MOL0     H 9150   1.234   1.835  10.240 -1.1203  2.0840  1.2037
  827MOL0     H 9151   1.009   1.760  10.306  0.4462  0.0451 -0.9677
  827MOL0     H 9152   0.610   1.590  10.020 -1.0055  0.6444 -1.4351
  827MOL0     H 9153   0.378   1.504  10.011 -0.2348 -0.3993 -1.1440
  827MOL0     H 9154   0.208   1.406  10.016  1.1665  0.4101  1.3296
  827MOL0     H 9155   0.112   1.564   9.997  0.3211 -1.3367  0.1744
  827MOL0     H 9156  -0.010   1.327  10.000 -0.6246  0.5395 -0.5717
  827MOL0     H 9157   0.013   1.341  10.172  0.6264  1.8863  1.0907
  827MOL0     H 9158  -0.132   1.538   9.982 -1.0728  5.8583  2.6989
  827MOL0     H 9159  -0.125   1.564  10.160  1.4127 -1.4649  1.9256
  827MOL0     H 9160  -0.327   1.474  10.093  0.3051  1.0328  1.5856
  827MOL0     H 9161  -0.243   1.318  10.050 -2.3202 -1.6956  2.3087
  827MOL0     H 9162  -0.299   1.314  10.477 -2.0600  0.9349 -0.3823
  827MOL0     H 9163   0.328   1.598  10.420 -1.4908  3.5133 -0.0108
  827MOL0     H 9164   0.538   1.700  10.432  1.6161  0.4588 -1.0507
  828MOL0     O 9165   3.646   6.065   4.648 -0.2889  0.5797  0.0261
  828MOL0     C 9166   3.647   6.185   4.687  0.4379  0.1583  0.4393
  828MOL0     O 9167   3.756   6.266   4.713 -0.3758 -0.5606  0.5075
  828MOL0     C 9168   3.882   6.198   4.699  0.7344  0.7655  0.0031
  828MOL0     C 9169   3.951   6.157   4.811  0.2970 -0.1255  0.8465
  828MOL0     C 9170   4.070   6.090   4.796 -0.9981 -0.1421  0.5870
  828MOL0     C 9171   4.136   6.074   4.676 -0.1847 -0.8759  0.5856
  828MOL0     O 9172   4.254   6.007   4.651  0.4844 -0.6647  0.1870
  828MOL0     C 9173   4.334   5.969   4.766 -0.5120 -0.4239  0.0058
  828MOL0     C 9174   4.467   5.909   4.719 -0.1749 -0.0558  0.7074
  828MOL0     C 9175   4.540   5.824   4.824 -0.1860 -0.8101 -0.3797
  828MOL0     C 9176   4.661   5.746   4.765  0.1603  0.9961  0.8671
  828MOL0     C 9177   4.753   5.707   4.882 -0.4758  0.1900 -0.1925
  828MOL0     C 9178   4.885   5.650   4.825 -0.0567  0.2732  0.1110
  828MOL0     C 9179   4.960   5.573   4.939 -0.1727  0.4011 -0.8691
  828MOL0     C 9180   5.089   5.500   4.873  0.7286 -0.7366  0.1227
  828MOL0     N 9181   5.152   5.404   4.962  0.0741  0.0729 -0.0485
  828MOL0     C 9182   5.246   5.312   4.913  0.3678 -0.1395  0.5792
  828MOL0     C 9183   5.292   5.251   5.023 -0.1756  0.2168  0.3994
  828MOL0     C 9184   5.381   5.127   5.021  0.5342 -0.6050 -0.5282
  828MOL0     C 9185   5.348   5.019   4.917  0.1307  0.2362 -0.1088
  828MOL0     C 9186   5.252   4.917   4.979 -0.8304  0.1572  0.3506
  828MOL0     C 9187   5.119   4.991   5.001  0.3646  0.1739 -0.2987
  828MOL0     O 9188   5.063   5.052   4.883 -0.4344 -0.3765  0.4970
  828MOL0     C 9189   4.945   5.119   4.886 -0.0515 -0.4685  0.0743
  828MOL0     C 9190   4.887   5.162   4.763  1.5899  0.8234  0.2140
  828MOL0     C 9191   4.772   5.241   4.766  0.6287  0.5439 -0.5497
  828MOL0     C 9192   4.709   5.275   4.888  0.8177 -0.4376  0.5625
  828MOL0     C 9193   4.589   5.373   4.889 -0.5376  0.0344  0.9537
  828MOL0     O 9194   4.532   5.394   5.011 -0.0139  0.1434  0.5727
  828MOL0     C 9195   4.414   5.462   5.029  0.4907 -1.1704 -0.2776
  828MOL0     C 9196   4.417   5.598   5.059 -0.1204 -0.0973 -0.3885
  828MOL0     C 9197   4.306   5.679   5.085 -0.8181  0.0752  0.4246
  828MOL0     C 9198   4.181   5.609   5.106 -0.8068  0.3666  0.2088
  828MOL0     O 9199   4.056   5.676   5.133 -0.2806  0.1988  0.7885
  828MOL0     C 9200   4.044   5.812   5.098  0.5972 -0.1323 -0.0396
  828MOL0     C 9201   3.902   5.841   5.079 -0.1404  0.2968  0.2007
  828MOL0     C 9202   3.817   5.822   5.205  1.5007 -0.1318 -0.3407
  828MOL0     C 9203   3.668   5.868   5.177 -1.4600 -0.4128 -0.0757
  828MOL0     C 9204   3.597   5.910   5.305 -0.6597  0.7078  0.3517
  828MOL0     C 9205   3.450   5.926   5.257 -0.0751  0.1232  0.4923
  828MOL0     C 9206   3.347   5.938   5.371  0.0006 -0.1223 -0.5152
  828MOL0     C 9207   3.312   5.809   5.427  0.7376 -0.1623 -0.1219
  828MOL0    Cl 9208   3.264   5.827   5.603  0.2320 -0.3759 -0.3783
  828MOL0     C 9209   4.182   5.473   5.083 -0.5134  0.3734  0.7445
  828MOL0     C 9210   4.289   5.401   5.037  0.3580  0.3065 -0.5550
  828MOL0     O 9211   4.553   5.411   4.778  0.2691 -0.3475 -0.3191
  828MOL0     C 9212   4.768   5.224   5.006  0.6974 -0.7765  0.0936
  828MOL0     C 9213   4.882   5.154   5.002 -0.0828  1.4131 -0.4784
  828MOL0     N 9214   5.249   5.306   5.136 -0.0993 -1.0314  0.3550
  828MOL0     N 9215   5.167   5.399   5.104  0.0415  0.7237  0.0333
  828MOL0     C 9216   4.068   6.125   4.563  0.7988 -0.9703  0.2953
  828MOL0     C 9217   3.934   6.175   4.573 -0.2114  0.3031 -0.6357
  828MOL0     C 9218   3.509   6.238   4.711  0.0140 -0.4024  0.0628
  828MOL0     C 9219   3.381   6.168   4.699 -0.3697 -0.0004 -0.0018
  828MOL0     C 9220   3.263   6.227   4.718 -0.1336 -0.9444  0.1695
  828MOL0     C 9221   3.252   6.365   4.754 -0.9723 -0.1092  0.1101
  828MOL0     O 9222   3.127   6.426   4.782  0.0192 -0.4587 -0.8292
  828MOL0     C 9223   2.997   6.360   4.742  0.3730 -0.2480  0.1229
  828MOL0     C 9224   2.874   6.427   4.807  0.1218  0.1026 -0.1462
  828MOL0     C 9225   2.737   6.364   4.761  0.0531  0.0102 -0.0921
  828MOL0     C 9226   2.717   6.401   4.610  1.2286  0.3667  0.6619
  828MOL0     C 9227   2.596   6.341   4.555  0.3673  0.6608  0.1609
  828MOL0     C 9228   2.512   6.266   4.522  0.4446  0.3891  0.0441
  828MOL0     C 9229   3.373   6.431   4.794  0.0679 -0.0847  1.2142
  828MOL0     C 9230   3.498   6.363   4.776  0.7114 -0.3976 -0.1517
  828MOL0     H 9231   3.914   6.181   4.909 -4.9178 -1.1317 -0.5960
  828MOL0     H 9232   4.111   6.053   4.890 -1.2123 -3.9105 -0.6755
  828MOL0     H 9233   4.291   5.889   4.827  2.3320 -0.4400  2.2209
  828MOL0     H 9234   4.354   6.059   4.824 -1.4896  0.8322 -1.5376
  828MOL0     H 9235   4.541   5.987   4.699 -1.6555  0.4522 -3.6124
  828MOL0     H 9236   4.443   5.859   4.626 -3.3276 -1.4798  2.1586
  828MOL0     H 9237   4.467   5.749   4.858 -3.5675  1.7675 -1.3777
  828MOL0     H 9238   4.576   5.899   4.895  0.7985 -0.7648 -0.9150
  828MOL0     H 9239   4.632   5.657   4.709 -0.4494  1.2532  0.7613
  828MOL0     H 9240   4.718   5.806   4.694  2.2252 -2.4721 -0.6683
  828MOL0     H 9241   4.707   5.626   4.939  0.9421  0.2797  1.1207
  828MOL0     H 9242   4.774   5.793   4.946  2.7273  0.8898 -1.9735
  828MOL0     H 9243   4.939   5.740   4.793 -1.2983  1.5408  1.4289
  828MOL0     H 9244   4.868   5.582   4.741  1.6026  2.4621 -2.1489
  828MOL0     H 9245   5.002   5.637   5.017  1.9523 -3.0606  1.0887
  828MOL0     H 9246   4.906   5.494   4.991  2.4094 -0.2780  1.0016
  828MOL0     H 9247   5.162   5.581   4.866  0.1885  0.0285  2.5398
  828MOL0     H 9248   5.052   5.464   4.777 -1.9425  1.5156  0.1873
  828MOL0     H 9249   5.265   5.283   4.810  1.6795  0.2172  0.7023
  828MOL0     H 9250   5.374   5.082   5.121 -2.3013 -0.3290 -0.5197
  828MOL0     H 9251   5.485   5.148   4.995  0.8158 -1.6453 -0.3156
  828MOL0     H 9252   5.437   4.960   4.892 -0.5027 -0.5473 -0.5710
  828MOL0     H 9253   5.302   5.066   4.829  0.6371 -0.2864 -0.6679
  828MOL0     H 9254   5.245   4.840   4.902  0.2341 -0.0993  0.4844
  828MOL0     H 9255   5.296   4.873   5.069 -0.7278  0.7102  0.5742
  828MOL0     H 9256   5.128   5.062   5.083  2.5335  0.1671 -0.4691
  828MOL0     H 9257   5.045   4.923   5.045 -0.1463  0.3345 -0.9018
  828MOL0     H 9258   4.939   5.133   4.672  2.5675  1.4413  0.5568
  828MOL0     H 9259   4.720   5.278   4.678  0.2620  1.6079  0.0848
  828MOL0     H 9260   4.511   5.652   5.065  2.3045 -3.9414 -0.2036
  828MOL0     H 9261   4.312   5.787   5.076 -1.3763  0.1546  0.9554
  828MOL0     H 9262   4.095   5.837   5.004  0.9053 -1.3906 -0.2296
  828MOL0     H 9263   4.077   5.882   5.175  0.4753  0.5049 -0.5522
  828MOL0     H 9264   3.868   5.777   4.998  0.5830  0.7141 -0.4506
  828MOL0     H 9265   3.903   5.941   5.033  1.5560 -1.0032 -2.9098
  828MOL0     H 9266   3.844   5.882   5.293 -1.7963 -0.3557  0.9932
  828MOL0     H 9267   3.811   5.715   5.225 -0.2233 -0.0398 -0.2316
  828MOL0     H 9268   3.684   5.962   5.124 -1.1563 -1.0138 -1.0721
  828MOL0     H 9269   3.610   5.797   5.117 -1.9654 -0.1760  0.1270
  828MOL0     H 9270   3.637   6.004   5.343  3.2933 -0.3024 -0.8407
  828MOL0     H 9271   3.609   5.830   5.379  0.3996  1.5765  1.1435
  828MOL0     H 9272   3.418   5.840   5.196 -0.3715 -0.1055  0.9671
  828MOL0     H 9273   3.454   6.017   5.196 -0.6671 -0.5278 -0.5515
  828MOL0     H 9274   3.383   6.010   5.446 -3.4868  1.3602 -0.0669
  828MOL0     H 9275   3.253   5.982   5.336 -2.1972 -3.4050  0.7434
  828MOL0     H 9276   3.399   5.746   5.409  1.1849  0.0940  1.0616
  828MOL0     H 9277   3.229   5.763   5.372  0.1131 -2.5378  2.5480
  828MOL0     H 9278   4.094   5.414   5.105  0.0655  0.4307  3.5268
  828MOL0     H 9279   4.290   5.295   5.014 -0.7447 -0.3716  2.0840
  828MOL0     H 9280   4.741   5.259   5.106  2.0762  1.9579 -0.4141
  828MOL0     H 9281   4.914   5.111   5.096 -1.7681 -0.1532 -0.5587
  828MOL0     H 9282   4.126   6.122   4.471 -0.4466 -3.5686 -0.5013
  828MOL0     H 9283   3.870   6.194   4.487  1.0575  2.5700 -1.1838
  828MOL0     H 9284   3.396   6.063   4.678  0.3403  0.1179 -0.1020
  828MOL0     H 9285   3.178   6.161   4.708 -2.4344  1.6019  1.5396
  828MOL0     H 9286   2.997   6.252   4.763 -0.9372 -0.2945 -0.0643
  828MOL0     H 9287   2.986   6.356   4.633  2.7250 -2.9955 -0.1594
  828MOL0     H 9288   2.886   6.406   4.913 -2.2290  0.9908  0.3513
  828MOL0     H 9289   2.871   6.534   4.784 -2.9490  0.3344  0.8381
  828MOL0     H 9290   2.664   6.421   4.820  1.0520  1.1465  0.0857
  828MOL0     H 9291   2.740   6.257   4.780  5.2735 -0.2914 -1.3533
  828MOL0     H 9292   2.717   6.510   4.600  1.7728  0.5958  2.7642
  828MOL0     H 9293   2.798   6.374   4.541  1.3811  4.6121 -1.0932
  828MOL0     H 9294   2.449   6.192   4.477  0.5425 -1.0857  2.1510
  828MOL0     H 9295   3.366   6.534   4.827  0.0454 -0.1065  1.2756
  828MOL0     H 9296   3.589   6.415   4.806  0.2027 -0.8378  2.4173
  829MOL0     O 9297   4.547   1.402   0.782  0.0482  0.3351  0.2406
  829MOL0     C 9298   4.634   1.468   0.831  0.0929 -0.2047 -0.4295
  829MOL0     O 9299   4.708   1.564   0.768 -0.1128 -0.0664 -0.5746
  829MOL0     C 9300   4.687   1.579   0.633  0.3009  0.5996  0.3783
  829MOL0     C 9301   4.794   1.565   0.546  0.6756 -0.5216  1.5354
  829MOL0     C 9302   4.778   1.599   0.412  0.5364 -0.2758 -0.1385
  829MOL0     C 9303   4.656   1.638   0.364 -0.2549 -0.0556 -0.7116
  829MOL0     O 9304   4.641   1.669   0.235  0.6079 -0.6238 -0.4155
  829MOL0     C 9305   4.707   1.794   0.210 -0.4628  0.1980  0.1379
  829MOL0     C 9306   4.660   1.925   0.277  0.3679  0.2660 -0.1921
  829MOL0     C 9307   4.508   1.928   0.241 -0.2836  0.1152 -0.0240
  829MOL0     C 9308   4.444   2.049   0.303  0.0593 -0.0597  0.0773
  829MOL0     C 9309   4.317   2.111   0.239 -0.2994 -0.4460  0.7227
  829MOL0     C 9310   4.335   2.216   0.133  0.4218 -0.0990 -0.2931
  829MOL0     C 9311   4.208   2.247   0.059  0.7897  0.1369  0.3361
  829MOL0     C 9312   4.198   2.379  -0.016  0.2579  0.0123 -0.3306
  829MOL0     N 9313   4.063   2.429  -0.012 -0.1949  0.2791  0.4281
  829MOL0     C 9314   4.032   2.541   0.066 -1.2396  0.0367 -0.0178
  829MOL0     C 9315   3.912   2.575   0.018 -0.4405 -0.4154 -0.0255
  829MOL0     C 9316   3.823   2.688   0.056 -0.1143 -0.0785 -0.1862
  829MOL0     C 9317   3.680   2.636   0.089 -0.2987  0.3714  0.0679
  829MOL0     C 9318   3.605   2.749   0.153  0.8054 -0.0177 -0.0166
  829MOL0     C 9319   3.460   2.732   0.173 -0.7650  0.9655 -0.8100
  829MOL0     O 9320   3.373   2.680   0.073 -0.2358  1.2956 -0.0064
  829MOL0     C 9321   3.318   2.773  -0.016  0.6106 -0.2512 -0.6874
  829MOL0     C 9322   3.361   2.907  -0.023 -0.2295  0.5406 -0.5950
  829MOL0     C 9323   3.292   2.994  -0.103 -0.7815 -0.0327  0.4394
  829MOL0     C 9324   3.190   2.948  -0.194  0.4174 -0.0162  0.6176
  829MOL0     C 9325   3.115   3.052  -0.282 -0.1687  0.4885  0.3438
  829MOL0     O 9326   2.975   3.045  -0.276  0.3122  0.5179  0.4410
  829MOL0     C 9327   2.887   3.145  -0.319 -0.1843  0.0472  0.6847
  829MOL0     C 9328   2.769   3.098  -0.385  0.3286  0.4921 -0.4228
  829MOL0     C 9329   2.664   3.185  -0.418  0.2577 -0.0365 -0.6773
  829MOL0     C 9330   2.668   3.316  -0.377  1.3247 -0.2755  0.2770
  829MOL0     O 9331   2.571   3.404  -0.421 -0.5487  0.1592 -0.1627
  829MOL0     C 9332   2.502   3.476  -0.324  0.3724  0.8902  0.0948
  829MOL0     C 9333   2.378   3.406  -0.282  0.5471  0.0165  0.2044
  829MOL0     C 9334   2.302   3.471  -0.164  0.1555 -0.3281 -0.1162
  829MOL0     C 9335   2.267   3.620  -0.187  0.2288  0.3178  0.6853
  829MOL0     C 9336   2.146   3.676  -0.099 -0.1442  0.9141  0.0261
  829MOL0     C 9337   2.136   3.829  -0.125 -0.2323  0.2702 -0.4105
  829MOL0     C 9338   2.055   3.905  -0.021  0.1221 -0.5990 -0.7655
  829MOL0     C 9339   1.898   3.890  -0.036  0.4787  0.2220  0.4581
  829MOL0    Cl 9340   1.851   3.721  -0.022 -0.7922 -0.3647  0.2518
  829MOL0     C 9341   2.778   3.365  -0.313  0.2787  1.1137 -0.1608
  829MOL0     C 9342   2.884   3.279  -0.281  0.3367 -0.7335  0.6321
  829MOL0     O 9343   3.186   3.135  -0.341  1.4150  0.1559  0.1023
  829MOL0     C 9344   3.151   2.820  -0.199 -0.9591 -0.1392  0.7260
  829MOL0     C 9345   3.208   2.733  -0.101 -0.3772  0.8638 -0.1914
  829MOL0     N 9346   3.864   2.474  -0.066  0.7076  0.0447  0.3549
  829MOL0     N 9347   3.957   2.392  -0.086  0.6680  0.4461 -0.0523
  829MOL0     C 9348   4.550   1.650   0.456  0.0718  0.4877 -0.4665
  829MOL0     C 9349   4.562   1.612   0.589  0.0481 -0.2062  0.8975
  829MOL0     C 9350   4.671   1.446   0.976  0.4510 -0.3712  0.0529
  829MOL0     C 9351   4.617   1.329   1.042  0.0488  0.1360 -0.3226
  829MOL0     C 9352   4.645   1.317   1.184  0.6364 -0.0011  0.1292
  829MOL0     C 9353   4.723   1.410   1.253  0.3344 -0.6876  0.4877
  829MOL0     O 9354   4.768   1.397   1.386 -0.0753 -0.2784  0.1210
  829MOL0     C 9355   4.756   1.267   1.455  0.2732 -0.6532  0.5815
  829MOL0     C 9356   4.873   1.168   1.430 -0.1940  0.7791  0.4519
  829MOL0     C 9357   5.020   1.209   1.469 -0.1653 -0.1927  0.3640
  829MOL0     C 9358   5.125   1.096   1.478 -0.3762  0.4418  1.8278
  829MOL0     C 9359   5.134   1.015   1.354  0.0600  0.5577 -0.0276
  829MOL0     C 9360   5.146   0.945   1.253  0.3076  0.0030  0.6087
  829MOL0     C 9361   4.769   1.527   1.184  0.1474  0.3468  0.0506
  829MOL0     C 9362   4.743   1.542   1.049 -0.4398  0.7784  0.0748
  829MOL0     H 9363   4.889   1.519   0.573  1.6610  1.7959  2.2048
  829MOL0     H 9364   4.861   1.576   0.346  0.2150 -2.6548  0.1915
  829MOL0     H 9365   4.707   1.801   0.101 -0.7187  0.2952  0.1449
  829MOL0     H 9366   4.813   1.793   0.238 -0.5547  0.5331  0.4953
  829MOL0     H 9367   4.716   2.015   0.250 -1.5132  1.5113 -0.1744
  829MOL0     H 9368   4.682   1.921   0.384 -0.1900 -0.3263 -0.0941
  829MOL0     H 9369   4.444   1.847   0.278 -1.2269  1.4801  1.5259
  829MOL0     H 9370   4.494   1.940   0.133 -3.3338  1.3679  0.4003
  829MOL0     H 9371   4.429   2.018   0.407 -2.4582 -1.3667 -0.5814
  829MOL0     H 9372   4.509   2.137   0.303 -1.8517  1.5959 -3.4976
  829MOL0     H 9373   4.259   2.147   0.325 -1.7599  0.6536 -0.6832
  829MOL0     H 9374   4.265   2.024   0.198  0.6676 -2.1524  2.9080
  829MOL0     H 9375   4.409   2.189   0.057 -0.0246  1.3401 -1.2945
  829MOL0     H 9376   4.374   2.302   0.189  0.9336 -0.1220 -0.6054
  829MOL0     H 9377   4.176   2.165  -0.006 -3.0592  1.7344 -0.0200
  829MOL0     H 9378   4.132   2.253   0.137 -1.2212 -2.0748 -1.2820
  829MOL0     H 9379   4.228   2.364  -0.121 -0.6411  0.1653 -0.6187
  829MOL0     H 9380   4.269   2.447   0.032 -1.4863  1.3298  0.4610
  829MOL0     H 9381   4.098   2.598   0.131  0.3621 -0.6944 -0.9457
  829MOL0     H 9382   3.814   2.762  -0.024 -1.2053 -1.5718 -1.4923
  829MOL0     H 9383   3.848   2.735   0.152 -1.7520 -0.1857  0.3264
  829MOL0     H 9384   3.691   2.555   0.161  0.5088  1.3213  1.0579
  829MOL0     H 9385   3.623   2.606   0.001 -2.4712  3.3611  0.3088
  829MOL0     H 9386   3.644   2.766   0.253 -2.3473  2.2793  0.9824
  829MOL0     H 9387   3.629   2.840   0.099  1.4749  0.6132  1.3060
  829MOL0     H 9388   3.417   2.822   0.218 -0.7638  1.8774 -2.5084
  829MOL0     H 9389   3.456   2.663   0.258  0.6997  1.6463 -0.1499
  829MOL0     H 9390   3.442   2.946   0.038  0.1752 -0.0254 -0.7623
  829MOL0     H 9391   3.312   3.100  -0.090  0.8475 -0.5998  3.6546
  829MOL0     H 9392   2.760   2.992  -0.408 -0.8592  0.6520 -0.7438
  829MOL0     H 9393   2.569   3.162  -0.466 -1.2724  4.3114 -0.1708
  829MOL0     H 9394   2.478   3.567  -0.379  2.7775  0.3388 -2.0334
  829MOL0     H 9395   2.569   3.516  -0.248  3.1713 -0.7859 -1.3449
  829MOL0     H 9396   2.410   3.310  -0.240  1.0905  0.5130  0.9501
  829MOL0     H 9397   2.312   3.380  -0.366 -1.1296  2.0072  0.8307
  829MOL0     H 9398   2.373   3.462  -0.082 -1.9670 -1.8795  1.6578
  829MOL0     H 9399   2.209   3.419  -0.140  0.7397 -1.8525 -1.0333
  829MOL0     H 9400   2.361   3.669  -0.160  0.9973  0.0607 -1.3543
  829MOL0     H 9401   2.260   3.641  -0.295  2.3360 -2.3097 -0.0667
  829MOL0     H 9402   2.176   3.663   0.005 -0.5594 -3.2946 -0.2150
  829MOL0     H 9403   2.056   3.622  -0.128  0.1793  0.3458  0.0594
  829MOL0     H 9404   2.087   3.844  -0.221 -1.8468  4.3263  0.8194
  829MOL0     H 9405   2.236   3.872  -0.110 -1.3300  1.9577  3.3813
  829MOL0     H 9406   2.083   3.876   0.081 -1.2692 -3.2516 -1.0389
  829MOL0     H 9407   2.071   4.011  -0.041 -3.0072  1.0364  3.7799
  829MOL0     H 9408   1.879   3.929  -0.136  2.8428  0.5910  0.0912
  829MOL0     H 9409   1.845   3.958   0.031 -0.0747 -0.7624  1.0346
  829MOL0     H 9410   2.782   3.467  -0.277 -1.0836  0.2719  2.7528
  829MOL0     H 9411   2.957   3.326  -0.216  0.9378  0.6242 -0.9421
  829MOL0     H 9412   3.072   2.787  -0.265 -1.3198  2.4141 -0.2365
  829MOL0     H 9413   3.171   2.631  -0.103 -0.5043  0.9037 -1.8891
  829MOL0     H 9414   4.448   1.660   0.420 -0.2333  0.0715  0.2582
  829MOL0     H 9415   4.471   1.612   0.648 -0.9613 -1.9006 -0.5809
  829MOL0     H 9416   4.570   1.244   0.993 -2.1574  1.0030  0.1738
  829MOL0     H 9417   4.604   1.236   1.242 -2.0108  2.7208  2.3935
  829MOL0     H 9418   4.657   1.220   1.450 -0.7105  0.9330  2.9757
  829MOL0     H 9419   4.759   1.294   1.561  0.1653  2.3387 -0.0948
  829MOL0     H 9420   4.854   1.084   1.497 -2.9560  1.3549  0.5285
  829MOL0     H 9421   4.863   1.136   1.326 -1.2050  0.8993  0.5004
  829MOL0     H 9422   5.010   1.251   1.570 -1.3436 -0.1297  0.2436
  829MOL0     H 9423   5.051   1.284   1.395  0.7148 -0.2716  0.6473
  829MOL0     H 9424   5.224   1.142   1.493 -0.3093  1.0291 -0.1625
  829MOL0     H 9425   5.107   1.017   1.551  0.2040 -0.0173  1.4873
  829MOL0     H 9426   5.182   0.888   1.170  0.5509  1.2606 -0.1796
  829MOL0     H 9427   4.831   1.597   1.239  2.3503  0.1311 -1.9695
  829MOL0     H 9428   4.756   1.641   1.008 -0.9850 -0.1807 -2.5684
  830MOL0     O 9429   0.317   2.222   0.047 -0.0992 -0.6910 -0.2809
  830MOL0     C 9430   0.301   2.301   0.143 -0.2426  0.7480  0.5174
  830MOL0     O 9431   0.182   2.323   0.196  0.4567 -0.6713 -0.7585
  830MOL0     C 9432   0.072   2.248   0.138 -0.1052  0.2083  0.8770
  830MOL0     C 9433   0.071   2.104   0.141 -0.1501 -0.1852  0.1226
  830MOL0     C 9434  -0.038   2.036   0.082 -0.9797 -0.1603  0.5522
  830MOL0     C 9435  -0.141   2.097   0.008  0.8289  0.2790 -0.2468
  830MOL0     O 9436  -0.249   2.036  -0.060  0.1922 -0.1822  0.0198
  830MOL0     C 9437  -0.275   1.900  -0.027  0.6782 -0.2294  0.3334
  830MOL0     C 9438  -0.329   1.878   0.110 -0.2970  0.8502 -0.4532
  830MOL0     C 9439  -0.293   1.729   0.166 -0.4469  0.5464  0.9010
  830MOL0     C 9440  -0.310   1.722   0.313 -0.2464 -0.1644  0.1000
  830MOL0     C 9441  -0.448   1.727   0.367 -0.4145  0.2013 -0.5246
  830MOL0     C 9442  -0.427   1.727   0.518 -0.1804  0.3317  0.0236
  830MOL0     C 9443  -0.554   1.682   0.588  0.0722  0.8678 -0.0897
  830MOL0     C 9444  -0.572   1.746   0.722 -0.3640  1.0181 -0.2396
  830MOL0     N 9445  -0.707   1.722   0.744  1.1223  1.0347  0.0342
  830MOL0     C 9446  -0.797   1.822   0.733 -0.1840 -0.2294 -0.0215
  830MOL0     C 9447  -0.911   1.774   0.794  0.1199 -0.4057  0.4902
  830MOL0     C 9448  -1.041   1.835   0.797  0.0233  0.5415  0.2933
  830MOL0     C 9449  -1.039   1.992   0.794 -0.1010  0.6469 -0.0953
  830MOL0     C 9450  -1.183   2.051   0.758  0.5872 -0.3299  0.4379
  830MOL0     C 9451  -1.296   2.025   0.855 -0.5260 -0.4324 -0.1933
  830MOL0     O 9452  -1.400   2.116   0.825 -0.0366 -0.1587  0.5113
  830MOL0     C 9453  -1.529   2.085   0.867  0.5117  0.1513 -0.4830
  830MOL0     C 9454  -1.556   1.996   0.981  0.7462 -0.0842  0.0902
  830MOL0     C 9455  -1.690   1.961   1.008 -0.1024  0.7998 -0.2305
  830MOL0     C 9456  -1.798   2.001   0.921 -0.1386  0.5261  0.3817
  830MOL0     C 9457  -1.936   1.965   0.951  0.5987 -0.0608 -0.7159
  830MOL0     O 9458  -2.047   2.031   0.911 -0.2899  0.2397  0.8312
  830MOL0     C 9459  -2.165   1.977   0.936 -0.5630  0.6570 -0.3136
  830MOL0     C 9460  -2.216   1.861   0.879 -0.1386  0.4594 -1.2758
  830MOL0     C 9461  -2.341   1.821   0.911  0.1023 -0.3576 -0.0538
  830MOL0     C 9462  -2.413   1.889   1.007 -0.8554  0.0460 -0.1941
  830MOL0     O 9463  -2.540   1.862   1.057 -0.2227 -0.1474  0.3290
  830MOL0     C 9464  -2.623   1.761   0.997  0.0930  0.0159  0.1878
  830MOL0     C 9465  -2.770   1.781   1.034  0.4981  0.2181 -0.3830
  830MOL0     C 9466  -2.838   1.663   0.968 -0.2614 -0.1922 -0.0158
  830MOL0     C 9467  -2.999   1.676   0.973 -0.4390  0.0412 -0.4116
  830MOL0     C 9468  -3.062   1.702   1.111 -0.6678  2.2113 -0.3740
  830MOL0     C 9469  -3.215   1.739   1.107  0.0005 -0.4549 -0.0542
  830MOL0     C 9470  -3.303   1.620   1.091  0.1868 -0.2693 -0.0332
  830MOL0     C 9471  -3.340   1.601   0.939  0.4569 -0.4736 -0.0238
  830MOL0    Cl 9472  -3.494   1.502   0.938  0.0471  0.0471 -0.0667
  830MOL0     C 9473  -2.356   1.994   1.078 -0.1114  0.2287 -0.7804
  830MOL0     C 9474  -2.232   2.036   1.043 -0.7832 -0.5317  0.1553
  830MOL0     O 9475  -1.945   1.876   1.023  0.8825  0.5414  0.3309
  830MOL0     C 9476  -1.765   2.086   0.811  0.2328 -0.4336 -0.0583
  830MOL0     C 9477  -1.635   2.131   0.786 -0.3077 -1.4052  0.1057
  830MOL0     N 9478  -0.879   1.658   0.855  0.0039  0.0565 -0.4460
  830MOL0     N 9479  -0.758   1.614   0.811  0.1830 -0.2988  0.2261
  830MOL0     C 9480  -0.125   2.236  -0.002  0.0131 -1.5209  0.2993
  830MOL0     C 9481  -0.020   2.306   0.052  0.4285 -0.2052 -0.2402
  830MOL0     C 9482   0.411   2.369   0.196 -0.3229  0.5044  0.3417
  830MOL0     C 9483   0.521   2.401   0.112  0.2268 -0.7542 -0.2741
  830MOL0     C 9484   0.628   2.477   0.164  0.1503 -0.4026 -0.2176
  830MOL0     C 9485   0.634   2.522   0.303  0.5950 -0.2969 -0.9508
  830MOL0     O 9486   0.733   2.609   0.355  0.1632  0.0792 -0.5819
  830MOL0     C 9487   0.836   2.639   0.272 -0.3440  0.1452 -0.7084
  830MOL0     C 9488   0.920   2.743   0.335 -0.1648  0.4637  0.3253
  830MOL0     C 9489   0.839   2.861   0.381  0.4321 -0.3161  0.0311
  830MOL0     C 9490   0.927   2.979   0.429  0.0572 -0.0756 -0.5203
  830MOL0     C 9491   1.027   2.944   0.534  0.2378  0.9483 -0.2130
  830MOL0     C 9492   1.097   2.919   0.629 -0.2192 -0.2054  0.1779
  830MOL0     C 9493   0.527   2.484   0.387  0.0708  0.5342  0.4365
  830MOL0     C 9494   0.420   2.400   0.328  0.3492  0.1122 -0.1968
  830MOL0     H 9495   0.141   2.043   0.198 -0.6889 -0.8096  0.1312
  830MOL0     H 9496  -0.035   1.928   0.092  0.7868 -0.2431 -0.5605
  830MOL0     H 9497  -0.183   1.845  -0.049  0.9524  0.8768 -1.5284
  830MOL0     H 9498  -0.355   1.860  -0.090  0.0309  0.0438  0.9717
  830MOL0     H 9499  -0.439   1.883   0.111 -0.4688 -0.9212  2.4919
  830MOL0     H 9500  -0.296   1.940   0.194  0.7941 -1.9307  1.3566
  830MOL0     H 9501  -0.190   1.701   0.143 -1.2227 -2.1524  0.3327
  830MOL0     H 9502  -0.360   1.665   0.107  0.0031  1.8198 -1.0600
  830MOL0     H 9503  -0.256   1.632   0.343  0.9985 -0.2442 -2.2291
  830MOL0     H 9504  -0.253   1.804   0.358 -1.6777  0.5744  0.6143
  830MOL0     H 9505  -0.517   1.650   0.332 -0.0633 -1.0660  1.4451
  830MOL0     H 9506  -0.487   1.828   0.348  0.7245  0.4223 -1.8564
  830MOL0     H 9507  -0.388   1.825   0.545  3.2837 -0.8693 -0.1138
  830MOL0     H 9508  -0.349   1.663   0.560 -1.3805 -1.9808 -1.0777
  830MOL0     H 9509  -0.633   1.719   0.523  0.0384 -1.9792 -1.8478
  830MOL0     H 9510  -0.562   1.573   0.595 -0.5424  0.9791  1.2539
  830MOL0     H 9511  -0.556   1.854   0.719  2.8475  0.6750  0.6294
  830MOL0     H 9512  -0.506   1.704   0.799 -0.6884 -0.2981 -0.6589
  830MOL0     H 9513  -0.788   1.914   0.678  1.8694 -1.3896 -1.7918
  830MOL0     H 9514  -1.082   1.809   0.895  0.4583 -1.5995 -0.0427
  830MOL0     H 9515  -1.117   1.796   0.728  0.3110  1.3746 -0.5184
  830MOL0     H 9516  -0.966   2.025   0.720 -1.7154 -1.8744 -3.0020
  830MOL0     H 9517  -0.996   2.031   0.887 -0.2215  1.9849 -0.5791
  830MOL0     H 9518  -1.155   2.157   0.754  3.1228 -0.9281  0.3491
  830MOL0     H 9519  -1.209   2.024   0.655 -2.7806 -2.7883  1.7743
  830MOL0     H 9520  -1.251   2.040   0.953  0.6139 -0.1013 -0.7495
  830MOL0     H 9521  -1.334   1.923   0.859 -1.8652  0.0664  0.9479
  830MOL0     H 9522  -1.481   1.944   1.041 -0.3748  1.2909  2.8615
  830MOL0     H 9523  -1.704   1.886   1.085 -1.4081  2.1380  0.9133
  830MOL0     H 9524  -2.165   1.806   0.801  1.6642  0.7247 -0.3379
  830MOL0     H 9525  -2.391   1.745   0.851  1.6127  0.4746 -2.4952
  830MOL0     H 9526  -2.580   1.671   1.042 -1.3368 -1.5164 -1.3602
  830MOL0     H 9527  -2.604   1.760   0.889 -2.4405  1.3012 -0.3297
  830MOL0     H 9528  -2.808   1.874   0.992 -1.3784 -1.1582 -1.9540
  830MOL0     H 9529  -2.789   1.782   1.142 -2.6862  0.5710 -0.8380
  830MOL0     H 9530  -2.804   1.574   1.021 -1.4506 -0.4912  0.2648
  830MOL0     H 9531  -2.813   1.658   0.861 -1.7780 -0.9016 -0.3565
  830MOL0     H 9532  -3.023   1.762   0.911 -2.3535 -1.0765 -1.2962
  830MOL0     H 9533  -3.039   1.579   0.939 -0.4570  0.6153 -2.1568
  830MOL0     H 9534  -3.025   1.793   1.158 -0.7428  0.7481  2.7833
  830MOL0     H 9535  -3.047   1.621   1.183 -1.8721  3.0326  0.8411
  830MOL0     H 9536  -3.234   1.811   1.027 -0.1227 -1.0309 -0.5428
  830MOL0     H 9537  -3.236   1.780   1.206  1.6592 -0.5841  0.3772
  830MOL0     H 9538  -3.257   1.534   1.139  2.2898  0.5078 -0.5436
  830MOL0     H 9539  -3.399   1.642   1.140 -0.2017  0.3427 -1.0246
  830MOL0     H 9540  -3.260   1.543   0.893 -0.8757 -2.7832  0.4002
  830MOL0     H 9541  -3.354   1.696   0.887  0.5271  1.2946  2.9799
  830MOL0     H 9542  -2.407   2.035   1.165  3.5961  1.7525  0.9250
  830MOL0     H 9543  -2.188   2.108   1.111  2.1933 -0.4040 -1.7633
  830MOL0     H 9544  -1.838   2.125   0.741  3.0413  2.0454 -1.8669
  830MOL0     H 9545  -1.616   2.200   0.704 -0.5191 -0.9899  0.4027
  830MOL0     H 9546  -0.186   2.296  -0.068  0.3091 -1.0403  0.4548
  830MOL0     H 9547  -0.006   2.414   0.053  0.6447 -0.2062  2.0210
  830MOL0     H 9548   0.522   2.384   0.004  1.0408  2.0503 -0.7943
  830MOL0     H 9549   0.706   2.491   0.089  0.0405 -3.3803 -1.0260
  830MOL0     H 9550   0.794   2.666   0.174  0.2285 -0.9182 -1.2621
  830MOL0     H 9551   0.890   2.549   0.241  1.5546  0.2897  1.8453
  830MOL0     H 9552   0.967   2.703   0.425 -0.0513 -0.9275 -0.3251
  830MOL0     H 9553   0.993   2.768   0.258  0.5540 -2.5171 -0.0978
  830MOL0     H 9554   0.784   2.821   0.467 -1.8937 -0.1449 -1.3084
  830MOL0     H 9555   0.756   2.896   0.319 -2.1340  0.3203  3.4978
  830MOL0     H 9556   0.984   3.007   0.340 -1.5355 -3.5831 -2.8956
  830MOL0     H 9557   0.856   3.059   0.454 -0.6209 -0.6471 -0.5806
  830MOL0     H 9558   1.162   2.907   0.713 -3.1943  0.5928  2.7443
  830MOL0     H 9559   0.524   2.511   0.492  1.4205 -3.1700  1.6114
  830MOL0     H 9560   0.340   2.389   0.401  0.2859  1.2102 -0.0840
  831MOL0     O 9561   9.910  10.192   2.508  0.7496  0.0245 -0.3624
  831MOL0     C 9562   9.987  10.161   2.602  0.3520  0.4375  0.3478
  831MOL0     O 9563   9.951  10.150   2.735 -0.1794  0.4682  0.3715
  831MOL0     C 9564   9.833  10.211   2.778 -0.7968 -0.2267 -0.0742
  831MOL0     C 9565   9.779  10.166   2.901  0.6906  0.1197  0.8764
  831MOL0     C 9566   9.664  10.222   2.957  0.5760  0.4658  0.7873
  831MOL0     C 9567   9.608  10.332   2.905  0.0905 -0.0563  0.6681
  831MOL0     O 9568   9.506  10.389   2.979  0.4583 -0.3174 -0.1438
  831MOL0     C 9569   9.435  10.496   2.916  0.2560 -0.1111 -0.5990
  831MOL0     C 9570   9.299  10.494   2.982  0.8277  0.1452  0.3044
  831MOL0     C 9571   9.208  10.611   2.941 -0.2566  1.0959  0.2929
  831MOL0     C 9572   9.083  10.637   3.021 -0.3023  0.3641  0.8015
  831MOL0     C 9573   9.001  10.508   3.011  1.0338 -0.1424  0.9462
  831MOL0     C 9574   8.844  10.532   3.043  0.5207 -0.0040  0.1761
  831MOL0     C 9575   8.762  10.401   3.034 -0.0401  0.5611 -0.0461
  831MOL0     C 9576   8.626  10.423   3.075  0.2957  0.1540 -0.7316
  831MOL0     N 9577   8.569  10.287   3.090  0.1854 -0.3640  1.2057
  831MOL0     C 9578   8.492  10.255   3.197  0.5254  0.0041  0.7252
  831MOL0     C 9579   8.430  10.138   3.169  0.2133 -0.6096  0.5129
  831MOL0     C 9580   8.349  10.055   3.266 -0.3059  0.0984  0.4989
  831MOL0     C 9581   8.208  10.116   3.260 -0.1926 -0.1508  0.3318
  831MOL0     C 9582   8.144  10.084   3.393  0.5667 -0.0077 -0.4414
  831MOL0     C 9583   8.090   9.950   3.407 -0.0999 -0.7832 -0.9460
  831MOL0     O 9584   7.978   9.936   3.311  0.5944 -0.6891  0.1922
  831MOL0     C 9585   7.866   9.897   3.379  0.0183  0.2921  0.5775
  831MOL0     C 9586   7.743   9.951   3.325  0.2844 -0.2051  0.1742
  831MOL0     C 9587   7.620   9.904   3.369  0.8576 -0.6446 -0.0339
  831MOL0     C 9588   7.621   9.785   3.455  0.6243  0.6945  0.0698
  831MOL0     C 9589   7.489   9.744   3.505 -0.7909  0.2361 -0.9405
  831MOL0     O 9590   7.387   9.833   3.516 -0.2167 -0.2688  0.0180
  831MOL0     C 9591   7.261   9.786   3.530 -0.1479  0.1174 -0.7832
  831MOL0     C 9592   7.209   9.710   3.433  1.1955  0.3602  0.2926
  831MOL0     C 9593   7.082   9.647   3.448 -0.6301  0.0064 -0.1689
  831MOL0     C 9594   7.004   9.679   3.557  1.2727 -0.0073  0.4378
  831MOL0     O 9595   6.880   9.626   3.568  0.1013  0.3319 -0.5424
  831MOL0     C 9596   6.877   9.490   3.599 -0.3373 -0.7775  0.1141
  831MOL0     C 9597   6.746   9.415   3.562 -0.4221 -0.2384  0.4427
  831MOL0     C 9598   6.633   9.444   3.661 -0.2174 -0.6048 -1.0065
  831MOL0     C 9599   6.601   9.596   3.658  0.4454  0.0157 -0.3977
  831MOL0     C 9600   6.460   9.622   3.726  0.3256  0.2459  0.6896
  831MOL0     C 9601   6.459   9.775   3.755 -0.6203  0.1910 -0.2963
  831MOL0     C 9602   6.337   9.829   3.833 -0.2089 -0.1037  0.0197
  831MOL0     C 9603   6.204   9.812   3.755 -0.4085  0.3035  0.7177
  831MOL0    Cl 9604   6.148   9.965   3.657  0.1905  0.1120  0.2920
  831MOL0     C 9605   7.056   9.766   3.654 -0.2327 -0.5235 -0.4389
  831MOL0     C 9606   7.185   9.819   3.643 -0.3606  0.1234 -0.6144
  831MOL0     O 9607   7.492   9.626   3.547  0.1606  0.2821  0.0553
  831MOL0     C 9608   7.739   9.725   3.494 -0.2255 -0.1570 -0.0707
  831MOL0     C 9609   7.859   9.785   3.455 -0.0181  0.1142 -0.8606
  831MOL0     N 9610   8.479  10.105   3.049 -0.1839 -0.0834 -0.1564
  831MOL0     N 9611   8.552  10.197   2.996  0.6224  0.5087  0.0722
  831MOL0     C 9612   9.672  10.395   2.790 -0.4610 -0.2936  0.0792
  831MOL0     C 9613   9.782  10.327   2.727  0.7138 -0.1792 -0.2799
  831MOL0     C 9614  10.129  10.156   2.565 -0.0743  0.1567 -0.2800
  831MOL0     C 9615  10.169  10.192   2.435 -0.1429  0.2847  0.2774
  831MOL0     C 9616  10.304  10.179   2.401 -0.3198  0.6285 -0.6017
  831MOL0     C 9617  10.395  10.119   2.486 -0.3780 -0.1273  0.9984
  831MOL0     O 9618  10.522  10.106   2.444  0.3663 -0.2229 -0.1489
  831MOL0     C 9619  10.615  10.196   2.514 -0.6716 -0.8797  0.1512
  831MOL0     C 9620  10.769  10.157   2.485  1.3139  0.9066  1.1496
  831MOL0     C 9621  10.768  10.162   2.334  0.2390 -0.2981 -0.1776
  831MOL0     C 9622  10.913  10.165   2.278 -0.2984 -0.1799 -0.2838
  831MOL0     C 9623  10.959  10.302   2.249  0.0575  0.5000  0.0623
  831MOL0     C 9624  10.990  10.418   2.224  1.1671 -0.5877  0.2760
  831MOL0     C 9625  10.360  10.088   2.614  0.2502 -0.0233  0.3869
  831MOL0     C 9626  10.227  10.107   2.657 -0.2856 -0.1391  0.1029
  831MOL0     H 9627   9.817  10.072   2.940 -0.8440 -1.0493 -0.3164
  831MOL0     H 9628   9.624  10.171   3.044 -2.0567 -0.3882 -0.7764
  831MOL0     H 9629   9.424  10.483   2.808  0.2321  3.8154 -1.2233
  831MOL0     H 9630   9.485  10.591   2.938  1.7583 -1.4933  2.5126
  831MOL0     H 9631   9.301  10.513   3.090 -1.9790  1.1362  0.2601
  831MOL0     H 9632   9.253  10.395   2.968  1.1242 -0.0669  0.8213
  831MOL0     H 9633   9.176  10.587   2.839  1.6551 -1.3734  0.1829
  831MOL0     H 9634   9.276  10.697   2.942 -0.5587  1.3474 -0.0908
  831MOL0     H 9635   9.102  10.659   3.126  1.0981  2.3993  0.1925
  831MOL0     H 9636   9.027  10.725   2.991  0.6065  1.6059  2.5999
  831MOL0     H 9637   9.040  10.419   3.061  2.0318  0.3298  1.0430
  831MOL0     H 9638   8.989  10.480   2.905 -1.5063  2.8044  0.3157
  831MOL0     H 9639   8.805  10.606   2.972  2.5420  0.4764 -0.5064
  831MOL0     H 9640   8.848  10.578   3.142 -0.1885  0.3242  0.0585
  831MOL0     H 9641   8.767  10.362   2.932  0.8324  3.3603 -1.1860
  831MOL0     H 9642   8.810  10.336   3.108 -0.6585  1.0452  0.7905
  831MOL0     H 9643   8.570  10.495   3.014  0.2205  1.7214  1.0794
  831MOL0     H 9644   8.630  10.462   3.177 -0.6863  0.6338 -0.8596
  831MOL0     H 9645   8.487  10.313   3.289  1.7133  2.3247 -0.5979
  831MOL0     H 9646   8.380  10.050   3.371 -1.8381  1.9162  1.1079
  831MOL0     H 9647   8.334   9.950   3.238 -0.8613  0.8074 -2.1454
  831MOL0     H 9648   8.149  10.091   3.172 -0.9054  4.6106 -0.7951
  831MOL0     H 9649   8.220  10.224   3.257  0.7020 -0.2403 -2.9174
  831MOL0     H 9650   8.204  10.094   3.484 -1.7620  0.0197  1.1900
  831MOL0     H 9651   8.068  10.162   3.399 -1.1726 -1.7344  1.4470
  831MOL0     H 9652   8.049   9.931   3.507  0.0759 -1.1334 -0.9383
  831MOL0     H 9653   8.163   9.871   3.387  2.0426  1.2974 -1.7911
  831MOL0     H 9654   7.751  10.033   3.254  3.4833  0.0083  0.6433
  831MOL0     H 9655   7.527   9.935   3.323  0.5078 -0.8504  0.5410
  831MOL0     H 9656   7.259   9.693   3.338  1.0057  1.7692 -0.0870
  831MOL0     H 9657   7.049   9.573   3.375 -1.2271 -1.1908  1.2604
  831MOL0     H 9658   6.911   9.480   3.702  2.1309 -1.8332 -0.7224
  831MOL0     H 9659   6.946   9.452   3.523 -1.6394  1.8510 -2.5908
  831MOL0     H 9660   6.758   9.307   3.546 -0.7032  0.0178 -1.8186
  831MOL0     H 9661   6.724   9.438   3.457  1.4690 -3.5467 -0.8381
  831MOL0     H 9662   6.644   9.413   3.766 -1.2196 -1.3725 -1.1162
  831MOL0     H 9663   6.547   9.388   3.625  0.3185 -3.5611  1.7938
  831MOL0     H 9664   6.683   9.640   3.716 -0.1698 -2.7620  2.9432
  831MOL0     H 9665   6.603   9.635   3.556 -2.7504  0.2428 -0.4774
  831MOL0     H 9666   6.448   9.573   3.823 -0.3743  1.5483  1.2789
  831MOL0     H 9667   6.384   9.587   3.656  2.1742 -0.3091 -1.1557
  831MOL0     H 9668   6.461   9.827   3.659 -3.0837 -1.4991 -1.3645
  831MOL0     H 9669   6.547   9.802   3.815 -0.4594  0.5273 -0.6810
  831MOL0     H 9670   6.329   9.785   3.933 -0.9342  2.8161  1.3571
  831MOL0     H 9671   6.350   9.936   3.852  0.7014 -0.7354  3.6877
  831MOL0     H 9672   6.123   9.794   3.827 -2.3289  1.2566 -1.0687
  831MOL0     H 9673   6.206   9.723   3.691  0.1357  2.0468 -1.8480
  831MOL0     H 9674   6.999   9.797   3.742  0.7786  0.1245 -0.0009
  831MOL0     H 9675   7.213   9.877   3.730 -1.2898 -1.3929  0.7592
  831MOL0     H 9676   7.737   9.634   3.554  0.4223  0.5080  0.9910
  831MOL0     H 9677   7.949   9.732   3.485  0.5316  2.0371  1.1529
  831MOL0     H 9678   9.645  10.491   2.749  0.4193 -0.7491 -1.6449
  831MOL0     H 9679   9.822  10.371   2.636  4.0464 -0.2478  1.0274
  831MOL0     H 9680  10.088  10.216   2.367 -0.9845 -2.4923  0.1842
  831MOL0     H 9681  10.346  10.203   2.303  0.7785 -2.7545 -1.0996
  831MOL0     H 9682  10.603  10.183   2.622  2.3120 -1.9483  0.4650
  831MOL0     H 9683  10.596  10.302   2.496  2.5757 -0.5222 -2.2181
  831MOL0     H 9684  10.842  10.230   2.521  2.7500  0.6605 -1.1060
  831MOL0     H 9685  10.780  10.056   2.526  3.2332  1.5267  2.2989
  831MOL0     H 9686  10.710  10.248   2.300 -0.1488 -0.0579  1.0477
  831MOL0     H 9687  10.717  10.079   2.283  0.5040 -1.1522  0.9039
  831MOL0     H 9688  10.976  10.128   2.359 -0.1819 -2.9867 -1.5303
  831MOL0     H 9689  10.920  10.103   2.188  0.1515 -1.9868  0.9401
  831MOL0     H 9690  11.004  10.518   2.187 -2.7202 -0.3021 -0.8740
  831MOL0     H 9691  10.431  10.044   2.682 -1.0419 -1.4238  0.8855
  831MOL0     H 9692  10.203  10.067   2.755 -1.8497  0.9040  0.1793
  832MOL0     O 9693   4.116   8.101   0.845 -0.0975 -0.1245 -0.2077
  832MOL0     C 9694   4.103   8.077   0.963  0.1643 -0.0225 -0.2327
  832MOL0     O 9695   4.013   8.127   1.040  0.7560 -0.4241  0.2209
  832MOL0     C 9696   3.925   8.209   0.987  0.1001  0.7178  0.4592
  832MOL0     C 9697   3.835   8.168   0.885 -0.6538  0.3309  0.0728
  832MOL0     C 9698   3.749   8.256   0.821  1.3307 -0.0307 -0.5065
  832MOL0     C 9699   3.743   8.387   0.870 -0.4471  0.2717  0.7674
  832MOL0     O 9700   3.667   8.477   0.795  0.0469  0.3516 -0.4066
  832MOL0     C 9701   3.578   8.549   0.887 -0.2233 -0.3740  0.5345
  832MOL0     C 9702   3.494   8.648   0.809 -0.0154 -0.0027 -0.3908
  832MOL0     C 9703   3.420   8.586   0.691 -0.2316  0.4696 -0.9288
  832MOL0     C 9704   3.324   8.672   0.618 -0.1146 -0.1234 -0.0572
  832MOL0     C 9705   3.390   8.781   0.536  0.1049 -0.9392  0.9921
  832MOL0     C 9706   3.283   8.872   0.470  0.1260  0.8735  0.7866
  832MOL0     C 9707   3.328   9.010   0.433  0.2095 -0.6240  0.1159
  832MOL0     C 9708   3.210   9.085   0.373 -0.0514  0.4545  0.8708
  832MOL0     N 9709   3.243   9.224   0.342 -0.2375 -0.7017  0.1198
  832MOL0     C 9710   3.306   9.308   0.427 -0.8892 -0.9100  0.2350
  832MOL0     C 9711   3.320   9.424   0.355  0.3784  0.5603  0.4705
  832MOL0     C 9712   3.386   9.551   0.394  0.6974  0.0957  0.3082
  832MOL0     C 9713   3.301   9.645   0.478  0.0896  0.0873 -0.1469
  832MOL0     C 9714   3.181   9.699   0.406  0.3680 -0.0870  0.3261
  832MOL0     C 9715   3.103   9.788   0.497  0.2621 -0.8904  0.1555
  832MOL0     O 9716   3.089   9.922   0.442  0.0851  0.5661 -0.0855
  832MOL0     C 9717   3.000   9.946   0.334 -0.3412  0.7102 -1.2166
  832MOL0     C 9718   2.937   9.846   0.261 -1.1032 -0.0138  0.3335
  832MOL0     C 9719   2.840   9.891   0.166 -1.1743 -0.2394 -0.6477
  832MOL0     C 9720   2.799  10.024   0.138 -0.8293  0.1687  0.0941
  832MOL0     C 9721   2.691  10.056   0.046  0.3043 -0.0810 -0.3431
  832MOL0     O 9722   2.641   9.955  -0.034 -0.2646  0.3777  0.0128
  832MOL0     C 9723   2.518   9.946  -0.081  0.1589 -0.2931  0.5265
  832MOL0     C 9724   2.412  10.047  -0.071  0.9957 -0.2921 -0.0200
  832MOL0     C 9725   2.287  10.016  -0.117  0.0748  0.5275 -1.0073
  832MOL0     C 9726   2.253   9.892  -0.174 -0.4345  0.7860  0.4665
  832MOL0     O 9727   2.127   9.886  -0.230 -0.2218  0.1417  0.4380
  832MOL0     C 9728   2.108   9.778  -0.322 -0.1539  0.3774 -0.9887
  832MOL0     C 9729   1.986   9.794  -0.407  0.7037  0.4338  0.5278
  832MOL0     C 9730   1.916   9.661  -0.441  0.2204  0.3525  0.5740
  832MOL0     C 9731   1.763   9.681  -0.448  0.0870 -0.5861  0.8401
  832MOL0     C 9732   1.700   9.585  -0.550 -0.2830 -0.0704  0.2918
  832MOL0     C 9733   1.737   9.435  -0.537 -0.8101  0.0705  0.3807
  832MOL0     C 9734   1.695   9.380  -0.406  0.2740 -0.3410 -0.8162
  832MOL0     C 9735   1.635   9.236  -0.418  0.4080  0.9065  0.4708
  832MOL0    Cl 9736   1.556   9.211  -0.260  0.1766 -0.0548 -0.1114
  832MOL0     C 9737   2.353   9.796  -0.181 -0.0777  0.4218  0.4767
  832MOL0     C 9738   2.489   9.823  -0.141  0.2013  0.5572  0.3670
  832MOL0     O 9739   2.641  10.166   0.063 -0.2895 -0.8710  0.0560
  832MOL0     C 9740   2.872  10.117   0.215  0.4925  0.5928  0.1244
  832MOL0     C 9741   2.972  10.079   0.306 -0.3986 -1.2069  0.1445
  832MOL0     N 9742   3.272   9.402   0.230  0.4141  0.4059 -0.1617
  832MOL0     N 9743   3.231   9.276   0.220 -0.2673 -0.9685 -0.0666
  832MOL0     C 9744   3.830   8.434   0.969  0.2229 -0.1142  0.0830
  832MOL0     C 9745   3.916   8.338   1.022 -0.3191 -0.0935 -0.3708
  832MOL0     C 9746   4.199   7.989   1.029  0.4983  0.1046 -0.0866
  832MOL0     C 9747   4.335   7.990   0.994 -0.3660 -0.6253 -1.5795
  832MOL0     C 9748   4.427   7.935   1.084 -0.4465 -0.4735  0.2218
  832MOL0     C 9749   4.390   7.859   1.191  0.1737  0.3470 -0.2609
  832MOL0     O 9750   4.471   7.780   1.272  0.5521  0.2688 -0.2115
  832MOL0     C 9751   4.610   7.796   1.280 -0.2951 -0.2469  0.1562
  832MOL0     C 9752   4.627   7.912   1.377  0.2690  0.2263  0.3583
  832MOL0     C 9753   4.562   7.884   1.513 -0.0305 -0.3243  0.4242
  832MOL0     C 9754   4.656   7.913   1.624 -0.1818 -0.6263 -0.4172
  832MOL0     C 9755   4.595   7.897   1.754 -0.4777  1.1895 -0.8380
  832MOL0     C 9756   4.538   7.880   1.863  0.6047 -0.1287  1.0002
  832MOL0     C 9757   4.256   7.850   1.215  0.2569  0.2296 -0.0555
  832MOL0     C 9758   4.155   7.910   1.140  0.2668 -0.3084  0.2678
  832MOL0     H 9759   3.843   8.067   0.844 -0.0149  0.0093  0.9698
  832MOL0     H 9760   3.690   8.240   0.732 -0.1011 -0.8235  0.5434
  832MOL0     H 9761   3.637   8.611   0.955 -0.3480 -0.7557  0.9996
  832MOL0     H 9762   3.520   8.476   0.944 -2.1659 -1.2641 -2.3938
  832MOL0     H 9763   3.552   8.730   0.766  3.6015 -2.7999 -1.3723
  832MOL0     H 9764   3.429   8.697   0.882  0.1344  1.0307 -0.9354
  832MOL0     H 9765   3.365   8.505   0.740  0.1618 -1.1033 -3.0024
  832MOL0     H 9766   3.488   8.541   0.618 -0.0927 -1.8680  0.5259
  832MOL0     H 9767   3.267   8.609   0.550 -0.1620 -2.2136  1.8207
  832MOL0     H 9768   3.252   8.719   0.686 -3.6528 -0.8169 -2.9921
  832MOL0     H 9769   3.457   8.754   0.455 -2.8154  1.2625 -2.4471
  832MOL0     H 9770   3.450   8.852   0.594 -2.6829  0.5672  2.2622
  832MOL0     H 9771   3.205   8.875   0.547 -1.2660  0.6267 -0.5488
  832MOL0     H 9772   3.246   8.836   0.373  3.2510  2.5418 -1.2056
  832MOL0     H 9773   3.362   9.061   0.524 -3.2704  3.2705 -0.4495
  832MOL0     H 9774   3.402   8.998   0.353  0.9864 -0.2350  0.7650
  832MOL0     H 9775   3.121   9.076   0.436 -0.0984 -0.7196  0.6580
  832MOL0     H 9776   3.182   9.026   0.286  0.4907 -2.3702  2.4899
  832MOL0     H 9777   3.324   9.290   0.532 -3.3731 -3.1818  0.3625
  832MOL0     H 9778   3.415   9.614   0.309  0.2818 -2.8681 -2.1870
  832MOL0     H 9779   3.488   9.543   0.434  1.7285  2.8105 -1.4298
  832MOL0     H 9780   3.366   9.723   0.520 -2.2171  1.7350  0.5555
  832MOL0     H 9781   3.261   9.588   0.562  0.1597 -0.2486 -0.3410
  832MOL0     H 9782   3.197   9.735   0.304 -0.5803 -3.3235 -1.1152
  832MOL0     H 9783   3.117   9.610   0.399  0.9199 -0.5863  1.3756
  832MOL0     H 9784   3.152   9.795   0.594  2.0776 -0.1377 -0.7763
  832MOL0     H 9785   2.998   9.759   0.510 -0.8271  1.8170 -1.7058
  832MOL0     H 9786   2.965   9.745   0.290  5.1217  1.5807  1.3986
  832MOL0     H 9787   2.788   9.812   0.111 -1.0638 -0.6069 -0.2224
  832MOL0     H 9788   2.421  10.151  -0.041 -2.9156 -0.0611  0.9184
  832MOL0     H 9789   2.214  10.096  -0.122  1.1828  1.5328 -1.6337
  832MOL0     H 9790   2.101   9.691  -0.256 -2.3627  3.4156  3.1895
  832MOL0     H 9791   2.195   9.756  -0.385 -0.0105  1.1658 -1.0793
  832MOL0     H 9792   2.024   9.841  -0.498 -0.5119  1.3490  0.4712
  832MOL0     H 9793   1.912   9.849  -0.347  0.4011 -1.0036  1.5498
  832MOL0     H 9794   1.939   9.588  -0.364 -0.4429 -2.7276 -1.9472
  832MOL0     H 9795   1.957   9.638  -0.539 -0.1537 -0.0134  0.5013
  832MOL0     H 9796   1.710   9.686  -0.352 -1.1907  4.1303  0.1852
  832MOL0     H 9797   1.746   9.782  -0.489 -2.5476 -1.4867 -0.5401
  832MOL0     H 9798   1.731   9.620  -0.649  1.3371  2.3531  1.5563
  832MOL0     H 9799   1.591   9.593  -0.551 -0.2954 -0.1932 -0.7851
  832MOL0     H 9800   1.834   9.406  -0.578 -1.3944 -1.9458  0.3181
  832MOL0     H 9801   1.682   9.385  -0.616  2.5281 -1.4027 -1.2102
  832MOL0     H 9802   1.782   9.376  -0.339 -1.9263 -0.5000  2.2728
  832MOL0     H 9803   1.620   9.444  -0.358 -1.4004 -1.9313 -1.2118
  832MOL0     H 9804   1.710   9.158  -0.434 -1.5828 -1.1283  0.5378
  832MOL0     H 9805   1.569   9.218  -0.503 -0.3406 -3.2200  1.7202
  832MOL0     H 9806   2.343   9.695  -0.222 -1.3411  1.2687 -1.4464
  832MOL0     H 9807   2.573   9.755  -0.141 -0.1308  0.1455  0.7310
  832MOL0     H 9808   2.849  10.223   0.222  1.3614  0.7282  1.0713
  832MOL0     H 9809   3.032  10.153   0.357  1.0504  1.0194 -4.2741
  832MOL0     H 9810   3.843   8.539   0.991  0.3810 -0.5748  2.3548
  832MOL0     H 9811   3.997   8.368   1.087  0.3168 -0.2389 -1.0742
  832MOL0     H 9812   4.369   8.035   0.901 -0.7697  1.2015 -0.8847
  832MOL0     H 9813   4.531   7.954   1.059 -1.5661  2.8091 -2.5822
  832MOL0     H 9814   4.642   7.819   1.178 -0.5404 -2.4885 -0.4783
  832MOL0     H 9815   4.658   7.705   1.316 -0.5807 -1.6205 -2.6323
  832MOL0     H 9816   4.736   7.926   1.381  0.0012  2.9094  0.1170
  832MOL0     H 9817   4.581   8.004   1.341  0.4794  0.9753  1.9072
  832MOL0     H 9818   4.519   7.783   1.519 -1.0031  0.0399 -0.1817
  832MOL0     H 9819   4.480   7.954   1.530  0.1703 -0.3665  1.6772
  832MOL0     H 9820   4.742   7.846   1.615  1.4580  1.0974  1.3553
  832MOL0     H 9821   4.696   8.015   1.630 -0.7150 -0.5017  2.6011
  832MOL0     H 9822   4.479   7.883   1.952  0.5948  0.0282  0.9887
  832MOL0     H 9823   4.226   7.796   1.304  1.2625  3.1293  2.2137
  832MOL0     H 9824   4.052   7.882   1.161 -0.1509 -0.4332 -1.6770
  833MOL0     O 9825   0.716   3.959   1.569 -0.1904 -0.4258  0.4398
  833MOL0     C 9826   0.655   4.002   1.470  0.2565 -1.0704 -0.0322
  833MOL0     O 9827   0.692   4.126   1.412 -0.6287 -0.1027 -0.6764
  833MOL0     C 9828   0.813   4.193   1.456  0.0908  0.6875  0.3945
  833MOL0     C 9829   0.935   4.146   1.415  0.3093  0.2132 -0.3719
  833MOL0     C 9830   1.050   4.183   1.478  0.4028 -0.0636  0.4330
  833MOL0     C 9831   1.050   4.293   1.569  0.1353 -0.3346 -1.2796
  833MOL0     O 9832   1.155   4.349   1.629 -1.2958 -0.4372  0.2565
  833MOL0     C 9833   1.278   4.268   1.639 -0.6412  0.7682 -0.0788
  833MOL0     C 9834   1.378   4.344   1.730  0.9447 -0.1498 -0.7513
  833MOL0     C 9835   1.311   4.356   1.872 -0.1788  0.5894  0.3060
  833MOL0     C 9836   1.402   4.364   1.991 -0.1037 -1.0911  0.2138
  833MOL0     C 9837   1.461   4.509   2.005 -0.6880 -0.5590  0.2792
  833MOL0     C 9838   1.554   4.547   2.125 -0.4073  0.0244 -0.4977
  833MOL0     C 9839   1.672   4.451   2.125 -0.7093 -0.0943  0.3635
  833MOL0     C 9840   1.781   4.504   2.216  0.2760  0.3153  0.4638
  833MOL0     N 9841   1.759   4.473   2.362  0.5131  0.5244  1.1006
  833MOL0     C 9842   1.646   4.416   2.427  0.1919 -0.9986  0.2642
  833MOL0     C 9843   1.676   4.423   2.557 -0.0358 -0.0561  0.1984
  833MOL0     C 9844   1.588   4.373   2.675 -0.3603  0.6959  0.7788
  833MOL0     C 9845   1.661   4.275   2.761 -0.4756  0.7255 -0.1535
  833MOL0     C 9846   1.663   4.139   2.700 -0.2620 -1.0172  0.5135
  833MOL0     C 9847   1.750   4.030   2.768 -0.2388  0.8172  0.1251
  833MOL0     O 9848   1.723   3.897   2.711  0.3999  0.1487  0.0066
  833MOL0     C 9849   1.844   3.830   2.677  0.6129  0.1159  0.1442
  833MOL0     C 9850   1.959   3.809   2.759  0.2026 -0.1852  0.3461
  833MOL0     C 9851   2.073   3.742   2.702 -0.3707  0.2283  0.7754
  833MOL0     C 9852   2.073   3.690   2.573  0.4332 -0.3596 -0.0312
  833MOL0     C 9853   2.186   3.605   2.528  0.2674 -0.5411  0.0213
  833MOL0     O 9854   2.293   3.599   2.608  0.2338 -0.1799 -0.1595
  833MOL0     C 9855   2.409   3.543   2.562  0.2414 -1.1641 -0.1305
  833MOL0     C 9856   2.512   3.628   2.551 -1.3697 -0.3739 -0.2921
  833MOL0     C 9857   2.637   3.561   2.500 -0.5368 -0.8979 -0.5899
  833MOL0     C 9858   2.649   3.421   2.466 -0.1515  0.4712 -0.1823
  833MOL0     O 9859   2.752   3.360   2.402 -0.0631 -0.3463  0.2399
  833MOL0     C 9860   2.842   3.430   2.318 -0.3476 -0.3846  0.3937
  833MOL0     C 9861   2.761   3.496   2.203  1.2564  0.5366 -0.7871
  833MOL0     C 9862   2.850   3.525   2.084 -0.1616  1.0846 -0.1971
  833MOL0     C 9863   2.772   3.564   1.962  0.4021  0.2786  0.1011
  833MOL0     C 9864   2.866   3.591   1.853  0.1997  0.4127  0.9537
  833MOL0     C 9865   2.814   3.692   1.754 -0.1145 -0.4683  0.3769
  833MOL0     C 9866   2.930   3.757   1.665  0.0385  0.3949 -0.6366
  833MOL0     C 9867   2.892   3.859   1.554 -0.3706  0.6346 -0.0824
  833MOL0    Cl 9868   2.750   3.797   1.445 -0.1943  0.0895  0.3367
  833MOL0     C 9869   2.535   3.346   2.484  0.9727 -0.9794 -0.2992
  833MOL0     C 9870   2.408   3.408   2.531 -0.3895  0.0471 -0.2249
  833MOL0     O 9871   2.166   3.537   2.429 -0.5188 -0.5562  0.2062
  833MOL0     C 9872   1.963   3.712   2.490  0.2633 -0.2375 -0.2729
  833MOL0     C 9873   1.849   3.773   2.544 -0.3077  0.0450 -0.0464
  833MOL0     N 9874   1.807   4.476   2.573 -0.8477  0.6220  0.7065
  833MOL0     N 9875   1.855   4.494   2.458 -1.1046  0.1259 -0.3932
  833MOL0     C 9876   0.925   4.358   1.597  0.7288  0.0870  0.1753
  833MOL0     C 9877   0.802   4.303   1.550 -0.0555  0.3590  0.1713
  833MOL0     C 9878   0.517   3.939   1.430 -0.0358  0.9715  0.6820
  833MOL0     C 9879   0.441   3.977   1.317  0.2801 -0.3849  0.3500
  833MOL0     C 9880   0.321   3.915   1.287  0.3517  0.6828 -0.5718
  833MOL0     C 9881   0.268   3.829   1.376  0.2519 -0.2476  0.0623
  833MOL0     O 9882   0.146   3.768   1.349 -0.3864 -0.1855  0.7002
  833MOL0     C 9883   0.081   3.667   1.438  0.5599 -0.3033  0.7852
  833MOL0     C 9884  -0.062   3.651   1.388 -0.1858  0.5231  0.5447
  833MOL0     C 9885  -0.074   3.585   1.243  0.4816 -0.5044 -0.1983
  833MOL0     C 9886  -0.220   3.584   1.195  0.7267 -0.0620 -0.1904
  833MOL0     C 9887  -0.242   3.518   1.068 -0.4746 -0.4385 -0.1263
  833MOL0     C 9888  -0.283   3.469   0.970  0.0811 -0.4521 -0.0823
  833MOL0     C 9889   0.338   3.792   1.493  1.1123 -0.1393 -0.2650
  833MOL0     C 9890   0.466   3.841   1.511 -0.9698 -0.0018  0.5401
  833MOL0     H 9891   0.932   4.068   1.340 -0.3966  1.4592 -1.6851
  833MOL0     H 9892   1.146   4.142   1.446 -0.0319 -1.7898  1.2215
  833MOL0     H 9893   1.323   4.255   1.540 -0.5383 -0.0367  0.0632
  833MOL0     H 9894   1.260   4.169   1.683  1.9029  0.2308 -0.0889
  833MOL0     H 9895   1.435   4.428   1.689  1.0278 -0.4774 -1.3240
  833MOL0     H 9896   1.460   4.276   1.754  1.8921  1.9003  2.4846
  833MOL0     H 9897   1.247   4.268   1.885 -0.1395  0.3817 -0.8554
  833MOL0     H 9898   1.244   4.442   1.863  0.2026  0.6923 -1.9788
  833MOL0     H 9899   1.343   4.335   2.078  4.0275 -2.6065  2.7982
  833MOL0     H 9900   1.481   4.289   1.984 -1.5063 -2.4540 -2.4243
  833MOL0     H 9901   1.383   4.585   2.019 -0.7409 -0.3918 -0.8241
  833MOL0     H 9902   1.511   4.535   1.911 -1.7670 -1.3435 -0.5392
  833MOL0     H 9903   1.494   4.524   2.213  0.6547 -2.8801 -0.4528
  833MOL0     H 9904   1.591   4.650   2.122  2.4148 -0.8339  1.0592
  833MOL0     H 9905   1.634   4.354   2.160 -0.5347 -1.0934 -2.0104
  833MOL0     H 9906   1.715   4.444   2.025  1.2978 -0.4334  1.2003
  833MOL0     H 9907   1.794   4.611   2.195 -1.1597  0.5190  0.4767
  833MOL0     H 9908   1.876   4.458   2.189  1.1657  2.1080  0.3877
  833MOL0     H 9909   1.548   4.391   2.388  0.4008  0.8710 -1.6428
  833MOL0     H 9910   1.492   4.329   2.645  1.6428 -2.0512 -2.3994
  833MOL0     H 9911   1.575   4.466   2.732  0.5921 -0.1542  2.4565
  833MOL0     H 9912   1.584   4.266   2.838 -0.8780 -0.6897 -0.6821
  833MOL0     H 9913   1.759   4.314   2.787  0.5139  0.2691 -2.8186
  833MOL0     H 9914   1.561   4.102   2.707 -0.1402 -1.0490  2.5134
  833MOL0     H 9915   1.692   4.136   2.594 -0.9487 -0.2747  0.2972
  833MOL0     H 9916   1.734   4.034   2.877  2.8000  1.0600  0.6635
  833MOL0     H 9917   1.856   4.056   2.758  0.5106 -2.5405 -2.1649
  833MOL0     H 9918   1.968   3.832   2.864 -1.5287 -2.4822  1.0739
  833MOL0     H 9919   2.149   3.719   2.776 -0.6719  0.8391  1.2803
  833MOL0     H 9920   2.511   3.733   2.577 -1.3968 -0.5351  0.3597
  833MOL0     H 9921   2.723   3.627   2.494 -2.5338  2.2844  1.9618
  833MOL0     H 9922   2.923   3.361   2.293  0.7229  0.4807  1.3921
  833MOL0     H 9923   2.885   3.518   2.366  1.3026 -1.7697  1.5720
  833MOL0     H 9924   2.722   3.591   2.242  1.0896 -0.9038  2.9602
  833MOL0     H 9925   2.678   3.438   2.161 -0.4831  2.5688 -0.3243
  833MOL0     H 9926   2.912   3.437   2.061 -3.1085 -1.7177  1.6294
  833MOL0     H 9927   2.915   3.606   2.117 -0.8244  0.8582  1.8536
  833MOL0     H 9928   2.713   3.476   1.933  2.3212 -0.8994 -0.3934
  833MOL0     H 9929   2.703   3.650   1.962  1.2773  1.0532 -2.1546
  833MOL0     H 9930   2.881   3.499   1.796  1.6582  0.7884  0.6895
  833MOL0     H 9931   2.966   3.614   1.891  0.0665 -3.3966  4.3435
  833MOL0     H 9932   2.762   3.772   1.807  0.3487  1.4027 -1.8208
  833MOL0     H 9933   2.749   3.639   1.683  1.0581 -0.5283 -0.6869
  833MOL0     H 9934   3.009   3.801   1.726  0.9003 -2.4048  0.4541
  833MOL0     H 9935   2.979   3.672   1.617 -0.3724 -1.1059  1.4688
  833MOL0     H 9936   2.981   3.888   1.498 -0.6498 -1.0449 -1.5081
  833MOL0     H 9937   2.861   3.951   1.603  1.6977  2.2393 -1.5817
  833MOL0     H 9938   2.526   3.241   2.459 -1.6252 -1.4906  2.1334
  833MOL0     H 9939   2.327   3.338   2.551 -1.9317  1.8033 -0.0946
  833MOL0     H 9940   1.959   3.673   2.389  1.5586 -1.4009  0.0942
  833MOL0     H 9941   1.766   3.791   2.478 -0.6144  0.2299  0.3848
  833MOL0     H 9942   0.929   4.441   1.666  2.1381 -0.2130  0.4890
  833MOL0     H 9943   0.713   4.354   1.585 -1.3458 -0.5727 -1.6491
  833MOL0     H 9944   0.492   4.051   1.255  1.7183  0.3522  2.3150
  833MOL0     H 9945   0.258   3.932   1.200  0.9509 -0.7904 -1.3287
  833MOL0     H 9946   0.068   3.705   1.540 -0.4622 -0.2624  0.6538
  833MOL0     H 9947   0.140   3.575   1.446  2.7241  1.0851  1.8116
  833MOL0     H 9948  -0.097   3.570   1.453 -0.8132 -1.8494 -2.4897
  833MOL0     H 9949  -0.127   3.740   1.388  1.2996  1.6466  1.0409
  833MOL0     H 9950  -0.026   3.488   1.256  0.7294 -0.1471  2.0323
  833MOL0     H 9951  -0.012   3.649   1.179 -3.5447  2.3004 -1.6625
  833MOL0     H 9952  -0.287   3.545   1.272 -0.3740  0.8971 -0.6289
  833MOL0     H 9953  -0.254   3.688   1.188  0.5410 -0.0399  0.8130
  833MOL0     H 9954  -0.326   3.432   0.879  0.0971 -1.7075  0.4118
  833MOL0     H 9955   0.276   3.746   1.570  0.7890  5.1471  3.1535
  833MOL0     H 9956   0.520   3.816   1.603 -0.6674  1.3932  0.7604
  834MOL0     O 9957   6.124   9.720   8.052 -0.2273 -0.1754  0.0969
  834MOL0     C 9958   6.097   9.735   8.169  0.0677 -0.5819 -0.0787
  834MOL0     O 9959   6.170   9.701   8.276 -0.3401 -0.6440 -0.3018
  834MOL0     C 9960   6.269   9.610   8.256 -0.2274  0.1480 -0.7171
  834MOL0     C 9961   6.239   9.499   8.176 -0.5089  0.2526  0.6169
  834MOL0     C 9962   6.345   9.424   8.116  0.0939 -0.9337 -0.3288
  834MOL0     C 9963   6.471   9.473   8.137  0.5685 -0.3294 -0.5945
  834MOL0     O 9964   6.571   9.393   8.093  0.2479  0.4525 -0.0562
  834MOL0     C 9965   6.684   9.446   8.025  0.8729 -0.1563  0.4173
  834MOL0     C 9966   6.806   9.369   8.089 -0.1476  0.4565 -0.8409
  834MOL0     C 9967   6.826   9.416   8.238 -0.6364  1.4521  0.4466
  834MOL0     C 9968   6.958   9.357   8.318  0.4883 -0.1714  1.2008
  834MOL0     C 9969   6.972   9.428   8.457 -0.0975 -0.6909 -0.3470
  834MOL0     C 9970   7.110   9.396   8.523  0.4370  0.3356  0.0700
  834MOL0     C 9971   7.136   9.246   8.551  1.1418 -0.4120  0.4307
  834MOL0     C 9972   7.026   9.203   8.648  0.1568 -0.8599  0.4929
  834MOL0     N 9973   7.067   9.061   8.673 -0.1166 -0.7183  0.5205
  834MOL0     C 9974   7.013   8.952   8.608 -0.0407 -0.8783  0.5122
  834MOL0     C 9975   7.111   8.851   8.610  0.3000 -0.4588 -0.1653
  834MOL0     C 9976   7.086   8.711   8.568 -0.5787 -0.2398 -0.3374
  834MOL0     C 9977   7.029   8.719   8.429  0.2428  0.6404 -0.4561
  834MOL0     C 9978   7.122   8.777   8.327  0.7586 -0.0460 -0.3640
  834MOL0     C 9979   7.077   8.750   8.184 -0.8093 -0.4921  0.6305
  834MOL0     O 9980   7.176   8.800   8.084 -0.2230 -0.3250 -0.0564
  834MOL0     C 9981   7.134   8.893   7.993  1.0663 -0.7018  0.1746
  834MOL0     C 9982   7.093   8.844   7.868 -0.9130 -0.2735 -0.1114
  834MOL0     C 9983   7.038   8.939   7.781  0.4240 -0.3726 -0.5896
  834MOL0     C 9984   7.026   9.078   7.816  0.7699  0.1120  0.0101
  834MOL0     C 9985   6.960   9.167   7.723 -0.3323  0.5807 -0.0616
  834MOL0     O 9986   6.966   9.137   7.589 -0.7769 -0.3426 -0.6523
  834MOL0     C 9987   6.911   9.211   7.490 -0.8119  0.3404 -0.1466
  834MOL0     C 9988   6.919   9.148   7.362 -0.7038 -0.5342  0.5819
  834MOL0     C 9989   6.894   9.225   7.245  0.2806 -0.5600 -0.3106
  834MOL0     C 9990   6.853   9.358   7.258  0.9113  0.1293 -0.2578
  834MOL0     O 9991   6.815   9.435   7.148 -0.1661  0.0906  0.2637
  834MOL0     C 9992   6.891   9.423   7.030 -0.0572  0.6468  0.4842
  834MOL0     C 9993   6.895   9.564   6.956 -0.5136 -0.1286  0.0644
  834MOL0     C 9994   6.986   9.679   7.019  1.0793  0.1629  0.4945
  834MOL0     C 9995   6.946   9.751   7.140 -0.0062 -0.4445 -0.0660
  834MOL0     C 9996   6.849   9.874   7.112  0.3589 -0.1636  0.2700
  834MOL0     C 9997   6.728   9.889   7.202  1.4868  0.8481  0.0790
  834MOL0     C 9998   6.627   9.766   7.191 -0.8715 -0.4254 -0.3130
  834MOL0     C 9999   6.535   9.775   7.309  0.1415  0.4291 -0.7277
  834MOL0    Cl10000   6.619   9.751   7.470 -0.3072 -0.4669 -0.2137
  834MOL0     C10001   6.833   9.405   7.385  0.2945 -0.7678 -0.4115
  834MOL0     C10002   6.872   9.342   7.501  1.6544 -0.6903  0.9196
  834MOL0     O10003   6.898   9.262   7.769 -0.1445 -0.3186 -0.5109
  834MOL0     C10004   7.065   9.120   7.948 -0.6344 -0.4257  0.3356
  834MOL0     C10005   7.118   9.028   8.033  0.0668  0.4580  0.3115
  834MOL0     N10006   7.221   8.892   8.676  0.1238  0.0979  0.4891
  834MOL0     N10007   7.189   9.011   8.717 -0.3010 -0.4268 -0.2067
  834MOL0     C10008   6.498   9.578   8.225 -0.3712 -0.1163  0.1776
  834MOL0     C10009   6.401   9.649   8.282  0.4643  0.0079  0.3686
  834MOL0     C10010   5.973   9.817   8.202 -0.2490 -0.5854  0.7399
  834MOL0     C10011   5.946   9.862   8.335  0.0644 -0.2351  0.8322
  834MOL0     C10012   5.823   9.922   8.374  0.0940  0.7028 -0.0205
  834MOL0     C10013   5.725   9.948   8.279 -0.9531 -0.2253 -1.4612
  834MOL0     O10014   5.617  10.033   8.288 -0.5240 -0.5746 -0.4715
  834MOL0     C10015   5.549  10.050   8.418 -0.3081 -0.3119 -0.1275
  834MOL0     C10016   5.407  10.087   8.382  0.2655  0.0953 -0.7258
  834MOL0     C10017   5.332  10.146   8.501  0.6593  0.2841 -0.0315
  834MOL0     C10018   5.197  10.202   8.458  0.2767  0.9937 -0.3995
  834MOL0     C10019   5.145  10.282   8.566 -0.8384 -0.1481 -1.0535
  834MOL0     C10020   5.088  10.334   8.659  0.3465  0.2733  0.2515
  834MOL0     C10021   5.750   9.907   8.150  0.7883  0.4056  0.2569
  834MOL0     C10022   5.868   9.844   8.106  1.4300 -0.8217  1.2548
  834MOL0     H10023   6.134   9.486   8.152 -0.5085 -0.7076  1.0854
  834MOL0     H10024   6.332   9.343   8.044  3.7446 -0.8940 -1.2445
  834MOL0     H10025   6.708   9.552   8.035  2.4213 -0.3301 -1.1041
  834MOL0     H10026   6.670   9.423   7.919 -0.8421  1.4918  0.2335
  834MOL0     H10027   6.902   9.386   8.039  1.2593 -0.9273  1.2503
  834MOL0     H10028   6.780   9.263   8.087  1.6347 -0.1616  2.3343
  834MOL0     H10029   6.742   9.375   8.294 -0.3608 -1.9080 -1.3544
  834MOL0     H10030   6.825   9.525   8.233 -0.7504  1.4214 -0.5412
  834MOL0     H10031   6.944   9.249   8.329 -0.8669 -0.1754 -0.2556
  834MOL0     H10032   7.050   9.383   8.264 -0.4907  0.4436 -0.2291
  834MOL0     H10033   6.883   9.407   8.517 -0.5321 -0.6642 -0.9662
  834MOL0     H10034   6.971   9.536   8.440 -2.7580 -0.6254 -0.2122
  834MOL0     H10035   7.124   9.453   8.616 -0.3476  0.1202  0.3319
  834MOL0     H10036   7.180   9.428   8.446 -0.6449 -2.9852 -2.5401
  834MOL0     H10037   7.129   9.188   8.458  0.4147 -1.6679  1.2439
  834MOL0     H10038   7.231   9.230   8.602  1.2748 -1.6985 -0.1944
  834MOL0     H10039   6.923   9.208   8.612 -0.6218  0.2880  2.6575
  834MOL0     H10040   7.038   9.272   8.732 -0.4422  0.9726 -0.8599
  834MOL0     H10041   6.913   8.949   8.567 -0.1249 -2.3060  0.7973
  834MOL0     H10042   7.012   8.673   8.638  0.6183 -2.2716 -0.1014
  834MOL0     H10043   7.178   8.652   8.561 -0.9749 -0.7530 -1.6287
  834MOL0     H10044   6.933   8.771   8.428  0.5720  1.2541 -0.8723
  834MOL0     H10045   7.012   8.615   8.397 -2.2478  0.3928  1.3770
  834MOL0     H10046   7.133   8.885   8.338 -1.4217  0.6418 -3.5370
  834MOL0     H10047   7.215   8.723   8.347  0.6698 -0.4498 -1.0129
  834MOL0     H10048   6.976   8.783   8.162 -0.5457  1.7468  2.4108
  834MOL0     H10049   7.077   8.641   8.168 -2.8078 -0.3371 -0.7563
  834MOL0     H10050   7.103   8.741   7.836 -2.4483 -0.2793 -0.6274
  834MOL0     H10051   7.016   8.913   7.678  0.6685 -0.0291 -0.7311
  834MOL0     H10052   6.965   9.052   7.341  1.7483  0.7388 -0.2589
  834MOL0     H10053   6.902   9.164   7.155  1.8857 -0.1378 -0.4811
  834MOL0     H10054   6.847   9.344   6.968  2.8085  1.2408 -2.6017
  834MOL0     H10055   6.994   9.388   7.045  1.6657  3.8685 -2.3654
  834MOL0     H10056   6.792   9.601   6.946 -0.2577  0.1980 -1.5702
  834MOL0     H10057   6.930   9.545   6.855 -0.8211 -1.2632  0.1618
  834MOL0     H10058   7.016   9.743   6.936 -0.3578 -0.5519 -0.6207
  834MOL0     H10059   7.070   9.616   7.048  1.3837 -1.1801 -2.9325
  834MOL0     H10060   6.894   9.681   7.206 -0.3143 -0.7185 -0.5983
  834MOL0     H10061   7.029   9.794   7.198 -1.1015  1.0631  0.4408
  834MOL0     H10062   6.814   9.872   7.008  1.9383  0.3826 -0.2976
  834MOL0     H10063   6.922   9.955   7.124  1.4126 -1.3419  2.4066
  834MOL0     H10064   6.680   9.986   7.193 -1.8756  0.1122  5.4155
  834MOL0     H10065   6.778   9.891   7.300 -0.3748  0.1901  1.0844
  834MOL0     H10066   6.569   9.779   7.099 -2.8132  2.2304  1.1577
  834MOL0     H10067   6.668   9.664   7.193 -1.9592 -0.8603  0.5662
  834MOL0     H10068   6.465   9.692   7.300  0.5130 -0.2864  2.0441
  834MOL0     H10069   6.467   9.861   7.313 -2.5826 -1.6278  2.2182
  834MOL0     H10070   6.788   9.504   7.386 -2.1787 -1.8157  0.5475
  834MOL0     H10071   6.860   9.402   7.590  0.7206  0.7871 -0.1635
  834MOL0     H10072   7.055   9.224   7.979  0.1293  0.2305 -1.4710
  834MOL0     H10073   7.162   9.055   8.129  1.0574 -0.2505  0.0790
  834MOL0     H10074   6.602   9.610   8.230 -1.1904  2.7429  0.3621
  834MOL0     H10075   6.426   9.745   8.326  0.4752  0.3249 -0.3221
  834MOL0     H10076   6.020   9.835   8.409  0.0676 -0.2314  0.8303
  834MOL0     H10077   5.829   9.947   8.479 -0.8803 -1.3347  0.5759
  834MOL0     H10078   5.591  10.133   8.476 -2.1867  0.0323  0.8316
  834MOL0     H10079   5.554   9.967   8.490  0.6061 -0.7895 -0.7227
  834MOL0     H10080   5.396  10.158   8.299 -1.3750  2.0295  1.0257
  834MOL0     H10081   5.345  10.003   8.349 -2.6510  2.1964 -1.0130
  834MOL0     H10082   5.396  10.219   8.551  1.2929 -1.1545  1.3471
  834MOL0     H10083   5.316  10.076   8.584 -1.5714  2.3640  1.4736
  834MOL0     H10084   5.185  10.256   8.363  0.7515 -1.2594 -1.8226
  834MOL0     H10085   5.128  10.118   8.444 -0.3461  1.3431  0.5303
  834MOL0     H10086   5.027  10.385   8.731 -1.3913  2.8646 -2.7773
  834MOL0     H10087   5.661   9.923   8.090  0.4660 -2.5966 -0.2321
  834MOL0     H10088   5.871   9.804   8.005  0.8136 -1.1149  1.3480
  835MOL0     O10089   5.022   2.449   8.706  0.1196  0.4950 -0.1891
  835MOL0     C10090   4.963   2.528   8.785 -0.4048  0.5137  0.0558
  835MOL0     O10091   4.863   2.624   8.743 -1.0141 -0.8014 -0.4848
  835MOL0     C10092   4.854   2.640   8.603  1.0219 -1.1716  0.4136
  835MOL0     C10093   4.945   2.717   8.526  0.5810  0.7144  0.3282
  835MOL0     C10094   4.919   2.759   8.391  0.2069  0.5813 -0.2875
  835MOL0     C10095   4.793   2.714   8.339 -0.8742  0.5220  0.2867
  835MOL0     O10096   4.750   2.737   8.208  0.4007  0.2309  0.8437
  835MOL0     C10097   4.850   2.759   8.106 -0.1888 -1.0880  0.8621
  835MOL0     C10098   4.768   2.793   7.987  0.3129  0.0975  0.8934
  835MOL0     C10099   4.866   2.833   7.874  0.7692 -0.0788 -0.2919
  835MOL0     C10100   4.803   2.923   7.773  0.1838  0.3184  0.0805
  835MOL0     C10101   4.666   2.886   7.714 -0.0273  0.3417  0.2218
  835MOL0     C10102   4.680   2.758   7.631 -0.0642 -0.8136 -0.0500
  835MOL0     C10103   4.555   2.712   7.566  0.2456 -0.1315  0.1737
  835MOL0     C10104   4.447   2.673   7.670  0.0857  0.1934 -0.6861
  835MOL0     N10105   4.489   2.546   7.742 -0.4159 -0.7232 -0.2938
  835MOL0     C10106   4.478   2.413   7.695  0.0035  0.4694 -1.0221
  835MOL0     C10107   4.535   2.342   7.800 -0.4099 -0.5769  0.5940
  835MOL0     C10108   4.563   2.194   7.793  0.3601  0.5915 -0.2254
  835MOL0     C10109   4.678   2.144   7.874  0.9296 -0.4042  0.5633
  835MOL0     C10110   4.667   2.146   8.026  0.8593 -1.5408 -0.4995
  835MOL0     C10111   4.785   2.081   8.103 -0.4116  0.3641  0.0244
  835MOL0     O10112   4.756   2.068   8.247  0.0887 -0.8408 -0.2319
  835MOL0     C10113   4.819   1.969   8.309  0.7073  0.3347  0.1338
  835MOL0     C10114   4.934   1.901   8.260  0.1279 -0.6268  0.1067
  835MOL0     C10115   4.968   1.775   8.319 -0.1663 -1.0432  0.0709
  835MOL0     C10116   4.899   1.739   8.432  0.4933 -0.2608  0.1910
  835MOL0     C10117   4.944   1.613   8.510  0.6781 -0.1430  0.2870
  835MOL0     O10118   5.056   1.556   8.462  0.1448  0.5761  0.0392
  835MOL0     C10119   5.093   1.428   8.489 -0.6146  1.2955  1.0309
  835MOL0     C10120   5.228   1.401   8.478 -0.5158  0.4775 -0.2140
  835MOL0     C10121   5.278   1.267   8.491 -0.2446  0.0523 -0.4702
  835MOL0     C10122   5.189   1.162   8.524  0.5977  0.6737 -0.2652
  835MOL0     O10123   5.225   1.021   8.536  0.1711  0.5178 -0.8460
  835MOL0     C10124   5.370   0.987   8.514  1.1702 -0.2971 -0.2686
  835MOL0     C10125   5.385   0.841   8.476  0.1090  1.0123 -0.7289
  835MOL0     C10126   5.529   0.803   8.472 -0.6080 -1.0048 -0.1156
  835MOL0     C10127   5.563   0.669   8.403  0.6638 -0.0160 -0.0611
  835MOL0     C10128   5.531   0.543   8.487 -0.9020  0.2511 -0.2174
  835MOL0     C10129   5.624   0.414   8.465 -0.4568  0.1126  0.1627
  835MOL0     C10130   5.587   0.343   8.338  0.3678  0.7400  0.5550
  835MOL0     C10131   5.691   0.232   8.305 -0.2378  0.3783  0.5260
  835MOL0    Cl10132   5.663   0.157   8.152 -0.3172 -0.2894  0.2929
  835MOL0     C10133   5.055   1.191   8.517  0.4793  0.5465  0.2852
  835MOL0     C10134   5.002   1.320   8.507 -0.1840  0.0245 -0.4923
  835MOL0     O10135   4.885   1.581   8.611 -0.0437  0.1520  0.1180
  835MOL0     C10136   4.800   1.818   8.490  0.0920 -0.3651 -0.7203
  835MOL0     C10137   4.763   1.934   8.428 -0.3579  0.2435 -0.3049
  835MOL0     N10138   4.574   2.425   7.904 -0.0614 -0.3850 -0.2064
  835MOL0     N10139   4.539   2.545   7.867  0.1388  0.9490 -0.1998
  835MOL0     C10140   4.702   2.658   8.412  0.7777  0.4636  0.5095
  835MOL0     C10141   4.727   2.615   8.542  0.1565 -1.6160 -0.4985
  835MOL0     C10142   4.992   2.520   8.929 -0.0996  1.1348  0.5885
  835MOL0     C10143   5.079   2.420   8.984 -0.0520 -0.3959  0.1845
  835MOL0     C10144   5.076   2.406   9.124  0.9902 -0.5781 -0.5694
  835MOL0     C10145   4.986   2.480   9.209 -0.3338  0.0804 -0.8702
  835MOL0     O10146   5.008   2.459   9.337  0.5416 -0.9214 -0.4073
  835MOL0     C10147   4.964   2.563   9.434  0.7561  0.8528 -0.2043
  835MOL0     C10148   5.054   2.690   9.427 -0.1671 -1.0304 -0.1383
  835MOL0     C10149   5.025   2.790   9.546 -0.6815  0.4138  0.5088
  835MOL0     C10150   5.145   2.802   9.648 -0.5646  0.0091 -0.1190
  835MOL0     C10151   5.155   2.679   9.719  0.3837  0.1538 -0.4304
  835MOL0     C10152   5.139   2.584   9.802 -0.4615  0.0394  0.2074
  835MOL0     C10153   4.905   2.573   9.146  0.2414  0.9608 -0.2222
  835MOL0     C10154   4.919   2.598   9.017 -0.0976 -1.1706 -0.6722
  835MOL0     H10155   5.040   2.750   8.569 -0.8915  1.5181  3.2168
  835MOL0     H10156   5.000   2.808   8.338  0.6228  1.4342  1.0681
  835MOL0     H10157   4.917   2.672   8.107  0.0933 -0.9218  3.4256
  835MOL0     H10158   4.912   2.847   8.129 -1.7762  0.7014 -1.3075
  835MOL0     H10159   4.708   2.882   8.006  2.6319  2.8171 -3.1163
  835MOL0     H10160   4.706   2.704   7.970  0.9907 -0.1806 -0.1919
  835MOL0     H10161   4.894   2.737   7.830  2.6181  0.8611 -1.3128
  835MOL0     H10162   4.958   2.881   7.909  1.0550 -1.2332  0.5758
  835MOL0     H10163   4.786   3.019   7.822 -2.6491 -1.0938  2.1998
  835MOL0     H10164   4.872   2.939   7.689 -1.2741  0.2333 -1.1749
  835MOL0     H10165   4.634   2.969   7.650 -2.0422  0.1404  0.8773
  835MOL0     H10166   4.593   2.868   7.794  1.6900 -3.8291  1.1211
  835MOL0     H10167   4.714   2.681   7.700  2.4640  0.1659 -0.0999
  835MOL0     H10168   4.754   2.769   7.551  1.0936  1.1463  1.2038
  835MOL0     H10169   4.511   2.789   7.502 -0.1206 -2.0227 -1.9806
  835MOL0     H10170   4.583   2.631   7.499  4.1262  1.9299 -1.0234
  835MOL0     H10171   4.354   2.653   7.616 -0.2497  0.9979 -0.4165
  835MOL0     H10172   4.435   2.765   7.728 -0.4324  1.9021 -3.3342
  835MOL0     H10173   4.428   2.378   7.605 -1.8299  0.0906  0.0892
  835MOL0     H10174   4.584   2.174   7.687  1.4111  0.6642 -0.0466
  835MOL0     H10175   4.467   2.151   7.820  1.4558 -1.2181  1.0311
  835MOL0     H10176   4.768   2.193   7.838 -0.0261 -0.3970 -2.0812
  835MOL0     H10177   4.700   2.040   7.848  2.7121 -0.8364  3.4283
  835MOL0     H10178   4.673   2.250   8.059  1.3347 -0.9915 -2.2652
  835MOL0     H10179   4.578   2.097   8.067 -0.0260 -0.9030 -1.6054
  835MOL0     H10180   4.875   2.141   8.086 -2.5799  3.5440 -1.2199
  835MOL0     H10181   4.802   1.984   8.056 -1.3895  0.0445  0.2989
  835MOL0     H10182   4.996   1.951   8.187 -0.4248 -0.5524 -0.3168
  835MOL0     H10183   5.051   1.724   8.273 -1.2978 -0.9067 -2.2476
  835MOL0     H10184   5.296   1.483   8.459  0.7995 -0.1590  1.4911
  835MOL0     H10185   5.386   1.251   8.487 -0.3351 -0.7753  0.1887
  835MOL0     H10186   5.429   1.022   8.600  2.7948 -0.0073 -1.4458
  835MOL0     H10187   5.405   1.039   8.424 -0.6917  2.1617  0.3183
  835MOL0     H10188   5.335   0.829   8.380 -2.5002  3.2489  0.2062
  835MOL0     H10189   5.330   0.782   8.551  1.7898  0.3177  0.0119
  835MOL0     H10190   5.566   0.807   8.575 -1.4419 -0.2409  0.1634
  835MOL0     H10191   5.587   0.878   8.416 -2.1281  0.9955  0.8790
  835MOL0     H10192   5.531   0.664   8.298  2.5849  0.4866 -0.7129
  835MOL0     H10193   5.672   0.665   8.395  1.2928 -3.0952  5.3377
  835MOL0     H10194   5.426   0.515   8.473 -1.1643  0.2070  1.5734
  835MOL0     H10195   5.525   0.576   8.592  4.4961  3.0541 -0.4193
  835MOL0     H10196   5.618   0.349   8.553  1.2939 -1.7276 -1.0012
  835MOL0     H10197   5.726   0.452   8.455 -0.4557  0.3586  1.0398
  835MOL0     H10198   5.492   0.293   8.358  0.1369  1.1108  0.4047
  835MOL0     H10199   5.577   0.423   8.264 -2.0067 -0.8697 -1.0303
  835MOL0     H10200   5.687   0.155   8.383 -0.3512  2.3366  2.5394
  835MOL0     H10201   5.782   0.293   8.307 -1.3066  2.0542 -0.0497
  835MOL0     H10202   4.986   1.112   8.545 -0.0225  0.4205 -1.2508
  835MOL0     H10203   4.895   1.321   8.527 -1.1918 -0.6668 -4.8296
  835MOL0     H10204   4.738   1.790   8.575 -0.4810  2.2131 -0.1818
  835MOL0     H10205   4.674   1.995   8.444 -0.7362  0.4626 -2.8372
  835MOL0     H10206   4.609   2.662   8.356  2.2504  0.6008 -2.0518
  835MOL0     H10207   4.655   2.571   8.610  0.2141 -2.3924 -0.9285
  835MOL0     H10208   5.144   2.358   8.923 -1.0673 -2.2731  0.9441
  835MOL0     H10209   5.144   2.336   9.172 -1.6667 -0.0494  4.7503
  835MOL0     H10210   4.949   2.514   9.531 -2.0206  1.0902 -0.4439
  835MOL0     H10211   4.865   2.602   9.411 -1.0609 -1.5435  2.8401
  835MOL0     H10212   5.158   2.657   9.427  1.0542  2.4612 -0.2010
  835MOL0     H10213   5.038   2.741   9.331  1.1448  2.3745  1.3003
  835MOL0     H10214   4.939   2.758   9.605  0.1140  0.4729  1.7459
  835MOL0     H10215   5.000   2.886   9.499 -1.9599 -1.1218 -2.1962
  835MOL0     H10216   5.235   2.816   9.586 -0.6443 -0.8457 -0.4413
  835MOL0     H10217   5.129   2.883   9.721  2.9577  1.3685 -0.6509
  835MOL0     H10218   5.157   2.498   9.863  2.4875 -0.0249 -0.5871
  835MOL0     H10219   4.835   2.636   9.199  0.9790 -0.4632  2.7080
  835MOL0     H10220   4.859   2.671   8.964  0.6791 -1.6063 -2.2376
  836MOL0     O10221   3.253   3.146   0.772  0.1101  0.2931 -0.4784
  836MOL0     C10222   3.275   3.030   0.804  0.2231 -0.0293  0.0705
  836MOL0     O10223   3.179   2.937   0.832 -0.0950  0.0656  0.6891
  836MOL0     C10224   3.045   2.960   0.823 -0.5987  0.2138  0.7408
  836MOL0     C10225   2.968   3.086   0.814 -0.6005  0.3289  0.2974
  836MOL0     C10226   2.831   3.079   0.800  0.0288  0.4120 -0.4620
  836MOL0     C10227   2.764   2.955   0.816  0.4806 -0.7930 -0.3558
  836MOL0     O10228   2.626   2.947   0.802 -0.2653  0.1037  0.4364
  836MOL0     C10229   2.549   3.048   0.865  0.1966  0.4532  0.4111
  836MOL0     C10230   2.425   2.993   0.942  0.1328 -0.0802  0.0115
  836MOL0     C10231   2.456   2.873   1.033  1.0706  0.1939  0.9484
  836MOL0     C10232   2.366   2.871   1.157 -0.2138 -0.8109 -0.3886
  836MOL0     C10233   2.407   2.751   1.249  0.2942 -0.9563 -0.0242
  836MOL0     C10234   2.330   2.624   1.205 -0.5838 -0.1720 -0.0548
  836MOL0     C10235   2.353   2.512   1.314 -0.7884  0.0113 -0.3029
  836MOL0     C10236   2.266   2.389   1.307 -0.0437 -0.7012 -0.4194
  836MOL0     N10237   2.284   2.295   1.426  0.7664  0.3838  0.4724
  836MOL0     C10238   2.373   2.203   1.447 -1.6937  0.3232 -0.2662
  836MOL0     C10239   2.355   2.146   1.567  0.0048  0.6389  0.4196
  836MOL0     C10240   2.427   2.037   1.634  1.0233 -0.0480 -0.6054
  836MOL0     C10241   2.553   2.085   1.712  0.4333 -0.5297  1.1825
  836MOL0     C10242   2.663   2.108   1.610  0.1271 -0.3569  0.0510
  836MOL0     C10243   2.799   2.122   1.676 -0.4291 -0.3079 -0.2352
  836MOL0     O10244   2.899   2.083   1.582  1.5099 -0.3204  0.3039
  836MOL0     C10245   3.006   2.028   1.625 -0.5377  0.2687 -0.1653
  836MOL0     C10246   3.019   1.946   1.736 -1.1362 -0.2710 -0.4292
  836MOL0     C10247   3.140   1.894   1.761  0.6826  1.0067  0.2591
  836MOL0     C10248   3.257   1.914   1.680 -0.2734  0.3230  0.5861
  836MOL0     C10249   3.383   1.842   1.717  0.0302  0.9523  0.6693
  836MOL0     O10250   3.501   1.886   1.673  1.3367 -0.6562 -0.0851
  836MOL0     C10251   3.613   1.831   1.715  0.7347 -0.2663  0.5450
  836MOL0     C10252   3.711   1.840   1.625  0.6029  0.5808 -0.4937
  836MOL0     C10253   3.837   1.789   1.646 -1.3937  0.4627  0.1741
  836MOL0     C10254   3.868   1.745   1.776 -0.2868  0.5308 -0.0485
  836MOL0     O10255   4.001   1.726   1.799 -0.5067  0.0907  0.5499
  836MOL0     C10256   4.050   1.657   1.918 -0.4948  0.3291  0.0904
  836MOL0     C10257   4.191   1.606   1.892 -0.3798 -0.6111 -0.3981
  836MOL0     C10258   4.211   1.520   1.778  0.0545  0.4215  0.3257
  836MOL0     C10259   4.357   1.479   1.775 -0.1872  0.1129 -0.5064
  836MOL0     C10260   4.390   1.390   1.894 -0.1440  0.3326 -0.1921
  836MOL0     C10261   4.529   1.340   1.868  0.1166 -0.1005 -0.2131
  836MOL0     C10262   4.589   1.284   1.997  1.0439 -0.0571 -0.0119
  836MOL0     C10263   4.734   1.265   1.967 -0.0667  0.0272 -0.0122
  836MOL0    Cl10264   4.818   1.219   2.104  0.1788  0.3835 -0.3943
  836MOL0     C10265   3.775   1.746   1.882  0.2865  0.6750  0.6639
  836MOL0     C10266   3.643   1.781   1.841  0.4897  0.0817  0.3018
  836MOL0     O10267   3.366   1.740   1.787 -0.9246  0.2974  0.2426
  836MOL0     C10268   3.241   2.007   1.577 -0.3714 -0.2250 -0.7178
  836MOL0     C10269   3.119   2.064   1.547 -0.3304 -0.7076 -1.0396
  836MOL0     N10270   2.235   2.200   1.618  0.0537  0.3426 -0.2720
  836MOL0     N10271   2.206   2.301   1.542  0.9321  0.4371  0.1912
  836MOL0     C10272   2.832   2.834   0.826 -0.2130 -0.4888 -0.2644
  836MOL0     C10273   2.977   2.843   0.835  0.7493  0.5289  0.1603
  836MOL0     C10274   3.420   3.004   0.840  0.1631  0.2201  0.9786
  836MOL0     C10275   3.518   3.106   0.829  0.5748  0.6353 -0.5292
  836MOL0     C10276   3.648   3.080   0.869  0.2970  0.1173 -0.0502
  836MOL0     C10277   3.679   2.943   0.904  0.1648  0.4375 -0.3203
  836MOL0     O10278   3.804   2.882   0.913 -0.5499 -0.3895  0.9466
  836MOL0     C10279   3.902   2.936   0.825  0.3624 -0.2311  0.2756
  836MOL0     C10280   4.008   3.002   0.904 -1.4304 -0.6181 -0.6489
  836MOL0     C10281   4.127   3.040   0.808  0.1780 -1.1671 -0.5435
  836MOL0     C10282   4.217   2.926   0.763 -0.6637 -0.1904  0.5373
  836MOL0     C10283   4.321   3.002   0.690 -0.1257  0.1081 -0.6833
  836MOL0     C10284   4.417   3.054   0.642  0.0206 -0.2787  0.0085
  836MOL0     C10285   3.574   2.854   0.926  0.2521  0.1006 -0.0501
  836MOL0     C10286   3.448   2.884   0.897  0.0206  0.8202  0.1437
  836MOL0     H10287   3.023   3.178   0.801 -0.9145  0.3369 -1.0728
  836MOL0     H10288   2.772   3.167   0.780 -2.8175 -0.5691  2.7334
  836MOL0     H10289   2.508   3.100   0.777 -2.3794 -0.9643  0.6549
  836MOL0     H10290   2.607   3.118   0.925  1.2649  0.0718 -0.1549
  836MOL0     H10291   2.343   2.958   0.879 -0.2851  4.7829 -2.6666
  836MOL0     H10292   2.377   3.073   0.999 -1.4686 -0.4945 -0.7159
  836MOL0     H10293   2.563   2.880   1.056  2.0087 -2.7043 -1.7755
  836MOL0     H10294   2.448   2.782   0.974  2.5014 -0.4265  1.6593
  836MOL0     H10295   2.396   2.956   1.219  2.3888 -1.4193 -0.7018
  836MOL0     H10296   2.259   2.885   1.140 -1.0690 -0.8682  3.7764
  836MOL0     H10297   2.383   2.770   1.354 -2.1330 -0.7408 -0.5613
  836MOL0     H10298   2.515   2.733   1.237  0.1646 -0.4237 -2.5559
  836MOL0     H10299   2.353   2.600   1.101 -0.4590  2.5520 -0.7366
  836MOL0     H10300   2.222   2.639   1.192 -1.0143 -2.2116  0.7754
  836MOL0     H10301   2.459   2.484   1.325 -1.3935 -1.6700  2.1763
  836MOL0     H10302   2.333   2.568   1.406  0.0015 -0.7202  0.3289
  836MOL0     H10303   2.278   2.337   1.212  3.1847 -0.5858 -0.1839
  836MOL0     H10304   2.165   2.430   1.298 -0.5864 -2.2551 -2.0842
  836MOL0     H10305   2.454   2.183   1.378 -1.7829  1.0620 -0.5953
  836MOL0     H10306   2.453   1.961   1.560  1.9329 -0.9380  0.6013
  836MOL0     H10307   2.356   2.004   1.710 -1.1104  3.3899 -0.8985
  836MOL0     H10308   2.588   2.013   1.788 -1.4852 -1.1693  1.5222
  836MOL0     H10309   2.524   2.184   1.747  2.2918  0.9832 -1.2711
  836MOL0     H10310   2.672   2.018   1.549  0.2604  0.0205 -0.4905
  836MOL0     H10311   2.639   2.197   1.551  2.0940 -0.7735 -1.4669
  836MOL0     H10312   2.805   2.068   1.771  0.7750 -3.8450 -2.1356
  836MOL0     H10313   2.808   2.229   1.696 -0.3017 -0.4148  0.3040
  836MOL0     H10314   2.945   1.926   1.812  0.6540  6.1944  3.8939
  836MOL0     H10315   3.145   1.825   1.844  0.1347 -1.9643 -1.9973
  836MOL0     H10316   3.681   1.889   1.533 -2.9424 -0.6182 -0.1249
  836MOL0     H10317   3.903   1.798   1.560 -0.6238  0.8475  0.7897
  836MOL0     H10318   3.995   1.563   1.931  2.0537 -1.3422 -0.4318
  836MOL0     H10319   4.035   1.714   2.010 -1.6469 -0.4252  0.3876
  836MOL0     H10320   4.227   1.573   1.990 -1.3066 -0.4845 -0.0033
  836MOL0     H10321   4.250   1.696   1.875 -1.8380  0.4634  0.0825
  836MOL0     H10322   4.180   1.581   1.692 -1.6552  0.1090  0.6844
  836MOL0     H10323   4.146   1.432   1.780 -0.2899  0.6842  1.0419
  836MOL0     H10324   4.390   1.422   1.687  5.6223 -0.9388  1.8953
  836MOL0     H10325   4.424   1.565   1.776  2.2653 -1.6864 -0.3872
  836MOL0     H10326   4.330   1.299   1.901 -0.0128  0.2391 -0.2875
  836MOL0     H10327   4.394   1.449   1.986 -0.4912  2.2389 -1.3514
  836MOL0     H10328   4.583   1.430   1.838  0.5192 -0.1019  0.4751
  836MOL0     H10329   4.524   1.263   1.791  0.6367 -1.6469  1.2191
  836MOL0     H10330   4.583   1.371   2.063  3.1288  1.4159 -1.6470
  836MOL0     H10331   4.530   1.198   2.031  1.1539  0.0783  0.5378
  836MOL0     H10332   4.768   1.363   1.932 -0.9285  0.3046 -0.0995
  836MOL0     H10333   4.754   1.190   1.891 -2.0159 -0.5085 -0.0506
  836MOL0     H10334   3.802   1.724   1.985  0.2377 -0.4849  0.4485
  836MOL0     H10335   3.577   1.787   1.927  1.2144 -0.1918  0.8825
  836MOL0     H10336   3.332   2.029   1.523  1.4795 -0.1778  2.1621
  836MOL0     H10337   3.096   2.139   1.472 -2.4770 -0.7221 -0.4744
  836MOL0     H10338   2.770   2.748   0.846  0.6676 -1.0420  0.1413
  836MOL0     H10339   3.037   2.756   0.860  0.2983 -0.1102 -0.9190
  836MOL0     H10340   3.480   3.201   0.794 -0.2630  0.0204 -1.3347
  836MOL0     H10341   3.728   3.153   0.862 -0.0305  0.3203 -2.3468
  836MOL0     H10342   3.859   3.009   0.757  1.2549  1.0331  1.0275
  836MOL0     H10343   3.954   2.864   0.762  1.9427  2.0917 -1.2393
  836MOL0     H10344   3.975   3.097   0.946  0.9230 -0.0151 -0.0127
  836MOL0     H10345   4.042   2.944   0.990  3.0413 -0.5757 -2.1311
  836MOL0     H10346   4.191   3.101   0.872 -2.5852 -0.2828  1.5203
  836MOL0     H10347   4.086   3.091   0.720  2.7342 -1.6033 -2.1024
  836MOL0     H10348   4.270   2.872   0.842  1.3275  0.8425 -0.0143
  836MOL0     H10349   4.169   2.863   0.688 -1.7411  1.5046 -0.2570
  836MOL0     H10350   4.503   3.099   0.598  3.9604 -5.1166  1.7552
  836MOL0     H10351   3.587   2.749   0.951 -3.0884 -0.8180 -1.5315
  836MOL0     H10352   3.372   2.806   0.902  1.5809 -0.7989  5.7210
  837MOL0     O10353   1.668   7.892   2.967  0.7540  0.0156 -0.0494
  837MOL0     C10354   1.727   7.860   3.071 -0.3861 -0.4157  0.5971
  837MOL0     O10355   1.672   7.816   3.188 -0.9494 -0.2947  0.6241
  837MOL0     C10356   1.541   7.842   3.209 -0.0910 -0.0175  0.2370
  837MOL0     C10357   1.438   7.759   3.171 -0.1692  0.2234 -0.3430
  837MOL0     C10358   1.304   7.779   3.210  0.6937 -0.7937  0.0809
  837MOL0     C10359   1.270   7.887   3.281  0.2069 -0.2037  0.2673
  837MOL0     O10360   1.141   7.918   3.297 -0.4449  0.1060 -0.7202
  837MOL0     C10361   1.102   8.009   3.401  0.4254  0.2536  0.6391
  837MOL0     C10362   0.956   8.017   3.430  0.3050 -0.9853 -0.1404
  837MOL0     C10363   0.878   8.067   3.308  0.5884  0.0892 -0.1128
  837MOL0     C10364   0.733   8.075   3.341 -0.1605  0.6441  0.2651
  837MOL0     C10365   0.638   8.097   3.228  1.0199  1.1196 -0.3266
  837MOL0     C10366   0.495   8.118   3.296 -0.1078 -0.3143 -0.6074
  837MOL0     C10367   0.381   8.164   3.198  0.3971 -0.0094  0.4038
  837MOL0     C10368   0.243   8.176   3.263 -0.4946 -0.0797  0.2024
  837MOL0     N10369   0.131   8.229   3.180 -0.5048 -0.9465 -0.0385
  837MOL0     C10370   0.090   8.171   3.066 -0.0936  0.2405  0.5915
  837MOL0     C10371  -0.005   8.256   3.018  0.8290  0.7909 -0.0424
  837MOL0     C10372  -0.115   8.230   2.913 -0.4195  0.4533  0.2249
  837MOL0     C10373  -0.244   8.168   2.966  0.3812  0.2767 -0.4948
  837MOL0     C10374  -0.365   8.164   2.873 -0.0585 -0.3439  0.0619
  837MOL0     C10375  -0.490   8.077   2.912 -0.1862 -0.2578  0.0000
  837MOL0     O10376  -0.557   8.152   3.020 -0.2267 -0.2532  0.1611
  837MOL0     C10377  -0.681   8.109   3.070  0.6600  0.4380  0.2186
  837MOL0     C10378  -0.742   8.175   3.175 -0.5909 -0.1077 -0.0757
  837MOL0     C10379  -0.874   8.146   3.218  0.0847 -0.2017  1.0688
  837MOL0     C10380  -0.944   8.035   3.169  0.1429  1.0573 -0.1375
  837MOL0     C10381  -1.077   7.993   3.219 -0.6523 -0.8626 -0.3939
  837MOL0     O10382  -1.150   8.091   3.289 -0.2237  0.1847 -0.8896
  837MOL0     C10383  -1.267   8.062   3.358  0.1419 -0.5835  0.6265
  837MOL0     C10384  -1.335   7.937   3.368 -0.2045 -0.8707 -0.9198
  837MOL0     C10385  -1.461   7.918   3.420 -0.0604  0.5221 -0.0908
  837MOL0     C10386  -1.513   8.019   3.503 -0.2275 -0.7070 -0.1755
  837MOL0     O10387  -1.623   7.993   3.576  0.0447 -0.2650  0.1077
  837MOL0     C10388  -1.736   7.946   3.502  0.4950  0.1027  0.1978
  837MOL0     C10389  -1.855   7.974   3.594  0.9256 -0.3709  0.4989
  837MOL0     C10390  -1.973   8.042   3.512 -0.5378  0.0080  0.5282
  837MOL0     C10391  -2.090   8.072   3.609  0.0787  0.7013  0.0091
  837MOL0     C10392  -2.198   8.136   3.521  0.7630 -1.2719 -0.4443
  837MOL0     C10393  -2.323   8.159   3.611  0.2252 -0.4705 -0.4683
  837MOL0     C10394  -2.301   8.277   3.705 -0.0991 -0.8460  0.5319
  837MOL0     C10395  -2.428   8.302   3.782 -0.6911 -0.5777 -0.3078
  837MOL0    Cl10396  -2.570   8.364   3.694  0.2460 -0.1927  0.0198
  837MOL0     C10397  -1.445   8.143   3.510  0.4285  0.1447 -0.1168
  837MOL0     C10398  -1.320   8.162   3.441 -0.0189 -0.7469 -0.0827
  837MOL0     O10399  -1.114   7.880   3.189 -0.8212 -0.0814  0.4169
  837MOL0     C10400  -0.881   7.963   3.069 -0.5467 -0.0568 -1.0491
  837MOL0     C10401  -0.751   7.989   3.022  0.5483  0.5443  1.1772
  837MOL0     N10402  -0.012   8.363   3.104  0.5353 -0.7914  0.6250
  837MOL0     N10403   0.081   8.357   3.186  0.5331 -0.9750 -0.5582
  837MOL0     C10404   1.369   7.974   3.314 -0.5261 -0.0143  0.3763
  837MOL0     C10405   1.503   7.952   3.278 -0.0571  0.9356 -0.2360
  837MOL0     C10406   1.880   7.871   3.055 -0.0300  0.3632 -0.7274
  837MOL0     C10407   1.940   7.909   2.938  0.0276  0.1794 -0.1153
  837MOL0     C10408   2.073   7.942   2.935  0.1197  0.2169 -0.3072
  837MOL0     C10409   2.160   7.944   3.055  0.4651 -0.5989  1.0134
  837MOL0     O10410   2.291   7.983   3.037  0.2467  0.0566 -0.0514
  837MOL0     C10411   2.381   8.009   3.148 -0.1708 -0.5448 -0.2321
  837MOL0     C10412   2.360   8.147   3.190 -0.1988  0.1910  0.7869
  837MOL0     C10413   2.396   8.169   3.338  0.2818 -0.4643  0.5757
  837MOL0     C10414   2.546   8.150   3.367  0.0457  0.4755 -0.1432
  837MOL0     C10415   2.566   8.158   3.519 -0.9572  0.4328  0.1060
  837MOL0     C10416   2.592   8.154   3.635  0.0791 -0.2474  1.3937
  837MOL0     C10417   2.101   7.917   3.169  0.8724  0.4491  0.0918
  837MOL0     C10418   1.966   7.874   3.178  0.4604  0.6009  0.2173
  837MOL0     H10419   1.458   7.677   3.102  1.7018  0.8435 -0.6082
  837MOL0     H10420   1.226   7.714   3.170  1.0598 -1.0121 -0.2818
  837MOL0     H10421   1.130   8.112   3.375 -1.1286  0.4478 -0.4504
  837MOL0     H10422   1.156   7.985   3.493  1.5899  0.9667  0.1615
  837MOL0     H10423   0.940   8.090   3.509 -0.8720 -1.1845 -0.1709
  837MOL0     H10424   0.926   7.916   3.460  2.0422 -0.7979  2.5272
  837MOL0     H10425   0.891   8.001   3.222  2.9566 -1.6169  1.4389
  837MOL0     H10426   0.910   8.168   3.283  1.3707 -0.0874  0.1633
  837MOL0     H10427   0.698   7.985   3.392 -1.6073  0.6264 -0.7000
  837MOL0     H10428   0.739   8.159   3.411 -0.0781  0.5619  0.3557
  837MOL0     H10429   0.629   8.004   3.171  1.1366  1.6409 -1.2107
  837MOL0     H10430   0.673   8.183   3.171 -1.0506  2.6335  0.5879
  837MOL0     H10431   0.506   8.183   3.383  0.4281 -2.8215  1.3144
  837MOL0     H10432   0.468   8.018   3.331  0.3910 -0.6427 -1.1372
  837MOL0     H10433   0.400   8.254   3.139 -1.7820 -0.8142 -1.6566
  837MOL0     H10434   0.369   8.079   3.131 -1.9262 -0.3930  1.2163
  837MOL0     H10435   0.266   8.245   3.345  0.7894 -2.1921  1.7317
  837MOL0     H10436   0.208   8.078   3.297 -1.1537 -0.6582 -1.9758
  837MOL0     H10437   0.111   8.070   3.033 -0.4821 -0.2985  1.9040
  837MOL0     H10438  -0.078   8.166   2.833 -1.3316  0.0710  0.0964
  837MOL0     H10439  -0.151   8.324   2.871  0.7151  1.5762  1.6435
  837MOL0     H10440  -0.266   8.211   3.064  3.6962  3.5411 -0.9796
  837MOL0     H10441  -0.216   8.065   2.991 -3.6070 -0.9671 -0.4748
  837MOL0     H10442  -0.392   8.270   2.878  3.7707  0.9033 -1.6584
  837MOL0     H10443  -0.337   8.146   2.769 -2.6418  0.8365 -0.8961
  837MOL0     H10444  -0.460   7.974   2.936  3.0005 -0.0071 -2.3554
  837MOL0     H10445  -0.557   8.065   2.826  0.8521 -1.6184 -0.6694
  837MOL0     H10446  -0.675   8.248   3.219  2.7116 -1.5826 -2.1826
  837MOL0     H10447  -0.931   8.196   3.296  0.6942 -0.1845  1.5087
  837MOL0     H10448  -1.286   7.850   3.325  2.7682 -1.3533  2.8983
  837MOL0     H10449  -1.514   7.825   3.407  2.3618 -0.8228 -1.0901
  837MOL0     H10450  -1.740   7.844   3.463  2.4298 -0.7486  1.9943
  837MOL0     H10451  -1.752   8.012   3.416 -3.5515 -0.5018  0.3291
  837MOL0     H10452  -1.831   8.053   3.665 -2.7705  0.9706  0.4454
  837MOL0     H10453  -1.899   7.888   3.645 -2.2553  1.2119  0.6481
  837MOL0     H10454  -2.007   7.977   3.431  1.2258 -2.4607  1.6204
  837MOL0     H10455  -1.943   8.136   3.466 -0.8170 -1.7723 -3.7565
  837MOL0     H10456  -2.122   7.978   3.655 -0.9243 -0.0679 -2.1789
  837MOL0     H10457  -2.048   8.147   3.678 -0.3396 -0.4759  1.5951
  837MOL0     H10458  -2.228   8.067   3.441 -1.0534 -0.4437 -0.5304
  837MOL0     H10459  -2.153   8.225   3.477 -0.8015 -0.5283 -0.6107
  837MOL0     H10460  -2.346   8.067   3.665 -2.5511  0.0587 -0.6266
  837MOL0     H10461  -2.403   8.178   3.539 -1.1365 -0.6486  0.9394
  837MOL0     H10462  -2.213   8.256   3.766 -0.2604  1.8227  1.8370
  837MOL0     H10463  -2.270   8.366   3.650 -0.1908 -0.4093  1.1769
  837MOL0     H10464  -2.395   8.371   3.861 -4.1806  1.7501 -0.6725
  837MOL0     H10465  -2.456   8.204   3.821  1.5738 -2.2017 -2.4808
  837MOL0     H10466  -1.497   8.206   3.582 -0.4354  1.9454 -2.2063
  837MOL0     H10467  -1.266   8.256   3.449 -0.1793 -0.7111  0.5633
  837MOL0     H10468  -0.926   7.878   3.017 -2.1913 -0.1895  0.4967
  837MOL0     H10469  -0.710   7.917   2.951 -0.9873 -1.5538  2.2971
  837MOL0     H10470   1.346   8.060   3.378 -0.5513  0.3616 -0.1290
  837MOL0     H10471   1.575   8.026   3.312 -3.1163  4.2343 -0.3524
  837MOL0     H10472   1.877   7.896   2.850  0.4438 -4.1196  0.0232
  837MOL0     H10473   2.108   7.958   2.833 -1.7347 -1.1359 -1.2193
  837MOL0     H10474   2.485   8.008   3.114  1.3595  0.4889  3.8376
  837MOL0     H10475   2.373   7.932   3.226  1.1790 -1.4972 -1.0020
  837MOL0     H10476   2.409   8.218   3.123  1.4312  0.7447  2.4824
  837MOL0     H10477   2.254   8.173   3.183 -0.5937 -1.6445 -0.7382
  837MOL0     H10478   2.334   8.113   3.408 -1.8961  0.2666 -0.6791
  837MOL0     H10479   2.376   8.275   3.356  0.7003 -0.2320 -0.2301
  837MOL0     H10480   2.597   8.064   3.322 -0.3822 -1.1297  2.2510
  837MOL0     H10481   2.597   8.233   3.317 -0.8250 -1.2533 -4.2938
  837MOL0     H10482   2.629   8.148   3.736  1.9548 -2.9124  0.6458
  837MOL0     H10483   2.163   7.926   3.258  0.8609  2.5997 -0.0772
  837MOL0     H10484   1.929   7.853   3.278 -2.1636 -0.5035 -0.8732
  838MOL0     O10485   9.014   0.102   3.068 -0.2938 -0.0415  0.1656
  838MOL0     C10486   8.940   0.196   3.076  0.8147 -0.6177  0.4814
  838MOL0     O10487   8.803   0.198   3.088 -0.3994 -0.1553  0.4516
  838MOL0     C10488   8.740   0.107   3.167 -0.0849 -1.2481 -0.5609
  838MOL0     C10489   8.796   0.021   3.267  0.8424  0.1145  0.0734
  838MOL0     C10490   8.702  -0.052   3.346 -0.1303  0.5686  1.2596
  838MOL0     C10491   8.564  -0.048   3.329 -1.2319 -0.8195  0.1303
  838MOL0     O10492   8.486  -0.136   3.401  0.0684 -0.2590 -1.0409
  838MOL0     C10493   8.491  -0.144   3.549 -0.0675 -0.9514 -0.3035
  838MOL0     C10494   8.456  -0.012   3.615  0.0105 -0.1531  0.2943
  838MOL0     C10495   8.471  -0.027   3.768  0.1570 -0.3810 -0.4788
  838MOL0     C10496   8.592  -0.116   3.810  0.0864  0.1986  0.2728
  838MOL0     C10497   8.718  -0.041   3.771 -0.0990  0.0045 -0.2928
  838MOL0     C10498   8.847  -0.054   3.840  0.5745  0.1120 -0.3496
  838MOL0     C10499   8.916  -0.188   3.808  0.0667  0.0307 -0.4853
  838MOL0     C10500   9.045  -0.207   3.893  0.1780 -0.7086  0.0807
  838MOL0     N10501   9.131  -0.300   3.833  0.2454  0.2852 -0.6220
  838MOL0     C10502   9.137  -0.433   3.856 -0.8050 -0.0213  0.0400
  838MOL0     C10503   9.261  -0.475   3.815  0.2673 -0.1497  0.1664
  838MOL0     C10504   9.322  -0.609   3.815 -0.6016  0.9437 -0.2590
  838MOL0     C10505   9.367  -0.655   3.674  0.0383  0.1050  1.1222
  838MOL0     C10506   9.378  -0.810   3.660 -0.2961  1.0994  0.2300
  838MOL0     C10507   9.519  -0.856   3.696  0.5754  0.4584 -0.4193
  838MOL0     O10508   9.544  -0.808   3.836 -0.5272  0.0965  0.3562
  838MOL0     C10509   9.674  -0.781   3.868 -0.0649 -0.6490  0.6050
  838MOL0     C10510   9.759  -0.711   3.785  0.0099  0.0802 -1.0850
  838MOL0     C10511   9.889  -0.699   3.812  0.3961 -0.5927 -0.7791
  838MOL0     C10512   9.949  -0.749   3.931  0.6606 -0.0655  0.5904
  838MOL0     C10513  10.093  -0.750   3.945  0.0455  0.4545 -1.1603
  838MOL0     O10514  10.172  -0.726   3.833  0.8956  0.1557 -0.4457
  838MOL0     C10515  10.302  -0.694   3.829  0.1897  0.5705 -0.0114
  838MOL0     C10516  10.366  -0.617   3.929  0.5826  0.5485  0.5150
  838MOL0     C10517  10.495  -0.572   3.917  0.7451  0.1497 -0.2817
  838MOL0     C10518  10.568  -0.589   3.799  0.1418  0.2107  0.2646
  838MOL0     O10519  10.703  -0.546   3.790 -0.2170 -0.0664  0.7271
  838MOL0     C10520  10.787  -0.541   3.911  0.5666  0.2886 -0.5523
  838MOL0     C10521  10.936  -0.562   3.890 -0.4771  0.0335 -0.4997
  838MOL0     C10522  11.024  -0.437   3.831 -0.2198  0.5574 -0.1876
  838MOL0     C10523  11.167  -0.490   3.831 -0.0651 -0.2165  0.6646
  838MOL0     C10524  11.269  -0.377   3.795 -0.5940  0.6860  0.2870
  838MOL0     C10525  11.410  -0.434   3.760  0.3084 -0.6584  0.5183
  838MOL0     C10526  11.524  -0.336   3.777 -0.1134 -0.4251 -0.6704
  838MOL0     C10527  11.652  -0.416   3.724  0.7031 -0.6065 -0.6806
  838MOL0    Cl10528  11.787  -0.300   3.728 -0.1936 -0.2449 -0.4556
  838MOL0     C10529  10.507  -0.660   3.697  0.7396  1.1061 -0.2601
  838MOL0     C10530  10.375  -0.713   3.711  0.1248  0.1638  0.1233
  838MOL0     O10531  10.133  -0.769   4.062  0.7639 -0.1201 -0.0754
  838MOL0     C10532   9.865  -0.827   4.018 -0.4819  0.5199  0.4064
  838MOL0     C10533   9.732  -0.840   3.980 -0.9561 -0.1053 -0.1344
  838MOL0     N10534   9.321  -0.362   3.763 -0.2284 -0.2401  0.5582
  838MOL0     N10535   9.240  -0.254   3.772 -0.9113  0.3474  0.1864
  838MOL0     C10536   8.514   0.037   3.229 -0.1055 -0.0875 -0.3751
  838MOL0     C10537   8.599   0.109   3.152 -0.1317  0.8032 -0.8820
  838MOL0     C10538   8.996   0.320   3.009  0.1282  0.6529  0.0626
  838MOL0     C10539   9.127   0.318   2.964  0.5829 -0.0609  0.0436
  838MOL0     C10540   9.176   0.441   2.917  0.5892  0.3906  0.0865
  838MOL0     C10541   9.092   0.552   2.880 -0.1514 -0.0962 -0.2719
  838MOL0     O10542   9.129   0.659   2.799  0.4690  0.3081 -0.8908
  838MOL0     C10543   9.267   0.680   2.764 -0.3768  0.6840  0.5222
  838MOL0     C10544   9.340   0.598   2.657  0.3348 -0.1965 -0.6840
  838MOL0     C10545   9.251   0.612   2.532 -0.1390  0.8368  0.1404
  838MOL0     C10546   9.345   0.585   2.411  0.4160  0.5199 -0.6862
  838MOL0     C10547   9.286   0.643   2.287 -0.2842  0.3254 -0.6137
  838MOL0     C10548   9.243   0.676   2.189  0.0026  0.2206  0.3048
  838MOL0     C10549   8.958   0.547   2.915 -0.1219  0.3504 -0.5211
  838MOL0     C10550   8.910   0.429   2.983  0.1712  0.1054  0.0327
  838MOL0     H10551   8.904   0.015   3.271  0.9032  0.9295 -0.1283
  838MOL0     H10552   8.737  -0.137   3.405  3.6318  1.7928  1.0378
  838MOL0     H10553   8.593  -0.176   3.573 -0.6383 -2.9893 -0.4001
  838MOL0     H10554   8.419  -0.219   3.584 -2.1648  0.9065 -0.4015
  838MOL0     H10555   8.351   0.012   3.595  0.0072 -0.3791  0.0299
  838MOL0     H10556   8.517   0.072   3.581  3.5987 -0.2524  5.3424
  838MOL0     H10557   8.381  -0.070   3.813 -1.0131 -0.0802 -2.4357
  838MOL0     H10558   8.486   0.077   3.797  0.0837  0.5980 -3.5974
  838MOL0     H10559   8.596  -0.123   3.919 -0.4135 -4.0628  0.1978
  838MOL0     H10560   8.588  -0.222   3.781  0.1624  0.4777 -0.8192
  838MOL0     H10561   8.688   0.063   3.787  1.8993  0.5424  0.2793
  838MOL0     H10562   8.742  -0.053   3.665  1.4094  1.8201 -0.2139
  838MOL0     H10563   8.826  -0.047   3.947 -4.3363  2.5317 -1.1847
  838MOL0     H10564   8.928   0.013   3.809  2.9585 -3.1289 -1.7724
  838MOL0     H10565   8.847  -0.269   3.832  2.0698 -1.2972  1.2330
  838MOL0     H10566   8.955  -0.197   3.706  2.5019  3.3428 -0.0105
  838MOL0     H10567   9.029  -0.237   3.996  0.1676 -1.5287 -0.1519
  838MOL0     H10568   9.098  -0.112   3.898  1.4823 -1.3237 -1.0519
  838MOL0     H10569   9.053  -0.478   3.909  0.5578  1.4599  3.8022
  838MOL0     H10570   9.248  -0.679   3.854  0.5175  0.9179  2.0639
  838MOL0     H10571   9.405  -0.604   3.887  0.6851 -0.8474 -1.5141
  838MOL0     H10572   9.459  -0.602   3.648 -0.3516  1.0199  1.5740
  838MOL0     H10573   9.288  -0.625   3.604  0.2981 -1.3102  0.1798
  838MOL0     H10574   9.298  -0.867   3.708 -0.6885  1.0262 -0.4927
  838MOL0     H10575   9.366  -0.847   3.557  1.3860  0.5239  0.2163
  838MOL0     H10576   9.583  -0.815   3.617 -3.6225  4.8356 -2.0546
  838MOL0     H10577   9.524  -0.965   3.690 -1.7244  0.1988  1.0285
  838MOL0     H10578   9.715  -0.681   3.690 -0.3083 -2.0148 -1.6483
  838MOL0     H10579   9.948  -0.641   3.741 -0.4930 -0.0329 -1.0733
  838MOL0     H10580  10.312  -0.584   4.017  1.5349  2.9643  0.2649
  838MOL0     H10581  10.533  -0.524   4.007  0.6834  3.1206 -1.7010
  838MOL0     H10582  10.745  -0.627   3.964 -3.6092  2.8655  0.8287
  838MOL0     H10583  10.777  -0.447   3.965  3.7380  1.3119 -1.5235
  838MOL0     H10584  10.946  -0.646   3.821  0.3689 -1.8775  1.8441
  838MOL0     H10585  10.981  -0.601   3.981 -2.9536  1.4163  1.4369
  838MOL0     H10586  11.016  -0.355   3.903  0.5092 -0.2024  0.7813
  838MOL0     H10587  10.997  -0.403   3.731  2.3797  1.7320 -0.5714
  838MOL0     H10588  11.197  -0.545   3.920  1.3807  1.2889  1.1639
  838MOL0     H10589  11.173  -0.560   3.747 -0.0138  1.7391 -1.0316
  838MOL0     H10590  11.284  -0.302   3.873  0.2559  2.4899 -1.5201
  838MOL0     H10591  11.219  -0.337   3.706 -0.6762 -3.9571 -2.1040
  838MOL0     H10592  11.408  -0.442   3.651  0.1029 -1.0162  0.5487
  838MOL0     H10593  11.440  -0.523   3.816  2.6785 -0.1064  0.2122
  838MOL0     H10594  11.512  -0.248   3.713 -0.3852 -1.2488 -1.7721
  838MOL0     H10595  11.520  -0.303   3.882  1.5894 -5.4002  1.2601
  838MOL0     H10596  11.635  -0.452   3.623  0.5033  0.3742 -1.0062
  838MOL0     H10597  11.670  -0.499   3.793 -0.6937 -0.0339  0.4350
  838MOL0     H10598  10.558  -0.691   3.607 -1.2213 -1.1616 -0.7208
  838MOL0     H10599  10.334  -0.764   3.624  0.0269 -0.7233  0.6796
  838MOL0     H10600   9.907  -0.871   4.108 -2.8694  1.4506  2.0909
  838MOL0     H10601   9.678  -0.893   4.057  1.3971 -2.0489  0.3120
  838MOL0     H10602   8.410   0.055   3.203  0.1411  2.4809  0.1452
  838MOL0     H10603   8.553   0.164   3.070  0.8485  1.6197 -0.8996
  838MOL0     H10604   9.197   0.235   2.970 -2.1043 -2.5537 -0.7139
  838MOL0     H10605   9.278   0.444   2.880  0.2693 -4.5391 -1.8602
  838MOL0     H10606   9.327   0.665   2.854 -0.9281 -1.9562  0.5247
  838MOL0     H10607   9.294   0.783   2.739  2.5191  1.0120  4.2294
  838MOL0     H10608   9.448   0.613   2.650  0.2685 -0.5314 -3.8121
  838MOL0     H10609   9.339   0.495   2.694 -2.5309 -0.9234 -2.4754
  838MOL0     H10610   9.199   0.706   2.512  0.3439  0.7156 -1.8673
  838MOL0     H10611   9.178   0.531   2.534  0.9666 -0.1966 -0.1451
  838MOL0     H10612   9.444   0.627   2.428  1.4845 -1.0325 -2.6661
  838MOL0     H10613   9.352   0.478   2.391 -0.2125  0.1403  0.9881
  838MOL0     H10614   9.215   0.722   2.096  2.7977  3.0102  0.6575
  838MOL0     H10615   8.897   0.634   2.895 -1.0166  0.7652  3.2274
  838MOL0     H10616   8.812   0.445   3.028 -0.5404  1.4993 -1.8976
  839MOL0     O10617   3.109   0.654   1.610  0.5659 -0.3296 -0.1822
  839MOL0     C10618   3.078   0.618   1.726 -0.4366 -0.3530  0.7334
  839MOL0     O10619   3.027   0.503   1.760  0.8429  0.5351 -0.5054
  839MOL0     C10620   3.018   0.392   1.677  0.8822 -0.1641  0.1886
  839MOL0     C10621   2.909   0.308   1.688 -0.1024 -0.8227  0.8096
  839MOL0     C10622   2.889   0.207   1.595 -0.2940 -0.4647  0.6555
  839MOL0     C10623   2.984   0.186   1.492 -0.5792 -0.1086 -0.2361
  839MOL0     O10624   2.961   0.078   1.414 -0.4711 -0.4751 -0.4377
  839MOL0     C10625   3.072  -0.015   1.382 -0.2495 -0.5744  0.7226
  839MOL0     C10626   3.092  -0.114   1.483 -0.8736  0.0811 -0.7317
  839MOL0     C10627   2.962  -0.131   1.571  0.8250 -0.4319 -0.5112
  839MOL0     C10628   2.963  -0.275   1.628  0.2269  0.1685  0.3186
  839MOL0     C10629   2.849  -0.317   1.728  0.6052 -0.7255  0.3227
  839MOL0     C10630   2.883  -0.247   1.859 -0.5824 -0.0953  0.0688
  839MOL0     C10631   2.800  -0.297   1.971  0.7237 -0.9356  0.7781
  839MOL0     C10632   2.644  -0.255   1.966 -0.0234  0.0678  0.0758
  839MOL0     N10633   2.565  -0.347   2.049 -0.5516 -0.4301  0.8236
  839MOL0     C10634   2.527  -0.470   1.995  0.1028 -0.1053 -0.4303
  839MOL0     C10635   2.471  -0.526   2.104  0.1948  0.2002 -0.6331
  839MOL0     C10636   2.412  -0.660   2.101  0.7596  0.1993  0.1966
  839MOL0     C10637   2.260  -0.663   2.096  0.9056 -0.0841  0.3604
  839MOL0     C10638   2.209  -0.649   2.241 -0.5962 -0.1017 -0.9040
  839MOL0     C10639   2.051  -0.645   2.254  0.0860 -0.9420  1.0776
  839MOL0     O10640   1.999  -0.763   2.195 -0.1426 -0.2136 -0.5047
  839MOL0     C10641   1.861  -0.781   2.183  1.1153  0.4365 -0.1426
  839MOL0     C10642   1.820  -0.903   2.132  0.2937  0.3605  1.0540
  839MOL0     C10643   1.687  -0.948   2.141  0.2572  0.3226 -0.2021
  839MOL0     C10644   1.598  -0.866   2.210  0.4347  0.0603  0.0634
  839MOL0     C10645   1.458  -0.896   2.213 -0.7017 -0.2935 -0.0308
  839MOL0     O10646   1.386  -0.840   2.321 -0.7229 -0.7047  0.2333
  839MOL0     C10647   1.258  -0.882   2.343 -0.4689 -0.0575 -0.3141
  839MOL0     C10648   1.163  -0.784   2.336  0.0173  0.2669 -1.2888
  839MOL0     C10649   1.029  -0.820   2.332 -0.6773  0.0685 -0.2149
  839MOL0     C10650   0.987  -0.955   2.336  0.0165 -0.1325  0.6625
  839MOL0     O10651   0.862  -0.991   2.297 -0.3367  0.2491 -0.6904
  839MOL0     C10652   0.785  -1.008   2.414 -0.6490 -0.1753  0.0675
  839MOL0     C10653   0.705  -1.140   2.390  0.4961 -0.9668  0.2332
  839MOL0     C10654   0.636  -1.178   2.514 -1.1310  0.3463 -0.1323
  839MOL0     C10655   0.581  -1.319   2.517 -0.0873  0.1095 -0.0763
  839MOL0     C10656   0.479  -1.343   2.639  0.7725  0.0528 -0.1856
  839MOL0     C10657   0.396  -1.474   2.616  0.1335  0.5877  0.3092
  839MOL0     C10658   0.250  -1.474   2.681  0.0057  0.2557  0.1291
  839MOL0     C10659   0.256  -1.524   2.828  0.0278 -1.1995 -0.0915
  839MOL0    Cl10660   0.373  -1.444   2.924 -0.0820 -0.3799  0.3598
  839MOL0     C10661   1.092  -1.057   2.350  0.7127 -0.7884  0.4227
  839MOL0     C10662   1.227  -1.015   2.356 -0.1188  0.1853  0.7873
  839MOL0     O10663   1.412  -0.973   2.134  0.1106 -0.4850  0.2566
  839MOL0     C10664   1.641  -0.746   2.269 -0.0832 -1.1310 -0.2070
  839MOL0     C10665   1.772  -0.698   2.259 -0.1369 -0.2739 -0.1754
  839MOL0     N10666   2.487  -0.445   2.218  0.5605  0.7843  0.3039
  839MOL0     N10667   2.554  -0.340   2.180  0.6096 -0.5474 -0.4662
  839MOL0     C10668   3.100   0.274   1.490 -0.2841 -0.1638 -0.3938
  839MOL0     C10669   3.127   0.364   1.597  0.0668  0.7963  0.5167
  839MOL0     C10670   3.094   0.699   1.847 -0.1330 -0.5284 -0.2376
  839MOL0     C10671   3.089   0.831   1.828 -0.4640 -0.1774  0.2513
  839MOL0     C10672   3.109   0.922   1.927  0.1375 -0.3664 -0.1522
  839MOL0     C10673   3.129   0.889   2.060  0.5283 -0.7513  1.5828
  839MOL0     O10674   3.144   0.987   2.156  0.6463 -0.1501 -0.2540
  839MOL0     C10675   3.222   0.963   2.272  0.5083  0.5104  0.2391
  839MOL0     C10676   3.369   0.990   2.234  0.2119  0.4614 -0.2310
  839MOL0     C10677   3.487   0.929   2.319 -0.0451 -0.9085  0.2996
  839MOL0     C10678   3.464   0.922   2.461 -0.2315 -0.6895  0.5512
  839MOL0     C10679   3.587   0.877   2.536  0.8546 -0.0914  0.1605
  839MOL0     C10680   3.692   0.864   2.590  0.2077 -0.0696  0.8122
  839MOL0     C10681   3.130   0.752   2.074  0.4129  0.2171 -0.1642
  839MOL0     C10682   3.110   0.660   1.973  0.5937 -0.7800  0.3816
  839MOL0     H10683   2.836   0.332   1.765 -1.6362  1.8010 -1.2899
  839MOL0     H10684   2.809   0.135   1.606  0.6496 -1.8817 -1.2416
  839MOL0     H10685   3.161   0.045   1.362 -0.7805 -0.0335 -0.1506
  839MOL0     H10686   3.051  -0.064   1.286 -3.5672  0.7104  0.6645
  839MOL0     H10687   3.178  -0.097   1.550 -1.6828  1.1944  0.0667
  839MOL0     H10688   3.111  -0.199   1.417 -2.7181 -1.7423  0.9486
  839MOL0     H10689   2.865  -0.106   1.527 -2.0948  2.4352  6.0418
  839MOL0     H10690   2.958  -0.060   1.654 -2.1933  0.4255 -1.2604
  839MOL0     H10691   2.965  -0.337   1.538  1.2977  1.4718 -0.5933
  839MOL0     H10692   3.057  -0.298   1.678  0.1495 -1.1541 -0.1171
  839MOL0     H10693   2.841  -0.425   1.740 -1.3398 -0.7058 -0.3839
  839MOL0     H10694   2.757  -0.281   1.681  2.4068  0.5189 -2.5502
  839MOL0     H10695   2.881  -0.138   1.854 -1.0479 -0.1347 -0.5934
  839MOL0     H10696   2.979  -0.285   1.896 -0.3554  2.8925  3.0208
  839MOL0     H10697   2.803  -0.406   1.972  0.2409 -1.0261 -1.5485
  839MOL0     H10698   2.838  -0.259   2.066 -0.7805 -1.9834  1.8525
  839MOL0     H10699   2.606  -0.265   1.864  0.9637 -1.6616 -0.1664
  839MOL0     H10700   2.641  -0.152   2.003  4.1564 -0.3931  2.2375
  839MOL0     H10701   2.534  -0.510   1.894  1.2587  2.5911 -1.5077
  839MOL0     H10702   2.445  -0.713   2.191 -4.1931  1.2868  3.0186
  839MOL0     H10703   2.467  -0.706   2.019  3.5471  2.9058  0.3685
  839MOL0     H10704   2.248  -0.758   2.043  2.9281  0.4708 -1.2246
  839MOL0     H10705   2.226  -0.576   2.038  4.3651  1.4913  0.4420
  839MOL0     H10706   2.251  -0.735   2.296  0.7126  0.7734 -0.4906
  839MOL0     H10707   2.246  -0.563   2.298 -3.7054  0.3227  0.6629
  839MOL0     H10708   2.013  -0.565   2.190  0.4144 -0.7177  1.1555
  839MOL0     H10709   2.018  -0.614   2.354 -1.0921 -2.6724  1.2601
  839MOL0     H10710   1.889  -0.984   2.109 -0.9966 -0.3353 -0.6659
  839MOL0     H10711   1.656  -1.043   2.098  0.7981  0.6015 -1.2561
  839MOL0     H10712   1.205  -0.684   2.346  2.2718 -0.5804 -1.8466
  839MOL0     H10713   0.956  -0.740   2.327 -1.9487 -0.8158  2.4020
  839MOL0     H10714   0.726  -0.917   2.429  0.9030  0.8518  0.1308
  839MOL0     H10715   0.845  -1.033   2.502  2.4235  0.1450 -1.8256
  839MOL0     H10716   0.762  -1.228   2.358  1.0596 -0.8108  0.7783
  839MOL0     H10717   0.634  -1.114   2.311 -1.2462 -1.7574  1.4950
  839MOL0     H10718   0.554  -1.105   2.519 -0.6443  0.8286  1.2523
  839MOL0     H10719   0.707  -1.180   2.597 -1.5071 -3.2092  0.2496
  839MOL0     H10720   0.523  -1.326   2.424 -0.7802 -0.2646  0.3814
  839MOL0     H10721   0.664  -1.390   2.516 -1.9213 -2.2516  2.8938
  839MOL0     H10722   0.409  -1.259   2.638  0.5019 -0.1080  1.8261
  839MOL0     H10723   0.528  -1.349   2.736 -0.4589  0.6637  0.4978
  839MOL0     H10724   0.458  -1.559   2.645  0.7476  0.5232 -1.1187
  839MOL0     H10725   0.377  -1.488   2.509  2.6876  3.2578 -0.6300
  839MOL0     H10726   0.210  -1.372   2.678 -1.2188 -0.2141 -0.0940
  839MOL0     H10727   0.182  -1.534   2.620 -0.1679 -0.6980  1.2325
  839MOL0     H10728   0.281  -1.630   2.829 -1.5492 -1.6605  2.9677
  839MOL0     H10729   0.163  -1.505   2.882  0.3458 -0.1484  0.1301
  839MOL0     H10730   1.073  -1.163   2.343  2.8962 -1.2499  1.0365
  839MOL0     H10731   1.311  -1.081   2.372 -0.0267  0.4823  1.5337
  839MOL0     H10732   1.577  -0.683   2.329 -1.6441 -0.0766 -2.7901
  839MOL0     H10733   1.803  -0.620   2.327  2.1959 -1.5242  0.2993
  839MOL0     H10734   3.173   0.266   1.411 -1.6223  0.8073 -1.7754
  839MOL0     H10735   3.213   0.428   1.613 -0.9791  2.3066  0.3038
  839MOL0     H10736   3.068   0.865   1.727  0.3923  2.5798  0.9073
  839MOL0     H10737   3.122   1.028   1.906  4.3655 -0.3943  1.2716
  839MOL0     H10738   3.227   0.863   2.318  2.3665  0.1118 -0.7586
  839MOL0     H10739   3.177   1.028   2.348  0.7524 -0.6556  1.4132
  839MOL0     H10740   3.382   0.967   2.128 -0.6632  0.9243 -0.4448
  839MOL0     H10741   3.380   1.098   2.240  0.6231  0.7702 -4.1836
  839MOL0     H10742   3.576   0.981   2.286 -1.5276 -1.1984 -4.9957
  839MOL0     H10743   3.500   0.823   2.295  0.9720 -1.3595  2.5574
  839MOL0     H10744   3.457   1.021   2.508  1.7461 -0.3170  0.1348
  839MOL0     H10745   3.376   0.861   2.484 -1.6414 -0.9297 -4.3397
  839MOL0     H10746   3.792   0.848   2.625  2.4531  2.8448 -3.3538
  839MOL0     H10747   3.147   0.709   2.172 -3.3625  0.1613  0.6367
  839MOL0     H10748   3.116   0.557   2.006  0.2163 -0.5638  1.1487
  840MOL0     O10749   3.736  10.731   3.076  0.0164  0.7705  0.5674
  840MOL0     C10750   3.717  10.847   3.110  0.7055  0.7522 -0.5334
  840MOL0     O10751   3.810  10.951   3.082 -0.1579  0.6722  0.8100
  840MOL0     C10752   3.928  10.928   3.009  0.3807  0.8263 -0.4217
  840MOL0     C10753   3.999  11.048   2.987 -0.6324 -0.4664  0.3478
  840MOL0     C10754   4.108  11.048   2.894 -0.8225 -0.9300 -0.6548
  840MOL0     C10755   4.138  10.937   2.815  0.4378 -0.5339  0.6363
  840MOL0     O10756   4.229  10.963   2.716 -0.3794  0.2072 -0.9058
  840MOL0     C10757   4.191  10.916   2.581  0.0605 -0.1204 -0.4201
  840MOL0     C10758   4.314  10.839   2.523  0.2861  0.2714 -0.3290
  840MOL0     C10759   4.294  10.772   2.385  0.0939 -0.4462 -0.1839
  840MOL0     C10760   4.416  10.687   2.345  1.1590  0.1114 -0.5022
  840MOL0     C10761   4.397  10.626   2.206 -0.0491  0.5259 -0.5830
  840MOL0     C10762   4.512  10.516   2.196 -0.4118  0.0606  0.0568
  840MOL0     C10763   4.529  10.465   2.052 -0.4475  0.8978 -0.6981
  840MOL0     C10764   4.670  10.391   2.037  0.3370  0.2407 -0.2771
  840MOL0     N10765   4.675  10.290   1.928  0.0059  0.5431 -0.2447
  840MOL0     C10766   4.622  10.155   1.934 -0.2906 -0.4663 -0.2317
  840MOL0     C10767   4.602  10.124   1.808 -0.1027  0.5712  0.3734
  840MOL0     C10768   4.534   9.997   1.761  0.2825 -0.4496  0.0172
  840MOL0     C10769   4.388  10.014   1.712  0.2093 -0.0281 -0.3338
  840MOL0     C10770   4.281   9.968   1.819 -0.3496  0.9693  0.4080
  840MOL0     C10771   4.274  10.050   1.944  0.1540  0.1867 -0.3169
  840MOL0     O10772   4.345   9.982   2.050 -0.0084 -0.1476 -0.7385
  840MOL0     C10773   4.288   9.985   2.175  1.1331  0.3154 -0.5357
  840MOL0     C10774   4.276  10.101   2.243  0.5716  0.0556 -0.6188
  840MOL0     C10775   4.210  10.098   2.365 -0.4230  0.5962 -0.3472
  840MOL0     C10776   4.156   9.983   2.415 -0.5963  0.6869 -1.1908
  840MOL0     C10777   4.076   9.994   2.534 -0.0930  0.7589 -1.1811
  840MOL0     O10778   4.033   9.870   2.584  0.5228 -0.1194  0.0854
  840MOL0     C10779   3.968   9.865   2.705 -0.8365 -0.5226  0.2007
  840MOL0     C10780   3.858   9.785   2.695  0.4172  0.6441  0.2894
  840MOL0     C10781   3.764   9.766   2.801  0.5115  0.4308 -0.3999
  840MOL0     C10782   3.774   9.836   2.917  0.6604  0.0772 -0.2341
  840MOL0     O10783   3.679   9.818   3.008 -0.0950 -0.7210 -0.1635
  840MOL0     C10784   3.725   9.787   3.136 -0.1212  0.4803  0.0842
  840MOL0     C10785   3.615   9.702   3.198  0.0078 -0.7128 -0.8630
  840MOL0     C10786   3.573   9.587   3.102  0.4460 -0.8221 -0.9063
  840MOL0     C10787   3.473   9.484   3.154 -0.3729  0.1385  1.4092
  840MOL0     C10788   3.531   9.390   3.252  0.6832 -0.1604 -0.0247
  840MOL0     C10789   3.423   9.309   3.331 -0.4884  0.0472  0.2743
  840MOL0     C10790   3.472   9.195   3.421 -0.5299 -0.0969 -0.9953
  840MOL0     C10791   3.373   9.094   3.488 -0.3605  0.4801  0.8100
  840MOL0    Cl10792   3.262   9.185   3.598 -0.4114  0.2143  0.2275
  840MOL0     C10793   3.884   9.920   2.922  0.8338  0.5688 -0.5581
  840MOL0     C10794   3.978   9.943   2.825  0.7751 -0.1887  1.5368
  840MOL0     O10795   4.034  10.104   2.573 -0.1313  0.6670 -0.1508
  840MOL0     C10796   4.165   9.856   2.345 -0.4066 -0.4929 -0.9086
  840MOL0     C10797   4.244   9.857   2.228 -0.0826  0.1725  0.8508
  840MOL0     N10798   4.662  10.222   1.731  0.1693  1.0585 -0.1926
  840MOL0     N10799   4.686  10.323   1.797  0.3390 -0.0314 -0.3500
  840MOL0     C10800   4.074  10.825   2.841 -0.7905 -0.7017 -0.1033
  840MOL0     C10801   3.981  10.813   2.945  1.2915 -0.5211  1.0921
  840MOL0     C10802   3.587  10.869   3.189 -0.2293 -0.1597 -0.6640
  840MOL0     C10803   3.483  10.768   3.191 -0.4063  0.6782 -0.0335
  840MOL0     C10804   3.352  10.815   3.219 -0.3015  0.1903 -0.2290
  840MOL0     C10805   3.315  10.939   3.262 -0.0349 -0.6606 -0.5739
  840MOL0     O10806   3.180  10.967   3.274  0.1103  0.6591  0.1690
  840MOL0     C10807   3.143  11.106   3.308  0.5699 -0.1939  0.4533
  840MOL0     C10808   2.994  11.114   3.359  0.4431  0.6110  0.4734
  840MOL0     C10809   2.976  11.028   3.490 -0.3538 -0.2835  0.4302
  840MOL0     C10810   2.825  11.007   3.528  0.2653  0.2824 -0.6912
  840MOL0     C10811   2.822  10.938   3.663 -0.0620 -1.1663  0.3115
  840MOL0     C10812   2.836  10.869   3.761 -0.0032 -0.7268  1.1615
  840MOL0     C10813   3.421  11.034   3.282 -0.1226  0.0730 -0.1428
  840MOL0     C10814   3.550  10.998   3.240 -0.6111 -0.4161  0.6606
  840MOL0     H10815   3.969  11.140   3.036 -0.1386 -0.3174  0.3837
  840MOL0     H10816   4.143  11.144   2.858 -0.9978 -0.1239  1.2046
  840MOL0     H10817   4.158  10.985   2.503 -0.5218 -1.7585 -1.6855
  840MOL0     H10818   4.104  10.851   2.590 -1.7982  2.2909 -0.0469
  840MOL0     H10819   4.353  10.768   2.596  3.5593  0.1265 -2.0516
  840MOL0     H10820   4.401  10.903   2.505  0.2290  0.2149 -0.8281
  840MOL0     H10821   4.272  10.845   2.306 -1.7355  1.3815  1.8767
  840MOL0     H10822   4.206  10.712   2.408 -0.1829  0.1373  0.3051
  840MOL0     H10823   4.509  10.744   2.350  0.9256  0.4086  3.0097
  840MOL0     H10824   4.428  10.597   2.406 -0.9264  1.2060  1.7010
  840MOL0     H10825   4.411  10.699   2.126  4.9830 -1.1490 -1.5843
  840MOL0     H10826   4.303  10.570   2.211 -1.1953  1.7559  7.9741
  840MOL0     H10827   4.489  10.428   2.257  0.8035  1.4777  2.7021
  840MOL0     H10828   4.604  10.561   2.233 -0.9494 -0.9696  2.9031
  840MOL0     H10829   4.442  10.408   2.020 -1.7249  1.6949  1.1608
  840MOL0     H10830   4.517  10.556   1.993 -1.5347  1.9250  1.0171
  840MOL0     H10831   4.682  10.343   2.134 -1.9279 -0.9879 -0.5461
  840MOL0     H10832   4.743  10.472   2.030 -0.4654  1.0565  0.4906
  840MOL0     H10833   4.577  10.100   2.015 -1.7616 -0.0751 -0.7545
  840MOL0     H10834   4.547   9.912   1.830 -1.2550 -1.1664 -0.5390
  840MOL0     H10835   4.575   9.972   1.663  1.0622 -0.5918  0.3710
  840MOL0     H10836   4.373   9.962   1.616 -2.7591 -0.0874  0.0527
  840MOL0     H10837   4.365  10.119   1.694 -4.0951 -0.1019  3.1057
  840MOL0     H10838   4.183   9.988   1.775  0.4367  3.9309 -0.2661
  840MOL0     H10839   4.287   9.861   1.840 -0.4566  0.9527  0.3523
  840MOL0     H10840   4.170  10.066   1.974  0.4388  1.1144  0.2315
  840MOL0     H10841   4.322  10.147   1.931  0.4657  0.1099  0.2438
  840MOL0     H10842   4.313  10.192   2.196 -0.7342  0.9896  0.0759
  840MOL0     H10843   4.215  10.197   2.407  1.2556  2.0568 -3.6534
  840MOL0     H10844   3.856   9.733   2.600 -0.0096  1.3986 -0.1230
  840MOL0     H10845   3.677   9.708   2.771  0.5397 -0.2726  0.8167
  840MOL0     H10846   3.747   9.874   3.199 -0.5246  1.1422 -0.6582
  840MOL0     H10847   3.817   9.728   3.133  1.2350  2.4491  0.7470
  840MOL0     H10848   3.532   9.759   3.241 -1.4358 -4.5817  2.0905
  840MOL0     H10849   3.657   9.653   3.286 -0.4770 -0.0137 -0.2239
  840MOL0     H10850   3.662   9.533   3.068  0.3454 -1.1994 -0.5737
  840MOL0     H10851   3.521   9.630   3.015 -1.5628  3.8918  2.2245
  840MOL0     H10852   3.385   9.534   3.196 -1.6081  0.3018 -1.1782
  840MOL0     H10853   3.437   9.422   3.072 -0.8470  1.7742  0.3356
  840MOL0     H10854   3.597   9.455   3.310  1.9604 -3.3512  2.4259
  840MOL0     H10855   3.610   9.327   3.209 -0.0924  1.9285 -5.3000
  840MOL0     H10856   3.367   9.253   3.255  0.3866 -2.0841  1.1016
  840MOL0     H10857   3.353   9.369   3.389 -0.1727 -0.9626  1.7508
  840MOL0     H10858   3.548   9.137   3.367  2.8894  1.2824  1.9175
  840MOL0     H10859   3.536   9.236   3.500  1.0438 -0.5550 -1.9881
  840MOL0     H10860   3.429   9.016   3.541  1.6041  1.5960  0.4913
  840MOL0     H10861   3.310   9.038   3.419 -0.7055 -2.5385  3.3674
  840MOL0     H10862   3.891   9.982   3.011 -1.2169 -0.1188  0.1508
  840MOL0     H10863   4.053  10.020   2.839 -0.5079  1.0617  1.7703
  840MOL0     H10864   4.121   9.763   2.378 -1.0088 -1.5866 -4.3727
  840MOL0     H10865   4.247   9.770   2.163 -1.0586  3.5968 -4.4165
  840MOL0     H10866   4.114  10.742   2.784 -0.0204  1.6488 -3.2432
  840MOL0     H10867   3.959  10.707   2.939  1.7935 -0.5407 -2.4749
  840MOL0     H10868   3.501  10.664   3.168  0.2752  0.6814  0.4658
  840MOL0     H10869   3.268  10.746   3.217  1.3264 -2.0502  2.1145
  840MOL0     H10870   3.145  11.166   3.217 -2.5514  2.5522  1.9855
  840MOL0     H10871   3.206  11.155   3.382 -0.3833  1.4762  0.2121
  840MOL0     H10872   2.961  11.218   3.370 -0.5428  0.4528 -0.7770
  840MOL0     H10873   2.922  11.080   3.285 -0.3410 -2.4253  2.4143
  840MOL0     H10874   3.039  11.083   3.560 -1.3024  1.3238  0.0518
  840MOL0     H10875   3.015  10.930   3.459 -2.4656 -1.6212  1.6837
  840MOL0     H10876   2.776  11.104   3.523  0.8289  0.5298 -1.9846
  840MOL0     H10877   2.768  10.946   3.456 -2.4009  1.8054  0.0110
  840MOL0     H10878   2.839  10.806   3.848 -0.3019  0.8905  2.4028
  840MOL0     H10879   3.402  11.139   3.301 -0.1065  0.0566 -0.0412
  840MOL0     H10880   3.613  11.086   3.235  1.5323 -1.8594  0.9866
  841MOL0     O10881   8.947   9.012   8.363 -0.4348  0.1367 -0.5706
  841MOL0     C10882   8.890   9.082   8.446 -0.1495 -0.3833  0.2890
  841MOL0     O10883   8.764   9.070   8.484  0.0026  0.9120 -0.2612
  841MOL0     C10884   8.688   8.963   8.437  0.1459  0.0126  0.3600
  841MOL0     C10885   8.650   8.858   8.533 -0.2361 -0.9794  0.7578
  841MOL0     C10886   8.573   8.751   8.482 -0.0104  0.2983  0.1428
  841MOL0     C10887   8.535   8.734   8.354  0.0511 -0.2952 -0.6065
  841MOL0     O10888   8.447   8.633   8.308  0.0837  0.0288  0.2353
  841MOL0     C10889   8.383   8.561   8.409 -0.4188  0.1484  0.8713
  841MOL0     C10890   8.266   8.493   8.337  0.4669 -0.1220 -0.3803
  841MOL0     C10891   8.198   8.377   8.416  0.7519 -0.7133  0.6027
  841MOL0     C10892   8.187   8.400   8.568  0.6748 -0.1142  0.1902
  841MOL0     C10893   8.110   8.283   8.633 -0.2815 -0.7014  0.0316
  841MOL0     C10894   8.098   8.289   8.781 -0.2370 -0.4454 -0.1375
  841MOL0     C10895   8.034   8.164   8.849 -0.2364 -0.9030 -0.5948
  841MOL0     C10896   8.137   8.053   8.854  1.0623  0.4166 -0.1714
  841MOL0     N10897   8.103   7.936   8.948 -0.2493 -0.1295  0.1819
  841MOL0     C10898   7.987   7.855   8.932  0.0362 -1.2565 -0.8447
  841MOL0     C10899   7.982   7.776   9.043 -0.2104 -0.4959  0.5533
  841MOL0     C10900   7.874   7.679   9.065  0.0238 -0.5125  0.0329
  841MOL0     C10901   7.831   7.689   9.218 -0.4779  0.1095  1.0386
  841MOL0     C10902   7.702   7.599   9.217  0.0315  1.0346 -0.4334
  841MOL0     C10903   7.647   7.584   9.355 -0.0682 -0.2345  0.2960
  841MOL0     O10904   7.621   7.717   9.406  0.6734 -0.1866 -0.4190
  841MOL0     C10905   7.620   7.716   9.546  0.0550 -0.0066  0.2008
  841MOL0     C10906   7.741   7.751   9.603  0.3035  0.0518 -0.1960
  841MOL0     C10907   7.761   7.735   9.737  0.1263  0.3548  0.3437
  841MOL0     C10908   7.654   7.695   9.826 -0.0194  0.1930  0.1534
  841MOL0     C10909   7.670   7.665   9.967 -0.4085 -0.3541 -0.0677
  841MOL0     O10910   7.800   7.669  10.006  0.5030  0.3312 -0.0602
  841MOL0     C10911   7.848   7.649  10.131  0.1001  0.0955 -1.0112
  841MOL0     C10912   7.770   7.666  10.252  0.1223 -0.1549  0.3320
  841MOL0     C10913   7.828   7.663  10.380  0.8272  0.1791  0.2293
  841MOL0     C10914   7.964   7.631  10.389 -0.2527 -0.3077  0.0027
  841MOL0     O10915   8.031   7.620  10.515 -0.6424  0.4870  0.9588
  841MOL0     C10916   7.968   7.682  10.627 -0.7399 -0.2452  0.8351
  841MOL0     C10917   8.078   7.729  10.724  0.2625  0.6558  0.4433
  841MOL0     C10918   8.014   7.807  10.839  0.0058 -0.0946 -0.4041
  841MOL0     C10919   8.118   7.840  10.952 -0.4448 -0.1646  0.8642
  841MOL0     C10920   8.060   7.859  11.091  0.1266  0.4368 -0.4710
  841MOL0     C10921   7.977   7.984  11.102 -0.7665 -0.5713  0.4513
  841MOL0     C10922   7.941   8.019  11.253  0.3448 -0.8620 -0.0504
  841MOL0     C10923   7.822   8.112  11.281  0.1062 -0.8618 -0.5603
  841MOL0    Cl10924   7.865   8.271  11.201 -0.5305  0.4660  0.4570
  841MOL0     C10925   8.043   7.605  10.276 -0.5455 -0.7776 -0.5142
  841MOL0     C10926   7.989   7.629  10.146  0.9232 -0.5332  0.3325
  841MOL0     O10927   7.572   7.614  10.025  0.6432  0.6846  0.2517
  841MOL0     C10928   7.527   7.668   9.766 -0.1924  0.4031 -0.2979
  841MOL0     C10929   7.514   7.662   9.628 -1.2098 -0.1671 -0.1454
  841MOL0     N10930   8.094   7.805   9.115 -0.1130  0.8272 -0.5388
  841MOL0     N10931   8.171   7.898   9.064  0.2396  0.4411 -0.2237
  841MOL0     C10932   8.568   8.841   8.262  0.0276 -1.0239 -0.3277
  841MOL0     C10933   8.647   8.960   8.301  0.0285  0.3945 -0.7610
  841MOL0     C10934   8.966   9.177   8.520 -0.0522  0.5317 -0.0213
  841MOL0     C10935   9.090   9.218   8.470  0.2703 -0.5519  0.4791
  841MOL0     C10936   9.162   9.318   8.539 -0.0171 -0.5447  0.5274
  841MOL0     C10937   9.117   9.376   8.660 -0.4231  0.7388  0.4756
  841MOL0     O10938   9.191   9.472   8.725 -0.6467  0.4936  0.1900
  841MOL0     C10939   9.203   9.598   8.652 -0.0610  0.0175 -0.8119
  841MOL0     C10940   9.154   9.721   8.737 -0.2762  0.1732 -0.0570
  841MOL0     C10941   9.016   9.703   8.797  0.3081  0.2710  0.4465
  841MOL0     C10942   8.965   9.831   8.854 -0.3699  0.6763 -0.0223
  841MOL0     C10943   8.842   9.824   8.926  0.5777  0.2372 -0.8174
  841MOL0     C10944   8.741   9.819   8.995  0.9534 -0.0879 -1.1029
  841MOL0     C10945   9.004   9.322   8.716 -0.5097  1.1409 -0.2116
  841MOL0     C10946   8.924   9.234   8.648  0.0426  1.0281  0.0369
  841MOL0     H10947   8.672   8.879   8.637  1.9301  0.9438 -0.0014
  841MOL0     H10948   8.545   8.676   8.555 -0.8954 -0.7181 -1.1976
  841MOL0     H10949   8.334   8.625   8.483 -2.5521  1.2670 -1.3950
  841MOL0     H10950   8.449   8.487   8.455  0.1387  0.9054  1.3087
  841MOL0     H10951   8.287   8.456   8.237 -0.3877  0.1297 -0.6604
  841MOL0     H10952   8.195   8.573   8.316  0.1851 -0.3360 -0.2549
  841MOL0     H10953   8.257   8.287   8.395 -0.4774 -1.8689  1.8760
  841MOL0     H10954   8.100   8.363   8.371  0.2204 -0.3848  1.6339
  841MOL0     H10955   8.294   8.411   8.589  0.7412  3.9460 -1.2958
  841MOL0     H10956   8.130   8.492   8.589  1.1187  0.9795 -2.8672
  841MOL0     H10957   8.142   8.186   8.591  0.1288  0.7411 -3.3622
  841MOL0     H10958   8.010   8.289   8.589  0.1128  0.3526 -0.7684
  841MOL0     H10959   8.042   8.377   8.813  1.5372  1.7515 -2.5915
  841MOL0     H10960   8.195   8.319   8.821 -1.1162  2.1943  0.2246
  841MOL0     H10961   8.006   8.188   8.952  1.3489  0.1777 -0.3759
  841MOL0     H10962   7.941   8.138   8.798 -1.3728  2.5087 -0.5520
  841MOL0     H10963   8.233   8.100   8.878  0.2963  0.9057  2.2904
  841MOL0     H10964   8.142   8.014   8.752 -0.5662 -2.7202  0.8001
  841MOL0     H10965   7.922   7.843   8.846  0.0611 -0.9500 -0.9064
  841MOL0     H10966   7.899   7.577   9.038  1.2671  0.5213 -3.1879
  841MOL0     H10967   7.797   7.713   8.995 -3.0903 -0.4082  3.2216
  841MOL0     H10968   7.818   7.796   9.239  1.0716  0.9471 -1.7802
  841MOL0     H10969   7.910   7.659   9.286 -0.0403 -3.9477 -0.9731
  841MOL0     H10970   7.629   7.650   9.153  0.2092 -0.9014 -2.2774
  841MOL0     H10971   7.718   7.503   9.168 -0.0868  0.7173  0.1429
  841MOL0     H10972   7.730   7.541   9.411  2.5108  1.3338 -2.0561
  841MOL0     H10973   7.554   7.527   9.356 -0.2351 -0.0628 -1.5903
  841MOL0     H10974   7.818   7.785   9.534 -2.6427  2.3025 -2.6961
  841MOL0     H10975   7.861   7.757   9.775 -0.3824  2.5412  0.5811
  841MOL0     H10976   7.662   7.678  10.250  0.2545  1.2042  0.6804
  841MOL0     H10977   7.760   7.663  10.465 -1.8170 -0.7197 -1.7630
  841MOL0     H10978   7.909   7.603  10.674 -0.1205 -1.4625 -0.3529
  841MOL0     H10979   7.897   7.762  10.602 -0.8536  0.0012  1.9071
  841MOL0     H10980   8.145   7.788  10.662  1.5592 -1.9561 -0.8173
  841MOL0     H10981   8.148   7.649  10.750  4.9974  3.0973 -3.2410
  841MOL0     H10982   7.930   7.747  10.875 -0.3720 -1.7290 -3.7050
  841MOL0     H10983   7.973   7.902  10.804  1.7129  1.1754  0.8165
  841MOL0     H10984   8.185   7.753  10.959 -1.8074 -1.3986 -0.5655
  841MOL0     H10985   8.173   7.928  10.916 -0.6408  1.4635  4.1604
  841MOL0     H10986   8.146   7.878  11.156 -1.3176  1.2888  1.2998
  841MOL0     H10987   8.013   7.766  11.124  0.1365  0.2237 -1.0504
  841MOL0     H10988   7.886   7.988  11.041 -2.6304  3.3236  3.0468
  841MOL0     H10989   8.037   8.069  11.069 -2.8791  2.4234  3.5510
  841MOL0     H10990   7.915   7.930  11.310 -0.9019 -0.8071 -0.4829
  841MOL0     H10991   8.019   8.076  11.303 -1.6832  1.2187  0.9816
  841MOL0     H10992   7.809   8.110  11.390 -2.1188 -2.2116 -0.7817
  841MOL0     H10993   7.728   8.073  11.240  0.8885 -0.8171 -2.4748
  841MOL0     H10994   8.143   7.566  10.290 -0.9721 -2.4137 -1.6554
  841MOL0     H10995   8.037   7.614  10.050 -0.0405  0.6507 -0.3644
  841MOL0     H10996   7.434   7.642   9.817 -1.6839  0.6022 -2.7568
  841MOL0     H10997   7.418   7.629   9.591 -0.9873 -0.8568 -0.1229
  841MOL0     H10998   8.524   8.819   8.165 -0.7622  1.3084 -0.5658
  841MOL0     H10999   8.676   9.037   8.230  1.1658 -0.2865 -1.0638
  841MOL0     H11000   9.129   9.190   8.373 -1.9822  1.1703 -1.0137
  841MOL0     H11001   9.257   9.336   8.489  0.0809 -4.6949 -1.1226
  841MOL0     H11002   9.143   9.603   8.561 -0.4752  1.8056 -0.4778
  841MOL0     H11003   9.310   9.607   8.629  0.7225 -2.1241  1.5188
  841MOL0     H11004   9.219   9.727   8.825 -3.0872 -1.2839  2.2755
  841MOL0     H11005   9.168   9.811   8.676 -3.2398  1.7662  1.3825
  841MOL0     H11006   9.030   9.628   8.876 -3.7860 -3.3624 -1.8145
  841MOL0     H11007   8.953   9.665   8.716  1.0861  1.6161 -0.8277
  841MOL0     H11008   9.041   9.874   8.920 -0.4903 -0.9019  1.2090
  841MOL0     H11009   8.953   9.901   8.771 -2.4926 -0.5319 -0.8102
  841MOL0     H11010   8.648   9.824   9.048  0.5802 -0.3273 -1.7189
  841MOL0     H11011   8.980   9.365   8.813 -2.4696  0.8546 -0.5144
  841MOL0     H11012   8.826   9.214   8.690  0.3543 -1.0478 -0.1238
  842MOL0     O11013   5.103   5.854   4.517 -0.5882 -0.9306  0.1475
  842MOL0     C11014   5.000   5.787   4.485 -0.3537 -0.7217 -0.5878
  842MOL0     O11015   4.995   5.650   4.504 -0.8756 -0.0887 -0.0911
  842MOL0     C11016   5.105   5.565   4.504 -0.1779  0.2285  0.4818
  842MOL0     C11017   5.069   5.429   4.521  1.1424  0.0621 -0.0717
  842MOL0     C11018   5.170   5.331   4.543 -0.7725  0.7454  0.2404
  842MOL0     C11019   5.298   5.367   4.531  0.5257 -0.2584 -0.4898
  842MOL0     O11020   5.391   5.263   4.559 -0.3359  0.9348 -0.7288
  842MOL0     C11021   5.519   5.256   4.481 -0.2227  0.2097  0.6732
  842MOL0     C11022   5.628   5.158   4.535 -0.8782 -0.2118  0.4438
  842MOL0     C11023   5.738   5.131   4.429 -0.0546 -0.2250 -0.1442
  842MOL0     C11024   5.824   5.017   4.495 -0.0301 -0.1566  0.8838
  842MOL0     C11025   5.923   4.962   4.397 -0.8434  0.2315  0.6418
  842MOL0     C11026   5.973   4.833   4.444  0.8027  0.3196  0.3622
  842MOL0     C11027   6.050   4.830   4.582 -0.4231 -0.0342 -0.8390
  842MOL0     C11028   6.080   4.674   4.605 -0.9087  0.2177  0.7424
  842MOL0     N11029   6.164   4.614   4.497  0.1478  0.7515 -0.2826
  842MOL0     C11030   6.281   4.670   4.448  0.3366 -0.0557 -0.1826
  842MOL0     C11031   6.311   4.590   4.345  0.4565  0.4816 -0.1511
  842MOL0     C11032   6.416   4.606   4.239  0.5225  0.1962 -0.1659
  842MOL0     C11033   6.360   4.691   4.120  0.7646  0.4200  0.6624
  842MOL0     C11034   6.363   4.839   4.159  0.2875  0.0129  0.2710
  842MOL0     C11035   6.327   4.905   4.027 -0.0106  0.2520 -0.4765
  842MOL0     O11036   6.313   5.052   4.058  0.4920  0.4651  0.1759
  842MOL0     C11037   6.196   5.100   4.095 -0.4183  0.1471 -0.3484
  842MOL0     C11038   6.069   5.073   4.050  0.2471 -0.2602  0.9336
  842MOL0     C11039   5.950   5.153   4.092 -0.4765 -0.5290  0.5969
  842MOL0     C11040   5.975   5.255   4.179  0.1244  0.1099 -0.5214
  842MOL0     C11041   5.874   5.347   4.223  1.2698 -0.0696 -0.0819
  842MOL0     O11042   5.905   5.449   4.302  0.0512 -0.3953 -0.3630
  842MOL0     C11043   5.821   5.561   4.341  1.1461 -0.5561  0.8166
  842MOL0     C11044   5.811   5.579   4.477  0.5617  0.1737  0.3618
  842MOL0     C11045   5.706   5.672   4.513  0.3593  0.7743 -0.0346
  842MOL0     C11046   5.629   5.752   4.423  0.8027 -0.1102  0.2087
  842MOL0     O11047   5.539   5.847   4.456  0.6055 -0.4371 -0.1771
  842MOL0     C11048   5.545   5.900   4.589 -1.5964  0.4850 -0.1758
  842MOL0     C11049   5.460   6.014   4.603 -0.5089  0.1310 -0.3096
  842MOL0     C11050   5.479   6.084   4.735  0.5661 -0.5462  0.4263
  842MOL0     C11051   5.381   6.206   4.742 -0.2354  0.3921  0.0073
  842MOL0     C11052   5.365   6.251   4.887 -0.6575  0.0128 -0.4295
  842MOL0     C11053   5.256   6.353   4.905 -0.7712  0.1747  0.0944
  842MOL0     C11054   5.238   6.391   5.055  0.2037 -0.0155  0.4997
  842MOL0     C11055   5.103   6.444   5.083 -0.0794  0.7923 -0.6048
  842MOL0    Cl11056   5.050   6.584   4.980  0.2048  0.0638 -0.1706
  842MOL0     C11057   5.663   5.724   4.284  0.2113  0.0773  0.1135
  842MOL0     C11058   5.748   5.624   4.244  1.1108  0.1913 -0.0395
  842MOL0     O11059   5.763   5.336   4.169  0.8182 -0.7424 -0.9425
  842MOL0     C11060   6.103   5.281   4.231 -0.1672  0.4148 -0.0244
  842MOL0     C11061   6.207   5.204   4.184 -0.5182 -0.8969 -0.1620
  842MOL0     N11062   6.218   4.498   4.337 -0.8429 -0.6896 -0.8362
  842MOL0     N11063   6.129   4.506   4.426 -0.6275  0.8942 -0.2442
  842MOL0     C11064   5.338   5.503   4.493 -0.5424 -0.2104  0.5558
  842MOL0     C11065   5.240   5.599   4.493 -0.7611  0.2073  0.7933
  842MOL0     C11066   4.874   5.839   4.443  0.4324 -0.0811  0.0988
  842MOL0     C11067   4.845   5.978   4.446 -0.4035  0.3339 -0.0523
  842MOL0     C11068   4.720   6.031   4.402 -0.7703  0.7700 -0.0426
  842MOL0     C11069   4.619   5.945   4.346  0.2149 -0.2726  0.5694
  842MOL0     O11070   4.514   6.009   4.295 -0.5626 -0.5341  0.7895
  842MOL0     C11071   4.407   5.930   4.254  0.9229 -0.6224  0.0326
  842MOL0     C11072   4.282   6.023   4.254  0.1383 -0.2858  0.6356
  842MOL0     C11073   4.165   5.950   4.176 -0.5464 -0.2690 -0.2965
  842MOL0     C11074   4.027   6.007   4.209 -0.6169 -0.1073 -0.5557
  842MOL0     C11075   3.931   5.939   4.114 -0.2940 -0.2927 -0.3500
  842MOL0     C11076   3.863   5.870   4.038 -0.3412  0.2456 -0.9692
  842MOL0     C11077   4.643   5.801   4.346  0.4809  0.9638 -0.3727
  842MOL0     C11078   4.772   5.757   4.401 -0.0210  0.5967  0.5098
  842MOL0     H11079   4.963   5.406   4.527  1.3222 -0.7559  0.1313
  842MOL0     H11080   5.155   5.226   4.565  0.4909  1.0979  3.1890
  842MOL0     H11081   5.571   5.347   4.451  3.0496 -2.0133 -0.9716
  842MOL0     H11082   5.489   5.221   4.382  2.8983  3.8568 -1.8347
  842MOL0     H11083   5.579   5.065   4.564  2.2268 -1.9033  0.6965
  842MOL0     H11084   5.676   5.199   4.624 -0.7670  1.2853 -0.2751
  842MOL0     H11085   5.789   5.227   4.419 -1.9466  0.8076 -0.2608
  842MOL0     H11086   5.705   5.086   4.335  2.9893 -2.5968 -0.2464
  842MOL0     H11087   5.872   5.046   4.589  4.8449 -2.2570 -0.6232
  842MOL0     H11088   5.759   4.939   4.536  1.4062 -0.5320  2.6261
  842MOL0     H11089   6.009   5.028   4.383  2.4053 -3.8922 -1.2741
  842MOL0     H11090   5.865   4.956   4.304 -0.0951 -3.0388  0.2377
  842MOL0     H11091   6.046   4.785   4.379  3.9102  1.7877  2.4794
  842MOL0     H11092   5.886   4.767   4.446  1.6863 -0.9087 -0.5880
  842MOL0     H11093   6.144   4.885   4.579 -1.5407  1.9908 -0.3222
  842MOL0     H11094   5.998   4.870   4.669 -0.2304 -1.9300  0.1941
  842MOL0     H11095   5.987   4.617   4.608 -0.0247 -1.2830  0.7020
  842MOL0     H11096   6.123   4.657   4.704 -0.3374  0.7508  0.5895
  842MOL0     H11097   6.344   4.753   4.477  3.2274 -2.4383  1.0083
  842MOL0     H11098   6.431   4.507   4.194 -2.5862  0.6804 -2.5991
  842MOL0     H11099   6.510   4.640   4.283 -1.1838  2.5513  1.9455
  842MOL0     H11100   6.257   4.656   4.111  0.9664  0.1928 -1.0490
  842MOL0     H11101   6.412   4.665   4.027  0.0995  0.3735  0.2991
  842MOL0     H11102   6.278   4.849   4.227 -1.6200 -2.5029 -1.5424
  842MOL0     H11103   6.455   4.874   4.206  0.4206  0.6768 -0.4611
  842MOL0     H11104   6.237   4.859   3.983 -0.4941 -0.0744  0.8063
  842MOL0     H11105   6.410   4.890   3.958  0.6258 -1.4208  0.6043
  842MOL0     H11106   6.065   5.005   3.966  0.6763  1.8975 -0.9257
  842MOL0     H11107   5.859   5.144   4.034 -0.1427 -0.7641  0.1060
  842MOL0     H11108   5.867   5.521   4.549  2.5716  1.5323 -0.0281
  842MOL0     H11109   5.674   5.668   4.617 -0.7057  0.1064 -0.3700
  842MOL0     H11110   5.650   5.925   4.610 -0.9352  0.8442 -3.3625
  842MOL0     H11111   5.520   5.815   4.652  2.3189  0.1123  1.1551
  842MOL0     H11112   5.355   5.988   4.585  0.2364 -2.8483 -0.9365
  842MOL0     H11113   5.482   6.094   4.532 -3.8482  1.5123  0.0246
  842MOL0     H11114   5.579   6.126   4.742  1.7554 -2.4838 -2.7529
  842MOL0     H11115   5.467   6.013   4.817 -2.6983 -0.9775 -0.2676
  842MOL0     H11116   5.427   6.287   4.684  0.3689 -0.6532 -1.0048
  842MOL0     H11117   5.284   6.178   4.700  0.1114  0.1794 -0.6567
  842MOL0     H11118   5.467   6.279   4.914  0.3392 -4.1205  0.9036
  842MOL0     H11119   5.345   6.156   4.938  1.2243  0.2222  0.8219
  842MOL0     H11120   5.161   6.314   4.867 -2.4933 -1.4076  5.1426
  842MOL0     H11121   5.294   6.439   4.849  0.7865 -1.2022 -1.0433
  842MOL0     H11122   5.242   6.298   5.113 -1.7451 -0.2985  0.2439
  842MOL0     H11123   5.317   6.453   5.097  0.3526  1.6266 -1.9519
  842MOL0     H11124   5.091   6.478   5.186  0.9057  4.1924 -1.4769
  842MOL0     H11125   5.034   6.367   5.048  2.1790 -1.7539  0.2193
  842MOL0     H11126   5.611   5.789   4.214 -2.2037 -1.3619  0.4538
  842MOL0     H11127   5.757   5.591   4.141 -3.2403 -1.1585 -0.1666
  842MOL0     H11128   6.129   5.370   4.287  0.9148 -0.1981  0.4825
  842MOL0     H11129   6.311   5.227   4.201 -0.0531 -1.4808 -2.0031
  842MOL0     H11130   5.441   5.534   4.482 -0.1639 -1.5193  0.2039
  842MOL0     H11131   5.272   5.702   4.478  1.1330 -0.4169  0.2521
  842MOL0     H11132   4.920   6.046   4.485  0.0343  0.8850 -1.7627
  842MOL0     H11133   4.714   6.140   4.401  2.1437  1.0016 -1.3521
  842MOL0     H11134   4.400   5.854   4.333  1.8223 -0.2808  0.4589
  842MOL0     H11135   4.418   5.891   4.153  2.4541 -2.3431  0.8081
  842MOL0     H11136   4.255   6.044   4.358 -0.6613  1.4183  0.1125
  842MOL0     H11137   4.306   6.116   4.201 -0.5988 -2.2357 -3.5740
  842MOL0     H11138   4.181   5.846   4.209  0.6590  0.1682  0.5474
  842MOL0     H11139   4.170   5.949   4.067 -1.7098 -2.4523 -0.3880
  842MOL0     H11140   3.982   5.983   4.306  0.8996  0.8922  0.4445
  842MOL0     H11141   4.037   6.115   4.192 -0.9969 -0.2142 -1.5211
  842MOL0     H11142   3.800   5.800   3.988  0.9707 -1.4332 -0.3980
  842MOL0     H11143   4.577   5.732   4.294  1.2018 -0.0237  0.0040
  842MOL0     H11144   4.786   5.650   4.399  0.5662  0.6628  0.8243
  843MOL0     O11145   5.824   4.552   0.610 -0.7377 -0.2100  0.7902
  843MOL0     C11146   5.937   4.515   0.571 -0.2091 -0.4952  0.1699
  843MOL0     O11147   5.999   4.403   0.604  0.4878 -0.3070 -0.1985
  843MOL0     C11148   5.932   4.298   0.660  0.0141 -0.7549  0.4937
  843MOL0     C11149   5.906   4.289   0.798 -0.1029 -0.6170  0.4189
  843MOL0     C11150   5.864   4.168   0.844  0.7977 -0.9394  0.0621
  843MOL0     C11151   5.831   4.059   0.771  0.0568 -0.7705 -0.6184
  843MOL0     O11152   5.784   3.943   0.816  0.1051  0.1586 -0.7830
  843MOL0     C11153   5.700   3.934   0.934 -0.5051 -0.1561 -1.2281
  843MOL0     C11154   5.562   4.013   0.925  0.8194 -0.1040  0.0200
  843MOL0     C11155   5.471   4.001   1.047  0.3936  0.1689 -0.6273
  843MOL0     C11156   5.352   4.102   1.029 -0.3365  0.6146  0.0899
  843MOL0     C11157   5.246   4.078   1.130 -0.1372  0.7649 -0.6259
  843MOL0     C11158   5.283   4.136   1.268 -0.0703  1.1062 -0.4240
  843MOL0     C11159   5.151   4.198   1.343 -0.0914 -0.3029 -0.3366
  843MOL0     C11160   5.045   4.078   1.356  1.1102  0.5031  0.1303
  843MOL0     N11161   4.938   4.128   1.444 -0.2304  0.1563  0.0777
  843MOL0     C11162   4.955   4.139   1.584  0.8637  0.2230  1.0515
  843MOL0     C11163   4.864   4.240   1.622 -0.0272 -0.4077  0.2345
  843MOL0     C11164   4.845   4.286   1.761  0.0064  0.2855  0.1918
  843MOL0     C11165   4.696   4.314   1.784 -0.1768 -0.8313 -0.1367
  843MOL0     C11166   4.606   4.200   1.772 -0.7544  0.3494  0.7011
  843MOL0     C11167   4.473   4.242   1.822  0.0962  0.3045  0.1283
  843MOL0     O11168   4.389   4.133   1.820 -0.5401  0.2139  0.4087
  843MOL0     C11169   4.262   4.132   1.887 -0.5879  0.2763 -0.3730
  843MOL0     C11170   4.208   4.244   1.939  0.3263  0.2638 -0.0113
  843MOL0     C11171   4.092   4.223   2.005  0.5945 -0.2156 -0.0122
  843MOL0     C11172   4.024   4.104   2.008 -0.4098 -1.0554 -0.4982
  843MOL0     C11173   3.895   4.098   2.086 -0.4978 -0.2704 -0.5297
  843MOL0     O11174   3.824   3.979   2.069 -0.1850 -0.3265 -0.5409
  843MOL0     C11175   3.709   3.958   2.128 -0.7675 -0.2071  1.5326
  843MOL0     C11176   3.688   3.822   2.157  0.7737 -0.2080  0.2156
  843MOL0     C11177   3.564   3.778   2.199  0.5125  1.0565  1.2467
  843MOL0     C11178   3.459   3.867   2.206  1.0082  0.9073 -0.3572
  843MOL0     O11179   3.327   3.829   2.227  0.3300 -0.2124  0.3871
  843MOL0     C11180   3.300   3.805   2.368 -0.0942 -0.2110 -0.5831
  843MOL0     C11181   3.155   3.763   2.393 -0.4756  0.2762  0.8337
  843MOL0     C11182   3.067   3.873   2.323 -0.0903  0.3432  0.2693
  843MOL0     C11183   2.925   3.843   2.350 -0.4319  0.1805  0.7373
  843MOL0     C11184   2.829   3.943   2.295 -0.2911 -1.4557 -0.3150
  843MOL0     C11185   2.687   3.915   2.337 -0.3620  0.1012 -0.6901
  843MOL0     C11186   2.586   4.031   2.311 -0.9625 -0.5464 -0.0455
  843MOL0     C11187   2.598   4.157   2.382 -0.0101  0.4408  0.0339
  843MOL0    Cl11188   2.458   4.254   2.361  0.6250  0.2803 -0.3524
  843MOL0     C11189   3.477   4.001   2.183 -1.0238 -1.0135 -0.4142
  843MOL0     C11190   3.606   4.048   2.138  0.4055 -0.0520 -0.6711
  843MOL0     O11191   3.855   4.195   2.147 -0.2126  0.2074  0.5010
  843MOL0     C11192   4.073   3.991   1.943  0.4978 -0.8120  0.2534
  843MOL0     C11193   4.193   4.001   1.878 -0.1506  0.2970 -0.2809
  843MOL0     N11194   4.802   4.288   1.507 -0.4908  0.2643 -0.4952
  843MOL0     N11195   4.848   4.223   1.406 -0.9141  0.2816 -0.4706
  843MOL0     C11196   5.847   4.072   0.634 -0.3493 -0.1386 -0.3377
  843MOL0     C11197   5.887   4.192   0.574 -0.2633 -1.0996  0.0859
  843MOL0     C11198   6.015   4.627   0.497  0.3394  0.7958  0.6461
  843MOL0     C11199   5.960   4.752   0.463 -0.0802 -0.1814  1.0522
  843MOL0     C11200   6.034   4.846   0.396 -0.1447 -0.5274 -0.1215
  843MOL0     C11201   6.161   4.816   0.342  0.2601 -0.3453  0.7850
  843MOL0     O11202   6.217   4.928   0.278  0.1947  0.2205 -0.0311
  843MOL0     C11203   6.337   4.917   0.203  0.2019 -0.1760  0.9080
  843MOL0     C11204   6.463   4.940   0.282  1.0611 -0.1988  0.9338
  843MOL0     C11205   6.480   5.077   0.355  0.1163 -0.2091 -0.0646
  843MOL0     C11206   6.528   5.194   0.268  0.3263 -1.0483  0.4596
  843MOL0     C11207   6.652   5.159   0.199 -0.1713 -0.0714 -0.9470
  843MOL0     C11208   6.740   5.100   0.141  0.5433 -0.0093 -0.7833
  843MOL0     C11209   6.224   4.691   0.387 -0.2586 -0.1365  0.1844
  843MOL0     C11210   6.151   4.607   0.466 -0.8575  0.3794  0.0163
  843MOL0     H11211   5.952   4.365   0.861  0.1232  0.7838 -1.3470
  843MOL0     H11212   5.834   4.155   0.947 -1.4498  2.4552 -0.0070
  843MOL0     H11213   5.751   3.971   1.023  1.2740  0.9554 -2.6398
  843MOL0     H11214   5.669   3.832   0.960 -0.0799 -0.1449 -0.6659
  843MOL0     H11215   5.505   3.980   0.838  1.4694 -0.6880 -0.1934
  843MOL0     H11216   5.600   4.115   0.911  3.9254 -0.8612  1.8333
  843MOL0     H11217   5.523   4.019   1.142 -0.8719 -1.3918  0.4074
  843MOL0     H11218   5.431   3.900   1.055  0.2388  0.1868 -1.1453
  843MOL0     H11219   5.388   4.203   1.048 -0.5898  0.3728  1.9928
  843MOL0     H11220   5.310   4.082   0.930 -1.9895 -0.3515  0.9348
  843MOL0     H11221   5.219   3.973   1.144  0.2002  0.8044  0.4197
  843MOL0     H11222   5.153   4.130   1.107 -0.9321  0.0898  0.9440
  843MOL0     H11223   5.364   4.208   1.262  1.0031  0.3294  2.7758
  843MOL0     H11224   5.325   4.056   1.330 -0.2712  0.9484 -0.4895
  843MOL0     H11225   5.177   4.228   1.445 -1.1307 -0.1484 -0.1088
  843MOL0     H11226   5.105   4.280   1.287  1.2634  1.3461  0.8622
  843MOL0     H11227   5.073   3.986   1.408 -1.8600 -2.9356 -3.7327
  843MOL0     H11228   5.007   4.040   1.261 -0.7992 -1.4641  1.5828
  843MOL0     H11229   5.023   4.076   1.639  2.6692  0.2799 -0.9793
  843MOL0     H11230   4.903   4.376   1.785  1.6523 -0.5525 -0.5688
  843MOL0     H11231   4.871   4.212   1.837 -0.0654 -0.5921 -0.6222
  843MOL0     H11232   4.657   4.399   1.727 -2.3944 -0.1237  2.2744
  843MOL0     H11233   4.696   4.348   1.888  0.9418 -2.4950  0.4607
  843MOL0     H11234   4.595   4.165   1.669 -0.9136 -1.5122  1.3121
  843MOL0     H11235   4.639   4.112   1.829  0.8493  1.1568  1.0773
  843MOL0     H11236   4.427   4.320   1.761  2.0961  1.4030 -0.0438
  843MOL0     H11237   4.487   4.289   1.920  3.7681  1.5870 -0.8347
  843MOL0     H11238   4.247   4.345   1.942  0.7470  0.2518 -2.4536
  843MOL0     H11239   4.048   4.307   2.057  2.6651 -0.0807  1.6482
  843MOL0     H11240   3.770   3.755   2.135 -0.0643 -0.9759 -0.6436
  843MOL0     H11241   3.535   3.674   2.208  1.9447  0.6342  1.2577
  843MOL0     H11242   3.316   3.902   2.417 -0.0997 -0.1542 -0.6958
  843MOL0     H11243   3.355   3.728   2.423  0.2824  0.9103  0.6837
  843MOL0     H11244   3.127   3.756   2.498 -0.1040  2.5374  1.1358
  843MOL0     H11245   3.156   3.668   2.339  0.7600  0.4006  0.6049
  843MOL0     H11246   3.084   3.870   2.215 -1.0636  0.7464  0.0945
  843MOL0     H11247   3.094   3.976   2.350  0.0436  0.4102 -0.1015
  843MOL0     H11248   2.905   3.740   2.317 -2.1362  0.1837  1.6337
  843MOL0     H11249   2.908   3.836   2.458  1.7352 -0.4867  1.0775
  843MOL0     H11250   2.827   3.949   2.186 -1.9184 -2.2354 -0.3714
  843MOL0     H11251   2.864   4.042   2.326  1.4156 -2.3352  0.7369
  843MOL0     H11252   2.676   3.900   2.444 -0.0675 -0.4080 -0.7292
  843MOL0     H11253   2.659   3.820   2.291  3.4219 -0.1310 -2.9689
  843MOL0     H11254   2.587   4.048   2.203  2.4105  1.3525  0.1420
  843MOL0     H11255   2.490   3.981   2.329 -0.9447 -0.9974 -1.1446
  843MOL0     H11256   2.681   4.220   2.348  0.2447  1.1210  1.7969
  843MOL0     H11257   2.613   4.147   2.490 -2.6268 -1.3543  0.3357
  843MOL0     H11258   3.393   4.070   2.190 -0.7306 -0.7688  1.0309
  843MOL0     H11259   3.623   4.151   2.109 -1.0196  0.1398 -0.8868
  843MOL0     H11260   4.028   3.893   1.939  0.1695 -0.8359  3.0532
  843MOL0     H11261   4.239   3.916   1.829 -0.9765 -2.7150  3.6543
  843MOL0     H11262   5.826   3.993   0.563  0.5509  1.4634 -2.5057
  843MOL0     H11263   5.892   4.207   0.467 -1.1818  1.7421  0.3536
  843MOL0     H11264   5.858   4.775   0.492  1.1800  2.3233  3.9693
  843MOL0     H11265   5.981   4.940   0.383 -0.3404 -0.3777  1.4714
  843MOL0     H11266   6.330   4.988   0.120 -0.5498  0.8511  1.8231
  843MOL0     H11267   6.337   4.818   0.156  0.2062  0.2120  0.0886
  843MOL0     H11268   6.456   4.860   0.356 -0.3009  0.1670  1.2372
  843MOL0     H11269   6.549   4.922   0.217 -0.8872  3.0661 -2.9893
  843MOL0     H11270   6.560   5.054   0.426 -0.5398  0.7890  1.0554
  843MOL0     H11271   6.388   5.109   0.406  1.1261  1.3889  0.8514
  843MOL0     H11272   6.450   5.226   0.198  0.3696 -0.9221  0.4675
  843MOL0     H11273   6.538   5.284   0.331 -2.8869  0.7856 -1.3535
  843MOL0     H11274   6.805   5.034   0.087 -0.6424 -2.6037  0.8037
  843MOL0     H11275   6.329   4.674   0.366  0.5079  1.7726  2.0680
  843MOL0     H11276   6.211   4.521   0.494  1.2296  0.8594 -2.5893
  844MOL0     O11277   2.860   0.716   7.996  0.4064 -0.1186  0.1513
  844MOL0     C11278   2.902   0.733   7.880 -0.4959  0.4930  0.5199
  844MOL0     O11279   3.040   0.745   7.837  0.1740  0.0579  0.1730
  844MOL0     C11280   3.138   0.778   7.931 -0.2650  0.5844 -0.0202
  844MOL0     C11281   3.256   0.726   7.891  0.6221  1.0171  0.5214
  844MOL0     C11282   3.370   0.748   7.973 -0.2721 -0.1703 -0.0509
  844MOL0     C11283   3.362   0.823   8.089 -0.4165 -0.0069 -0.0601
  844MOL0     O11284   3.466   0.848   8.177 -0.7918 -0.6729  0.1202
  844MOL0     C11285   3.601   0.806   8.148 -0.4673  0.0596  0.2585
  844MOL0     C11286   3.705   0.885   8.232 -0.4911  0.0576  0.5401
  844MOL0     C11287   3.848   0.873   8.160  0.3737 -0.6316 -0.1896
  844MOL0     C11288   3.964   0.916   8.256 -0.1542  0.0475  0.2317
  844MOL0     C11289   4.108   0.898   8.209  0.0904  0.0566 -0.5922
  844MOL0     C11290   4.200   0.904   8.333 -0.0254  0.6271  0.5444
  844MOL0     C11291   4.343   0.876   8.290  0.4538 -0.4027  0.5882
  844MOL0     C11292   4.420   0.846   8.408 -1.2998  0.4084  0.2109
  844MOL0     N11293   4.567   0.851   8.385  0.5605  0.0646 -0.8404
  844MOL0     C11294   4.632   0.772   8.290 -0.5228 -0.5696 -0.5461
  844MOL0     C11295   4.761   0.806   8.309 -0.4170  0.7630  0.7627
  844MOL0     C11296   4.880   0.739   8.250  0.5380 -0.7082  0.1205
  844MOL0     C11297   5.000   0.838   8.281  0.0275 -0.5289  0.0951
  844MOL0     C11298   5.132   0.792   8.200  0.7821 -0.1976 -0.2267
  844MOL0     C11299   5.169   0.650   8.228 -0.9078  0.1862 -0.2123
  844MOL0     O11300   5.294   0.603   8.175 -0.1750  0.7956  0.0450
  844MOL0     C11301   5.300   0.566   8.040 -0.1404 -0.4379  0.1075
  844MOL0     C11302   5.407   0.491   7.992 -0.0920 -0.2789 -0.3613
  844MOL0     C11303   5.424   0.441   7.865 -0.8245 -0.5078  0.5610
  844MOL0     C11304   5.320   0.469   7.769 -0.6164 -0.6435  0.0932
  844MOL0     C11305   5.334   0.420   7.631 -0.2849  0.1768 -0.4815
  844MOL0     O11306   5.263   0.485   7.535  0.3561  0.0480 -0.0141
  844MOL0     C11307   5.284   0.440   7.407 -0.0690  0.6703 -0.3198
  844MOL0     C11308   5.258   0.303   7.380  0.4494  0.4218  0.8223
  844MOL0     C11309   5.292   0.244   7.260  0.6358  0.6248  0.0486
  844MOL0     C11310   5.334   0.329   7.152 -0.4970 -0.4875 -0.0566
  844MOL0     O11311   5.372   0.289   7.025  0.7275  0.0053 -0.4321
  844MOL0     C11312   5.329   0.163   6.976 -0.7176  0.1759 -0.3303
  844MOL0     C11313   5.293   0.159   6.824  1.0395  0.3736 -0.1424
  844MOL0     C11314   5.390   0.217   6.717  0.1371 -0.5771 -0.0491
  844MOL0     C11315   5.325   0.232   6.579 -0.7348  0.2904  1.0380
  844MOL0     C11316   5.431   0.305   6.488  0.5793  0.7400 -0.0253
  844MOL0     C11317   5.468   0.455   6.533  0.0008  0.8696  0.5210
  844MOL0     C11318   5.396   0.572   6.454 -0.0557 -0.5159 -0.1621
  844MOL0     C11319   5.407   0.701   6.538  0.1961  0.0497  0.6058
  844MOL0    Cl11320   5.314   0.828   6.460 -0.0981 -0.0748  0.5364
  844MOL0     C11321   5.355   0.469   7.170 -0.2268 -0.9692  0.0995
  844MOL0     C11322   5.329   0.522   7.299  0.7797 -0.3832  0.1211
  844MOL0     O11323   5.423   0.336   7.620 -0.1065  0.3799  0.7374
  844MOL0     C11324   5.205   0.543   7.806 -0.0014 -0.6632 -0.4927
  844MOL0     C11325   5.198   0.587   7.941  0.6723 -0.3079  0.2396
  844MOL0     N11326   4.773   0.905   8.399 -1.3562 -0.9610  0.8795
  844MOL0     N11327   4.658   0.937   8.445  0.4427 -0.0097  0.3037
  844MOL0     C11328   3.235   0.875   8.123 -0.2739  0.0824 -1.5916
  844MOL0     C11329   3.123   0.847   8.046  0.2569  0.1383 -0.5193
  844MOL0     C11330   2.803   0.730   7.765 -0.9418  0.1155 -0.0418
  844MOL0     C11331   2.855   0.711   7.639  0.0447 -0.4864 -0.1445
  844MOL0     C11332   2.767   0.707   7.529  0.3147  0.3373 -0.1470
  844MOL0     C11333   2.631   0.716   7.543 -0.7857 -0.3418  0.3028
  844MOL0     O11334   2.567   0.715   7.428  0.3890  0.6973 -0.8393
  844MOL0     C11335   2.420   0.712   7.420 -0.0100 -0.2201 -0.4099
  844MOL0     C11336   2.365   0.568   7.442 -0.3056  0.1252 -0.5677
  844MOL0     C11337   2.209   0.573   7.445  0.7017  0.6426  0.1557
  844MOL0     C11338   2.131   0.448   7.390 -0.1383  0.8246 -0.4313
  844MOL0     C11339   2.175   0.330   7.467  0.2507  0.3711 -0.2333
  844MOL0     C11340   2.219   0.240   7.533  0.7984  0.3880 -0.4000
  844MOL0     C11341   2.578   0.732   7.674 -0.1051  0.4569 -0.9222
  844MOL0     C11342   2.667   0.741   7.785  0.0826  0.2966  0.3862
  844MOL0     H11343   3.266   0.669   7.799  1.6550 -0.2817  1.3941
  844MOL0     H11344   3.470   0.715   7.945 -0.2724 -0.8689  0.7219
  844MOL0     H11345   3.625   0.828   8.043  0.3561  0.0494  0.4420
  844MOL0     H11346   3.611   0.698   8.162  0.5099 -0.0266 -0.9311
  844MOL0     H11347   3.709   0.838   8.331  0.9206 -0.7566  0.1234
  844MOL0     H11348   3.675   0.990   8.230  1.7868  0.7627  0.5429
  844MOL0     H11349   3.839   0.944   8.076  1.8541  0.9670  0.9292
  844MOL0     H11350   3.857   0.768   8.130  1.3718 -0.9474  1.1600
  844MOL0     H11351   3.941   1.023   8.266  0.2148 -0.0040  1.9826
  844MOL0     H11352   3.936   0.857   8.344 -0.6358 -1.0922 -0.6642
  844MOL0     H11353   4.129   0.980   8.140 -3.1366  0.1855 -1.5781
  844MOL0     H11354   4.120   0.805   8.152 -1.6144 -0.2584 -0.4942
  844MOL0     H11355   4.165   0.840   8.415 -2.8678  1.8666  0.4185
  844MOL0     H11356   4.198   1.005   8.374  2.1157  0.0245  2.2877
  844MOL0     H11357   4.340   0.799   8.212  0.1359 -0.8383  1.0171
  844MOL0     H11358   4.380   0.970   8.248  0.2646 -0.6291 -0.1078
  844MOL0     H11359   4.393   0.749   8.453  0.2922 -0.1014  0.1236
  844MOL0     H11360   4.401   0.927   8.479  0.5002  3.3654 -2.4797
  844MOL0     H11361   4.588   0.696   8.227  1.1460 -4.4309  2.5337
  844MOL0     H11362   4.867   0.730   8.142  0.9587  1.1673 -0.1283
  844MOL0     H11363   4.894   0.640   8.295 -1.5457 -0.9882  0.2623
  844MOL0     H11364   5.021   0.832   8.388  1.0474  1.7459  0.0776
  844MOL0     H11365   4.977   0.934   8.234  4.0480  1.4568  1.7484
  844MOL0     H11366   5.118   0.818   8.095 -0.5981  2.2308  0.4801
  844MOL0     H11367   5.221   0.844   8.237 -0.4302  0.2377  2.3196
  844MOL0     H11368   5.083   0.588   8.199 -1.5844  2.0490 -2.4989
  844MOL0     H11369   5.179   0.642   8.337  2.9285  0.7374 -0.3845
  844MOL0     H11370   5.481   0.461   8.066 -1.5005 -2.0022  0.4342
  844MOL0     H11371   5.515   0.390   7.838  0.2178  0.5716  1.8518
  844MOL0     H11372   5.216   0.242   7.459  3.6817 -2.4256  0.5546
  844MOL0     H11373   5.301   0.136   7.246  2.4229  0.1434  3.6939
  844MOL0     H11374   5.237   0.134   7.027  0.6464 -0.3469  1.9996
  844MOL0     H11375   5.402   0.082   6.990 -0.8969 -0.1852 -1.3602
  844MOL0     H11376   5.203   0.221   6.819  0.2331 -0.8715 -1.9591
  844MOL0     H11377   5.259   0.058   6.799 -0.1692  1.1557 -1.8272
  844MOL0     H11378   5.483   0.160   6.733 -0.4282 -0.7553  3.4336
  844MOL0     H11379   5.423   0.316   6.749 -1.6359 -0.1593  0.5712
  844MOL0     H11380   5.298   0.133   6.542 -1.4502  1.4454 -1.7396
  844MOL0     H11381   5.234   0.293   6.579  1.4302  4.0421 -2.5234
  844MOL0     H11382   5.397   0.293   6.384  1.3350 -2.5930  0.0172
  844MOL0     H11383   5.524   0.253   6.507 -0.3956 -0.6846  1.0511
  844MOL0     H11384   5.570   0.458   6.492 -0.7772 -2.9571 -2.2010
  844MOL0     H11385   5.489   0.468   6.640  4.7526 -0.1034 -0.0764
  844MOL0     H11386   5.444   0.590   6.358 -1.5064  3.7141 -0.2790
  844MOL0     H11387   5.288   0.553   6.456 -0.4479  0.6463  5.5548
  844MOL0     H11388   5.509   0.729   6.565  0.5856 -2.0358  1.4924
  844MOL0     H11389   5.360   0.681   6.635 -0.9982  1.3391  0.3248
  844MOL0     H11390   5.387   0.535   7.089 -1.9792  0.3895  0.4419
  844MOL0     H11391   5.346   0.628   7.313  1.9604 -0.0645 -3.1037
  844MOL0     H11392   5.121   0.577   7.746  0.9066  2.5392 -0.1617
  844MOL0     H11393   5.107   0.644   7.955 -0.0340 -1.0627 -1.1032
  844MOL0     H11394   3.219   0.921   8.219 -1.9068  1.6554 -2.5530
  844MOL0     H11395   3.027   0.887   8.075 -0.0917  0.9409 -2.6174
  844MOL0     H11396   2.959   0.688   7.617  0.4081 -1.1378  2.0536
  844MOL0     H11397   2.801   0.699   7.426  1.0497 -0.7462  0.1677
  844MOL0     H11398   2.399   0.755   7.322  0.9325 -1.6887 -1.3000
  844MOL0     H11399   2.384   0.782   7.495 -0.6799  0.4318 -1.3190
  844MOL0     H11400   2.406   0.500   7.367 -0.3006 -1.8987  1.1700
  844MOL0     H11401   2.395   0.523   7.537  0.1894 -2.9235 -2.0395
  844MOL0     H11402   2.174   0.666   7.398  2.1468  2.4007  2.3694
  844MOL0     H11403   2.189   0.559   7.551  0.8777 -3.6319 -0.2050
  844MOL0     H11404   2.022   0.456   7.380  0.0193  0.2591 -3.8330
  844MOL0     H11405   2.175   0.426   7.292  0.2635  0.2108 -0.1198
  844MOL0     H11406   2.238   0.152   7.591 -0.4435 -0.8416 -1.7643
  844MOL0     H11407   2.473   0.719   7.698  0.5169  0.6574  2.4285
  844MOL0     H11408   2.637   0.739   7.889  0.6162 -2.5643  0.5782
  845MOL0     O11409  11.090   2.534   4.295 -0.7057  0.0568 -0.5478
  845MOL0     C11410  11.090   2.422   4.239  0.3879  0.0058  0.0919
  845MOL0     O11411  10.982   2.370   4.167  0.4804  0.5111 -0.5474
  845MOL0     C11412  10.848   2.405   4.172  0.1137 -0.2729  0.0475
  845MOL0     C11413  10.789   2.463   4.287 -0.4378  0.1059 -0.2640
  845MOL0     C11414  10.654   2.497   4.278  0.6405 -0.2291 -0.8378
  845MOL0     C11415  10.583   2.495   4.157  0.0422  0.3844  0.8885
  845MOL0     O11416  10.449   2.521   4.138 -0.2698  0.4285  0.2099
  845MOL0     C11417  10.381   2.589   4.248 -0.3607  0.1682 -0.2802
  845MOL0     C11418  10.238   2.634   4.206 -0.7470 -0.0102 -0.2592
  845MOL0     C11419  10.139   2.559   4.299 -0.2295 -1.1052  0.3241
  845MOL0     C11420  10.005   2.631   4.281  0.1922 -0.2225  0.1098
  845MOL0     C11421   9.907   2.557   4.358 -0.3903  0.4845  0.3875
  845MOL0     C11422   9.771   2.608   4.324 -0.1145 -0.1531  0.0918
  845MOL0     C11423   9.662   2.562   4.424  0.1141  0.0646  0.2762
  845MOL0     C11424   9.608   2.415   4.393 -0.2249 -0.4387 -0.7776
  845MOL0     N11425   9.502   2.380   4.491 -1.8070 -0.2165 -0.9552
  845MOL0     C11426   9.368   2.387   4.465  0.2005 -1.0667  0.3558
  845MOL0     C11427   9.310   2.347   4.580  0.2289  0.0779 -0.5336
  845MOL0     C11428   9.159   2.327   4.616  0.6124  0.1286  0.5378
  845MOL0     C11429   9.116   2.189   4.572 -0.2640  0.2343 -0.0710
  845MOL0     C11430   9.107   2.160   4.422 -0.6392  0.5440  0.0917
  845MOL0     C11431   9.025   2.239   4.326 -0.0440 -0.1000 -0.9187
  845MOL0     O11432   8.882   2.215   4.341  0.6244  0.3622 -0.1381
  845MOL0     C11433   8.799   2.221   4.232  0.0555 -0.2208  0.3963
  845MOL0     C11434   8.840   2.256   4.106 -0.0607  0.1181  0.2405
  845MOL0     C11435   8.744   2.254   3.997  0.1641  0.7334  0.8750
  845MOL0     C11436   8.611   2.205   4.004  1.2688  0.9225  0.9778
  845MOL0     C11437   8.509   2.205   3.897 -0.5491 -0.0270 -1.3855
  845MOL0     O11438   8.384   2.181   3.940 -0.3034 -0.1098 -0.0497
  845MOL0     C11439   8.290   2.150   3.841  0.3366 -0.0341 -0.0522
  845MOL0     C11440   8.312   2.030   3.769  0.2512 -0.5268 -0.1790
  845MOL0     C11441   8.222   1.989   3.676  0.7049  0.5973  0.2815
  845MOL0     C11442   8.099   2.062   3.661  0.2131  0.2826  0.7320
  845MOL0     O11443   7.993   2.019   3.581  0.4116  0.9169  0.6699
  845MOL0     C11444   7.971   1.873   3.571  0.9334  0.6005  0.3186
  845MOL0     C11445   7.959   1.790   3.700  0.2505  0.4053 -0.0046
  845MOL0     C11446   7.842   1.828   3.799  0.3794 -0.2898 -1.4123
  845MOL0     C11447   7.717   1.758   3.763  0.3190 -0.1385 -0.5393
  845MOL0     C11448   7.597   1.811   3.837 -0.4084 -1.3928  0.4234
  845MOL0     C11449   7.570   1.757   3.976 -0.5734  1.5347  0.2294
  845MOL0     C11450   7.426   1.755   4.015 -0.4746  0.9459  0.3968
  845MOL0     C11451   7.407   1.729   4.163  1.0824  0.5301  0.1638
  845MOL0    Cl11452   7.476   1.872   4.261  0.5510  0.0428 -0.1337
  845MOL0     C11453   8.093   2.183   3.723  0.2375 -0.6489  0.5116
  845MOL0     C11454   8.181   2.220   3.812 -0.6447 -0.0150 -0.1232
  845MOL0     O11455   8.551   2.210   3.783 -0.0185 -0.7423 -0.8521
  845MOL0     C11456   8.576   2.167   4.138  0.0990 -1.3806  0.6636
  845MOL0     C11457   8.664   2.183   4.249 -0.0296  0.5642  0.6028
  845MOL0     N11458   9.403   2.335   4.677 -0.4059  0.0966  0.2083
  845MOL0     N11459   9.519   2.349   4.616  0.2259 -0.6813  0.0774
  845MOL0     C11460  10.655   2.449   4.045  0.0332 -0.0226  0.0002
  845MOL0     C11461  10.785   2.407   4.050  0.2088 -0.7729 -0.4785
  845MOL0     C11462  11.220   2.357   4.212 -0.4249  0.6600  1.0011
  845MOL0     C11463  11.339   2.417   4.250 -0.1150  0.6883  0.1545
  845MOL0     C11464  11.466   2.350   4.229  0.6373  0.7373 -0.4231
  845MOL0     C11465  11.470   2.217   4.180  0.9337 -0.5016  0.6011
  845MOL0     O11466  11.580   2.145   4.169  0.4392 -0.1193  0.3038
  845MOL0     C11467  11.706   2.203   4.131  0.4323 -0.9645  0.3009
  845MOL0     C11468  11.805   2.199   4.249 -0.5382 -0.1907 -0.2447
  845MOL0     C11469  11.949   2.206   4.192 -0.3062  0.6732 -0.4921
  845MOL0     C11470  11.974   2.350   4.142  0.8684 -0.5672  0.8047
  845MOL0     C11471  12.118   2.361   4.105  0.7637  0.9537  0.3527
  845MOL0     C11472  12.234   2.348   4.063 -0.2042 -0.1495 -0.8845
  845MOL0     C11473  11.345   2.155   4.159  0.1489  0.1884  0.5832
  845MOL0     C11474  11.226   2.226   4.171 -0.3933  0.3792 -0.8979
  845MOL0     H11475  10.851   2.462   4.376  0.2485 -0.6596 -0.7335
  845MOL0     H11476  10.588   2.510   4.363 -1.1858 -0.1725 -2.1776
  845MOL0     H11477  10.428   2.682   4.280 -0.5345 -0.4118  1.7864
  845MOL0     H11478  10.389   2.521   4.333  1.2081  0.4502 -0.1706
  845MOL0     H11479  10.216   2.608   4.102  1.2988 -0.1361 -0.6914
  845MOL0     H11480  10.241   2.743   4.213 -0.9324 -0.1113  3.4172
  845MOL0     H11481  10.174   2.554   4.403 -2.0865 -2.4209  0.9265
  845MOL0     H11482  10.122   2.457   4.264 -2.0097 -0.5618 -0.5377
  845MOL0     H11483  10.020   2.733   4.319  1.8265 -1.0503  1.8623
  845MOL0     H11484   9.981   2.625   4.175  2.9088  1.0881 -0.6874
  845MOL0     H11485   9.935   2.562   4.464  0.4185  0.4921  0.1748
  845MOL0     H11486   9.913   2.451   4.334  0.4531 -0.1130  2.8964
  845MOL0     H11487   9.734   2.596   4.222 -0.1105 -0.8206  0.1631
  845MOL0     H11488   9.779   2.715   4.342  1.8195 -0.4333  1.2212
  845MOL0     H11489   9.707   2.557   4.524 -0.2880 -1.0867  0.4171
  845MOL0     H11490   9.572   2.625   4.427 -0.5548 -0.8694  0.2099
  845MOL0     H11491   9.690   2.345   4.412  1.9383  2.0696 -0.3330
  845MOL0     H11492   9.574   2.405   4.290  2.8750  0.6085 -2.0118
  845MOL0     H11493   9.317   2.403   4.370  2.9298  0.5391 -0.9476
  845MOL0     H11494   9.099   2.410   4.578  1.4559 -0.0442 -1.2491
  845MOL0     H11495   9.159   2.338   4.725 -0.0413  1.8591  0.3917
  845MOL0     H11496   9.017   2.167   4.611 -1.0512 -1.5127 -2.7718
  845MOL0     H11497   9.185   2.124   4.626 -1.0285  0.9659  1.8527
  845MOL0     H11498   9.206   2.183   4.382  0.2851 -2.1733  0.6176
  845MOL0     H11499   9.068   2.060   4.401 -0.0679  0.6256 -1.5104
  845MOL0     H11500   9.060   2.231   4.223  0.5972  3.5286 -1.1113
  845MOL0     H11501   9.034   2.348   4.335  3.6042 -0.2973 -0.8269
  845MOL0     H11502   8.936   2.303   4.085  0.0260  0.8017  1.9968
  845MOL0     H11503   8.758   2.279   3.892  1.8045 -2.2901  0.2572
  845MOL0     H11504   8.397   1.964   3.786 -1.0377 -2.5066 -1.0178
  845MOL0     H11505   8.234   1.892   3.629  1.5410 -0.0344  1.7455
  845MOL0     H11506   8.042   1.830   3.500  2.8356  0.8145  1.9925
  845MOL0     H11507   7.872   1.859   3.527  0.3285  0.3375  1.7200
  845MOL0     H11508   8.057   1.797   3.749  1.5969  1.1584 -2.5914
  845MOL0     H11509   7.955   1.692   3.652  1.4760  0.4678 -0.2692
  845MOL0     H11510   7.821   1.935   3.813  1.8302  0.2593 -3.0998
  845MOL0     H11511   7.876   1.797   3.898  2.6107 -0.3629 -2.1596
  845MOL0     H11512   7.690   1.782   3.660  0.6754  1.2526 -0.3315
  845MOL0     H11513   7.714   1.650   3.776  1.3607 -0.1932 -0.6905
  845MOL0     H11514   7.512   1.787   3.772 -0.8962 -1.3892  1.0608
  845MOL0     H11515   7.607   1.919   3.850  1.6606 -1.7148  2.0570
  845MOL0     H11516   7.634   1.818   4.041 -1.4591  3.3030 -0.4987
  845MOL0     H11517   7.612   1.656   3.975  3.6522  3.0694  1.2363
  845MOL0     H11518   7.373   1.850   4.002 -1.9449  0.0063 -0.8195
  845MOL0     H11519   7.372   1.669   3.974  0.4567 -1.0614  3.0822
  845MOL0     H11520   7.445   1.640   4.214 -0.7898 -0.5992 -0.3180
  845MOL0     H11521   7.298   1.728   4.158  1.0045  1.7828  1.2549
  845MOL0     H11522   7.997   2.229   3.701 -0.8931 -3.3923 -0.7425
  845MOL0     H11523   8.151   2.299   3.880  1.6336 -0.2390  1.2097
  845MOL0     H11524   8.473   2.139   4.154 -1.3645  2.9838  0.1576
  845MOL0     H11525   8.638   2.153   4.350 -2.0838  0.2459  0.0282
  845MOL0     H11526  10.597   2.430   3.955 -0.1601 -2.8150  0.6247
  845MOL0     H11527  10.818   2.368   3.955 -2.1784 -3.1484 -0.4500
  845MOL0     H11528  11.341   2.523   4.271  1.6554  0.0191  4.2117
  845MOL0     H11529  11.554   2.407   4.257  0.6406  1.5526 -2.0233
  845MOL0     H11530  11.694   2.307   4.099 -0.9984 -1.4865 -1.0031
  845MOL0     H11531  11.743   2.144   4.047 -0.3815 -0.0641 -0.7180
  845MOL0     H11532  11.788   2.273   4.328 -0.4341  0.4837 -0.8435
  845MOL0     H11533  11.799   2.103   4.301  3.2931  0.2192  1.2496
  845MOL0     H11534  11.975   2.136   4.112 -1.3882 -1.1130  0.6622
  845MOL0     H11535  12.022   2.185   4.271  3.2632  1.2675 -3.3656
  845MOL0     H11536  11.916   2.377   4.053  3.1650  0.6965 -0.4269
  845MOL0     H11537  11.951   2.429   4.215 -1.5092 -0.4895  0.0268
  845MOL0     H11538  12.337   2.359   4.035 -0.5815  0.2559 -2.2040
  845MOL0     H11539  11.342   2.048   4.140 -1.4526 -0.0442  1.9250
  845MOL0     H11540  11.139   2.172   4.136 -2.8429  3.4963 -0.1024
  846MOL0     O11541   1.023   2.592  11.364  0.4320  0.5196  0.2311
  846MOL0     C11542   1.041   2.494  11.289  0.0642  0.5210  0.6066
  846MOL0     O11543   0.956   2.464  11.178  0.3091  0.4476  0.4579
  846MOL0     C11544   0.842   2.539  11.158 -0.4763  0.6381  0.2255
  846MOL0     C11545   0.839   2.680  11.136  0.3657 -0.3387 -1.1612
  846MOL0     C11546   0.715   2.747  11.126  0.8961  0.8343 -0.5430
  846MOL0     C11547   0.599   2.675  11.114 -0.0960 -0.3530  1.2001
  846MOL0     O11548   0.474   2.732  11.103 -0.4149 -0.0767  0.0120
  846MOL0     C11549   0.465   2.867  11.058  0.5367 -0.0830  0.2398
  846MOL0     C11550   0.313   2.911  11.041 -0.0305 -0.1815 -0.6810
  846MOL0     C11551   0.232   2.823  10.937  0.5970  0.6052  0.2737
  846MOL0     C11552   0.095   2.893  10.914  0.3909  0.8302  0.4077
  846MOL0     C11553  -0.003   2.804  10.817 -0.4388  1.0025  0.2417
  846MOL0     C11554  -0.127   2.878  10.778  0.7029 -0.4062  0.0109
  846MOL0     C11555  -0.203   2.815  10.668 -0.8859 -0.6393 -0.0579
  846MOL0     C11556  -0.279   2.685  10.694  0.7571  0.1911  0.8256
  846MOL0     N11557  -0.411   2.682  10.622  1.3157  0.2956 -0.6217
  846MOL0     C11558  -0.449   2.579  10.537 -0.3245 -0.4233  0.0748
  846MOL0     C11559  -0.561   2.628  10.473 -0.5589 -0.2243 -0.3369
  846MOL0     C11560  -0.640   2.553  10.377  0.4056 -0.0367  0.5064
  846MOL0     C11561  -0.610   2.611  10.245 -0.8495  1.0625  0.0905
  846MOL0     C11562  -0.695   2.524  10.151  0.1882  0.1191  0.0997
  846MOL0     C11563  -0.694   2.567  10.003 -0.7926 -0.5810  0.5268
  846MOL0     O11564  -0.816   2.612   9.951  0.6304  0.6043 -0.2139
  846MOL0     C11565  -0.908   2.522   9.918 -0.5648  0.5465 -0.6692
  846MOL0     C11566  -1.040   2.576   9.905 -0.2010  0.6836 -0.0355
  846MOL0     C11567  -1.145   2.492   9.862 -0.5180 -0.8843  0.5241
  846MOL0     C11568  -1.111   2.360   9.819  0.5370  0.2673 -0.1854
  846MOL0     C11569  -1.216   2.271   9.755 -0.5060 -0.8846 -0.6118
  846MOL0     O11570  -1.186   2.145   9.741  0.2600  0.3164 -0.6384
  846MOL0     C11571  -1.277   2.058   9.691  0.3245 -0.3320 -0.8320
  846MOL0     C11572  -1.241   1.963   9.595  0.5488  0.4806  0.1078
  846MOL0     C11573  -1.336   1.881   9.534 -0.0355 -0.4457 -0.1836
  846MOL0     C11574  -1.470   1.889   9.572 -0.0608 -0.4407  1.4165
  846MOL0     O11575  -1.573   1.815   9.513 -0.3985 -0.6869  0.0394
  846MOL0     C11576  -1.530   1.689   9.444  0.2906 -0.1084  0.0052
  846MOL0     C11577  -1.662   1.628   9.392 -0.1229  0.9058 -0.1051
  846MOL0     C11578  -1.729   1.532   9.489 -0.2695  0.0138  0.5333
  846MOL0     C11579  -1.843   1.586   9.575  0.5404 -1.1292  0.7552
  846MOL0     C11580  -1.953   1.485   9.563  0.9177  0.0128 -0.9705
  846MOL0     C11581  -2.042   1.500   9.685  0.5754  0.1224 -0.8369
  846MOL0     C11582  -2.149   1.402   9.682  0.1244  0.4919 -0.9447
  846MOL0     C11583  -2.210   1.379   9.820  0.0830  1.0644 -0.0091
  846MOL0    Cl11584  -2.330   1.243   9.804 -0.1091  0.3317 -0.2754
  846MOL0     C11585  -1.511   1.979   9.669  0.2260 -0.3392 -0.1246
  846MOL0     C11586  -1.418   2.063   9.731  0.3731 -0.5722  1.0200
  846MOL0     O11587  -1.312   2.327   9.705  1.3738  0.0630  0.4358
  846MOL0     C11588  -0.979   2.307   9.852 -0.3173 -0.5922  0.0177
  846MOL0     C11589  -0.882   2.387   9.900 -0.6559  0.2568  0.9295
  846MOL0     N11590  -0.598   2.743  10.537 -0.3833 -0.7830  0.0167
  846MOL0     N11591  -0.511   2.776  10.625  0.1951  0.3068  0.1080
  846MOL0     C11592   0.605   2.540  11.139  0.9337  0.2158 -0.7457
  846MOL0     C11593   0.719   2.469  11.170  0.5790 -0.8485 -0.3662
  846MOL0     C11594   1.157   2.400  11.293 -0.1005 -0.4913  0.3581
  846MOL0     C11595   1.159   2.279  11.225  0.0571 -0.5615  0.0469
  846MOL0     C11596   1.275   2.201  11.223  0.6256 -0.1120 -0.2423
  846MOL0     C11597   1.382   2.237  11.296  0.1289 -0.1526  0.2788
  846MOL0     O11598   1.484   2.145  11.285 -0.1153 -0.2110  0.8337
  846MOL0     C11599   1.598   2.174  11.364 -0.4764  0.7551  0.0432
  846MOL0     C11600   1.715   2.116  11.294 -1.5268  0.0992 -0.2282
  846MOL0     C11601   1.832   2.083  11.384  0.3347  0.8427 -0.4466
  846MOL0     C11602   1.963   2.087  11.306 -0.1290 -0.1992 -0.0929
  846MOL0     C11603   1.958   1.976  11.209 -0.2213  0.1980 -0.2365
  846MOL0     C11604   1.966   1.879  11.138 -0.6664 -0.3530 -0.5030
  846MOL0     C11605   1.390   2.362  11.368  0.9706  0.1884  0.6171
  846MOL0     C11606   1.277   2.436  11.372  0.3122 -0.5892  0.0413
  846MOL0     H11607   0.930   2.740  11.131  2.8700 -3.8028 -0.9366
  846MOL0     H11608   0.724   2.854  11.114  2.8556  0.7850  0.1969
  846MOL0     H11609   0.501   2.879  10.955  1.1211 -0.2558  0.4245
  846MOL0     H11610   0.522   2.941  11.115  0.3497  1.1742 -1.1278
  846MOL0     H11611   0.323   3.008  10.993  1.4303  0.2621  0.4537
  846MOL0     H11612   0.255   2.919  11.134 -2.2768  5.7647 -2.1303
  846MOL0     H11613   0.228   2.721  10.979 -2.3191  0.1649 -0.8715
  846MOL0     H11614   0.277   2.822  10.838  2.7314  2.0075  1.1636
  846MOL0     H11615   0.052   2.904  11.014 -1.8350  0.2036 -0.4322
  846MOL0     H11616   0.096   2.989  10.863  1.5934  0.5134 -0.2152
  846MOL0     H11617  -0.031   2.716  10.877  0.3267 -0.3033 -1.2666
  846MOL0     H11618   0.049   2.765  10.730 -0.0193  0.1099  0.8773
  846MOL0     H11619  -0.113   2.977  10.734  1.6818 -0.8821 -0.7863
  846MOL0     H11620  -0.202   2.889  10.858 -2.1594  0.5121 -2.5955
  846MOL0     H11621  -0.272   2.893  10.635  0.8930  0.3408 -1.6197
  846MOL0     H11622  -0.136   2.802  10.583  0.2086  2.0980  0.2792
  846MOL0     H11623  -0.289   2.676  10.803 -0.2538  1.4554  0.8536
  846MOL0     H11624  -0.230   2.590  10.669 -1.0190 -1.6295  3.7277
  846MOL0     H11625  -0.401   2.486  10.507  2.1632  1.0606 -0.8508
  846MOL0     H11626  -0.748   2.554  10.396 -0.4773 -1.4816 -3.3429
  846MOL0     H11627  -0.611   2.449  10.392 -2.2146 -0.9669 -0.1484
  846MOL0     H11628  -0.506   2.597  10.213 -0.9294  2.1377 -0.7131
  846MOL0     H11629  -0.638   2.717  10.237 -3.0810  0.4275 -1.0690
  846MOL0     H11630  -0.663   2.419  10.144  0.2944  0.1558  0.0355
  846MOL0     H11631  -0.794   2.534  10.196 -0.5438 -0.6385 -1.2870
  846MOL0     H11632  -0.643   2.489   9.945  4.1628  2.3509  0.3786
  846MOL0     H11633  -0.621   2.648  10.000 -0.1116 -1.2063 -1.5740
  846MOL0     H11634  -1.052   2.682   9.922  1.3453  0.9593 -0.5350
  846MOL0     H11635  -1.242   2.538   9.848 -1.6653 -3.3066 -0.1064
  846MOL0     H11636  -1.136   1.949   9.568  0.4392 -1.4644  0.5114
  846MOL0     H11637  -1.304   1.814   9.455  1.1592  1.0686 -1.0299
  846MOL0     H11638  -1.480   1.617   9.510  2.4651  0.2998 -1.0955
  846MOL0     H11639  -1.461   1.698   9.360  0.9424 -0.6062  0.4673
  846MOL0     H11640  -1.643   1.573   9.299 -0.1538 -0.1609  0.5083
  846MOL0     H11641  -1.735   1.705   9.365 -0.9419 -0.1771 -1.1161
  846MOL0     H11642  -1.661   1.475   9.554  0.9177  0.7001 -0.0625
  846MOL0     H11643  -1.776   1.470   9.412 -0.1046  1.2562 -0.6148
  846MOL0     H11644  -1.806   1.613   9.675  0.1474  0.0638  0.6067
  846MOL0     H11645  -1.870   1.681   9.526  3.4539 -0.9557 -0.7275
  846MOL0     H11646  -1.914   1.383   9.560  0.3277 -0.7804  5.1295
  846MOL0     H11647  -2.015   1.496   9.474 -0.2771  0.3763 -0.1218
  846MOL0     H11648  -2.084   1.598   9.708 -1.0722 -0.8599  0.6151
  846MOL0     H11649  -1.980   1.479   9.773 -0.3986 -2.8927 -0.7439
  846MOL0     H11650  -2.220   1.451   9.615  1.6256  2.5185 -1.1301
  846MOL0     H11651  -2.112   1.308   9.638 -1.7645 -0.7098 -0.1139
  846MOL0     H11652  -2.255   1.474   9.851  1.1013  0.4103  4.0019
  846MOL0     H11653  -2.130   1.358   9.891  5.3157  2.2343 -4.8442
  846MOL0     H11654  -1.615   1.990   9.700  0.9153 -0.4928  2.4569
  846MOL0     H11655  -1.458   2.138   9.797 -2.8605 -1.9579  0.8091
  846MOL0     H11656  -0.955   2.204   9.828  0.5668 -0.2536 -0.5863
  846MOL0     H11657  -0.786   2.340   9.922 -2.0536 -2.7382  1.0851
  846MOL0     H11658   0.520   2.474  11.127  0.9524  0.6302 -3.9598
  846MOL0     H11659   0.731   2.365  11.198  0.8047 -0.6302  0.3670
  846MOL0     H11660   1.076   2.257  11.158 -0.9004  2.5437  0.0779
  846MOL0     H11661   1.269   2.120  11.151 -1.3431  0.4061 -0.7068
  846MOL0     H11662   1.584   2.118  11.456 -0.4092 -4.1975 -2.6254
  846MOL0     H11663   1.625   2.277  11.388 -2.3461  1.3098 -0.0837
  846MOL0     H11664   1.684   2.017  11.260 -0.6756 -0.5328  0.7562
  846MOL0     H11665   1.754   2.185  11.219  0.9914  1.5104  2.1641
  846MOL0     H11666   1.821   1.979  11.417 -1.1174  1.4697  1.2218
  846MOL0     H11667   1.818   2.144  11.474 -4.3615  1.2385 -1.1898
  846MOL0     H11668   1.992   2.177  11.252 -3.4739  1.0562 -0.0208
  846MOL0     H11669   2.044   2.073  11.379 -2.1947  0.2461  2.4562
  846MOL0     H11670   1.981   1.799  11.068  0.8061 -1.3510  0.8628
  846MOL0     H11671   1.476   2.395  11.426  1.1620 -0.1033  0.5035
  846MOL0     H11672   1.278   2.524  11.436 -3.1650  0.2124 -0.7876
  847MOL0     O11673   6.449   4.233  10.140  0.4631 -0.3846  0.3972
  847MOL0     C11674   6.391   4.129  10.177 -0.0362  0.2971  0.1958
  847MOL0     O11675   6.285   4.111  10.269  0.4489 -0.1479 -0.2955
  847MOL0     C11676   6.240   4.226  10.324 -0.2002 -0.6235  0.8487
  847MOL0     C11677   6.182   4.329  10.244 -0.6938  0.4498  0.5150
  847MOL0     C11678   6.146   4.455  10.296 -0.4277  0.8901  0.1981
  847MOL0     C11679   6.142   4.471  10.436  1.1182 -0.5613 -0.0371
  847MOL0     O11680   6.099   4.582  10.500  0.2269  0.2518 -0.3327
  847MOL0     C11681   5.995   4.655  10.434  0.0826 -0.3230 -0.7575
  847MOL0     C11682   6.066   4.793  10.409  0.6153  1.2181  0.4945
  847MOL0     C11683   5.969   4.913  10.396  0.2327 -0.1035 -0.2076
  847MOL0     C11684   5.872   4.944  10.506  0.5561 -0.6593 -0.7714
  847MOL0     C11685   5.785   5.071  10.470 -0.0294 -0.2603  0.4941
  847MOL0     C11686   5.659   5.070  10.563  0.8071 -0.1124 -0.2868
  847MOL0     C11687   5.551   5.163  10.489 -0.6698  0.8781  0.3618
  847MOL0     C11688   5.438   5.204  10.583  0.8447  0.2834 -0.2331
  847MOL0     N11689   5.342   5.297  10.522 -0.0845 -0.4241  0.2594
  847MOL0     C11690   5.377   5.426  10.492 -1.2585 -0.4827  0.0524
  847MOL0     C11691   5.290   5.476  10.394  0.1026  0.0221 -0.1222
  847MOL0     C11692   5.300   5.618  10.344 -0.0424  1.2631 -0.0806
  847MOL0     C11693   5.197   5.702  10.418 -0.6331 -0.1157  0.4904
  847MOL0     C11694   5.248   5.767  10.551  0.9274 -0.3046 -0.3906
  847MOL0     C11695   5.136   5.844  10.622 -0.4003  0.3470  0.3801
  847MOL0     O11696   5.121   5.972  10.549 -0.5707  0.7053  0.4515
  847MOL0     C11697   5.013   6.048  10.581  0.5433  0.3013 -1.2990
  847MOL0     C11698   4.931   6.024  10.683 -0.2484 -0.3280 -0.0868
  847MOL0     C11699   4.833   6.115  10.728  0.3490  0.1183  0.1024
  847MOL0     C11700   4.799   6.224  10.648 -0.4041  0.4914  0.7439
  847MOL0     C11701   4.682   6.321  10.696  0.4204 -0.5903  0.0203
  847MOL0     O11702   4.661   6.441  10.637 -1.1061  0.5993 -0.1667
  847MOL0     C11703   4.564   6.518  10.692  0.2937 -0.0390  0.1542
  847MOL0     C11704   4.589   6.638  10.763  0.4948  0.4085 -0.8184
  847MOL0     C11705   4.479   6.726  10.798 -1.0226  0.3578  0.4467
  847MOL0     C11706   4.348   6.689  10.764  0.6996 -0.5371 -0.4942
  847MOL0     O11707   4.235   6.773  10.793 -0.2968 -0.0375 -0.2024
  847MOL0     C11708   4.233   6.814  10.925 -1.1439  0.0075 -0.0809
  847MOL0     C11709   4.106   6.755  10.992 -0.7001  0.3167  0.1522
  847MOL0     C11710   3.970   6.802  10.941 -0.6932 -0.5483 -0.2175
  847MOL0     C11711   3.872   6.790  11.055  1.0325 -0.2060  0.6227
  847MOL0     C11712   3.727   6.810  11.002 -0.0375  1.2131 -0.3605
  847MOL0     C11713   3.614   6.788  11.111 -0.1002 -0.1170 -0.4199
  847MOL0     C11714   3.469   6.815  11.059 -1.0042 -0.5041 -0.2271
  847MOL0     C11715   3.362   6.773  11.157  0.3594  0.1498 -0.2816
  847MOL0    Cl11716   3.225   6.873  11.171 -0.1247 -0.1854  0.1705
  847MOL0     C11717   4.320   6.572  10.698 -0.0742  0.5582  1.0873
  847MOL0     C11718   4.425   6.490  10.668 -0.2669  0.2128  0.0236
  847MOL0     O11719   4.620   6.288  10.795 -0.2426 -0.6102 -0.7009
  847MOL0     C11720   4.884   6.252  10.549 -0.2358  0.2650 -0.4718
  847MOL0     C11721   4.995   6.171  10.516  0.0319  0.4493  0.6840
  847MOL0     N11722   5.200   5.369  10.358 -0.3173 -0.1237  0.0535
  847MOL0     N11723   5.234   5.276  10.439  0.4623  1.6327  0.3657
  847MOL0     C11724   6.196   4.369  10.522  0.0299  0.4447  0.7397
  847MOL0     C11725   6.248   4.250  10.461  0.7139 -0.1715 -0.0520
  847MOL0     C11726   6.465   4.004  10.143 -0.6423 -0.4039  0.4525
  847MOL0     C11727   6.573   4.014  10.046  0.4251 -0.0333 -0.7804
  847MOL0     C11728   6.626   3.898  10.007  0.5537 -0.5022  0.6163
  847MOL0     C11729   6.596   3.768  10.058  0.2312 -0.4281 -0.4104
  847MOL0     O11730   6.646   3.647  10.018  0.0204  0.0796  0.1644
  847MOL0     C11731   6.751   3.653   9.917 -0.4962  0.8131  0.6476
  847MOL0     C11732   6.802   3.514   9.897 -0.6206  0.0191 -0.2714
  847MOL0     C11733   6.879   3.466  10.020 -1.6504 -0.5693  0.1052
  847MOL0     C11734   6.957   3.328   9.988 -0.5034 -0.6381 -0.8005
  847MOL0     C11735   6.871   3.216   9.947  0.3205  0.7305  0.6344
  847MOL0     C11736   6.806   3.125   9.901  0.6699  1.2388  0.9707
  847MOL0     C11737   6.491   3.767  10.151  0.1657  0.8341  0.9044
  847MOL0     C11738   6.419   3.882  10.187 -0.0292 -0.3003 -0.4574
  847MOL0     H11739   6.188   4.317  10.136  4.4152  3.0640  0.2503
  847MOL0     H11740   6.103   4.530  10.230  0.8978 -0.4463 -2.3425
  847MOL0     H11741   5.919   4.667  10.512  1.7312 -1.9049  1.1907
  847MOL0     H11742   5.943   4.598  10.357  0.0526 -0.2085 -0.8238
  847MOL0     H11743   6.139   4.778  10.329 -1.6685 -0.9937 -1.3386
  847MOL0     H11744   6.118   4.827  10.499 -3.4987  2.1429  2.7771
  847MOL0     H11745   5.900   4.900  10.313 -0.9178  1.3042  0.4802
  847MOL0     H11746   6.034   5.001  10.391 -1.0125  0.7826 -1.2158
  847MOL0     H11747   5.804   4.861  10.528 -1.3995  1.1956  0.6290
  847MOL0     H11748   5.936   4.965  10.592  3.2517  0.5585 -2.9141
  847MOL0     H11749   5.764   5.072  10.363  2.4019  2.2286 -0.0688
  847MOL0     H11750   5.850   5.159  10.479  1.8084 -1.4085 -0.8178
  847MOL0     H11751   5.683   5.115  10.659 -0.4279  2.1809 -0.9799
  847MOL0     H11752   5.616   4.970  10.573 -1.9664  1.1420  1.5536
  847MOL0     H11753   5.607   5.250  10.451  0.6513 -0.5060 -0.9743
  847MOL0     H11754   5.513   5.116  10.399  0.9187 -0.8074  0.5269
  847MOL0     H11755   5.488   5.242  10.673  3.2909 -1.3577 -0.7959
  847MOL0     H11756   5.389   5.109  10.604  2.0325 -0.3512 -0.2482
  847MOL0     H11757   5.455   5.487  10.537  0.6883 -0.6128 -2.8280
  847MOL0     H11758   5.264   5.612  10.241 -0.9187 -3.3486  0.2557
  847MOL0     H11759   5.401   5.659  10.346  0.2252  0.9141 -2.7820
  847MOL0     H11760   5.111   5.638  10.440  0.9092 -1.5708  2.6765
  847MOL0     H11761   5.156   5.781  10.353  0.6731  1.1133  1.1102
  847MOL0     H11762   5.278   5.689  10.622 -0.1658 -0.2848  0.1063
  847MOL0     H11763   5.333   5.827  10.520  0.9669 -1.2400 -2.2259
  847MOL0     H11764   5.170   5.856  10.725  0.7704 -2.8668  0.5044
  847MOL0     H11765   5.039   5.792  10.623 -0.3551  0.2144 -0.8676
  847MOL0     H11766   4.936   5.932  10.741  1.2887 -0.3689 -0.2364
  847MOL0     H11767   4.767   6.102  10.813 -0.2840  0.2892 -0.3479
  847MOL0     H11768   4.688   6.657  10.803 -0.5736 -1.2254  3.1377
  847MOL0     H11769   4.520   6.822  10.826  1.8670 -1.1403  1.7987
  847MOL0     H11770   4.233   6.923  10.920 -0.5219 -0.0557 -3.4980
  847MOL0     H11771   4.325   6.791  10.979  0.9370  2.8199 -2.1370
  847MOL0     H11772   4.112   6.788  11.096 -1.9907  1.6419 -0.1531
  847MOL0     H11773   4.118   6.647  10.996 -2.1996  0.1161 -0.0901
  847MOL0     H11774   3.940   6.740  10.856  2.3046 -0.6789 -1.2989
  847MOL0     H11775   3.970   6.910  10.920  0.8169 -0.8017 -1.7031
  847MOL0     H11776   3.878   6.688  11.093  1.3045  0.0831  1.3713
  847MOL0     H11777   3.901   6.861  11.133  1.0061  0.3143  0.1691
  847MOL0     H11778   3.716   6.733  10.924 -3.2241 -0.0978  1.1959
  847MOL0     H11779   3.724   6.907  10.951 -0.0017 -0.2455 -3.3339
  847MOL0     H11780   3.637   6.858  11.193  4.3051 -2.9866  1.1778
  847MOL0     H11781   3.633   6.687  11.147  0.6464  0.1874  0.0843
  847MOL0     H11782   3.468   6.922  11.034  3.1730  0.0393  1.1244
  847MOL0     H11783   3.448   6.777  10.958 -3.2972  0.3503 -0.1215
  847MOL0     H11784   3.402   6.783  11.258  0.8486 -1.2937 -0.3150
  847MOL0     H11785   3.328   6.670  11.143 -0.2373  0.1746  0.9159
  847MOL0     H11786   4.217   6.544  10.677 -0.1462  0.2982  1.7689
  847MOL0     H11787   4.388   6.407  10.608 -0.9123  0.9804 -0.6498
  847MOL0     H11788   4.875   6.349  10.501 -2.4610 -0.1070 -0.9310
  847MOL0     H11789   5.070   6.196  10.441 -0.7696  1.0393  0.0498
  847MOL0     H11790   6.193   4.380  10.630  3.3286 -0.6396  1.0712
  847MOL0     H11791   6.281   4.174  10.530 -1.5676 -1.7296 -0.5621
  847MOL0     H11792   6.617   4.101  10.000  0.1998 -0.8068 -2.5145
  847MOL0     H11793   6.712   3.925   9.946  1.2792 -0.2614  1.7250
  847MOL0     H11794   6.827   3.729   9.935  1.6209 -1.0178 -0.0700
  847MOL0     H11795   6.712   3.680   9.818  2.7922 -1.0454 -1.3380
  847MOL0     H11796   6.719   3.446   9.874  0.5174 -1.6820  0.4715
  847MOL0     H11797   6.872   3.528   9.814  0.3011  2.3307  0.8046
  847MOL0     H11798   6.808   3.444  10.100 -2.3238  1.3455  0.0785
  847MOL0     H11799   6.955   3.538  10.051 -1.9442  0.7829 -2.1276
  847MOL0     H11800   7.028   3.342   9.906  0.1585 -2.9335 -0.7007
  847MOL0     H11801   7.003   3.289  10.079  0.4720  1.3499 -0.4118
  847MOL0     H11802   6.762   3.041   9.851  0.9380  1.1779  0.8366
  847MOL0     H11803   6.468   3.668  10.187 -1.4507  0.8414 -0.0050
  847MOL0     H11804   6.334   3.874  10.253  1.1799 -0.1128  1.1825
  848MOL0     O11805   4.852   1.765   9.284  0.0068 -0.0323 -0.0822
  848MOL0     C11806   4.812   1.753   9.401 -0.0293  0.1915  0.4525
  848MOL0     O11807   4.886   1.719   9.508 -0.0201  0.0246 -0.7269
  848MOL0     C11808   5.018   1.694   9.516 -0.8481 -0.5044 -0.4554
  848MOL0     C11809   5.111   1.675   9.404  0.1135  0.4004  0.0853
  848MOL0     C11810   5.248   1.665   9.423 -0.1270  0.0330 -0.2077
  848MOL0     C11811   5.297   1.637   9.552  1.3358  0.2603 -0.3833
  848MOL0     O11812   5.429   1.625   9.588  0.3929  0.5729 -1.0247
  848MOL0     C11813   5.523   1.621   9.482  0.0369  0.3743  0.4463
  848MOL0     C11814   5.662   1.583   9.547  0.7903  1.0675 -0.5495
  848MOL0     C11815   5.769   1.608   9.444 -0.8581 -0.4391 -1.2906
  848MOL0     C11816   5.782   1.501   9.330  0.2012  0.3584 -0.0685
  848MOL0     C11817   5.908   1.529   9.245  0.2067  0.1737  0.8975
  848MOL0     C11818   5.934   1.664   9.181  1.0259 -0.6074 -0.1664
  848MOL0     C11819   6.062   1.679   9.104  0.2184  0.1901  0.3560
  848MOL0     C11820   6.039   1.796   9.004 -0.3997 -0.3677 -0.4000
  848MOL0     N11821   6.151   1.791   8.902 -0.1541 -0.8370  0.2588
  848MOL0     C11822   6.135   1.731   8.783  0.5572  0.9918 -0.1638
  848MOL0     C11823   6.243   1.759   8.714 -0.9557  0.4659  0.1437
  848MOL0     C11824   6.294   1.730   8.574  0.1515  0.2224 -0.4182
  848MOL0     C11825   6.200   1.797   8.466 -0.0079  0.3393 -0.6509
  848MOL0     C11826   6.166   1.937   8.490  0.2560 -0.5161 -0.0642
  848MOL0     C11827   6.115   1.999   8.360  0.7473 -0.2475 -0.2165
  848MOL0     O11828   6.025   1.913   8.294 -0.4014 -0.7110 -0.2380
  848MOL0     C11829   5.972   1.955   8.171 -0.2413  0.6924  0.0610
  848MOL0     C11830   5.889   1.860   8.121  0.3105  0.2511 -0.7303
  848MOL0     C11831   5.821   1.886   8.003  0.3270  0.5304 -0.1923
  848MOL0     C11832   5.829   2.011   7.945  0.4254  0.1273  0.8438
  848MOL0     C11833   5.750   2.048   7.826  1.0641 -0.1059  0.0080
  848MOL0     O11834   5.761   2.174   7.766 -0.0279  0.0569 -0.9663
  848MOL0     C11835   5.698   2.191   7.650  0.4798  0.1230  0.2582
  848MOL0     C11836   5.570   2.238   7.643 -0.2152  0.3740 -0.2441
  848MOL0     C11837   5.503   2.259   7.523 -0.3351 -0.1167 -0.6499
  848MOL0     C11838   5.573   2.214   7.401 -0.3940  0.2683  0.3084
  848MOL0     O11839   5.516   2.223   7.279  0.3605 -0.3189 -0.8642
  848MOL0     C11840   5.388   2.286   7.268 -0.5540  0.0693  0.4286
  848MOL0     C11841   5.361   2.276   7.123 -0.7744  0.4542 -0.0668
  848MOL0     C11842   5.225   2.327   7.079 -0.2488  0.1559  0.8666
  848MOL0     C11843   5.199   2.287   6.929 -0.0358  0.8414 -0.4604
  848MOL0     C11844   5.108   2.389   6.858  0.3484 -0.3271  0.0585
  848MOL0     C11845   4.973   2.411   6.930 -0.5372  0.8331  0.0248
  848MOL0     C11846   4.908   2.524   6.859  0.4309  0.1168 -0.0099
  848MOL0     C11847   4.760   2.525   6.881 -0.9642 -0.0013 -0.2067
  848MOL0    Cl11848   4.670   2.661   6.796  0.2432  0.3201  0.2292
  848MOL0     C11849   5.701   2.164   7.407 -0.1736 -0.6306 -0.0596
  848MOL0     C11850   5.766   2.148   7.532 -0.4812 -0.1412 -0.0459
  848MOL0     O11851   5.663   1.966   7.789 -0.9103  0.3029  0.4046
  848MOL0     C11852   5.923   2.100   7.991  0.8100 -0.3273  0.3352
  848MOL0     C11853   5.994   2.073   8.109  0.4296 -0.6540 -0.0438
  848MOL0     N11854   6.328   1.834   8.789  0.2595  0.5136  0.3478
  848MOL0     N11855   6.271   1.855   8.907 -0.6903  0.0196  0.6426
  848MOL0     C11856   5.210   1.648   9.662  0.6393  0.1374 -0.5974
  848MOL0     C11857   5.073   1.680   9.642 -0.3609  0.0262 -0.3696
  848MOL0     C11858   4.670   1.774   9.429  0.5305 -0.1389  0.4906
  848MOL0     C11859   4.609   1.747   9.556 -0.1857 -0.1274  0.8137
  848MOL0     C11860   4.472   1.761   9.575 -0.1938 -0.3945 -0.1853
  848MOL0     C11861   4.384   1.806   9.475  0.9139 -0.3805  0.4151
  848MOL0     O11862   4.252   1.808   9.516 -0.3645 -0.0278  0.0125
  848MOL0     C11863   4.167   1.862   9.416  0.0857  0.4369  0.1063
  848MOL0     C11864   4.029   1.878   9.490  0.4240  0.8000  0.9886
  848MOL0     C11865   3.912   1.887   9.388 -0.2570  0.0399  0.5676
  848MOL0     C11866   3.781   1.885   9.466 -0.5330 -0.1123 -0.0206
  848MOL0     C11867   3.741   2.013   9.528 -0.2125  0.4350  0.3563
  848MOL0     C11868   3.681   2.103   9.579 -0.9265  0.7258 -0.0920
  848MOL0     C11869   4.437   1.823   9.343 -0.7947 -0.3838  0.5988
  848MOL0     C11870   4.581   1.805   9.318 -0.7933  0.7227 -0.0462
  848MOL0     H11871   5.077   1.684   9.301 -0.5691  1.9759  0.4146
  848MOL0     H11872   5.313   1.654   9.337 -1.0267 -0.7301 -0.7954
  848MOL0     H11873   5.531   1.718   9.431 -3.6058 -1.0472 -3.4669
  848MOL0     H11874   5.483   1.558   9.402 -1.8844  2.2215 -0.1513
  848MOL0     H11875   5.655   1.482   9.587 -2.5621  1.7538  0.9109
  848MOL0     H11876   5.686   1.640   9.637  1.3610  1.3852 -0.8920
  848MOL0     H11877   5.858   1.599   9.507 -0.5879  0.2580 -1.5672
  848MOL0     H11878   5.768   1.709   9.401  0.9281  0.8454  1.3558
  848MOL0     H11879   5.779   1.404   9.381  0.9226 -0.1225 -0.9124
  848MOL0     H11880   5.692   1.507   9.268 -2.0477 -2.0310  2.6567
  848MOL0     H11881   5.905   1.447   9.172  0.6943 -1.2284  2.3935
  848MOL0     H11882   5.992   1.505   9.311  1.0650 -1.4280 -0.6688
  848MOL0     H11883   5.932   1.738   9.262 -3.5749 -2.3051  1.6216
  848MOL0     H11884   5.840   1.684   9.129  0.4632 -1.3583  0.5382
  848MOL0     H11885   6.145   1.691   9.175 -1.6605 -1.5950  3.0539
  848MOL0     H11886   6.084   1.586   9.050  2.6693  0.6759  0.3929
  848MOL0     H11887   6.048   1.887   9.064 -1.4206 -0.2693 -0.3812
  848MOL0     H11888   5.945   1.796   8.949  0.6463  1.4572 -2.3447
  848MOL0     H11889   6.044   1.686   8.744  1.3466  0.8844 -2.0138
  848MOL0     H11890   6.314   1.624   8.555  3.2090  0.7904 -0.9094
  848MOL0     H11891   6.394   1.775   8.565 -0.1253  0.6755 -1.3802
  848MOL0     H11892   6.109   1.736   8.476  2.1807 -2.9511  0.9771
  848MOL0     H11893   6.244   1.784   8.367 -0.2545 -0.5416 -0.6547
  848MOL0     H11894   6.090   1.956   8.566  0.5647  1.1908 -0.1445
  848MOL0     H11895   6.255   1.990   8.525 -0.6245  3.4620 -3.1852
  848MOL0     H11896   6.199   2.017   8.292  0.1484 -0.4758 -1.0274
  848MOL0     H11897   6.070   2.094   8.392  0.3166 -0.7340  0.6534
  848MOL0     H11898   5.892   1.768   8.177  3.8542  1.6421  1.7010
  848MOL0     H11899   5.763   1.808   7.954 -1.9418  1.4514  0.8932
  848MOL0     H11900   5.506   2.255   7.729  1.6468 -1.2516  1.5841
  848MOL0     H11901   5.399   2.288   7.532 -0.6932 -1.3104 -0.7918
  848MOL0     H11902   5.391   2.388   7.308 -2.4606 -0.7727  2.9833
  848MOL0     H11903   5.311   2.237   7.328  1.4729 -1.2151  2.1031
  848MOL0     H11904   5.367   2.170   7.098 -2.1125  0.6873 -1.5697
  848MOL0     H11905   5.435   2.329   7.062 -3.5649  0.9757 -3.2878
  848MOL0     H11906   5.230   2.436   7.082  0.9879  0.1945 -1.0184
  848MOL0     H11907   5.147   2.284   7.142 -0.7136 -0.8328 -0.3328
  848MOL0     H11908   5.297   2.285   6.880  0.5090  0.8181  0.5954
  848MOL0     H11909   5.160   2.186   6.921  2.2749 -0.2595  1.0513
  848MOL0     H11910   5.088   2.332   6.767  1.0677 -1.2770  0.4849
  848MOL0     H11911   5.161   2.484   6.843  0.2994 -0.3342 -0.1592
  848MOL0     H11912   4.988   2.434   7.036 -2.1427 -1.5503  0.8455
  848MOL0     H11913   4.914   2.319   6.931  3.1233 -1.7840 -2.0653
  848MOL0     H11914   4.947   2.620   6.896  1.6335 -0.3341 -0.0804
  848MOL0     H11915   4.926   2.516   6.751 -1.0188  0.4786 -0.2934
  848MOL0     H11916   4.737   2.547   6.986  0.9361  4.2352 -0.4794
  848MOL0     H11917   4.716   2.431   6.846  0.0913 -0.9893  1.0147
  848MOL0     H11918   5.747   2.139   7.312 -1.4652  0.8799 -1.1148
  848MOL0     H11919   5.863   2.100   7.537  0.7782  2.2660  0.1518
  848MOL0     H11920   5.942   2.184   7.925 -1.6790  0.0975  0.0889
  848MOL0     H11921   6.060   2.144   8.159 -2.0594  0.1999  2.3071
  848MOL0     H11922   5.265   1.643   9.756  3.9484  0.4204 -2.3750
  848MOL0     H11923   5.010   1.708   9.726 -2.6102 -1.2393 -1.5412
  848MOL0     H11924   4.666   1.690   9.630  2.4410 -0.6520 -1.4452
  848MOL0     H11925   4.433   1.744   9.675 -0.9099 -2.0067 -0.7164
  848MOL0     H11926   4.145   1.784   9.342 -2.8621  0.6900  0.5789
  848MOL0     H11927   4.204   1.953   9.367 -1.2634  0.3198 -1.1942
  848MOL0     H11928   4.024   1.781   9.540  0.5945 -0.3448 -1.0977
  848MOL0     H11929   4.026   1.958   9.565  0.8005  1.1886  0.5923
  848MOL0     H11930   3.908   1.806   9.314 -0.0629  1.5270 -1.1363
  848MOL0     H11931   3.925   1.977   9.328  4.7337 -1.9703 -1.8668
  848MOL0     H11932   3.697   1.867   9.398 -1.7923 -1.3785  1.7713
  848MOL0     H11933   3.776   1.798   9.532 -0.4792 -1.7645 -2.0926
  848MOL0     H11934   3.658   2.189   9.639 -0.0524 -0.3516  1.8875
  848MOL0     H11935   4.368   1.842   9.261 -1.5908 -2.8263  0.6275
  848MOL0     H11936   4.618   1.812   9.217 -0.4260 -1.2006 -0.0913
  849MOL0     O11937   4.267   0.838   2.838 -0.0965  0.7402  0.7893
  849MOL0     C11938   4.295   0.747   2.920 -0.2570  0.1243  0.0522
  849MOL0     O11939   4.408   0.666   2.917  0.2370 -0.5777  0.4467
  849MOL0     C11940   4.524   0.712   2.870 -0.2300 -0.2860 -0.1985
  849MOL0     C11941   4.645   0.653   2.914  0.3474 -0.4374  0.1387
  849MOL0     C11942   4.768   0.670   2.846 -0.7776  0.0393 -0.1275
  849MOL0     C11943   4.779   0.776   2.746 -0.1651  0.3380  0.4287
  849MOL0     O11944   4.873   0.795   2.656 -0.2630  0.5327 -0.1286
  849MOL0     C11945   5.008   0.748   2.697  0.8667  0.3129 -0.1540
  849MOL0     C11946   5.096   0.869   2.666 -0.5072 -0.5850 -0.8540
  849MOL0     C11947   5.147   0.865   2.522 -0.6544 -0.0870  0.1255
  849MOL0     C11948   5.251   0.986   2.514 -1.2417 -0.4180 -0.2849
  849MOL0     C11949   5.305   1.001   2.364  0.3960  0.0432  0.0589
  849MOL0     C11950   5.435   1.085   2.368 -0.9603 -0.7248 -0.1645
  849MOL0     C11951   5.493   1.086   2.231 -0.0733  0.3314 -0.5006
  849MOL0     C11952   5.643   1.138   2.230 -0.2514  0.1326 -0.2987
  849MOL0     N11953   5.731   1.100   2.124 -0.5979 -0.0941  0.3679
  849MOL0     C11954   5.767   1.163   2.007 -0.0118  0.0650  0.2835
  849MOL0     C11955   5.871   1.085   1.960 -0.8487  0.4222 -0.3398
  849MOL0     C11956   5.952   1.112   1.836 -0.0846  0.1331  0.0726
  849MOL0     C11957   6.105   1.143   1.868  0.2339 -0.6281  0.6798
  849MOL0     C11958   6.194   1.026   1.836  0.2111  0.8662 -0.1046
  849MOL0     C11959   6.313   1.015   1.941  0.4122 -0.6083 -0.3830
  849MOL0     O11960   6.400   1.134   1.932 -0.4898  1.0229 -0.3792
  849MOL0     C11961   6.507   1.152   2.020  1.4408  0.2087  0.0271
  849MOL0     C11962   6.570   1.041   2.092 -0.8268  0.2482 -0.4463
  849MOL0     C11963   6.676   1.059   2.171 -0.1337  0.3842 -0.7261
  849MOL0     C11964   6.717   1.193   2.196  1.1983  0.0868  0.4234
  849MOL0     C11965   6.823   1.222   2.290  0.2103 -0.1083  0.1763
  849MOL0     O11966   6.876   1.121   2.356 -0.1846  0.1396 -0.6035
  849MOL0     C11967   6.965   1.152   2.458  0.0684 -0.9173 -0.4968
  849MOL0     C11968   7.104   1.175   2.423  0.2873 -0.6513 -0.6621
  849MOL0     C11969   7.199   1.190   2.526 -0.2348  0.2330  0.2618
  849MOL0     C11970   7.166   1.171   2.663 -0.5022 -0.0117 -0.3334
  849MOL0     O11971   7.254   1.205   2.767 -0.1421  0.1389  0.4291
  849MOL0     C11972   7.302   1.092   2.837 -1.0118  0.7172  0.9014
  849MOL0     C11973   7.424   1.029   2.771 -0.8277  0.4221 -0.8545
  849MOL0     C11974   7.526   1.125   2.716  0.4757 -1.1668  0.3747
  849MOL0     C11975   7.652   1.058   2.681 -0.4223  0.5565 -0.0323
  849MOL0     C11976   7.748   1.159   2.622  0.1167  0.8098  0.2674
  849MOL0     C11977   7.878   1.098   2.579  1.1168  0.9424  0.1090
  849MOL0     C11978   7.975   1.206   2.545  0.6337  0.1579 -0.5600
  849MOL0     C11979   8.112   1.148   2.502  0.9505  0.4966 -0.8955
  849MOL0    Cl11980   8.080   1.011   2.394 -0.3856 -0.0023 -0.0828
  849MOL0     C11981   7.029   1.146   2.690 -0.9427 -0.0723  0.0668
  849MOL0     C11982   6.932   1.137   2.592 -0.2124 -0.1251  0.4906
  849MOL0     O11983   6.874   1.334   2.285 -0.3307 -0.5116  0.2604
  849MOL0     C11984   6.656   1.301   2.129  0.8257  0.1961  0.4020
  849MOL0     C11985   6.557   1.274   2.033 -0.0612  0.2576 -0.9009
  849MOL0     N11986   5.906   0.984   2.054 -0.4565  0.1583 -1.0923
  849MOL0     N11987   5.814   0.994   2.146 -0.5207 -0.2128 -0.5580
  849MOL0     C11988   4.666   0.859   2.723  0.8173  0.2685  0.3525
  849MOL0     C11989   4.540   0.822   2.781 -0.2934  0.1265 -1.0144
  849MOL0     C11990   4.178   0.701   3.009  0.3361  0.4492  0.5259
  849MOL0     C11991   4.181   0.583   3.090  0.6432 -0.5368 -0.0340
  849MOL0     C11992   4.065   0.547   3.169 -0.4418  0.3786  0.3245
  849MOL0     C11993   3.951   0.633   3.178  0.4044 -0.1462  0.4557
  849MOL0     O11994   3.850   0.601   3.266  0.2094 -0.4500 -0.0539
  849MOL0     C11995   3.717   0.656   3.236 -0.9363 -0.5088 -0.2950
  849MOL0     C11996   3.618   0.564   3.303 -0.3053  0.6334  0.1329
  849MOL0     C11997   3.475   0.607   3.280 -0.3422 -0.4414  0.8217
  849MOL0     C11998   3.398   0.545   3.392 -0.0092 -1.1328  0.0562
  849MOL0     C11999   3.251   0.571   3.371 -1.1311 -0.3135  0.3556
  849MOL0     C12000   3.134   0.571   3.342 -0.4277 -0.3130  0.6566
  849MOL0     C12001   3.953   0.749   3.100  0.8065  0.5028  0.3207
  849MOL0     C12002   4.064   0.786   3.017  0.3885 -0.5179 -0.5352
  849MOL0     H12003   4.633   0.574   2.987 -1.6567  2.6916  3.5193
  849MOL0     H12004   4.849   0.605   2.880 -0.8972  0.6634  1.4350
  849MOL0     H12005   5.029   0.664   2.630  0.6311 -1.8614  2.3176
  849MOL0     H12006   5.025   0.720   2.801  0.0362  0.7217  0.1016
  849MOL0     H12007   5.190   0.857   2.720 -1.5100  1.1927  1.4241
  849MOL0     H12008   5.058   0.962   2.707 -2.9656 -0.1529 -3.7450
  849MOL0     H12009   5.074   0.884   2.442 -0.1631  3.3323  0.3320
  849MOL0     H12010   5.205   0.775   2.501 -0.4778  0.2235 -0.7931
  849MOL0     H12011   5.192   1.072   2.545 -4.0081 -2.3295  0.0461
  849MOL0     H12012   5.330   0.954   2.583  0.1044 -1.4245 -2.1879
  849MOL0     H12013   5.231   1.051   2.301  0.7513  0.0044 -0.3974
  849MOL0     H12014   5.325   0.898   2.335  0.1405 -0.1297  0.4940
  849MOL0     H12015   5.498   1.047   2.448  0.0897  0.2819 -0.4836
  849MOL0     H12016   5.394   1.183   2.394 -2.8783 -1.0215 -1.7411
  849MOL0     H12017   5.478   0.990   2.182 -2.5937 -0.8288  2.2591
  849MOL0     H12018   5.423   1.151   2.178 -0.3584  1.5138  1.2372
  849MOL0     H12019   5.692   1.109   2.324 -0.5678  1.1279  0.1899
  849MOL0     H12020   5.629   1.246   2.235  0.2430  0.2611 -1.4378
  849MOL0     H12021   5.711   1.243   1.958 -3.6512 -0.9084  2.4375
  849MOL0     H12022   5.909   1.195   1.779 -1.5904 -1.7894 -1.7409
  849MOL0     H12023   5.942   1.023   1.774 -1.5384 -0.0906  0.6132
  849MOL0     H12024   6.120   1.166   1.974  2.5599  2.2394 -0.1436
  849MOL0     H12025   6.128   1.234   1.812  2.1159 -1.4969 -0.0489
  849MOL0     H12026   6.148   0.927   1.838  3.2445 -0.7241 -1.2691
  849MOL0     H12027   6.238   1.040   1.736  0.4275  2.2644  0.1674
  849MOL0     H12028   6.371   0.923   1.930  1.3023 -0.2133  0.8246
  849MOL0     H12029   6.266   1.011   2.039  0.6727  0.9649 -0.1807
  849MOL0     H12030   6.551   0.935   2.075 -1.0869  0.2509 -0.1865
  849MOL0     H12031   6.731   0.978   2.218 -0.5824  0.8606  0.6869
  849MOL0     H12032   7.119   1.172   2.315  0.6311  0.0789 -0.6382
  849MOL0     H12033   7.303   1.213   2.506  0.1551 -0.2134  1.6686
  849MOL0     H12034   7.227   1.019   2.868  0.3247 -0.1208  2.3141
  849MOL0     H12035   7.351   1.123   2.930  1.7606 -0.7900  0.0734
  849MOL0     H12036   7.402   0.961   2.688  2.4231 -6.4712  3.1434
  849MOL0     H12037   7.462   0.961   2.847 -1.8957 -1.2409 -1.7594
  849MOL0     H12038   7.546   1.207   2.785 -1.8288 -1.9548  2.1139
  849MOL0     H12039   7.494   1.158   2.617 -0.1923 -0.9312  0.6658
  849MOL0     H12040   7.693   1.010   2.770 -2.2433  1.5462  1.4321
  849MOL0     H12041   7.632   0.994   2.595 -3.3217  2.1385 -0.6779
  849MOL0     H12042   7.757   1.253   2.678  3.4598  2.4382 -2.5952
  849MOL0     H12043   7.709   1.203   2.530  0.6369  2.3336  0.7286
  849MOL0     H12044   7.866   1.032   2.493 -0.9546  0.4797  0.6875
  849MOL0     H12045   7.925   1.043   2.661  0.6922  0.5428  0.0834
  849MOL0     H12046   7.940   1.262   2.457 -2.1648  0.9697  0.9766
  849MOL0     H12047   7.969   1.274   2.630 -0.6143 -1.8189  1.0019
  849MOL0     H12048   8.161   1.110   2.592 -0.2323  1.2883  0.1053
  849MOL0     H12049   8.165   1.226   2.445 -2.2591  3.4212 -0.2101
  849MOL0     H12050   7.016   1.139   2.798  0.6755  1.4041  0.4047
  849MOL0     H12051   6.832   1.113   2.625 -0.7079 -0.1791 -0.9796
  849MOL0     H12052   6.680   1.405   2.146 -1.5508  0.8957 -0.1120
  849MOL0     H12053   6.511   1.354   1.976  0.1130 -0.1824 -1.6611
  849MOL0     H12054   4.672   0.947   2.660  1.6336 -0.2743 -0.3483
  849MOL0     H12055   4.452   0.880   2.755  0.3619  0.2624 -3.1771
  849MOL0     H12056   4.268   0.518   3.093  0.0804 -1.3548  4.1466
  849MOL0     H12057   4.059   0.459   3.232  3.4555 -0.8020 -0.7124
  849MOL0     H12058   3.693   0.661   3.130 -1.4571 -1.6377 -0.2425
  849MOL0     H12059   3.716   0.757   3.277  1.2365 -0.0731 -1.1524
  849MOL0     H12060   3.642   0.464   3.268  0.7574  0.6507  0.7931
  849MOL0     H12061   3.633   0.568   3.411 -0.7580 -1.5471  0.3141
  849MOL0     H12062   3.445   0.566   3.184  0.5818  0.0005  0.3280
  849MOL0     H12063   3.462   0.715   3.264  0.4289 -0.7256 -2.5457
  849MOL0     H12064   3.422   0.438   3.398  0.0703 -1.1665 -0.8359
  849MOL0     H12065   3.433   0.592   3.484 -2.6280 -0.9585  1.0697
  849MOL0     H12066   3.030   0.565   3.317 -0.1608 -0.9358 -0.3973
  849MOL0     H12067   3.863   0.808   3.121 -0.3431 -1.8329  2.5589
  849MOL0     H12068   4.060   0.878   2.959 -0.0120 -1.6850 -2.4271
  850MOL0     O12069   2.387   8.279   7.234 -0.7535  0.1737  1.1040
  850MOL0     C12070   2.427   8.170   7.280 -0.4051 -0.2719  0.3573
  850MOL0     O12071   2.346   8.057   7.316 -0.1715  0.2009 -0.2145
  850MOL0     C12072   2.216   8.082   7.343  1.5384 -0.5255  0.1518
  850MOL0     C12073   2.177   8.203   7.406  0.2814  0.4021  0.2159
  850MOL0     C12074   2.043   8.231   7.437 -0.2062 -0.1976  0.4128
  850MOL0     C12075   1.938   8.147   7.377 -0.2563 -0.2804 -1.0897
  850MOL0     O12076   1.800   8.166   7.387 -0.9476 -0.3767 -0.4964
  850MOL0     C12077   1.763   8.292   7.451  0.8876 -0.1706 -0.4662
  850MOL0     C12078   1.612   8.300   7.434 -1.3463 -0.1448  0.4593
  850MOL0     C12079   1.574   8.389   7.554  0.2870  0.2767  0.2905
  850MOL0     C12080   1.430   8.437   7.544 -0.3164 -0.3059  0.0869
  850MOL0     C12081   1.404   8.538   7.651  0.5046 -0.4693 -0.1883
  850MOL0     C12082   1.265   8.609   7.618  0.4291  0.2886 -0.6011
  850MOL0     C12083   1.283   8.734   7.528 -0.0418 -0.5088  0.5802
  850MOL0     C12084   1.153   8.785   7.484 -0.1693  0.4806  0.1050
  850MOL0     N12085   1.171   8.912   7.431 -0.0067 -0.7675  0.3662
  850MOL0     C12086   1.127   9.030   7.481  1.1939  0.8146  0.2728
  850MOL0     C12087   1.128   9.116   7.379 -0.1174  0.2616  0.4438
  850MOL0     C12088   1.090   9.260   7.374  0.4794 -0.3864  0.0411
  850MOL0     C12089   0.950   9.286   7.412 -0.9529 -0.1121  0.1189
  850MOL0     C12090   0.858   9.244   7.298 -0.7854  0.8043  0.0383
  850MOL0     C12091   0.714   9.290   7.315  0.3704 -0.0503  0.3145
  850MOL0     O12092   0.650   9.285   7.183  0.0969  0.0636 -0.3392
  850MOL0     C12093   0.517   9.318   7.168 -0.2169 -0.5584 -0.3518
  850MOL0     C12094   0.456   9.403   7.253  1.6471 -0.1204  0.3748
  850MOL0     C12095   0.319   9.444   7.216  0.5314  0.2925 -0.8567
  850MOL0     C12096   0.255   9.407   7.104  0.1225  1.1735  0.0384
  850MOL0     C12097   0.113   9.462   7.058  0.3407 -0.1401  0.3639
  850MOL0     O12098   0.059   9.404   6.943 -0.1990  0.2829 -0.1414
  850MOL0     C12099  -0.057   9.454   6.878  0.5561  0.6395 -1.1356
  850MOL0     C12100  -0.081   9.590   6.856  0.3194 -0.0339  0.1618
  850MOL0     C12101  -0.191   9.637   6.785 -0.6371  0.8145  0.5259
  850MOL0     C12102  -0.300   9.550   6.757 -0.4354  0.6445 -0.9723
  850MOL0     O12103  -0.418   9.597   6.701  0.1704 -0.2526  0.4998
  850MOL0     C12104  -0.518   9.514   6.639 -0.6982  0.0667  0.7571
  850MOL0     C12105  -0.464   9.441   6.516  0.7044 -0.6053 -0.2284
  850MOL0     C12106  -0.418   9.549   6.409 -0.2034 -1.4388 -0.1217
  850MOL0     C12107  -0.342   9.512   6.287 -0.3419  1.0070  1.2085
  850MOL0     C12108  -0.223   9.397   6.317  0.1459  0.1824  0.1007
  850MOL0     C12109  -0.123   9.454   6.418 -0.7187 -0.1917 -0.4590
  850MOL0     C12110  -0.018   9.344   6.460 -0.1006 -0.5519  0.2127
  850MOL0     C12111   0.093   9.421   6.533  0.0019  0.0616 -0.7825
  850MOL0    Cl12112   0.220   9.302   6.587  0.3158  0.0974  0.1167
  850MOL0     C12113  -0.285   9.413   6.792 -0.5908 -1.0644  0.7936
  850MOL0     C12114  -0.159   9.367   6.845  0.1831  0.4565  0.1649
  850MOL0     O12115   0.055   9.545   7.125  0.9235  1.0129  0.3377
  850MOL0     C12116   0.319   9.311   7.023  0.0098 -0.2088 -0.2806
  850MOL0     C12117   0.457   9.269   7.046  0.6041  0.5620  0.0213
  850MOL0     N12118   1.183   9.053   7.276  0.4327  0.5355  0.3462
  850MOL0     N12119   1.202   8.930   7.302 -0.3041 -0.5958 -0.4529
  850MOL0     C12120   1.977   8.037   7.299  0.9878  0.6928 -0.5724
  850MOL0     C12121   2.112   8.004   7.283 -0.9320  0.4834  0.9712
  850MOL0     C12122   2.576   8.158   7.291  0.6285 -0.9591  0.1166
  850MOL0     C12123   2.642   8.036   7.285 -0.6629 -0.1501  0.3556
  850MOL0     C12124   2.780   8.029   7.285 -0.1413  0.0828 -0.0453
  850MOL0     C12125   2.862   8.148   7.294 -0.0032  1.0353 -0.3180
  850MOL0     O12126   2.992   8.142   7.255 -0.8041  0.3885  0.0064
  850MOL0     C12127   3.080   8.256   7.278  0.2114  0.1382  0.5143
  850MOL0     C12128   3.213   8.192   7.305 -0.5789  0.0578  0.3146
  850MOL0     C12129   3.326   8.276   7.244 -0.2053 -0.4933 -0.4989
  850MOL0     C12130   3.461   8.240   7.304 -0.0553 -0.3359  0.4304
  850MOL0     C12131   3.561   8.267   7.207  0.8088  0.0411 -0.0349
  850MOL0     C12132   3.639   8.287   7.111 -0.2918 -0.2382 -1.0170
  850MOL0     C12133   2.789   8.270   7.307 -1.2201 -0.8339 -0.2051
  850MOL0     C12134   2.648   8.273   7.313  0.0735 -0.1402 -0.1605
  850MOL0     H12135   2.256   8.264   7.449 -0.2696  0.5443  1.0504
  850MOL0     H12136   2.011   8.308   7.506  0.3056  1.5850 -1.2475
  850MOL0     H12137   1.807   8.387   7.420 -0.5028  0.3387 -0.9807
  850MOL0     H12138   1.784   8.260   7.554 -0.0593  0.3522 -0.0957
  850MOL0     H12139   1.567   8.200   7.426 -0.6055 -0.5129  0.7971
  850MOL0     H12140   1.593   8.361   7.346  0.7229 -0.6671 -0.3960
  850MOL0     H12141   1.636   8.479   7.559 -0.2459  0.6250  0.8652
  850MOL0     H12142   1.583   8.340   7.651 -1.1649  2.1367  1.4275
  850MOL0     H12143   1.420   8.482   7.445  1.7090 -3.4345 -1.7383
  850MOL0     H12144   1.377   8.341   7.550 -1.0004 -0.0550 -1.5927
  850MOL0     H12145   1.472   8.625   7.655 -4.4244  3.9513 -1.4630
  850MOL0     H12146   1.401   8.497   7.752 -1.6809  0.4264  0.1467
  850MOL0     H12147   1.209   8.636   7.709  2.3051 -0.2110  0.7639
  850MOL0     H12148   1.211   8.537   7.556 -1.1532  3.6236 -3.4563
  850MOL0     H12149   1.326   8.809   7.595 -0.7352  0.9852 -0.6015
  850MOL0     H12150   1.344   8.707   7.441 -0.8428  1.5080 -0.6808
  850MOL0     H12151   1.073   8.787   7.559 -2.9223 -5.1725 -2.0741
  850MOL0     H12152   1.108   8.732   7.399 -0.4897  3.5466 -1.8007
  850MOL0     H12153   1.086   9.052   7.579  1.2938 -1.7784  0.9622
  850MOL0     H12154   1.100   9.289   7.269 -0.6083  1.4867  0.4012
  850MOL0     H12155   1.156   9.321   7.438 -2.8969  0.3344  3.2040
  850MOL0     H12156   0.942   9.391   7.442  1.1434  0.0332  0.3558
  850MOL0     H12157   0.932   9.210   7.489  0.0405  0.2287  0.7055
  850MOL0     H12158   0.894   9.279   7.201 -1.0934 -1.9880 -1.1671
  850MOL0     H12159   0.875   9.137   7.289  0.4572  0.8688  1.2399
  850MOL0     H12160   0.709   9.391   7.357  0.2493  0.7661 -1.5401
  850MOL0     H12161   0.664   9.223   7.385  2.5216 -0.8624  1.1558
  850MOL0     H12162   0.489   9.447   7.347  0.8910  0.0169  0.5884
  850MOL0     H12163   0.265   9.516   7.276  1.0428 -0.6527  0.8005
  850MOL0     H12164  -0.004   9.660   6.886 -0.2964 -0.4819  3.1021
  850MOL0     H12165  -0.211   9.738   6.750  0.1330  0.8100  0.0748
  850MOL0     H12166  -0.602   9.577   6.607 -0.3036  1.1480  1.7972
  850MOL0     H12167  -0.571   9.452   6.712 -0.3700  2.1512  2.8477
  850MOL0     H12168  -0.549   9.386   6.475 -2.4693  2.0048  2.2534
  850MOL0     H12169  -0.389   9.367   6.548 -1.0599 -0.7691  4.1951
  850MOL0     H12170  -0.364   9.629   6.462 -1.5705  0.5602 -1.6112
  850MOL0     H12171  -0.504   9.603   6.370  0.7050  0.4448  0.3528
  850MOL0     H12172  -0.409   9.459   6.219  2.4560 -0.5807 -0.5357
  850MOL0     H12173  -0.291   9.594   6.236  4.4141 -1.6678  0.9920
  850MOL0     H12174  -0.173   9.374   6.223  2.5373 -1.0104  1.5658
  850MOL0     H12175  -0.265   9.302   6.353 -2.4174  1.3181  0.3143
  850MOL0     H12176  -0.182   9.485   6.505 -0.1204 -1.2454  0.3527
  850MOL0     H12177  -0.066   9.540   6.380  0.4716  0.2695  2.1307
  850MOL0     H12178  -0.080   9.278   6.520 -4.6286  1.0952 -2.1907
  850MOL0     H12179   0.008   9.287   6.370  0.1337  0.9051 -0.6870
  850MOL0     H12180   0.053   9.480   6.616  2.1309 -0.1012  0.4403
  850MOL0     H12181   0.140   9.480   6.454 -0.0353 -0.1469 -0.9607
  850MOL0     H12182  -0.372   9.347   6.785  0.5311 -2.5707  0.5164
  850MOL0     H12183  -0.149   9.260   6.855 -0.3231  0.3210 -0.6452
  850MOL0     H12184   0.273   9.268   6.935 -0.4091  0.2524 -0.2891
  850MOL0     H12185   0.526   9.222   6.977 -0.7409 -1.2509 -0.1717
  850MOL0     H12186   1.893   7.976   7.269  0.5603  0.7978  0.3625
  850MOL0     H12187   2.134   7.917   7.222 -0.2441 -0.8801  3.0313
  850MOL0     H12188   2.574   7.952   7.280 -0.0014 -0.7567  1.1864
  850MOL0     H12189   2.845   7.942   7.276  3.1134  2.2836  0.5195
  850MOL0     H12190   3.059   8.325   7.360  3.5084  0.1329  1.4999
  850MOL0     H12191   3.087   8.312   7.185 -0.3356  0.1843  0.4986
  850MOL0     H12192   3.233   8.196   7.413 -1.8359  1.8741  0.5254
  850MOL0     H12193   3.232   8.090   7.270  3.0462 -0.0714  2.0835
  850MOL0     H12194   3.308   8.383   7.240  2.4895  0.0257 -0.4858
  850MOL0     H12195   3.342   8.254   7.138  1.9513  0.2749 -0.3845
  850MOL0     H12196   3.475   8.303   7.392 -2.7161  0.9333  0.0301
  850MOL0     H12197   3.463   8.133   7.324 -0.7119 -0.3719  0.3250
  850MOL0     H12198   3.687   8.312   7.019 -0.4648 -0.8003 -1.2630
  850MOL0     H12199   2.835   8.368   7.319 -0.5534 -1.0144 -1.1592
  850MOL0     H12200   2.600   8.369   7.329 -0.1539  0.2254 -2.6122
  851MOL0     O12201   4.270   3.351   3.477 -0.4680 -0.1900  0.4429
  851MOL0     C12202   4.169   3.277   3.479 -0.0208 -0.2517 -0.9328
  851MOL0     O12203   4.171   3.141   3.495  0.4452  0.4693 -0.4057
  851MOL0     C12204   4.290   3.081   3.471  0.3439 -0.7500 -0.1332
  851MOL0     C12205   4.348   3.014   3.578 -1.7167 -0.4467 -1.6449
  851MOL0     C12206   4.481   2.959   3.559 -0.6094 -0.0523  0.2331
  851MOL0     C12207   4.542   2.962   3.432 -1.1521 -0.0383 -0.1064
  851MOL0     O12208   4.665   2.905   3.401 -0.2891  0.6555 -0.1524
  851MOL0     C12209   4.771   2.942   3.488 -0.3331  0.0822  0.5451
  851MOL0     C12210   4.896   2.889   3.420 -1.1942 -0.0579  0.8367
  851MOL0     C12211   4.919   2.957   3.282  0.8955  0.0033  0.2962
  851MOL0     C12212   5.042   2.887   3.209 -0.5676  0.6695  0.7576
  851MOL0     C12213   5.021   2.774   3.105  1.4069 -1.1891 -0.8484
  851MOL0     C12214   5.162   2.772   3.034  0.6753  0.5813 -0.1180
  851MOL0     C12215   5.186   2.624   2.978  0.7910 -0.1686  0.0950
  851MOL0     C12216   5.320   2.626   2.911 -0.8573  0.8681 -0.6810
  851MOL0     N12217   5.365   2.497   2.856  0.1883 -0.5625  0.8262
  851MOL0     C12218   5.358   2.377   2.918 -0.5290  1.0007 -0.0931
  851MOL0     C12219   5.382   2.285   2.824  1.2143  0.0339  0.1977
  851MOL0     C12220   5.366   2.139   2.844 -0.1890 -0.0769  0.4430
  851MOL0     C12221   5.515   2.091   2.823  0.1252  1.0457 -1.0148
  851MOL0     C12222   5.524   1.934   2.823 -0.3095  0.5649  0.7255
  851MOL0     C12223   5.492   1.868   2.957  0.3670  0.6091  0.4528
  851MOL0     O12224   5.594   1.895   3.054  0.6215 -0.1332 -0.8439
  851MOL0     C12225   5.578   1.835   3.178  0.2645  0.6126  0.6304
  851MOL0     C12226   5.463   1.767   3.229  0.3677  0.1444 -0.1313
  851MOL0     C12227   5.466   1.720   3.358 -0.1445 -0.1593 -0.4792
  851MOL0     C12228   5.579   1.737   3.445  0.5167  0.2118  0.5005
  851MOL0     C12229   5.572   1.689   3.583 -0.0320 -0.1770  0.4459
  851MOL0     O12230   5.689   1.680   3.647 -1.0655 -0.1064 -0.3709
  851MOL0     C12231   5.688   1.614   3.774 -0.8626  0.4448  0.1042
  851MOL0     C12232   5.609   1.506   3.809  0.1669  0.6923  0.3190
  851MOL0     C12233   5.629   1.447   3.932 -0.0861  0.4832 -0.4814
  851MOL0     C12234   5.725   1.483   4.016  0.1861  0.8982  0.3901
  851MOL0     O12235   5.741   1.419   4.133  0.8725 -0.9250  0.4199
  851MOL0     C12236   5.709   1.511   4.243 -0.8131 -0.3781 -0.4463
  851MOL0     C12237   5.787   1.452   4.359  0.1059 -0.3978 -0.6936
  851MOL0     C12238   5.796   1.544   4.480 -0.8683  0.2421  0.1793
  851MOL0     C12239   5.674   1.574   4.565 -0.2408  0.1884 -0.5382
  851MOL0     C12240   5.721   1.613   4.708  1.0155 -1.0071  0.8164
  851MOL0     C12241   5.609   1.674   4.804 -0.7564  0.6319 -0.1950
  851MOL0     C12242   5.480   1.595   4.805  0.7863 -0.7041 -0.3185
  851MOL0     C12243   5.467   1.465   4.886 -0.5541 -0.1775  0.8068
  851MOL0    Cl12244   5.305   1.411   4.866  0.0781 -0.2224  0.4491
  851MOL0     C12245   5.809   1.594   3.986  0.1209  0.6097 -0.2309
  851MOL0     C12246   5.792   1.652   3.859  0.3636 -0.7527  0.2424
  851MOL0     O12247   5.462   1.660   3.629  0.4443  0.1557  0.4809
  851MOL0     C12248   5.689   1.794   3.386  1.0450  0.2572 -1.0410
  851MOL0     C12249   5.686   1.846   3.260 -0.0577 -0.0604  0.2407
  851MOL0     N12250   5.390   2.343   2.698  0.4796 -0.0482 -0.1375
  851MOL0     N12251   5.379   2.475   2.721  0.2462 -0.6691 -0.4272
  851MOL0     C12252   4.469   3.015   3.334  0.1522  0.3994  0.9585
  851MOL0     C12253   4.351   3.076   3.348  0.6247 -0.4838 -0.8695
  851MOL0     C12254   4.033   3.341   3.488  0.2299 -0.1146  0.6033
  851MOL0     C12255   4.019   3.470   3.434  0.3538 -0.9231  0.0894
  851MOL0     C12256   3.891   3.517   3.424 -0.6339 -0.8212 -0.2044
  851MOL0     C12257   3.787   3.447   3.476 -0.1490  0.2582 -0.3775
  851MOL0     O12258   3.664   3.513   3.483 -0.5621 -0.0202 -0.6630
  851MOL0     C12259   3.543   3.438   3.514 -1.0519 -0.4794 -0.1384
  851MOL0     C12260   3.416   3.523   3.502 -0.6441  0.2630  0.8605
  851MOL0     C12261   3.433   3.659   3.577  0.9521  0.2838  0.2053
  851MOL0     C12262   3.303   3.732   3.605  0.4130  0.0190 -0.2241
  851MOL0     C12263   3.212   3.655   3.689  0.1504  0.0553  0.2066
  851MOL0     C12264   3.136   3.606   3.767 -0.8371 -0.2470  0.9175
  851MOL0     C12265   3.798   3.319   3.523  0.4773 -0.1336  0.4030
  851MOL0     C12266   3.923   3.262   3.523  0.4356 -0.5126  0.5726
  851MOL0     H12267   4.307   3.029   3.677  2.6074 -0.1472  0.3147
  851MOL0     H12268   4.538   2.905   3.635 -2.0397  0.5287  1.7753
  851MOL0     H12269   4.765   2.884   3.580 -0.4361  1.6065  1.5216
  851MOL0     H12270   4.786   3.050   3.499 -1.7674  0.3268  0.2856
  851MOL0     H12271   4.902   2.781   3.405  0.2786 -0.0422  1.1458
  851MOL0     H12272   4.982   2.908   3.486 -1.1904 -1.3554  1.2310
  851MOL0     H12273   4.925   3.065   3.293 -3.7590  0.4854  0.2175
  851MOL0     H12274   4.832   2.940   3.219  1.4360 -0.8660 -0.2449
  851MOL0     H12275   5.103   2.967   3.166 -1.4077  0.6331 -0.5765
  851MOL0     H12276   5.110   2.856   3.288 -0.2955 -4.0580 -1.0445
  851MOL0     H12277   4.940   2.790   3.033  1.4717 -2.4040 -1.2104
  851MOL0     H12278   4.989   2.687   3.164 -0.9545 -0.6671 -1.2505
  851MOL0     H12279   5.239   2.782   3.111 -0.1190 -3.2624  1.4273
  851MOL0     H12280   5.167   2.850   2.958  0.4349  2.2083  1.4521
  851MOL0     H12281   5.183   2.553   3.061  1.9918  2.1638  2.2723
  851MOL0     H12282   5.101   2.613   2.910  0.2559  1.8844  0.3652
  851MOL0     H12283   5.390   2.640   2.994 -0.9375  2.1823 -0.8130
  851MOL0     H12284   5.311   2.704   2.835 -2.5538 -1.4060 -2.9905
  851MOL0     H12285   5.348   2.363   3.025 -1.8357 -1.5994 -0.4701
  851MOL0     H12286   5.291   2.111   2.769  0.3381 -2.7569  0.8277
  851MOL0     H12287   5.322   2.097   2.935  1.0814 -0.9983  0.6485
  851MOL0     H12288   5.570   2.134   2.907 -0.9757 -1.2406  1.0066
  851MOL0     H12289   5.551   2.135   2.730  0.7592  2.2678 -0.2179
  851MOL0     H12290   5.456   1.889   2.749  2.2277 -0.7714 -0.9078
  851MOL0     H12291   5.624   1.898   2.798 -1.5899 -2.2499 -0.8490
  851MOL0     H12292   5.464   1.763   2.939  0.6091  0.8540 -1.6388
  851MOL0     H12293   5.396   1.910   2.989 -1.8433 -0.4695 -3.8855
  851MOL0     H12294   5.370   1.747   3.176  0.8380 -4.3832  0.3530
  851MOL0     H12295   5.376   1.685   3.407  0.5580 -1.0254  0.2348
  851MOL0     H12296   5.535   1.465   3.741 -0.3938  0.5845  0.9840
  851MOL0     H12297   5.560   1.366   3.952 -0.4567  0.8750 -0.1616
  851MOL0     H12298   5.606   1.505   4.277  0.3525 -1.1010  3.4219
  851MOL0     H12299   5.738   1.614   4.223  0.4386 -0.9972 -2.1156
  851MOL0     H12300   5.890   1.438   4.326 -0.2233 -0.9737 -1.5091
  851MOL0     H12301   5.749   1.355   4.392 -0.3923 -0.0095 -0.1042
  851MOL0     H12302   5.843   1.636   4.444  0.7575 -0.7197 -0.2901
  851MOL0     H12303   5.874   1.495   4.539  1.6721  0.5545 -2.6402
  851MOL0     H12304   5.612   1.646   4.509  0.3225 -1.3157 -3.3066
  851MOL0     H12305   5.607   1.489   4.578  1.5505 -0.9364  2.0581
  851MOL0     H12306   5.796   1.693   4.710 -1.2162  1.1946  1.1123
  851MOL0     H12307   5.768   1.527   4.756  1.6390 -0.3303  1.4380
  851MOL0     H12308   5.586   1.777   4.776 -1.4321  0.7569  0.7552
  851MOL0     H12309   5.642   1.675   4.908 -0.0227 -0.5658 -0.3981
  851MOL0     H12310   5.412   1.670   4.846  1.3195  1.2038 -2.7190
  851MOL0     H12311   5.448   1.569   4.703  1.7381  0.2201 -0.8733
  851MOL0     H12312   5.492   1.487   4.990 -2.6302 -4.5397  2.4614
  851MOL0     H12313   5.535   1.391   4.843  0.4944  1.9694 -1.5777
  851MOL0     H12314   5.888   1.627   4.053  1.7568 -1.4989 -1.0246
  851MOL0     H12315   5.862   1.727   3.823 -1.0460  0.5792  0.1809
  851MOL0     H12316   5.782   1.798   3.442  1.6301  0.8885 -2.0174
  851MOL0     H12317   5.775   1.903   3.234 -0.6149  2.4254  3.3042
  851MOL0     H12318   4.530   3.030   3.245  3.0800  1.4766  3.0090
  851MOL0     H12319   4.312   3.147   3.276  3.5113  1.8214 -0.3771
  851MOL0     H12320   4.108   3.519   3.398  0.0924  0.4985  1.2618
  851MOL0     H12321   3.885   3.616   3.379  0.7786 -1.0339 -0.9221
  851MOL0     H12322   3.542   3.391   3.612  2.0081  1.2151  0.8682
  851MOL0     H12323   3.531   3.360   3.439 -0.3903  0.2399 -1.0224
  851MOL0     H12324   3.382   3.534   3.399  1.9351 -2.4069 -0.4159
  851MOL0     H12325   3.345   3.464   3.561 -2.2563  1.3562  0.0737
  851MOL0     H12326   3.482   3.726   3.505 -0.4450 -0.9053 -1.9641
  851MOL0     H12327   3.494   3.649   3.667 -0.2836 -0.9400  0.9463
  851MOL0     H12328   3.322   3.827   3.655 -0.8521  0.0789  0.1833
  851MOL0     H12329   3.250   3.755   3.512 -0.2173  0.2523  0.1828
  851MOL0     H12330   3.063   3.572   3.837 -0.6996 -0.6645  0.8622
  851MOL0     H12331   3.706   3.267   3.550  0.3777 -1.0787 -1.5757
  851MOL0     H12332   3.925   3.154   3.539 -0.1514 -0.7233 -0.5604
  852MOL0     O12333  10.486   0.636  10.470  0.0766 -0.1993  0.2934
  852MOL0     C12334  10.507   0.649  10.590 -1.0975 -0.6014 -0.0978
  852MOL0     O12335  10.405   0.662  10.687 -0.7128  0.1280 -0.8240
  852MOL0     C12336  10.274   0.648  10.655  0.0580 -0.3526 -0.6226
  852MOL0     C12337  10.178   0.741  10.687 -0.1556 -0.7484  0.0601
  852MOL0     C12338  10.042   0.728  10.658  0.5327 -0.1923  0.7853
  852MOL0     C12339  10.007   0.610  10.590 -0.2101 -0.2948  0.1596
  852MOL0     O12340   9.873   0.580  10.558  0.4150 -0.0299  1.0304
  852MOL0     C12341   9.775   0.687  10.562 -0.2927 -0.3015 -0.6603
  852MOL0     C12342   9.625   0.627  10.546 -0.4165  0.0825  0.0173
  852MOL0     C12343   9.498   0.722  10.570 -1.0629 -0.2245  0.1090
  852MOL0     C12344   9.370   0.681  10.504 -0.6688 -0.0440  0.2084
  852MOL0     C12345   9.269   0.798  10.511 -0.2941  0.3668  0.5110
  852MOL0     C12346   9.231   0.810  10.657 -0.6501 -0.2994  0.3360
  852MOL0     C12347   9.146   0.943  10.663  0.2198 -0.6897 -0.4626
  852MOL0     C12348   9.086   0.955  10.806 -0.3368 -0.3358  0.0142
  852MOL0     N12349   8.979   0.861  10.817  0.0822  0.2014  0.2037
  852MOL0     C12350   8.853   0.875  10.763  0.9372  0.4336  0.1414
  852MOL0     C12351   8.773   0.791  10.821  0.5137  0.0365 -0.5241
  852MOL0     C12352   8.629   0.768  10.814 -1.2214  0.4002 -0.5357
  852MOL0     C12353   8.558   0.889  10.762  0.8912  0.5128  0.1777
  852MOL0     C12354   8.566   1.010  10.850 -0.0162 -0.5322 -0.0716
  852MOL0     C12355   8.479   1.121  10.795  0.5722  0.4264  0.1955
  852MOL0     O12356   8.342   1.091  10.840 -0.8051 -0.1801  0.2468
  852MOL0     C12357   8.239   1.154  10.784  0.1078  0.2074 -0.1942
  852MOL0     C12358   8.109   1.124  10.832  0.1677 -0.1415 -0.1153
  852MOL0     C12359   7.999   1.182  10.774 -0.0888 -0.3522 -0.2989
  852MOL0     C12360   8.003   1.264  10.657  0.1208 -0.2347  0.4399
  852MOL0     C12361   7.886   1.309  10.577  0.4230 -0.2881 -0.4923
  852MOL0     O12362   7.769   1.280  10.641  0.5000  0.5872 -0.5449
  852MOL0     C12363   7.640   1.333  10.613  0.7401  0.5832 -0.1642
  852MOL0     C12364   7.618   1.444  10.539  0.0056  0.3768  0.5025
  852MOL0     C12365   7.493   1.496  10.514 -0.2543 -0.3478 -0.1209
  852MOL0     C12366   7.391   1.441  10.582  0.9544  0.3503 -0.0344
  852MOL0     O12367   7.269   1.491  10.588  0.8247 -0.2617 -0.4758
  852MOL0     C12368   7.238   1.617  10.523 -0.5194  0.2933 -0.1586
  852MOL0     C12369   7.092   1.648  10.549  0.1844  0.2234  0.9283
  852MOL0     C12370   7.055   1.791  10.502 -0.4296  0.0474  0.6544
  852MOL0     C12371   6.906   1.800  10.494 -0.4770 -0.1289 -0.3098
  852MOL0     C12372   6.847   1.928  10.443  0.1260 -0.2289  0.5225
  852MOL0     C12373   6.877   1.947  10.300 -0.1578  0.1812  0.1803
  852MOL0     C12374   6.748   1.976  10.217 -0.1323  1.0907 -0.0244
  852MOL0     C12375   6.784   2.008  10.064  0.1263 -1.2188  0.0807
  852MOL0    Cl12376   6.917   2.124  10.049 -0.5873  0.1831  0.2780
  852MOL0     C12377   7.404   1.322  10.651 -0.3963 -0.7327 -0.2433
  852MOL0     C12378   7.531   1.270  10.671  0.7084 -0.4575  0.7331
  852MOL0     O12379   7.896   1.357  10.468  0.6036 -0.3776 -0.4200
  852MOL0     C12380   8.133   1.298  10.615 -0.9389 -0.8109 -0.2147
  852MOL0     C12381   8.248   1.248  10.672 -0.7468 -0.3176  0.2436
  852MOL0     N12382   8.856   0.715  10.907  0.7093  0.8370  0.1693
  852MOL0     N12383   8.976   0.757  10.907 -0.4492 -0.5953 -0.3698
  852MOL0     C12384  10.098   0.508  10.567  0.7813 -0.4261  0.6072
  852MOL0     C12385  10.232   0.529  10.599 -0.3163 -1.1416 -0.4540
  852MOL0     C12386  10.654   0.647  10.620 -0.1552  0.7817 -0.3585
  852MOL0     C12387  10.754   0.639  10.519 -0.3765  0.5296 -0.6139
  852MOL0     C12388  10.885   0.660  10.548  0.1537  0.1595  0.4656
  852MOL0     C12389  10.923   0.688  10.680  0.7848  0.2382  0.6640
  852MOL0     O12390  11.051   0.713  10.710  0.8791 -0.5363  0.9843
  852MOL0     C12391  11.123   0.622  10.786  0.4989  0.3685  0.7037
  852MOL0     C12392  11.226   0.525  10.714 -0.3551 -0.4030  0.1895
  852MOL0     C12393  11.169   0.391  10.681 -1.0494  0.5732 -0.4358
  852MOL0     C12394  11.275   0.312  10.595 -0.8096  0.3617 -0.3585
  852MOL0     C12395  11.274   0.337  10.450  0.6134 -0.2105  0.1316
  852MOL0     C12396  11.257   0.366  10.333 -0.7165 -0.7029  0.7289
  852MOL0     C12397  10.825   0.710  10.771  0.5175  0.8509  0.6228
  852MOL0     C12398  10.689   0.685  10.754  0.2798 -0.2961 -0.7254
  852MOL0     H12399  10.205   0.828  10.745 -0.6091 -2.0305  2.3022
  852MOL0     H12400   9.966   0.804  10.673 -0.0834 -0.4951 -0.6518
  852MOL0     H12401   9.795   0.762  10.485 -3.2617 -0.1900 -1.4391
  852MOL0     H12402   9.783   0.742  10.657  1.3810 -1.9246  0.2049
  852MOL0     H12403   9.625   0.549  10.622 -1.0821  0.5805  0.5433
  852MOL0     H12404   9.621   0.574  10.451  0.5607 -0.5276  0.3096
  852MOL0     H12405   9.525   0.821  10.532 -1.3857 -0.3330 -0.4186
  852MOL0     H12406   9.491   0.731  10.679 -1.8121  0.5870  0.0024
  852MOL0     H12407   9.380   0.662  10.397  1.5115  2.2388 -0.0872
  852MOL0     H12408   9.341   0.585  10.546 -2.8318 -0.6381 -2.3053
  852MOL0     H12409   9.173   0.767  10.469 -0.4382  0.3513  0.8518
  852MOL0     H12410   9.312   0.893  10.480  2.4574 -0.5000  1.3471
  852MOL0     H12411   9.325   0.830  10.707  0.6383  0.7144 -2.2954
  852MOL0     H12412   9.170   0.723  10.684 -1.0892  0.3825  1.5868
  852MOL0     H12413   9.211   1.031  10.653 -0.5939  0.0061  0.1721
  852MOL0     H12414   9.068   0.944  10.587  1.5029  0.8843 -1.8368
  852MOL0     H12415   9.048   1.055  10.830  1.1935 -0.2124  2.2508
  852MOL0     H12416   9.166   0.932  10.877 -0.5966  2.5747  1.4174
  852MOL0     H12417   8.827   0.956  10.696 -0.1498  2.5182  2.8823
  852MOL0     H12418   8.591   0.736  10.912  0.1571  0.5419  0.0704
  852MOL0     H12419   8.609   0.689  10.742 -3.8245 -1.0685  1.6127
  852MOL0     H12420   8.454   0.854  10.763  1.3765 -1.1836  3.2948
  852MOL0     H12421   8.583   0.902  10.656  0.3319 -2.1763 -0.3413
  852MOL0     H12422   8.544   0.983  10.954  2.0476 -0.5256  0.4110
  852MOL0     H12423   8.668   1.049  10.856  0.0334 -0.0922 -2.5442
  852MOL0     H12424   8.490   1.151  10.691 -0.0608 -0.8294 -0.2544
  852MOL0     H12425   8.501   1.217  10.843  0.2794  0.9762 -0.7493
  852MOL0     H12426   8.096   1.049  10.909  1.3906 -1.3093 -0.9957
  852MOL0     H12427   7.901   1.149  10.807  0.1218 -4.3159 -3.0093
  852MOL0     H12428   7.698   1.506  10.501 -1.5941  2.0315 -0.3548
  852MOL0     H12429   7.491   1.589  10.459 -0.2280 -1.2431 -1.7053
  852MOL0     H12430   7.247   1.622  10.414 -0.4303  0.0524 -0.1620
  852MOL0     H12431   7.300   1.695  10.570 -2.1616  1.2640  0.4792
  852MOL0     H12432   7.076   1.638  10.656 -1.9381 -1.1727  0.5503
  852MOL0     H12433   7.029   1.571  10.503 -1.0907  0.8242  1.5921
  852MOL0     H12434   7.104   1.802  10.404  1.3348  1.6174  1.6439
  852MOL0     H12435   7.087   1.863  10.577 -2.0584  1.6899 -0.1609
  852MOL0     H12436   6.859   1.730  10.424 -2.7648  1.2829 -0.2800
  852MOL0     H12437   6.865   1.790  10.595 -1.3290 -1.0642 -0.7288
  852MOL0     H12438   6.892   2.003  10.508 -0.2421  0.5046 -0.0496
  852MOL0     H12439   6.740   1.914  10.457 -0.2984 -0.7240 -2.4300
  852MOL0     H12440   6.930   1.867  10.248 -1.8194 -3.5300  3.6399
  852MOL0     H12441   6.915   2.049  10.295 -2.5021  1.0924 -0.5797
  852MOL0     H12442   6.691   1.882  10.216 -0.5076  1.2855 -1.9924
  852MOL0     H12443   6.683   2.053  10.257  0.0758  1.0164  0.4621
  852MOL0     H12444   6.698   2.043  10.006  0.8301  0.3375 -0.0869
  852MOL0     H12445   6.818   1.916  10.016  1.5740 -0.3947 -0.5370
  852MOL0     H12446   7.326   1.267  10.702 -0.2017  1.0093  2.1022
  852MOL0     H12447   7.548   1.185  10.736 -0.3266  0.0334  1.6760
  852MOL0     H12448   8.144   1.362  10.528 -3.8748  0.8397  0.5058
  852MOL0     H12449   8.341   1.275  10.623 -1.9156 -2.5195 -3.6435
  852MOL0     H12450  10.078   0.410  10.525  1.4867 -0.1894 -0.3034
  852MOL0     H12451  10.313   0.460  10.580  0.8441  0.6479 -2.4891
  852MOL0     H12452  10.722   0.614  10.418  1.2241 -1.0799 -0.7781
  852MOL0     H12453  10.943   0.659  10.456 -2.0666 -3.5629 -1.1251
  852MOL0     H12454  11.049   0.561  10.840 -0.2218 -1.8351 -2.5031
  852MOL0     H12455  11.185   0.685  10.850  3.3198 -2.4103  0.9440
  852MOL0     H12456  11.250   0.574  10.619  0.3405 -3.9379 -1.6130
  852MOL0     H12457  11.324   0.520  10.761  1.7268  2.5870 -3.2949
  852MOL0     H12458  11.067   0.391  10.640 -1.7448 -1.4842  1.0891
  852MOL0     H12459  11.146   0.345  10.778  1.9778  0.0893  0.1364
  852MOL0     H12460  11.378   0.314  10.632 -0.8539 -2.3039  0.0807
  852MOL0     H12461  11.243   0.209  10.614  0.9039  0.0797  1.3559
  852MOL0     H12462  11.233   0.367  10.228 -2.9520 -3.5852  1.1051
  852MOL0     H12463  10.869   0.729  10.868  1.3628 -1.3799  0.7313
  852MOL0     H12464  10.623   0.705  10.838  0.2949 -1.0691 -0.5260
  853MOL0     O12465   2.234   9.652   8.707  0.2429  0.2033  0.0495
  853MOL0     C12466   2.348   9.687   8.753 -0.3646  0.0145 -0.0897
  853MOL0     O12467   2.405   9.807   8.739  0.5297 -0.3253 -0.2848
  853MOL0     C12468   2.327   9.916   8.703  0.2496 -0.4808  0.4684
  853MOL0     C12469   2.393  10.027   8.649 -0.4167 -0.1504 -0.0037
  853MOL0     C12470   2.326  10.126   8.579  0.6920  0.2579 -0.7283
  853MOL0     C12471   2.180  10.130   8.585  0.3125 -0.2533  0.3233
  853MOL0     O12472   2.105  10.217   8.514 -0.5523  0.0304 -0.4580
  853MOL0     C12473   2.158  10.347   8.516  0.4270  0.1209 -1.3713
  853MOL0     C12474   2.065  10.454   8.451 -0.2825 -0.5241  0.3479
  853MOL0     C12475   1.924  10.442   8.501 -0.0365 -0.5315  0.4908
  853MOL0     C12476   1.856  10.571   8.451  0.5613  0.4537  0.2619
  853MOL0     C12477   1.717  10.587   8.514  0.6993  0.3979 -0.8992
  853MOL0     C12478   1.632  10.460   8.488 -1.1340  0.1261 -0.6299
  853MOL0     C12479   1.486  10.491   8.513 -0.6421 -0.4307 -0.7255
  853MOL0     C12480   1.407  10.522   8.377  0.3878 -0.4783 -0.4230
  853MOL0     N12481   1.446  10.646   8.311  0.3119 -0.4614  0.4528
  853MOL0     C12482   1.398  10.773   8.351 -0.9290  0.3230 -0.2743
  853MOL0     C12483   1.459  10.864   8.270 -0.8160 -0.8066  1.6883
  853MOL0     C12484   1.438  11.014   8.277  1.0173 -0.5460 -0.1145
  853MOL0     C12485   1.341  11.045   8.153 -0.8655  0.5321  0.4814
  853MOL0     C12486   1.328  11.194   8.112 -0.1674 -1.3021  0.0166
  853MOL0     C12487   1.237  11.260   8.223 -0.2589 -1.0335 -0.6141
  853MOL0     O12488   1.102  11.219   8.215  0.7665  0.2369  0.3299
  853MOL0     C12489   1.016  11.273   8.316 -0.5012  0.3538  1.3674
  853MOL0     C12490   0.919  11.358   8.267  0.0097  0.2371 -0.1956
  853MOL0     C12491   0.830  11.420   8.359 -0.6801 -0.9972  1.1303
  853MOL0     C12492   0.833  11.391   8.493 -0.7329  0.1130 -0.3046
  853MOL0     C12493   0.750  11.447   8.590  0.0215  0.2001 -0.3398
  853MOL0     O12494   0.677  11.378   8.681  0.0382  0.4554  0.1828
  853MOL0     C12495   0.589  11.442   8.766 -0.3522  1.0059  0.4739
  853MOL0     C12496   0.458  11.408   8.777  0.8555  0.6160 -0.0476
  853MOL0     C12497   0.374  11.470   8.872  0.4700  0.2936  0.4342
  853MOL0     C12498   0.430  11.580   8.948  0.3431  0.0835  0.5001
  853MOL0     O12499   0.345  11.644   9.035  0.1902 -0.0581  0.4371
  853MOL0     C12500   0.372  11.782   9.067 -0.8033  0.4082 -0.3867
  853MOL0     C12501   0.414  11.800   9.218 -0.4357 -0.9011  0.5220
  853MOL0     C12502   0.298  11.742   9.309 -0.2140  0.0924 -0.6888
  853MOL0     C12503   0.326  11.753   9.460 -0.3447  0.0204 -0.2510
  853MOL0     C12504   0.274  11.637   9.549  0.0961  0.5493  0.8848
  853MOL0     C12505   0.131  11.599   9.513  0.6337 -0.4358 -0.2759
  853MOL0     C12506   0.069  11.515   9.629  0.1143  0.1934 -0.2741
  853MOL0     C12507   0.075  11.580   9.767  0.0458  0.6558  0.4573
  853MOL0    Cl12508   0.001  11.737   9.767 -0.3735 -0.1190 -0.3898
  853MOL0     C12509   0.559  11.607   8.939 -0.4479 -0.6261 -1.2121
  853MOL0     C12510   0.637  11.538   8.852  0.4645 -0.7541  0.0347
  853MOL0     O12511   0.756  11.568   8.587 -0.0830 -0.2341  0.6845
  853MOL0     C12512   0.926  11.299   8.542  0.2136 -0.4512  0.0737
  853MOL0     C12513   1.018  11.239   8.453 -0.1123  1.0135  0.7190
  853MOL0     N12514   1.545  10.801   8.185 -0.8459  0.2118 -0.5270
  853MOL0     N12515   1.540  10.666   8.208  0.9849 -0.2831 -0.3113
  853MOL0     C12516   2.117  10.032   8.662 -0.3903  0.3861 -0.1310
  853MOL0     C12517   2.188   9.926   8.714  0.0025  0.6339 -0.2236
  853MOL0     C12518   2.418   9.590   8.852  0.4081  0.0483 -0.6961
  853MOL0     C12519   2.394   9.446   8.830  1.0659  0.0733  0.1993
  853MOL0     C12520   2.454   9.346   8.912  1.1231 -0.0362  0.1457
  853MOL0     C12521   2.544   9.390   9.012  0.4708  1.1709  0.0501
  853MOL0     O12522   2.604   9.293   9.088  0.5598 -0.3751 -0.3094
  853MOL0     C12523   2.664   9.327   9.209  0.5875  0.6162  0.6031
  853MOL0     C12524   2.669   9.191   9.290  0.5549  0.0976 -0.3958
  853MOL0     C12525   2.767   9.093   9.231  0.2158 -0.9173  0.5345
  853MOL0     C12526   2.816   8.988   9.332  0.4368  0.5802 -0.4125
  853MOL0     C12527   2.930   8.918   9.273 -0.1249 -1.1743  0.5831
  853MOL0     C12528   3.028   8.861   9.238 -0.0370 -0.5612  1.4787
  853MOL0     C12529   2.583   9.526   9.017 -0.3065  0.8655 -0.0868
  853MOL0     C12530   2.510   9.627   8.948 -1.2144  0.7975 -0.2298
  853MOL0     H12531   2.501  10.027   8.655 -0.4381 -0.6764  0.5725
  853MOL0     H12532   2.389  10.205   8.538 -0.6979  1.9279  0.2352
  853MOL0     H12533   2.252  10.349   8.460  1.9608  3.9382  0.9403
  853MOL0     H12534   2.178  10.367   8.622  1.4840  1.2234 -1.7622
  853MOL0     H12535   2.061  10.446   8.342 -2.9888  1.3273  0.2063
  853MOL0     H12536   2.098  10.551   8.490 -0.0784 -0.1572 -0.7213
  853MOL0     H12537   1.924  10.437   8.610  2.1296  1.8877  0.6972
  853MOL0     H12538   1.893  10.350   8.451  1.9365 -1.8180  1.5321
  853MOL0     H12539   1.921  10.653   8.482  2.9927 -0.9622 -0.7450
  853MOL0     H12540   1.835  10.571   8.344 -1.2399  0.4215  0.5748
  853MOL0     H12541   1.668  10.679   8.482  0.6393  1.1007  1.0272
  853MOL0     H12542   1.730  10.596   8.623 -1.2029 -1.4574 -0.4550
  853MOL0     H12543   1.664  10.371   8.544 -1.2726 -0.0173 -0.7748
  853MOL0     H12544   1.660  10.426   8.388  2.7067  0.8958 -0.0030
  853MOL0     H12545   1.436  10.401   8.551 -1.9155 -0.8550 -3.1821
  853MOL0     H12546   1.475  10.578   8.578 -0.0047 -0.2634 -0.8388
  853MOL0     H12547   1.300  10.516   8.399  0.8722 -1.1488  2.0427
  853MOL0     H12548   1.420  10.439   8.307  0.7305 -1.3864  0.6866
  853MOL0     H12549   1.319  10.797   8.421 -1.1047  0.1789 -0.4221
  853MOL0     H12550   1.532  11.067   8.263  0.3229  0.5842 -0.7065
  853MOL0     H12551   1.394  11.063   8.365 -0.5034  3.2461 -2.7070
  853MOL0     H12552   1.243  10.995   8.154 -0.5971 -0.2287 -2.1013
  853MOL0     H12553   1.397  11.000   8.070 -2.2288 -1.8395  0.7527
  853MOL0     H12554   1.433  11.224   8.108  0.1751 -2.3049  0.8742
  853MOL0     H12555   1.277  11.191   8.016 -0.0304 -0.8266 -0.0695
  853MOL0     H12556   1.244  11.369   8.211  0.0967 -0.9931 -0.0835
  853MOL0     H12557   1.279  11.241   8.322  0.3573 -0.7046 -0.8082
  853MOL0     H12558   0.932  11.396   8.166  1.9749 -2.1186 -0.9385
  853MOL0     H12559   0.753  11.488   8.324 -3.6403 -3.0169  3.1905
  853MOL0     H12560   0.426  11.325   8.714  2.4582 -1.3349  1.5277
  853MOL0     H12561   0.272  11.441   8.897  0.4223 -3.1972 -2.9127
  853MOL0     H12562   0.276  11.834   9.052 -1.4238 -1.1988 -2.5689
  853MOL0     H12563   0.441  11.837   9.002  1.9012 -0.4671  1.5667
  853MOL0     H12564   0.425  11.907   9.236 -3.1612 -0.5453  0.4846
  853MOL0     H12565   0.507  11.745   9.235 -2.3301 -4.0484  1.5527
  853MOL0     H12566   0.276  11.638   9.288 -0.1067 -0.4338  1.5543
  853MOL0     H12567   0.206  11.795   9.283  0.7450  1.6931 -0.9978
  853MOL0     H12568   0.430  11.776   9.482 -0.2335  0.1951 -0.9329
  853MOL0     H12569   0.272  11.840   9.497 -1.0994 -0.0298 -1.1828
  853MOL0     H12570   0.283  11.668   9.654  0.6484  1.9352  0.4584
  853MOL0     H12571   0.345  11.554   9.543  0.9093  1.3252 -2.0683
  853MOL0     H12572   0.120  11.540   9.421 -0.7172 -0.9744  0.2146
  853MOL0     H12573   0.074  11.691   9.501  0.7253 -0.4553 -0.9061
  853MOL0     H12574  -0.036  11.491   9.612  0.5191 -1.2531 -0.9248
  853MOL0     H12575   0.123  11.420   9.633 -1.1052 -0.5421 -0.6810
  853MOL0     H12576   0.178  11.591   9.802  0.8810 -0.3665 -1.5229
  853MOL0     H12577   0.033  11.510   9.840 -1.8142  1.4209  0.1889
  853MOL0     H12578   0.614  11.674   9.003 -1.9175  2.3194 -2.8453
  853MOL0     H12579   0.745  11.547   8.847  0.2978  1.4166 -0.6616
  853MOL0     H12580   0.922  11.263   8.645  2.8483 -1.8164 -0.2161
  853MOL0     H12581   1.066  11.153   8.499 -0.0761  1.0681  0.7825
  853MOL0     H12582   2.009  10.042   8.664 -0.4345  0.2790 -1.3697
  853MOL0     H12583   2.140   9.846   8.770 -1.2456 -0.4024 -2.5979
  853MOL0     H12584   2.336   9.413   8.745  0.2270 -1.3009  1.2521
  853MOL0     H12585   2.426   9.242   8.898 -1.6498  0.7289 -0.6413
  853MOL0     H12586   2.597   9.400   9.257 -0.9612 -0.1560 -0.3000
  853MOL0     H12587   2.764   9.364   9.187  1.4345 -1.7648  0.1743
  853MOL0     H12588   2.684   9.205   9.398 -0.6854 -1.3824  0.0109
  853MOL0     H12589   2.569   9.147   9.299 -0.8049  3.1003  0.5996
  853MOL0     H12590   2.853   9.147   9.189 -1.1032  1.6396  0.9147
  853MOL0     H12591   2.719   9.035   9.152  0.4900 -3.3616  2.0467
  853MOL0     H12592   2.842   9.029   9.430  0.3886 -2.0987  0.8229
  853MOL0     H12593   2.743   8.907   9.341  0.3691  0.8265  2.3533
  853MOL0     H12594   3.111   8.808   9.195  0.5531  1.3781  0.0875
  853MOL0     H12595   2.672   9.555   9.070  1.1990 -2.0938 -0.7453
  853MOL0     H12596   2.535   9.730   8.969 -4.2808  1.2642  1.6899
  854MOL0     O12597   9.617   3.457   0.952 -0.3425 -0.0106 -0.2002
  854MOL0     C12598   9.663   3.398   1.052  0.5367  0.3974  0.2808
  854MOL0     O12599   9.613   3.286   1.110 -0.2016  0.1392 -0.3952
  854MOL0     C12600   9.485   3.238   1.072 -0.7278  0.1825  0.7588
  854MOL0     C12601   9.462   3.099   1.068 -0.7078 -0.4711 -1.0174
  854MOL0     C12602   9.333   3.045   1.043 -0.3444 -0.4925  0.1882
  854MOL0     C12603   9.228   3.135   1.031  0.3768 -0.2433 -0.0419
  854MOL0     O12604   9.094   3.097   1.034 -0.5576 -0.0956 -0.0658
  854MOL0     C12605   9.046   2.968   1.063  1.2282  1.4155  0.4702
  854MOL0     C12606   8.909   2.968   0.981  0.1315 -0.3166  0.0477
  854MOL0     C12607   8.845   2.837   0.992 -0.7156 -0.5419  0.2140
  854MOL0     C12608   8.717   2.848   0.906  0.3414  0.2157 -1.0373
  854MOL0     C12609   8.637   2.722   0.923 -0.1400  0.2556 -0.0481
  854MOL0     C12610   8.490   2.758   0.957 -1.1423 -0.2921 -0.6415
  854MOL0     C12611   8.404   2.634   0.989  0.7202 -0.2765  0.2749
  854MOL0     C12612   8.445   2.559   1.108 -0.8045 -0.5241  0.1945
  854MOL0     N12613   8.336   2.471   1.162  0.3665  0.1417 -0.5331
  854MOL0     C12614   8.201   2.498   1.175  1.0194 -0.3770 -0.7104
  854MOL0     C12615   8.137   2.383   1.212  0.0573 -0.3404 -0.0124
  854MOL0     C12616   7.993   2.361   1.211 -0.4587  0.4182 -0.7907
  854MOL0     C12617   7.974   2.240   1.118  0.1445 -0.4727 -0.5913
  854MOL0     C12618   8.022   2.105   1.162  0.4667  0.2093  0.1598
  854MOL0     C12619   7.977   2.055   1.302 -0.0613 -0.1572 -0.0675
  854MOL0     O12620   7.828   2.058   1.317  0.1075  0.4105  0.2008
  854MOL0     C12621   7.756   1.959   1.259  0.1132  0.4582  0.0541
  854MOL0     C12622   7.792   1.828   1.256  0.7777  0.8231 -0.6630
  854MOL0     C12623   7.712   1.739   1.178  1.0956  0.0838  0.4684
  854MOL0     C12624   7.593   1.783   1.110  0.1936  0.2140  0.0106
  854MOL0     C12625   7.516   1.689   1.030  0.2402 -0.3101  0.1266
  854MOL0     O12626   7.568   1.562   1.016 -0.5225 -0.4186 -0.8520
  854MOL0     C12627   7.484   1.457   0.975 -0.2276 -0.6335  0.4551
  854MOL0     C12628   7.547   1.351   0.922  0.2545  0.1575  0.7450
  854MOL0     C12629   7.490   1.231   0.887  0.6547  0.0587  0.6729
  854MOL0     C12630   7.354   1.212   0.906  0.8354  0.1490 -0.3563
  854MOL0     O12631   7.295   1.091   0.894 -0.0298 -0.1507 -0.3728
  854MOL0     C12632   7.352   0.965   0.851  0.4051  0.9878 -0.1499
  854MOL0     C12633   7.270   0.865   0.931 -0.2001  0.5756 -0.6268
  854MOL0     C12634   7.117   0.888   0.922 -0.5033  0.2856  0.1616
  854MOL0     C12635   7.032   0.778   0.995 -0.1322  0.1719  1.4784
  854MOL0     C12636   6.891   0.772   0.935 -0.1652 -0.1881  0.0534
  854MOL0     C12637   6.807   0.657   0.996 -0.0235 -0.1548 -0.6082
  854MOL0     C12638   6.669   0.653   0.916 -0.7767 -0.4338 -0.4188
  854MOL0     C12639   6.577   0.546   0.970  0.1040  0.2077  0.2399
  854MOL0    Cl12640   6.411   0.554   0.892  0.5038  0.1499  0.1782
  854MOL0     C12641   7.281   1.327   0.951  0.9498  0.0967 -0.1085
  854MOL0     C12642   7.345   1.443   0.984  0.0925  0.0733 -0.0239
  854MOL0     O12643   7.417   1.730   0.973  0.6589  0.3569 -0.6184
  854MOL0     C12644   7.563   1.915   1.130 -0.4927 -0.5547  0.5740
  854MOL0     C12645   7.650   2.003   1.189 -0.8590  0.1245 -0.0928
  854MOL0     N12646   8.238   2.290   1.238 -0.1324  0.0405 -0.0149
  854MOL0     N12647   8.351   2.349   1.218 -0.7999 -0.2221 -0.6175
  854MOL0     C12648   9.253   3.271   1.027 -0.1837 -0.3730 -0.1116
  854MOL0     C12649   9.382   3.329   1.052 -0.8309 -0.4802  1.1447
  854MOL0     C12650   9.801   3.428   1.090  0.1804  0.3721 -0.7801
  854MOL0     C12651   9.882   3.334   1.146 -0.8048  0.4605  0.0603
  854MOL0     C12652  10.010   3.374   1.185  0.2125  0.3265 -0.4909
  854MOL0     C12653  10.052   3.512   1.180 -0.7353 -0.4970 -1.3327
  854MOL0     O12654  10.172   3.543   1.229 -0.3913  0.2287 -0.1276
  854MOL0     C12655  10.176   3.625   1.348 -0.2099 -0.0750  0.8756
  854MOL0     C12656  10.295   3.729   1.326 -0.0774  0.0498 -0.3664
  854MOL0     C12657  10.439   3.664   1.322  0.5475 -0.7818 -0.3765
  854MOL0     C12658  10.487   3.633   1.467 -0.2108 -0.1322 -0.4100
  854MOL0     C12659  10.506   3.758   1.546 -0.0882 -0.9543  0.4139
  854MOL0     C12660  10.535   3.861   1.599 -0.4890  0.3830 -0.5837
  854MOL0     C12661   9.963   3.611   1.127 -0.3635 -0.9815 -0.1437
  854MOL0     C12662   9.837   3.569   1.079 -0.3202 -0.2520  0.5998
  854MOL0     H12663   9.541   3.036   1.108 -0.7734 -0.5070 -0.9442
  854MOL0     H12664   9.317   2.939   1.059 -0.3872 -0.9973 -2.6202
  854MOL0     H12665   9.018   2.957   1.168  2.4318 -2.7322  0.5326
  854MOL0     H12666   9.112   2.892   1.020 -0.3578  0.7245 -0.8494
  854MOL0     H12667   8.945   2.989   0.880  0.4065  2.5210  0.6623
  854MOL0     H12668   8.841   3.043   1.020  2.0171 -0.0819  3.1949
  854MOL0     H12669   8.817   2.822   1.096 -0.9347 -3.7218 -0.1962
  854MOL0     H12670   8.911   2.756   0.959  1.5271  1.0636  0.4971
  854MOL0     H12671   8.648   2.926   0.939 -0.3231 -0.5747 -0.5356
  854MOL0     H12672   8.744   2.861   0.800  1.0579 -0.1685 -0.9117
  854MOL0     H12673   8.677   2.665   1.008 -1.7123 -2.2294 -0.8720
  854MOL0     H12674   8.653   2.665   0.832 -2.7152  0.1437 -0.5019
  854MOL0     H12675   8.448   2.798   0.865 -1.0846 -0.8493 -0.9142
  854MOL0     H12676   8.478   2.831   1.038 -2.1889 -0.6806 -0.4307
  854MOL0     H12677   8.299   2.662   1.002  0.2541 -2.1196  0.7649
  854MOL0     H12678   8.420   2.562   0.908 -0.7291 -1.0130  0.6011
  854MOL0     H12679   8.463   2.642   1.178  1.7918 -0.2417 -0.6961
  854MOL0     H12680   8.544   2.512   1.106  0.5149  2.1121 -1.3544
  854MOL0     H12681   8.146   2.587   1.147  1.1968 -0.1601 -0.3789
  854MOL0     H12682   7.961   2.450   1.155  1.1109 -0.4458 -3.2089
  854MOL0     H12683   7.933   2.344   1.300 -0.9606 -4.1003 -1.7641
  854MOL0     H12684   8.028   2.264   1.025  2.3762 -0.2026  0.7174
  854MOL0     H12685   7.866   2.236   1.100  0.2960  0.3240 -1.8356
  854MOL0     H12686   7.988   2.032   1.088  0.7012 -1.9730  2.0950
  854MOL0     H12687   8.131   2.098   1.153  0.5874  0.6466  1.1519
  854MOL0     H12688   8.007   2.132   1.373 -1.6890  0.1232  0.3354
  854MOL0     H12689   8.033   1.965   1.330  0.7611  0.7722  1.4015
  854MOL0     H12690   7.882   1.793   1.305 -1.0461 -0.8595  1.6730
  854MOL0     H12691   7.753   1.639   1.163  0.6069  0.2869 -3.0624
  854MOL0     H12692   7.655   1.358   0.911  0.6336 -1.6869  2.5953
  854MOL0     H12693   7.543   1.145   0.847  2.0926  1.1215  0.2197
  854MOL0     H12694   7.454   0.946   0.886 -1.3019 -2.4990  3.8955
  854MOL0     H12695   7.354   0.950   0.743  1.2853  0.6185 -0.0911
  854MOL0     H12696   7.305   0.858   1.035 -0.9330  2.2110 -0.2320
  854MOL0     H12697   7.303   0.768   0.894  2.0206  0.8861  0.3522
  854MOL0     H12698   7.091   0.895   0.816 -0.8820  3.6083  0.3744
  854MOL0     H12699   7.094   0.983   0.971 -1.1014  1.0645 -1.5397
  854MOL0     H12700   7.077   0.682   0.969  1.5725  1.0186  1.1718
  854MOL0     H12701   7.035   0.818   1.096  0.4563  2.8996  0.4744
  854MOL0     H12702   6.894   0.760   0.826  3.0017 -3.8763  0.3152
  854MOL0     H12703   6.840   0.862   0.969  0.0339 -0.4792  1.1740
  854MOL0     H12704   6.777   0.680   1.099 -1.0389 -1.4578 -0.5815
  854MOL0     H12705   6.857   0.560   0.994 -1.9106 -1.1486 -1.9513
  854MOL0     H12706   6.627   0.754   0.910 -0.6809 -0.3875 -0.3361
  854MOL0     H12707   6.702   0.630   0.814  0.1262 -2.9969  0.3930
  854MOL0     H12708   6.564   0.551   1.079  0.9397 -1.7293  0.4740
  854MOL0     H12709   6.628   0.452   0.948 -0.9459 -0.2916 -0.1717
  854MOL0     H12710   7.173   1.318   0.955  0.7204  1.7107 -1.4739
  854MOL0     H12711   7.279   1.508   1.041 -0.6131 -1.7225  1.3050
  854MOL0     H12712   7.475   1.963   1.089  0.2350 -1.2011 -1.9141
  854MOL0     H12713   7.627   2.109   1.194  2.6059  0.9475  1.3212
  854MOL0     H12714   9.167   3.337   1.025  0.9990  1.5493  3.4405
  854MOL0     H12715   9.408   3.434   1.062 -0.2328 -0.3225 -1.3723
  854MOL0     H12716   9.838   3.236   1.164 -2.4773  0.8244 -1.6807
  854MOL0     H12717  10.067   3.296   1.235  1.2512  2.0211  1.0593
  854MOL0     H12718  10.209   3.568   1.436 -0.8946  0.7394  1.6753
  854MOL0     H12719  10.083   3.674   1.377  0.8010  1.5694  1.4740
  854MOL0     H12720  10.284   3.786   1.233 -2.7438  1.3290  0.6236
  854MOL0     H12721  10.279   3.805   1.403  0.8331  0.4147 -0.5304
  854MOL0     H12722  10.506   3.735   1.272 -2.7838  1.3864 -2.2112
  854MOL0     H12723  10.451   3.572   1.265  1.7426 -1.6689  1.2384
  854MOL0     H12724  10.413   3.573   1.520 -1.5256  2.3742  0.7662
  854MOL0     H12725  10.588   3.590   1.463 -1.1492 -3.4899  4.1798
  854MOL0     H12726  10.574   3.952   1.640  1.4315  0.0067 -1.4996
  854MOL0     H12727   9.989   3.716   1.129  5.0982 -1.8345 -4.0908
  854MOL0     H12728   9.776   3.645   1.031 -2.3211 -1.7711  0.5729
  855MOL0     O12729   4.684   0.206   8.313  0.0865  0.2434 -0.0220
  855MOL0     C12730   4.706   0.311   8.366 -0.4069  0.0144 -0.7137
  855MOL0     O12731   4.652   0.437   8.327 -0.4030 -0.1743 -0.4936
  855MOL0     C12732   4.593   0.429   8.207  1.2855 -0.1385  0.1789
  855MOL0     C12733   4.453   0.417   8.198 -0.2117 -0.3103 -0.5108
  855MOL0     C12734   4.380   0.431   8.075  1.0681 -0.6673 -0.8489
  855MOL0     C12735   4.445   0.453   7.963  0.3706 -0.6936  1.0990
  855MOL0     O12736   4.364   0.464   7.851 -0.4827  0.1571  0.3324
  855MOL0     C12737   4.413   0.516   7.731 -0.7062  0.7684  1.0631
  855MOL0     C12738   4.308   0.613   7.682 -0.8407  0.0989  0.5412
  855MOL0     C12739   4.362   0.663   7.541  0.0204  0.0928 -0.2123
  855MOL0     C12740   4.251   0.734   7.461  0.0306  0.6433 -1.1359
  855MOL0     C12741   4.141   0.638   7.414  0.6949  0.6702  0.9478
  855MOL0     C12742   4.191   0.523   7.311  0.8386  0.7977 -0.0254
  855MOL0     C12743   4.065   0.471   7.237 -0.5455  0.3155  0.7546
  855MOL0     C12744   3.947   0.413   7.315 -0.0326 -0.0743  0.0756
  855MOL0     N12745   3.994   0.304   7.395  0.1481  0.2770 -0.4133
  855MOL0     C12746   4.059   0.307   7.525 -0.3774 -0.3972 -0.5410
  855MOL0     C12747   4.073   0.180   7.573  0.1696 -0.6720 -0.0226
  855MOL0     C12748   4.117   0.142   7.709 -0.3023  0.5921  0.2199
  855MOL0     C12749   4.006   0.148   7.815  0.1688  1.2172  0.0660
  855MOL0     C12750   3.994   0.287   7.880  1.3562 -0.2155 -0.5004
  855MOL0     C12751   3.885   0.301   7.990 -0.0947  0.4868  0.1472
  855MOL0     O12752   3.913   0.423   8.066  0.6270 -0.2043 -0.2380
  855MOL0     C12753   3.986   0.418   8.182  0.3050  0.3478 -0.8794
  855MOL0     C12754   4.079   0.310   8.216  0.1117  1.0415  0.0270
  855MOL0     C12755   4.143   0.303   8.341 -0.1045 -0.0026  0.4154
  855MOL0     C12756   4.128   0.411   8.435 -1.3663  0.8006  0.1537
  855MOL0     C12757   4.198   0.405   8.560 -0.0029  0.0082 -0.1468
  855MOL0     O12758   4.272   0.289   8.592  0.3820  0.0258  0.5282
  855MOL0     C12759   4.294   0.262   8.721 -0.1695 -0.1433  0.3051
  855MOL0     C12760   4.191   0.272   8.817  0.0340  0.5932 -0.3299
  855MOL0     C12761   4.215   0.237   8.947  1.1717 -0.1629  0.3446
  855MOL0     C12762   4.340   0.189   8.984  0.2816  0.4418 -0.3320
  855MOL0     O12763   4.357   0.153   9.121  0.0609 -0.5007  0.0356
  855MOL0     C12764   4.475   0.088   9.164  0.4431  0.2319  0.5038
  855MOL0     C12765   4.479  -0.061   9.141  0.0200 -0.2221  0.2161
  855MOL0     C12766   4.615  -0.119   9.194 -0.2048 -0.0158  0.1657
  855MOL0     C12767   4.634  -0.104   9.345 -0.1201  0.0513  0.0033
  855MOL0     C12768   4.764  -0.169   9.392  0.3643  0.0471  0.1033
  855MOL0     C12769   4.818  -0.147   9.534 -0.4641 -0.4465  0.1348
  855MOL0     C12770   4.721  -0.181   9.651  0.8692 -1.4624 -1.1262
  855MOL0     C12771   4.760  -0.301   9.737 -0.6435 -0.1302 -0.5818
  855MOL0    Cl12772   4.923  -0.287   9.813  0.3644 -0.3411 -0.2761
  855MOL0     C12773   4.439   0.169   8.886 -0.4057 -0.2315  1.0124
  855MOL0     C12774   4.418   0.213   8.756 -0.0294  0.9745  0.1576
  855MOL0     O12775   4.194   0.506   8.632  0.3777  0.7734  0.3602
  855MOL0     C12776   4.038   0.513   8.400 -0.3842 -0.6109  0.1255
  855MOL0     C12777   3.971   0.518   8.279 -0.0875  0.7189  0.0068
  855MOL0     N12778   4.014   0.103   7.468 -0.4743  0.0731  0.0025
  855MOL0     N12779   3.975   0.172   7.370  1.1311  0.8859 -0.7383
  855MOL0     C12780   4.581   0.468   7.969 -0.7929  0.3885 -0.2931
  855MOL0     C12781   4.656   0.463   8.090 -0.4993  0.3054  0.3336
  855MOL0     C12782   4.771   0.293   8.501  0.4571 -0.1029  0.1784
  855MOL0     C12783   4.831   0.177   8.544  0.3075  0.0900 -0.5416
  855MOL0     C12784   4.874   0.167   8.680  0.1871  0.5129 -0.0668
  855MOL0     C12785   4.858   0.275   8.773  0.1838  0.2434  0.1132
  855MOL0     O12786   4.892   0.274   8.901 -0.2043  0.1503  0.4833
  855MOL0     C12787   4.968   0.162   8.950 -0.1203  0.0574 -0.3133
  855MOL0     C12788   4.982   0.160   9.108 -0.5890  0.4229 -0.0935
  855MOL0     C12789   4.856   0.196   9.188  0.2232 -0.5259 -1.2584
  855MOL0     C12790   4.856   0.327   9.277  0.8411  0.9917 -0.1396
  855MOL0     C12791   4.733   0.333   9.350  0.5364  0.3192 -1.1358
  855MOL0     C12792   4.622   0.351   9.388  0.1902  0.2846 -0.0052
  855MOL0     C12793   4.789   0.388   8.727 -0.1908  0.3348  0.5644
  855MOL0     C12794   4.754   0.398   8.592 -0.0195  0.2206 -0.1068
  855MOL0     H12795   4.406   0.408   8.295 -0.3344  2.0614 -0.2779
  855MOL0     H12796   4.272   0.423   8.071  0.8440 -1.7479  3.1003
  855MOL0     H12797   4.432   0.440   7.654  2.7536  1.0442  1.4993
  855MOL0     H12798   4.500   0.582   7.735 -0.5319  0.9615 -2.6525
  855MOL0     H12799   4.301   0.700   7.748 -1.3077 -1.5638  2.8243
  855MOL0     H12800   4.208   0.568   7.680  0.5051 -3.1831  0.1464
  855MOL0     H12801   4.406   0.585   7.478 -0.4329 -1.8436  1.7250
  855MOL0     H12802   4.441   0.739   7.551  1.9638 -1.4507 -2.5182
  855MOL0     H12803   4.215   0.810   7.531  1.6961  1.4801 -1.1542
  855MOL0     H12804   4.299   0.789   7.379 -1.2342 -0.4807 -2.6991
  855MOL0     H12805   4.090   0.702   7.341  3.0722  0.4984 -0.9677
  855MOL0     H12806   4.071   0.608   7.492 -0.1769  3.5666  1.4338
  855MOL0     H12807   4.248   0.451   7.371  1.1847  1.9642  1.0955
  855MOL0     H12808   4.255   0.567   7.233 -1.5775  1.0561 -1.9831
  855MOL0     H12809   4.036   0.555   7.173  1.7823  0.3234 -0.4077
  855MOL0     H12810   4.096   0.390   7.171 -1.3427  0.3060  0.3807
  855MOL0     H12811   3.860   0.381   7.257 -0.7467  1.3796  0.2985
  855MOL0     H12812   3.902   0.489   7.380  0.2827 -0.5397  0.8476
  855MOL0     H12813   4.092   0.389   7.588 -0.7261 -1.2534  0.8053
  855MOL0     H12814   4.200   0.209   7.731  0.3479  0.3203 -1.2898
  855MOL0     H12815   4.155   0.040   7.697 -0.1548  0.8363 -1.7327
  855MOL0     H12816   4.024   0.077   7.895 -1.3286 -2.3317 -2.5021
  855MOL0     H12817   3.908   0.113   7.780 -0.8890  1.6071  2.4765
  855MOL0     H12818   4.083   0.320   7.935  0.0879 -0.0742  1.5632
  855MOL0     H12819   3.957   0.355   7.803 -1.5324 -0.2628  0.7286
  855MOL0     H12820   3.867   0.213   8.051  2.3671  1.7301  2.9025
  855MOL0     H12821   3.789   0.319   7.940  1.8961  3.0813 -3.1824
  855MOL0     H12822   4.088   0.225   8.148  0.1768  0.6473  0.5210
  855MOL0     H12823   4.192   0.211   8.369 -0.1116  0.6615  2.8079
  855MOL0     H12824   4.092   0.299   8.782  0.4884  0.0540 -2.1458
  855MOL0     H12825   4.146   0.246   9.031  2.5771 -0.9366  1.6385
  855MOL0     H12826   4.465   0.113   9.271 -1.5949  0.1715  0.3807
  855MOL0     H12827   4.561   0.132   9.114  0.3936  0.5732  0.7134
  855MOL0     H12828   4.467  -0.087   9.035  0.7722  0.1463  0.0377
  855MOL0     H12829   4.399  -0.115   9.192  1.1942 -0.3243  2.0300
  855MOL0     H12830   4.702  -0.065   9.155 -0.6119  1.1473  0.8130
  855MOL0     H12831   4.627  -0.223   9.163  1.3941 -0.2378  1.3928
  855MOL0     H12832   4.638   0.001   9.375  2.4641  0.3298 -1.1199
  855MOL0     H12833   4.548  -0.142   9.401  1.5186 -2.0281  1.2947
  855MOL0     H12834   4.843  -0.138   9.322  0.1218 -0.0020 -0.1933
  855MOL0     H12835   4.757  -0.278   9.384 -0.1349  0.0908 -0.0538
  855MOL0     H12836   4.851  -0.044   9.552  2.3400 -1.5185  1.8879
  855MOL0     H12837   4.901  -0.211   9.567  0.9629  1.4843  0.4721
  855MOL0     H12838   4.713  -0.095   9.718 -0.4985 -2.2704 -0.2058
  855MOL0     H12839   4.630  -0.210   9.597  0.3494 -1.0070 -0.5098
  855MOL0     H12840   4.749  -0.393   9.678 -1.9854 -1.2808  1.3349
  855MOL0     H12841   4.692  -0.309   9.822  0.2414 -2.5136 -0.0153
  855MOL0     H12842   4.540   0.132   8.904  0.2717  0.5420 -0.9607
  855MOL0     H12843   4.501   0.204   8.687  0.2961 -1.9266  0.7985
  855MOL0     H12844   4.028   0.608   8.452  0.7477  0.7837 -2.0295
  855MOL0     H12845   3.914   0.602   8.240  0.5271 -0.5145 -4.0899
  855MOL0     H12846   4.642   0.487   7.881  0.1785  1.9329  0.6687
  855MOL0     H12847   4.762   0.484   8.102 -0.7956  2.1692 -0.0790
  855MOL0     H12848   4.840   0.087   8.483 -0.1958 -1.4271  1.4866
  855MOL0     H12849   4.930   0.078   8.704  1.2946  1.0478 -0.5811
  855MOL0     H12850   5.068   0.154   8.906 -0.3584 -0.4410 -0.7803
  855MOL0     H12851   4.917   0.070   8.918  1.3955 -1.6083  1.7615
  855MOL0     H12852   5.021   0.059   9.127 -1.2669 -0.0666 -1.2413
  855MOL0     H12853   5.060   0.225   9.147 -0.8776  0.6420  0.1318
  855MOL0     H12854   4.852   0.114   9.261  1.8847  0.8747  0.5149
  855MOL0     H12855   4.770   0.186   9.121 -1.2763 -0.9920  0.6351
  855MOL0     H12856   4.935   0.320   9.352  2.5394  0.1790 -1.8985
  855MOL0     H12857   4.864   0.417   9.215  1.8477 -0.2332 -1.8939
  855MOL0     H12858   4.519   0.371   9.412  0.5381  0.0982  1.8122
  855MOL0     H12859   4.766   0.460   8.805 -2.5273 -0.0768  0.3104
  855MOL0     H12860   4.705   0.491   8.564  1.5462  1.2520  0.3785
  856MOL0     O12861   9.593   7.433   3.038  0.3249  0.0296  0.5577
  856MOL0     C12862   9.617   7.476   3.147 -0.1223 -0.0298  0.2327
  856MOL0     O12863   9.534   7.549   3.224  0.4682 -1.0065  0.0952
  856MOL0     C12864   9.401   7.579   3.199 -0.7461 -0.0973 -0.4375
  856MOL0     C12865   9.312   7.507   3.120 -0.0064  0.0663 -0.8379
  856MOL0     C12866   9.180   7.550   3.109 -0.8708  0.2559 -0.1139
  856MOL0     C12867   9.130   7.662   3.185  0.0944 -0.0451  0.6409
  856MOL0     O12868   9.003   7.709   3.152 -0.6586 -0.3392  0.3205
  856MOL0     C12869   8.920   7.760   3.259  0.0083  0.2925  0.1023
  856MOL0     C12870   8.774   7.746   3.206 -0.8306 -0.4874 -0.6985
  856MOL0     C12871   8.721   7.601   3.206 -0.3988  0.0935 -0.7714
  856MOL0     C12872   8.591   7.576   3.134  0.3978 -0.2987 -0.8254
  856MOL0     C12873   8.526   7.444   3.170  0.4940  0.6303 -0.0016
  856MOL0     C12874   8.392   7.428   3.095 -0.2353  0.7672 -0.2118
  856MOL0     C12875   8.316   7.305   3.143  0.1771  0.5383 -1.0431
  856MOL0     C12876   8.239   7.316   3.282 -0.3307  0.3994 -0.8728
  856MOL0     N12877   8.095   7.346   3.253 -0.4051  0.1204 -0.2143
  856MOL0     C12878   8.045   7.464   3.207  0.6518 -1.1180 -0.5607
  856MOL0     C12879   7.916   7.431   3.172 -0.1891  0.5862 -1.2077
  856MOL0     C12880   7.824   7.523   3.100  0.3729 -0.0679  0.0109
  856MOL0     C12881   7.781   7.635   3.192 -0.8478 -0.6109 -0.6722
  856MOL0     C12882   7.703   7.751   3.121 -0.2329 -0.1798  0.1403
  856MOL0     C12883   7.612   7.834   3.210  0.0686  0.2735 -0.1501
  856MOL0     O12884   7.519   7.909   3.134  0.2208 -0.4331 -0.2780
  856MOL0     C12885   7.400   7.932   3.200 -0.0670  0.7094 -0.5854
  856MOL0     C12886   7.287   7.925   3.122  0.4953  0.5839 -0.4214
  856MOL0     C12887   7.164   7.929   3.190  0.0162 -0.2727 -0.2602
  856MOL0     C12888   7.156   7.962   3.323  0.3221 -0.7837  0.1185
  856MOL0     C12889   7.025   7.964   3.389 -0.7624 -0.5152  0.6374
  856MOL0     O12890   6.930   7.881   3.332 -0.1382 -0.2397 -0.5297
  856MOL0     C12891   6.797   7.869   3.369 -0.1219 -0.2628 -0.6835
  856MOL0     C12892   6.704   7.818   3.280 -0.2559 -0.4166 -0.4281
  856MOL0     C12893   6.569   7.812   3.304 -1.1750  0.9921 -0.3519
  856MOL0     C12894   6.517   7.851   3.426  0.3863  0.6840 -0.4267
  856MOL0     O12895   6.384   7.848   3.465  0.1148  0.9620 -0.7845
  856MOL0     C12896   6.286   7.897   3.366  0.2423  0.0606 -0.5708
  856MOL0     C12897   6.149   7.920   3.424  0.6024 -0.4377 -0.0094
  856MOL0     C12898   6.061   8.016   3.344  0.1457 -0.3733 -0.4315
  856MOL0     C12899   5.911   7.987   3.336  0.1187 -0.1409  0.4862
  856MOL0     C12900   5.840   8.025   3.472  0.3489  0.3893  0.2952
  856MOL0     C12901   5.689   7.997   3.443  0.1016 -1.1164 -0.2156
  856MOL0     C12902   5.608   8.030   3.570 -0.6590 -0.5496 -0.4442
  856MOL0     C12903   5.563   8.173   3.568 -0.1599 -0.5472 -0.6726
  856MOL0    Cl12904   5.648   8.286   3.683 -0.0344 -0.2835  0.0895
  856MOL0     C12905   6.610   7.907   3.519  0.0681  0.0085 -0.7033
  856MOL0     C12906   6.746   7.920   3.483  0.3143  0.4582  0.6353
  856MOL0     O12907   7.006   8.036   3.484 -0.0065  0.1984 -0.4478
  856MOL0     C12908   7.274   7.986   3.398 -0.3778  0.1237  1.0809
  856MOL0     C12909   7.392   7.974   3.334  0.4270  0.5856  0.2260
  856MOL0     N12910   7.887   7.308   3.207  0.1279 -0.3245 -0.5645
  856MOL0     N12911   7.986   7.257   3.264 -0.4083 -0.2283 -0.7880
  856MOL0     C12912   9.222   7.729   3.267  0.2880  0.4010 -0.6864
  856MOL0     C12913   9.360   7.691   3.266  1.2969 -0.6751 -0.7522
  856MOL0     C12914   9.753   7.478   3.205  0.2308 -0.0916  0.3655
  856MOL0     C12915   9.852   7.384   3.157  0.3560  0.3307 -0.2414
  856MOL0     C12916   9.995   7.393   3.197  0.9928 -0.3576  0.2152
  856MOL0     C12917  10.025   7.482   3.304 -0.6030  1.0661 -0.4130
  856MOL0     O12918  10.157   7.485   3.361  0.3275 -0.4041  0.1829
  856MOL0     C12919  10.254   7.528   3.260  0.8563  0.4776 -0.8585
  856MOL0     C12920  10.381   7.553   3.337 -0.5241  0.6240  0.8298
  856MOL0     C12921  10.495   7.598   3.249 -0.4820  0.2740  0.7211
  856MOL0     C12922  10.623   7.632   3.330 -0.1016 -0.0880  1.2380
  856MOL0     C12923  10.626   7.776   3.366  0.1501 -0.0231 -0.3507
  856MOL0     C12924  10.612   7.893   3.409 -0.4501  1.1922 -0.2607
  856MOL0     C12925   9.922   7.558   3.357 -0.2060  0.0138 -0.5384
  856MOL0     C12926   9.790   7.554   3.312 -0.7103  0.6258 -0.9148
  856MOL0     H12927   9.345   7.418   3.068 -0.5705 -0.7863  0.2051
  856MOL0     H12928   9.119   7.492   3.040  1.4487 -1.5677 -0.7692
  856MOL0     H12929   8.945   7.861   3.291  0.2382  0.2137  0.1733
  856MOL0     H12930   8.933   7.697   3.347  2.1264  1.6732  0.8574
  856MOL0     H12931   8.772   7.788   3.105 -3.6480  4.0009  0.9099
  856MOL0     H12932   8.706   7.804   3.269  2.6562  1.1654  1.8587
  856MOL0     H12933   8.699   7.582   3.311 -2.5664  0.6710 -1.0565
  856MOL0     H12934   8.793   7.525   3.174 -0.8097 -1.3882  1.5339
  856MOL0     H12935   8.521   7.652   3.171 -0.1542 -1.8412  1.4614
  856MOL0     H12936   8.598   7.575   3.025 -2.8483 -1.5506 -1.1475
  856MOL0     H12937   8.523   7.446   3.279  5.0194 -1.2132  0.3921
  856MOL0     H12938   8.598   7.366   3.143 -0.3841  0.1543 -1.0565
  856MOL0     H12939   8.420   7.413   2.991 -1.5340 -1.3672 -0.3126
  856MOL0     H12940   8.342   7.524   3.109 -1.5191 -0.1753  2.3977
  856MOL0     H12941   8.245   7.268   3.068  0.8283 -0.7045 -1.0610
  856MOL0     H12942   8.374   7.215   3.165 -3.2143 -1.0261  2.8415
  856MOL0     H12943   8.281   7.396   3.344 -2.3415  0.0230  1.1353
  856MOL0     H12944   8.257   7.235   3.354 -2.2019  0.7670  0.0849
  856MOL0     H12945   8.102   7.555   3.187 -1.7031 -0.0231 -2.8465
  856MOL0     H12946   7.732   7.471   3.074 -1.8984  2.8667  1.4749
  856MOL0     H12947   7.879   7.563   3.015  0.7326  4.1602  1.9435
  856MOL0     H12948   7.875   7.664   3.241 -0.6590  1.9587 -2.3784
  856MOL0     H12949   7.709   7.585   3.258 -2.6633  2.7056  0.0842
  856MOL0     H12950   7.773   7.822   3.076 -1.1621  0.1394 -0.8293
  856MOL0     H12951   7.650   7.707   3.036 -0.9101 -2.8106  1.8065
  856MOL0     H12952   7.673   7.903   3.269 -0.8393 -0.2506  1.4555
  856MOL0     H12953   7.565   7.767   3.283  1.4542  0.7388  1.2415
  856MOL0     H12954   7.298   7.897   3.018  2.4273  2.7368 -0.8884
  856MOL0     H12955   7.066   7.916   3.146 -0.3433  2.4948 -0.4845
  856MOL0     H12956   6.730   7.784   3.180  0.5342 -0.2314 -0.2908
  856MOL0     H12957   6.504   7.772   3.227  0.9008  0.6278 -2.0064
  856MOL0     H12958   6.281   7.829   3.280  3.9989 -2.4076  0.9203
  856MOL0     H12959   6.329   7.990   3.328  2.9937 -0.2610  1.4364
  856MOL0     H12960   6.164   7.968   3.521 -2.5905  3.0857 -1.0227
  856MOL0     H12961   6.092   7.827   3.436 -1.9675  0.0689 -5.3511
  856MOL0     H12962   6.102   8.018   3.243  1.0863 -0.8726 -0.0656
  856MOL0     H12963   6.073   8.112   3.396 -1.2625 -0.4166  0.0271
  856MOL0     H12964   5.869   8.052   3.260 -0.5026 -0.8234  0.2347
  856MOL0     H12965   5.892   7.883   3.307 -1.4465 -0.6708  3.0881
  856MOL0     H12966   5.854   8.131   3.494  0.5630  0.2108  1.0400
  856MOL0     H12967   5.883   7.958   3.546  3.0157 -1.3423 -2.5566
  856MOL0     H12968   5.675   7.894   3.411 -2.5764 -1.6892  2.3481
  856MOL0     H12969   5.650   8.051   3.356 -1.8166  1.0796  1.8556
  856MOL0     H12970   5.526   7.961   3.590 -1.8223  1.3455  1.8094
  856MOL0     H12971   5.677   8.020   3.654  0.4534  3.0781 -0.7348
  856MOL0     H12972   5.459   8.181   3.598  0.8045  2.3638  2.4585
  856MOL0     H12973   5.573   8.223   3.471 -3.3431  1.0252 -0.3024
  856MOL0     H12974   6.571   7.949   3.612  0.3621  3.1720 -1.8863
  856MOL0     H12975   6.810   7.957   3.563 -1.6235  0.0664  2.4646
  856MOL0     H12976   7.280   8.008   3.504 -0.9466  0.5436  1.0332
  856MOL0     H12977   7.484   7.992   3.389 -0.8017  0.6650  2.3382
  856MOL0     H12978   9.188   7.811   3.330  0.6133 -0.8371  1.1835
  856MOL0     H12979   9.425   7.740   3.337 -2.7322  0.8687  2.2921
  856MOL0     H12980   9.821   7.313   3.081 -0.9022 -1.3145  1.6951
  856MOL0     H12981  10.070   7.338   3.141  3.4571  2.0322  0.9331
  856MOL0     H12982  10.237   7.618   3.201  2.6758  0.8874 -0.7899
  856MOL0     H12983  10.271   7.444   3.191  1.0106 -0.4837  0.3209
  856MOL0     H12984  10.363   7.635   3.407 -3.0293  1.1612 -0.3288
  856MOL0     H12985  10.406   7.469   3.403 -1.1154 -0.4526 -0.2751
  856MOL0     H12986  10.464   7.686   3.191  0.1912 -1.0020 -1.7120
  856MOL0     H12987  10.515   7.512   3.184  0.7338  1.8072 -1.0499
  856MOL0     H12988  10.621   7.569   3.419  0.4676  1.3837  2.3281
  856MOL0     H12989  10.709   7.621   3.263  0.6967  3.7413  1.3889
  856MOL0     H12990  10.609   7.996   3.440 -0.1076  0.2113  3.4663
  856MOL0     H12991   9.947   7.618   3.444 -1.9609 -1.7429  1.2970
  856MOL0     H12992   9.715   7.606   3.371 -1.1931 -2.1715  1.1088
  857MOL0     O12993   0.312   2.648   3.602  0.4092 -0.4271  0.1421
  857MOL0     C12994   0.391   2.739   3.591 -0.4694 -0.6297 -0.9797
  857MOL0     O12995   0.441   2.805   3.696 -1.4441 -0.4352  0.0578
  857MOL0     C12996   0.420   2.756   3.818  0.0680 -0.2839 -0.3038
  857MOL0     C12997   0.394   2.851   3.906 -0.1701  0.0089  0.0072
  857MOL0     C12998   0.358   2.825   4.041 -0.4443 -0.3586  0.1059
  857MOL0     C12999   0.352   2.689   4.080  0.5060 -0.2142  0.5336
  857MOL0     O13000   0.345   2.645   4.209 -0.6662  0.0052 -0.5113
  857MOL0     C13001   0.310   2.731   4.316  0.5818 -0.1684 -0.3465
  857MOL0     C13002   0.164   2.781   4.297 -0.1346  0.4286  0.2624
  857MOL0     C13003   0.091   2.833   4.426 -0.0240 -0.4464 -0.6909
  857MOL0     C13004  -0.059   2.854   4.400 -1.3463  0.0561  0.4961
  857MOL0     C13005  -0.124   2.924   4.521 -0.1969 -0.6743  0.3319
  857MOL0     C13006  -0.262   2.971   4.480  1.1846 -0.1645 -0.3714
  857MOL0     C13007  -0.364   3.000   4.599  1.0886 -0.0461 -0.0577
  857MOL0     C13008  -0.409   2.878   4.681 -0.0042 -0.6419  0.6495
  857MOL0     N13009  -0.539   2.906   4.739  0.1477  0.7886 -0.3699
  857MOL0     C13010  -0.665   2.897   4.688 -0.7081  1.1065 -0.5110
  857MOL0     C13011  -0.750   2.943   4.791 -0.3503  0.8630 -0.0234
  857MOL0     C13012  -0.896   2.954   4.804  1.6264 -0.1319  0.4910
  857MOL0     C13013  -0.983   2.828   4.812 -0.6077 -0.6296 -0.1459
  857MOL0     C13014  -0.941   2.735   4.923 -0.2460 -0.4068 -0.3074
  857MOL0     C13015  -1.023   2.605   4.920  0.7668  0.2847  0.1826
  857MOL0     O13016  -1.016   2.528   5.037 -0.5460  0.9222 -0.5206
  857MOL0     C13017  -1.061   2.592   5.151 -0.2311 -0.1867  1.0865
  857MOL0     C13018  -0.970   2.609   5.259  0.3405  0.1567 -0.5902
  857MOL0     C13019  -1.005   2.674   5.375  1.5118  0.1470  0.0452
  857MOL0     C13020  -1.137   2.740   5.382  0.1721  0.2077  0.1505
  857MOL0     C13021  -1.177   2.804   5.509 -0.3300 -0.7278 -0.1194
  857MOL0     O13022  -1.092   2.808   5.615  0.4485  0.7353  0.2735
  857MOL0     C13023  -1.142   2.821   5.742 -0.9670  0.6436 -0.9570
  857MOL0     C13024  -1.130   2.947   5.811  0.6135 -0.4413  0.0668
  857MOL0     C13025  -1.168   2.965   5.947  0.5365 -0.2613 -0.5293
  857MOL0     C13026  -1.226   2.857   6.019  0.2415 -0.2877 -0.2570
  857MOL0     O13027  -1.249   2.857   6.154 -0.2527  0.0405 -0.5881
  857MOL0     C13028  -1.202   2.969   6.228 -0.4848 -0.1937 -0.8069
  857MOL0     C13029  -1.244   2.949   6.379 -0.0864  0.5100 -0.5549
  857MOL0     C13030  -1.399   2.939   6.380  0.4179 -0.4554  0.7930
  857MOL0     C13031  -1.476   2.959   6.513 -0.0485  0.4485 -0.1665
  857MOL0     C13032  -1.629   2.960   6.506 -0.3780  0.0547  0.5024
  857MOL0     C13033  -1.691   2.958   6.653  0.1949 -0.6288 -0.3616
  857MOL0     C13034  -1.844   2.966   6.641  0.5193 -1.0728 -0.6947
  857MOL0     C13035  -1.911   2.940   6.775  0.1030 -0.2798  0.0411
  857MOL0    Cl13036  -2.079   2.970   6.756  0.4228  0.0580  0.3961
  857MOL0     C13037  -1.253   2.733   5.946  0.1844 -0.0069 -0.7423
  857MOL0     C13038  -1.206   2.718   5.815  0.6540  0.1096  0.1161
  857MOL0     O13039  -1.298   2.822   5.517 -0.7016  0.6679  0.1583
  857MOL0     C13040  -1.229   2.719   5.277  0.4076  0.2690 -0.1949
  857MOL0     C13041  -1.191   2.641   5.163 -0.2354 -0.1978  1.0020
  857MOL0     N13042  -0.672   2.977   4.899  0.0552 -0.3653 -0.4808
  857MOL0     N13043  -0.546   2.956   4.866 -0.1146 -0.2834  0.2110
  857MOL0     C13044   0.383   2.594   3.981 -0.4828  0.1428  0.3933
  857MOL0     C13045   0.420   2.624   3.857 -0.1964 -0.1148  0.7266
  857MOL0     C13046   0.419   2.795   3.459 -0.8753  0.3379  0.1943
  857MOL0     C13047   0.359   2.756   3.340  0.4782 -0.2917 -0.6446
  857MOL0     C13048   0.390   2.805   3.220  0.4587 -0.1368  0.7609
  857MOL0     C13049   0.487   2.905   3.200  0.1524 -0.0740 -0.2453
  857MOL0     O13050   0.528   2.931   3.071 -0.5897  0.4873 -0.0937
  857MOL0     C13051   0.518   3.056   3.016  0.2279 -0.4287  0.6882
  857MOL0     C13052   0.653   3.126   3.023 -0.3311 -0.7601  0.2023
  857MOL0     C13053   0.631   3.283   3.014  0.8461  1.0572 -0.5851
  857MOL0     C13054   0.635   3.345   3.154  1.6060  0.4896 -0.7832
  857MOL0     C13055   0.771   3.373   3.199 -0.7009 -0.2596  0.3113
  857MOL0     C13056   0.884   3.400   3.235  0.6594 -0.4811 -1.4520
  857MOL0     C13057   0.532   2.973   3.320  0.6701  0.5782  0.6324
  857MOL0     C13058   0.499   2.912   3.448 -0.3760  0.5774 -0.2487
  857MOL0     H13059   0.389   2.951   3.863  0.2768 -0.3131 -0.8115
  857MOL0     H13060   0.336   2.907   4.109  0.2884 -0.2263  0.1913
  857MOL0     H13061   0.371   2.816   4.349 -1.9625  0.4696  3.2489
  857MOL0     H13062   0.313   2.657   4.396  1.2796  1.2848  1.0148
  857MOL0     H13063   0.102   2.699   4.259  0.0725 -0.5414  1.9049
  857MOL0     H13064   0.173   2.868   4.232 -1.2935  0.5497  0.2492
  857MOL0     H13065   0.137   2.927   4.459 -1.5394 -0.6968  2.5388
  857MOL0     H13066   0.115   2.766   4.510 -2.5731 -3.4124 -2.1530
  857MOL0     H13067  -0.066   2.912   4.307  1.7272  2.0277  1.3363
  857MOL0     H13068  -0.123   2.769   4.378  1.3088 -1.6842 -1.1085
  857MOL0     H13069  -0.070   3.014   4.554 -2.1303  0.8859 -0.5446
  857MOL0     H13070  -0.134   2.862   4.610  2.0412  0.0501  1.1781
  857MOL0     H13071  -0.306   2.891   4.419 -0.1633  1.5088 -1.6898
  857MOL0     H13072  -0.256   3.063   4.421  1.2763  0.5667  0.7472
  857MOL0     H13073  -0.314   3.069   4.668  2.4504  0.8155 -1.8127
  857MOL0     H13074  -0.453   3.052   4.561  1.2426 -0.5682 -1.1780
  857MOL0     H13075  -0.334   2.860   4.759  3.0134  1.4907 -1.5393
  857MOL0     H13076  -0.405   2.791   4.614 -0.1366  2.2570 -3.4813
  857MOL0     H13077  -0.688   2.856   4.591 -1.5245  1.3666 -0.4352
  857MOL0     H13078  -0.932   3.025   4.728  0.4588  0.9919  2.0396
  857MOL0     H13079  -0.911   3.005   4.899  1.7375  0.4291  0.2119
  857MOL0     H13080  -0.976   2.762   4.725 -1.0781 -2.4071  1.1098
  857MOL0     H13081  -1.088   2.856   4.828 -1.4792 -2.8687 -1.4893
  857MOL0     H13082  -0.832   2.725   4.917  0.1785  1.9787  1.6169
  857MOL0     H13083  -0.963   2.786   5.017  1.0108 -1.9143  0.8509
  857MOL0     H13084  -0.975   2.547   4.840 -0.0804  1.9836 -1.6398
  857MOL0     H13085  -1.127   2.618   4.890  0.4796 -0.0916  0.9701
  857MOL0     H13086  -0.872   2.565   5.247  0.4231  0.2443 -0.2198
  857MOL0     H13087  -0.933   2.692   5.455  1.4225 -0.6915  0.3204
  857MOL0     H13088  -1.093   3.032   5.755  0.6555 -1.3121 -1.2630
  857MOL0     H13089  -1.158   3.062   5.993 -1.1530  0.7926 -2.2266
  857MOL0     H13090  -1.246   3.057   6.180 -1.6142 -0.0859  0.3688
  857MOL0     H13091  -1.093   2.967   6.228 -0.3864  1.6986  1.4652
  857MOL0     H13092  -1.213   3.027   6.449  2.4067 -0.7656 -0.1380
  857MOL0     H13093  -1.193   2.859   6.414  0.5433  1.2463  0.4681
  857MOL0     H13094  -1.423   2.841   6.337 -0.4828 -0.2509  0.8237
  857MOL0     H13095  -1.432   3.022   6.318  1.8387  1.0737  1.9814
  857MOL0     H13096  -1.439   2.880   6.578 -0.0822  0.7774  0.2525
  857MOL0     H13097  -1.442   3.056   6.550  1.1203 -0.6191  1.6718
  857MOL0     H13098  -1.663   2.867   6.460  0.3571  0.3682 -0.7251
  857MOL0     H13099  -1.658   3.047   6.447  0.4134 -0.5262 -0.7836
  857MOL0     H13100  -1.651   3.035   6.719  0.4186 -2.1302  1.3550
  857MOL0     H13101  -1.656   2.870   6.709  3.2078  0.7756  0.1713
  857MOL0     H13102  -1.873   3.065   6.605 -0.3054 -1.2283 -0.4721
  857MOL0     H13103  -1.886   2.894   6.570 -2.8654 -1.5424  1.5865
  857MOL0     H13104  -1.870   2.997   6.859 -0.9219  1.8464 -0.8201
  857MOL0     H13105  -1.905   2.835   6.806 -0.3712 -1.0289 -2.2468
  857MOL0     H13106  -1.315   2.661   5.997 -3.8378  2.8711 -1.0672
  857MOL0     H13107  -1.251   2.636   5.760  0.2944  0.4278 -0.0683
  857MOL0     H13108  -1.331   2.755   5.281  0.2209 -0.0968 -1.2947
  857MOL0     H13109  -1.267   2.626   5.087 -1.2035  0.2547  1.8540
  857MOL0     H13110   0.361   2.492   4.012 -3.2048  0.8716  1.1849
  857MOL0     H13111   0.436   2.546   3.783 -1.0257  0.0270  0.3788
  857MOL0     H13112   0.301   2.664   3.339 -0.4507  0.2897 -1.3765
  857MOL0     H13113   0.355   2.739   3.143  1.0467 -0.6223  0.9031
  857MOL0     H13114   0.439   3.110   3.069  2.8239  0.8319  3.6192
  857MOL0     H13115   0.482   3.040   2.914 -2.3102 -2.1915  1.7296
  857MOL0     H13116   0.711   3.097   3.111  1.3425 -0.8555 -0.8862
  857MOL0     H13117   0.703   3.083   2.936 -0.1606  1.0423 -0.6545
  857MOL0     H13118   0.531   3.313   2.982 -0.0201  2.0944  2.6906
  857MOL0     H13119   0.706   3.328   2.948  0.7838  0.8677 -0.7875
  857MOL0     H13120   0.594   3.446   3.158  2.2794  0.7242  1.7664
  857MOL0     H13121   0.593   3.274   3.226  2.8491  1.0517  0.5508
  857MOL0     H13122   0.984   3.430   3.262 -0.0817 -0.3585  1.4922
  857MOL0     H13123   0.602   3.056   3.319  1.8489 -0.3651  1.9309
  857MOL0     H13124   0.544   2.948   3.540  0.7589  1.1593 -1.0110
  858MOL0     O13125   7.651   8.285   4.992  0.1014 -0.1656  0.3836
  858MOL0     C13126   7.660   8.307   5.116  0.1753  1.4055 -0.2285
  858MOL0     O13127   7.712   8.220   5.210  0.1586  0.4930 -0.3582
  858MOL0     C13128   7.779   8.110   5.158 -0.9245 -0.1547  1.3113
  858MOL0     C13129   7.883   8.120   5.065  0.3113 -0.5691  0.5183
  858MOL0     C13130   7.930   8.002   5.013  0.3536 -0.3583  1.3324
  858MOL0     C13131   7.872   7.875   5.048  0.6097 -0.2066 -0.7036
  858MOL0     O13132   7.915   7.752   5.008  0.8879 -0.0544  0.3015
  858MOL0     C13133   8.041   7.755   4.938  0.7656  0.1795  0.3553
  858MOL0     C13134   8.078   7.608   4.894 -0.6696 -0.1477  0.1644
  858MOL0     C13135   7.981   7.565   4.784  0.5685 -0.6193  0.7200
  858MOL0     C13136   7.991   7.417   4.751  0.4729 -0.7485  0.8648
  858MOL0     C13137   8.112   7.384   4.665  0.9628 -0.2959 -1.6170
  858MOL0     C13138   8.168   7.246   4.694  0.2267  0.3353  0.3790
  858MOL0     C13139   8.066   7.128   4.671 -0.3452  1.5866 -0.3451
  858MOL0     C13140   8.020   7.117   4.520 -0.4009  0.2196  0.2252
  858MOL0     N13141   8.129   7.097   4.427  0.3489  0.2129 -0.1768
  858MOL0     C13142   8.119   7.005   4.329  0.0219 -0.8288  0.0251
  858MOL0     C13143   8.202   7.040   4.229 -0.0272 -0.6275 -0.6220
  858MOL0     C13144   8.247   6.969   4.103 -0.1258  0.4528  0.4728
  858MOL0     C13145   8.395   6.932   4.113 -0.4541  0.0706  0.5911
  858MOL0     C13146   8.461   6.973   3.978  0.5712  0.1959  0.5734
  858MOL0     C13147   8.610   6.937   3.984 -0.5119  0.1183  0.6332
  858MOL0     O13148   8.663   6.932   3.849  0.0768 -0.3040  0.1501
  858MOL0     C13149   8.744   6.830   3.813 -0.5143 -0.3890 -0.4034
  858MOL0     C13150   8.712   6.771   3.689  0.1411 -0.0429  0.6683
  858MOL0     C13151   8.788   6.657   3.649 -0.5102 -0.3807 -0.1504
  858MOL0     C13152   8.890   6.602   3.732 -0.1560 -0.0098 -0.4074
  858MOL0     C13153   8.979   6.493   3.709 -0.0540  0.2145 -0.6573
  858MOL0     O13154   9.037   6.424   3.814  0.3240 -0.8453  0.2364
  858MOL0     C13155   9.143   6.343   3.775  0.0965  0.0798  1.1380
  858MOL0     C13156   9.278   6.379   3.793 -0.0887 -0.1122  0.0598
  858MOL0     C13157   9.380   6.282   3.762 -0.3440  0.8572 -0.6108
  858MOL0     C13158   9.350   6.153   3.730  0.4819 -0.3385  0.0551
  858MOL0     O13159   9.436   6.057   3.695  0.7482 -0.2615 -0.1123
  858MOL0     C13160   9.531   6.016   3.795 -0.2208 -0.3343  0.9824
  858MOL0     C13161   9.587   5.875   3.784 -0.0050  0.6862 -0.4840
  858MOL0     C13162   9.683   5.835   3.890  0.7369 -0.2913  0.0037
  858MOL0     C13163   9.722   5.686   3.869 -0.3091  0.3232 -0.4333
  858MOL0     C13164   9.605   5.578   3.855 -0.2531 -0.0166  0.3875
  858MOL0     C13165   9.607   5.558   3.700  0.2173  0.2046  0.1801
  858MOL0     C13166   9.481   5.482   3.667 -0.1400 -0.0406  0.3877
  858MOL0     C13167   9.463   5.450   3.524  0.2827  0.1484  0.2313
  858MOL0    Cl13168   9.319   5.344   3.509  0.0508  0.2286 -0.2109
  858MOL0     C13169   9.212   6.114   3.718 -1.1262  0.0413  0.3785
  858MOL0     C13170   9.116   6.213   3.742  0.1900  0.5836  1.1032
  858MOL0     O13171   9.020   6.477   3.594 -0.1561 -0.5435  0.1519
  858MOL0     C13172   8.911   6.661   3.858 -0.1134 -0.4656 -0.0371
  858MOL0     C13173   8.845   6.773   3.890 -0.2418 -0.5425 -0.7265
  858MOL0     N13174   8.250   7.165   4.260  0.3833  0.2528  0.2233
  858MOL0     N13175   8.200   7.199   4.372  0.3886  0.2564 -0.4644
  858MOL0     C13176   7.776   7.870   5.149 -0.1453  0.6567 -0.4612
  858MOL0     C13177   7.730   7.987   5.203 -0.2314 -1.0510  1.0974
  858MOL0     C13178   7.603   8.436   5.164  1.4480  0.0756  0.4762
  858MOL0     C13179   7.517   8.521   5.092  0.6614 -0.1691  0.9791
  858MOL0     C13180   7.471   8.640   5.154 -0.4986  0.7836  0.4927
  858MOL0     C13181   7.513   8.683   5.288  0.2200 -0.8741 -0.0741
  858MOL0     O13182   7.473   8.808   5.339  0.8654  0.7210  0.3004
  858MOL0     C13183   7.448   8.820   5.478  0.5722 -0.7315  0.9648
  858MOL0     C13184   7.316   8.780   5.521  0.1879 -0.2294  0.5799
  858MOL0     C13185   7.283   8.803   5.676 -0.8671 -0.2996  0.9897
  858MOL0     C13186   7.302   8.953   5.702  0.8446 -0.3682 -0.1103
  858MOL0     C13187   7.442   8.984   5.737  0.9676  1.1427  0.0311
  858MOL0     C13188   7.557   9.011   5.760 -0.2130 -0.0056  0.6065
  858MOL0     C13189   7.586   8.586   5.362  0.0115  0.9662 -0.4905
  858MOL0     C13190   7.630   8.468   5.300  0.7658  0.0529  0.0418
  858MOL0     H13191   7.937   8.207   5.029  2.6359 -2.3515 -0.5989
  858MOL0     H13192   8.021   8.006   4.955  0.1788 -0.0524  1.0780
  858MOL0     H13193   8.100   7.803   5.016  0.6142 -2.1393  2.0033
  858MOL0     H13194   8.030   7.823   4.853  0.9589  0.3172  0.4399
  858MOL0     H13195   8.070   7.545   4.983  0.2067 -0.0459  0.3204
  858MOL0     H13196   8.179   7.619   4.855 -0.2627 -5.2116 -0.8265
  858MOL0     H13197   8.009   7.619   4.693  0.4044 -0.2937  0.8594
  858MOL0     H13198   7.880   7.585   4.821  0.2712 -0.3564 -0.1896
  858MOL0     H13199   7.995   7.348   4.836  3.2807 -3.3961 -1.1818
  858MOL0     H13200   7.896   7.397   4.701  0.4232  1.4768 -0.0479
  858MOL0     H13201   8.184   7.464   4.686 -1.8397  1.8101  0.7874
  858MOL0     H13202   8.072   7.389   4.563 -3.2252 -0.4580 -0.1665
  858MOL0     H13203   8.205   7.243   4.797 -0.4060  1.9876  0.6862
  858MOL0     H13204   8.254   7.234   4.628 -0.4927  3.6977 -1.3796
  858MOL0     H13205   8.112   7.036   4.709 -0.3571 -0.3588 -4.4387
  858MOL0     H13206   7.972   7.129   4.727  0.7040  0.1329  1.5465
  858MOL0     H13207   7.971   7.209   4.487  2.1196  1.9715  1.0282
  858MOL0     H13208   7.960   7.026   4.512  0.1209 -0.2816  1.7468
  858MOL0     H13209   8.057   6.916   4.331 -0.9044 -0.6006 -4.8314
  858MOL0     H13210   8.227   7.028   4.012  2.6166  2.1114  0.8335
  858MOL0     H13211   8.194   6.874   4.092  2.2902 -0.9104  0.0213
  858MOL0     H13212   8.414   6.826   4.131  1.9439  0.1259 -1.0861
  858MOL0     H13213   8.434   6.997   4.193  1.4150 -1.2180  0.7793
  858MOL0     H13214   8.418   6.916   3.895 -0.3703  1.0419  0.4593
  858MOL0     H13215   8.445   7.078   3.951  1.6897  0.3670  0.5533
  858MOL0     H13216   8.620   6.832   4.012  2.1280 -1.6053 -5.2088
  858MOL0     H13217   8.676   7.000   4.044  3.1243 -2.6961 -0.0428
  858MOL0     H13218   8.623   6.787   3.629 -0.4952 -1.8536  1.0451
  858MOL0     H13219   8.778   6.610   3.551  0.9644 -0.2878 -0.3718
  858MOL0     H13220   9.298   6.482   3.822  3.2484 -0.2455 -1.3214
  858MOL0     H13221   9.485   6.304   3.779  0.3610 -3.5860  2.8210
  858MOL0     H13222   9.496   6.047   3.895  0.2981 -1.0013  1.3762
  858MOL0     H13223   9.620   6.076   3.777  0.9812 -1.7301  1.9848
  858MOL0     H13224   9.638   5.870   3.688  2.3492  3.0090  0.5239
  858MOL0     H13225   9.502   5.807   3.772 -0.0040  0.7808 -1.0692
  858MOL0     H13226   9.640   5.854   3.989  1.9027 -2.3218  0.9607
  858MOL0     H13227   9.774   5.894   3.875  0.3998 -0.0809 -1.3650
  858MOL0     H13228   9.784   5.691   3.779 -1.7739  1.5464 -1.4221
  858MOL0     H13229   9.790   5.654   3.949 -1.0339 -1.5083 -0.4863
  858MOL0     H13230   9.508   5.614   3.888 -0.5262 -1.9168  1.8171
  858MOL0     H13231   9.621   5.483   3.908 -1.4645 -0.5382 -0.1546
  858MOL0     H13232   9.688   5.486   3.683 -2.7313 -3.9963  2.1613
  858MOL0     H13233   9.609   5.650   3.640 -0.6584 -0.4817 -0.9332
  858MOL0     H13234   9.489   5.382   3.711 -0.5311 -1.9143 -3.3469
  858MOL0     H13235   9.399   5.546   3.699  1.1892  0.8119  2.1898
  858MOL0     H13236   9.550   5.397   3.484  0.3001  2.1398 -2.6629
  858MOL0     H13237   9.446   5.541   3.465 -1.7079  1.3080  2.3890
  858MOL0     H13238   9.193   6.010   3.691  1.7861 -0.0834 -1.6067
  858MOL0     H13239   9.010   6.191   3.754  0.3205 -0.7149  0.0401
  858MOL0     H13240   8.978   6.629   3.937 -0.1450  3.1514  1.6653
  858MOL0     H13241   8.868   6.833   3.977 -2.8152  0.7873 -0.8635
  858MOL0     H13242   7.731   7.773   5.169 -0.2855  0.5487 -1.2727
  858MOL0     H13243   7.650   7.978   5.276 -0.2580 -2.3999  0.9223
  858MOL0     H13244   7.492   8.506   4.987 -0.0717  5.3770  0.0458
  858MOL0     H13245   7.403   8.709   5.105  1.6702  0.3828 -3.5308
  858MOL0     H13246   7.458   8.928   5.495 -0.7081 -0.7953  2.3143
  858MOL0     H13247   7.521   8.764   5.537  1.4707  1.3481  1.9291
  858MOL0     H13248   7.238   8.832   5.463 -1.4202 -0.5029  2.3842
  858MOL0     H13249   7.300   8.675   5.496  1.7126 -0.7264  1.6255
  858MOL0     H13250   7.331   8.738   5.750 -1.8401 -2.8188 -0.4485
  858MOL0     H13251   7.177   8.778   5.683 -0.5585 -1.4809  1.7146
  858MOL0     H13252   7.284   9.023   5.619  1.3635 -0.3262 -0.1927
  858MOL0     H13253   7.248   8.983   5.792  0.3461  2.2917 -1.1766
  858MOL0     H13254   7.661   9.033   5.767  0.1565 -1.7201  0.9500
  858MOL0     H13255   7.601   8.585   5.469  1.8618 -1.7454 -0.6665
  858MOL0     H13256   7.685   8.393   5.356  2.2682 -0.2422 -1.7598
  859MOL0     O13257   3.615   1.801   4.603 -0.6596  0.3067 -1.0847
  859MOL0     C13258   3.530   1.740   4.666 -1.2334 -1.2347  0.1052
  859MOL0     O13259   3.539   1.704   4.801  0.3412  0.0921  0.2951
  859MOL0     C13260   3.649   1.730   4.874  0.1799  0.0489 -0.7007
  859MOL0     C13261   3.790   1.740   4.830  0.1925  0.6153 -0.4277
  859MOL0     C13262   3.884   1.767   4.924  0.2314  0.0303  0.9393
  859MOL0     C13263   3.859   1.770   5.065 -0.8352 -0.0920 -0.5499
  859MOL0     O13264   3.971   1.800   5.151 -0.1904  0.4137  1.4427
  859MOL0     C13265   3.966   1.912   5.246  0.0964 -0.0050  0.3367
  859MOL0     C13266   4.110   1.919   5.296 -0.5305  0.1541 -1.0979
  859MOL0     C13267   4.140   1.878   5.440  0.6052  0.1138  0.7391
  859MOL0     C13268   4.295   1.894   5.457  0.8571  1.1588 -0.1429
  859MOL0     C13269   4.335   1.826   5.592  0.1635 -0.4018  0.8414
  859MOL0     C13270   4.469   1.879   5.639  0.1312  0.8462 -0.4133
  859MOL0     C13271   4.584   1.858   5.539  0.2869  0.0145 -0.7265
  859MOL0     C13272   4.668   1.733   5.578  0.1791  0.1727 -0.2697
  859MOL0     N13273   4.615   1.612   5.524 -0.6194  0.4458 -0.0440
  859MOL0     C13274   4.581   1.590   5.396 -0.3183 -0.3088  0.2599
  859MOL0     C13275   4.553   1.458   5.385  0.0024  0.2898  0.4936
  859MOL0     C13276   4.520   1.394   5.264 -0.0231 -0.4374 -0.1734
  859MOL0     C13277   4.596   1.446   5.136 -0.2516  0.1737 -0.3698
  859MOL0     C13278   4.576   1.358   5.013  0.2747  0.2642  0.0058
  859MOL0     C13279   4.656   1.420   4.899 -0.5299  0.1848  0.1543
  859MOL0     O13280   4.658   1.321   4.798 -0.2117  0.6037 -0.4866
  859MOL0     C13281   4.613   1.356   4.673  0.2971 -0.2615  0.2075
  859MOL0     C13282   4.695   1.312   4.569  0.4463 -0.7902 -0.3661
  859MOL0     C13283   4.666   1.345   4.438  0.7441 -0.2025 -0.2839
  859MOL0     C13284   4.545   1.412   4.415 -0.2167 -0.5461  0.5854
  859MOL0     C13285   4.522   1.463   4.277 -0.3645  0.0798 -0.3276
  859MOL0     O13286   4.450   1.580   4.264 -0.5810 -0.5288 -0.4140
  859MOL0     C13287   4.395   1.619   4.140 -0.1523  0.2318 -0.1215
  859MOL0     C13288   4.262   1.651   4.135  0.4165  1.1224 -0.0132
  859MOL0     C13289   4.199   1.693   4.019 -0.1692 -0.8828 -0.6476
  859MOL0     C13290   4.278   1.731   3.916  1.0968 -0.1057  0.3152
  859MOL0     O13291   4.200   1.785   3.808 -0.5523 -0.6566  0.6348
  859MOL0     C13292   4.262   1.781   3.672  0.6416 -0.1335 -0.3859
  859MOL0     C13293   4.165   1.835   3.572 -0.5273 -0.4183 -0.1756
  859MOL0     C13294   4.050   1.760   3.521  0.8941 -1.1288  1.6938
  859MOL0     C13295   3.939   1.855   3.463 -0.3205 -1.1668 -0.9516
  859MOL0     C13296   3.808   1.782   3.422  0.2074  0.6116 -0.0841
  859MOL0     C13297   3.847   1.671   3.321  1.2040 -0.0471  0.1821
  859MOL0     C13298   3.728   1.635   3.237  0.2887  0.1509  0.3363
  859MOL0     C13299   3.638   1.520   3.283  0.1818  0.1556  0.7439
  859MOL0    Cl13300   3.541   1.461   3.148 -0.3066  0.2790 -0.3864
  859MOL0     C13301   4.414   1.712   3.920 -0.0642 -0.3482 -0.9774
  859MOL0     C13302   4.480   1.649   4.030 -0.3543  0.4879 -0.3676
  859MOL0     O13303   4.548   1.391   4.189 -0.3660 -0.2288  0.2733
  859MOL0     C13304   4.451   1.437   4.511 -0.2181  0.0175 -0.2292
  859MOL0     C13305   4.487   1.419   4.644  0.0185 -0.1636 -0.8515
  859MOL0     N13306   4.573   1.399   5.510  0.5015  0.7980 -0.2714
  859MOL0     N13307   4.608   1.495   5.592  0.2130  0.8759  0.4131
  859MOL0     C13308   3.725   1.767   5.110 -0.9090  0.3398  1.0280
  859MOL0     C13309   3.621   1.732   5.012 -0.1493 -0.3696  0.1629
  859MOL0     C13310   3.392   1.708   4.604 -0.2845 -0.5486  0.1405
  859MOL0     C13311   3.308   1.609   4.649  1.2926  0.0733 -0.5495
  859MOL0     C13312   3.182   1.572   4.588  0.4935  0.1457  0.4840
  859MOL0     C13313   3.141   1.636   4.472 -0.1035 -0.0438  0.2451
  859MOL0     O13314   3.016   1.597   4.418 -0.3393 -0.0093  0.6107
  859MOL0     C13315   2.960   1.672   4.315 -0.2070 -0.3386 -0.3122
  859MOL0     C13316   2.810   1.672   4.331 -0.1362 -1.0380 -0.1429
  859MOL0     C13317   2.742   1.534   4.324  0.1191  0.0638  0.1054
  859MOL0     C13318   2.773   1.474   4.180  0.9710  0.0095  0.4386
  859MOL0     C13319   2.651   1.395   4.147 -0.0084  0.0751  0.0475
  859MOL0     C13320   2.561   1.328   4.105  0.3608  0.0452 -0.5193
  859MOL0     C13321   3.227   1.734   4.418  0.5644  0.6140 -1.3688
  859MOL0     C13322   3.349   1.774   4.484 -0.7913  0.6431  0.5115
  859MOL0     H13323   3.807   1.730   4.723 -0.4762  3.2778 -0.8489
  859MOL0     H13324   3.986   1.769   4.885  0.5636  0.3464  1.8112
  859MOL0     H13325   3.895   1.883   5.324  2.3890  3.9972  4.3697
  859MOL0     H13326   3.934   2.005   5.198  0.8939  0.7116  1.1593
  859MOL0     H13327   4.127   2.027   5.294  1.3057 -0.0999 -2.1344
  859MOL0     H13328   4.172   1.865   5.223  1.7246 -0.9637  1.4624
  859MOL0     H13329   4.118   1.774   5.465  1.5450  0.0074  1.1554
  859MOL0     H13330   4.074   1.939   5.502 -2.6069 -1.3339 -1.0408
  859MOL0     H13331   4.361   1.850   5.381  1.7626 -2.0589  2.2998
  859MOL0     H13332   4.318   2.001   5.469 -0.9097  1.4490  0.9346
  859MOL0     H13333   4.341   1.718   5.572 -0.3028  0.0658 -2.2443
  859MOL0     H13334   4.265   1.854   5.670  1.1822  0.8286  1.3446
  859MOL0     H13335   4.504   1.849   5.739  0.6035  2.7058  0.0230
  859MOL0     H13336   4.448   1.985   5.651 -2.5419  0.1775  2.0380
  859MOL0     H13337   4.547   1.860   5.436 -0.2419  0.3526 -0.5336
  859MOL0     H13338   4.633   1.955   5.551 -0.0186  0.2899 -1.6380
  859MOL0     H13339   4.668   1.732   5.687 -2.2120  0.4122 -0.1923
  859MOL0     H13340   4.767   1.747   5.536 -1.0526 -0.6942 -3.7998
  859MOL0     H13341   4.564   1.674   5.330  0.7967 -1.7850 -2.0145
  859MOL0     H13342   4.411   1.408   5.255 -0.3181 -1.5921  1.3160
  859MOL0     H13343   4.525   1.285   5.268 -2.4120 -0.5676  1.4000
  859MOL0     H13344   4.700   1.461   5.166 -1.4704  1.0466  4.0945
  859MOL0     H13345   4.563   1.546   5.107  2.9271  1.4245 -0.0001
  859MOL0     H13346   4.611   1.257   5.038 -0.5193  0.2324  1.0564
  859MOL0     H13347   4.468   1.358   4.997 -0.3151  2.3790  3.0678
  859MOL0     H13348   4.759   1.446   4.929 -0.4261  1.0942 -0.9251
  859MOL0     H13349   4.604   1.512   4.871 -0.0597  0.9644  1.7303
  859MOL0     H13350   4.784   1.256   4.596 -0.7662 -1.9091  1.5657
  859MOL0     H13351   4.733   1.322   4.356  2.4848  1.9002  0.4315
  859MOL0     H13352   4.196   1.633   4.219 -1.3833  1.4855 -1.2937
  859MOL0     H13353   4.097   1.730   4.009  0.2275 -0.2278 -2.7323
  859MOL0     H13354   4.306   1.683   3.652  2.5484  0.6403 -0.1305
  859MOL0     H13355   4.352   1.842   3.669  1.1989 -0.9436 -0.3531
  859MOL0     H13356   4.233   1.853   3.488 -0.0530  1.0951  0.5052
  859MOL0     H13357   4.141   1.933   3.614 -0.6320  0.1974 -1.6348
  859MOL0     H13358   3.999   1.705   3.601  0.6997 -2.3507  0.7540
  859MOL0     H13359   4.078   1.689   3.443 -0.9115 -1.0738  0.9519
  859MOL0     H13360   3.911   1.933   3.535 -1.0612 -1.4997 -0.8648
  859MOL0     H13361   3.978   1.904   3.374  1.7836 -2.1465 -0.6346
  859MOL0     H13362   3.741   1.855   3.376 -0.6769  0.4520  0.9039
  859MOL0     H13363   3.756   1.735   3.506  0.1724  1.3021  0.2846
  859MOL0     H13364   3.891   1.579   3.361 -0.1779 -0.1072  1.6859
  859MOL0     H13365   3.913   1.711   3.243  2.2877 -1.3625  0.3955
  859MOL0     H13366   3.658   1.717   3.219  0.1695 -0.3343 -1.6941
  859MOL0     H13367   3.764   1.614   3.136 -0.6810  1.8760 -0.4251
  859MOL0     H13368   3.575   1.550   3.368 -0.6656  1.5553 -0.3426
  859MOL0     H13369   3.704   1.446   3.331 -1.7429 -2.2914 -0.1295
  859MOL0     H13370   4.471   1.743   3.833 -0.7134 -1.2784 -1.7528
  859MOL0     H13371   4.588   1.639   4.021  0.2061  4.7585 -0.2927
  859MOL0     H13372   4.355   1.476   4.480  0.4182  0.2152 -2.1240
  859MOL0     H13373   4.418   1.435   4.726  0.6850 -1.6852  0.0539
  859MOL0     H13374   3.698   1.784   5.213  0.2009  0.3396  1.3274
  859MOL0     H13375   3.523   1.712   5.053 -0.4311  0.8776  0.1539
  859MOL0     H13376   3.339   1.554   4.737 -0.0082 -2.5951 -1.6593
  859MOL0     H13377   3.123   1.496   4.637  2.7131 -1.0124  1.5401
  859MOL0     H13378   3.004   1.631   4.224  0.1739  0.8167 -0.6690
  859MOL0     H13379   2.991   1.777   4.324  1.7931 -0.9197  0.1561
  859MOL0     H13380   2.780   1.710   4.428 -0.2435 -0.1097 -0.5274
  859MOL0     H13381   2.763   1.735   4.255 -1.6361  0.1395  1.7076
  859MOL0     H13382   2.635   1.550   4.315 -0.1461 -2.3259 -3.5165
  859MOL0     H13383   2.758   1.474   4.414 -2.4026 -0.1324  0.4735
  859MOL0     H13384   2.765   1.553   4.104 -2.4872 -3.1358 -2.8860
  859MOL0     H13385   2.864   1.418   4.156  1.0829 -1.2167  3.3243
  859MOL0     H13386   2.487   1.271   4.052 -0.0911 -0.6772  0.8448
  859MOL0     H13387   3.202   1.792   4.329 -1.9609  2.7288  0.5822
  859MOL0     H13388   3.407   1.850   4.433  0.0319  0.6908  1.4952
  860MOL0     O13389   1.478   6.629   5.513  0.4848  0.4301  0.0571
  860MOL0     C13390   1.510   6.669   5.400  0.1041  0.0729  0.1219
  860MOL0     O13391   1.427   6.686   5.301 -0.5295 -0.5851 -0.1810
  860MOL0     C13392   1.301   6.633   5.309  0.7730  0.2133 -0.1507
  860MOL0     C13393   1.270   6.531   5.207 -0.1851 -0.4883  0.3371
  860MOL0     C13394   1.133   6.488   5.209 -0.1397  0.1965 -0.2275
  860MOL0     C13395   1.030   6.542   5.293  0.1609 -0.2632 -0.3180
  860MOL0     O13396   0.902   6.499   5.257  0.3165  1.1917 -0.1596
  860MOL0     C13397   0.798   6.599   5.280  0.4168  1.5299  1.0511
  860MOL0     C13398   0.708   6.583   5.403 -0.9651  0.1640 -0.6565
  860MOL0     C13399   0.637   6.449   5.387  1.0708 -0.9633 -0.2527
  860MOL0     C13400   0.512   6.426   5.490  0.2612  1.0802 -0.0677
  860MOL0     C13401   0.456   6.280   5.485 -0.2840  0.5834 -0.4267
  860MOL0     C13402   0.418   6.216   5.346  0.7123  0.7583  0.0985
  860MOL0     C13403   0.362   6.071   5.356  0.8962 -0.3139  0.4086
  860MOL0     C13404   0.271   6.035   5.244 -0.7405  0.1828  0.3931
  860MOL0     N13405   0.205   5.910   5.276  0.1531 -0.2197  0.6503
  860MOL0     C13406   0.271   5.789   5.284 -0.5437  0.5505  0.6205
  860MOL0     C13407   0.171   5.709   5.305  0.0995  0.1490 -0.4426
  860MOL0     C13408   0.165   5.561   5.297 -0.0425  1.0090 -0.4307
  860MOL0     C13409   0.154   5.508   5.154  0.5871 -0.3693 -0.3224
  860MOL0     C13410   0.112   5.366   5.144  0.7793  0.0967 -0.7097
  860MOL0     C13411   0.113   5.313   5.002 -0.2488  0.4601 -0.9949
  860MOL0     O13412   0.257   5.297   4.968  0.2428 -0.1778  0.3496
  860MOL0     C13413   0.314   5.199   4.896  0.2274 -0.5430 -0.1552
  860MOL0     C13414   0.448   5.181   4.907 -1.6367  0.5998  0.1116
  860MOL0     C13415   0.512   5.072   4.840 -0.0771 -0.3802 -0.6943
  860MOL0     C13416   0.445   4.985   4.759  0.1367 -0.4103 -0.3673
  860MOL0     C13417   0.503   4.878   4.682  0.9072 -0.0476  0.6190
  860MOL0     O13418   0.630   4.855   4.704  0.3564  1.2795  0.6401
  860MOL0     C13419   0.683   4.748   4.649 -0.0373  0.4282  0.0098
  860MOL0     C13420   0.675   4.724   4.509  0.9017  0.7404 -0.2131
  860MOL0     C13421   0.766   4.641   4.445  0.2026  0.0492  0.3835
  860MOL0     C13422   0.854   4.561   4.521  0.0704  0.2946 -1.1073
  860MOL0     O13423   0.956   4.484   4.467 -0.0006 -0.3771 -0.1979
  860MOL0     C13424   0.984   4.510   4.331  0.0435 -0.3321  0.2243
  860MOL0     C13425   1.108   4.424   4.288 -0.4363  0.2219 -0.1872
  860MOL0     C13426   1.155   4.481   4.146 -0.4657  0.4576 -0.6521
  860MOL0     C13427   1.303   4.466   4.131 -1.0794 -0.3745 -0.4353
  860MOL0     C13428   1.348   4.503   3.988  0.4598  0.6222  0.5307
  860MOL0     C13429   1.491   4.469   3.963  0.7037 -0.6924  0.4865
  860MOL0     C13430   1.556   4.333   3.997 -0.9738  0.7085  0.4401
  860MOL0     C13431   1.492   4.203   3.944  0.5550 -0.7938  0.7966
  860MOL0    Cl13432   1.590   4.056   3.986 -0.5247  0.2636 -0.0448
  860MOL0     C13433   0.854   4.579   4.666 -0.4918 -1.3756  0.8712
  860MOL0     C13434   0.777   4.675   4.727 -0.0096 -0.1625 -0.2356
  860MOL0     O13435   0.427   4.812   4.605 -0.9692  0.5260  0.6288
  860MOL0     C13436   0.314   5.011   4.737  0.5849 -1.1259 -0.7652
  860MOL0     C13437   0.250   5.122   4.801 -0.1014 -0.7178 -0.5408
  860MOL0     N13438   0.047   5.767   5.330 -0.3828 -0.3464  0.2407
  860MOL0     N13439   0.067   5.888   5.300 -0.2364 -1.1004 -0.0092
  860MOL0     C13440   1.069   6.637   5.388  0.3680 -0.2089  0.1668
  860MOL0     C13441   1.199   6.680   5.391 -0.2530  0.2168  0.6580
  860MOL0     C13442   1.656   6.696   5.382  1.3027 -0.4345  0.7586
  860MOL0     C13443   1.756   6.688   5.483 -0.0839  0.1113 -0.3503
  860MOL0     C13444   1.892   6.712   5.457 -0.0833 -0.2479  0.0827
  860MOL0     C13445   1.938   6.743   5.336 -0.7129  0.2642 -0.0319
  860MOL0     O13446   2.072   6.778   5.335  0.8788  0.0631  0.0643
  860MOL0     C13447   2.146   6.822   5.220 -0.9166  0.1102  0.5015
  860MOL0     C13448   2.196   6.967   5.253  0.0091  0.0972 -0.5110
  860MOL0     C13449   2.085   7.072   5.295  0.3225 -0.4873  0.0378
  860MOL0     C13450   2.165   7.200   5.309  0.4962  0.2392 -0.1470
  860MOL0     C13451   2.082   7.314   5.354 -0.5270  0.4390 -0.1248
  860MOL0     C13452   2.019   7.398   5.416 -0.1759  0.8378  0.7300
  860MOL0     C13453   1.850   6.740   5.226 -0.0555 -0.5576 -0.2964
  860MOL0     C13454   1.711   6.711   5.253 -0.4576  0.0463 -0.1846
  860MOL0     H13455   1.341   6.497   5.133  1.5307  4.6383 -0.8412
  860MOL0     H13456   1.095   6.405   5.151 -3.1318 -1.2196  3.3311
  860MOL0     H13457   0.727   6.604   5.197  1.6098  1.3227 -0.0190
  860MOL0     H13458   0.845   6.695   5.301  1.7696  0.8796  1.0629
  860MOL0     H13459   0.632   6.662   5.403 -0.4323  0.7343  1.3867
  860MOL0     H13460   0.756   6.597   5.500  1.6077 -1.5965 -1.5636
  860MOL0     H13461   0.712   6.370   5.395  2.8856  0.7650  0.8504
  860MOL0     H13462   0.590   6.444   5.289 -0.6870  1.6199  0.3415
  860MOL0     H13463   0.560   6.445   5.587  1.7835  3.1634 -1.1319
  860MOL0     H13464   0.446   6.510   5.467 -1.2026  0.4194  1.5346
  860MOL0     H13465   0.373   6.276   5.556  1.6399  2.0009  2.0623
  860MOL0     H13466   0.530   6.217   5.536 -1.2786  1.2338  1.9402
  860MOL0     H13467   0.513   6.207   5.291  0.2426 -2.1574 -0.4131
  860MOL0     H13468   0.345   6.284   5.303 -1.7274 -0.1544  2.5185
  860MOL0     H13469   0.443   5.997   5.361  1.9945  0.8111 -0.0716
  860MOL0     H13470   0.304   6.064   5.449  0.6400 -3.0006  0.1300
  860MOL0     H13471   0.334   6.030   5.155  2.4036 -1.1541  2.5173
  860MOL0     H13472   0.193   6.110   5.226 -2.4247 -0.8492  2.8774
  860MOL0     H13473   0.365   5.750   5.245 -1.9645 -1.0897 -1.3624
  860MOL0     H13474   0.076   5.536   5.354 -0.3401  1.2969 -0.7643
  860MOL0     H13475   0.254   5.507   5.330 -1.1259 -1.5479 -1.4963
  860MOL0     H13476   0.253   5.530   5.115  1.7904 -2.2612  1.4549
  860MOL0     H13477   0.093   5.583   5.102  2.2751  3.7286  3.0487
  860MOL0     H13478   0.182   5.312   5.209  0.5277  4.2909  3.6588
  860MOL0     H13479   0.013   5.356   5.191 -0.2199  4.6525 -1.3684
  860MOL0     H13480   0.063   5.392   4.946  1.1968  2.1852  0.0250
  860MOL0     H13481   0.055   5.221   4.994 -0.2536  0.2492  0.9459
  860MOL0     H13482   0.515   5.239   4.969  1.2424 -0.6784 -1.6521
  860MOL0     H13483   0.617   5.050   4.854 -0.7887 -2.3314  2.8619
  860MOL0     H13484   0.610   4.790   4.453  2.9018  3.4461  0.4934
  860MOL0     H13485   0.766   4.636   4.337  0.5871 -2.1961  0.4463
  860MOL0     H13486   1.013   4.616   4.331  1.2375 -0.6437  1.3334
  860MOL0     H13487   0.900   4.493   4.262  0.1309 -1.8546  0.4609
  860MOL0     H13488   1.096   4.315   4.282 -1.2954  0.3347 -0.6361
  860MOL0     H13489   1.186   4.441   4.363 -0.2039  1.2491 -0.6485
  860MOL0     H13490   1.140   4.589   4.139  2.1290  0.9927  0.7296
  860MOL0     H13491   1.107   4.432   4.061 -1.3510  1.3334 -0.6658
  860MOL0     H13492   1.344   4.535   4.206 -0.8458 -2.2877  1.2908
  860MOL0     H13493   1.347   4.369   4.154  0.3181  0.1807 -0.6674
  860MOL0     H13494   1.347   4.612   3.980  1.9882  0.7471  1.4774
  860MOL0     H13495   1.285   4.453   3.914  1.9667  1.9747 -1.8249
  860MOL0     H13496   1.547   4.549   4.013 -1.5936  0.8953  0.6785
  860MOL0     H13497   1.518   4.484   3.858  0.6844 -0.9682  0.4404
  860MOL0     H13498   1.659   4.343   3.961 -0.5261  1.4165  1.8552
  860MOL0     H13499   1.564   4.321   4.106 -0.9876 -5.3385  0.1356
  860MOL0     H13500   1.472   4.209   3.836 -3.0014 -0.1207  1.3412
  860MOL0     H13501   1.391   4.183   3.982 -0.3992  0.2679 -1.0255
  860MOL0     H13502   0.914   4.514   4.729 -0.7357 -0.6079  1.9286
  860MOL0     H13503   0.778   4.694   4.833 -0.5716  2.3674 -0.6037
  860MOL0     H13504   0.260   4.952   4.664  0.9624  0.9784 -2.8532
  860MOL0     H13505   0.150   5.162   4.787  0.6164  1.5806  0.5170
  860MOL0     H13506   0.993   6.674   5.456  0.8043  3.6368 -1.2055
  860MOL0     H13507   1.235   6.759   5.456  0.2184 -1.5265  2.6464
  860MOL0     H13508   1.724   6.668   5.585 -0.7660 -0.7660 -0.7205
  860MOL0     H13509   1.960   6.708   5.542 -0.4078 -0.6513  0.3267
  860MOL0     H13510   2.096   6.813   5.123  3.4680 -0.0614 -1.9845
  860MOL0     H13511   2.233   6.757   5.207 -0.3198  0.2964  2.9605
  860MOL0     H13512   2.277   6.971   5.327  0.9324  4.5748 -1.4688
  860MOL0     H13513   2.239   7.011   5.163 -1.8565  1.5442 -0.7501
  860MOL0     H13514   2.031   7.062   5.390  0.1963  0.4272  0.0728
  860MOL0     H13515   2.009   7.076   5.216  1.2422  2.3341 -0.8281
  860MOL0     H13516   2.247   7.185   5.380  1.4317  0.6248 -1.1160
  860MOL0     H13517   2.201   7.232   5.211 -0.6579  1.6474 -0.1351
  860MOL0     H13518   1.956   7.475   5.456 -0.7681 -0.4744  2.4449
  860MOL0     H13519   1.875   6.765   5.123 -0.4506 -1.1506 -0.5481
  860MOL0     H13520   1.636   6.718   5.175  0.4632  0.2248 -1.0711
  861MOL0     O13521   4.264   5.518   1.699 -0.1065 -0.5493  0.2404
  861MOL0     C13522   4.284   5.526   1.825 -0.0299 -0.2742  0.9117
  861MOL0     O13523   4.220   5.453   1.918 -0.5055  0.4289 -0.0834
  861MOL0     C13524   4.134   5.351   1.887 -0.8010  0.0204  0.2414
  861MOL0     C13525   4.159   5.253   1.786  0.5023  0.1401  0.4134
  861MOL0     C13526   4.075   5.148   1.773 -0.2351 -0.9805  0.5888
  861MOL0     C13527   3.955   5.137   1.839 -0.6014  0.4459  0.2412
  861MOL0     O13528   3.881   5.032   1.800  0.2770  0.6420 -0.2919
  861MOL0     C13529   3.791   4.977   1.897 -0.4762 -0.2628  1.4330
  861MOL0     C13530   3.746   4.839   1.845 -0.8771  1.1459 -0.3422
  861MOL0     C13531   3.663   4.856   1.729  0.6679 -0.6812 -1.1085
  861MOL0     C13532   3.657   4.719   1.653  0.4071 -0.0410 -0.4133
  861MOL0     C13533   3.527   4.694   1.585  0.3302  0.0267  0.0346
  861MOL0     C13534   3.528   4.561   1.505  0.2240 -0.1841 -0.8139
  861MOL0     C13535   3.384   4.527   1.450  0.1934 -0.2474  0.4648
  861MOL0     C13536   3.381   4.435   1.329 -0.5646  0.4624  1.0977
  861MOL0     N13537   3.463   4.313   1.347 -0.4722 -0.7600  0.1813
  861MOL0     C13538   3.565   4.281   1.262 -0.3687 -0.1285  0.4848
  861MOL0     C13539   3.577   4.149   1.274 -0.0053  0.4986  1.0343
  861MOL0     C13540   3.673   4.064   1.183  0.0209  0.4480 -0.9692
  861MOL0     C13541   3.617   4.043   1.040 -0.2596 -0.3260  0.4055
  861MOL0     C13542   3.713   3.956   0.960 -0.2401 -0.7101  0.5871
  861MOL0     C13543   3.832   4.041   0.901 -0.1839 -0.3232 -0.0906
  861MOL0     O13544   3.948   4.033   0.983 -0.6932 -0.5218  1.1007
  861MOL0     C13545   4.066   4.078   0.928  0.8473  0.9372 -0.6538
  861MOL0     C13546   4.070   4.151   0.809 -0.5198 -0.3009  0.1831
  861MOL0     C13547   4.197   4.192   0.768  0.3206  0.3568  0.1888
  861MOL0     C13548   4.314   4.160   0.843  0.1594 -0.2349  1.0183
  861MOL0     C13549   4.449   4.189   0.791  0.7150  0.5880 -0.2542
  861MOL0     O13550   4.445   4.190   0.661 -0.2475 -0.0966  0.3774
  861MOL0     C13551   4.539   4.245   0.582 -0.2639 -0.0773  0.1109
  861MOL0     C13552   4.633   4.342   0.618  0.1175  0.3466  0.2544
  861MOL0     C13553   4.719   4.400   0.523  0.4957 -0.7819 -0.2473
  861MOL0     C13554   4.711   4.370   0.385 -0.7363 -0.4843 -0.6073
  861MOL0     O13555   4.780   4.425   0.281 -0.2134 -1.0443  0.1287
  861MOL0     C13556   4.913   4.482   0.294  0.4680  0.6154  0.2099
  861MOL0     C13557   4.904   4.629   0.298  0.3783 -0.3188 -0.3306
  861MOL0     C13558   5.021   4.697   0.219 -0.5136 -0.1638  0.3152
  861MOL0     C13559   5.164   4.667   0.269  0.5801 -0.1395 -0.7760
  861MOL0     C13560   5.185   4.647   0.423  0.4844 -0.7333  0.3818
  861MOL0     C13561   5.329   4.583   0.445  0.4123 -0.0849 -0.5392
  861MOL0     C13562   5.437   4.695   0.424  0.5214  0.4636 -0.2340
  861MOL0     C13563   5.576   4.641   0.449 -0.1127 -0.7132 -0.4439
  861MOL0    Cl13564   5.622   4.533   0.321 -0.1688  0.0241  0.0415
  861MOL0     C13565   4.625   4.267   0.356  0.2935  0.3246  0.2361
  861MOL0     C13566   4.539   4.199   0.447 -1.3625  0.1245  0.4289
  861MOL0     O13567   4.535   4.234   0.867  0.2778  0.1617  0.4221
  861MOL0     C13568   4.300   4.085   0.964  0.9642  0.6223 -0.2574
  861MOL0     C13569   4.175   4.038   1.013  0.1542  0.1818  0.5922
  861MOL0     N13570   3.488   4.099   1.367 -0.0122 -0.0476 -0.2823
  861MOL0     N13571   3.414   4.197   1.404 -0.4844 -0.1868 -0.2881
  861MOL0     C13572   3.919   5.232   1.936 -0.0342  0.7382 -0.6381
  861MOL0     C13573   4.019   5.338   1.960 -0.5998 -0.2011  0.0771
  861MOL0     C13574   4.405   5.610   1.877  0.2728  0.2559 -1.5350
  861MOL0     C13575   4.485   5.691   1.799 -0.3398  0.4409 -0.7285
  861MOL0     C13576   4.596   5.765   1.843 -0.8126  0.4661  0.3376
  861MOL0     C13577   4.628   5.779   1.979  0.3250  0.6729  0.4305
  861MOL0     O13578   4.734   5.846   2.029  0.5399 -0.9413  0.0613
  861MOL0     C13579   4.852   5.847   1.949 -0.2728 -0.1673  0.8034
  861MOL0     C13580   4.973   5.895   2.022 -0.0886 -0.5022 -0.6270
  861MOL0     C13581   5.004   5.824   2.155  0.4861 -0.6237  0.2120
  861MOL0     C13582   5.147   5.838   2.213  0.0095  0.2261 -0.3302
  861MOL0     C13583   5.196   5.974   2.210 -0.4888  0.0745  0.9314
  861MOL0     C13584   5.244   6.086   2.187  0.0972  0.2948 -0.3216
  861MOL0     C13585   4.543   5.699   2.068  0.1725  0.3106 -0.4304
  861MOL0     C13586   4.441   5.615   2.016 -0.0017 -0.7033  0.3269
  861MOL0     H13587   4.254   5.263   1.734  1.0782  0.6689  1.5201
  861MOL0     H13588   4.107   5.081   1.694  0.9733  0.7562 -0.4860
  861MOL0     H13589   3.702   5.040   1.885  1.0253  1.4281 -2.1818
  861MOL0     H13590   3.839   4.965   1.994  4.2790 -0.9040 -0.7099
  861MOL0     H13591   3.716   4.764   1.918  1.9701 -1.0989 -1.2849
  861MOL0     H13592   3.838   4.797   1.803 -1.5955 -2.1401  1.0855
  861MOL0     H13593   3.690   4.940   1.665 -0.3353 -0.3345 -1.0966
  861MOL0     H13594   3.558   4.880   1.751  0.5523 -2.0661  0.0460
  861MOL0     H13595   3.743   4.712   1.586 -0.1916 -1.8858 -1.0669
  861MOL0     H13596   3.681   4.633   1.715  1.4302  1.6511  1.6466
  861MOL0     H13597   3.508   4.778   1.519  2.5002 -1.0481 -2.1022
  861MOL0     H13598   3.452   4.683   1.664 -1.5249  0.3990 -1.5914
  861MOL0     H13599   3.578   4.492   1.573  0.9542  2.3584  1.4350
  861MOL0     H13600   3.587   4.571   1.413 -0.8519 -1.5247 -1.6847
  861MOL0     H13601   3.328   4.487   1.536  2.4523 -1.5282  1.4420
  861MOL0     H13602   3.333   4.617   1.415 -0.4389 -1.0542 -0.7286
  861MOL0     H13603   3.420   4.493   1.245 -3.6189  0.1431 -0.7001
  861MOL0     H13604   3.278   4.415   1.296  1.0034 -2.8288 -2.5875
  861MOL0     H13605   3.617   4.346   1.191  0.8502 -1.9921 -0.3955
  861MOL0     H13606   3.683   3.967   1.232  1.1600  2.1178  2.4254
  861MOL0     H13607   3.772   4.110   1.176  0.9550 -1.3410 -0.1689
  861MOL0     H13608   3.611   4.134   0.979  0.6712 -0.0844  0.6607
  861MOL0     H13609   3.516   4.003   1.049  0.0882 -1.2699  0.2080
  861MOL0     H13610   3.750   3.875   1.023  1.7664  1.2733  2.0880
  861MOL0     H13611   3.652   3.909   0.882 -1.7861 -2.6449  2.8262
  861MOL0     H13612   3.800   4.144   0.882  0.7013  0.1137  0.6794
  861MOL0     H13613   3.858   4.010   0.799  1.8029 -1.9167  0.8099
  861MOL0     H13614   3.984   4.169   0.744 -1.3697  0.6666  1.5279
  861MOL0     H13615   4.206   4.244   0.673 -3.2579  3.6324  1.4339
  861MOL0     H13616   4.631   4.378   0.721 -0.6929  1.3290 -0.0847
  861MOL0     H13617   4.784   4.482   0.552  0.9986 -0.8430 -1.1577
  861MOL0     H13618   4.967   4.444   0.207 -2.0621  4.0893 -3.2357
  861MOL0     H13619   4.969   4.454   0.385  1.3341 -1.2795 -0.8425
  861MOL0     H13620   4.905   4.661   0.403  1.6517  0.8762 -0.6706
  861MOL0     H13621   4.803   4.658   0.266 -0.9935 -2.6763  1.4965
  861MOL0     H13622   5.004   4.805   0.228 -0.7434 -0.3872  4.9484
  861MOL0     H13623   5.017   4.677   0.112  1.0124  0.9918  0.0112
  861MOL0     H13624   5.194   4.575   0.219  1.2489  0.7110 -1.9892
  861MOL0     H13625   5.229   4.744   0.228 -0.9826  0.0951 -2.9934
  861MOL0     H13626   5.116   4.567   0.452  1.0426 -1.3246  0.1148
  861MOL0     H13627   5.164   4.735   0.485  1.4201 -1.4371  1.7303
  861MOL0     H13628   5.354   4.497   0.383  1.5487 -0.2295  0.0846
  861MOL0     H13629   5.336   4.545   0.547 -1.7258  0.2375 -0.2237
  861MOL0     H13630   5.439   4.735   0.322  1.6826  0.8827 -0.0554
  861MOL0     H13631   5.406   4.774   0.493  0.0117  0.3799 -0.3636
  861MOL0     H13632   5.565   4.579   0.538 -1.3715 -0.5340 -0.4546
  861MOL0     H13633   5.639   4.730   0.457 -3.8838  2.4774 -2.3064
  861MOL0     H13634   4.614   4.235   0.253  0.4099  1.4154 -0.1225
  861MOL0     H13635   4.480   4.114   0.412  2.1657 -1.2494 -2.9084
  861MOL0     H13636   4.389   4.056   1.019 -0.9116  2.1334  3.9601
  861MOL0     H13637   4.180   3.984   1.107  1.7004  0.1268  0.4988
  861MOL0     H13638   3.822   5.224   1.985 -0.0936  2.3535 -0.4353
  861MOL0     H13639   3.992   5.394   2.049 -1.1739 -1.7507  0.9163
  861MOL0     H13640   4.448   5.696   1.696 -1.6709 -0.7314 -0.3435
  861MOL0     H13641   4.653   5.822   1.770 -1.4429 -0.1325 -0.6347
  861MOL0     H13642   4.852   5.909   1.860  2.4757 -1.3687 -0.1356
  861MOL0     H13643   4.872   5.746   1.911  0.0297  0.9899 -2.3373
  861MOL0     H13644   5.065   5.891   1.963  0.7738  0.4707  0.5836
  861MOL0     H13645   4.951   6.002   2.036  1.2906 -0.3632  0.7049
  861MOL0     H13646   4.975   5.718   2.150  0.0225 -0.4455 -2.8620
  861MOL0     H13647   4.939   5.865   2.233 -0.6245 -0.6446 -0.6796
  861MOL0     H13648   5.151   5.800   2.316 -1.4487  0.2822 -0.2189
  861MOL0     H13649   5.216   5.774   2.157 -0.0997  0.2821 -0.5299
  861MOL0     H13650   5.283   6.185   2.174  1.7290  0.0844  2.3233
  861MOL0     H13651   4.554   5.702   2.176 -0.4780  2.1274 -0.3844
  861MOL0     H13652   4.378   5.555   2.082 -2.8653  2.5244  0.8456
  862MOL0     O13653   3.211   4.779   9.651  0.3970 -0.0322  0.1636
  862MOL0     C13654   3.295   4.827   9.589 -0.2354 -0.0244 -0.1395
  862MOL0     O13655   3.284   4.884   9.462  0.7680 -0.5291  0.8799
  862MOL0     C13656   3.158   4.881   9.404 -1.2724 -1.2457  0.1393
  862MOL0     C13657   3.050   4.935   9.469 -0.7276  1.0485 -0.1200
  862MOL0     C13658   2.929   4.958   9.401 -0.2214 -0.4293 -0.5607
  862MOL0     C13659   2.919   4.912   9.269  0.1421 -0.0640 -0.4044
  862MOL0     O13660   2.804   4.923   9.198  0.0158  0.2516  0.0372
  862MOL0     C13661   2.685   4.888   9.278 -0.0027 -0.2158  1.0038
  862MOL0     C13662   2.571   4.904   9.174 -0.0351  0.3966  0.0661
  862MOL0     C13663   2.432   4.894   9.229  0.4604  1.0700 -0.4208
  862MOL0     C13664   2.342   4.843   9.113 -0.5582 -0.1528  0.4888
  862MOL0     C13665   2.205   4.902   9.145 -0.7861  0.6842 -0.2975
  862MOL0     C13666   2.125   4.856   9.274 -0.2654  0.7009  0.4739
  862MOL0     C13667   1.970   4.872   9.264  0.2116 -0.1005  0.1399
  862MOL0     C13668   1.924   5.014   9.244  0.2378 -0.7456  0.4445
  862MOL0     N13669   1.774   5.015   9.213 -0.1299 -0.3747 -1.2432
  862MOL0     C13670   1.675   5.030   9.310 -0.1092  1.0870 -0.1326
  862MOL0     C13671   1.557   5.035   9.239 -0.2281  0.1096 -0.0036
  862MOL0     C13672   1.414   5.061   9.285  0.5317  0.0298 -0.5282
  862MOL0     C13673   1.425   5.114   9.428  0.5062 -1.2047  0.0479
  862MOL0     C13674   1.291   5.194   9.471 -0.3449 -0.2667  0.1258
  862MOL0     C13675   1.270   5.167   9.619  0.0735 -0.3062  0.3157
  862MOL0     O13676   1.167   5.243   9.666  0.7454  0.6791 -1.4045
  862MOL0     C13677   1.080   5.190   9.757  0.9968 -0.0661 -0.2620
  862MOL0     C13678   0.965   5.270   9.767  0.7310  0.5422 -1.6817
  862MOL0     C13679   0.855   5.231   9.845  0.2107  1.3184  0.1406
  862MOL0     C13680   0.854   5.109   9.908 -0.6230  0.6371 -0.7765
  862MOL0     C13681   0.727   5.065   9.960  0.3680 -0.2344  0.4968
  862MOL0     O13682   0.719   4.950  10.020 -0.6735  0.0778 -0.3026
  862MOL0     C13683   0.618   4.939  10.118  0.1336 -0.3762 -0.0750
  862MOL0     C13684   0.647   4.998  10.239 -0.2056 -0.3427  0.2910
  862MOL0     C13685   0.561   4.990  10.351 -1.0093  0.1393  1.1133
  862MOL0     C13686   0.444   4.913  10.333 -0.4572  0.1977  0.5782
  862MOL0     O13687   0.377   4.899  10.446 -0.5284 -0.3633 -0.1504
  862MOL0     C13688   0.237   4.880  10.435  0.1978  0.1489 -0.2520
  862MOL0     C13689   0.174   4.997  10.384  0.4025 -0.0818 -0.0105
  862MOL0     C13690   0.020   4.987  10.375 -0.0282  0.8200  0.2809
  862MOL0     C13691  -0.041   5.095  10.296 -0.7423 -0.4515 -0.2800
  862MOL0     C13692  -0.191   5.084  10.307 -0.1722 -0.1299  0.9203
  862MOL0     C13693  -0.259   5.152  10.185 -0.0797 -0.2471 -0.1124
  862MOL0     C13694  -0.406   5.153  10.213  0.9668  0.3162 -0.6311
  862MOL0     C13695  -0.448   5.266  10.305  0.1976  0.1603  0.0639
  862MOL0    Cl13696  -0.624   5.264  10.302  0.2407 -0.0653  0.3123
  862MOL0     C13697   0.413   4.851  10.211 -0.5156 -0.9868 -0.0042
  862MOL0     C13698   0.499   4.864  10.100 -0.9219  0.4188 -0.3273
  862MOL0     O13699   0.630   5.135   9.941  0.6187 -0.4233 -0.6159
  862MOL0     C13700   0.975   5.037   9.914  0.7041 -0.8218  0.1215
  862MOL0     C13701   1.092   5.083   9.847 -0.2512 -0.4861 -0.5730
  862MOL0     N13702   1.587   5.042   9.102  0.2629 -0.2691  0.0914
  862MOL0     N13703   1.711   5.030   9.094  0.0007 -0.3472 -0.3982
  862MOL0     C13704   3.027   4.862   9.200 -0.0098  0.3146  0.8023
  862MOL0     C13705   3.139   4.841   9.268  0.2326  0.4919 -0.2471
  862MOL0     C13706   3.421   4.844   9.657  0.4718  1.0161  0.3820
  862MOL0     C13707   3.531   4.866   9.571 -0.2403 -0.7456 -0.4411
  862MOL0     C13708   3.660   4.872   9.628 -0.6195 -0.4596  0.3001
  862MOL0     C13709   3.689   4.862   9.762 -0.0303 -0.8522  0.7687
  862MOL0     O13710   3.820   4.874   9.808 -0.2595 -0.3743  0.8490
  862MOL0     C13711   3.836   4.905   9.952  1.0675 -1.1377  0.6543
  862MOL0     C13712   3.820   4.784  10.042  1.4086 -1.1152  0.1769
  862MOL0     C13713   3.943   4.699  10.034  0.6209 -1.1137  0.5482
  862MOL0     C13714   3.926   4.550  10.066 -0.0144  0.0682  0.3121
  862MOL0     C13715   3.827   4.479   9.988  0.4660  0.3434  0.2427
  862MOL0     C13716   3.743   4.428   9.917  0.3599 -0.0759 -0.2753
  862MOL0     C13717   3.568   4.848   9.844 -0.9968  0.2726  0.2198
  862MOL0     C13718   3.444   4.837   9.792  0.5112 -0.1753 -0.3709
  862MOL0     H13719   3.055   4.976   9.569 -0.6702  0.7324  0.0083
  862MOL0     H13720   2.854   5.009   9.460  2.5918 -0.5891  3.6271
  862MOL0     H13721   2.667   4.968   9.350 -0.0612 -0.6726  1.5036
  862MOL0     H13722   2.682   4.787   9.321 -2.8190 -0.2299  0.9231
  862MOL0     H13723   2.585   4.820   9.105 -0.0640  0.2133  0.2841
  862MOL0     H13724   2.582   4.999   9.121  1.7553 -0.5710 -1.4213
  862MOL0     H13725   2.388   4.985   9.271 -3.3732 -1.4774  1.5871
  862MOL0     H13726   2.432   4.825   9.314  1.7773  3.1421  1.3699
  862MOL0     H13727   2.370   4.861   9.008 -1.7090 -0.8271  0.0395
  862MOL0     H13728   2.350   4.734   9.117  0.2573 -0.2572 -2.0981
  862MOL0     H13729   2.137   4.878   9.063 -2.3936  4.4293 -0.3105
  862MOL0     H13730   2.207   5.012   9.142  0.6494  0.7261  1.2796
  862MOL0     H13731   2.162   4.912   9.361 -0.7368 -0.2380  1.2955
  862MOL0     H13732   2.151   4.750   9.280 -1.1655  0.3933 -0.6960
  862MOL0     H13733   1.920   4.812   9.188 -0.1636  2.7330 -2.0202
  862MOL0     H13734   1.918   4.844   9.356 -0.4425 -1.2397 -0.5520
  862MOL0     H13735   1.972   5.052   9.154 -1.8463  1.0896  0.0337
  862MOL0     H13736   1.949   5.062   9.339  0.7545 -0.2900  0.0828
  862MOL0     H13737   1.688   5.018   9.417 -0.6629  1.4341 -0.0196
  862MOL0     H13738   1.361   4.966   9.283  1.9986 -0.9848  2.4516
  862MOL0     H13739   1.361   5.132   9.221 -2.3448 -0.3391  1.2759
  862MOL0     H13740   1.518   5.164   9.457  0.9261 -2.8708  1.8621
  862MOL0     H13741   1.418   5.024   9.492 -3.5779 -1.6503 -0.7354
  862MOL0     H13742   1.329   5.295   9.452  1.8277 -1.3522 -1.7168
  862MOL0     H13743   1.203   5.161   9.414 -2.4551  1.4176  2.2092
  862MOL0     H13744   1.362   5.199   9.668  2.5817 -1.0315 -3.4365
  862MOL0     H13745   1.255   5.064   9.653  1.0094  0.4098  3.1717
  862MOL0     H13746   0.971   5.356   9.702  1.8126  0.0085 -2.3057
  862MOL0     H13747   0.762   5.287   9.845 -0.0839  0.8392 -0.0735
  862MOL0     H13748   0.747   5.037  10.258 -0.6329  0.8301  0.1769
  862MOL0     H13749   0.591   5.031  10.447  1.7971  3.1785 -0.8415
  862MOL0     H13750   0.198   4.848  10.532 -1.1396  1.9580 -0.1365
  862MOL0     H13751   0.220   4.789  10.377  0.0828 -0.4990  0.7728
  862MOL0     H13752   0.219   5.020  10.287  1.9929  1.6645  1.0650
  862MOL0     H13753   0.191   5.086  10.446 -0.0412  1.7507 -2.3656
  862MOL0     H13754  -0.014   4.978  10.479  0.6336  0.5967  0.4859
  862MOL0     H13755   0.005   4.889  10.328 -2.3886  1.5659 -0.6835
  862MOL0     H13756  -0.014   5.192  10.340 -0.2968 -0.8933  0.4331
  862MOL0     H13757  -0.019   5.078  10.191 -1.0393 -2.4349 -0.0503
  862MOL0     H13758  -0.227   5.138  10.395 -1.8271 -3.0868  2.2261
  862MOL0     H13759  -0.222   4.980  10.317  0.4541 -0.0952  4.2343
  862MOL0     H13760  -0.230   5.098  10.094 -1.5279  1.1526 -1.4664
  862MOL0     H13761  -0.226   5.256  10.175 -1.7530  0.1297 -2.5887
  862MOL0     H13762  -0.470   5.163  10.124 -1.6963 -1.6308  0.9102
  862MOL0     H13763  -0.437   5.057  10.255  2.1235  0.4564  0.6192
  862MOL0     H13764  -0.416   5.357  10.254  1.8317 -0.6358 -0.3964
  862MOL0     H13765  -0.419   5.258  10.410  1.2602 -0.6851 -0.2744
  862MOL0     H13766   0.319   4.798  10.201  0.3290 -2.0541 -5.1891
  862MOL0     H13767   0.470   4.808  10.011  2.0827 -1.6962 -0.1318
  862MOL0     H13768   0.979   4.950   9.980  0.1618 -1.4904 -0.7055
  862MOL0     H13769   1.178   5.017   9.847  1.6520  1.6736  2.9302
  862MOL0     H13770   3.025   4.846   9.092  2.0124 -0.3892  0.8435
  862MOL0     H13771   3.224   4.812   9.206 -0.3039 -0.7656 -0.4148
  862MOL0     H13772   3.524   4.881   9.464  0.6461  1.7663 -0.2235
  862MOL0     H13773   3.748   4.882   9.566 -1.2598  0.9511 -0.4163
  862MOL0     H13774   3.760   4.980   9.976 -0.1337 -1.8863 -0.7051
  862MOL0     H13775   3.938   4.942   9.971  1.0260 -1.7521  2.2118
  862MOL0     H13776   3.811   4.825  10.143  0.3809 -1.9528  0.4577
  862MOL0     H13777   3.726   4.728  10.031  1.0296 -0.4262 -0.1974
  862MOL0     H13778   4.011   4.736  10.112 -0.7995  0.6908  1.0008
  862MOL0     H13779   3.988   4.709   9.935 -0.7233  1.4338  0.0965
  862MOL0     H13780   4.018   4.491  10.061 -1.5624 -2.9566  3.6038
  862MOL0     H13781   3.893   4.544  10.170  5.3871 -0.8194  2.3094
  862MOL0     H13782   3.671   4.393   9.845  1.0242  1.2794 -1.6538
  862MOL0     H13783   3.571   4.848   9.953  1.2791  1.2686  0.2253
  862MOL0     H13784   3.358   4.822   9.856 -0.1408 -0.7721 -1.3796
  863MOL0     O13785   5.937   5.869   9.554 -0.0300 -0.3416 -0.0176
  863MOL0     C13786   5.954   5.978   9.604 -0.1627  0.1794 -0.4408
  863MOL0     O13787   5.911   6.011   9.725 -0.0991  0.7291  0.1107
  863MOL0     C13788   5.837   5.918   9.798  0.3591 -0.2398  0.2491
  863MOL0     C13789   5.909   5.844   9.895  0.0750 -0.5558 -0.0125
  863MOL0     C13790   5.845   5.746   9.963 -0.8709  0.6768 -0.1243
  863MOL0     C13791   5.707   5.721   9.951  0.1511  0.1677  0.0374
  863MOL0     O13792   5.640   5.630  10.018  0.5975  0.5811 -0.5952
  863MOL0     C13793   5.710   5.513  10.067 -0.4347 -0.4673  0.0219
  863MOL0     C13794   5.614   5.416  10.129  0.6912  0.9039  0.3680
  863MOL0     C13795   5.505   5.352  10.055  0.2446  1.3305  0.3131
  863MOL0     C13796   5.454   5.225  10.129  0.2656 -0.4804 -0.5370
  863MOL0     C13797   5.351   5.150  10.052  0.1052  0.0644  0.0627
  863MOL0     C13798   5.230   5.233   9.998  0.2960 -0.4775 -0.6560
  863MOL0     C13799   5.131   5.135   9.941 -0.4645 -1.1218  0.3159
  863MOL0     C13800   4.986   5.188   9.933  0.7583  0.0538  0.9672
  863MOL0     N13801   4.882   5.102   9.868 -0.5219 -0.0835  0.4901
  863MOL0     C13802   4.847   5.129   9.735 -0.5466 -1.1933 -0.3250
  863MOL0     C13803   4.776   5.025   9.695 -0.1951  1.0375  0.0685
  863MOL0     C13804   4.711   5.005   9.554  0.1143  0.3531  0.0704
  863MOL0     C13805   4.560   5.044   9.548 -0.1191 -0.2966  1.2442
  863MOL0     C13806   4.471   4.973   9.655  0.0252 -0.2024 -0.5865
  863MOL0     C13807   4.466   4.826   9.637 -0.4840 -0.0303 -0.3859
  863MOL0     O13808   4.370   4.768   9.718  0.4725 -0.5373 -0.0164
  863MOL0     C13809   4.385   4.721   9.850 -0.1169  0.0964  0.3453
  863MOL0     C13810   4.286   4.654   9.913  0.4394 -0.6057 -0.1564
  863MOL0     C13811   4.306   4.600  10.037  0.5750  0.7015  0.0795
  863MOL0     C13812   4.434   4.596  10.104 -0.7813 -0.2777 -0.0800
  863MOL0     C13813   4.455   4.509  10.220 -0.3208 -0.0407  0.9560
  863MOL0     O13814   4.361   4.405  10.233  0.0209 -0.3929 -0.2241
  863MOL0     C13815   4.391   4.305  10.328 -0.2878 -0.1588  0.3662
  863MOL0     C13816   4.455   4.195  10.282 -0.2120  0.4285  0.3919
  863MOL0     C13817   4.476   4.085  10.367  0.2786 -0.0053 -0.7636
  863MOL0     C13818   4.436   4.087  10.508 -1.4185  0.8213 -0.3371
  863MOL0     O13819   4.471   3.998  10.605  0.2420 -0.2186  0.0546
  863MOL0     C13820   4.508   3.857  10.574  0.2358 -0.9575 -0.1573
  863MOL0     C13821   4.663   3.840  10.564  0.4390  0.6864 -0.5837
  863MOL0     C13822   4.674   3.712  10.481  0.1488  0.5956  0.3788
  863MOL0     C13823   4.817   3.666  10.447  0.1737  0.0588  0.5045
  863MOL0     C13824   4.872   3.573  10.553 -0.6218 -0.0076  0.0769
  863MOL0     C13825   4.870   3.630  10.696  0.2055  0.3283 -0.6115
  863MOL0     C13826   4.971   3.552  10.785  0.6477 -0.1368  0.4355
  863MOL0     C13827   4.955   3.609  10.922  0.4294 -1.0986  0.5832
  863MOL0    Cl13828   5.072   3.521  11.027  0.0757 -0.2436  0.0145
  863MOL0     C13829   4.387   4.211  10.552 -0.0317  0.6721 -0.2649
  863MOL0     C13830   4.364   4.314  10.464  0.3173 -0.0696  0.1133
  863MOL0     O13831   4.545   4.541  10.300 -0.1724  0.8215 -1.2601
  863MOL0     C13832   4.534   4.683  10.050  1.3799 -0.5517 -0.4637
  863MOL0     C13833   4.505   4.748   9.925  0.4718 -0.5318  0.2357
  863MOL0     N13834   4.776   4.927   9.790  0.2954  0.3575 -0.8706
  863MOL0     N13835   4.825   4.978   9.892 -0.4217  0.6959 -0.4701
  863MOL0     C13836   5.629   5.802   9.859  0.1047 -0.3959  0.0040
  863MOL0     C13837   5.694   5.897   9.782 -0.3138 -0.1029  0.1362
  863MOL0     C13838   6.032   6.080   9.534 -0.7591 -0.5826  1.0913
  863MOL0     C13839   6.013   6.219   9.549  0.2138 -0.5930 -0.8614
  863MOL0     C13840   6.070   6.320   9.470 -0.5809  0.1160  0.3275
  863MOL0     C13841   6.166   6.282   9.372  0.2038  0.0206 -0.1884
  863MOL0     O13842   6.227   6.365   9.276 -0.1123 -0.2622  0.3496
  863MOL0     C13843   6.186   6.505   9.275  0.0970  0.4262 -0.3243
  863MOL0     C13844   6.258   6.586   9.388 -0.1941 -0.4756 -0.4849
  863MOL0     C13845   6.411   6.621   9.368  0.3497  0.0662  0.1686
  863MOL0     C13846   6.465   6.697   9.493  0.0344 -0.2567 -0.2843
  863MOL0     C13847   6.608   6.716   9.500  0.3957 -0.0562  0.2326
  863MOL0     C13848   6.724   6.718   9.487 -0.4765  0.2075  0.1099
  863MOL0     C13849   6.183   6.144   9.344  0.2775  0.3704 -0.2441
  863MOL0     C13850   6.120   6.042   9.429 -0.2449 -1.1884  1.0667
  863MOL0     H13851   6.013   5.874   9.891 -0.3989  1.5043  1.4459
  863MOL0     H13852   5.908   5.671  10.009 -1.7817  0.1243  0.2418
  863MOL0     H13853   5.779   5.563  10.136 -2.3757  5.7900 -1.8666
  863MOL0     H13854   5.758   5.458   9.986 -2.6886 -3.4287  0.5184
  863MOL0     H13855   5.573   5.454  10.223  2.3027 -3.4389  3.0958
  863MOL0     H13856   5.675   5.333  10.165  2.1883  1.5047 -0.7159
  863MOL0     H13857   5.548   5.312   9.962 -0.6949  0.8719  0.0540
  863MOL0     H13858   5.421   5.422  10.052 -2.6846 -1.8821 -0.6989
  863MOL0     H13859   5.535   5.157  10.153  1.6614  0.7664 -1.5275
  863MOL0     H13860   5.407   5.263  10.221 -1.0232 -0.9141 -0.9895
  863MOL0     H13861   5.307   5.077  10.121  0.7904  1.3355  1.9185
  863MOL0     H13862   5.387   5.110   9.956 -0.1081 -0.7440  0.3136
  863MOL0     H13863   5.272   5.292   9.917 -2.6307  1.0923 -1.1697
  863MOL0     H13864   5.190   5.293  10.080  1.0230  2.8646 -2.6008
  863MOL0     H13865   5.162   5.113   9.838  0.0568  0.0922  0.1950
  863MOL0     H13866   5.120   5.038   9.990 -3.1248 -0.9447  0.2066
  863MOL0     H13867   4.995   5.289   9.893  2.1241 -1.1334 -2.0758
  863MOL0     H13868   4.959   5.200  10.038  0.2871  2.4851  0.6254
  863MOL0     H13869   4.860   5.223   9.684  0.0818 -1.5265 -0.7972
  863MOL0     H13870   4.722   4.901   9.521 -1.4395  0.7140 -1.7590
  863MOL0     H13871   4.765   5.060   9.477 -0.1970  0.4747 -0.0651
  863MOL0     H13872   4.527   5.005   9.451  0.0504  1.9731  0.2090
  863MOL0     H13873   4.552   5.153   9.543  0.3203 -0.3082 -1.0085
  863MOL0     H13874   4.508   5.004   9.753 -0.4422 -1.0541 -0.1353
  863MOL0     H13875   4.371   5.014   9.638 -0.2487 -0.3522  0.5713
  863MOL0     H13876   4.564   4.779   9.645  0.6579  2.1428 -0.9957
  863MOL0     H13877   4.440   4.805   9.533 -3.4141 -0.8888  0.4137
  863MOL0     H13878   4.190   4.628   9.869 -0.2085 -0.1250  0.9315
  863MOL0     H13879   4.226   4.540  10.078  0.3038  0.6519 -0.5140
  863MOL0     H13880   4.471   4.200  10.174 -3.7749  0.2689 -0.2547
  863MOL0     H13881   4.523   3.991  10.339  2.4618 -0.3858  3.4031
  863MOL0     H13882   4.461   3.844  10.476  1.3384  0.5340 -0.9229
  863MOL0     H13883   4.458   3.785  10.639 -0.9807  1.3902  1.6654
  863MOL0     H13884   4.715   3.827  10.660 -3.1599  0.2590  1.5018
  863MOL0     H13885   4.705   3.932  10.523  0.3725  1.4874  1.0605
  863MOL0     H13886   4.612   3.720  10.391  2.0488 -1.4417 -1.2184
  863MOL0     H13887   4.629   3.629  10.536  1.6627 -0.1136  0.5956
  863MOL0     H13888   4.825   3.600  10.361 -0.1053 -2.0994  2.0421
  863MOL0     H13889   4.886   3.750  10.436  0.5461 -0.3403 -0.2945
  863MOL0     H13890   4.975   3.548  10.526 -1.4319  0.0943 -3.6015
  863MOL0     H13891   4.815   3.479  10.550 -0.7356  0.0856 -1.9465
  863MOL0     H13892   4.770   3.621  10.740  0.5801 -0.0553  0.1766
  863MOL0     H13893   4.894   3.735  10.681  1.1357 -0.0018 -1.5895
  863MOL0     H13894   4.934   3.449  10.791  1.4245 -0.5803 -1.5004
  863MOL0     H13895   5.075   3.558  10.751  0.1886  0.9790 -0.8730
  863MOL0     H13896   4.852   3.605  10.960 -0.6045  2.4890 -1.3074
  863MOL0     H13897   4.981   3.715  10.919  2.0003 -1.4825 -0.1802
  863MOL0     H13898   4.370   4.230  10.657  0.6179 -0.1800  0.0148
  863MOL0     H13899   4.308   4.400  10.498 -1.0544 -0.2406 -1.6034
  863MOL0     H13900   4.626   4.704  10.104  0.6259  2.1227 -0.0892
  863MOL0     H13901   4.595   4.789   9.882  1.2851 -1.0598  1.3841
  863MOL0     H13902   5.524   5.778   9.846  0.4433 -1.7178 -0.5194
  863MOL0     H13903   5.653   5.945   9.694  1.6178 -0.2022 -0.8758
  863MOL0     H13904   5.931   6.246   9.615 -1.4288 -1.7837 -2.3401
  863MOL0     H13905   6.040   6.423   9.482 -0.1358  0.0473  2.4000
  863MOL0     H13906   6.076   6.513   9.278 -0.0921 -1.7938  1.1897
  863MOL0     H13907   6.215   6.561   9.186 -0.4815 -0.8494 -1.3479
  863MOL0     H13908   6.207   6.680   9.409 -0.6183 -0.8144  0.0114
  863MOL0     H13909   6.248   6.523   9.476  1.1003  0.0620  0.0715
  863MOL0     H13910   6.449   6.662   9.274  0.0474  1.4963  0.6606
  863MOL0     H13911   6.461   6.523   9.378  1.4536  0.5177 -0.6584
  863MOL0     H13912   6.428   6.800   9.492  1.1600  0.1848  0.8696
  863MOL0     H13913   6.442   6.647   9.587 -0.2347 -2.4968 -1.4730
  863MOL0     H13914   6.828   6.730   9.465 -1.1908  2.7590 -2.4425
  863MOL0     H13915   6.242   6.106   9.261 -2.5774 -2.4032 -1.1642
  863MOL0     H13916   6.138   5.938   9.402  2.5264 -0.1042 -1.9984
  864MOL0     O13917   7.811   9.262   1.471 -0.3841  0.3717  0.2898
  864MOL0     C13918   7.840   9.179   1.559 -0.4013  0.5296  0.4336
  864MOL0     O13919   7.954   9.111   1.565  0.6061  0.2083 -0.0880
  864MOL0     C13920   8.062   9.111   1.486 -0.0228 -0.0249  0.2435
  864MOL0     C13921   8.143   8.992   1.485 -0.5205 -0.3006 -0.4655
  864MOL0     C13922   8.258   8.977   1.399  0.5191  0.3283 -0.5540
  864MOL0     C13923   8.297   9.088   1.319 -0.3899  0.0693  0.8112
  864MOL0     O13924   8.399   9.069   1.238 -0.3423  0.9631  0.1066
  864MOL0     C13925   8.529   9.066   1.305 -0.1113  0.1962 -1.1794
  864MOL0     C13926   8.645   9.067   1.210 -1.0693 -0.0612 -0.6320
  864MOL0     C13927   8.683   8.922   1.173  0.7646 -0.3483  0.0513
  864MOL0     C13928   8.830   8.912   1.141 -0.2288  0.5222 -0.5306
  864MOL0     C13929   8.870   8.837   1.017  0.4316  0.1018 -0.7131
  864MOL0     C13930   8.850   8.678   1.040  0.4817 -0.3622  0.0373
  864MOL0     C13931   8.877   8.598   0.909  0.0368  0.3833  0.3533
  864MOL0     C13932   8.771   8.631   0.815  0.7623 -0.5346 -0.7973
  864MOL0     N13933   8.773   8.552   0.691  0.6914 -0.2302 -1.2409
  864MOL0     C13934   8.708   8.437   0.694 -0.6378 -0.1677 -0.5381
  864MOL0     C13935   8.715   8.392   0.573  0.4408 -0.0733  0.3444
  864MOL0     C13936   8.655   8.266   0.514  1.4095 -0.4681 -0.8624
  864MOL0     C13937   8.747   8.163   0.467  0.1057 -0.5868  0.3914
  864MOL0     C13938   8.671   8.054   0.389 -1.0009 -0.4952 -0.2061
  864MOL0     C13939   8.581   7.960   0.471 -0.4417 -0.3685 -0.0516
  864MOL0     O13940   8.657   7.874   0.566 -0.4716 -0.2259  0.1847
  864MOL0     C13941   8.595   7.757   0.615 -1.1215 -0.0313  0.9024
  864MOL0     C13942   8.679   7.652   0.667 -0.2530  0.0319  0.1923
  864MOL0     C13943   8.613   7.536   0.707  0.1305  0.3879 -0.3293
  864MOL0     C13944   8.476   7.509   0.708  0.2839  0.3217  0.4866
  864MOL0     C13945   8.422   7.380   0.754  0.1530 -0.0627 -0.3262
  864MOL0     O13946   8.506   7.298   0.823 -0.2409  0.3060  0.0927
  864MOL0     C13947   8.463   7.169   0.856 -0.5047  0.5587 -0.5967
  864MOL0     C13948   8.556   7.060   0.848 -0.9220  0.7283  0.3799
  864MOL0     C13949   8.524   6.930   0.891 -0.0925  0.4254 -0.7065
  864MOL0     C13950   8.403   6.893   0.943  0.3295 -0.3372  0.4508
  864MOL0     O13951   8.378   6.761   0.972 -0.4657  0.1326 -0.4369
  864MOL0     C13952   8.367   6.731   1.105 -0.5344  0.7671 -0.0833
  864MOL0     C13953   8.319   6.573   1.117  0.7097  0.1510  0.4731
  864MOL0     C13954   8.413   6.461   1.071 -1.5236  0.3289 -0.4604
  864MOL0     C13955   8.553   6.462   1.132  0.4261 -0.3197 -0.0132
  864MOL0     C13956   8.636   6.332   1.102 -0.2305 -0.1579  0.6563
  864MOL0     C13957   8.643   6.326   0.946 -1.2193  0.1947  0.9518
  864MOL0     C13958   8.758   6.242   0.902 -0.8313 -0.0600 -0.4957
  864MOL0     C13959   8.749   6.095   0.941  1.3439  0.0359 -0.1468
  864MOL0    Cl13960   8.637   6.016   0.834  0.6906 -0.0592  0.4109
  864MOL0     C13961   8.305   7.002   0.957 -0.6084  0.6797 -0.7828
  864MOL0     C13962   8.335   7.143   0.926 -0.0459 -0.2431  0.3540
  864MOL0     O13963   8.304   7.355   0.732  0.1005  0.1462  0.1893
  864MOL0     C13964   8.393   7.615   0.664  0.4594 -0.3514 -0.0473
  864MOL0     C13965   8.454   7.732   0.620 -0.3026  0.2310  0.5515
  864MOL0     N13966   8.768   8.486   0.491 -0.1579 -0.1122  0.5227
  864MOL0     N13967   8.806   8.580   0.563 -0.0699 -0.0940  0.1669
  864MOL0     C13968   8.218   9.201   1.317 -0.0041  0.5896 -0.0536
  864MOL0     C13969   8.092   9.211   1.387 -0.2476 -0.6065  0.2086
  864MOL0     C13970   7.733   9.149   1.664  0.2762  0.7971 -1.0498
  864MOL0     C13971   7.765   9.052   1.756  0.9245 -0.1981 -0.4424
  864MOL0     C13972   7.669   9.009   1.847  0.4712  0.1216 -0.7004
  864MOL0     C13973   7.534   9.066   1.857 -0.8615  0.1400 -0.4222
  864MOL0     O13974   7.442   9.029   1.954  0.8068  0.4603  0.1118
  864MOL0     C13975   7.489   8.942   2.058 -0.2705  0.5522 -0.2606
  864MOL0     C13976   7.375   8.951   2.167 -0.6193  0.0595 -0.5930
  864MOL0     C13977   7.412   8.878   2.300  0.0776 -0.5940 -0.0622
  864MOL0     C13978   7.351   8.944   2.424 -0.6177 -0.0709  0.7125
  864MOL0     C13979   7.314   8.860   2.539  0.2709 -0.5857  0.2902
  864MOL0     C13980   7.281   8.789   2.630 -1.3410 -0.1927 -0.3275
  864MOL0     C13981   7.506   9.174   1.773 -0.3780 -0.2432  0.8254
  864MOL0     C13982   7.605   9.217   1.678  0.2318  0.3808  0.1362
  864MOL0     H13983   8.121   8.914   1.557  0.7832 -1.3327 -1.1524
  864MOL0     H13984   8.306   8.880   1.397  1.4593  0.7859 -1.5008
  864MOL0     H13985   8.526   8.983   1.376  3.0073 -0.1940 -1.3607
  864MOL0     H13986   8.540   9.159   1.361  1.2578 -0.3388 -0.5248
  864MOL0     H13987   8.728   9.115   1.263 -1.5097 -1.5395  1.5604
  864MOL0     H13988   8.633   9.127   1.120 -0.7831  3.0175  1.2270
  864MOL0     H13989   8.630   8.890   1.083  3.2038 -2.6134 -0.6962
  864MOL0     H13990   8.662   8.852   1.255  1.4525  0.6059  1.0724
  864MOL0     H13991   8.880   9.007   1.120  3.3482 -1.2773 -1.0186
  864MOL0     H13992   8.877   8.872   1.231 -3.8953  1.0182  1.8090
  864MOL0     H13993   8.974   8.857   0.991  1.2049 -0.3694  1.7709
  864MOL0     H13994   8.805   8.876   0.938 -2.1705  0.3546  1.4156
  864MOL0     H13995   8.745   8.664   1.067 -0.2494  0.9074 -1.9273
  864MOL0     H13996   8.911   8.641   1.122 -0.6055  0.2754  1.1706
  864MOL0     H13997   8.968   8.644   0.869  0.8101 -0.9754  0.5084
  864MOL0     H13998   8.895   8.491   0.921  1.2102  0.5284  0.0067
  864MOL0     H13999   8.782   8.733   0.776  0.8788  0.3397  1.3849
  864MOL0     H14000   8.676   8.628   0.868  2.2243 -2.6681  1.9451
  864MOL0     H14001   8.679   8.391   0.788  2.8058  1.9025  1.7483
  864MOL0     H14002   8.588   8.292   0.433  0.1440 -2.0223 -0.3684
  864MOL0     H14003   8.594   8.220   0.592  1.7839  0.7271  0.1612
  864MOL0     H14004   8.807   8.111   0.542 -0.2753 -0.5361  0.7346
  864MOL0     H14005   8.804   8.222   0.394 -3.6991  1.4904 -1.2300
  864MOL0     H14006   8.608   8.108   0.318 -2.1285  0.4626  1.4564
  864MOL0     H14007   8.747   7.998   0.333  0.6473  2.2960 -0.9771
  864MOL0     H14008   8.529   7.896   0.399  0.8058  0.5205 -1.8349
  864MOL0     H14009   8.509   8.029   0.515  0.1440  1.6269 -2.0089
  864MOL0     H14010   8.787   7.655   0.672 -0.0674  0.6685 -2.3694
  864MOL0     H14011   8.678   7.465   0.757  1.7562  2.0846  0.0681
  864MOL0     H14012   8.639   7.062   0.779 -0.2948 -1.7773  0.9442
  864MOL0     H14013   8.588   6.849   0.858  0.7352  0.5238  0.5990
  864MOL0     H14014   8.290   6.790   1.156  0.6373  2.4887 -0.2242
  864MOL0     H14015   8.462   6.739   1.158 -0.4625 -1.7577  0.3026
  864MOL0     H14016   8.220   6.566   1.072  0.8981  1.0527 -0.0984
  864MOL0     H14017   8.297   6.558   1.223 -2.6214 -3.7355 -0.5158
  864MOL0     H14018   8.421   6.470   0.962  0.0571 -0.3779 -0.4336
  864MOL0     H14019   8.378   6.360   1.096  1.1393 -0.6340 -0.2407
  864MOL0     H14020   8.592   6.546   1.074 -0.2877 -1.8945 -2.9769
  864MOL0     H14021   8.542   6.494   1.236  2.1722  3.5955 -0.8835
  864MOL0     H14022   8.582   6.247   1.145  1.1028 -0.7924  1.1467
  864MOL0     H14023   8.731   6.346   1.155  1.8262 -1.4911 -2.3919
  864MOL0     H14024   8.645   6.426   0.901 -2.4070 -0.2768 -0.2229
  864MOL0     H14025   8.551   6.274   0.917 -1.1280  0.4620  0.1536
  864MOL0     H14026   8.761   6.240   0.793 -0.8873 -7.5047 -0.8823
  864MOL0     H14027   8.849   6.282   0.948 -0.5796 -3.1237  2.0676
  864MOL0     H14028   8.717   6.078   1.044  1.9054 -0.4666 -0.0551
  864MOL0     H14029   8.847   6.048   0.937  0.5168 -1.6765 -1.4375
  864MOL0     H14030   8.205   6.976   0.990 -1.4591 -0.8996 -4.2417
  864MOL0     H14031   8.255   7.214   0.944 -2.3663 -1.4030 -4.0084
  864MOL0     H14032   8.285   7.608   0.659  0.5454 -1.8465 -0.0817
  864MOL0     H14033   8.382   7.805   0.586  0.7951  0.5948 -1.0763
  864MOL0     H14034   8.244   9.276   1.242  3.3410  0.6252  0.9950
  864MOL0     H14035   8.038   9.305   1.376  0.3740 -0.3950 -1.3126
  864MOL0     H14036   7.865   9.011   1.751  0.9585 -0.0152 -4.2334
  864MOL0     H14037   7.703   8.931   1.914 -0.5569  1.8215  1.9482
  864MOL0     H14038   7.584   8.976   2.100  0.3636  0.7005 -1.7509
  864MOL0     H14039   7.499   8.839   2.024 -3.8825  0.4472 -1.3994
  864MOL0     H14040   7.364   9.057   2.189 -1.6763  0.0458 -1.0253
  864MOL0     H14041   7.282   8.920   2.119 -0.5596  1.3575 -1.5906
  864MOL0     H14042   7.521   8.876   2.308  0.3077 -1.1075 -2.6889
  864MOL0     H14043   7.371   8.780   2.277 -2.3078  1.1346 -4.2447
  864MOL0     H14044   7.412   9.029   2.455  0.9855 -0.7231 -0.5574
  864MOL0     H14045   7.255   8.991   2.399 -0.5472  0.4509  1.3967
  864MOL0     H14046   7.238   8.731   2.709 -4.7091  2.3485 -0.0657
  864MOL0     H14047   7.414   9.230   1.763 -0.6440 -0.5012  1.7606
  864MOL0     H14048   7.572   9.299   1.615 -4.1705 -2.1389 -1.2476
  865MOL0     O14049   1.249   3.914   2.962 -0.4227 -0.3795 -0.2297
  865MOL0     C14050   1.281   3.916   3.078  0.2136  1.2939 -0.1564
  865MOL0     O14051   1.211   3.979   3.172 -0.0319 -0.4549  0.9878
  865MOL0     C14052   1.081   4.016   3.132 -0.1868 -0.4692 -0.1879
  865MOL0     C14053   0.971   3.940   3.106 -0.1085  0.8141 -0.0855
  865MOL0     C14054   0.853   3.998   3.078  0.9097  0.2348  0.4243
  865MOL0     C14055   0.833   4.140   3.084 -0.7163  0.4635  0.0825
  865MOL0     O14056   0.709   4.191   3.049  0.1291 -0.3342 -0.3940
  865MOL0     C14057   0.613   4.104   2.978  0.1712 -0.1750  0.9461
  865MOL0     C14058   0.504   4.186   2.905 -0.1566 -0.2781 -0.4756
  865MOL0     C14059   0.434   4.100   2.796 -0.1642 -0.0201 -0.5205
  865MOL0     C14060   0.295   4.153   2.757  0.0406 -0.1428  0.7452
  865MOL0     C14061   0.247   4.098   2.623 -0.2412  0.1924  0.7241
  865MOL0     C14062   0.101   4.095   2.599  0.1224 -0.4100  0.3172
  865MOL0     C14063   0.031   4.237   2.594 -0.2255  0.4489  0.5058
  865MOL0     C14064  -0.118   4.235   2.550 -1.2570  0.6816 -0.3471
  865MOL0     N14065  -0.199   4.168   2.657 -0.3397 -0.2013  1.1574
  865MOL0     C14066  -0.236   4.220   2.784  0.2462 -0.1102  0.9511
  865MOL0     C14067  -0.273   4.117   2.863  0.1004  0.6603 -0.2480
  865MOL0     C14068  -0.325   4.114   2.994 -0.4061 -0.4097 -0.5605
  865MOL0     C14069  -0.479   4.103   2.989 -0.0497 -0.1036  0.0006
  865MOL0     C14070  -0.525   3.964   2.937  0.9688 -0.2816  0.3674
  865MOL0     C14071  -0.664   3.945   2.977 -0.4450  0.3301 -0.9788
  865MOL0     O14072  -0.708   3.830   2.907 -0.5949 -0.0538  0.1929
  865MOL0     C14073  -0.837   3.781   2.935 -0.7257 -0.2752 -0.5959
  865MOL0     C14074  -0.877   3.657   2.877  0.1208  0.0012 -0.1347
  865MOL0     C14075  -1.009   3.615   2.880 -0.5383  0.0133  1.0848
  865MOL0     C14076  -1.107   3.702   2.935 -0.3748 -0.1757 -0.2142
  865MOL0     C14077  -1.254   3.672   2.940  0.4484  0.8133  0.8532
  865MOL0     O14078  -1.285   3.542   2.919 -0.0571 -0.2624  0.5519
  865MOL0     C14079  -1.405   3.502   2.959 -0.3799 -0.5433  1.0789
  865MOL0     C14080  -1.515   3.527   2.869 -0.0378  0.5870  0.2055
  865MOL0     C14081  -1.646   3.491   2.911 -0.9590  0.3695  0.2496
  865MOL0     C14082  -1.668   3.432   3.044 -1.4048  0.3368  0.9779
  865MOL0     O14083  -1.795   3.404   3.078  0.0723 -0.0560 -0.2511
  865MOL0     C14084  -1.873   3.325   2.996  0.3665 -0.3837 -0.3116
  865MOL0     C14085  -2.000   3.407   2.959  0.4080 -0.2281  0.0248
  865MOL0     C14086  -2.074   3.360   2.830  0.3958 -0.0382 -0.0957
  865MOL0     C14087  -2.191   3.448   2.789  0.2543  0.3134 -0.3749
  865MOL0     C14088  -2.154   3.574   2.705 -0.3670  0.4552  0.1068
  865MOL0     C14089  -2.282   3.654   2.658  0.6040 -0.0384 -0.3026
  865MOL0     C14090  -2.366   3.717   2.775  0.5968  0.6474  0.5402
  865MOL0     C14091  -2.483   3.813   2.730 -0.6646  0.4823  0.2884
  865MOL0    Cl14092  -2.611   3.723   2.650  0.1022  0.1646 -0.1160
  865MOL0     C14093  -1.557   3.394   3.103 -0.7586 -0.0701 -0.0077
  865MOL0     C14094  -1.429   3.435   3.072 -0.0377 -0.6363 -0.1105
  865MOL0     O14095  -1.336   3.764   2.968 -0.3924 -0.5086 -0.5183
  865MOL0     C14096  -1.070   3.822   2.996  0.3310  0.0441 -0.3894
  865MOL0     C14097  -0.940   3.865   3.002 -1.0663  0.0061 -0.4642
  865MOL0     N14098  -0.262   4.001   2.778  0.6859 -0.5198  0.4623
  865MOL0     N14099  -0.217   4.035   2.661  0.3114 -0.0436 -0.3826
  865MOL0     C14100   0.935   4.221   3.120 -0.4755  0.2319 -0.1021
  865MOL0     C14101   1.060   4.158   3.139 -0.2239 -0.2281  0.1418
  865MOL0     C14102   1.409   3.852   3.100 -0.7523  0.1972  0.3853
  865MOL0     C14103   1.456   3.830   3.229  0.1759  0.2593 -0.4688
  865MOL0     C14104   1.595   3.800   3.250  0.3564  0.7834 -0.2873
  865MOL0     C14105   1.678   3.777   3.140  0.7947  0.2150  0.6796
  865MOL0     O14106   1.814   3.755   3.157 -0.0903 -1.4465 -0.2398
  865MOL0     C14107   1.853   3.634   3.213  0.1758 -0.3799  0.4979
  865MOL0     C14108   2.001   3.644   3.245  0.7223 -1.3061  0.2313
  865MOL0     C14109   2.091   3.663   3.123 -0.6261 -0.2666  0.7244
  865MOL0     C14110   2.233   3.621   3.152  0.4530  0.5295 -0.0471
  865MOL0     C14111   2.317   3.589   3.038  0.6040  0.7591  0.1395
  865MOL0     C14112   2.384   3.556   2.942  0.5865  0.3543  0.6683
  865MOL0     C14113   1.623   3.779   3.011  0.5267  0.3986  1.1605
  865MOL0     C14114   1.491   3.822   2.990  0.3293 -0.0224 -0.0227
  865MOL0     H14115   0.987   3.833   3.118  0.7563  0.9788  0.2911
  865MOL0     H14116   0.774   3.937   3.035  0.3364  0.9551  0.4498
  865MOL0     H14117   0.562   4.042   3.051 -1.3152  2.4226  2.2540
  865MOL0     H14118   0.671   4.041   2.909  0.4409 -0.7166  1.6489
  865MOL0     H14119   0.545   4.276   2.858 -0.5507  0.7202  1.0364
  865MOL0     H14120   0.430   4.214   2.981  0.6108 -0.1422  0.2319
  865MOL0     H14121   0.425   4.004   2.849 -3.2142  0.1037 -0.6563
  865MOL0     H14122   0.506   4.084   2.714 -0.7251 -1.7259 -0.7227
  865MOL0     H14123   0.212   4.136   2.825 -1.7587  1.5270 -0.9231
  865MOL0     H14124   0.292   4.262   2.745  1.2170 -0.3610 -3.1133
  865MOL0     H14125   0.294   3.999   2.615  4.0983  2.0327  0.2899
  865MOL0     H14126   0.284   4.157   2.539 -1.2305 -0.1499  0.0390
  865MOL0     H14127   0.064   4.036   2.683 -1.1851 -1.1548 -0.7498
  865MOL0     H14128   0.076   4.036   2.511  1.4505 -1.0226  0.3307
  865MOL0     H14129   0.044   4.295   2.685  3.4314  0.2966  0.2232
  865MOL0     H14130   0.081   4.294   2.515 -0.5765  0.1266  0.0415
  865MOL0     H14131  -0.126   4.181   2.455  2.2283 -1.3132  0.2992
  865MOL0     H14132  -0.154   4.338   2.554 -1.3211  0.6295  0.6414
  865MOL0     H14133  -0.246   4.328   2.791  1.5225  0.3862 -2.6494
  865MOL0     H14134  -0.286   4.202   3.045  1.2560 -0.9798 -0.7950
  865MOL0     H14135  -0.283   4.033   3.054 -0.2820  1.7011  2.3927
  865MOL0     H14136  -0.523   4.180   2.924 -0.2067  1.9626  2.3701
  865MOL0     H14137  -0.517   4.120   3.091  1.6509 -1.8791  0.9955
  865MOL0     H14138  -0.513   3.959   2.829 -0.9599  0.5448  0.0855
  865MOL0     H14139  -0.473   3.879   2.983  1.4097 -1.5162 -2.2438
  865MOL0     H14140  -0.722   4.033   2.948  1.2704  2.8437  2.4819
  865MOL0     H14141  -0.669   3.930   3.085 -2.2011  0.5239 -1.0005
  865MOL0     H14142  -0.807   3.604   2.814  0.0967 -1.0478  0.6847
  865MOL0     H14143  -1.034   3.518   2.838 -0.4683  1.0315 -1.4905
  865MOL0     H14144  -1.514   3.584   2.777 -1.1961  1.8916  0.9646
  865MOL0     H14145  -1.728   3.502   2.841  1.2803  3.0777 -2.2073
  865MOL0     H14146  -1.902   3.236   3.054 -1.9201  0.5909  0.1506
  865MOL0     H14147  -1.830   3.292   2.901 -1.4417  3.8488 -2.8626
  865MOL0     H14148  -1.980   3.515   2.950 -2.5679  0.3735 -0.7525
  865MOL0     H14149  -2.060   3.401   3.050  0.5737  2.6755  0.4261
  865MOL0     H14150  -2.120   3.264   2.856 -1.2925  1.7079  4.5055
  865MOL0     H14151  -2.000   3.354   2.750  3.1635 -1.3637  2.3367
  865MOL0     H14152  -2.255   3.385   2.727  0.1888  0.7323 -0.7368
  865MOL0     H14153  -2.249   3.485   2.874  0.0646  0.8164 -0.7143
  865MOL0     H14154  -2.119   3.537   2.608  1.4147  1.1034  0.4812
  865MOL0     H14155  -2.078   3.638   2.749 -0.2367  2.6233 -2.9299
  865MOL0     H14156  -2.354   3.588   2.609 -0.6760 -0.3272  1.8547
  865MOL0     H14157  -2.254   3.729   2.584 -0.3157  0.0053 -0.6213
  865MOL0     H14158  -2.427   3.641   2.825 -0.2801  1.5062  0.8154
  865MOL0     H14159  -2.295   3.768   2.840 -1.7135  2.2693  1.9785
  865MOL0     H14160  -2.438   3.877   2.654 -1.7693  1.1158  0.1380
  865MOL0     H14161  -2.516   3.874   2.815  1.5593 -0.1862  1.7032
  865MOL0     H14162  -1.571   3.340   3.196  4.5758  0.3778  1.3645
  865MOL0     H14163  -1.344   3.415   3.136  1.3436 -1.9442 -2.2305
  865MOL0     H14164  -1.142   3.895   3.031  3.4254  3.3335 -0.2428
  865MOL0     H14165  -0.907   3.957   3.049  1.4869 -2.0677  2.1780
  865MOL0     H14166   0.932   4.329   3.117  3.2303  0.5267  1.3213
  865MOL0     H14167   1.148   4.221   3.147 -1.5458  1.5344  1.6489
  865MOL0     H14168   1.391   3.842   3.315 -2.0534 -0.1356 -2.0089
  865MOL0     H14169   1.637   3.814   3.349 -1.4507  0.7845  0.5213
  865MOL0     H14170   1.846   3.551   3.141  0.5243 -0.4077  0.4979
  865MOL0     H14171   1.789   3.618   3.300 -1.2071  2.1383  0.0555
  865MOL0     H14172   2.019   3.722   3.319  0.1540 -2.0302  1.1530
  865MOL0     H14173   2.030   3.556   3.303 -0.9442 -1.2487  1.1884
  865MOL0     H14174   2.088   3.759   3.070  0.0776 -0.9761 -0.6586
  865MOL0     H14175   2.057   3.589   3.051 -1.0632 -0.6587  1.3257
  865MOL0     H14176   2.293   3.704   3.192  3.1078 -0.7923 -0.9928
  865MOL0     H14177   2.240   3.533   3.216 -2.4910 -1.3643 -2.0749
  865MOL0     H14178   2.443   3.523   2.859  1.6531  2.0671  0.7058
  865MOL0     H14179   1.689   3.769   2.925 -0.3830 -1.0596  0.5835
  865MOL0     H14180   1.457   3.843   2.889 -0.0110  0.8140  0.2573
  866MOL0     O14181  10.654   3.994   0.602 -0.4354 -0.4550 -0.1766
  866MOL0     C14182  10.725   3.994   0.505  0.7857  0.4028 -0.3238
  866MOL0     O14183  10.674   4.011   0.371  1.0012 -0.0642 -0.0600
  866MOL0     C14184  10.533   4.010   0.363  0.3217 -0.2815 -0.0994
  866MOL0     C14185  10.463   3.885   0.379 -1.0046  0.4856  0.3244
  866MOL0     C14186  10.329   3.885   0.379  0.4158  0.4299  0.1704
  866MOL0     C14187  10.250   4.003   0.368  0.7980  0.3570  0.1949
  866MOL0     O14188  10.111   3.991   0.368 -0.7124 -0.1830 -0.1570
  866MOL0     C14189  10.030   4.096   0.310  0.3854 -0.1298 -0.8246
  866MOL0     C14190   9.872   4.079   0.322  0.3080  0.4319 -0.6163
  866MOL0     C14191   9.826   3.954   0.252  0.0246  0.3512  1.1425
  866MOL0     C14192   9.673   3.946   0.268  0.2856 -0.8413  0.1824
  866MOL0     C14193   9.612   3.833   0.186 -0.2713  0.7874 -0.5229
  866MOL0     C14194   9.573   3.877   0.061 -0.0265  0.2710 -0.1884
  866MOL0     C14195   9.506   3.765  -0.024  0.0359 -0.4793  0.7731
  866MOL0     C14196   9.354   3.754  -0.004  0.1973  0.3048  0.3145
  866MOL0     N14197   9.320   3.617  -0.025 -0.7357 -0.0725  0.0723
  866MOL0     C14198   9.359   3.505   0.047  0.7134  0.3677  1.1694
  866MOL0     C14199   9.294   3.398  -0.007  0.0102  0.1106 -0.9726
  866MOL0     C14200   9.296   3.263   0.056  0.4683 -0.3817 -0.4944
  866MOL0     C14201   9.156   3.194   0.076  0.1483  0.0545 -0.0590
  866MOL0     C14202   9.167   3.035   0.073 -0.2090 -0.8658  0.5816
  866MOL0     C14203   9.046   2.976   0.142  0.1477 -0.4039 -0.0293
  866MOL0     O14204   8.933   2.972   0.052  0.2457 -0.5798 -0.1940
  866MOL0     C14205   8.812   2.922   0.090 -0.1059 -0.2089  0.2352
  866MOL0     C14206   8.703   2.987   0.050 -0.0066 -0.5217  0.3806
  866MOL0     C14207   8.580   2.927   0.069 -0.1123  0.8386  0.4919
  866MOL0     C14208   8.567   2.793   0.121  1.0654 -1.3828  0.1812
  866MOL0     C14209   8.437   2.750   0.166  0.5280 -0.6671  0.1656
  866MOL0     O14210   8.427   2.619   0.171  0.1752  0.0276 -0.9259
  866MOL0     C14211   8.318   2.555   0.218  0.1089 -0.2961  0.0893
  866MOL0     C14212   8.217   2.607   0.297 -0.3490  1.0711 -1.1738
  866MOL0     C14213   8.098   2.533   0.309 -0.3350 -1.3060 -0.4260
  866MOL0     C14214   8.084   2.405   0.267  0.3215 -0.3631 -0.6000
  866MOL0     O14215   7.981   2.323   0.308 -0.0060  0.4306  0.2324
  866MOL0     C14216   7.900   2.357   0.419 -0.6621  0.5305 -0.3276
  866MOL0     C14217   7.784   2.253   0.443  1.2374 -0.1438 -0.5605
  866MOL0     C14218   7.724   2.273   0.578 -0.4612 -0.0304 -1.2091
  866MOL0     C14219   7.597   2.187   0.608 -0.5988 -0.5792 -0.6841
  866MOL0     C14220   7.548   2.189   0.754  0.9391  0.1678 -0.5744
  866MOL0     C14221   7.431   2.099   0.792  0.2372 -0.5456 -0.0702
  866MOL0     C14222   7.341   2.157   0.894  0.8332  0.4329  0.3662
  866MOL0     C14223   7.230   2.254   0.848  0.4222  0.3305 -0.5056
  866MOL0    Cl14224   7.114   2.310   0.983 -0.1095 -0.2068 -0.3639
  866MOL0     C14225   8.187   2.347   0.193 -0.4094 -0.6141  0.0541
  866MOL0     C14226   8.308   2.420   0.173 -0.4748  0.2525 -0.5192
  866MOL0     O14227   8.342   2.832   0.176 -0.2125 -0.2210  0.1330
  866MOL0     C14228   8.683   2.738   0.173 -0.0892  0.3947  0.1284
  866MOL0     C14229   8.805   2.799   0.164  0.1322 -0.4390  0.4183
  866MOL0     N14230   9.220   3.451  -0.116 -0.3894  0.4994 -0.2982
  866MOL0     N14231   9.234   3.581  -0.125  0.1406  0.7931  0.1457
  866MOL0     C14232  10.324   4.123   0.340 -0.1868 -0.6364 -0.1480
  866MOL0     C14233  10.461   4.133   0.351 -0.0248  0.0700 -0.2092
  866MOL0     C14234  10.870   3.999   0.513  0.0594 -0.1347  0.7116
  866MOL0     C14235  10.948   4.005   0.633  0.2205 -0.0243  0.6052
  866MOL0     C14236  11.086   3.999   0.642  0.9852 -0.6058 -0.1560
  866MOL0     C14237  11.154   3.978   0.529  0.1538 -0.0705  0.6008
  866MOL0     O14238  11.290   3.959   0.520  0.1321 -0.1134 -0.6166
  866MOL0     C14239  11.387   4.005   0.616 -0.1752 -0.2320 -0.7784
  866MOL0     C14240  11.521   3.979   0.560 -0.9159 -0.4744 -0.3985
  866MOL0     C14241  11.632   4.003   0.668  0.1997  0.2914 -1.0814
  866MOL0     C14242  11.670   4.140   0.710  0.0419 -0.1302 -0.4213
  866MOL0     C14243  11.766   4.144   0.814 -0.0480  0.3985  0.2977
  866MOL0     C14244  11.854   4.133   0.899  1.6491 -0.1473  0.1537
  866MOL0     C14245  11.082   3.973   0.405  0.6762 -0.0044  0.1389
  866MOL0     C14246  10.947   3.988   0.394 -1.2487 -0.4801 -0.2268
  866MOL0     H14247  10.518   3.793   0.390  0.0973  1.3460  2.6463
  866MOL0     H14248  10.281   3.788   0.390 -0.6085  0.9269  0.1631
  866MOL0     H14249  10.051   4.125   0.207 -1.7998 -0.9351 -1.5506
  866MOL0     H14250  10.047   4.186   0.370 -0.4214  0.2835 -1.2032
  866MOL0     H14251   9.841   4.167   0.265 -0.0173  0.8837  0.2428
  866MOL0     H14252   9.840   4.100   0.424  1.1973  0.2194 -0.2887
  866MOL0     H14253   9.877   3.866   0.292 -1.4314 -1.5140 -0.9175
  866MOL0     H14254   9.855   3.953   0.147 -1.4798 -1.6359  0.6790
  866MOL0     H14255   9.666   3.929   0.376  0.2178 -0.7384  0.1941
  866MOL0     H14256   9.628   4.044   0.250 -2.2427 -1.7043  1.3566
  866MOL0     H14257   9.518   3.806   0.236  0.4299 -0.4570  0.1704
  866MOL0     H14258   9.670   3.742   0.206  0.1536  1.5110  1.8466
  866MOL0     H14259   9.667   3.905   0.013 -0.9037  1.7803 -1.1313
  866MOL0     H14260   9.501   3.959   0.069 -0.3812  0.0335 -0.8750
  866MOL0     H14261   9.522   3.781  -0.131 -1.6564 -0.7443  0.4633
  866MOL0     H14262   9.556   3.671  -0.000 -2.4490 -1.8412  0.9104
  866MOL0     H14263   9.287   3.823  -0.056 -0.0533 -0.7994 -0.8931
  866MOL0     H14264   9.350   3.782   0.101  1.7665  1.4045  0.1171
  866MOL0     H14265   9.422   3.504   0.136  1.2808 -4.8373  1.0119
  866MOL0     H14266   9.351   3.257   0.151  0.3312  1.9787 -0.2066
  866MOL0     H14267   9.341   3.196  -0.018 -0.8722  0.7672 -2.4415
  866MOL0     H14268   9.087   3.234   0.001  0.2323  2.2487  0.9376
  866MOL0     H14269   9.118   3.227   0.173  1.8559 -0.1746  0.7293
  866MOL0     H14270   9.186   2.986  -0.023  0.0501 -0.6929  0.5432
  866MOL0     H14271   9.251   3.012   0.140 -0.3394  1.7666  1.7440
  866MOL0     H14272   9.021   3.028   0.235  2.0092  0.2184  0.1655
  866MOL0     H14273   9.070   2.871   0.158 -6.3282 -2.5030 -1.0606
  866MOL0     H14274   8.719   3.088   0.012 -2.3184 -0.4282 -0.5167
  866MOL0     H14275   8.483   2.969   0.041  0.3373  1.5197 -0.0865
  866MOL0     H14276   8.224   2.709   0.333  0.6455  0.6556 -0.1336
  866MOL0     H14277   8.020   2.568   0.375  0.5777 -1.0617  0.5580
  866MOL0     H14278   7.855   2.455   0.400 -3.8384 -0.2749  2.1162
  866MOL0     H14279   7.967   2.357   0.506  0.9051 -3.1032 -1.3707
  866MOL0     H14280   7.821   2.151   0.433 -4.2183 -2.3241 -3.1063
  866MOL0     H14281   7.705   2.267   0.369 -0.0709  1.1214  0.9825
  866MOL0     H14282   7.699   2.372   0.617 -1.6596 -1.2240  1.3553
  866MOL0     H14283   7.804   2.241   0.645  0.4700  3.1557 -0.6114
  866MOL0     H14284   7.519   2.214   0.535  1.1298  1.5394 -1.8564
  866MOL0     H14285   7.622   2.085   0.579 -1.0781 -0.8497 -0.1707
  866MOL0     H14286   7.523   2.293   0.776  0.8538  0.2087 -0.8577
  866MOL0     H14287   7.635   2.153   0.810 -0.6098  0.8029  2.4831
  866MOL0     H14288   7.470   2.002   0.824  2.6338  0.9656  2.0860
  866MOL0     H14289   7.379   2.087   0.697  1.4419  0.5045 -0.8941
  866MOL0     H14290   7.295   2.069   0.940  1.8300  0.7424  2.0126
  866MOL0     H14291   7.402   2.201   0.974  0.2009 -1.6815  2.0915
  866MOL0     H14292   7.175   2.205   0.767 -0.3209 -0.6324  0.5496
  866MOL0     H14293   7.285   2.339   0.806  0.3122  0.5606 -0.1925
  866MOL0     H14294   8.170   2.244   0.163  1.5747 -1.2650  0.9508
  866MOL0     H14295   8.392   2.367   0.127 -0.5221  0.0329 -0.3563
  866MOL0     H14296   8.680   2.655   0.243  0.6196 -0.0889 -0.3927
  866MOL0     H14297   8.892   2.755   0.212  1.0726  1.9137  1.0308
  866MOL0     H14298  10.264   4.211   0.316  0.7116  0.0279  0.0052
  866MOL0     H14299  10.509   4.229   0.338  1.3830 -0.2490  2.0026
  866MOL0     H14300  10.895   4.004   0.728  0.7417 -0.2313  0.8932
  866MOL0     H14301  11.132   4.007   0.740 -0.9521  0.8217  0.6995
  866MOL0     H14302  11.372   3.956   0.713  0.4533  1.6651  0.3179
  866MOL0     H14303  11.378   4.108   0.652  1.2844  0.0400 -1.1427
  866MOL0     H14304  11.531   3.876   0.524 -0.5548  0.3262 -2.8234
  866MOL0     H14305  11.524   4.044   0.472 -1.5542 -0.5921 -0.5167
  866MOL0     H14306  11.726   3.955   0.639 -0.3929 -0.8748 -1.1396
  866MOL0     H14307  11.600   3.947   0.757 -1.7268 -0.3320 -2.1040
  866MOL0     H14308  11.713   4.199   0.628  1.9624  0.4178  0.8975
  866MOL0     H14309  11.593   4.207   0.751  2.3392  1.7021  1.1914
  866MOL0     H14310  11.933   4.120   0.970 -0.1206  0.9533  2.4919
  866MOL0     H14311  11.151   3.955   0.324  0.9275  1.5019  0.0056
  866MOL0     H14312  10.896   3.961   0.302  0.9432  1.0043 -1.9748
  867MOL0     O14313   6.259   8.594   2.960  0.2837  0.1597  0.1434
  867MOL0     C14314   6.338   8.554   2.874  0.1341  0.2404 -0.4541
  867MOL0     O14315   6.355   8.413   2.839  0.0432 -0.0795  0.0869
  867MOL0     C14316   6.250   8.320   2.865 -0.2204  0.4732  0.2998
  867MOL0     C14317   6.302   8.187   2.864  0.5523 -0.5623 -0.7993
  867MOL0     C14318   6.217   8.076   2.891  0.1182 -0.4877  0.1682
  867MOL0     C14319   6.084   8.095   2.929 -0.5442  0.0236 -0.5632
  867MOL0     O14320   6.011   7.989   2.975 -0.2279  0.6877 -0.5376
  867MOL0     C14321   5.875   7.979   2.944  0.3154  0.0912 -0.3897
  867MOL0     C14322   5.806   7.841   2.947  0.1802  0.0022 -0.0597
  867MOL0     C14323   5.661   7.860   2.891  0.5869 -0.2863  0.3831
  867MOL0     C14324   5.557   7.753   2.912 -0.1411  0.3385  0.4352
  867MOL0     C14325   5.577   7.619   2.830 -0.3345 -0.3988  0.8216
  867MOL0     C14326   5.589   7.641   2.679 -0.4229  0.0836  0.5341
  867MOL0     C14327   5.595   7.505   2.613  0.1681  0.2609  0.2160
  867MOL0     C14328   5.674   7.524   2.484  0.5290 -0.6548  0.3463
  867MOL0     N14329   5.642   7.428   2.377 -0.3048  0.3501 -0.8581
  867MOL0     C14330   5.588   7.461   2.259  0.4172  0.1669  0.1929
  867MOL0     C14331   5.617   7.354   2.181 -0.9727 -0.5255  0.3862
  867MOL0     C14332   5.578   7.359   2.039  0.1219 -0.0690  0.4279
  867MOL0     C14333   5.711   7.373   1.962  0.6191  0.4302  0.3830
  867MOL0     C14334   5.694   7.362   1.818 -0.1051 -0.0932  0.1812
  867MOL0     C14335   5.642   7.475   1.737 -0.5236 -0.1187 -0.6577
  867MOL0     O14336   5.726   7.600   1.743  0.2806  0.5407  0.5424
  867MOL0     C14337   5.852   7.601   1.687  0.6183 -0.0673 -0.6359
  867MOL0     C14338   5.968   7.611   1.763 -0.9059  0.1232 -0.5704
  867MOL0     C14339   6.089   7.611   1.705 -0.3800 -0.7467  0.2847
  867MOL0     C14340   6.104   7.601   1.563  0.4589  0.6361  0.1395
  867MOL0     C14341   6.239   7.599   1.504  0.7809 -0.7033 -0.0253
  867MOL0     O14342   6.337   7.644   1.587  0.1111  0.3645  0.9122
  867MOL0     C14343   6.459   7.639   1.536  0.2536  0.1957  1.3779
  867MOL0     C14344   6.526   7.515   1.540  0.0186 -0.3066 -0.5672
  867MOL0     C14345   6.664   7.507   1.490  0.1904 -0.2015  0.0486
  867MOL0     C14346   6.719   7.623   1.414 -0.2918  0.4297 -0.0306
  867MOL0     O14347   6.844   7.632   1.364 -0.0584  0.4665 -0.1782
  867MOL0     C14348   6.919   7.512   1.376  1.4792 -0.0148 -1.2923
  867MOL0     C14349   7.066   7.540   1.329  0.5045 -1.0339 -0.8066
  867MOL0     C14350   7.065   7.531   1.180  0.1341 -0.1218 -0.8580
  867MOL0     C14351   7.212   7.544   1.140  0.7227  0.8017  0.0602
  867MOL0     C14352   7.233   7.514   0.993  0.6541 -0.1339 -0.6816
  867MOL0     C14353   7.367   7.550   0.948 -0.3748  0.0592  0.5311
  867MOL0     C14354   7.415   7.462   0.835 -0.2416  0.2543 -0.1780
  867MOL0     C14355   7.552   7.500   0.788  0.7746 -0.4432  0.1379
  867MOL0    Cl14356   7.541   7.634   0.670 -0.1688 -0.0649  0.2969
  867MOL0     C14357   6.643   7.746   1.419 -0.2866  0.4772  0.0158
  867MOL0     C14358   6.525   7.756   1.490 -0.1298 -0.3838  0.4930
  867MOL0     O14359   6.261   7.546   1.395  0.0788 -0.1960  0.0056
  867MOL0     C14360   5.990   7.576   1.490 -0.2983 -0.5062  0.1358
  867MOL0     C14361   5.866   7.582   1.554  0.4276 -0.1503 -0.0659
  867MOL0     N14362   5.672   7.254   2.261 -0.5643 -0.4115 -0.4254
  867MOL0     N14363   5.690   7.302   2.380  0.4384  0.8681  0.3707
  867MOL0     C14364   6.042   8.226   2.929  0.8033 -0.7133 -0.1299
  867MOL0     C14365   6.120   8.338   2.900 -0.5274 -0.4992 -0.4162
  867MOL0     C14366   6.443   8.641   2.820  0.0593  0.0047 -0.7269
  867MOL0     C14367   6.539   8.582   2.734 -0.0420 -0.1789 -0.3422
  867MOL0     C14368   6.654   8.638   2.686  1.1364  1.0097 -0.3357
  867MOL0     C14369   6.675   8.769   2.703 -0.4639 -0.8292 -0.2247
  867MOL0     O14370   6.771   8.850   2.643 -0.9457 -0.1476  0.1924
  867MOL0     C14371   6.867   8.786   2.545 -0.1135 -0.2081 -0.2714
  867MOL0     C14372   6.957   8.888   2.469  0.7799  0.0633  0.4158
  867MOL0     C14373   6.882   8.970   2.347  0.1758 -0.0365  0.0919
  867MOL0     C14374   6.839   9.106   2.396  0.0148  0.6546  0.1799
  867MOL0     C14375   6.784   9.182   2.292  0.2143  0.2955  0.7037
  867MOL0     C14376   6.724   9.214   2.189 -0.5059 -0.0079 -0.6727
  867MOL0     C14377   6.588   8.830   2.791 -0.3739  0.3102  0.2931
  867MOL0     C14378   6.471   8.770   2.850  0.2672  1.2674  0.6039
  867MOL0     H14379   6.401   8.149   2.843  0.2799 -2.3602  0.8780
  867MOL0     H14380   6.258   7.975   2.902 -3.8845 -2.2832  0.1804
  867MOL0     H14381   5.853   8.013   2.843 -2.5873  1.6639  0.6452
  867MOL0     H14382   5.835   8.051   3.017  1.6700  0.0244  0.4616
  867MOL0     H14383   5.801   7.817   3.053  0.4136  3.7979  0.9537
  867MOL0     H14384   5.856   7.754   2.903 -0.6867 -1.0218  0.9130
  867MOL0     H14385   5.679   7.855   2.783  3.4983 -1.5210  0.8421
  867MOL0     H14386   5.610   7.953   2.917 -1.0799 -1.2505  0.7961
  867MOL0     H14387   5.546   7.734   3.019  6.6603  1.7175  1.8473
  867MOL0     H14388   5.458   7.793   2.889 -0.1968  1.4400  2.4015
  867MOL0     H14389   5.484   7.562   2.835 -1.4128  1.0994 -0.9447
  867MOL0     H14390   5.661   7.560   2.868  1.9438  2.6437  0.9096
  867MOL0     H14391   5.688   7.687   2.672 -0.5503  0.7615  2.5739
  867MOL0     H14392   5.507   7.699   2.636  1.8024  1.4487 -2.1935
  867MOL0     H14393   5.641   7.426   2.672 -4.8247 -0.8822  3.1358
  867MOL0     H14394   5.493   7.474   2.589 -0.1575  1.3658  0.1151
  867MOL0     H14395   5.777   7.500   2.513 -0.3022 -3.6445  1.2374
  867MOL0     H14396   5.649   7.626   2.455 -2.9484 -0.5251  3.0497
  867MOL0     H14397   5.549   7.561   2.244  3.5381  1.5380  0.2609
  867MOL0     H14398   5.509   7.443   2.024 -0.1150 -0.4415 -0.7227
  867MOL0     H14399   5.536   7.260   2.023  0.5069 -0.4081  1.4903
  867MOL0     H14400   5.779   7.297   2.001 -0.3186  0.7071  2.7475
  867MOL0     H14401   5.773   7.456   1.997  0.5813  1.4209 -1.7529
  867MOL0     H14402   5.790   7.322   1.785  0.0867 -0.8280  1.5573
  867MOL0     H14403   5.623   7.282   1.797  0.8560 -0.8727 -0.1448
  867MOL0     H14404   5.539   7.503   1.760 -0.1233  2.7022 -1.8718
  867MOL0     H14405   5.641   7.450   1.630 -2.5995 -1.3415 -0.3998
  867MOL0     H14406   5.944   7.618   1.869 -3.5567  0.9844 -1.1349
  867MOL0     H14407   6.176   7.608   1.771 -0.7562 -2.5673  0.7577
  867MOL0     H14408   6.491   7.416   1.569  1.1673 -0.3797  0.6667
  867MOL0     H14409   6.718   7.413   1.491 -1.6565 -1.3245 -0.7178
  867MOL0     H14410   6.866   7.430   1.325 -3.2283  1.5388  0.5740
  867MOL0     H14411   6.929   7.489   1.483 -3.5397  2.8051  0.1061
  867MOL0     H14412   7.128   7.463   1.376 -0.0392 -1.5871 -0.9907
  867MOL0     H14413   7.094   7.641   1.360 -1.0742 -1.3276  1.9157
  867MOL0     H14414   7.006   7.610   1.134  3.5778  2.8048 -0.6997
  867MOL0     H14415   7.015   7.436   1.158 -1.8442 -0.2766  3.4522
  867MOL0     H14416   7.242   7.646   1.165  1.2111 -0.1572  4.1030
  867MOL0     H14417   7.274   7.475   1.198  0.0999  1.5750  1.6910
  867MOL0     H14418   7.148   7.554   0.937  0.3383 -2.8618 -2.2999
  867MOL0     H14419   7.233   7.406   0.976  1.0359 -0.1056 -0.8893
  867MOL0     H14420   7.441   7.534   1.028 -0.5944  1.4592  1.0487
  867MOL0     H14421   7.365   7.656   0.919  0.7488  0.0579  0.3990
  867MOL0     H14422   7.426   7.357   0.861  2.1177  1.0790  2.7300
  867MOL0     H14423   7.346   7.474   0.751  1.5764  1.4189 -1.5738
  867MOL0     H14424   7.587   7.410   0.737  0.5395  0.6649 -2.1037
  867MOL0     H14425   7.618   7.527   0.871  0.9584 -1.4499  0.3338
  867MOL0     H14426   6.691   7.837   1.385  0.2943  0.4701  0.7737
  867MOL0     H14427   6.477   7.854   1.494  3.1771  1.3362  1.4308
  867MOL0     H14428   6.003   7.558   1.384 -2.5488 -1.9329  0.0369
  867MOL0     H14429   5.787   7.580   1.480  0.6567 -0.8396 -0.2999
  867MOL0     H14430   5.941   8.256   2.953  0.2247 -0.4754 -2.6261
  867MOL0     H14431   6.081   8.439   2.898 -1.9115 -1.0128 -0.6304
  867MOL0     H14432   6.505   8.489   2.689 -2.5013  1.2580 -1.6667
  867MOL0     H14433   6.708   8.586   2.607 -1.4571  0.3560 -1.7963
  867MOL0     H14434   6.816   8.722   2.472  0.4848  0.7852 -1.5984
  867MOL0     H14435   6.942   8.728   2.599  0.5580 -1.6955 -2.6522
  867MOL0     H14436   7.002   8.954   2.543 -0.3879  2.5752 -0.9552
  867MOL0     H14437   7.034   8.819   2.433 -2.2414 -4.9271  2.4458
  867MOL0     H14438   6.798   8.907   2.313 -2.1279  1.9324  1.7475
  867MOL0     H14439   6.966   8.987   2.280  1.5646  3.3548  2.4240
  867MOL0     H14440   6.776   9.094   2.485  4.0190 -2.2003  2.9901
  867MOL0     H14441   6.924   9.168   2.426 -0.9374  2.2767 -0.3456
  867MOL0     H14442   6.684   9.224   2.090 -1.1646  1.3984 -0.2760
  867MOL0     H14443   6.611   8.932   2.820  0.5086  0.2921 -0.3275
  867MOL0     H14444   6.416   8.822   2.928 -2.4751  1.3128 -1.2304
  868MOL0     O14445   7.610   4.791   3.275 -0.6697  0.3439 -0.4894
  868MOL0     C14446   7.487   4.798   3.300 -1.0260  0.0714  0.1720
  868MOL0     O14447   7.426   4.917   3.315 -0.1793  0.5479 -0.0053
  868MOL0     C14448   7.485   5.038   3.294  0.3743 -0.5346  0.2499
  868MOL0     C14449   7.431   5.117   3.192 -0.6278  0.4821  0.0672
  868MOL0     C14450   7.485   5.244   3.161  1.0850  0.0280  0.0224
  868MOL0     C14451   7.584   5.291   3.235 -0.3311 -0.6084 -0.0753
  868MOL0     O14452   7.609   5.421   3.195  0.5755 -0.1950 -0.5572
  868MOL0     C14453   7.744   5.454   3.194  0.1374 -0.1856  0.5391
  868MOL0     C14454   7.768   5.529   3.066  0.5450  0.6650  0.0782
  868MOL0     C14455   7.719   5.671   3.064 -0.4624 -0.7559 -0.3131
  868MOL0     C14456   7.822   5.753   3.136  0.4231  0.1887 -0.1263
  868MOL0     C14457   7.783   5.895   3.168  0.9747 -0.5753 -0.2303
  868MOL0     C14458   7.726   5.916   3.313  0.4661  0.0333 -0.1334
  868MOL0     C14459   7.586   5.857   3.325  0.2799  0.3070 -0.8097
  868MOL0     C14460   7.468   5.918   3.240 -0.6083  0.0466  0.5803
  868MOL0     N14461   7.336   5.866   3.277 -0.7255 -0.7070  0.4669
  868MOL0     C14462   7.306   5.738   3.315 -0.1305 -0.4195  0.4651
  868MOL0     C14463   7.175   5.726   3.302 -0.9988  0.7332 -0.7344
  868MOL0     C14464   7.088   5.604   3.319  0.7868 -0.3771  0.1077
  868MOL0     C14465   7.171   5.468   3.334 -0.2566 -0.7433  0.9038
  868MOL0     C14466   7.083   5.353   3.362 -0.1488  0.0361  0.0140
  868MOL0     C14467   7.012   5.306   3.236 -0.8514 -0.2142  0.5348
  868MOL0     O14468   6.955   5.176   3.244 -0.4425  0.4476 -0.0834
  868MOL0     C14469   6.847   5.179   3.326 -1.0866 -0.1166 -0.1600
  868MOL0     C14470   6.857   5.157   3.463 -0.4354  0.2857  0.1855
  868MOL0     C14471   6.742   5.152   3.543  0.2204  0.0212 -0.0398
  868MOL0     C14472   6.618   5.193   3.487 -0.1921 -0.8662  0.4440
  868MOL0     C14473   6.494   5.209   3.567  0.1163 -0.4901 -0.4712
  868MOL0     O14474   6.384   5.250   3.501  0.2680  0.0025  0.4297
  868MOL0     C14475   6.278   5.288   3.572  0.2208  0.0255  0.4361
  868MOL0     C14476   6.252   5.421   3.590 -0.3946  0.2813  0.3992
  868MOL0     C14477   6.158   5.458   3.680 -1.2736 -0.0529  0.0258
  868MOL0     C14478   6.088   5.367   3.746 -0.8743 -0.2465  0.1799
  868MOL0     O14479   5.983   5.396   3.831  0.2536 -1.2113 -0.1674
  868MOL0     C14480   5.932   5.534   3.848 -0.3664  0.8316 -0.6152
  868MOL0     C14481   5.848   5.575   3.729  0.9674  0.8470  0.7244
  868MOL0     C14482   5.743   5.465   3.696 -0.1934 -0.3933 -0.4590
  868MOL0     C14483   5.630   5.530   3.612 -0.2355  0.1872 -0.0401
  868MOL0     C14484   5.532   5.607   3.696  0.4641 -0.2344  0.8527
  868MOL0     C14485   5.390   5.567   3.632 -0.2924  0.9224 -0.6592
  868MOL0     C14486   5.282   5.649   3.687  0.8317 -0.5585 -0.3119
  868MOL0     C14487   5.144   5.578   3.686  0.0677  0.3475 -0.1652
  868MOL0    Cl14488   5.085   5.558   3.519 -0.6259 -0.9406 -0.1153
  868MOL0     C14489   6.121   5.228   3.739  0.2685 -1.2728  0.3224
  868MOL0     C14490   6.208   5.185   3.646 -0.6289 -0.3444  0.1956
  868MOL0     O14491   6.501   5.184   3.680 -0.1746 -0.2904 -0.2257
  868MOL0     C14492   6.617   5.224   3.350  0.8230  0.7374  0.2991
  868MOL0     C14493   6.727   5.211   3.274 -0.5472 -0.6715 -0.3594
  868MOL0     N14494   7.129   5.858   3.293  0.1098  0.6896  0.2691
  868MOL0     N14495   7.225   5.940   3.289 -0.1744  0.0231  0.4970
  868MOL0     C14496   7.643   5.219   3.344  0.3593  0.0901 -0.1854
  868MOL0     C14497   7.595   5.091   3.370 -0.4855  0.6200  0.1674
  868MOL0     C14498   7.410   4.670   3.307 -0.1415 -0.8735 -1.1667
  868MOL0     C14499   7.270   4.675   3.309  0.9429 -0.5201 -0.7287
  868MOL0     C14500   7.193   4.555   3.308  0.2972  0.1946  0.7215
  868MOL0     C14501   7.257   4.436   3.309  0.4028  0.7766 -0.4953
  868MOL0     O14502   7.202   4.305   3.299  1.0884  1.1839  0.1088
  868MOL0     C14503   7.057   4.296   3.284  0.1431  0.8196 -0.5192
  868MOL0     C14504   7.004   4.335   3.139 -0.2173  0.3475 -0.0958
  868MOL0     C14505   6.854   4.319   3.118  0.2437 -0.1981  0.6270
  868MOL0     C14506   6.823   4.372   2.984  0.9759 -0.6484 -0.4050
  868MOL0     C14507   6.670   4.376   2.973 -0.2779  0.3872  0.5004
  868MOL0     C14508   6.557   4.398   2.976 -0.0258  0.0018 -0.8448
  868MOL0     C14509   7.397   4.433   3.315  0.2642 -0.9929  0.3443
  868MOL0     C14510   7.474   4.549   3.316  0.0653 -0.3839  0.9259
  868MOL0     H14511   7.349   5.076   3.134 -2.0000  0.7120  1.7483
  868MOL0     H14512   7.469   5.303   3.071  0.7637 -0.8349 -0.5036
  868MOL0     H14513   7.807   5.365   3.189  2.0605  1.0922  0.9352
  868MOL0     H14514   7.758   5.519   3.280 -0.6289 -0.3447  0.7916
  868MOL0     H14515   7.715   5.480   2.984  1.0886  1.2553 -0.6506
  868MOL0     H14516   7.876   5.531   3.047  0.8876 -5.2478 -0.3125
  868MOL0     H14517   7.622   5.685   3.114  1.1368 -1.1484  3.2105
  868MOL0     H14518   7.709   5.702   2.960 -3.5392 -0.4622 -0.0341
  868MOL0     H14519   7.850   5.697   3.226  1.4354  0.7801 -0.0627
  868MOL0     H14520   7.912   5.756   3.074  0.2257  0.6080 -0.3955
  868MOL0     H14521   7.705   5.924   3.097 -0.8355 -0.7047  1.6403
  868MOL0     H14522   7.860   5.967   3.139  1.5007 -1.3246 -0.7576
  868MOL0     H14523   7.719   6.023   3.336 -2.9325 -0.0291 -0.3754
  868MOL0     H14524   7.788   5.860   3.383 -0.1605  0.1825  0.5562
  868MOL0     H14525   7.588   5.752   3.295  3.4915  0.6852 -2.2075
  868MOL0     H14526   7.557   5.853   3.431  3.3192  1.7628  0.1940
  868MOL0     H14527   7.490   5.870   3.144  1.6489 -1.2993  1.7030
  868MOL0     H14528   7.465   6.026   3.225  1.2494  0.0800  0.1844
  868MOL0     H14529   7.376   5.656   3.326  4.7167  3.2176  0.3635
  868MOL0     H14530   7.000   5.600   3.254  0.0495  0.3240  1.0472
  868MOL0     H14531   7.034   5.620   3.412  3.0416 -2.2728  1.8768
  868MOL0     H14532   7.243   5.476   3.417  1.0368 -3.0741  0.1086
  868MOL0     H14533   7.233   5.461   3.244  0.4364  2.3772  1.0241
  868MOL0     H14534   7.147   5.272   3.397  1.2353  1.6043  1.2950
  868MOL0     H14535   7.017   5.394   3.439 -0.3171  0.8185 -0.5390
  868MOL0     H14536   7.078   5.317   3.150 -1.9471  1.6097 -0.1336
  868MOL0     H14537   6.939   5.381   3.205  0.4587  1.0382  0.3302
  868MOL0     H14538   6.952   5.127   3.506  0.3546  2.6344  0.2256
  868MOL0     H14539   6.740   5.111   3.644  1.6647 -1.0586 -0.4177
  868MOL0     H14540   6.319   5.498   3.553  2.6378 -1.1856  2.3706
  868MOL0     H14541   6.138   5.563   3.696 -0.3076  0.0475  0.6538
  868MOL0     H14542   6.007   5.613   3.860  1.2671 -0.5091 -1.4937
  868MOL0     H14543   5.866   5.524   3.935 -0.2517 -0.6198 -0.6620
  868MOL0     H14544   5.915   5.588   3.643 -1.5894  2.7848 -1.1026
  868MOL0     H14545   5.812   5.677   3.742  0.6567  0.4937  3.0332
  868MOL0     H14546   5.709   5.421   3.789  3.3465  0.0936  1.2330
  868MOL0     H14547   5.797   5.387   3.641  2.9988  0.3401  1.3746
  868MOL0     H14548   5.667   5.600   3.536 -1.2224 -1.4823 -2.1907
  868MOL0     H14549   5.592   5.444   3.555 -0.4990  0.3703 -0.1432
  868MOL0     H14550   5.561   5.712   3.686  0.4704 -0.1109  2.0237
  868MOL0     H14551   5.541   5.579   3.802 -1.8185 -2.3551  0.5771
  868MOL0     H14552   5.370   5.460   3.642  0.5886  0.9657  2.5772
  868MOL0     H14553   5.396   5.587   3.524  0.6555 -2.6307 -1.3777
  868MOL0     H14554   5.291   5.671   3.794  1.0072 -1.0684 -0.2170
  868MOL0     H14555   5.266   5.743   3.634  3.0059 -0.5905 -1.1170
  868MOL0     H14556   5.082   5.641   3.751 -1.8365  1.2809 -2.7012
  868MOL0     H14557   5.151   5.479   3.732  3.3990  0.3917 -0.3513
  868MOL0     H14558   6.064   5.154   3.794 -0.4893 -0.0773  1.2040
  868MOL0     H14559   6.233   5.079   3.640  2.7793  0.3933 -1.1320
  868MOL0     H14560   6.526   5.248   3.296 -1.3042 -1.0070  2.8273
  868MOL0     H14561   6.734   5.234   3.169 -0.3827  0.0987 -0.1830
  868MOL0     H14562   7.718   5.260   3.411 -0.4974  1.5143 -0.0492
  868MOL0     H14563   7.628   5.025   3.451 -0.8477 -1.2997 -1.1837
  868MOL0     H14564   7.224   4.773   3.299 -0.5654 -0.9028  1.6340
  868MOL0     H14565   7.087   4.557   3.281  0.5597  1.4038 -0.3346
  868MOL0     H14566   7.009   4.349   3.367  0.2797 -2.8559  2.1145
  868MOL0     H14567   7.022   4.193   3.292  0.4336  0.7868  0.3957
  868MOL0     H14568   7.034   4.437   3.115  3.3626 -0.5338  0.0276
  868MOL0     H14569   7.054   4.260   3.076  0.4459 -0.3899  1.2494
  868MOL0     H14570   6.807   4.384   3.193 -0.2432  0.4211 -0.2001
  868MOL0     H14571   6.831   4.212   3.127 -1.0758  0.0946  0.9294
  868MOL0     H14572   6.864   4.473   2.974  2.9800 -1.3252  0.4530
  868MOL0     H14573   6.862   4.319   2.897 -0.4078 -0.2056 -1.3272
  868MOL0     H14574   6.457   4.421   3.005  1.1784  3.9299  0.8360
  868MOL0     H14575   7.449   4.338   3.320 -0.7950 -1.5629  0.7089
  868MOL0     H14576   7.581   4.539   3.324  0.5866 -0.6711 -3.7127
  869MOL0     O14577   6.547   0.531   6.062 -0.2781 -0.7781 -0.3623
  869MOL0     C14578   6.573   0.632   6.133  0.3257 -0.4179  0.3073
  869MOL0     O14579   6.481   0.707   6.210 -0.0909  0.2406  0.0503
  869MOL0     C14580   6.357   0.658   6.226 -0.1893  0.4517 -0.0859
  869MOL0     C14581   6.260   0.751   6.242  0.0200  0.4405  0.7219
  869MOL0     C14582   6.127   0.723   6.268  0.0919 -0.2067  0.2161
  869MOL0     C14583   6.094   0.592   6.294  0.1684  1.1993  0.4206
  869MOL0     O14584   5.963   0.556   6.316  0.1380 -0.4544  0.8004
  869MOL0     C14585   5.906   0.455   6.233 -0.6046 -0.4915 -0.1743
  869MOL0     C14586   5.758   0.461   6.244 -0.3204  0.0518 -0.4215
  869MOL0     C14587   5.682   0.383   6.137  0.2104  0.6038 -0.0478
  869MOL0     C14588   5.710   0.237   6.147  0.6722  0.1421  0.2334
  869MOL0     C14589   5.641   0.165   6.030  0.7411 -0.5525  0.4810
  869MOL0     C14590   5.663   0.012   6.034  0.8781 -0.4337  1.2925
  869MOL0     C14591   5.603  -0.060   6.151  0.7384 -0.2593  0.2712
  869MOL0     C14592   5.451  -0.079   6.145  0.2317 -0.9329 -1.1679
  869MOL0     N14593   5.410  -0.147   6.271 -0.0595  1.4313 -0.3726
  869MOL0     C14594   5.417  -0.089   6.394 -0.0193 -0.9699  0.6950
  869MOL0     C14595   5.429  -0.186   6.485  0.3830 -0.2898  1.0359
  869MOL0     C14596   5.463  -0.175   6.634  0.0348  0.8388  0.4283
  869MOL0     C14597   5.540  -0.303   6.680  0.1116 -1.5343 -0.3249
  869MOL0     C14598   5.452  -0.418   6.724 -0.2766 -0.2097 -0.0108
  869MOL0     C14599   5.357  -0.397   6.846  0.3195 -0.0813  0.6787
  869MOL0     O14600   5.431  -0.340   6.958  0.3419 -0.0274  0.4530
  869MOL0     C14601   5.366  -0.297   7.077 -0.0797  0.0950 -0.8127
  869MOL0     C14602   5.431  -0.197   7.155 -0.4846 -0.1965  0.1788
  869MOL0     C14603   5.385  -0.157   7.280 -1.4781  0.9202 -0.0452
  869MOL0     C14604   5.256  -0.211   7.321 -0.6827 -0.0586  0.0507
  869MOL0     C14605   5.198  -0.175   7.444  0.2921 -0.2979 -0.2214
  869MOL0     O14606   5.120  -0.271   7.489  0.1844  0.7073 -0.9815
  869MOL0     C14607   5.048  -0.255   7.601  0.0582 -0.0844 -1.0898
  869MOL0     C14608   5.108  -0.201   7.719  0.8724 -0.9223 -0.1496
  869MOL0     C14609   5.041  -0.189   7.838  0.3662  0.1378  0.2777
  869MOL0     C14610   4.900  -0.239   7.844 -0.9129 -0.1843 -0.0322
  869MOL0     O14611   4.825  -0.231   7.959  0.6015 -0.4892  0.5265
  869MOL0     C14612   4.893  -0.199   8.080  0.3954 -0.0286  0.1590
  869MOL0     C14613   4.792  -0.174   8.185  0.7067  0.2563  0.1570
  869MOL0     C14614   4.703  -0.301   8.225  0.6356  0.2587 -0.3014
  869MOL0     C14615   4.598  -0.279   8.341 -0.0634 -0.5348 -0.1962
  869MOL0     C14616   4.484  -0.377   8.354 -1.1813 -0.0762  0.7256
  869MOL0     C14617   4.540  -0.525   8.343  0.4428  0.4545 -0.8826
  869MOL0     C14618   4.426  -0.621   8.379 -0.0891  0.6006  0.0448
  869MOL0     C14619   4.359  -0.614   8.519  0.0256  0.2829 -1.3942
  869MOL0    Cl14620   4.469  -0.602   8.656 -0.6753  0.3607 -0.8732
  869MOL0     C14621   4.836  -0.265   7.724  0.5945  0.7825  0.3589
  869MOL0     C14622   4.912  -0.293   7.606 -0.3775  0.2703 -0.3231
  869MOL0     O14623   5.214  -0.067   7.501  0.0645 -0.2939  0.3597
  869MOL0     C14624   5.190  -0.304   7.245 -0.0347  0.8908 -0.0956
  869MOL0     C14625   5.239  -0.344   7.121 -0.2272 -0.1891  0.0298
  869MOL0     N14626   5.419  -0.306   6.417  0.1971  0.4661 -0.2623
  869MOL0     N14627   5.393  -0.284   6.288  0.0479  0.4041 -0.4538
  869MOL0     C14628   6.196   0.495   6.295  0.3560 -0.0430  0.4774
  869MOL0     C14629   6.326   0.530   6.267 -0.5014  0.5630 -0.1787
  869MOL0     C14630   6.715   0.676   6.149 -0.2687 -0.1973  0.1697
  869MOL0     C14631   6.823   0.618   6.085 -0.0341  0.6834  0.0962
  869MOL0     C14632   6.956   0.658   6.104 -0.1549 -0.8241  0.2982
  869MOL0     C14633   6.984   0.767   6.192 -0.3829  0.0660 -0.2504
  869MOL0     O14634   7.116   0.815   6.185 -0.3700  0.2596 -0.6304
  869MOL0     C14635   7.150   0.914   6.282 -0.6940  0.3529 -0.4380
  869MOL0     C14636   7.303   0.925   6.299 -0.2027  0.6465 -0.3849
  869MOL0     C14637   7.372   0.785   6.322  0.3221 -1.1402  0.3202
  869MOL0     C14638   7.434   0.768   6.467  0.0706  1.7476  0.2777
  869MOL0     C14639   7.329   0.748   6.564 -0.3597 -0.1430  0.9320
  869MOL0     C14640   7.235   0.728   6.643  0.5206  0.5905  0.1213
  869MOL0     C14641   6.877   0.831   6.246 -0.4128 -0.8654  0.5334
  869MOL0     C14642   6.748   0.789   6.225  0.3087  0.5162 -0.0041
  869MOL0     H14643   6.291   0.855   6.233 -0.6731  0.6800  1.0198
  869MOL0     H14644   6.058   0.807   6.264  0.2817 -0.0793 -1.2669
  869MOL0     H14645   5.949   0.360   6.268  2.1598  0.6911 -0.0914
  869MOL0     H14646   5.927   0.462   6.126 -2.3205  0.2447 -0.4836
  869MOL0     H14647   5.727   0.565   6.234 -1.9992 -0.3337  0.4056
  869MOL0     H14648   5.741   0.420   6.344  4.3355  0.4939  0.8079
  869MOL0     H14649   5.696   0.420   6.035  0.0007  0.7197 -0.0351
  869MOL0     H14650   5.577   0.386   6.166 -0.3030 -3.7479 -0.7823
  869MOL0     H14651   5.816   0.211   6.155  0.2923 -1.9264 -0.7767
  869MOL0     H14652   5.661   0.204   6.239 -0.4830  2.2548  0.4366
  869MOL0     H14653   5.691   0.197   5.938  1.8933 -0.8241  1.0061
  869MOL0     H14654   5.535   0.188   6.018  1.1466  3.6898  2.9836
  869MOL0     H14655   5.771  -0.004   6.021  0.3045 -2.6305 -1.7474
  869MOL0     H14656   5.618  -0.022   5.941  0.8870  2.8896 -0.0531
  869MOL0     H14657   5.642  -0.162   6.147  3.8212  0.8655 -2.3316
  869MOL0     H14658   5.641  -0.014   6.243  1.8145  1.1165 -0.8233
  869MOL0     H14659   5.431  -0.133   6.052  2.0711 -0.2311 -2.0113
  869MOL0     H14660   5.404   0.020   6.144  2.4618  0.1882 -1.8339
  869MOL0     H14661   5.439   0.014   6.420 -1.2113 -0.3922 -0.4903
  869MOL0     H14662   5.375  -0.165   6.698  0.9495 -0.3456  1.9413
  869MOL0     H14663   5.525  -0.087   6.653  4.0071 -1.3393 -1.2032
  869MOL0     H14664   5.599  -0.273   6.767 -0.7145 -1.2269  0.1456
  869MOL0     H14665   5.609  -0.329   6.600  1.1350  1.4543 -0.5255
  869MOL0     H14666   5.396  -0.435   6.631  2.2549 -1.7987 -1.3632
  869MOL0     H14667   5.509  -0.510   6.741  0.2271 -0.0570 -0.7944
  869MOL0     H14668   5.305  -0.489   6.874 -1.9762  0.5848 -1.0857
  869MOL0     H14669   5.289  -0.314   6.824  0.8344 -0.3162 -2.0708
  869MOL0     H14670   5.518  -0.153   7.107 -1.4918  2.0162  0.2462
  869MOL0     H14671   5.437  -0.092   7.349 -0.1590  0.0575 -0.1979
  869MOL0     H14672   5.211  -0.168   7.729  0.6234 -0.8568  2.9932
  869MOL0     H14673   5.092  -0.152   7.926 -0.3398 -3.1297  2.2444
  869MOL0     H14674   4.950  -0.105   8.075 -0.0966  0.4576  2.3617
  869MOL0     H14675   4.963  -0.277   8.113  0.1057 -0.3518  0.0091
  869MOL0     H14676   4.731  -0.085   8.169 -0.9339 -0.8418  0.0885
  869MOL0     H14677   4.846  -0.149   8.277  0.6736  0.8145  0.0305
  869MOL0     H14678   4.774  -0.382   8.246  3.2708  2.5415  0.3250
  869MOL0     H14679   4.645  -0.331   8.138 -0.5079 -0.5705  0.7114
  869MOL0     H14680   4.648  -0.270   8.438  0.8159 -0.1160 -0.6696
  869MOL0     H14681   4.546  -0.183   8.341  2.7370  1.1389 -2.0621
  869MOL0     H14682   4.411  -0.360   8.274 -1.9279 -2.4895  0.8236
  869MOL0     H14683   4.433  -0.344   8.445 -2.2338  0.3524 -0.0023
  869MOL0     H14684   4.615  -0.546   8.419 -2.9957 -1.4381  2.3569
  869MOL0     H14685   4.573  -0.547   8.241  1.7243 -2.3711  0.0277
  869MOL0     H14686   4.352  -0.619   8.299  0.7557 -1.5693 -0.8604
  869MOL0     H14687   4.456  -0.727   8.379 -2.7826 -0.2350 -1.4717
  869MOL0     H14688   4.303  -0.707   8.536 -0.8443  0.3522 -3.5088
  869MOL0     H14689   4.288  -0.531   8.528  1.8258  1.7201  5.3977
  869MOL0     H14690   4.729  -0.279   7.729  0.7165 -0.9903 -0.9191
  869MOL0     H14691   4.882  -0.328   7.508 -2.6759  0.3278  0.3096
  869MOL0     H14692   5.098  -0.353   7.275  0.2917 -0.8574 -1.7445
  869MOL0     H14693   5.178  -0.414   7.064  1.6660 -0.7771 -1.3457
  869MOL0     H14694   6.162   0.392   6.304 -3.0208  1.0649  1.9077
  869MOL0     H14695   6.404   0.455   6.274  0.0147  1.2317  1.8998
  869MOL0     H14696   6.803   0.537   6.016  2.3708 -0.5261  0.7245
  869MOL0     H14697   7.035   0.595   6.063 -0.2551 -1.2819  0.8089
  869MOL0     H14698   7.122   0.875   6.380  2.1105  1.8300  1.0514
  869MOL0     H14699   7.108   1.011   6.256 -0.6058  0.2848 -0.8397
  869MOL0     H14700   7.341   0.960   6.202  1.7143  0.1426  0.1383
  869MOL0     H14701   7.320   1.000   6.377 -4.6802 -1.7892  3.4376
  869MOL0     H14702   7.445   0.768   6.242 -0.3824 -0.0913 -0.5759
  869MOL0     H14703   7.305   0.700   6.312  1.7793 -2.4760  1.3854
  869MOL0     H14704   7.497   0.679   6.478 -2.8433 -0.5322 -0.1373
  869MOL0     H14705   7.496   0.853   6.494  1.7061  0.3760  0.9738
  869MOL0     H14706   7.149   0.706   6.702 -0.0521 -0.7115 -1.1393
  869MOL0     H14707   6.884   0.916   6.313 -2.8573 -1.8347  2.1640
  869MOL0     H14708   6.669   0.852   6.266 -1.5926 -0.1624 -2.3601
  870MOL0     O14709   9.680   3.874   8.860  0.3618  0.6504  0.2858
  870MOL0     C14710   9.770   3.791   8.827  0.4408  0.3111 -0.3341
  870MOL0     O14711   9.749   3.660   8.827  0.4377  0.3351  0.3055
  870MOL0     C14712   9.617   3.623   8.827  0.2562  0.1417 -0.4610
  870MOL0     C14713   9.548   3.639   8.710 -0.3476  0.2150  0.0027
  870MOL0     C14714   9.410   3.614   8.707  0.3971 -0.8308  1.2289
  870MOL0     C14715   9.339   3.559   8.816  0.7895 -0.5909 -0.9067
  870MOL0     O14716   9.204   3.550   8.809 -0.8086 -0.3201 -0.4007
  870MOL0     C14717   9.158   3.428   8.751  0.2864  0.2763  0.0092
  870MOL0     C14718   9.030   3.474   8.689 -0.3709  0.5143 -1.1925
  870MOL0     C14719   8.915   3.444   8.787 -0.1363 -0.3550  0.0115
  870MOL0     C14720   8.778   3.501   8.757  1.2806 -0.2180 -0.0392
  870MOL0     C14721   8.683   3.497   8.872 -0.3752  0.3849 -0.1386
  870MOL0     C14722   8.534   3.508   8.820 -0.8510  0.0172 -0.0228
  870MOL0     C14723   8.430   3.479   8.937 -0.0905 -0.6869 -0.2020
  870MOL0     C14724   8.290   3.547   8.911  0.5072  0.1180  0.2954
  870MOL0     N14725   8.200   3.504   8.797  0.0304  0.7959  0.6277
  870MOL0     C14726   8.101   3.405   8.817  0.5733  0.6492  0.7101
  870MOL0     C14727   8.046   3.397   8.695 -0.0182  0.6340  1.2187
  870MOL0     C14728   7.917   3.325   8.652 -0.4525 -0.3802  0.5270
  870MOL0     C14729   7.803   3.413   8.699 -0.6394 -0.1118 -0.4439
  870MOL0     C14730   7.659   3.376   8.659  0.0582  1.0128 -0.5219
  870MOL0     C14731   7.566   3.494   8.674  0.5658 -0.4812 -0.8108
  870MOL0     O14732   7.577   3.562   8.800  0.3521 -1.0320  0.2101
  870MOL0     C14733   7.483   3.662   8.832 -0.0672  0.1134 -0.6841
  870MOL0     C14734   7.462   3.696   8.971 -1.6210  0.9126  0.5304
  870MOL0     C14735   7.369   3.794   9.021  0.1519  0.7620  0.4398
  870MOL0     C14736   7.288   3.861   8.924 -1.0577  0.0111  0.0900
  870MOL0     C14737   7.201   3.983   8.955 -0.6695  0.0313 -0.1475
  870MOL0     O14738   7.172   4.074   8.864 -0.5988 -0.1156  0.9486
  870MOL0     C14739   7.086   4.181   8.901 -0.5335 -0.5472  1.4791
  870MOL0     C14740   6.950   4.173   8.907 -0.0969  0.9708  0.2388
  870MOL0     C14741   6.876   4.287   8.942 -0.7701  0.1467 -1.0395
  870MOL0     C14742   6.926   4.417   8.936 -0.4970  0.4287 -0.2927
  870MOL0     O14743   6.840   4.519   8.964 -0.2371 -0.5533 -0.1134
  870MOL0     C14744   6.787   4.576   8.841 -0.0298 -0.4944  0.9040
  870MOL0     C14745   6.654   4.638   8.875 -0.1189 -0.5939 -0.3908
  870MOL0     C14746   6.601   4.696   8.745 -0.6230 -0.2517 -0.3555
  870MOL0     C14747   6.479   4.792   8.753 -0.1207  0.0440 -0.0160
  870MOL0     C14748   6.381   4.770   8.640  0.4047  0.9635 -0.1057
  870MOL0     C14749   6.266   4.862   8.670  0.1072  0.2391 -0.1501
  870MOL0     C14750   6.150   4.845   8.567 -0.3529  0.6440 -1.0331
  870MOL0     C14751   6.047   4.958   8.595  0.1462  0.2414  0.1052
  870MOL0    Cl14752   6.103   5.124   8.569 -0.0814  0.3010 -0.2690
  870MOL0     C14753   7.065   4.426   8.897  0.6378  0.5161  0.0525
  870MOL0     C14754   7.143   4.313   8.893 -0.1241  1.1235 -1.0189
  870MOL0     O14755   7.173   3.985   9.072  0.7733 -0.2913 -0.3946
  870MOL0     C14756   7.305   3.821   8.784 -0.4103  0.3773  0.1492
  870MOL0     C14757   7.397   3.720   8.747  0.3987  0.3234  0.0064
  870MOL0     N14758   8.116   3.482   8.606 -0.4609  0.2030  0.0318
  870MOL0     N14759   8.200   3.550   8.670 -0.4902  0.2483  0.4845
  870MOL0     C14760   9.409   3.544   8.939 -1.6040  0.0508 -0.5159
  870MOL0     C14761   9.550   3.576   8.938  0.5841  0.3480 -1.1919
  870MOL0     C14762   9.902   3.835   8.797  0.0271 -0.7854 -0.7216
  870MOL0     C14763   9.935   3.965   8.788  0.0938  0.2307  0.2243
  870MOL0     C14764  10.070   4.001   8.779 -0.6838 -0.4233 -0.0618
  870MOL0     C14765  10.174   3.907   8.763  0.1328 -0.3991  0.1698
  870MOL0     O14766  10.300   3.953   8.773  0.2959 -0.1751 -0.4751
  870MOL0     C14767  10.406   3.866   8.797 -0.2444  0.0836  0.1557
  870MOL0     C14768  10.537   3.949   8.801 -0.5086  0.0787 -0.5714
  870MOL0     C14769  10.520   4.062   8.913  0.4118 -0.3905  0.2886
  870MOL0     C14770  10.657   4.122   8.945 -0.2064  0.2366 -0.2933
  870MOL0     C14771  10.720   4.169   8.819  0.1655 -1.1160  0.6945
  870MOL0     C14772  10.774   4.218   8.719  1.1719  0.9678  0.0470
  870MOL0     C14773  10.139   3.774   8.751  0.5987 -0.8683  1.0214
  870MOL0     C14774  10.003   3.744   8.768 -0.0143  0.4044  0.6261
  870MOL0     H14775   9.616   3.667   8.630 -0.4377 -2.1719 -1.0103
  870MOL0     H14776   9.347   3.640   8.622 -1.0778 -0.7827  2.2968
  870MOL0     H14777   9.141   3.344   8.818  2.4031  0.2383  0.5720
  870MOL0     H14778   9.227   3.404   8.670 -1.6942 -3.3089 -0.8162
  870MOL0     H14779   9.013   3.423   8.594  0.0234 -1.5947 -0.1838
  870MOL0     H14780   9.030   3.581   8.666 -1.7274  1.3452  2.0692
  870MOL0     H14781   8.929   3.479   8.890 -3.2517 -1.5533  0.9710
  870MOL0     H14782   8.902   3.335   8.786  1.7300 -0.6718  2.4133
  870MOL0     H14783   8.798   3.605   8.730  0.8500 -0.0927  0.1100
  870MOL0     H14784   8.729   3.451   8.673 -2.9054  0.4469  1.7498
  870MOL0     H14785   8.704   3.574   8.947 -2.8949 -0.0593  1.1522
  870MOL0     H14786   8.707   3.408   8.931  3.3843 -0.1742 -2.1656
  870MOL0     H14787   8.517   3.440   8.736  2.3973 -0.7888 -0.1739
  870MOL0     H14788   8.502   3.603   8.777 -2.5513 -1.4190 -2.1485
  870MOL0     H14789   8.409   3.372   8.932 -2.3387 -0.2666 -1.2078
  870MOL0     H14790   8.466   3.496   9.038  3.4348 -5.4193 -0.3116
  870MOL0     H14791   8.304   3.654   8.894 -2.1015  0.2423 -1.6662
  870MOL0     H14792   8.225   3.520   8.994  0.7935  2.9398  1.5614
  870MOL0     H14793   8.065   3.362   8.910 -2.3285  2.1154  0.4024
  870MOL0     H14794   7.916   3.225   8.696  1.5098  0.7306  3.4313
  870MOL0     H14795   7.917   3.329   8.543  2.9293  0.0575  0.4417
  870MOL0     H14796   7.816   3.517   8.666 -2.2284 -0.1752 -1.3961
  870MOL0     H14797   7.812   3.423   8.808  1.1183 -0.8868 -0.4919
  870MOL0     H14798   7.651   3.333   8.559 -0.6133 -0.5884  0.1767
  870MOL0     H14799   7.619   3.305   8.732 -2.1825  2.1361 -0.5565
  870MOL0     H14800   7.460   3.468   8.665  0.1125 -0.2808  2.7810
  870MOL0     H14801   7.590   3.562   8.592 -3.2209  1.2628 -0.7153
  870MOL0     H14802   7.503   3.633   9.049 -0.5065 -1.3888 -1.7490
  870MOL0     H14803   7.368   3.819   9.127  1.2757  2.8703 -0.0040
  870MOL0     H14804   6.908   4.075   8.886 -0.4313  1.6314 -2.6248
  870MOL0     H14805   6.771   4.275   8.970 -0.9397 -0.0911 -1.7438
  870MOL0     H14806   6.767   4.499   8.765 -3.8101  0.0524  1.1546
  870MOL0     H14807   6.854   4.648   8.794 -2.2746 -0.3932 -2.5696
  870MOL0     H14808   6.672   4.721   8.944 -2.0019  0.8253 -1.5177
  870MOL0     H14809   6.588   4.571   8.929  2.9912 -2.6514  1.1902
  870MOL0     H14810   6.566   4.613   8.682 -0.3458  0.4981 -1.5195
  870MOL0     H14811   6.683   4.747   8.695  1.2931 -1.9454  0.9257
  870MOL0     H14812   6.414   4.787   8.842 -3.2050 -0.0657 -2.1109
  870MOL0     H14813   6.522   4.893   8.749 -1.0242  0.4306 -0.3201
  870MOL0     H14814   6.341   4.668   8.637  1.0540  0.6307  1.3830
  870MOL0     H14815   6.432   4.797   8.547  0.7790 -1.9275 -0.8321
  870MOL0     H14816   6.313   4.961   8.682  1.0886 -0.2351  0.0433
  870MOL0     H14817   6.224   4.831   8.766 -1.3482  1.0679 -0.4873
  870MOL0     H14818   6.178   4.851   8.461 -2.0624 -0.4356 -1.5753
  870MOL0     H14819   6.104   4.750   8.595 -1.9409  1.1760 -1.7261
  870MOL0     H14820   6.001   4.948   8.694  0.0331 -2.1846 -0.1505
  870MOL0     H14821   5.965   4.947   8.523  1.2757 -0.0388 -1.1694
  870MOL0     H14822   7.096   4.530   8.889 -2.0614  1.4177  0.3192
  870MOL0     H14823   7.250   4.315   8.877  0.2738  0.1584  1.0942
  870MOL0     H14824   7.234   3.869   8.718 -1.3177  0.1903  0.9669
  870MOL0     H14825   7.390   3.688   8.644  3.0460 -0.2829 -0.0521
  870MOL0     H14826   9.355   3.522   9.031 -0.8206 -0.8188 -0.2437
  870MOL0     H14827   9.599   3.566   9.035 -3.3199  0.9478  1.0417
  870MOL0     H14828   9.847   4.029   8.797 -1.2752 -1.6260  0.7490
  870MOL0     H14829  10.089   4.108   8.781 -0.6333 -0.3453 -2.1476
  870MOL0     H14830  10.408   3.795   8.714  1.6856  0.6178 -0.2978
  870MOL0     H14831  10.384   3.808   8.888 -2.2599 -2.5202 -1.8281
  870MOL0     H14832  10.608   3.875   8.839  0.5331  1.3597  0.0675
  870MOL0     H14833  10.560   3.988   8.702  0.9673  1.9891  0.4628
  870MOL0     H14834  10.497   4.020   9.012  1.0133  1.8808  1.4552
  870MOL0     H14835  10.436   4.128   8.890  0.7729  0.0570  0.2504
  870MOL0     H14836  10.637   4.198   9.021  1.5669 -1.4065  1.9695
  870MOL0     H14837  10.723   4.057   9.003  0.0709 -0.9512 -1.8696
  870MOL0     H14838  10.832   4.247   8.634 -1.1313  1.1134 -1.5429
  870MOL0     H14839  10.214   3.696   8.749  2.3898  0.7093  2.5994
  870MOL0     H14840   9.981   3.638   8.758 -0.7360  0.5848  0.2755
  871MOL0     O14841   5.073   4.827   3.857 -1.3588 -1.0208  0.0842
  871MOL0     C14842   5.189   4.827   3.904 -0.0763 -0.6924 -0.5840
  871MOL0     O14843   5.215   4.879   4.037 -0.8524  0.1006  0.7515
  871MOL0     C14844   5.126   4.948   4.104 -0.3476 -0.4305 -0.0330
  871MOL0     C14845   5.180   5.056   4.164 -0.6527 -0.2428 -1.3613
  871MOL0     C14846   5.105   5.152   4.227 -0.0363 -0.6182  0.0780
  871MOL0     C14847   4.961   5.145   4.221 -0.4753  0.1467  0.6299
  871MOL0     O14848   4.879   5.250   4.266 -0.6389  0.1138  0.2596
  871MOL0     C14849   4.759   5.281   4.188 -0.2964 -0.1192  0.2350
  871MOL0     C14850   4.791   5.316   4.032  0.5931 -0.1736 -0.2257
  871MOL0     C14851   4.712   5.437   3.993 -0.2162 -0.7421  0.1960
  871MOL0     C14852   4.569   5.422   3.971  0.8248 -0.1848 -0.2616
  871MOL0     C14853   4.486   5.550   3.992 -0.1607 -0.0330  0.3851
  871MOL0     C14854   4.342   5.518   3.956  0.7141  0.4513  0.4827
  871MOL0     C14855   4.264   5.647   3.916 -1.0369 -0.3745 -0.2090
  871MOL0     C14856   4.139   5.632   3.822  0.2152  0.0384  1.0180
  871MOL0     N14857   4.028   5.555   3.883 -0.1354  0.7640  0.5916
  871MOL0     C14858   3.897   5.565   3.827 -0.3034 -0.5159 -0.8281
  871MOL0     C14859   3.838   5.461   3.874  0.2517 -0.5742 -0.0358
  871MOL0     C14860   3.688   5.417   3.841 -0.4634  0.9933 -0.1881
  871MOL0     C14861   3.598   5.423   3.964  0.0834  0.2776  1.0564
  871MOL0     C14862   3.469   5.346   3.950  1.0473  0.1618 -0.6322
  871MOL0     C14863   3.383   5.367   4.075 -1.0861 -0.5199 -0.6037
  871MOL0     O14864   3.260   5.309   4.064  0.8333  0.5898 -0.5034
  871MOL0     C14865   3.170   5.334   4.163 -0.4732 -0.3079 -0.1736
  871MOL0     C14866   3.044   5.283   4.141 -0.6421  0.0472  0.0706
  871MOL0     C14867   2.936   5.306   4.224 -0.1265  0.2503 -0.4856
  871MOL0     C14868   2.955   5.388   4.343 -0.1810  0.1813  0.1559
  871MOL0     C14869   2.845   5.420   4.441  0.6052 -0.3973  0.5401
  871MOL0     O14870   2.722   5.394   4.395  0.0515  0.0193 -0.2809
  871MOL0     C14871   2.613   5.413   4.476 -0.3506 -0.2314  0.2908
  871MOL0     C14872   2.491   5.394   4.407  1.3767 -0.0397  0.6340
  871MOL0     C14873   2.360   5.400   4.477  0.6266 -0.0802 -0.6639
  871MOL0     C14874   2.361   5.427   4.615 -0.4540  0.6599 -0.1694
  871MOL0     O14875   2.243   5.445   4.690 -0.5740 -0.3320 -0.6776
  871MOL0     C14876   2.113   5.411   4.627 -0.2822 -0.0248  0.2288
  871MOL0     C14877   2.007   5.435   4.736  0.8054 -0.3928 -0.0629
  871MOL0     C14878   1.868   5.431   4.660  0.4677  0.6938  0.7124
  871MOL0     C14879   1.741   5.427   4.747 -1.0727  0.0004  0.3698
  871MOL0     C14880   1.713   5.289   4.807  0.3051 -0.7672 -0.7128
  871MOL0     C14881   1.576   5.277   4.873 -0.8733 -0.1709 -0.4139
  871MOL0     C14882   1.524   5.388   4.953 -0.5473 -0.3096 -0.4320
  871MOL0     C14883   1.383   5.360   5.017 -0.1575 -0.5284  0.1159
  871MOL0    Cl14884   1.268   5.318   4.878 -0.4140  0.2705  0.4357
  871MOL0     C14885   2.488   5.438   4.684  1.0906  0.7807  0.0672
  871MOL0     C14886   2.607   5.432   4.615  0.7845  0.3588  0.9735
  871MOL0     O14887   2.884   5.475   4.542  0.5022  0.7318  0.1611
  871MOL0     C14888   3.088   5.419   4.368  0.6141 -0.6037 -0.2046
  871MOL0     C14889   3.193   5.404   4.280  0.0960  1.8540  0.1989
  871MOL0     N14890   3.920   5.388   3.958  0.8867  0.5090 -0.5506
  871MOL0     N14891   4.028   5.437   3.954 -0.7484  0.3877  0.7258
  871MOL0     C14892   4.905   5.031   4.164  0.2622  0.0666 -0.2018
  871MOL0     C14893   4.986   4.932   4.107 -0.3867  0.2355 -0.3158
  871MOL0     C14894   5.295   4.784   3.819 -0.4514 -0.4728 -0.4846
  871MOL0     C14895   5.273   4.785   3.681 -0.2719  0.1116 -0.7270
  871MOL0     C14896   5.364   4.722   3.598  0.1559  0.3810 -0.7744
  871MOL0     C14897   5.481   4.662   3.652 -0.6349 -0.2341  0.0282
  871MOL0     O14898   5.574   4.595   3.575  0.0901  0.2589 -0.3318
  871MOL0     C14899   5.549   4.582   3.434  0.8648 -0.1951 -0.4354
  871MOL0     C14900   5.659   4.493   3.390 -0.1293  0.7019 -0.2698
  871MOL0     C14901   5.807   4.533   3.427 -0.3712  0.1583 -0.6007
  871MOL0     C14902   5.918   4.442   3.367 -0.8945 -0.3384 -0.2059
  871MOL0     C14903   6.041   4.449   3.448  0.6500  1.0953  0.1134
  871MOL0     C14904   6.141   4.482   3.510 -0.2254 -0.9842  1.1603
  871MOL0     C14905   5.511   4.665   3.785  1.2975 -0.4250 -0.0722
  871MOL0     C14906   5.423   4.745   3.865 -0.2102  0.5781 -0.2479
  871MOL0     H14907   5.287   5.072   4.152 -0.3320 -1.7540 -0.7309
  871MOL0     H14908   5.153   5.242   4.262 -0.9124  0.6072 -1.6763
  871MOL0     H14909   4.708   5.368   4.230 -3.9122 -2.1836  0.5704
  871MOL0     H14910   4.691   5.195   4.189  3.3143 -3.3215 -1.6040
  871MOL0     H14911   4.773   5.225   3.976  0.0239 -0.7689  0.8818
  871MOL0     H14912   4.894   5.352   4.030  0.1326  1.7459  2.7840
  871MOL0     H14913   4.752   5.493   3.908 -2.6786  0.9814  0.0576
  871MOL0     H14914   4.717   5.509   4.075  0.4880 -1.0846  0.4588
  871MOL0     H14915   4.548   5.383   3.871 -0.9160  2.5051 -1.0525
  871MOL0     H14916   4.541   5.346   4.045  4.0189 -0.7525  0.5101
  871MOL0     H14917   4.530   5.627   3.929 -1.6229  1.5858  1.2622
  871MOL0     H14918   4.500   5.588   4.093  0.1303  1.2259 -0.1073
  871MOL0     H14919   4.296   5.477   4.047  1.2070  0.7551  0.8725
  871MOL0     H14920   4.340   5.454   3.868 -0.6225  0.4223  0.5088
  871MOL0     H14921   4.234   5.710   4.000 -1.4875  2.9942 -2.6531
  871MOL0     H14922   4.319   5.716   3.851  1.4297 -1.7655  0.3170
  871MOL0     H14923   4.172   5.588   3.728 -2.9178 -0.0883 -0.1262
  871MOL0     H14924   4.092   5.725   3.788  0.6425 -0.3841 -0.8342
  871MOL0     H14925   3.842   5.630   3.759 -0.9740 -0.2136 -0.0178
  871MOL0     H14926   3.686   5.315   3.802 -3.1624  1.0407 -0.3752
  871MOL0     H14927   3.644   5.481   3.763 -0.2947  0.0881 -1.0447
  871MOL0     H14928   3.570   5.528   3.977  0.0574  0.4233 -0.1352
  871MOL0     H14929   3.656   5.397   4.054  3.0795  2.8507  0.0265
  871MOL0     H14930   3.417   5.371   3.857  1.8545 -1.1786 -1.4718
  871MOL0     H14931   3.481   5.238   3.950  1.5833  0.1835  1.2122
  871MOL0     H14932   3.371   5.476   4.080  2.9606  0.0186  0.7479
  871MOL0     H14933   3.445   5.335   4.160  1.1492  0.7550 -1.6746
  871MOL0     H14934   3.034   5.240   4.042 -2.1469  4.0121 -1.7455
  871MOL0     H14935   2.837   5.271   4.200 -1.6008  2.8579  1.2985
  871MOL0     H14936   2.484   5.389   4.299 -2.8436 -1.9114  0.8069
  871MOL0     H14937   2.262   5.384   4.433  0.2512  2.5322 -0.9665
  871MOL0     H14938   2.113   5.312   4.581 -0.4188  0.6260 -1.2203
  871MOL0     H14939   2.103   5.498   4.562 -0.0814  1.3515  1.9445
  871MOL0     H14940   2.026   5.530   4.786 -3.0049 -0.8828  2.8485
  871MOL0     H14941   1.997   5.360   4.815 -1.8171  0.5260  0.5976
  871MOL0     H14942   1.866   5.344   4.595  0.1992  2.0030 -1.1071
  871MOL0     H14943   1.854   5.517   4.594  2.3731  0.6710  0.2045
  871MOL0     H14944   1.743   5.512   4.815  0.0473 -0.7693  1.3425
  871MOL0     H14945   1.655   5.436   4.680  0.4581 -0.3497 -1.7614
  871MOL0     H14946   1.786   5.277   4.888  2.4520  5.3376 -1.1988
  871MOL0     H14947   1.724   5.208   4.735 -3.8935 -0.7643 -1.6448
  871MOL0     H14948   1.573   5.187   4.936 -0.4398  1.2027  1.6590
  871MOL0     H14949   1.503   5.258   4.794 -1.6011 -0.1401  0.2372
  871MOL0     H14950   1.588   5.417   5.036 -0.4427 -0.4435 -0.4665
  871MOL0     H14951   1.514   5.477   4.890 -1.3017  0.2739  0.4785
  871MOL0     H14952   1.351   5.445   5.078 -0.0509  1.8885 -2.9325
  871MOL0     H14953   1.390   5.267   5.073  0.2114 -0.8164 -0.3970
  871MOL0     H14954   2.493   5.446   4.792  1.3405 -1.0753  0.2176
  871MOL0     H14955   2.691   5.441   4.683 -1.4153  4.5551  3.5278
  871MOL0     H14956   3.097   5.473   4.462 -0.2661  1.0627 -1.0219
  871MOL0     H14957   3.290   5.438   4.316 -0.7783  0.7569  4.0741
  871MOL0     H14958   4.798   5.020   4.148  0.6091 -2.3693 -1.4035
  871MOL0     H14959   4.944   4.838   4.073  0.1979 -0.4818  0.8758
  871MOL0     H14960   5.183   4.825   3.633 -2.1538 -2.3405  0.5641
  871MOL0     H14961   5.338   4.690   3.497  0.4489  0.2130 -0.7968
  871MOL0     H14962   5.568   4.679   3.388  0.4962  0.3034  0.4395
  871MOL0     H14963   5.452   4.539   3.409  0.7628  0.2425 -0.8015
  871MOL0     H14964   5.640   4.393   3.430  2.7738  0.3262  0.4663
  871MOL0     H14965   5.650   4.486   3.281 -2.2378  0.8800 -0.1328
  871MOL0     H14966   5.823   4.533   3.535  2.4077  0.9733 -0.9200
  871MOL0     H14967   5.822   4.640   3.407 -0.9041  0.3152 -0.1907
  871MOL0     H14968   5.890   4.336   3.372 -0.1235 -0.4757  2.9582
  871MOL0     H14969   5.944   4.472   3.265  0.0802 -1.0178 -0.1667
  871MOL0     H14970   6.228   4.518   3.561  0.9458 -0.7576 -0.8709
  871MOL0     H14971   5.593   4.613   3.832  1.0087  1.4277  2.7166
  871MOL0     H14972   5.455   4.782   3.962 -0.2978  3.6764 -1.2801
  872MOL0     O14973   2.504   4.293   0.338 -0.4475 -0.4014 -0.4648
  872MOL0     C14974   2.533   4.322   0.222  0.1269  0.7311  0.2063
  872MOL0     O14975   2.438   4.346   0.119 -0.1490 -0.0890 -0.6903
  872MOL0     C14976   2.303   4.338   0.162 -0.6454 -0.0022 -0.1847
  872MOL0     C14977   2.227   4.224   0.142 -0.0516 -0.9174 -0.4910
  872MOL0     C14978   2.083   4.235   0.143  0.4539 -0.5419 -0.2571
  872MOL0     C14979   2.025   4.362   0.186 -0.0927 -0.4728  0.9251
  872MOL0     O14980   1.882   4.379   0.187 -0.0408 -0.4535 -0.0338
  872MOL0     C14981   1.811   4.336   0.305 -0.3711 -0.8340  0.4236
  872MOL0     C14982   1.858   4.404   0.431  0.3438 -0.2483 -0.6777
  872MOL0     C14983   1.756   4.384   0.542  0.0914  0.0320  0.2343
  872MOL0     C14984   1.806   4.432   0.687  0.2704 -0.1316  0.4526
  872MOL0     C14985   1.689   4.491   0.770 -1.5098  0.1358 -0.3501
  872MOL0     C14986   1.720   4.477   0.926  1.1239 -0.1498  0.9101
  872MOL0     C14987   1.820   4.575   0.988  0.5556  0.7681 -0.1890
  872MOL0     C14988   1.921   4.507   1.071  0.0586  0.0319  0.0608
  872MOL0     N14989   2.047   4.579   1.034 -0.0608  0.7037 -0.4114
  872MOL0     C14990   2.163   4.528   0.980  0.2490 -0.1496 -0.4362
  872MOL0     C14991   2.251   4.626   0.988  0.2174  0.1931 -0.7632
  872MOL0     C14992   2.393   4.619   0.944  0.5476 -0.4001  0.4312
  872MOL0     C14993   2.496   4.670   1.043 -0.1616  0.9211  0.0582
  872MOL0     C14994   2.638   4.645   0.985 -0.2610 -0.3753  0.1343
  872MOL0     C14995   2.746   4.699   1.066 -0.3230 -0.1158 -0.0169
  872MOL0     O14996   2.787   4.606   1.169  0.6129 -0.5715  0.2372
  872MOL0     C14997   2.865   4.656   1.276  0.1290  0.3730  0.1565
  872MOL0     C14998   2.968   4.750   1.252 -0.7996  0.5115  0.0826
  872MOL0     C14999   3.058   4.789   1.344  0.2338  0.2404  0.3471
  872MOL0     C15000   3.058   4.735   1.479  0.2534  0.0443 -0.1780
  872MOL0     C15001   3.154   4.769   1.581 -0.1670  0.1172  0.3326
  872MOL0     O15002   3.157   4.718   1.711  0.6615 -0.4133  0.4309
  872MOL0     C15003   3.226   4.782   1.812 -0.2077  0.3410  1.0850
  872MOL0     C15004   3.316   4.695   1.879  0.6341  0.8368  0.4300
  872MOL0     C15005   3.406   4.741   1.970  0.6423 -0.7164  1.3002
  872MOL0     C15006   3.403   4.884   2.006 -0.1660  0.2543  0.5986
  872MOL0     O15007   3.491   4.939   2.093 -0.4135  0.2751  0.2478
  872MOL0     C15008   3.537   4.859   2.202 -0.3763 -0.0725 -1.0417
  872MOL0     C15009   3.623   4.952   2.292  0.1722 -0.2021 -0.1670
  872MOL0     C15010   3.758   4.994   2.244 -0.2725  0.5999  0.1506
  872MOL0     C15011   3.856   5.025   2.351 -0.6229  0.7134 -0.6007
  872MOL0     C15012   3.836   5.153   2.441 -1.3525  1.7024  0.3241
  872MOL0     C15013   3.968   5.221   2.488 -0.5692  0.1188 -0.1441
  872MOL0     C15014   4.035   5.274   2.363  0.4167 -0.4144 -0.3295
  872MOL0     C15015   4.166   5.349   2.412 -0.3654 -0.1282  0.0652
  872MOL0    Cl15016   4.231   5.441   2.281  0.0130 -0.4365 -0.2526
  872MOL0     C15017   3.316   4.966   1.936  0.3440 -0.6791  0.2494
  872MOL0     C15018   3.237   4.919   1.829  1.3594  0.9444 -0.3700
  872MOL0     O15019   3.220   4.863   1.542 -0.5850  0.2027 -0.7080
  872MOL0     C15020   2.961   4.633   1.507 -0.0933 -0.0746  0.4133
  872MOL0     C15021   2.869   4.600   1.403  0.2184  0.3424  0.2050
  872MOL0     N15022   2.199   4.736   1.053 -0.7366  0.5451 -0.3180
  872MOL0     N15023   2.077   4.704   1.081  0.1078  0.4637 -0.6103
  872MOL0     C15024   2.106   4.465   0.219 -0.8335  0.1973  0.2170
  872MOL0     C15025   2.243   4.458   0.198  0.7873  0.6412  1.1677
  872MOL0     C15026   2.684   4.333   0.192  0.1595  0.9193 -0.0501
  872MOL0     C15027   2.726   4.353   0.059  0.2601  0.4745 -0.0898
  872MOL0     C15028   2.855   4.343   0.036 -0.5704  0.1146 -0.9567
  872MOL0     C15029   2.955   4.314   0.134  0.3487 -0.2530  0.9568
  872MOL0     O15030   3.083   4.292   0.087 -0.2321 -0.2156 -0.8514
  872MOL0     C15031   3.165   4.196   0.151  1.0325  1.0532 -0.0561
  872MOL0     C15032   3.309   4.217   0.103  0.6975  0.4258 -0.5397
  872MOL0     C15033   3.334   4.180  -0.047 -0.8848  0.5482  0.4957
  872MOL0     C15034   3.487   4.199  -0.075 -0.3433  1.0165  0.8182
  872MOL0     C15035   3.516   4.170  -0.216 -0.2475  0.5518 -0.2632
  872MOL0     C15036   3.546   4.173  -0.334 -0.0714  0.8716  0.2488
  872MOL0     C15037   2.916   4.318   0.271  0.5614  1.3501 -0.5939
  872MOL0     C15038   2.779   4.317   0.300  0.3283  0.1422 -0.2484
  872MOL0     H15039   2.290   4.139   0.117  3.7132  1.7623 -0.9569
  872MOL0     H15040   2.020   4.158   0.098  0.2726  1.2810 -3.4199
  872MOL0     H15041   1.806   4.229   0.328  0.0377 -0.3203  3.2928
  872MOL0     H15042   1.709   4.375   0.295  1.0134  4.0475  2.6648
  872MOL0     H15043   1.857   4.511   0.408 -1.9513 -0.3375 -1.1944
  872MOL0     H15044   1.960   4.371   0.455  1.0152  2.8163  1.2009
  872MOL0     H15045   1.730   4.278   0.548 -2.2257  0.5006 -0.5038
  872MOL0     H15046   1.665   4.434   0.509  0.3936  0.0568 -0.5763
  872MOL0     H15047   1.831   4.337   0.734 -1.8122 -0.1764  1.5854
  872MOL0     H15048   1.897   4.494   0.688  0.7075 -0.5289 -3.2966
  872MOL0     H15049   1.594   4.443   0.747 -1.1345  0.0909 -1.8991
  872MOL0     H15050   1.670   4.595   0.742 -0.0384  0.0392 -1.8362
  872MOL0     H15051   1.749   4.374   0.948  0.9530  0.1896  2.8776
  872MOL0     H15052   1.627   4.485   0.982 -1.4075 -3.4863 -2.2927
  872MOL0     H15053   1.856   4.632   0.902  0.3379 -0.9890 -1.5112
  872MOL0     H15054   1.775   4.651   1.052 -0.2199 -2.1544  3.0470
  872MOL0     H15055   1.939   4.401   1.051  1.0571 -0.2688  2.2944
  872MOL0     H15056   1.888   4.517   1.175 -1.7960 -2.9581 -0.1469
  872MOL0     H15057   2.184   4.425   0.954 -0.9622 -0.4066 -0.4612
  872MOL0     H15058   2.405   4.694   0.865  3.8132 -0.8625  0.3233
  872MOL0     H15059   2.414   4.523   0.895  2.1361 -0.8374  1.8423
  872MOL0     H15060   2.494   4.603   1.129 -0.7368  0.6478 -0.1569
  872MOL0     H15061   2.483   4.770   1.085 -1.4302  1.2275 -0.9833
  872MOL0     H15062   2.660   4.538   0.976  0.7248 -0.2747  1.1162
  872MOL0     H15063   2.631   4.686   0.884 -1.7112 -1.9531 -0.4546
  872MOL0     H15064   2.704   4.795   1.098 -1.0001 -0.6141  0.6347
  872MOL0     H15065   2.816   4.736   0.991  0.3229  1.8046  1.4360
  872MOL0     H15066   2.987   4.782   1.150  2.4257  0.1921  0.4922
  872MOL0     H15067   3.113   4.876   1.310 -1.1961  0.4001 -1.7609
  872MOL0     H15068   3.318   4.589   1.857  2.1625  0.1583  3.4254
  872MOL0     H15069   3.488   4.676   2.000  1.1284 -1.2917 -1.0857
  872MOL0     H15070   3.604   4.779   2.169  3.8959  1.8069  2.0896
  872MOL0     H15071   3.453   4.821   2.261  1.1783 -0.4158  1.0788
  872MOL0     H15072   3.633   4.891   2.382 -1.2949  2.1143  1.6965
  872MOL0     H15073   3.566   5.043   2.311 -1.2462 -1.2782  0.9494
  872MOL0     H15074   3.745   5.082   2.180  0.5679 -1.0281 -2.4171
  872MOL0     H15075   3.802   4.914   2.183  2.1973  2.3844 -0.5585
  872MOL0     H15076   3.891   4.939   2.409  1.4620  0.2072 -2.4683
  872MOL0     H15077   3.947   5.048   2.294 -1.0321  3.0533 -0.3968
  872MOL0     H15078   3.775   5.124   2.528 -2.1030 -0.3449 -0.7973
  872MOL0     H15079   3.780   5.224   2.379 -1.9682  1.7260  0.8895
  872MOL0     H15080   4.037   5.166   2.552 -1.4635 -0.4295  0.3791
  872MOL0     H15081   3.930   5.304   2.548 -0.0834  0.6721 -0.5917
  872MOL0     H15082   4.081   5.198   2.299 -1.6111 -1.6922 -0.3414
  872MOL0     H15083   3.969   5.334   2.299  1.1974  2.2600  1.1818
  872MOL0     H15084   4.231   5.262   2.423 -2.8618 -2.5202 -2.3097
  872MOL0     H15085   4.148   5.415   2.498  2.4438  0.4820  0.2773
  872MOL0     H15086   3.315   5.073   1.952  0.4553 -0.4216 -1.2596
  872MOL0     H15087   3.168   4.982   1.774 -1.7127 -3.2077 -1.8161
  872MOL0     H15088   2.939   4.577   1.597 -2.1166  0.0836  0.0743
  872MOL0     H15089   2.798   4.527   1.439 -5.1322  3.6107 -2.4851
  872MOL0     H15090   2.057   4.561   0.219 -0.8280  0.3249 -3.2507
  872MOL0     H15091   2.299   4.551   0.204 -0.0435  1.2405  0.1095
  872MOL0     H15092   2.669   4.384  -0.027  0.1351  0.1941 -0.1095
  872MOL0     H15093   2.876   4.363  -0.069  0.6386  0.5084 -0.6475
  872MOL0     H15094   3.144   4.093   0.122 -1.5180  0.7786  2.2352
  872MOL0     H15095   3.145   4.196   0.259  1.1674 -0.0240 -0.0234
  872MOL0     H15096   3.315   4.323   0.130 -0.4781  1.1022 -2.7145
  872MOL0     H15097   3.386   4.173   0.168 -1.0081  0.5203  1.7080
  872MOL0     H15098   3.276   4.244  -0.114 -2.4868  1.2041  2.4347
  872MOL0     H15099   3.303   4.078  -0.071  0.6943  0.8054 -3.3964
  872MOL0     H15100   3.526   4.300  -0.062  1.3591  0.6762 -1.2301
  872MOL0     H15101   3.549   4.138  -0.008  0.9219 -0.6465 -1.7176
  872MOL0     H15102   3.558   4.171  -0.440  1.0561 -0.3156  0.3753
  872MOL0     H15103   2.973   4.305   0.362  0.5692 -1.4822 -0.8863
  872MOL0     H15104   2.743   4.319   0.402  2.3521 -0.9409  0.5411
  873MOL0     O15105   9.718   0.692   7.144 -0.3814 -0.7925 -0.4706
  873MOL0     C15106   9.765   0.614   7.068 -0.3026  0.0593  0.1566
  873MOL0     O15107   9.738   0.480   7.063  0.1947  0.2976  0.2312
  873MOL0     C15108   9.634   0.437   7.136 -0.2116 -0.6038 -1.2526
  873MOL0     C15109   9.647   0.363   7.252  0.1009 -0.1668 -0.3518
  873MOL0     C15110   9.524   0.326   7.324 -0.3827  0.1203 -0.0659
  873MOL0     C15111   9.392   0.345   7.275 -0.2579 -0.0688  0.2606
  873MOL0     O15112   9.284   0.295   7.349 -0.1583  0.0991 -0.5112
  873MOL0     C15113   9.168   0.381   7.326 -0.2094 -0.2955  0.4538
  873MOL0     C15114   9.066   0.321   7.417  0.0147 -0.2039  0.4866
  873MOL0     C15115   9.015   0.174   7.381  0.0507 -0.1462 -0.5867
  873MOL0     C15116   8.920   0.139   7.496  0.3902  0.8213  0.6027
  873MOL0     C15117   8.821   0.029   7.461  0.8075 -0.3795 -1.1983
  873MOL0     C15118   8.730  -0.008   7.580 -0.3986  0.3724  0.2046
  873MOL0     C15119   8.627  -0.119   7.535 -0.1485  0.4405  0.2148
  873MOL0     C15120   8.507  -0.123   7.615  0.8218 -0.2816 -0.6313
  873MOL0     N15121   8.532  -0.165   7.749  0.0847 -0.0431  0.5412
  873MOL0     C15122   8.547  -0.074   7.852  0.9856  0.0761  0.0480
  873MOL0     C15123   8.557  -0.154   7.969  0.4580  0.6343 -0.3587
  873MOL0     C15124   8.568  -0.099   8.114  0.3984  0.4888 -0.5473
  873MOL0     C15125   8.569  -0.202   8.225 -0.0476 -0.3518 -0.6215
  873MOL0     C15126   8.556  -0.141   8.370  0.3690 -0.3765 -0.5853
  873MOL0     C15127   8.419  -0.073   8.393  0.4229  0.3101  0.0226
  873MOL0     O15128   8.430  -0.043   8.532  0.0301  0.5541  0.1335
  873MOL0     C15129   8.346   0.057   8.584 -0.2272 -0.9628  0.9145
  873MOL0     C15130   8.336   0.057   8.716  0.3106  0.1452  0.1939
  873MOL0     C15131   8.256   0.154   8.782 -0.1355 -0.0328 -0.6724
  873MOL0     C15132   8.181   0.256   8.719 -0.7582  0.4419 -0.0344
  873MOL0     C15133   8.111   0.360   8.798 -0.0259 -0.2196  0.4514
  873MOL0     O15134   8.085   0.472   8.729 -0.5363  1.0291 -0.2507
  873MOL0     C15135   7.985   0.550   8.780 -0.5362 -0.2880  0.7623
  873MOL0     C15136   7.854   0.511   8.764 -0.7415  1.0367 -1.0236
  873MOL0     C15137   7.757   0.597   8.820  0.6592 -0.3677  0.1258
  873MOL0     C15138   7.784   0.717   8.896 -0.4008 -0.1721 -0.2185
  873MOL0     O15139   7.700   0.800   8.960 -0.1376  0.5117 -0.0938
  873MOL0     C15140   7.568   0.812   8.917 -0.2611  0.1805 -0.0854
  873MOL0     C15141   7.498   0.910   9.014 -0.8112  0.1107  0.7439
  873MOL0     C15142   7.582   1.046   9.017  0.6649 -0.7079 -0.5812
  873MOL0     C15143   7.592   1.105   8.874  0.1443 -1.1800 -0.2279
  873MOL0     C15144   7.651   1.242   8.887  0.0521 -0.2181  0.4743
  873MOL0     C15145   7.796   1.243   8.948 -0.1530  0.0777  0.2606
  873MOL0     C15146   7.814   1.275   9.090 -0.8300  0.0263 -0.2166
  873MOL0     C15147   7.950   1.227   9.150  0.0263  0.2286  1.1616
  873MOL0    Cl15148   8.099   1.292   9.076  0.0565  0.1158 -0.1171
  873MOL0     C15149   7.921   0.749   8.910 -0.6001 -0.2463  0.5347
  873MOL0     C15150   8.017   0.665   8.844  0.1504 -0.3671  0.0489
  873MOL0     O15151   8.082   0.329   8.919  0.3731  0.1970  0.0217
  873MOL0     C15152   8.200   0.260   8.575  0.1801  0.8211  0.0891
  873MOL0     C15153   8.273   0.158   8.507 -0.3416 -0.4889 -0.2167
  873MOL0     N15154   8.570  -0.285   7.916  0.9723  1.2622  0.0189
  873MOL0     N15155   8.552  -0.291   7.785  0.9271  0.2112  0.4907
  873MOL0     C15156   9.390   0.427   7.160  0.3944 -0.2476  0.1671
  873MOL0     C15157   9.505   0.475   7.096  1.4447  0.4723  0.3633
  873MOL0     C15158   9.888   0.653   7.005 -0.2428  0.1147 -0.4618
  873MOL0     C15159   9.938   0.583   6.896 -0.0019  0.8487 -0.5996
  873MOL0     C15160  10.068   0.611   6.849 -0.7183  0.7150  0.6232
  873MOL0     C15161  10.150   0.708   6.908  0.9987  0.0329  0.0305
  873MOL0     O15162  10.278   0.722   6.852 -1.0149  0.4881 -0.4308
  873MOL0     C15163  10.359   0.836   6.890  0.4469  0.3880 -0.3520
  873MOL0     C15164  10.490   0.828   6.803  0.1309 -0.3113 -0.3267
  873MOL0     C15165  10.597   0.744   6.868  0.1594  0.0255 -0.3174
  873MOL0     C15166  10.717   0.718   6.777 -0.1263 -0.3223  0.3121
  873MOL0     C15167  10.804   0.608   6.838 -1.0397  0.0216 -0.4140
  873MOL0     C15168  10.876   0.515   6.879  0.4302 -1.1543 -0.2358
  873MOL0     C15169  10.104   0.780   7.022 -0.3640 -0.3685 -0.2944
  873MOL0     C15170   9.977   0.754   7.068  0.6465 -0.0000  0.2398
  873MOL0     H15171   9.745   0.340   7.291 -1.1904 -0.6371  2.9663
  873MOL0     H15172   9.540   0.272   7.417  1.3454  1.2815  0.3715
  873MOL0     H15173   9.131   0.358   7.226 -0.8526  1.7460  0.1700
  873MOL0     H15174   9.197   0.484   7.348  0.1789 -0.2879 -0.0885
  873MOL0     H15175   8.979   0.385   7.399 -0.3056 -0.6004  0.6154
  873MOL0     H15176   9.097   0.311   7.522  0.1441  0.2099  0.4920
  873MOL0     H15177   9.108   0.117   7.373  1.0436  1.2031  0.6956
  873MOL0     H15178   8.961   0.157   7.287 -0.8260 -0.4736 -0.0295
  873MOL0     H15179   8.981   0.100   7.578  0.2014 -1.4178 -0.2757
  873MOL0     H15180   8.849   0.220   7.516 -1.8270 -1.0581  0.6033
  873MOL0     H15181   8.875  -0.060   7.427  2.2804  0.4679 -1.1483
  873MOL0     H15182   8.754   0.056   7.378 -0.4340 -0.4225 -0.2413
  873MOL0     H15183   8.681   0.082   7.619  2.0670  1.4205  1.1123
  873MOL0     H15184   8.789  -0.055   7.660  2.0816 -2.5748 -3.0542
  873MOL0     H15185   8.594  -0.085   7.437 -0.3622  0.1159  0.1707
  873MOL0     H15186   8.667  -0.221   7.533 -1.1710 -0.0200  1.5980
  873MOL0     H15187   8.445  -0.200   7.568 -0.8851  1.1172 -0.7684
  873MOL0     H15188   8.449  -0.031   7.605 -1.2521 -1.4591 -0.1392
  873MOL0     H15189   8.541   0.034   7.860  1.4213  0.0689  0.5188
  873MOL0     H15190   8.471  -0.051   8.123 -0.7114 -1.7960  0.5045
  873MOL0     H15191   8.649  -0.027   8.127  1.5410 -0.8530  0.0453
  873MOL0     H15192   8.668  -0.250   8.222 -0.2705 -0.9855  1.2440
  873MOL0     H15193   8.492  -0.277   8.203 -1.3417  0.9262 -0.5578
  873MOL0     H15194   8.556  -0.217   8.448  1.6331 -0.1636 -0.3515
  873MOL0     H15195   8.634  -0.069   8.398  0.0339  0.0990 -0.8530
  873MOL0     H15196   8.347  -0.154   8.382  2.3688 -1.5719  0.4431
  873MOL0     H15197   8.393   0.008   8.324 -3.7126 -1.0619 -0.2981
  873MOL0     H15198   8.391  -0.019   8.771 -2.1405 -1.3209  0.7844
  873MOL0     H15199   8.259   0.141   8.890  1.3736 -1.0684 -0.8055
  873MOL0     H15200   7.825   0.421   8.709 -0.8382  0.0351  0.6049
  873MOL0     H15201   7.652   0.573   8.815  0.2623  1.4477 -0.8492
  873MOL0     H15202   7.523   0.713   8.928  1.4898 -0.3991  3.0845
  873MOL0     H15203   7.561   0.845   8.813 -0.6764 -0.9058 -0.4063
  873MOL0     H15204   7.496   0.877   9.119  0.5241  0.2284  0.8218
  873MOL0     H15205   7.401   0.933   8.968 -0.5042  2.4635  1.1302
  873MOL0     H15206   7.678   1.029   9.067 -1.3233  2.9975  5.7169
  873MOL0     H15207   7.537   1.122   9.082  2.9071  0.8995 -0.8036
  873MOL0     H15208   7.670   1.053   8.817  0.8096 -2.8817  2.0674
  873MOL0     H15209   7.495   1.103   8.822 -0.0339 -2.1223  0.1239
  873MOL0     H15210   7.579   1.303   8.940 -0.4879  0.3079 -0.8328
  873MOL0     H15211   7.670   1.266   8.782  1.3335 -0.3512  0.6536
  873MOL0     H15212   7.850   1.323   8.897  1.4721 -0.1346  1.5580
  873MOL0     H15213   7.844   1.146   8.933 -0.5262  0.0678 -0.9668
  873MOL0     H15214   7.794   1.382   9.103 -2.3355 -0.2361 -0.1206
  873MOL0     H15215   7.746   1.211   9.148 -1.8000  0.8396 -0.4162
  873MOL0     H15216   7.964   1.119   9.142  0.2112  0.1317  2.6038
  873MOL0     H15217   7.957   1.236   9.259 -0.2973  0.4532  1.1664
  873MOL0     H15218   7.958   0.836   8.963  0.7025  0.5872 -1.6256
  873MOL0     H15219   8.117   0.696   8.874 -1.0062  1.9151  1.8631
  873MOL0     H15220   8.153   0.351   8.539  1.7244  0.8944 -1.9484
  873MOL0     H15221   8.282   0.165   8.399 -0.6199 -0.8633 -0.2634
  873MOL0     H15222   9.289   0.448   7.125  1.2653 -0.0020 -2.4363
  873MOL0     H15223   9.499   0.544   7.012 -0.0308 -0.0690  0.0063
  873MOL0     H15224   9.890   0.493   6.858 -1.0829  1.1270  0.0744
  873MOL0     H15225  10.109   0.560   6.762  0.8304 -0.3149  1.9188
  873MOL0     H15226  10.383   0.837   6.997  1.7372 -0.7130 -0.6070
  873MOL0     H15227  10.307   0.931   6.874  1.0060  1.1624  1.9646
  873MOL0     H15228  10.456   0.790   6.706 -2.5746 -2.1729  1.1953
  873MOL0     H15229  10.529   0.929   6.787  0.9217 -0.3863  0.9742
  873MOL0     H15230  10.556   0.651   6.909 -0.4251  1.4464  2.6213
  873MOL0     H15231  10.633   0.794   6.959  0.4606 -0.8567  0.0634
  873MOL0     H15232  10.684   0.697   6.675  2.2913  2.6971 -1.2330
  873MOL0     H15233  10.780   0.806   6.765 -0.0641 -0.7408 -4.1078
  873MOL0     H15234  10.930   0.426   6.901  0.1520 -0.9612  1.3594
  873MOL0     H15235  10.170   0.836   7.087 -2.2985  0.5277  0.9694
  873MOL0     H15236   9.938   0.809   7.153  1.3142  1.5934 -0.4349
  874MOL0     O15237   7.126   5.974   1.415  0.2562  0.3484  0.2596
  874MOL0     C15238   7.081   5.894   1.331  0.7869 -0.6465  0.3713
  874MOL0     O15239   6.959   5.895   1.269 -0.1689  0.0157  0.2360
  874MOL0     C15240   6.879   6.001   1.302  0.5297 -0.0009 -0.0799
  874MOL0     C15241   6.899   6.128   1.245 -0.6551  0.0717 -0.0502
  874MOL0     C15242   6.807   6.232   1.261  0.2282 -0.4720 -0.4760
  874MOL0     C15243   6.698   6.207   1.346 -0.4761  0.6136 -0.2838
  874MOL0     O15244   6.606   6.305   1.370  0.3004 -0.4773 -0.5255
  874MOL0     C15245   6.471   6.292   1.313  0.4194 -0.0130  0.1970
  874MOL0     C15246   6.441   6.377   1.187 -0.0680 -0.2411 -0.0027
  874MOL0     C15247   6.297   6.349   1.141  0.6304 -0.6407  0.6125
  874MOL0     C15248   6.255   6.427   1.012  0.1108  0.2970 -0.1451
  874MOL0     C15249   6.111   6.393   0.989 -0.1005  0.4863  0.0141
  874MOL0     C15250   6.007   6.445   1.093  0.6325 -0.4008  0.8525
  874MOL0     C15251   5.860   6.392   1.078  0.5497 -0.0192  0.5368
  874MOL0     C15252   5.849   6.245   1.093  0.2055  0.1160  0.0877
  874MOL0     N15253   5.730   6.191   1.028 -0.0482 -0.4147  0.2553
  874MOL0     C15254   5.604   6.221   1.067  0.1484 -0.3441  0.8870
  874MOL0     C15255   5.529   6.145   0.979  0.0185  0.5770 -0.6932
  874MOL0     C15256   5.374   6.145   0.954 -0.2763 -0.3608  0.2533
  874MOL0     C15257   5.296   6.050   1.055  0.0873 -0.6314  0.0014
  874MOL0     C15258   5.305   5.901   1.026 -0.0284  0.4385 -0.7613
  874MOL0     C15259   5.199   5.804   1.085 -1.1706 -0.2087  0.2599
  874MOL0     O15260   5.092   5.782   0.998  0.5365 -0.2017 -0.1421
  874MOL0     C15261   5.022   5.669   1.019 -0.0411  0.6465 -0.9295
  874MOL0     C15262   4.898   5.672   1.091 -0.3130  0.3489  0.2821
  874MOL0     C15263   4.815   5.564   1.112 -0.6720 -0.7381  1.0937
  874MOL0     C15264   4.862   5.438   1.055  0.6240  0.6707  0.4777
  874MOL0     C15265   4.785   5.314   1.093  0.9650 -0.6604  0.2913
  874MOL0     O15266   4.840   5.200   1.069  0.3705 -0.0151 -0.8014
  874MOL0     C15267   4.766   5.088   1.098  0.4578 -0.0092 -0.3695
  874MOL0     C15268   4.621   5.073   1.076 -0.2947 -0.3366 -0.1627
  874MOL0     C15269   4.564   4.948   1.088  0.2264  0.7920 -0.0196
  874MOL0     C15270   4.641   4.831   1.118 -0.2085 -0.5928  0.1789
  874MOL0     O15271   4.566   4.711   1.114 -0.4289  0.6291  0.8820
  874MOL0     C15272   4.637   4.583   1.135 -0.3514 -0.1504  0.4608
  874MOL0     C15273   4.524   4.486   1.193 -0.2593 -0.0007 -0.2303
  874MOL0     C15274   4.385   4.513   1.144  0.1319 -0.6348 -0.1193
  874MOL0     C15275   4.278   4.399   1.166 -0.5169  0.2142 -0.0690
  874MOL0     C15276   4.164   4.391   1.066 -0.3282  0.7264  0.0223
  874MOL0     C15277   4.091   4.523   1.073 -0.3497 -0.2727  0.1303
  874MOL0     C15278   3.961   4.542   0.985 -0.6775 -0.5582 -0.7769
  874MOL0     C15279   3.877   4.658   1.042  0.8151  1.0738 -0.8626
  874MOL0    Cl15280   3.783   4.581   1.180  0.4985 -0.0497 -0.2982
  874MOL0     C15281   4.784   4.843   1.143 -0.5429 -1.0710 -0.0704
  874MOL0     C15282   4.843   4.970   1.113 -0.2409  0.3007  0.0605
  874MOL0     O15283   4.677   5.338   1.148 -0.3676 -0.4689 -0.0133
  874MOL0     C15284   4.992   5.430   0.991  0.9756 -0.4599 -0.6725
  874MOL0     C15285   5.075   5.541   0.973  0.7567  0.0510 -0.2016
  874MOL0     N15286   5.605   6.070   0.900 -0.8953 -0.5448 -0.2547
  874MOL0     N15287   5.725   6.106   0.933 -0.3469  0.6548 -0.0218
  874MOL0     C15288   6.678   6.082   1.409  0.4071  0.1035  0.3506
  874MOL0     C15289   6.769   5.986   1.394  0.0563  1.1061  0.3993
  874MOL0     C15290   7.164   5.775   1.311 -0.0013  0.9180  0.5148
  874MOL0     C15291   7.127   5.681   1.214  0.1308 -0.5599  0.0217
  874MOL0     C15292   7.198   5.562   1.199 -0.6909  0.3263 -0.3635
  874MOL0     C15293   7.312   5.535   1.284  0.1950  0.6046  0.0745
  874MOL0     O15294   7.390   5.419   1.262 -0.4325 -0.0215 -0.8043
  874MOL0     C15295   7.354   5.331   1.153  0.5337 -0.9496 -0.1658
  874MOL0     C15296   7.461   5.213   1.169  0.4219  1.1223 -0.1954
  874MOL0     C15297   7.511   5.172   1.029  0.3781 -0.2520 -0.2359
  874MOL0     C15298   7.628   5.077   1.029  0.3180  0.2053 -1.1217
  874MOL0     C15299   7.642   4.977   1.143  0.1949 -1.0709  0.3804
  874MOL0     C15300   7.641   4.894   1.235  0.1283 -0.4246  0.8000
  874MOL0     C15301   7.350   5.628   1.372  0.5388 -0.2007 -0.0958
  874MOL0     C15302   7.271   5.748   1.390 -0.6847  0.5714  0.1755
  874MOL0     H15303   6.989   6.130   1.184 -0.1274 -0.7943  0.6583
  874MOL0     H15304   6.821   6.329   1.215 -1.8621 -0.2068 -0.6430
  874MOL0     H15305   6.409   6.332   1.394  1.4982 -0.2129  1.1535
  874MOL0     H15306   6.445   6.187   1.297 -1.9447 -0.0627  3.3394
  874MOL0     H15307   6.515   6.357   1.109  1.7471 -0.1392  1.6049
  874MOL0     H15308   6.444   6.480   1.225 -3.0276 -0.4024  0.8864
  874MOL0     H15309   6.231   6.369   1.226 -1.6795  0.0345 -1.2405
  874MOL0     H15310   6.288   6.244   1.111  0.8369 -0.2034 -1.1087
  874MOL0     H15311   6.283   6.532   1.027 -0.7560  0.6130 -0.6340
  874MOL0     H15312   6.315   6.391   0.928 -0.6606 -2.6165  0.4415
  874MOL0     H15313   6.094   6.288   0.965 -2.3245  0.8368 -0.1959
  874MOL0     H15314   6.080   6.442   0.896 -1.9698 -0.9200 -0.1542
  874MOL0     H15315   6.000   6.553   1.081  2.6700 -0.1945  1.0573
  874MOL0     H15316   6.041   6.421   1.195  1.9426 -0.9495  0.3174
  874MOL0     H15317   5.808   6.434   1.165  0.6532 -0.1680  0.6713
  874MOL0     H15318   5.809   6.421   0.986 -0.6018  0.3247  1.2586
  874MOL0     H15319   5.830   6.225   1.199 -0.9237  1.3967  0.1504
  874MOL0     H15320   5.944   6.196   1.068 -0.3610 -1.3166  0.6135
  874MOL0     H15321   5.574   6.289   1.146 -0.3792 -0.3039  0.6530
  874MOL0     H15322   5.366   6.113   0.850 -1.7822  1.9692 -0.3948
  874MOL0     H15323   5.356   6.251   0.974  2.2149 -0.1968  2.2180
  874MOL0     H15324   5.192   6.083   1.043  0.6132  0.8734 -0.7858
  874MOL0     H15325   5.321   6.073   1.159 -3.8268  0.6458  0.8035
  874MOL0     H15326   5.324   5.875   0.922 -1.5357 -1.5897 -0.5931
  874MOL0     H15327   5.395   5.862   1.076  0.9111  1.6994 -1.4142
  874MOL0     H15328   5.158   5.862   1.168 -1.0204 -2.4044  1.9621
  874MOL0     H15329   5.233   5.711   1.131 -3.4392 -0.9219  0.5822
  874MOL0     H15330   4.882   5.774   1.123 -2.0902  0.3104 -0.3636
  874MOL0     H15331   4.720   5.591   1.158 -0.6681 -1.6123  1.6463
  874MOL0     H15332   4.551   5.151   1.047 -1.7699 -0.5598  2.4969
  874MOL0     H15333   4.459   4.937   1.063  0.9061 -1.7200 -2.2867
  874MOL0     H15334   4.718   4.592   1.208  0.8131  1.4671 -0.9423
  874MOL0     H15335   4.683   4.540   1.045  0.9278  0.4122  0.8147
  874MOL0     H15336   4.517   4.506   1.300  0.7356 -0.9937  0.0327
  874MOL0     H15337   4.560   4.384   1.179 -3.1018 -0.9311 -1.3588
  874MOL0     H15338   4.376   4.523   1.036 -1.9959 -0.9776 -0.0197
  874MOL0     H15339   4.346   4.607   1.183  0.1503 -0.5464 -0.3141
  874MOL0     H15340   4.321   4.298   1.167 -0.7134  0.0196 -2.6701
  874MOL0     H15341   4.237   4.422   1.264  3.5849  4.2426  1.0841
  874MOL0     H15342   4.090   4.314   1.091 -0.7338  1.9800  3.1103
  874MOL0     H15343   4.203   4.373   0.966 -1.0518  0.1325 -0.1581
  874MOL0     H15344   4.159   4.608   1.071  2.0106 -1.8572 -5.3143
  874MOL0     H15345   4.056   4.540   1.175  3.1090  0.5105  1.2993
  874MOL0     H15346   3.992   4.573   0.884 -0.9618 -1.2151 -1.0658
  874MOL0     H15347   3.911   4.445   0.981  2.8407 -2.5390 -1.1263
  874MOL0     H15348   3.804   4.677   0.962  1.4548  0.8008 -1.5261
  874MOL0     H15349   3.948   4.736   1.067  2.9302 -1.6851  2.6256
  874MOL0     H15350   4.852   4.762   1.165  1.8245  0.4324 -1.4704
  874MOL0     H15351   4.951   4.978   1.121 -0.3864  0.4542  3.0624
  874MOL0     H15352   5.021   5.333   0.950 -5.0790 -2.3299 -1.5279
  874MOL0     H15353   5.175   5.540   0.932  1.2046  2.4584  0.6613
  874MOL0     H15354   6.593   6.065   1.473  1.6498 -0.6674  1.8685
  874MOL0     H15355   6.757   5.887   1.435  0.2090  1.5911  1.6529
  874MOL0     H15356   7.040   5.700   1.153  0.3944  1.4126  0.1726
  874MOL0     H15357   7.159   5.495   1.123  0.4138  0.9904 -1.5460
  874MOL0     H15358   7.362   5.380   1.056 -0.5338 -0.0513  0.1749
  874MOL0     H15359   7.253   5.289   1.149 -0.6481  1.7326 -0.4883
  874MOL0     H15360   7.549   5.236   1.229  0.5840 -1.4575  0.7047
  874MOL0     H15361   7.417   5.125   1.218 -0.3915  1.6672  0.0613
  874MOL0     H15362   7.536   5.265   0.978 -2.5133  0.3147 -0.8370
  874MOL0     H15363   7.422   5.134   0.977  0.9429  0.9090 -2.1840
  874MOL0     H15364   7.618   5.015   0.939  1.8764 -1.6800 -0.0632
  874MOL0     H15365   7.713   5.143   1.010 -1.1460  2.6854  0.4334
  874MOL0     H15366   7.628   4.820   1.311  0.3356 -0.2330  1.0208
  874MOL0     H15367   7.433   5.601   1.437 -2.7562 -3.5193  3.1830
  874MOL0     H15368   7.299   5.817   1.470  0.4679 -0.2640  0.5098
  875MOL0     O15369   1.084   2.104   0.769  0.3352 -0.1177 -0.2480
  875MOL0     C15370   1.093   2.101   0.893  0.2447 -0.0468 -0.0177
  875MOL0     O15371   1.002   2.040   0.984  0.5126 -0.4912  0.4618
  875MOL0     C15372   0.892   1.976   0.944  0.4624 -0.3538 -0.1941
  875MOL0     C15373   0.817   2.022   0.835  0.6967  0.3786  0.2943
  875MOL0     C15374   0.688   1.977   0.809 -0.4030  0.6833  0.0332
  875MOL0     C15375   0.626   1.877   0.888  0.2973  0.5283  0.2496
  875MOL0     O15376   0.515   1.797   0.857 -1.0795 -0.3589  0.1532
  875MOL0     C15377   0.456   1.834   0.727 -1.2291 -0.5767  0.1568
  875MOL0     C15378   0.336   1.750   0.680 -0.1209  0.1401  0.0598
  875MOL0     C15379   0.214   1.765   0.781 -0.2352 -0.2648 -0.1287
  875MOL0     C15380   0.098   1.665   0.772  0.3696  0.5644 -0.1881
  875MOL0     C15381  -0.015   1.686   0.870 -0.5097  0.2535  0.5861
  875MOL0     C15382  -0.106   1.567   0.876  0.1500  0.8767 -0.2840
  875MOL0     C15383  -0.214   1.579   0.976 -0.2437 -0.2732 -0.2327
  875MOL0     C15384  -0.313   1.472   0.958  0.9258  0.8011  1.0214
  875MOL0     N15385  -0.408   1.469   1.078 -0.0731  0.2743 -0.6034
  875MOL0     C15386  -0.526   1.541   1.079  0.6138  0.1175 -0.1231
  875MOL0     C15387  -0.584   1.503   1.187  0.8674  0.8051 -0.0571
  875MOL0     C15388  -0.723   1.552   1.227  0.1100  0.1261 -0.1667
  875MOL0     C15389  -0.819   1.439   1.261  0.3542 -0.2964 -0.6241
  875MOL0     C15390  -0.783   1.377   1.402  0.1329  0.8423  1.2556
  875MOL0     C15391  -0.902   1.319   1.475  0.5491  0.4129  0.3481
  875MOL0     O15392  -1.012   1.421   1.469  0.3875  0.3972 -0.3215
  875MOL0     C15393  -1.127   1.398   1.541  1.0539 -0.5991  0.2786
  875MOL0     C15394  -1.231   1.476   1.480  0.2401 -0.0376 -0.2592
  875MOL0     C15395  -1.353   1.470   1.531  1.0324  0.4653 -0.5055
  875MOL0     C15396  -1.379   1.379   1.633  0.2457  0.2337 -0.9182
  875MOL0     C15397  -1.514   1.380   1.702  0.1465 -0.0143  0.2199
  875MOL0     O15398  -1.605   1.476   1.657 -0.0543  0.0409 -0.8546
  875MOL0     C15399  -1.733   1.463   1.699  1.0599 -1.0360  0.7592
  875MOL0     C15400  -1.807   1.342   1.685 -0.4253 -0.6798  0.1366
  875MOL0     C15401  -1.950   1.336   1.728 -1.0709 -0.0628  0.0240
  875MOL0     C15402  -2.007   1.451   1.784 -0.9811 -0.0148  0.0317
  875MOL0     O15403  -2.131   1.466   1.838  0.3900 -0.4121  0.0903
  875MOL0     C15404  -2.215   1.344   1.832 -0.4858 -0.9492  0.0027
  875MOL0     C15405  -2.326   1.364   1.929  0.1057 -1.2236 -0.0083
  875MOL0     C15406  -2.435   1.262   1.943 -0.4447  0.1049 -0.2083
  875MOL0     C15407  -2.527   1.276   2.065  0.3047  0.2722 -0.2023
  875MOL0     C15408  -2.616   1.156   2.088  0.0041 -0.0091  0.4890
  875MOL0     C15409  -2.718   1.178   2.199 -0.3736  1.2052 -0.2957
  875MOL0     C15410  -2.800   1.042   2.223  0.5508  0.7830 -0.1040
  875MOL0     C15411  -2.938   1.061   2.298 -0.3445 -0.0373 -0.0678
  875MOL0    Cl15412  -2.913   1.117   2.464 -0.1488 -0.4901  0.0563
  875MOL0     C15413  -1.930   1.562   1.798 -0.0466 -0.3039  0.2989
  875MOL0     C15414  -1.797   1.576   1.752 -0.5181 -0.3033  0.0472
  875MOL0     O15415  -1.531   1.316   1.807 -0.2155  0.2082 -0.0115
  875MOL0     C15416  -1.282   1.294   1.684 -0.0371 -0.4647 -0.7013
  875MOL0     C15417  -1.156   1.298   1.627 -0.5008  0.2917  0.1913
  875MOL0     N15418  -0.490   1.437   1.269  0.1683 -0.0429  0.3548
  875MOL0     N15419  -0.378   1.420   1.202 -0.1110 -0.1650  0.1756
  875MOL0     C15420   0.697   1.831   1.003 -0.3487  0.3956  0.1313
  875MOL0     C15421   0.825   1.880   1.029 -1.2537 -0.3472  0.6964
  875MOL0     C15422   1.204   2.176   0.959 -0.5663 -0.3795 -1.6023
  875MOL0     C15423   1.249   2.153   1.094 -0.2218 -0.5003  0.2196
  875MOL0     C15424   1.370   2.187   1.146  0.3774  0.4250 -0.2290
  875MOL0     C15425   1.455   2.264   1.076 -0.0838  0.0038 -0.0576
  875MOL0     O15426   1.564   2.321   1.138  0.2907  0.6903 -0.2247
  875MOL0     C15427   1.667   2.385   1.054 -0.0423 -0.2489  0.0352
  875MOL0     C15428   1.790   2.380   1.138 -0.4348 -0.4991  0.1776
  875MOL0     C15429   1.903   2.458   1.061  0.1612 -0.0126  0.7177
  875MOL0     C15430   1.995   2.359   0.999  0.0404 -0.2547 -0.0066
  875MOL0     C15431   2.111   2.424   0.937 -0.3557  0.8624 -0.4128
  875MOL0     C15432   2.217   2.460   0.877  0.1754 -0.0900 -0.5734
  875MOL0     C15433   1.417   2.297   0.943 -0.4441 -0.7409  0.3238
  875MOL0     C15434   1.292   2.254   0.887  0.0120 -0.2762 -0.4455
  875MOL0     H15435   0.849   2.094   0.760  1.5077 -3.0372 -2.9417
  875MOL0     H15436   0.644   2.032   0.726  1.7250  1.7692 -0.4471
  875MOL0     H15437   0.533   1.830   0.649  0.9099 -0.3241  2.1527
  875MOL0     H15438   0.413   1.934   0.737  1.5416  0.8528 -1.3009
  875MOL0     H15439   0.355   1.643   0.661 -1.2666  0.4651 -3.8741
  875MOL0     H15440   0.308   1.789   0.581  1.8264 -1.9403 -1.4330
  875MOL0     H15441   0.184   1.870   0.785  0.3263 -0.1161  0.3442
  875MOL0     H15442   0.259   1.745   0.879  1.5138 -2.8555 -1.3324
  875MOL0     H15443   0.067   1.662   0.667  3.7244  0.2856 -1.3023
  875MOL0     H15444   0.145   1.569   0.797  0.1415  0.2653 -0.9036
  875MOL0     H15445  -0.071   1.769   0.825 -3.0196 -2.4077 -1.5921
  875MOL0     H15446   0.022   1.718   0.968  2.1768  3.8045 -1.3377
  875MOL0     H15447  -0.043   1.485   0.912  0.3887  0.4834 -1.5534
  875MOL0     H15448  -0.144   1.536   0.778 -2.2424 -2.9071  1.5985
  875MOL0     H15449  -0.164   1.570   1.074  2.5047  1.8183 -1.3253
  875MOL0     H15450  -0.267   1.674   0.983 -1.5477 -1.1075  3.2386
  875MOL0     H15451  -0.254   1.380   0.959  1.1144  0.9239  2.1048
  875MOL0     H15452  -0.378   1.486   0.871 -5.1509 -2.2096  4.3822
  875MOL0     H15453  -0.564   1.606   1.001 -1.6510  1.0569  1.6442
  875MOL0     H15454  -0.761   1.616   1.146 -4.8651 -0.5637  1.2567
  875MOL0     H15455  -0.711   1.609   1.319 -1.9075  0.5625 -0.1292
  875MOL0     H15456  -0.816   1.365   1.181  1.6722 -1.5732  0.5718
  875MOL0     H15457  -0.920   1.482   1.264  1.3162  2.1252 -0.2705
  875MOL0     H15458  -0.702   1.303   1.401 -0.1929  0.4800 -0.0600
  875MOL0     H15459  -0.737   1.451   1.469  0.3046 -1.3418  3.7190
  875MOL0     H15460  -0.878   1.303   1.580 -2.2783 -1.5511  0.8249
  875MOL0     H15461  -0.920   1.222   1.426  0.7494  1.5656 -2.1830
  875MOL0     H15462  -1.211   1.548   1.402  1.3198 -1.6237 -1.5327
  875MOL0     H15463  -1.431   1.522   1.476  0.4768 -2.4956 -2.7953
  875MOL0     H15464  -1.766   1.265   1.621 -1.7847  0.4238 -2.2067
  875MOL0     H15465  -2.008   1.245   1.717  1.0396 -1.7317  1.8398
  875MOL0     H15466  -2.175   1.254   1.880 -1.8298 -1.6641 -0.1740
  875MOL0     H15467  -2.259   1.318   1.735  0.7449  0.2985 -0.9382
  875MOL0     H15468  -2.375   1.458   1.902 -1.4564 -2.5940 -2.2926
  875MOL0     H15469  -2.286   1.371   2.031  1.5348  1.5143 -0.6598
  875MOL0     H15470  -2.396   1.160   1.935 -1.0878 -0.2248  0.7289
  875MOL0     H15471  -2.492   1.278   1.851 -1.6241  0.8820  0.6298
  875MOL0     H15472  -2.455   1.279   2.147  2.3511  2.0467 -1.9271
  875MOL0     H15473  -2.580   1.371   2.056 -0.4433  0.2081  2.7395
  875MOL0     H15474  -2.548   1.073   2.110  0.1032  0.1241  0.6925
  875MOL0     H15475  -2.665   1.133   1.994 -0.3348  1.9652  0.1372
  875MOL0     H15476  -2.783   1.264   2.179  1.0570  1.8772 -2.3180
  875MOL0     H15477  -2.662   1.202   2.290 -2.4689  0.7257  1.2067
  875MOL0     H15478  -2.816   0.985   2.131 -0.2278  0.2775  0.3333
  875MOL0     H15479  -2.736   0.982   2.289 -2.2202 -1.3344  0.8820
  875MOL0     H15480  -2.992   0.966   2.294 -2.0378  0.8980 -0.7486
  875MOL0     H15481  -3.007   1.124   2.240 -0.6922 -1.2163 -0.9675
  875MOL0     H15482  -1.968   1.655   1.838 -1.7537 -0.7347 -0.2382
  875MOL0     H15483  -1.748   1.672   1.768 -4.3590  1.6443  1.2746
  875MOL0     H15484  -1.307   1.226   1.766 -5.3014  2.1768  0.3576
  875MOL0     H15485  -1.078   1.231   1.663 -1.4699 -0.9447  0.0859
  875MOL0     H15486   0.658   1.752   1.067 -0.1309  1.0674  1.1056
  875MOL0     H15487   0.886   1.848   1.113  1.6007  1.8439 -0.3515
  875MOL0     H15488   1.180   2.106   1.164  0.6820 -1.2891  0.6061
  875MOL0     H15489   1.388   2.174   1.252  0.5504  1.5437 -0.1121
  875MOL0     H15490   1.638   2.489   1.037  1.4120  0.0556 -0.7811
  875MOL0     H15491   1.690   2.335   0.959  3.0069  2.8403 -1.0808
  875MOL0     H15492   1.766   2.427   1.234 -2.6654 -0.4404 -0.3414
  875MOL0     H15493   1.819   2.276   1.153  2.7652  0.6334  3.6009
  875MOL0     H15494   1.957   2.518   1.134  2.4391  1.1270 -1.7285
  875MOL0     H15495   1.876   2.529   0.982  2.3816  1.9174  1.5837
  875MOL0     H15496   2.032   2.296   1.080 -0.6090  2.0866  2.2545
  875MOL0     H15497   1.928   2.306   0.931 -1.6509  0.3518  1.1311
  875MOL0     H15498   2.295   2.482   0.807 -0.0829 -0.8681 -1.1147
  875MOL0     H15499   1.488   2.350   0.881 -0.7789  0.2984  0.8059
  875MOL0     H15500   1.274   2.283   0.784 -0.6172  2.1640  0.2900
  876MOL0     O15501   3.349   4.198   0.613 -0.1303  0.0019 -0.0596
  876MOL0     C15502   3.405   4.119   0.692 -0.8861 -0.0919  0.6457
  876MOL0     O15503   3.540   4.105   0.704  1.2287 -0.6792 -0.2398
  876MOL0     C15504   3.637   4.161   0.622 -0.2071 -0.3658  0.0236
  876MOL0     C15505   3.652   4.301   0.609 -1.2389 -0.4723  0.0834
  876MOL0     C15506   3.756   4.346   0.530  0.3197  0.0490  0.6573
  876MOL0     C15507   3.845   4.259   0.469 -0.7654 -0.6213 -0.8196
  876MOL0     O15508   3.960   4.309   0.406  0.4608  0.0765  0.3809
  876MOL0     C15509   4.088   4.228   0.396  0.0598  0.2220 -0.7656
  876MOL0     C15510   4.204   4.330   0.381 -0.9006 -0.4419 -0.0221
  876MOL0     C15511   4.179   4.463   0.452  0.0645 -0.1741 -0.7986
  876MOL0     C15512   4.280   4.575   0.428 -0.9486 -0.1420 -0.3074
  876MOL0     C15513   4.335   4.592   0.279  0.1154  0.1910  0.5390
  876MOL0     C15514   4.423   4.712   0.259  1.0248 -0.1863 -0.2905
  876MOL0     C15515   4.495   4.718   0.122  0.0324  0.0670  0.3388
  876MOL0     C15516   4.548   4.857   0.106  0.6680 -0.1380 -0.0180
  876MOL0     N15517   4.647   4.872  -0.001  0.1318 -1.0372 -0.3488
  876MOL0     C15518   4.613   4.891  -0.132  0.4945 -0.4387  0.4327
  876MOL0     C15519   4.729   4.888  -0.205  0.5848 -0.1328  0.1486
  876MOL0     C15520   4.737   4.888  -0.351  1.3203  0.0041 -0.1432
  876MOL0     C15521   4.876   4.940  -0.405  0.0553 -0.0925  0.0718
  876MOL0     C15522   4.867   4.960  -0.564  0.0095  0.3792 -0.8330
  876MOL0     C15523   4.975   4.880  -0.629 -0.3898  0.7361 -0.0101
  876MOL0     O15524   5.103   4.952  -0.607 -0.3813 -0.1371  0.1588
  876MOL0     C15525   5.198   4.894  -0.685  0.1923 -0.0223 -0.5138
  876MOL0     C15526   5.284   4.803  -0.630  0.5439  0.4833  0.2778
  876MOL0     C15527   5.386   4.732  -0.705  0.7619 -0.8167 -0.2805
  876MOL0     C15528   5.406   4.766  -0.838 -0.0480  0.6207 -0.5775
  876MOL0     C15529   5.519   4.707  -0.911 -0.0192  1.1337 -0.5040
  876MOL0     O15530   5.535   4.755  -1.039 -0.1450 -0.1026 -0.9006
  876MOL0     C15531   5.637   4.730  -1.114 -0.4138  0.0701  0.2893
  876MOL0     C15532   5.694   4.605  -1.123 -0.1506 -0.2474  0.3364
  876MOL0     C15533   5.789   4.591  -1.215 -0.4164 -0.6506  0.0753
  876MOL0     C15534   5.837   4.700  -1.299  1.0376 -0.0792 -0.8368
  876MOL0     O15535   5.941   4.695  -1.383  0.5777  0.4633 -0.1219
  876MOL0     C15536   5.897   4.629  -1.505  0.5396 -0.6260 -0.1142
  876MOL0     C15537   6.006   4.642  -1.605 -0.5788 -0.0029 -0.1426
  876MOL0     C15538   6.009   4.781  -1.676 -0.2741 -0.4042  0.4921
  876MOL0     C15539   6.123   4.782  -1.778  0.0891  1.0912  0.0595
  876MOL0     C15540   6.132   4.915  -1.849 -0.1272  0.2451 -0.0439
  876MOL0     C15541   6.190   5.016  -1.751 -0.0265 -0.2575  0.1903
  876MOL0     C15542   6.342   5.008  -1.751  0.2825  0.2205  0.5829
  876MOL0     C15543   6.395   5.126  -1.657  0.2697  0.5344 -0.1512
  876MOL0    Cl15544   6.402   5.277  -1.748 -0.1050 -0.9298  0.4269
  876MOL0     C15545   5.775   4.823  -1.291  1.1095  0.6580 -0.2761
  876MOL0     C15546   5.673   4.842  -1.199 -0.2416  0.7980 -0.3332
  876MOL0     O15547   5.589   4.633  -0.847 -0.0108  0.2639  0.2779
  876MOL0     C15548   5.326   4.872  -0.888  0.1692  0.0290  0.3141
  876MOL0     C15549   5.222   4.928  -0.816  0.4032  0.3922  0.0529
  876MOL0     N15550   4.833   4.879  -0.111  0.3873  0.1384  0.2084
  876MOL0     N15551   4.783   4.874   0.007 -0.7925 -0.1319 -0.6048
  876MOL0     C15552   3.835   4.122   0.496  0.7116 -0.3076  0.2365
  876MOL0     C15553   3.732   4.075   0.571  0.7710 -0.4018  0.6094
  876MOL0     C15554   3.319   4.059   0.793  0.6768 -0.0667  0.1453
  876MOL0     C15555   3.208   4.131   0.826  0.3631 -0.5027 -0.8250
  876MOL0     C15556   3.125   4.078   0.925 -0.4861 -0.4667 -0.3088
  876MOL0     C15557   3.153   3.957   0.985 -0.1469  0.2330 -1.1328
  876MOL0     O15558   3.081   3.897   1.085  0.5372  0.4405  0.5162
  876MOL0     C15559   3.007   3.981   1.172 -0.9199  1.3438  0.2092
  876MOL0     C15560   3.103   4.061   1.266 -0.2589 -0.5517  0.1971
  876MOL0     C15561   2.999   4.159   1.341  0.0754  0.7106 -0.0447
  876MOL0     C15562   3.069   4.251   1.437 -0.5590 -0.0324 -1.1363
  876MOL0     C15563   3.066   4.207   1.571  0.1192  0.2538 -0.6662
  876MOL0     C15564   3.042   4.184   1.689  0.3706 -0.3155 -0.6772
  876MOL0     C15565   3.261   3.888   0.941 -0.0581  0.4894 -0.2801
  876MOL0     C15566   3.355   3.936   0.848  0.6760  0.5425 -0.0462
  876MOL0     H15567   3.578   4.364   0.658  0.3486  1.7379 -0.2286
  876MOL0     H15568   3.770   4.451   0.504  0.7458 -0.3196 -0.6724
  876MOL0     H15569   4.083   4.172   0.302 -0.8205 -1.1550  0.0600
  876MOL0     H15570   4.106   4.150   0.470 -0.4647  0.7971 -0.0102
  876MOL0     H15571   4.218   4.362   0.277 -3.0227  2.0601  0.3839
  876MOL0     H15572   4.293   4.275   0.415 -1.3991 -0.4293  1.3435
  876MOL0     H15573   4.178   4.450   0.560 -2.1074 -1.8065 -0.9486
  876MOL0     H15574   4.078   4.489   0.418 -0.8178 -0.0455  1.7670
  876MOL0     H15575   4.244   4.672   0.464  2.6951  1.5858 -0.8927
  876MOL0     H15576   4.365   4.558   0.494 -0.1278 -0.3931 -1.3993
  876MOL0     H15577   4.245   4.609   0.220  1.2025  1.5620 -0.8089
  876MOL0     H15578   4.383   4.498   0.251 -2.5092 -1.1399  0.1843
  876MOL0     H15579   4.498   4.727   0.337  1.0613 -0.4018 -0.2856
  876MOL0     H15580   4.358   4.798   0.280  0.3835 -0.9811  1.1574
  876MOL0     H15581   4.566   4.636   0.108 -1.2893 -0.8777 -1.1959
  876MOL0     H15582   4.424   4.701   0.041  0.0389  0.1882  0.3079
  876MOL0     H15583   4.590   4.887   0.203  0.6178  0.7474 -0.2617
  876MOL0     H15584   4.466   4.927   0.087  0.9720  0.8031  1.8710
  876MOL0     H15585   4.517   4.886  -0.183  1.1445  0.6936 -0.9969
  876MOL0     H15586   4.643   4.935  -0.383 -0.2780 -3.2308 -0.6178
  876MOL0     H15587   4.729   4.786  -0.389 -0.5808 -0.1932  0.6828
  876MOL0     H15588   4.954   4.869  -0.374 -0.6237 -1.2880 -0.8674
  876MOL0     H15589   4.900   5.035  -0.357 -0.7093  0.7600 -1.1884
  876MOL0     H15590   4.766   4.936  -0.597  0.0852  1.5199 -1.9511
  876MOL0     H15591   4.890   5.065  -0.582 -1.0599  0.3269 -2.6957
  876MOL0     H15592   4.963   4.871  -0.737 -1.4581  0.5718  0.1087
  876MOL0     H15593   4.978   4.780  -0.585 -1.8760  0.3847 -0.6622
  876MOL0     H15594   5.276   4.794  -0.522 -0.3758  0.6662  0.2360
  876MOL0     H15595   5.449   4.660  -0.655  0.9128 -0.2400  0.3613
  876MOL0     H15596   5.672   4.515  -1.067 -0.6935 -2.2116 -2.7990
  876MOL0     H15597   5.834   4.496  -1.239 -0.1800 -1.0535  2.0206
  876MOL0     H15598   5.796   4.660  -1.532  0.7820 -0.4752 -0.9031
  876MOL0     H15599   5.883   4.521  -1.497 -1.4247 -0.4405 -0.5622
  876MOL0     H15600   6.007   4.562  -1.680  2.8905 -1.2141  0.9855
  876MOL0     H15601   6.106   4.635  -1.560  0.3193 -0.0612 -2.0481
  876MOL0     H15602   6.006   4.853  -1.593  0.3018 -2.7548  2.6586
  876MOL0     H15603   5.920   4.789  -1.739  0.7860 -2.9457 -1.5036
  876MOL0     H15604   6.222   4.764  -1.734  1.2654  0.4515 -2.6285
  876MOL0     H15605   6.099   4.706  -1.852  0.8617  2.3160 -1.5113
  876MOL0     H15606   6.037   4.954  -1.887  0.6658  0.8614 -1.4601
  876MOL0     H15607   6.189   4.899  -1.941 -1.0688 -0.6921 -0.4817
  876MOL0     H15608   6.142   5.022  -1.653 -0.7897 -2.5699  0.0147
  876MOL0     H15609   6.179   5.115  -1.796 -0.8072 -0.7308 -0.6654
  876MOL0     H15610   6.378   4.912  -1.712 -1.1898 -1.0725 -1.0634
  876MOL0     H15611   6.375   5.002  -1.855 -1.4677  1.0753 -0.0472
  876MOL0     H15612   6.496   5.111  -1.616  0.3576 -1.7345 -1.0517
  876MOL0     H15613   6.316   5.141  -1.583 -0.0151  1.7682 -0.6786
  876MOL0     H15614   5.798   4.907  -1.356 -1.3871 -0.6657 -3.0766
  876MOL0     H15615   5.614   4.930  -1.178  2.6270  2.9189 -0.6324
  876MOL0     H15616   5.356   4.909  -0.985  1.4587  0.8436  0.9996
  876MOL0     H15617   5.167   5.015  -0.852 -1.4155 -0.9292 -0.5064
  876MOL0     H15618   3.913   4.050   0.469 -0.0611 -0.3261 -2.2403
  876MOL0     H15619   3.720   3.968   0.587 -1.8524 -0.2807 -0.1590
  876MOL0     H15620   3.186   4.226   0.778 -2.5731 -1.2757 -1.1913
  876MOL0     H15621   3.028   4.122   0.946 -0.2971  0.4543 -1.2658
  876MOL0     H15622   2.948   3.919   1.240  3.8293  0.0221  3.6111
  876MOL0     H15623   2.937   4.044   1.115  0.2718  2.9486  0.4531
  876MOL0     H15624   3.164   3.991   1.323  2.0110  0.9627 -0.2353
  876MOL0     H15625   3.184   4.108   1.210  1.0433 -0.4197  2.0948
  876MOL0     H15626   2.922   4.102   1.395 -0.6026  1.8865  0.2744
  876MOL0     H15627   2.934   4.223   1.281 -0.2665  0.6693  0.2771
  876MOL0     H15628   3.174   4.269   1.414 -0.5113 -1.3657 -2.0441
  876MOL0     H15629   3.016   4.347   1.429 -1.6694 -0.6171 -0.9384
  876MOL0     H15630   3.030   4.179   1.796  0.5932  4.2225 -0.2599
  876MOL0     H15631   3.286   3.797   0.993 -1.9990 -1.0336 -1.8431
  876MOL0     H15632   3.453   3.889   0.836 -0.1472 -0.8356 -1.8510
  877MOL0     O15633   6.480   1.751   2.934 -0.0935  0.1795 -0.2175
  877MOL0     C15634   6.564   1.798   3.008  0.4536 -0.0048 -1.0733
  877MOL0     O15635   6.568   1.789   3.149  0.0599 -0.0363  0.6251
  877MOL0     C15636   6.454   1.754   3.216 -0.1394  0.1227  0.2156
  877MOL0     C15637   6.457   1.656   3.319  0.3288 -0.1400  0.2066
  877MOL0     C15638   6.337   1.627   3.386  0.6522  0.1974  0.0499
  877MOL0     C15639   6.217   1.691   3.348  0.4674  0.3389 -0.5708
  877MOL0     O15640   6.091   1.660   3.404  0.2461 -0.3700 -0.3411
  877MOL0     C15641   6.033   1.524   3.385  0.4735  0.1932 -0.4758
  877MOL0     C15642   5.999   1.518   3.231 -0.0896  0.4006 -0.7513
  877MOL0     C15643   5.918   1.632   3.178 -0.0843  1.1766  0.0109
  877MOL0     C15644   5.860   1.600   3.034  0.3682  0.6941 -0.1755
  877MOL0     C15645   5.936   1.664   2.917 -0.1227 -0.0531 -1.0753
  877MOL0     C15646   5.863   1.652   2.779  0.7200  0.8531 -0.4099
  877MOL0     C15647   5.941   1.729   2.666  0.1865  0.4032 -0.8961
  877MOL0     C15648   5.873   1.726   2.526 -0.7291  0.8209 -0.2501
  877MOL0     N15649   5.741   1.788   2.511  0.2840 -0.0619 -0.3840
  877MOL0     C15650   5.713   1.911   2.452  0.6703  0.5521 -0.5725
  877MOL0     C15651   5.574   1.914   2.447  0.0684 -1.2617 -0.4651
  877MOL0     C15652   5.489   2.025   2.386  0.6642  0.0703 -0.8378
  877MOL0     C15653   5.420   1.986   2.255 -0.0396 -0.8055 -0.5814
  877MOL0     C15654   5.513   2.015   2.134 -0.0294 -0.2571 -0.0883
  877MOL0     C15655   5.449   1.992   1.989 -0.3347  0.1304  0.6735
  877MOL0     O15656   5.326   2.062   1.981  0.4384 -0.0881 -0.5755
  877MOL0     C15657   5.248   2.031   1.873  0.0425  0.1544 -0.1890
  877MOL0     C15658   5.112   2.065   1.891 -0.5882 -0.2284  0.5466
  877MOL0     C15659   5.025   2.036   1.785  0.7267 -0.7285  0.0737
  877MOL0     C15660   5.067   1.968   1.667 -0.1099  0.4215  1.4185
  877MOL0     C15661   4.953   1.932   1.560 -0.2254  0.0282 -0.5943
  877MOL0     O15662   4.822   1.964   1.590  0.6699 -0.5775 -0.7001
  877MOL0     C15663   4.726   1.921   1.507 -0.2632  0.4793 -0.6963
  877MOL0     C15664   4.691   2.010   1.414  1.2959  0.0531  1.1449
  877MOL0     C15665   4.596   1.964   1.311 -1.1053  0.2659  1.0024
  877MOL0     C15666   4.550   1.831   1.305 -0.0068 -0.8823 -0.5269
  877MOL0     O15667   4.457   1.804   1.212  0.7381 -0.6023 -0.2915
  877MOL0     C15668   4.409   1.673   1.197 -0.1947  0.5806  0.6742
  877MOL0     C15669   4.350   1.666   1.050 -0.5172  0.3926 -0.2925
  877MOL0     C15670   4.263   1.546   1.021 -1.4423 -0.4692 -1.0350
  877MOL0     C15671   4.189   1.547   0.890 -0.4570 -1.3718  0.0299
  877MOL0     C15672   4.082   1.444   0.872 -0.6690  1.6172 -0.2962
  877MOL0     C15673   4.132   1.299   0.846 -0.0169  0.6611 -0.2278
  877MOL0     C15674   4.240   1.278   0.739  0.0456  0.3139  0.3485
  877MOL0     C15675   4.199   1.180   0.629 -0.3277 -0.4802 -0.0999
  877MOL0    Cl15676   4.235   1.008   0.670 -0.2918 -0.0282 -0.0457
  877MOL0     C15677   4.574   1.748   1.416  0.3979 -0.0690  0.6542
  877MOL0     C15678   4.654   1.796   1.519 -0.7147  0.9244  0.3516
  877MOL0     O15679   4.992   1.860   1.469  0.1396  0.6349  0.1547
  877MOL0     C15680   5.204   1.937   1.651  0.7877  0.1876 -0.4891
  877MOL0     C15681   5.289   1.961   1.764 -0.2340 -0.2877  1.1777
  877MOL0     N15682   5.523   1.800   2.490 -0.1992  0.4273 -0.4338
  877MOL0     N15683   5.629   1.727   2.531  0.3035  0.2656  0.5484
  877MOL0     C15684   6.221   1.793   3.256  0.4098  0.9226  0.0411
  877MOL0     C15685   6.342   1.824   3.193  0.3108 -1.2344 -0.2667
  877MOL0     C15686   6.684   1.849   2.939 -0.2041 -0.0111 -0.8019
  877MOL0     C15687   6.796   1.877   3.019 -0.2969 -0.6100  0.0961
  877MOL0     C15688   6.915   1.929   2.953  0.4371  0.1448  0.7371
  877MOL0     C15689   6.906   1.948   2.820  0.5441  0.2019 -0.8539
  877MOL0     O15690   7.033   1.983   2.771 -0.5562 -0.4092  0.0923
  877MOL0     C15691   7.055   1.950   2.637  0.2751  0.0326 -0.5173
  877MOL0     C15692   7.014   2.061   2.550  0.0143  0.5074  0.7976
  877MOL0     C15693   7.052   2.067   2.394  0.8486  0.2467 -0.4031
  877MOL0     C15694   6.964   2.164   2.313 -0.0666 -0.4777 -0.4131
  877MOL0     C15695   7.024   2.301   2.331  0.5069  1.1976  0.5728
  877MOL0     C15696   7.062   2.413   2.328  0.7614 -0.7073  0.2531
  877MOL0     C15697   6.795   1.915   2.738  0.4405  0.0232  0.7435
  877MOL0     C15698   6.675   1.863   2.795 -0.5034  0.1396  0.6930
  877MOL0     H15699   6.547   1.609   3.357 -1.7205 -1.6155  3.7891
  877MOL0     H15700   6.318   1.570   3.476  2.0428  0.7593  0.7291
  877MOL0     H15701   5.948   1.521   3.455  0.3888 -4.4568 -0.4568
  877MOL0     H15702   6.101   1.443   3.413 -1.0878 -1.0255 -0.0666
  877MOL0     H15703   5.951   1.424   3.205  0.5764  0.1951 -1.2644
  877MOL0     H15704   6.093   1.520   3.176  0.8720  0.2315  0.7988
  877MOL0     H15705   5.968   1.729   3.185  0.4558  0.8164  1.6837
  877MOL0     H15706   5.838   1.644   3.252  0.9432  3.1540  0.8784
  877MOL0     H15707   5.851   1.491   3.020  4.4967  0.0377  1.0188
  877MOL0     H15708   5.759   1.642   3.027  0.2681  0.4716 -0.0782
  877MOL0     H15709   6.030   1.608   2.917 -1.3309 -2.3807  2.1508
  877MOL0     H15710   5.951   1.769   2.944  2.7216 -0.3147 -1.2973
  877MOL0     H15711   5.754   1.667   2.781  0.3757 -1.3589  0.0045
  877MOL0     H15712   5.875   1.544   2.765  0.1971  0.8499 -0.8751
  877MOL0     H15713   5.956   1.833   2.696  1.1166 -0.0609  0.3667
  877MOL0     H15714   6.040   1.683   2.656 -0.5249 -2.0597  2.0352
  877MOL0     H15715   5.864   1.623   2.491  1.6343  0.4437  0.0297
  877MOL0     H15716   5.937   1.775   2.452 -0.1226 -0.3822 -0.5381
  877MOL0     H15717   5.784   1.990   2.430 -2.0512  3.4838  0.3379
  877MOL0     H15718   5.549   2.112   2.357 -0.1211  1.3735  1.1872
  877MOL0     H15719   5.413   2.064   2.454  2.1334  1.5567  0.0106
  877MOL0     H15720   5.324   2.039   2.257  1.3087  1.8190  2.1994
  877MOL0     H15721   5.412   1.877   2.268  2.5093 -0.7719  2.5348
  877MOL0     H15722   5.550   2.118   2.138  0.1181 -0.1016 -2.9170
  877MOL0     H15723   5.594   1.941   2.144 -1.1204 -1.4282  0.2966
  877MOL0     H15724   5.434   1.885   1.972 -0.0214 -0.0955  1.7655
  877MOL0     H15725   5.507   2.029   1.903 -1.5992 -0.3105 -0.4076
  877MOL0     H15726   5.078   2.121   1.977  2.0098  2.3992  0.0117
  877MOL0     H15727   4.920   2.064   1.787  1.1254  0.7734  1.0333
  877MOL0     H15728   4.747   2.103   1.409  1.9309 -0.3713 -0.2784
  877MOL0     H15729   4.544   2.027   1.239  1.5032  1.5614  0.0934
  877MOL0     H15730   4.320   1.656   1.259  0.5372  1.3177  1.9706
  877MOL0     H15731   4.479   1.591   1.211  0.6681  1.2175  0.1589
  877MOL0     H15732   4.431   1.669   0.977 -0.1502 -1.8182 -0.0448
  877MOL0     H15733   4.290   1.753   1.021  0.5314  1.2923  0.1423
  877MOL0     H15734   4.196   1.549   1.106  1.1935 -0.4546  1.1937
  877MOL0     H15735   4.317   1.451   1.017 -0.8951 -0.1337 -2.7327
  877MOL0     H15736   4.133   1.639   0.872  0.6211 -0.4039  1.3805
  877MOL0     H15737   4.268   1.532   0.816  1.9076  0.1114  2.0897
  877MOL0     H15738   4.011   1.469   0.793 -2.4587 -1.6351  0.0780
  877MOL0     H15739   4.028   1.442   0.968 -1.1466 -0.3163 -0.5491
  877MOL0     H15740   4.045   1.242   0.811 -1.5216  2.2578  0.6951
  877MOL0     H15741   4.159   1.257   0.943 -0.8316  2.9612  1.0707
  877MOL0     H15742   4.262   1.372   0.688  2.6558  1.3488  3.1135
  877MOL0     H15743   4.330   1.253   0.796  0.3837  1.8467  0.5258
  877MOL0     H15744   4.257   1.205   0.540  0.3504  1.5104  0.8441
  877MOL0     H15745   4.095   1.188   0.599 -0.9399 -0.4520  1.8508
  877MOL0     H15746   4.518   1.660   1.446 -0.2180  1.2154  3.5484
  877MOL0     H15747   4.678   1.745   1.611  0.6017  2.0531  0.6832
  877MOL0     H15748   5.238   1.881   1.564 -0.2427  0.3979 -1.0414
  877MOL0     H15749   5.396   1.948   1.760 -0.1062 -1.1533  4.2815
  877MOL0     H15750   6.125   1.843   3.248  0.0526  0.1912 -0.3565
  877MOL0     H15751   6.346   1.907   3.122 -3.6872 -2.0950 -1.7652
  877MOL0     H15752   6.807   1.863   3.126 -0.4498  1.1920  0.3831
  877MOL0     H15753   7.009   1.964   2.994  1.3939  0.6943 -1.7856
  877MOL0     H15754   7.007   1.858   2.603 -4.5122  1.8819  0.5470
  877MOL0     H15755   7.163   1.939   2.623 -0.0412 -1.1211 -2.4106
  877MOL0     H15756   6.905   2.057   2.549  0.0379 -0.2772 -0.4261
  877MOL0     H15757   7.044   2.151   2.605  1.9080 -1.0479  2.4715
  877MOL0     H15758   7.049   1.966   2.351  1.5367 -1.0520  2.3796
  877MOL0     H15759   7.151   2.112   2.382 -0.2474  2.2903 -2.6714
  877MOL0     H15760   6.960   2.150   2.205 -1.2549  0.9383 -0.5759
  877MOL0     H15761   6.858   2.168   2.339 -0.0338 -0.9922 -0.1905
  877MOL0     H15762   7.099   2.514   2.323  0.7060 -0.5721  1.8245
  877MOL0     H15763   6.798   1.927   2.630 -0.4734  0.0951  0.7240
  877MOL0     H15764   6.585   1.858   2.735  0.5589 -1.7758 -0.8683
  878MOL0     O15765   8.236   8.190   9.808 -0.1362 -0.0447  0.1441
  878MOL0     C15766   8.207   8.271   9.895  0.3187  0.2525  0.7844
  878MOL0     O15767   8.092   8.276   9.960 -0.2700  0.2523 -0.2455
  878MOL0     C15768   7.973   8.233   9.897 -0.1677 -0.8825 -0.4133
  878MOL0     C15769   7.925   8.283   9.775  0.0506 -0.3073 -0.5406
  878MOL0     C15770   7.815   8.231   9.710 -0.3538 -0.2921  0.5922
  878MOL0     C15771   7.751   8.124   9.762 -0.0024  0.3117 -0.3221
  878MOL0     O15772   7.629   8.072   9.708  0.4927 -0.0202 -0.8826
  878MOL0     C15773   7.539   8.156   9.629  0.2631  0.9488 -0.2767
  878MOL0     C15774   7.548   8.112   9.477 -0.0398 -0.0157  0.2042
  878MOL0     C15775   7.460   8.210   9.400  0.0168 -0.1314 -0.2345
  878MOL0     C15776   7.491   8.364   9.419 -0.4064  0.1832  0.0048
  878MOL0     C15777   7.409   8.443   9.320 -0.0901  0.7365  0.3102
  878MOL0     C15778   7.461   8.579   9.310 -0.3253 -0.1927 -0.7604
  878MOL0     C15779   7.364   8.682   9.246  1.1363  0.2274  0.1909
  878MOL0     C15780   7.293   8.752   9.352  0.1367  0.3657 -0.1980
  878MOL0     N15781   7.217   8.661   9.439 -0.3774  0.5389 -0.3103
  878MOL0     C15782   7.256   8.606   9.560 -0.7410 -0.7547  0.5139
  878MOL0     C15783   7.153   8.545   9.616 -0.0288 -0.2810 -0.6328
  878MOL0     C15784   7.138   8.479   9.755  0.0156 -0.4723 -0.0454
  878MOL0     C15785   7.271   8.450   9.824 -0.4193  0.3911 -1.0868
  878MOL0     C15786   7.321   8.569   9.896  0.0374  0.1384 -0.5247
  878MOL0     C15787   7.471   8.564   9.932 -0.6434  0.5762  0.2630
  878MOL0     O15788   7.508   8.437   9.987  0.9659  0.0256 -0.3221
  878MOL0     C15789   7.606   8.458  10.078 -0.0320  0.3759  0.2694
  878MOL0     C15790   7.731   8.493  10.033  1.2387 -1.0502  0.7991
  878MOL0     C15791   7.837   8.498  10.119  0.3490  0.1550 -0.0799
  878MOL0     C15792   7.825   8.438  10.244  0.2146 -1.1761 -0.3627
  878MOL0     C15793   7.946   8.450  10.333  0.0966 -1.1179 -0.0885
  878MOL0     O15794   8.055   8.517  10.284  0.7838  0.5245  0.4313
  878MOL0     C15795   8.164   8.520  10.363 -1.1530 -0.8521 -0.6028
  878MOL0     C15796   8.190   8.644  10.426 -0.4079  0.1351 -0.5000
  878MOL0     C15797   8.303   8.656  10.510  0.0507 -0.3092 -0.5357
  878MOL0     C15798   8.395   8.550  10.523  0.5979  0.6854  0.9152
  878MOL0     O15799   8.515   8.561  10.591  0.2709  0.0293 -0.1814
  878MOL0     C15800   8.554   8.684  10.654  0.4677 -0.6352  0.4484
  878MOL0     C15801   8.699   8.688  10.706  0.4586  0.2364  0.7086
  878MOL0     C15802   8.801   8.680  10.592 -0.4879  0.0112  0.1858
  878MOL0     C15803   8.943   8.700  10.641  0.9263  0.5806 -0.3754
  878MOL0     C15804   9.041   8.685  10.518 -0.9455 -0.0307 -0.4002
  878MOL0     C15805   9.187   8.727  10.554  0.3128 -0.0672 -0.7842
  878MOL0     C15806   9.264   8.723  10.423  0.8771 -0.4661 -0.1397
  878MOL0     C15807   9.413   8.735  10.447 -0.3002  0.2251  0.5932
  878MOL0    Cl15808   9.442   8.915  10.419 -0.0468  0.1035 -0.0153
  878MOL0     C15809   8.376   8.434  10.448  0.1240  0.2280 -0.6783
  878MOL0     C15810   8.258   8.415  10.376  0.1638 -0.4961  0.2521
  878MOL0     O15811   7.933   8.404  10.447 -0.2784 -0.4082  0.2189
  878MOL0     C15812   7.701   8.388  10.284 -0.1681 -0.1596  0.2336
  878MOL0     C15813   7.591   8.393  10.198 -0.3541  0.2935 -0.4664
  878MOL0     N15814   7.044   8.553   9.529 -0.8501 -0.5198  0.1042
  878MOL0     N15815   7.083   8.622   9.428  0.4531 -0.7044  0.0156
  878MOL0     C15816   7.785   8.079   9.891  0.0450 -0.4747 -0.0302
  878MOL0     C15817   7.911   8.119   9.949  0.2912  0.4162  0.4940
  878MOL0     C15818   8.310   8.371   9.933 -1.1174  0.3360  0.3517
  878MOL0     C15819   8.445   8.377   9.890  0.0936  0.7521  0.5561
  878MOL0     C15820   8.527   8.489   9.919  0.2547  0.5471  0.8751
  878MOL0     C15821   8.473   8.592   9.999 -0.4018  0.1065 -0.2232
  878MOL0     O15822   8.544   8.707  10.023 -0.4162 -0.1794  0.7103
  878MOL0     C15823   8.690   8.717  10.005 -0.5185  0.6930  0.5598
  878MOL0     C15824   8.745   8.846  10.067 -0.3646 -0.2584 -0.5554
  878MOL0     C15825   8.786   8.836  10.212 -0.7053  0.1028  0.3175
  878MOL0     C15826   8.834   8.969  10.264 -0.7682  0.3329  0.4717
  878MOL0     C15827   8.971   9.004  10.219 -0.5594 -0.3849  0.1594
  878MOL0     C15828   9.091   9.024  10.188  0.4610  0.8145 -0.4457
  878MOL0     C15829   8.345   8.586  10.042 -0.4180 -0.4802  0.5591
  878MOL0     C15830   8.267   8.482  10.004  0.3060  0.4817  0.4180
  878MOL0     H15831   7.988   8.356   9.726  0.5521 -0.9457 -0.8699
  878MOL0     H15832   7.790   8.271   9.612 -2.2553 -2.8858 -0.0974
  878MOL0     H15833   7.557   8.263   9.645  0.0552  0.7167  1.6968
  878MOL0     H15834   7.441   8.124   9.663  0.4645  0.1988 -0.3903
  878MOL0     H15835   7.501   8.014   9.463  0.0000  0.1319 -0.9968
  878MOL0     H15836   7.649   8.110   9.436 -0.7300 -2.5058 -1.6029
  878MOL0     H15837   7.356   8.192   9.428  0.5265 -2.2350  0.5440
  878MOL0     H15838   7.462   8.184   9.294 -2.8082 -3.4410  0.3239
  878MOL0     H15839   7.455   8.390   9.519 -0.2666 -2.2630  0.7613
  878MOL0     H15840   7.598   8.384   9.414 -0.4974  0.8853  0.6557
  878MOL0     H15841   7.306   8.438   9.356 -0.0822 -1.1067  0.1742
  878MOL0     H15842   7.411   8.397   9.221 -0.4160  2.1535 -0.3716
  878MOL0     H15843   7.547   8.575   9.243  0.4745 -3.6829  0.2814
  878MOL0     H15844   7.506   8.609   9.405 -0.0884 -1.5987 -0.4108
  878MOL0     H15845   7.425   8.752   9.188  2.7562 -1.6720 -0.5267
  878MOL0     H15846   7.288   8.627   9.190 -2.0081  2.6885  1.7059
  878MOL0     H15847   7.227   8.830   9.313  2.6279  1.9890 -1.4081
  878MOL0     H15848   7.360   8.807   9.418 -1.9109  0.9452  1.5314
  878MOL0     H15849   7.348   8.633   9.612 -0.8304 -2.9759  1.9449
  878MOL0     H15850   7.095   8.381   9.732 -0.4979  0.6035 -4.5870
  878MOL0     H15851   7.068   8.526   9.824  1.4328 -0.5876  1.5421
  878MOL0     H15852   7.353   8.419   9.759 -0.2333 -0.2840 -0.5372
  878MOL0     H15853   7.251   8.373   9.900  2.4789  0.0157 -0.6089
  878MOL0     H15854   7.311   8.660   9.836  1.3777  0.5714 -0.1232
  878MOL0     H15855   7.270   8.578   9.992  2.2445  0.3623  0.6715
  878MOL0     H15856   7.497   8.650   9.994 -0.8539 -0.2528  1.5356
  878MOL0     H15857   7.522   8.576   9.836  0.9719  1.7714  1.2297
  878MOL0     H15858   7.747   8.507   9.927  0.0248  0.1403  0.7573
  878MOL0     H15859   7.934   8.530  10.083 -0.6361  1.8882 -1.3615
  878MOL0     H15860   8.111   8.718  10.430  0.7468  1.3392  0.3983
  878MOL0     H15861   8.318   8.742  10.573  1.2215 -0.4187 -0.6486
  878MOL0     H15862   8.480   8.734  10.718  0.5449 -0.7301  0.6120
  878MOL0     H15863   8.550   8.746  10.564 -3.4036 -2.3948 -0.7700
  878MOL0     H15864   8.716   8.600  10.769 -0.7529 -1.9515 -1.8402
  878MOL0     H15865   8.708   8.780  10.764 -0.7744  2.2573 -2.0861
  878MOL0     H15866   8.783   8.754  10.513 -0.6141 -0.3598 -0.1384
  878MOL0     H15867   8.788   8.585  10.540 -1.9699  1.3674 -2.1135
  878MOL0     H15868   8.957   8.797  10.689 -1.3292  1.6624 -1.7006
  878MOL0     H15869   8.970   8.622  10.711 -4.4920 -0.4557  1.0043
  878MOL0     H15870   9.015   8.743  10.429 -0.7397  0.8682  0.1180
  878MOL0     H15871   9.035   8.584  10.476  3.9060 -0.2560 -1.0422
  878MOL0     H15872   9.236   8.666  10.631 -1.5395  2.0357  2.2581
  878MOL0     H15873   9.187   8.829  10.594 -0.1002 -0.1589 -0.5440
  878MOL0     H15874   9.253   8.620  10.388  0.8859 -0.3457 -0.4996
  878MOL0     H15875   9.231   8.795  10.348  4.0405  1.7175  0.3623
  878MOL0     H15876   9.464   8.673  10.373 -0.6944 -0.4632  0.8872
  878MOL0     H15877   9.438   8.711  10.551  0.0402 -0.4461  0.3646
  878MOL0     H15878   8.454   8.359  10.441  0.3236  0.3363  0.2247
  878MOL0     H15879   8.237   8.331  10.310  3.6291 -1.6108  0.3865
  878MOL0     H15880   7.686   8.322  10.369 -0.5396 -2.6024 -1.5943
  878MOL0     H15881   7.489   8.361  10.219 -1.7399  3.3664 -1.8278
  878MOL0     H15882   7.723   8.004   9.939  1.4385 -0.4647  1.8747
  878MOL0     H15883   7.943   8.064  10.037  0.4375 -3.8361 -1.9214
  878MOL0     H15884   8.481   8.286   9.843 -1.4107  0.4533 -0.0695
  878MOL0     H15885   8.619   8.504   9.864  1.3967  0.3532  2.6472
  878MOL0     H15886   8.709   8.731   9.898 -1.0564  0.8293  0.4812
  878MOL0     H15887   8.744   8.629  10.042 -2.0990 -0.3155  0.5528
  878MOL0     H15888   8.822   8.874   9.995 -1.8164 -0.4520 -2.2382
  878MOL0     H15889   8.675   8.928  10.051 -2.7852 -1.9600  0.6637
  878MOL0     H15890   8.867   8.764  10.229 -0.3704  0.5147  0.5042
  878MOL0     H15891   8.698   8.816  10.273 -1.7151  1.0439 -0.7820
  878MOL0     H15892   8.757   9.045  10.245 -0.1146  0.3801 -2.3840
  878MOL0     H15893   8.843   8.957  10.372 -1.8865  1.9283  0.7751
  878MOL0     H15894   9.195   9.026  10.165  0.0157 -0.3504 -2.7500
  878MOL0     H15895   8.311   8.663  10.110  1.1525 -0.8019  1.7678
  878MOL0     H15896   8.165   8.484  10.041  0.2371 -0.4864  0.3041
  879MOL0     O15897   2.086   6.208   8.170 -0.0717  0.2441 -0.5218
  879MOL0     C15898   2.161   6.215   8.272  1.0925  0.7126  1.0568
  879MOL0     O15899   2.116   6.219   8.396  0.2313  0.4286 -0.0177
  879MOL0     C15900   1.989   6.241   8.444  0.6391 -0.3320 -0.9102
  879MOL0     C15901   1.888   6.295   8.363 -0.1463 -0.5314 -0.9803
  879MOL0     C15902   1.761   6.335   8.415 -0.0194  0.3721 -0.5304
  879MOL0     C15903   1.740   6.315   8.554 -0.6438 -0.1608 -0.6588
  879MOL0     O15904   1.622   6.351   8.599  0.0569 -1.1767 -0.8993
  879MOL0     C15905   1.606   6.422   8.717 -0.3817  0.7259 -0.4255
  879MOL0     C15906   1.495   6.522   8.690  0.7128 -0.3716 -0.3886
  879MOL0     C15907   1.381   6.526   8.799 -0.2572  0.1628  1.1940
  879MOL0     C15908   1.272   6.635   8.768  0.0628  0.3416  0.6350
  879MOL0     C15909   1.130   6.580   8.804  0.5920 -0.3473 -0.0964
  879MOL0     C15910   1.108   6.556   8.958  0.1218  1.0027 -0.0954
  879MOL0     C15911   1.032   6.673   9.022  0.4673  0.0148 -0.0477
  879MOL0     C15912   1.008   6.644   9.172  0.2561 -0.1018 -0.3297
  879MOL0     N15913   0.973   6.773   9.237 -0.9662  0.1467 -0.5225
  879MOL0     C15914   1.056   6.869   9.289 -0.6514 -0.6843  0.0420
  879MOL0     C15915   0.977   6.974   9.319 -0.9494 -0.7826  0.0170
  879MOL0     C15916   1.013   7.111   9.391  1.2579  0.5396  0.4574
  879MOL0     C15917   1.139   7.181   9.331  0.5553  0.6928  0.1632
  879MOL0     C15918   1.129   7.218   9.180  0.3804 -0.0589 -1.0035
  879MOL0     C15919   1.255   7.199   9.099  0.7325 -0.0111  0.5092
  879MOL0     O15920   1.285   7.063   9.086  0.1679 -0.0409 -0.0093
  879MOL0     C15921   1.398   7.028   9.021  0.5649 -0.3666  0.1607
  879MOL0     C15922   1.425   6.895   9.011 -0.7316 -0.0785 -0.3294
  879MOL0     C15923   1.545   6.842   8.961 -0.0356 -1.0832 -0.2624
  879MOL0     C15924   1.642   6.930   8.912 -0.2744  0.7828 -0.4414
  879MOL0     C15925   1.760   6.867   8.860  0.2802  0.7014 -0.6124
  879MOL0     O15926   1.748   6.734   8.831  0.5328  0.0547 -1.0393
  879MOL0     C15927   1.862   6.661   8.835  0.6864  0.7627  0.2789
  879MOL0     C15928   1.916   6.632   8.713 -0.1785 -0.1900 -0.5036
  879MOL0     C15929   2.042   6.563   8.710 -0.4636 -1.2484  0.4880
  879MOL0     C15930   2.100   6.516   8.830 -0.3373 -0.2869 -0.0333
  879MOL0     O15931   2.205   6.432   8.841 -0.3017  0.5624  0.4367
  879MOL0     C15932   2.304   6.436   8.737 -0.1502 -0.6623 -0.5968
  879MOL0     C15933   2.436   6.385   8.792  0.3446  0.3015 -0.4293
  879MOL0     C15934   2.433   6.228   8.786  1.2408 -0.0853  0.2578
  879MOL0     C15935   2.355   6.170   8.907 -0.8325  0.5728  0.1251
  879MOL0     C15936   2.399   6.019   8.936 -1.0942 -0.2393 -0.3851
  879MOL0     C15937   2.292   5.948   9.026  0.4513  1.1047 -0.7707
  879MOL0     C15938   2.338   5.803   9.042  0.4647  0.2891 -0.9485
  879MOL0     C15939   2.450   5.790   9.144  0.0324 -0.5617  0.4893
  879MOL0    Cl15940   2.392   5.827   9.305 -0.0470  0.4174 -0.0658
  879MOL0     C15941   2.042   6.550   8.952  0.3437 -1.8873 -0.1062
  879MOL0     C15942   1.922   6.632   8.957 -0.4518 -0.1822  0.6025
  879MOL0     O15943   1.873   6.921   8.873  0.0853  0.2871 -0.1652
  879MOL0     C15944   1.622   7.067   8.930  0.4960 -0.0754 -0.6182
  879MOL0     C15945   1.496   7.122   8.972 -0.3328 -0.0194  0.0111
  879MOL0     N15946   0.839   6.940   9.286 -0.8241 -0.3634 -0.0878
  879MOL0     N15947   0.845   6.817   9.235  0.2562  0.1200 -0.9623
  879MOL0     C15948   1.844   6.276   8.636  0.3496  0.1906 -0.0406
  879MOL0     C15949   1.968   6.235   8.582 -0.5759  0.2222 -0.9966
  879MOL0     C15950   2.298   6.199   8.249 -0.3788  1.2229 -0.4415
  879MOL0     C15951   2.349   6.140   8.134  0.0181 -0.4450 -0.3333
  879MOL0     C15952   2.484   6.142   8.099 -1.0784  0.3902 -0.2242
  879MOL0     C15953   2.582   6.202   8.182 -0.2702 -0.2559 -0.7681
  879MOL0     O15954   2.725   6.194   8.173  0.2449  0.3662 -0.7395
  879MOL0     C15955   2.770   6.173   8.039 -0.0297  1.3815  0.4144
  879MOL0     C15956   2.923   6.140   8.049  0.3064  0.3455 -0.4617
  879MOL0     C15957   2.976   6.101   7.913  0.0752 -1.1502 -0.1357
  879MOL0     C15958   2.969   6.221   7.815 -0.1769  0.0723  0.5150
  879MOL0     C15959   3.046   6.347   7.862 -0.2646  1.2248 -0.3941
  879MOL0     C15960   3.114   6.440   7.902 -0.1422 -0.3990 -0.8122
  879MOL0     C15961   2.532   6.251   8.300 -0.0907  0.4095 -0.1316
  879MOL0     C15962   2.390   6.252   8.339 -0.5770 -0.5123  0.4038
  879MOL0     H15963   1.905   6.304   8.256  2.1892 -2.0218 -0.8196
  879MOL0     H15964   1.686   6.369   8.345  0.2180 -1.4840 -1.7263
  879MOL0     H15965   1.695   6.468   8.763 -1.9613  1.2569  2.3290
  879MOL0     H15966   1.557   6.361   8.794 -1.0670  0.5711 -0.9786
  879MOL0     H15967   1.446   6.511   8.593  3.9936  0.1966 -2.2572
  879MOL0     H15968   1.542   6.620   8.684 -0.0498  0.2033  1.9021
  879MOL0     H15969   1.429   6.539   8.896  3.0205  2.1726 -0.5176
  879MOL0     H15970   1.327   6.431   8.803 -0.8617  0.1929 -2.6252
  879MOL0     H15971   1.294   6.731   8.815  1.5962  0.4849 -0.3008
  879MOL0     H15972   1.257   6.657   8.662  0.6901 -0.5831  0.3489
  879MOL0     H15973   1.113   6.484   8.755  1.8318 -1.2497  1.1837
  879MOL0     H15974   1.050   6.652   8.784  0.3403  0.6134  3.6036
  879MOL0     H15975   1.206   6.543   9.003 -0.3285 -2.7448  0.1503
  879MOL0     H15976   1.048   6.465   8.972 -0.1906  0.8609 -2.1130
  879MOL0     H15977   1.105   6.754   9.010  0.4735 -0.3884 -4.4208
  879MOL0     H15978   0.934   6.699   8.982 -0.2161 -2.8096 -0.4424
  879MOL0     H15979   1.098   6.600   9.215 -0.6013 -2.2358 -0.5872
  879MOL0     H15980   0.930   6.569   9.187 -0.8745  1.4361  2.1680
  879MOL0     H15981   1.163   6.866   9.301 -0.5132  0.8109 -0.6006
  879MOL0     H15982   1.025   7.082   9.495  0.9141 -1.4476 -0.0200
  879MOL0     H15983   0.934   7.185   9.372  1.1989  0.4721  0.4439
  879MOL0     H15984   1.212   7.100   9.343 -1.0101 -0.7210  0.5902
  879MOL0     H15985   1.172   7.266   9.391  1.3404 -0.5071  1.5055
  879MOL0     H15986   1.056   7.151   9.136 -0.5341 -1.2707  2.0833
  879MOL0     H15987   1.096   7.322   9.172  0.4988 -0.0158 -0.9419
  879MOL0     H15988   1.335   7.246   9.157 -0.4608 -0.7873  2.9456
  879MOL0     H15989   1.238   7.242   9.000  0.4098 -3.5977 -1.1378
  879MOL0     H15990   1.365   6.826   9.070  0.1675  0.5833  1.4321
  879MOL0     H15991   1.551   6.733   8.960 -0.6804 -1.1388  0.3645
  879MOL0     H15992   1.886   6.671   8.616 -1.6075  2.6243  0.9552
  879MOL0     H15993   2.087   6.537   8.614 -1.5964  2.4821 -1.2007
  879MOL0     H15994   2.312   6.534   8.690 -0.5641 -1.8126 -3.3047
  879MOL0     H15995   2.274   6.377   8.649 -1.0412 -1.8903  0.4819
  879MOL0     H15996   2.445   6.425   8.894 -2.8128  0.8656 -0.2579
  879MOL0     H15997   2.519   6.422   8.731  0.3238  0.6557 -0.2515
  879MOL0     H15998   2.536   6.189   8.790  0.9086 -0.9031  1.8512
  879MOL0     H15999   2.391   6.195   8.692  0.5926 -1.2826  0.9527
  879MOL0     H16000   2.380   6.231   8.994  0.9459  1.0099 -0.6389
  879MOL0     H16001   2.248   6.161   8.889 -0.2411 -5.0542 -3.0112
  879MOL0     H16002   2.500   6.014   8.977  0.3288  0.8625 -3.4226
  879MOL0     H16003   2.408   5.963   8.843 -1.9032 -0.3830 -0.3852
  879MOL0     H16004   2.193   5.950   8.980 -0.1380 -0.6614  0.3290
  879MOL0     H16005   2.288   6.003   9.121 -1.9383  5.3352 -3.0442
  879MOL0     H16006   2.265   5.732   9.083 -0.6396  2.5757  1.3712
  879MOL0     H16007   2.374   5.766   8.946  2.5803  2.9873 -1.3310
  879MOL0     H16008   2.527   5.865   9.127  0.3339 -0.7960  0.8150
  879MOL0     H16009   2.496   5.692   9.138  0.6704 -0.4270  2.5201
  879MOL0     H16010   2.083   6.522   9.049  1.9322  2.2139  0.6334
  879MOL0     H16011   1.883   6.662   9.054 -4.6434 -1.5933 -0.4494
  879MOL0     H16012   1.699   7.127   8.884 -1.6020  1.5919 -2.1840
  879MOL0     H16013   1.486   7.230   8.980  1.8170  0.0949  2.8564
  879MOL0     H16014   1.828   6.282   8.744 -0.4898 -1.1763 -0.0720
  879MOL0     H16015   2.042   6.207   8.656  2.2659  3.0773 -2.5030
  879MOL0     H16016   2.290   6.109   8.048  2.3893 -0.1184 -2.1980
  879MOL0     H16017   2.498   6.098   8.001  0.9528 -0.3240  0.3357
  879MOL0     H16018   2.763   6.264   7.978  0.5951  0.1447 -1.6228
  879MOL0     H16019   2.713   6.094   7.988  3.2833 -0.0708 -1.3152
  879MOL0     H16020   2.976   6.224   8.095 -0.1210  0.1740  0.3685
  879MOL0     H16021   2.934   6.058   8.120 -3.2500  0.3653  0.3097
  879MOL0     H16022   2.910   6.026   7.868  1.0489 -0.8748 -2.1573
  879MOL0     H16023   3.077   6.059   7.920 -0.9605 -3.6040  1.6124
  879MOL0     H16024   3.011   6.190   7.719 -2.8299 -0.4620 -0.5672
  879MOL0     H16025   2.864   6.235   7.788 -0.2532 -3.5630 -1.7283
  879MOL0     H16026   3.178   6.523   7.922 -0.7991 -0.0310 -0.1672
  879MOL0     H16027   2.590   6.300   8.378 -1.8871  1.5175  0.5700
  879MOL0     H16028   2.373   6.313   8.427 -0.0187 -1.1386  0.9592
  880MOL0     O16029   0.585  11.302   3.315 -0.4796 -0.2341  0.1531
  880MOL0     C16030   0.599  11.231   3.212  0.7519 -0.4553  0.8990
  880MOL0     O16031   0.526  11.114   3.180 -0.0500 -0.8455 -0.0306
  880MOL0     C16032   0.411  11.071   3.245 -1.0218  0.0907  0.2001
  880MOL0     C16033   0.364  10.950   3.197 -0.4334  0.2625 -0.9289
  880MOL0     C16034   0.243  10.903   3.257 -0.0962 -0.1080 -0.1083
  880MOL0     C16035   0.173  10.974   3.354 -0.4673  0.2437  0.5326
  880MOL0     O16036   0.074  10.919   3.424 -0.1725 -0.7851  0.2380
  880MOL0     C16037   0.010  10.800   3.374  0.2806 -0.5812  0.4482
  880MOL0     C16038  -0.127  10.799   3.444  0.0285  0.3858  0.3809
  880MOL0     C16039  -0.213  10.676   3.402  0.1271 -0.0723  0.1939
  880MOL0     C16040  -0.350  10.698   3.464 -0.3937 -0.6997 -0.2270
  880MOL0     C16041  -0.449  10.590   3.434 -0.0647 -0.1730  0.0020
  880MOL0     C16042  -0.475  10.581   3.285  0.4420  0.8237  1.0636
  880MOL0     C16043  -0.610  10.506   3.266  0.2329  0.7114  0.3877
  880MOL0     C16044  -0.595  10.356   3.294 -1.1018  0.0829 -0.3451
  880MOL0     N16045  -0.713  10.279   3.273 -0.2031  0.0941  0.5165
  880MOL0     C16046  -0.799  10.218   3.363 -0.1419 -1.0509  1.1106
  880MOL0     C16047  -0.861  10.121   3.290 -0.0682  0.4311  0.3133
  880MOL0     C16048  -0.958  10.025   3.345 -0.7170 -0.1526  0.5223
  880MOL0     C16049  -0.872   9.908   3.398 -0.6589  0.3081 -0.0812
  880MOL0     C16050  -0.954   9.791   3.438 -0.3570  0.1359  0.6720
  880MOL0     C16051  -0.859   9.702   3.517 -0.0409 -0.3324  0.3664
  880MOL0     O16052  -0.813   9.747   3.647  0.2560 -0.0659 -0.2407
  880MOL0     C16053  -0.860   9.682   3.758 -0.0234 -0.1694  0.0687
  880MOL0     C16054  -0.798   9.720   3.874 -0.1441 -0.3763  0.1213
  880MOL0     C16055  -0.847   9.679   4.000  0.8455  1.1741  0.6105
  880MOL0     C16056  -0.961   9.591   4.015 -1.0794 -0.3242  0.6654
  880MOL0     C16057  -1.007   9.537   4.152  0.6117  0.5296  0.7761
  880MOL0     O16058  -0.935   9.570   4.260 -0.1185  0.8595 -0.0371
  880MOL0     C16059  -0.996   9.542   4.379 -1.1728 -0.0386  0.5982
  880MOL0     C16060  -1.029   9.417   4.416 -0.1698 -0.4183 -0.7085
  880MOL0     C16061  -1.085   9.388   4.538 -0.0267  0.8004 -0.5883
  880MOL0     C16062  -1.111   9.484   4.629  0.5678 -1.8275 -0.0587
  880MOL0     O16063  -1.175   9.464   4.748 -0.2699  0.0510  0.6354
  880MOL0     C16064  -1.231   9.344   4.774  0.3468  1.0430  1.0964
  880MOL0     C16065  -1.327   9.351   4.897 -0.0802  0.3706 -1.0802
  880MOL0     C16066  -1.366   9.203   4.929 -1.1175  0.1541 -0.3498
  880MOL0     C16067  -1.455   9.198   5.059  0.3753 -1.3429 -0.1319
  880MOL0     C16068  -1.583   9.292   5.043 -0.2164  1.2057 -0.3375
  880MOL0     C16069  -1.673   9.262   5.165 -0.2557  1.4936  0.5949
  880MOL0     C16070  -1.784   9.360   5.196  0.2378 -0.4678  0.2763
  880MOL0     C16071  -1.918   9.338   5.131  0.7911  0.2321  0.5302
  880MOL0    Cl16072  -1.994   9.195   5.201  0.0721 -0.1323 -0.0702
  880MOL0     C16073  -1.063   9.613   4.599 -0.1885 -0.0684  0.4820
  880MOL0     C16074  -0.991   9.638   4.476  1.0823 -0.3529  0.2587
  880MOL0     O16075  -1.107   9.459   4.159 -0.4838 -0.3189  0.3118
  880MOL0     C16076  -1.006   9.540   3.896  0.0651 -0.3818 -1.2543
  880MOL0     C16077  -0.972   9.592   3.769  0.2800  0.0610 -0.7802
  880MOL0     N16078  -0.821  10.128   3.154 -0.4233 -0.2448 -0.2122
  880MOL0     N16079  -0.734  10.228   3.144  0.0522 -0.3905 -0.6110
  880MOL0     C16080   0.218  11.100   3.390  0.5470 -0.7834 -0.4992
  880MOL0     C16081   0.334  11.152   3.331 -0.9736  0.3371 -0.4027
  880MOL0     C16082   0.712  11.281   3.126  0.0220  0.8743  0.0330
  880MOL0     C16083   0.712  11.251   2.992  0.2889 -0.4962 -0.0837
  880MOL0     C16084   0.819  11.303   2.909  0.2436 -0.1399  0.0368
  880MOL0     C16085   0.918  11.377   2.966  0.2140 -0.5460  0.7821
  880MOL0     O16086   1.005  11.439   2.881 -1.0399  0.6372  0.1219
  880MOL0     C16087   1.125  11.501   2.929  0.1034  0.1169  0.1848
  880MOL0     C16088   1.238  11.393   2.966 -0.0158  0.2842  0.7832
  880MOL0     C16089   1.356  11.456   3.050 -0.0504  0.1193  0.2994
  880MOL0     C16090   1.482  11.366   3.079  0.6245  0.6105 -0.8862
  880MOL0     C16091   1.557  11.315   2.961 -0.3653  0.2746  0.6284
  880MOL0     C16092   1.637  11.276   2.880  0.2602  0.3781  0.4322
  880MOL0     C16093   0.914  11.411   3.093  0.8428 -0.1338  0.6890
  880MOL0     C16094   0.818  11.359   3.177  0.9665  0.1407  0.3305
  880MOL0     H16095   0.428  10.890   3.134  0.7737  3.3820 -2.9014
  880MOL0     H16096   0.209  10.805   3.223 -2.8460  0.7068  0.0805
  880MOL0     H16097   0.063  10.707   3.398  1.8453  0.1230 -0.1431
  880MOL0     H16098  -0.005  10.812   3.266 -1.1717  3.3242  0.9120
  880MOL0     H16099  -0.181  10.892   3.423 -1.2152 -0.6465 -1.2186
  880MOL0     H16100  -0.113  10.784   3.551 -3.5496  3.2857  1.4596
  880MOL0     H16101  -0.176  10.582   3.444 -0.4401 -0.2165  0.3893
  880MOL0     H16102  -0.223  10.672   3.294  3.3665  0.4547 -0.2280
  880MOL0     H16103  -0.335  10.701   3.573 -2.3851  0.2383  0.0646
  880MOL0     H16104  -0.405  10.788   3.438 -5.1843 -2.9991  0.7006
  880MOL0     H16105  -0.546  10.619   3.476 -1.0325  1.9364 -3.2911
  880MOL0     H16106  -0.415  10.491   3.465  2.5225  0.5851 -0.1758
  880MOL0     H16107  -0.402  10.530   3.222 -0.6287 -0.3943  0.7430
  880MOL0     H16108  -0.480  10.680   3.241  0.9770  0.4947  0.2523
  880MOL0     H16109  -0.693  10.558   3.314 -1.8163  1.9617 -4.0352
  880MOL0     H16110  -0.633  10.514   3.159  0.3668  1.6723  0.4243
  880MOL0     H16111  -0.559  10.341   3.396  1.6374 -0.3509 -1.3042
  880MOL0     H16112  -0.512  10.322   3.232 -0.0371  3.0088 -0.6437
  880MOL0     H16113  -0.808  10.256   3.464 -0.3937  1.6011  0.1468
  880MOL0     H16114  -1.038   9.992   3.277  1.3473  1.3341 -2.8906
  880MOL0     H16115  -1.002  10.068   3.435  0.5112 -0.1492  1.1318
  880MOL0     H16116  -0.816   9.952   3.482 -0.1684 -1.2242  0.4163
  880MOL0     H16117  -0.801   9.873   3.322  1.1309 -1.1489  2.1253
  880MOL0     H16118  -1.036   9.826   3.501 -1.9545  2.0729 -2.2373
  880MOL0     H16119  -0.993   9.742   3.349  0.1981 -1.3086  1.1866
  880MOL0     H16120  -0.771   9.670   3.459 -1.7766 -1.0843 -1.9951
  880MOL0     H16121  -0.911   9.607   3.530  3.1776 -2.5839 -1.5833
  880MOL0     H16122  -0.717   9.790   3.891 -1.9347  2.0387 -0.7234
  880MOL0     H16123  -0.796   9.723   4.085 -1.0194  0.4494  2.1552
  880MOL0     H16124  -0.994   9.333   4.357  1.8533  0.6059 -1.0795
  880MOL0     H16125  -1.108   9.283   4.552  1.8632  0.4690  0.3358
  880MOL0     H16126  -1.153   9.268   4.776  0.0835  0.6037 -1.5317
  880MOL0     H16127  -1.294   9.327   4.686  2.1200  0.9779 -0.2246
  880MOL0     H16128  -1.416   9.412   4.877 -0.7711  1.1490  3.3372
  880MOL0     H16129  -1.282   9.401   4.984 -0.4777  0.3880 -0.8823
  880MOL0     H16130  -1.288   9.130   4.952 -0.6423  0.1034 -2.0068
  880MOL0     H16131  -1.416   9.169   4.838 -1.8610 -1.8454  0.7366
  880MOL0     H16132  -1.490   9.099   5.088 -0.5360 -0.7860  0.7509
  880MOL0     H16133  -1.393   9.216   5.147  3.0340 -2.3898 -1.6720
  880MOL0     H16134  -1.633   9.261   4.951 -0.9299 -3.3926  1.3122
  880MOL0     H16135  -1.550   9.395   5.054  0.2717  0.9459  0.8290
  880MOL0     H16136  -1.603   9.246   5.248 -1.1385  1.1490  1.2995
  880MOL0     H16137  -1.707   9.159   5.148  0.4438  1.4591 -0.7125
  880MOL0     H16138  -1.806   9.345   5.302 -0.1898  2.6115  0.7218
  880MOL0     H16139  -1.754   9.465   5.187 -0.8430 -0.1655  0.1017
  880MOL0     H16140  -1.907   9.320   5.024 -0.1806 -1.2758  0.6540
  880MOL0     H16141  -1.985   9.424   5.144  1.4156  0.7568  0.2952
  880MOL0     H16142  -1.072   9.691   4.674 -1.4374  1.2230 -0.9288
  880MOL0     H16143  -0.958   9.736   4.445 -1.2292  0.6866  0.8639
  880MOL0     H16144  -1.087   9.469   3.909  0.6097 -0.6068  1.4910
  880MOL0     H16145  -1.021   9.544   3.685  1.1939 -0.6795 -0.9048
  880MOL0     H16146   0.152  11.151   3.459  1.9860  1.1506 -0.4534
  880MOL0     H16147   0.363  11.251   3.365  0.7237  1.4154 -4.4554
  880MOL0     H16148   0.628  11.207   2.940 -0.8171  2.5922 -1.1731
  880MOL0     H16149   0.826  11.280   2.804 -1.9184 -0.3761 -0.0966
  880MOL0     H16150   1.111  11.567   3.015  0.1149 -2.3801  2.2201
  880MOL0     H16151   1.173  11.567   2.855  1.3231 -0.1834  0.6765
  880MOL0     H16152   1.175  11.324   3.023 -1.2716 -1.9751 -2.9995
  880MOL0     H16153   1.264  11.336   2.877 -1.4093 -0.5633  0.8740
  880MOL0     H16154   1.300  11.473   3.142 -2.0694 -3.9120  0.0494
  880MOL0     H16155   1.386  11.547   2.996 -0.8318  0.5408  0.5663
  880MOL0     H16156   1.559  11.419   3.135  0.5044 -0.2130  0.0657
  880MOL0     H16157   1.453  11.280   3.140  0.1684  1.2248 -0.2186
  880MOL0     H16158   1.718  11.241   2.819  2.1285  2.1693  1.7555
  880MOL0     H16159   0.993  11.467   3.142  0.1869  0.4363  1.1322
  880MOL0     H16160   0.831  11.386   3.281 -0.3950 -1.2250  0.8786
  881MOL0     O16161   2.837   0.116   2.052  0.1452  0.4852  0.5523
  881MOL0     C16162   2.896   0.022   2.105  0.5070 -0.4331 -0.8588
  881MOL0     O16163   3.006  -0.032   2.062 -0.8548 -0.0417 -0.4500
  881MOL0     C16164   3.102   0.025   1.984  0.9584 -0.4813 -0.0634
  881MOL0     C16165   3.193  -0.061   1.920  0.3573 -0.2694  0.2238
  881MOL0     C16166   3.304  -0.015   1.850  0.3097  0.0665  0.0916
  881MOL0     C16167   3.325   0.121   1.816 -0.3726  0.0545  0.0483
  881MOL0     O16168   3.419   0.167   1.726 -0.2635  1.0210 -0.5193
  881MOL0     C16169   3.459   0.075   1.620  0.5394  0.5088 -0.3195
  881MOL0     C16170   3.591   0.135   1.573  0.8914 -0.2458  0.2516
  881MOL0     C16171   3.565   0.270   1.499 -0.7035  0.6303 -0.2638
  881MOL0     C16172   3.686   0.363   1.483 -0.7281  0.8991 -0.3331
  881MOL0     C16173   3.658   0.507   1.440  0.0297 -0.0171  0.0649
  881MOL0     C16174   3.778   0.592   1.468  0.8086  0.2246  0.8829
  881MOL0     C16175   3.751   0.723   1.400 -0.4769 -0.7174  0.1293
  881MOL0     C16176   3.865   0.829   1.420 -1.0889  0.4114 -0.6442
  881MOL0     N16177   3.943   0.839   1.298 -0.1168 -0.8542  0.1871
  881MOL0     C16178   4.071   0.807   1.287  0.3496 -0.6111 -0.4167
  881MOL0     C16179   4.108   0.873   1.174 -0.2867  0.0444  0.3098
  881MOL0     C16180   4.246   0.892   1.098  0.4358  0.2533 -0.1477
  881MOL0     C16181   4.247   0.774   0.996  0.1501 -0.1638 -0.3215
  881MOL0     C16182   4.384   0.757   0.940 -0.6232 -0.1149 -0.5266
  881MOL0     C16183   4.400   0.643   0.828 -0.1531  0.1804 -0.5773
  881MOL0     O16184   4.369   0.514   0.877 -0.0174 -0.4091 -0.8989
  881MOL0     C16185   4.251   0.455   0.849  1.0063 -0.3726  0.6486
  881MOL0     C16186   4.241   0.311   0.864 -0.5500 -0.7653  0.5985
  881MOL0     C16187   4.127   0.239   0.833 -0.1807 -0.9209 -0.1073
  881MOL0     C16188   4.017   0.312   0.781 -0.0489  0.4521 -1.2389
  881MOL0     C16189   3.899   0.242   0.734 -1.0678  0.3081 -1.0185
  881MOL0     O16190   3.822   0.305   0.639  0.4694 -0.4123  1.0280
  881MOL0     C16191   3.777   0.246   0.521 -0.5487 -0.0691 -0.3179
  881MOL0     C16192   3.788   0.109   0.496 -0.2316  0.0413 -0.8561
  881MOL0     C16193   3.740   0.056   0.382  0.0972 -0.4296 -0.3360
  881MOL0     C16194   3.681   0.137   0.281 -1.0817  1.0339  0.8286
  881MOL0     O16195   3.631   0.095   0.162 -0.5394 -0.0366  0.0135
  881MOL0     C16196   3.635  -0.039   0.116  0.4833 -0.3614  0.1250
  881MOL0     C16197   3.543  -0.065   0.001  0.3666  0.6929  0.3857
  881MOL0     C16198   3.396  -0.061   0.049 -0.3954 -0.2114  0.3495
  881MOL0     C16199   3.313  -0.105  -0.065  0.1914 -0.3901 -0.1866
  881MOL0     C16200   3.162  -0.106  -0.025 -0.1660  0.8037 -0.0503
  881MOL0     C16201   3.100   0.025   0.008  0.8492 -0.4067  0.5433
  881MOL0     C16202   2.943   0.028  -0.024  0.6773  0.0952 -0.2781
  881MOL0     C16203   2.875  -0.075   0.067 -0.4293  0.7080 -0.6477
  881MOL0    Cl16204   2.705  -0.016   0.044  0.2349  0.5133 -0.0857
  881MOL0     C16205   3.668   0.278   0.316 -0.2670  0.7099 -0.8613
  881MOL0     C16206   3.714   0.322   0.436 -0.8483  0.0510  0.8610
  881MOL0     O16207   3.874   0.136   0.790 -0.0245  0.6290  0.6461
  881MOL0     C16208   4.023   0.446   0.767 -0.2629  0.0070  1.2065
  881MOL0     C16209   4.143   0.520   0.791  0.9324  0.4633  0.1636
  881MOL0     N16210   4.005   0.933   1.112  0.1858  0.9035 -0.3856
  881MOL0     N16211   3.898   0.915   1.194  0.0223 -0.6381 -0.1975
  881MOL0     C16212   3.247   0.212   1.877  0.4200 -0.0129  0.2411
  881MOL0     C16213   3.129   0.163   1.956 -0.3576  0.2405  0.4131
  881MOL0     C16214   2.847  -0.036   2.236  1.1383 -0.2450  0.1915
  881MOL0     C16215   2.712  -0.010   2.267 -1.0178  1.3757  0.9210
  881MOL0     C16216   2.652  -0.064   2.383 -0.0071 -0.4298 -0.5621
  881MOL0     C16217   2.735  -0.136   2.477 -0.1867 -0.0355 -0.4189
  881MOL0     O16218   2.679  -0.180   2.594  0.1551  0.9064 -0.1422
  881MOL0     C16219   2.758  -0.192   2.719  0.3321 -0.4864  0.2477
  881MOL0     C16220   2.772  -0.062   2.794  0.2469  0.5462  0.6746
  881MOL0     C16221   2.872  -0.083   2.900 -0.3128  0.2092  0.3378
  881MOL0     C16222   2.899   0.055   2.965 -0.9655  0.3462 -0.3464
  881MOL0     C16223   2.978   0.051   3.092 -0.8487  0.2331  0.1080
  881MOL0     C16224   3.039   0.078   3.195  0.2130  0.5478 -0.5421
  881MOL0     C16225   2.870  -0.162   2.444  0.9190  0.7622  0.3430
  881MOL0     C16226   2.925  -0.116   2.321 -0.0948 -0.7446  0.1645
  881MOL0     H16227   3.182  -0.168   1.930 -0.6157 -0.4708 -2.3144
  881MOL0     H16228   3.373  -0.094   1.821  0.5056  0.8218 -1.6078
  881MOL0     H16229   3.381   0.082   1.544  0.3790  3.8775  0.0026
  881MOL0     H16230   3.466  -0.029   1.655  2.3364  1.3192  1.9395
  881MOL0     H16231   3.635   0.057   1.509  1.2966  0.9789 -1.0225
  881MOL0     H16232   3.663   0.144   1.655 -1.0568 -0.0174  2.0286
  881MOL0     H16233   3.483   0.319   1.552 -0.3128  0.2317  0.7335
  881MOL0     H16234   3.533   0.238   1.399  0.7454 -3.1923  0.3189
  881MOL0     H16235   3.730   0.354   1.583 -0.3606 -1.4612 -0.6527
  881MOL0     H16236   3.757   0.320   1.413 -1.1148  0.3757 -0.4011
  881MOL0     H16237   3.573   0.535   1.503 -1.0292 -2.1191 -0.3617
  881MOL0     H16238   3.628   0.508   1.335  0.9425  1.1629 -0.2066
  881MOL0     H16239   3.871   0.556   1.423  0.0803 -2.2111  1.1443
  881MOL0     H16240   3.800   0.590   1.575 -0.4695 -2.4038  1.1796
  881MOL0     H16241   3.727   0.711   1.294 -0.2131 -1.7903  0.1797
  881MOL0     H16242   3.672   0.772   1.458 -2.2164 -2.1068 -1.0034
  881MOL0     H16243   3.926   0.793   1.503 -0.9739 -1.0499 -1.3349
  881MOL0     H16244   3.831   0.931   1.443  2.4052  1.2161  1.8471
  881MOL0     H16245   4.128   0.734   1.345  1.7637 -0.7037 -1.8526
  881MOL0     H16246   4.327   0.884   1.171 -0.3202 -3.0975  0.4896
  881MOL0     H16247   4.259   0.987   1.046 -1.4210  0.3717 -0.4501
  881MOL0     H16248   4.178   0.800   0.915  0.1687  0.1333 -0.2419
  881MOL0     H16249   4.222   0.688   1.059  2.0278  1.7161  3.3081
  881MOL0     H16250   4.406   0.857   0.903  1.6253  1.6818  4.7189
  881MOL0     H16251   4.455   0.735   1.020  0.0057  1.3402 -0.6597
  881MOL0     H16252   4.499   0.643   0.782  0.3865 -0.3417  0.5264
  881MOL0     H16253   4.333   0.676   0.749 -2.5129  0.2762  1.3390
  881MOL0     H16254   4.333   0.271   0.907  0.9741  1.5186 -0.3283
  881MOL0     H16255   4.121   0.131   0.832 -3.4431 -0.8579 -1.9390
  881MOL0     H16256   3.825   0.044   0.574  0.4568  0.0382 -1.1793
  881MOL0     H16257   3.757  -0.049   0.359 -2.8550 -1.5000  1.7485
  881MOL0     H16258   3.604  -0.109   0.195 -2.7352 -1.3247 -1.8171
  881MOL0     H16259   3.739  -0.062   0.090  0.5653  0.6205 -0.4382
  881MOL0     H16260   3.573  -0.163  -0.037  1.6798  1.9631 -2.1374
  881MOL0     H16261   3.554   0.011  -0.077  0.7936 -1.1356 -1.3981
  881MOL0     H16262   3.368   0.042   0.074  0.9415  0.5943 -1.2854
  881MOL0     H16263   3.390  -0.120   0.141 -0.4065 -3.8939 -1.8076
  881MOL0     H16264   3.311  -0.032  -0.146 -4.9119 -2.0972 -2.0181
  881MOL0     H16265   3.331  -0.209  -0.096  1.9518  0.5878 -2.7768
  881MOL0     H16266   3.167  -0.168   0.066 -0.8650 -0.1333 -0.6319
  881MOL0     H16267   3.107  -0.160  -0.103  2.7900  1.7668 -3.0090
  881MOL0     H16268   3.138   0.108  -0.053 -2.6571  0.6526 -0.4485
  881MOL0     H16269   3.129   0.042   0.112  0.1459  0.9219  0.5375
  881MOL0     H16270   2.894   0.124  -0.004 -2.2103 -1.6046  1.4506
  881MOL0     H16271   2.919  -0.005  -0.126 -1.5568 -0.3072  0.3307
  881MOL0     H16272   2.898  -0.068   0.174 -2.8512  1.8428 -0.1270
  881MOL0     H16273   2.896  -0.175   0.027  1.7215 -0.4841  2.9243
  881MOL0     H16274   3.613   0.340   0.245  0.7246  1.7227 -0.7683
  881MOL0     H16275   3.704   0.425   0.468  0.6405  0.1356  1.1212
  881MOL0     H16276   3.950   0.514   0.725  1.2180  1.1507  0.3978
  881MOL0     H16277   4.144   0.628   0.783  0.6568  0.5428  1.1059
  881MOL0     H16278   3.267   0.318   1.867 -1.3525  0.2147 -1.7046
  881MOL0     H16279   3.051   0.225   1.999 -0.2538 -1.7982  3.9530
  881MOL0     H16280   2.654   0.062   2.211 -0.0619  0.1706 -1.8038
  881MOL0     H16281   2.547  -0.044   2.402 -0.8177 -1.1753 -3.6343
  881MOL0     H16282   2.855  -0.234   2.691  0.4570  1.2698 -2.3291
  881MOL0     H16283   2.710  -0.268   2.781  0.1541 -0.7490 -0.2119
  881MOL0     H16284   2.809   0.013   2.724  1.3366 -0.3805  0.2221
  881MOL0     H16285   2.674  -0.025   2.823 -0.3093 -0.4195  0.0896
  881MOL0     H16286   2.967  -0.109   2.852 -0.3970 -2.9328  1.5988
  881MOL0     H16287   2.831  -0.163   2.962  2.1366 -1.5736 -0.1993
  881MOL0     H16288   2.948   0.109   2.883  1.5730 -0.7297  0.3647
  881MOL0     H16289   2.802   0.101   2.984 -0.6130  0.6056  0.8790
  881MOL0     H16290   3.101   0.099   3.279  1.8349 -2.7161 -0.7674
  881MOL0     H16291   2.941  -0.210   2.510  0.1515  1.5529  1.7895
  881MOL0     H16292   3.027  -0.153   2.307  0.3313  1.0130 -1.9572
  882MOL0     O16293  11.254  10.858   5.704 -0.1766 -0.6711 -0.3373
  882MOL0     C16294  11.220  10.756   5.638 -0.8083  0.4128  0.1720
  882MOL0     O16295  11.107  10.674   5.665 -0.4616 -0.0998 -0.3334
  882MOL0     C16296  10.999  10.719   5.728 -0.7912  0.9015  0.3370
  882MOL0     C16297  10.921  10.628   5.806 -0.8250 -0.1014  0.4734
  882MOL0     C16298  10.822  10.681   5.893  0.4929  0.2047  0.2540
  882MOL0     C16299  10.803  10.816   5.910 -0.0138 -0.8721 -0.7624
  882MOL0     O16300  10.717  10.849   6.010 -0.4082 -0.9004 -0.2179
  882MOL0     C16301  10.664  10.984   6.010 -1.3950  0.7813 -0.5647
  882MOL0     C16302  10.593  11.014   6.147 -0.4773  0.5635  0.8773
  882MOL0     C16303  10.533  11.151   6.156 -0.4199  0.1877 -0.4756
  882MOL0     C16304  10.496  11.192   6.309 -0.0140  0.2661  0.3174
  882MOL0     C16305  10.436  11.326   6.299 -0.4939 -0.0771 -0.1760
  882MOL0     C16306  10.373  11.379   6.427 -0.5831  0.5237  0.4659
  882MOL0     C16307  10.254  11.299   6.489  0.1979 -0.4298  0.2581
  882MOL0     C16308  10.138  11.294   6.390  1.1501  0.1608  0.5353
  882MOL0     N16309  10.008  11.244   6.443  0.7436  0.3644  0.2357
  882MOL0     C16310   9.896  11.254   6.359 -0.3250  0.4059 -1.3504
  882MOL0     C16311   9.796  11.202   6.439 -0.9997  0.6157 -0.5135
  882MOL0     C16312   9.662  11.175   6.388 -0.4739 -0.4486 -1.4578
  882MOL0     C16313   9.568  11.293   6.400  0.5914 -0.3332 -0.2926
  882MOL0     C16314   9.443  11.267   6.495 -0.7231 -0.4448  0.4196
  882MOL0     C16315   9.340  11.378   6.487 -0.5283 -0.0214 -0.5682
  882MOL0     O16316   9.244  11.370   6.587 -0.0152 -0.6176 -0.6175
  882MOL0     C16317   9.114  11.374   6.537  0.3573  0.5156  0.3955
  882MOL0     C16318   9.019  11.319   6.624  0.8684 -0.7517 -0.7469
  882MOL0     C16319   8.883  11.337   6.605 -0.3680  0.6479 -0.0455
  882MOL0     C16320   8.824  11.408   6.500 -0.3271  0.2008  0.1831
  882MOL0     C16321   8.676  11.422   6.491 -0.8122  0.2823 -0.9342
  882MOL0     O16322   8.629  11.532   6.434 -0.3438 -0.4817  0.1056
  882MOL0     C16323   8.494  11.544   6.419 -0.4092  0.5308  0.3003
  882MOL0     C16324   8.415  11.451   6.350 -0.6922 -0.7009  0.1079
  882MOL0     C16325   8.277  11.489   6.346 -0.0544  0.0810  0.0849
  882MOL0     C16326   8.227  11.608   6.416 -0.0555  0.3011 -0.4041
  882MOL0     O16327   8.093  11.662   6.408  0.0217 -0.1830  0.4461
  882MOL0     C16328   7.980  11.572   6.408 -0.0050 -0.6053 -0.6418
  882MOL0     C16329   7.842  11.640   6.380  0.0229  0.8796  0.2285
  882MOL0     C16330   7.811  11.770   6.460 -0.3029  0.4492  0.0507
  882MOL0     C16331   7.770  11.733   6.600  0.7099  0.7855  0.6343
  882MOL0     C16332   7.677  11.838   6.667  0.3767 -0.6535 -0.2128
  882MOL0     C16333   7.605  11.778   6.785  0.6078  0.8128 -0.4112
  882MOL0     C16334   7.495  11.876   6.833 -0.7067 -0.2836  0.9454
  882MOL0     C16335   7.486  11.883   6.987  0.4106  0.6118 -0.9996
  882MOL0    Cl16336   7.599  12.006   7.066  0.3015 -0.0735  0.0802
  882MOL0     C16337   8.320  11.692   6.470 -0.3709 -0.4620  0.2825
  882MOL0     C16338   8.451  11.663   6.471 -0.1763 -0.6988  0.4511
  882MOL0     O16339   8.613  11.329   6.531  0.6143  0.0318 -0.7941
  882MOL0     C16340   8.918  11.473   6.418  0.2924  0.1301 -0.0687
  882MOL0     C16341   9.059  11.456   6.437 -0.4047 -0.5130 -0.2734
  882MOL0     N16342   9.851  11.178   6.568  0.4658 -0.7667  0.5048
  882MOL0     N16343   9.972  11.200   6.561  0.4291 -0.7733 -0.1656
  882MOL0     C16344  10.858  10.910   5.816 -0.7301  0.5179  0.0543
  882MOL0     C16345  10.956  10.852   5.731 -0.3251 -0.1746  0.1717
  882MOL0     C16346  11.325  10.703   5.547  0.2430 -0.9180 -0.0342
  882MOL0     C16347  11.278  10.620   5.444 -0.2019 -1.0232 -0.4032
  882MOL0     C16348  11.372  10.571   5.348 -0.5698  0.4984  1.0127
  882MOL0     C16349  11.511  10.586   5.354 -0.2942 -0.0675  0.7033
  882MOL0     O16350  11.595  10.509   5.274 -0.4591  0.0988  0.0382
  882MOL0     C16351  11.734  10.533   5.247 -0.4017  0.1213 -0.2022
  882MOL0     C16352  11.758  10.669   5.177 -0.1247 -0.0456  0.5183
  882MOL0     C16353  11.893  10.683   5.116 -0.3359 -0.8665 -0.0129
  882MOL0     C16354  11.996  10.730   5.217 -0.6264  0.0938  0.4649
  882MOL0     C16355  12.124  10.748   5.144 -0.2868 -0.1943  0.3232
  882MOL0     C16356  12.225  10.750   5.070  0.2033 -0.2457 -0.1373
  882MOL0     C16357  11.552  10.653   5.471  0.8298  1.1371  1.3489
  882MOL0     C16358  11.461  10.712   5.560 -0.5900  0.0847  0.3931
  882MOL0     H16359  10.949  10.524   5.818 -3.2381 -0.7207  1.4192
  882MOL0     H16360  10.785  10.617   5.972 -0.3152  1.1295  0.6380
  882MOL0     H16361  10.610  10.997   5.916 -0.0020  2.0712 -1.2305
  882MOL0     H16362  10.748  11.055   6.006 -1.7509  1.1999 -3.7949
  882MOL0     H16363  10.666  11.003   6.228 -0.2076  0.1888  0.5875
  882MOL0     H16364  10.516  10.937   6.162  1.4806 -1.6629  0.1932
  882MOL0     H16365  10.433  11.151   6.111 -2.0809  1.8556  2.8133
  882MOL0     H16366  10.595  11.226   6.106 -1.8835  2.5440  1.0311
  882MOL0     H16367  10.421  11.124   6.350  0.2634 -0.1179  0.1901
  882MOL0     H16368  10.587  11.205   6.369  0.9508 -2.1780 -0.5314
  882MOL0     H16369  10.362  11.329   6.218 -1.2862 -0.3193  0.5218
  882MOL0     H16370  10.517  11.393   6.267 -0.4932  0.3213  0.6432
  882MOL0     H16371  10.354  11.486   6.413  1.0217  0.4574 -3.2763
  882MOL0     H16372  10.458  11.374   6.496  0.6552 -0.2288 -1.0367
  882MOL0     H16373  10.279  11.196   6.517  2.9487 -0.4942 -1.9801
  882MOL0     H16374  10.203  11.346   6.574 -0.7582 -1.0707  0.0612
  882MOL0     H16375  10.161  11.238   6.299 -1.6907 -0.2297 -0.0291
  882MOL0     H16376  10.128  11.396   6.351  0.7860 -1.1218 -3.1724
  882MOL0     H16377   9.892  11.288   6.256 -1.2450  0.1590 -1.4005
  882MOL0     H16378   9.624  11.091   6.446 -1.7413  0.8221 -0.3811
  882MOL0     H16379   9.672  11.134   6.287  0.6855  1.5391 -2.2025
  882MOL0     H16380   9.544  11.337   6.302 -0.7656  2.1537  1.0469
  882MOL0     H16381   9.620  11.373   6.454  1.6210 -2.2702  1.7426
  882MOL0     H16382   9.399  11.170   6.469  0.0724 -1.6791  3.2930
  882MOL0     H16383   9.483  11.246   6.595  1.2986 -2.1445 -0.6647
  882MOL0     H16384   9.306  11.365   6.384  2.7590 -2.7765 -1.5210
  882MOL0     H16385   9.402  11.467   6.497  0.5685 -0.7416 -0.7572
  882MOL0     H16386   9.058  11.271   6.714  0.3929  1.6229  0.8190
  882MOL0     H16387   8.823  11.287   6.681  1.2530  0.8834  1.4460
  882MOL0     H16388   8.439  11.359   6.298  0.7530 -0.9451  1.1635
  882MOL0     H16389   8.206  11.425   6.294 -0.5765  2.0238 -1.7078
  882MOL0     H16390   7.980  11.512   6.500 -0.5826 -3.4202 -2.3487
  882MOL0     H16391   7.998  11.501   6.326 -1.4390 -1.2187 -0.4524
  882MOL0     H16392   7.766  11.566   6.408  1.3248  0.4408  2.8671
  882MOL0     H16393   7.836  11.662   6.273  2.7482  1.7522  0.1866
  882MOL0     H16394   7.730  11.822   6.409 -2.5224 -2.5847  0.2343
  882MOL0     H16395   7.903  11.830   6.468  0.3665 -0.7755  2.5597
  882MOL0     H16396   7.715  11.639   6.587 -0.0941  1.4736 -1.3756
  882MOL0     H16397   7.858  11.711   6.660  0.6055 -1.4641  0.0511
  882MOL0     H16398   7.614  11.885   6.592  2.3647 -1.8444 -2.7995
  882MOL0     H16399   7.745  11.919   6.695 -1.0648  1.0924 -1.5380
  882MOL0     H16400   7.684  11.753   6.857  1.3061  0.8009 -1.1712
  882MOL0     H16401   7.558  11.681   6.763 -0.7405  1.6835 -1.5264
  882MOL0     H16402   7.506  11.977   6.792 -0.2055 -0.9607 -0.6619
  882MOL0     H16403   7.398  11.842   6.797  0.0763 -0.4250 -1.1958
  882MOL0     H16404   7.492  11.783   7.031 -0.2888  0.9876 -0.0144
  882MOL0     H16405   7.383  11.913   7.009  0.0536 -1.4239  0.4706
  882MOL0     H16406   8.275  11.787   6.497  0.5905  0.2627 -0.6090
  882MOL0     H16407   8.517  11.739   6.512  1.2400  1.3118 -4.7579
  882MOL0     H16408   8.876  11.531   6.336 -1.2787  2.1414  2.0209
  882MOL0     H16409   9.129  11.518   6.382  1.3353 -0.2594  2.0976
  882MOL0     H16410  10.846  11.017   5.807  2.5014  1.2630  2.7178
  882MOL0     H16411  10.995  10.926   5.662 -0.0722  1.0634  1.5827
  882MOL0     H16412  11.171  10.600   5.442 -0.1263 -1.5239  0.0912
  882MOL0     H16413  11.326  10.513   5.269 -1.0066  0.9898  0.8990
  882MOL0     H16414  11.764  10.459   5.173 -0.9428 -2.4374  1.9831
  882MOL0     H16415  11.789  10.516   5.340  0.1573  0.9010 -0.3784
  882MOL0     H16416  11.683  10.667   5.097 -0.2167  1.5440  0.5339
  882MOL0     H16417  11.739  10.758   5.238  0.7921  2.3083 -2.4418
  882MOL0     H16418  11.895  10.759   5.037  1.1158 -2.3126 -1.4500
  882MOL0     H16419  11.935  10.587   5.087 -0.0564 -1.0125  0.8592
  882MOL0     H16420  11.967  10.829   5.254 -3.2579 -0.4299 -0.0298
  882MOL0     H16421  11.995  10.662   5.303 -0.5839  1.2963  1.4442
  882MOL0     H16422  12.311  10.750   5.005 -2.0999 -5.1335 -3.8729
  882MOL0     H16423  11.658  10.650   5.494  0.1277 -0.9605  5.0895
  882MOL0     H16424  11.484  10.762   5.653 -1.4580 -0.6014  0.9893
  883MOL0     O16425   2.384   3.055   7.932 -0.6105  0.6326  0.4233
  883MOL0     C16426   2.295   3.124   7.882  0.4200  0.0720  0.0391
  883MOL0     O16427   2.301   3.261   7.836  0.1368  0.3348 -0.0869
  883MOL0     C16428   2.430   3.301   7.811 -0.0844  0.2944 -0.5762
  883MOL0     C16429   2.535   3.214   7.766  0.7308 -0.2139  0.1744
  883MOL0     C16430   2.660   3.256   7.745 -0.8809 -0.1957 -0.3336
  883MOL0     C16431   2.689   3.394   7.763  0.0179  0.8734  0.8403
  883MOL0     O16432   2.809   3.447   7.753  0.2538  0.3702 -0.4084
  883MOL0     C16433   2.837   3.549   7.653  1.1161 -0.1355  0.1877
  883MOL0     C16434   2.951   3.646   7.702  0.1078 -0.1014  0.8859
  883MOL0     C16435   2.892   3.761   7.790  0.1874 -0.5990 -0.4961
  883MOL0     C16436   2.860   3.704   7.930 -0.6969  0.0648 -0.3224
  883MOL0     C16437   2.789   3.795   8.019  0.7056 -0.3426 -1.0373
  883MOL0     C16438   2.764   3.714   8.154 -0.1109  0.6135 -0.2822
  883MOL0     C16439   2.616   3.652   8.155  0.1686 -0.3004  0.2635
  883MOL0     C16440   2.576   3.565   8.270  0.2712  0.3883  0.1831
  883MOL0     N16441   2.430   3.540   8.273 -0.3970 -0.0529 -0.5345
  883MOL0     C16442   2.375   3.435   8.220  0.3951  1.2526  0.2684
  883MOL0     C16443   2.244   3.446   8.238 -0.7655 -0.2697 -0.7916
  883MOL0     C16444   2.143   3.348   8.201 -0.2182  0.1071 -1.1779
  883MOL0     C16445   2.102   3.240   8.315  0.7263 -1.4581 -0.3015
  883MOL0     C16446   2.005   3.138   8.277 -0.3571  0.1886  1.1569
  883MOL0     C16447   2.003   3.015   8.364  0.0376 -0.2204 -0.5436
  883MOL0     O16448   1.994   3.074   8.496  0.0795  0.1556 -0.9373
  883MOL0     C16449   1.867   3.118   8.542 -0.2175  1.0789  0.8835
  883MOL0     C16450   1.855   3.198   8.654  0.0548  0.3130 -0.0434
  883MOL0     C16451   1.732   3.245   8.699  0.2732  0.0120  0.1440
  883MOL0     C16452   1.615   3.195   8.627  0.0860  0.2365 -1.8621
  883MOL0     C16453   1.489   3.218   8.693 -0.1597  0.8329  0.7734
  883MOL0     O16454   1.475   3.284   8.810 -0.1349 -0.2745 -0.1029
  883MOL0     C16455   1.349   3.314   8.846 -0.0435  0.0966 -0.0686
  883MOL0     C16456   1.260   3.218   8.899  0.7674 -0.0346 -0.6643
  883MOL0     C16457   1.135   3.252   8.948 -0.2827 -0.4011  0.7870
  883MOL0     C16458   1.100   3.387   8.945 -0.7382  0.0844  0.5598
  883MOL0     O16459   0.983   3.397   9.010  0.0397  0.4918  0.4105
  883MOL0     C16460   0.930   3.531   9.015  1.5999  0.2554 -0.8968
  883MOL0     C16461   0.786   3.539   9.071  1.0683 -0.5370 -0.3582
  883MOL0     C16462   0.774   3.502   9.218 -0.2927 -0.2611 -0.1590
  883MOL0     C16463   0.657   3.575   9.284 -0.0433 -0.0044 -0.9930
  883MOL0     C16464   0.640   3.527   9.439  0.0971 -0.2936  0.7963
  883MOL0     C16465   0.505   3.571   9.502  0.1299  0.0830 -1.0023
  883MOL0     C16466   0.509   3.711   9.564  0.6763 -0.6806 -0.3157
  883MOL0     C16467   0.388   3.734   9.649 -0.6462 -0.2012  0.5173
  883MOL0    Cl16468   0.223   3.696   9.563 -0.0129 -0.0094 -0.0588
  883MOL0     C16469   1.186   3.490   8.889  0.6818  0.5825 -0.3945
  883MOL0     C16470   1.304   3.445   8.838 -0.5716  0.2085 -0.2312
  883MOL0     O16471   1.392   3.173   8.622 -0.1113  0.4512  0.5912
  883MOL0     C16472   1.629   3.123   8.513  0.7790 -0.7274 -0.5916
  883MOL0     C16473   1.752   3.083   8.469 -0.6330  0.0418 -0.6326
  883MOL0     N16474   2.219   3.572   8.302 -0.3970 -0.8618  0.4410
  883MOL0     N16475   2.335   3.622   8.318  0.7341  0.4379  0.3194
  883MOL0     C16476   2.582   3.480   7.803 -0.1123 -0.0524  0.3679
  883MOL0     C16477   2.453   3.435   7.832 -0.7493 -0.8637 -0.4990
  883MOL0     C16478   2.152   3.056   7.885  0.4020 -0.3804  0.1539
  883MOL0     C16479   2.128   2.933   7.948 -0.0155 -0.6311 -0.4246
  883MOL0     C16480   1.998   2.871   7.927 -0.4904 -0.8870 -0.1117
  883MOL0     C16481   1.902   2.933   7.848 -0.0366  0.5097  0.2119
  883MOL0     O16482   1.788   2.855   7.838 -0.1629  0.1507  0.0555
  883MOL0     C16483   1.663   2.932   7.852 -1.1964 -0.7751  0.1663
  883MOL0     C16484   1.642   2.983   7.998 -0.4300  0.0406  1.0836
  883MOL0     C16485   1.660   2.884   8.109 -0.5646  0.0398 -1.0619
  883MOL0     C16486   1.563   2.760   8.091 -0.8337  0.1446 -0.5861
  883MOL0     C16487   1.430   2.796   8.041  0.5714  1.2925  0.2233
  883MOL0     C16488   1.317   2.820   8.004  0.0800  0.3125  0.5571
  883MOL0     C16489   1.932   3.057   7.795  0.3912  0.4475 -0.6403
  883MOL0     C16490   2.056   3.121   7.812  0.4101  0.4275  1.0325
  883MOL0     H16491   2.519   3.109   7.747 -2.6893  0.2780 -0.3280
  883MOL0     H16492   2.740   3.188   7.718  0.5115 -0.3319  3.5644
  883MOL0     H16493   2.748   3.610   7.641  1.2534  0.2717  1.1929
  883MOL0     H16494   2.863   3.499   7.559 -2.5207 -2.1385  0.0656
  883MOL0     H16495   2.989   3.684   7.607 -2.3357  2.0319  0.6657
  883MOL0     H16496   3.036   3.596   7.750 -0.5738  0.4354  2.7832
  883MOL0     H16497   2.800   3.797   7.743 -2.4233 -3.3088  2.0811
  883MOL0     H16498   2.966   3.836   7.817  0.8646 -1.3276 -0.2842
  883MOL0     H16499   2.806   3.609   7.928  2.1214 -1.6718  0.4823
  883MOL0     H16500   2.962   3.685   7.965 -0.7255 -0.6262 -0.5996
  883MOL0     H16501   2.696   3.825   7.969  1.0618  2.3608 -0.2081
  883MOL0     H16502   2.855   3.879   8.042  0.1584 -0.1151 -0.2709
  883MOL0     H16503   2.782   3.771   8.245 -2.6086 -1.6881  1.8228
  883MOL0     H16504   2.839   3.635   8.159 -1.6966 -0.8809  1.3588
  883MOL0     H16505   2.562   3.747   8.157  3.0655  1.4929  2.7651
  883MOL0     H16506   2.591   3.611   8.057 -0.6407 -1.7436  1.0486
  883MOL0     H16507   2.601   3.613   8.364  1.6664  0.8465 -0.4002
  883MOL0     H16508   2.630   3.470   8.265 -0.2243  0.1039  0.1474
  883MOL0     H16509   2.424   3.349   8.176 -1.1396  1.4274 -1.9882
  883MOL0     H16510   2.190   3.291   8.120  3.9632 -1.0668  1.7634
  883MOL0     H16511   2.055   3.409   8.180  0.8194  1.0588 -3.0111
  883MOL0     H16512   2.058   3.293   8.400  4.0617 -0.5073  0.9916
  883MOL0     H16513   2.189   3.178   8.341  0.5110 -2.2230 -1.3530
  883MOL0     H16514   1.904   3.178   8.287 -2.1359 -3.1106 -1.4380
  883MOL0     H16515   2.020   3.115   8.171  0.5073  0.7266  1.1563
  883MOL0     H16516   2.102   2.969   8.357  0.9371  1.6440 -0.5386
  883MOL0     H16517   1.925   2.939   8.348 -0.6958  0.8209 -2.0731
  883MOL0     H16518   1.950   3.238   8.690 -0.9274  1.6162  1.2363
  883MOL0     H16519   1.726   3.299   8.793  0.5155 -1.0383  0.7792
  883MOL0     H16520   1.297   3.117   8.917  2.5738  0.1096 -3.0554
  883MOL0     H16521   1.064   3.175   8.976 -2.7161 -0.5216 -4.4801
  883MOL0     H16522   0.924   3.574   8.915 -2.4861  3.1783  0.3262
  883MOL0     H16523   0.997   3.595   9.073  0.2502 -1.6829  3.2033
  883MOL0     H16524   0.709   3.488   9.013  1.6506 -1.6492 -0.1632
  883MOL0     H16525   0.756   3.644   9.057 -0.6836 -1.1388 -1.3896
  883MOL0     H16526   0.866   3.536   9.267  1.3042 -0.1459 -3.0372
  883MOL0     H16527   0.781   3.393   9.220  0.6622 -0.2115  2.0557
  883MOL0     H16528   0.677   3.681   9.268  1.9336 -0.4105 -1.4872
  883MOL0     H16529   0.569   3.556   9.223  1.4230 -0.3693 -3.1069
  883MOL0     H16530   0.722   3.565   9.500 -1.5592  3.4362  0.9776
  883MOL0     H16531   0.651   3.418   9.434  0.6666 -0.1985 -0.1800
  883MOL0     H16532   0.478   3.500   9.580  0.1978  0.8034 -0.3083
  883MOL0     H16533   0.426   3.579   9.426 -0.7552 -0.9316 -0.2072
  883MOL0     H16534   0.603   3.712   9.620 -0.4619  1.0886  1.7098
  883MOL0     H16535   0.511   3.794   9.493  2.5154 -1.8206 -1.6694
  883MOL0     H16536   0.385   3.841   9.674 -0.6964 -0.3476  1.1336
  883MOL0     H16537   0.396   3.682   9.744 -3.7440 -0.0247  0.9689
  883MOL0     H16538   1.158   3.595   8.892  0.6029  0.5405  1.4352
  883MOL0     H16539   1.371   3.521   8.798 -0.1995 -0.7287 -1.4875
  883MOL0     H16540   1.541   3.083   8.463 -1.3737  0.0222  2.3563
  883MOL0     H16541   1.758   3.013   8.386  2.1303 -4.5659  2.9328
  883MOL0     H16542   2.596   3.587   7.804 -0.2362 -0.0370  1.2835
  883MOL0     H16543   2.381   3.504   7.874  0.2247 -0.0387 -0.1494
  883MOL0     H16544   2.205   2.885   8.008 -1.4690 -0.1633  1.9722
  883MOL0     H16545   1.965   2.782   7.980 -0.9052 -0.4005  0.4780
  883MOL0     H16546   1.580   2.862   7.834 -2.2847 -0.3028  2.8195
  883MOL0     H16547   1.677   3.013   7.781  0.3714 -0.7632  0.4480
  883MOL0     H16548   1.723   3.057   8.011  1.6230 -2.1108  1.1970
  883MOL0     H16549   1.546   3.034   8.003 -2.0045 -2.8052  1.7208
  883MOL0     H16550   1.638   2.938   8.202  0.9104 -1.6664  0.3347
  883MOL0     H16551   1.762   2.846   8.112 -1.0537 -1.4002 -1.9833
  883MOL0     H16552   1.609   2.682   8.029  1.5747  0.7334  0.3717
  883MOL0     H16553   1.548   2.721   8.192 -3.6269 -1.5194 -1.5079
  883MOL0     H16554   1.212   2.822   7.984  0.5513 -0.9868 -2.6490
  883MOL0     H16555   1.859   3.108   7.734  1.2169 -0.2501 -2.2772
  883MOL0     H16556   2.087   3.217   7.773 -0.2175  0.0531 -0.4703
  884MOL0     O16557   0.532  10.980   7.644  0.3808  0.0873  0.4647
  884MOL0     C16558   0.584  10.869   7.641  0.5290  0.0697  0.1526
  884MOL0     O16559   0.601  10.782   7.744 -1.1814 -0.7410 -0.0700
  884MOL0     C16560   0.529  10.786   7.863  0.5161 -0.0589  0.1641
  884MOL0     C16561   0.407  10.852   7.881 -0.0790 -0.4094 -0.1263
  884MOL0     C16562   0.334  10.834   8.009 -0.0898 -0.8281  0.4658
  884MOL0     C16563   0.386  10.745   8.106 -0.5347  0.2834  0.0827
  884MOL0     O16564   0.335  10.704   8.222 -0.0700  0.0319  0.3040
  884MOL0     C16565   0.211  10.776   8.266  0.4123  0.1261 -0.4741
  884MOL0     C16566   0.150  10.680   8.373  0.1698 -0.4698  1.1820
  884MOL0     C16567   0.069  10.569   8.306 -0.6128  0.1812 -0.5600
  884MOL0     C16568   0.018  10.464   8.409  0.2749 -0.0630  0.2933
  884MOL0     C16569  -0.020  10.331   8.346 -0.8853  0.1469  0.5345
  884MOL0     C16570  -0.168  10.304   8.333 -0.7609 -0.5189 -0.9308
  884MOL0     C16571  -0.190  10.171   8.253  0.0485 -0.1444 -0.1403
  884MOL0     C16572  -0.335  10.117   8.243  0.1316 -0.6708 -0.3484
  884MOL0     N16573  -0.399  10.089   8.368 -0.0701 -0.0786 -0.1955
  884MOL0     C16574  -0.449   9.960   8.401 -0.7312 -0.2017  0.6862
  884MOL0     C16575  -0.534   9.989   8.506 -0.8154 -0.1642  0.1475
  884MOL0     C16576  -0.600   9.898   8.601 -0.5159 -0.0888 -0.9494
  884MOL0     C16577  -0.723   9.828   8.548 -0.4394 -0.4761 -0.1484
  884MOL0     C16578  -0.804   9.775   8.673  0.6111  0.5567 -0.1127
  884MOL0     C16579  -0.940   9.722   8.640  0.4349 -0.0129 -0.2434
  884MOL0     O16580  -0.924   9.588   8.592  0.4364 -0.0370 -0.3784
  884MOL0     C16581  -1.008   9.485   8.631 -0.7453 -0.8560  0.2494
  884MOL0     C16582  -1.133   9.506   8.682 -0.1857  0.1569  0.4424
  884MOL0     C16583  -1.220   9.388   8.698  0.0332 -0.2725 -0.1705
  884MOL0     C16584  -1.177   9.257   8.674  0.6528 -0.0392 -0.0475
  884MOL0     C16585  -1.273   9.146   8.688  0.1374  0.2832  0.4606
  884MOL0     O16586  -1.356   9.170   8.790  0.0692 -0.2589 -0.5225
  884MOL0     C16587  -1.440   9.081   8.859 -1.5096  0.3089  0.4543
  884MOL0     C16588  -1.485   8.959   8.798  0.0184 -0.2165  0.3851
  884MOL0     C16589  -1.570   8.875   8.860  1.0973 -0.2374  0.4003
  884MOL0     C16590  -1.608   8.898   8.991  0.1764  0.3905  0.2595
  884MOL0     O16591  -1.686   8.806   9.056  0.1383  0.4485  0.0875
  884MOL0     C16592  -1.675   8.671   9.018 -0.2610  0.5354  0.7542
  884MOL0     C16593  -1.739   8.587   9.131 -0.1603 -0.1032  0.9462
  884MOL0     C16594  -1.887   8.588   9.097  0.6890 -0.0867  0.1260
  884MOL0     C16595  -1.945   8.483   9.188  1.0393  1.1279 -0.1887
  884MOL0     C16596  -2.100   8.472   9.160 -0.2761 -0.2944 -0.5539
  884MOL0     C16597  -2.164   8.383   9.267 -0.5741 -0.7673  0.5130
  884MOL0     C16598  -2.322   8.377   9.262 -0.7146  0.2061 -0.3613
  884MOL0     C16599  -2.396   8.268   9.189  1.2425  0.1021 -0.4239
  884MOL0    Cl16600  -2.414   8.121   9.303 -0.3154  0.0499 -0.0240
  884MOL0     C16601  -1.573   9.013   9.056 -0.1475  1.0580  0.1510
  884MOL0     C16602  -1.485   9.102   8.993 -0.4117  0.5732  0.1771
  884MOL0     O16603  -1.263   9.043   8.617 -0.9263 -0.1247 -0.6657
  884MOL0     C16604  -1.047   9.242   8.621  0.6325 -0.4008  0.2158
  884MOL0     C16605  -0.966   9.357   8.594  0.8678  0.3347  0.2185
  884MOL0     N16606  -0.528  10.126   8.537  0.2450  0.3141  0.1161
  884MOL0     N16607  -0.447  10.185   8.455 -0.1551 -0.0521  0.5364
  884MOL0     C16608   0.507  10.683   8.073 -0.1517 -0.7046 -0.8306
  884MOL0     C16609   0.578  10.707   7.957  0.1597  0.2803 -0.6865
  884MOL0     C16610   0.635  10.810   7.509  0.1318  0.5113  0.7295
  884MOL0     C16611   0.634  10.884   7.392 -0.6353  0.3505  0.1661
  884MOL0     C16612   0.659  10.816   7.273 -0.8935 -0.0878  0.3616
  884MOL0     C16613   0.709  10.686   7.257  0.6735 -0.2260 -0.5511
  884MOL0     O16614   0.739  10.626   7.148  0.1542 -0.5238  0.2685
  884MOL0     C16615   0.704  10.689   7.021 -1.1851 -0.0440 -0.3962
  884MOL0     C16616   0.811  10.792   6.969 -0.5280  1.0328  0.6586
  884MOL0     C16617   0.837  10.786   6.819  0.0758 -0.3541  0.8236
  884MOL0     C16618   0.736  10.874   6.740  0.7083  0.4196 -0.3987
  884MOL0     C16619   0.598  10.824   6.746  0.0237 -0.9540  0.1570
  884MOL0     C16620   0.487  10.776   6.752  0.3611 -0.3813 -1.0715
  884MOL0     C16621   0.729  10.616   7.374  0.2140 -0.4932  0.1714
  884MOL0     C16622   0.693  10.681   7.500  0.0065 -0.1374  0.2104
  884MOL0     H16623   0.351  10.920   7.817 -4.8560 -0.2695  3.6296
  884MOL0     H16624   0.241  10.889   8.022  0.5368 -0.0670  2.0743
  884MOL0     H16625   0.143  10.804   8.185 -1.5079  1.4444  1.4800
  884MOL0     H16626   0.229  10.866   8.324 -0.4915  1.2298 -1.8447
  884MOL0     H16627   0.096  10.742   8.446  0.9999  0.6813  0.8461
  884MOL0     H16628   0.231  10.632   8.429  1.7288  0.0563 -0.5068
  884MOL0     H16629   0.128  10.527   8.224 -0.9601 -0.2267 -0.6052
  884MOL0     H16630  -0.021  10.605   8.254 -1.0363  2.2927  1.4762
  884MOL0     H16631   0.097  10.446   8.483  0.8929  1.3122 -0.0033
  884MOL0     H16632  -0.075  10.500   8.453  0.3722  2.8293 -1.6418
  884MOL0     H16633   0.032  10.256   8.406 -4.1736 -0.9272  2.2997
  884MOL0     H16634   0.023  10.335   8.245 -1.4110  1.7616  0.3470
  884MOL0     H16635  -0.210  10.395   8.289 -1.2671 -0.4037 -0.2219
  884MOL0     H16636  -0.202  10.280   8.434  0.7904  0.4158 -0.1427
  884MOL0     H16637  -0.148  10.182   8.152  0.1951  1.6613  0.0850
  884MOL0     H16638  -0.132  10.090   8.297  1.7947  2.2437  2.2071
  884MOL0     H16639  -0.337  10.029   8.177 -0.6408 -0.9546  0.0302
  884MOL0     H16640  -0.390  10.195   8.188 -0.3781 -1.2296 -0.6559
  884MOL0     H16641  -0.430   9.863   8.356 -4.1656 -1.0668  0.8022
  884MOL0     H16642  -0.622   9.944   8.698  0.2483 -4.0418  1.3130
  884MOL0     H16643  -0.522   9.833   8.641 -2.8467 -0.5010  3.5376
  884MOL0     H16644  -0.685   9.735   8.504 -0.2221 -1.2318  1.5559
  884MOL0     H16645  -0.789   9.883   8.480  0.4043  2.8799  1.5590
  884MOL0     H16646  -0.756   9.689   8.722  0.1025  1.1079  1.4120
  884MOL0     H16647  -0.812   9.860   8.741  0.1620 -0.4306  1.1231
  884MOL0     H16648  -0.983   9.773   8.553  0.3836  0.7441  0.2189
  884MOL0     H16649  -0.997   9.737   8.732  0.8613  1.5134 -0.1896
  884MOL0     H16650  -1.180   9.602   8.703 -1.5083 -0.6012  1.0214
  884MOL0     H16651  -1.321   9.404   8.735 -0.5996  2.5671 -2.7416
  884MOL0     H16652  -1.452   8.940   8.696 -0.2261 -3.1027  0.7695
  884MOL0     H16653  -1.606   8.799   8.791  0.2766  1.2861 -0.9001
  884MOL0     H16654  -1.571   8.638   9.011 -0.5249 -0.5347  1.6795
  884MOL0     H16655  -1.716   8.636   8.922  1.0548 -1.6289  0.9361
  884MOL0     H16656  -1.711   8.615   9.233 -0.6538 -2.1921  1.7113
  884MOL0     H16657  -1.691   8.490   9.115  1.2888  0.4057  2.0087
  884MOL0     H16658  -1.900   8.570   8.990  5.4846 -0.2006 -0.6638
  884MOL0     H16659  -1.929   8.686   9.121 -0.2564 -0.9923  2.5121
  884MOL0     H16660  -1.888   8.395   9.157 -1.0407  0.1090 -1.3113
  884MOL0     H16661  -1.928   8.509   9.292  0.1341 -2.0759  0.8732
  884MOL0     H16662  -2.109   8.426   9.062  1.1131 -0.1352 -0.7669
  884MOL0     H16663  -2.140   8.574   9.160  0.5375  0.0490  1.1213
  884MOL0     H16664  -2.130   8.426   9.361 -1.0756 -1.5235  1.0531
  884MOL0     H16665  -2.132   8.278   9.262  1.4533 -0.1691  0.0644
  884MOL0     H16666  -2.358   8.366   9.364 -1.5013 -4.0413 -0.9247
  884MOL0     H16667  -2.369   8.470   9.228  0.2242  0.8641  0.1191
  884MOL0     H16668  -2.331   8.230   9.109  0.7958 -0.0281 -0.7269
  884MOL0     H16669  -2.489   8.310   9.149  1.9801  0.6952 -1.5813
  884MOL0     H16670  -1.607   9.039   9.156 -1.7656  2.5257 -0.7403
  884MOL0     H16671  -1.458   9.192   9.046  0.7727  0.2499  0.1671
  884MOL0     H16672  -1.011   9.142   8.600  0.0985 -1.0230  2.0974
  884MOL0     H16673  -0.869   9.358   8.544  0.9549  0.2617  0.3848
  884MOL0     H16674   0.562  10.630   8.150  0.1650  2.4595  1.3490
  884MOL0     H16675   0.677  10.671   7.933  1.2812  0.9142  2.5456
  884MOL0     H16676   0.608  10.990   7.395 -1.7600  0.0524  1.9419
  884MOL0     H16677   0.645  10.885   7.190  3.8061 -2.4279 -2.8339
  884MOL0     H16678   0.612  10.746   7.035  0.4804  2.7106 -0.0873
  884MOL0     H16679   0.698  10.610   6.945  2.1272  1.0715 -2.0118
  884MOL0     H16680   0.782  10.895   6.991 -0.8908  0.9527  0.5547
  884MOL0     H16681   0.903  10.770   7.025 -1.8579 -0.9342  2.2326
  884MOL0     H16682   0.815  10.683   6.790  0.1391 -0.2878  0.5378
  884MOL0     H16683   0.940  10.810   6.791 -0.2564 -1.7082 -1.8906
  884MOL0     H16684   0.751  10.973   6.784  0.2995  1.0495 -1.6444
  884MOL0     H16685   0.773  10.877   6.637 -1.1944  1.1866 -1.1020
  884MOL0     H16686   0.384  10.747   6.744 -0.6623  0.8772  4.0231
  884MOL0     H16687   0.763  10.513   7.380 -0.5017 -0.6574  2.9832
  884MOL0     H16688   0.704  10.624   7.592 -2.2846 -2.1896 -0.6813
  885MOL0     O16689   3.362   3.467   9.556 -0.2876 -0.3623  0.8107
  885MOL0     C16690   3.427   3.466   9.657  1.1203  0.3324 -0.0486
  885MOL0     O16691   3.380   3.501   9.779 -0.6124 -0.5727 -0.2743
  885MOL0     C16692   3.276   3.590   9.784  0.7013  1.0358  0.3547
  885MOL0     C16693   3.163   3.598   9.696 -0.1596  0.1953  0.2077
  885MOL0     C16694   3.059   3.699   9.714 -0.1349  0.0503  0.4828
  885MOL0     C16695   3.075   3.793   9.820 -0.1483 -0.7225 -0.3516
  885MOL0     O16696   2.987   3.894   9.863  0.4325  0.4346  0.3738
  885MOL0     C16697   2.868   3.911   9.781  0.1096  0.1971 -0.4145
  885MOL0     C16698   2.792   4.037   9.827  1.1650  0.1121  0.1547
  885MOL0     C16699   2.834   4.172   9.765  0.3728  1.0801 -0.3658
  885MOL0     C16700   2.741   4.287   9.802  0.4830  0.0431  0.6846
  885MOL0     C16701   2.833   4.413   9.807 -0.3060  0.2727  0.3083
  885MOL0     C16702   2.908   4.458   9.676 -0.4630  0.2963 -0.7738
  885MOL0     C16703   2.814   4.444   9.550 -0.0886 -0.6310  1.2841
  885MOL0     C16704   2.859   4.507   9.414  0.0697 -0.3580  0.3691
  885MOL0     N16705   2.993   4.453   9.390 -0.3457  0.0090  0.3617
  885MOL0     C16706   3.107   4.529   9.412  0.3231  0.9330 -0.5219
  885MOL0     C16707   3.206   4.464   9.341 -0.3018 -0.9222  0.5400
  885MOL0     C16708   3.340   4.515   9.312  0.3365 -0.3114  0.0184
  885MOL0     C16709   3.416   4.490   9.443 -0.1779  0.1668 -0.4757
  885MOL0     C16710   3.567   4.498   9.442  0.2347  0.0254 -0.1673
  885MOL0     C16711   3.632   4.479   9.578 -0.0504 -0.4279 -0.0410
  885MOL0     O16712   3.632   4.342   9.613  0.8235 -0.2094  0.1037
  885MOL0     C16713   3.745   4.267   9.583  0.3614  1.5417 -0.9405
  885MOL0     C16714   3.864   4.310   9.524  1.0309 -0.2065 -0.9256
  885MOL0     C16715   3.979   4.225   9.529 -0.2908 -0.7630  0.4268
  885MOL0     C16716   3.976   4.104   9.585 -0.4554  0.2049 -0.0222
  885MOL0     C16717   4.096   4.021   9.579  0.1492 -0.7769  0.0341
  885MOL0     O16718   4.096   3.914   9.659  1.2705  0.2067 -0.1198
  885MOL0     C16719   4.195   3.818   9.651 -1.2025  0.1334 -0.2638
  885MOL0     C16720   4.254   3.772   9.768 -0.9980  0.6136  0.1842
  885MOL0     C16721   4.342   3.657   9.748  0.1596 -0.4153 -0.2385
  885MOL0     C16722   4.364   3.599   9.626  0.6302 -0.8687  0.3391
  885MOL0     O16723   4.445   3.490   9.608 -0.5628  0.6575 -0.6007
  885MOL0     C16724   4.588   3.508   9.621 -0.0209  0.5006 -0.0620
  885MOL0     C16725   4.630   3.440   9.757 -0.6453  0.6444  0.3174
  885MOL0     C16726   4.779   3.464   9.774  1.0541 -0.2726 -0.7870
  885MOL0     C16727   4.846   3.354   9.866  0.1076  0.2427 -1.2600
  885MOL0     C16728   4.990   3.326   9.839 -0.5828  0.2398 -0.2456
  885MOL0     C16729   5.091   3.441   9.840 -0.0344 -0.3523  0.7280
  885MOL0     C16730   5.087   3.514   9.978 -0.3266  1.2133  0.3487
  885MOL0     C16731   5.117   3.440  10.112 -1.0522 -0.3868 -0.4125
  885MOL0    Cl16732   5.267   3.336  10.101  0.1901 -0.0043  0.1808
  885MOL0     C16733   4.290   3.631   9.511  0.5009  0.6194 -0.3881
  885MOL0     C16734   4.218   3.750   9.525  0.6473 -0.4243  0.4606
  885MOL0     O16735   4.172   4.047   9.490  0.1755 -0.4789 -0.4256
  885MOL0     C16736   3.860   4.064   9.659 -0.1903  0.2244  0.7185
  885MOL0     C16737   3.744   4.136   9.645 -0.0733 -0.0441  0.1239
  885MOL0     N16738   3.143   4.360   9.278  0.4413  0.2612  0.4966
  885MOL0     N16739   3.020   4.352   9.297  0.2514  0.7314  0.7024
  885MOL0     C16740   3.176   3.770   9.910  0.5569 -0.5309 -0.2863
  885MOL0     C16741   3.273   3.676   9.894  0.2755  0.1729 -0.4584
  885MOL0     C16742   3.557   3.409   9.636  0.1244 -0.3721  0.4606
  885MOL0     C16743   3.608   3.375   9.499  0.2266  0.4971 -0.9420
  885MOL0     C16744   3.730   3.320   9.498  0.7366 -0.3833 -0.4766
  885MOL0     C16745   3.811   3.306   9.611  0.7629 -0.1898  0.4194
  885MOL0     O16746   3.932   3.242   9.599 -0.6577 -0.3127 -0.1589
  885MOL0     C16747   4.042   3.334   9.578  0.0183  0.3636 -0.1810
  885MOL0     C16748   4.176   3.275   9.641 -0.7320  0.1290 -0.8580
  885MOL0     C16749   4.179   3.269   9.797 -1.1662 -0.2656  0.3910
  885MOL0     C16750   4.287   3.185   9.846 -0.3220 -0.9575 -0.0507
  885MOL0     C16751   4.271   3.158   9.985  0.5456 -0.0100 -0.1360
  885MOL0     C16752   4.266   3.142  10.106  0.3031  0.3727  0.1180
  885MOL0     C16753   3.759   3.338   9.730  0.5787 -0.5033  0.1746
  885MOL0     C16754   3.629   3.383   9.748  0.6163  0.0271 -0.0141
  885MOL0     H16755   3.146   3.529   9.614  2.7104 -1.2194  0.6952
  885MOL0     H16756   2.971   3.719   9.653 -2.4437  1.7199  4.0451
  885MOL0     H16757   2.809   3.819   9.780 -4.0706  2.6028  0.8793
  885MOL0     H16758   2.894   3.920   9.675  0.0230 -3.0595 -0.8373
  885MOL0     H16759   2.784   4.041   9.936  1.7400  1.8983  0.1701
  885MOL0     H16760   2.688   4.022   9.799  1.2912 -1.5626  0.5028
  885MOL0     H16761   2.847   4.155   9.658 -0.6406 -1.9710 -0.1101
  885MOL0     H16762   2.933   4.183   9.810 -0.8122  2.4876  2.0876
  885MOL0     H16763   2.655   4.306   9.737  1.4737  0.3047 -0.5995
  885MOL0     H16764   2.708   4.260   9.902 -0.1811 -1.0671  0.1809
  885MOL0     H16765   2.907   4.392   9.884  1.6270  1.8747 -1.0058
  885MOL0     H16766   2.771   4.497   9.840 -0.9225  0.3214 -0.9144
  885MOL0     H16767   2.993   4.391   9.662 -0.8731 -0.1557 -1.1650
  885MOL0     H16768   2.955   4.553   9.701  1.2743 -1.5308  4.2147
  885MOL0     H16769   2.796   4.341   9.518 -0.8529  0.6289 -2.9451
  885MOL0     H16770   2.718   4.489   9.576  0.0467 -0.4197  1.4138
  885MOL0     H16771   2.858   4.616   9.415 -0.5751 -0.2652 -2.4430
  885MOL0     H16772   2.788   4.471   9.339 -0.6646  0.3027  0.7293
  885MOL0     H16773   3.115   4.631   9.448  1.0984 -0.0914  2.5185
  885MOL0     H16774   3.334   4.623   9.297 -0.2645  0.4494  4.3164
  885MOL0     H16775   3.396   4.456   9.239  0.6461 -2.1400  1.6345
  885MOL0     H16776   3.387   4.388   9.469 -1.9898  0.7803  0.0520
  885MOL0     H16777   3.390   4.556   9.526  2.3188 -0.8413  1.2297
  885MOL0     H16778   3.605   4.433   9.363  0.6014 -2.2143  1.7224
  885MOL0     H16779   3.592   4.600   9.412 -0.8339  0.1511 -0.6749
  885MOL0     H16780   3.573   4.530   9.655  1.1433  1.0462 -0.0602
  885MOL0     H16781   3.733   4.522   9.585  0.9509 -2.6700  0.1330
  885MOL0     H16782   3.861   4.403   9.468  1.4058 -0.6384 -1.6755
  885MOL0     H16783   4.072   4.261   9.484  0.6469 -1.2936  1.8926
  885MOL0     H16784   4.253   3.807   9.871  4.8719  1.1022  0.4196
  885MOL0     H16785   4.397   3.603   9.825 -1.2059 -0.2270  0.8917
  885MOL0     H16786   4.618   3.613   9.631 -1.4485  0.8783  0.5890
  885MOL0     H16787   4.648   3.460   9.544  0.5283 -1.9590  1.7792
  885MOL0     H16788   4.613   3.332   9.754  0.4679  0.3258  2.6905
  885MOL0     H16789   4.572   3.470   9.845  0.0532 -0.9717  1.3671
  885MOL0     H16790   4.790   3.565   9.816 -0.9744  0.2737 -1.4537
  885MOL0     H16791   4.834   3.475   9.680  2.5526 -0.9236 -0.0257
  885MOL0     H16792   4.830   3.398   9.965  0.5357  2.9186 -2.2874
  885MOL0     H16793   4.794   3.258   9.856  0.3716 -0.2090  1.1053
  885MOL0     H16794   4.996   3.280   9.740 -1.8736 -2.1110  0.6816
  885MOL0     H16795   5.037   3.258   9.911 -0.4975  1.7591  1.1843
  885MOL0     H16796   5.066   3.509   9.758  0.6960 -0.4070  0.4516
  885MOL0     H16797   5.192   3.403   9.822 -0.1615 -0.3295 -0.0673
  885MOL0     H16798   5.154   3.600   9.972  0.0395  0.9117  0.0636
  885MOL0     H16799   4.991   3.565   9.979 -1.2431 -0.4127  1.8939
  885MOL0     H16800   5.027   3.381  10.132 -0.6188 -0.7259  0.5927
  885MOL0     H16801   5.124   3.506  10.199  0.6376  1.5010 -1.8940
  885MOL0     H16802   4.309   3.572   9.422 -1.1551  0.6662 -0.8021
  885MOL0     H16803   4.154   3.777   9.442 -1.4868  1.7945  2.6854
  885MOL0     H16804   3.852   3.968   9.710 -1.3236  0.7655  1.6230
  885MOL0     H16805   3.656   4.093   9.692 -1.3935  2.4826  0.1498
  885MOL0     H16806   3.180   3.837   9.996 -0.3921 -0.8471  0.0181
  885MOL0     H16807   3.358   3.660   9.960  1.9148  0.7048 -2.3413
  885MOL0     H16808   3.552   3.393   9.408 -0.8093 -0.2771 -0.4752
  885MOL0     H16809   3.757   3.284   9.399 -1.5618 -3.3103 -0.1779
  885MOL0     H16810   4.026   3.431   9.626 -0.6291 -0.5960  1.6356
  885MOL0     H16811   4.047   3.352   9.470  1.5642  1.7562  0.0733
  885MOL0     H16812   4.196   3.174   9.606  2.8525 -0.2952  1.8620
  885MOL0     H16813   4.261   3.333   9.604  0.5188 -1.4753 -0.6154
  885MOL0     H16814   4.084   3.228   9.834 -1.1223  0.7669  1.6945
  885MOL0     H16815   4.186   3.373   9.830  0.4456 -0.6077  1.2322
  885MOL0     H16816   4.280   3.086   9.801  1.1448 -0.7080 -0.8804
  885MOL0     H16817   4.384   3.217   9.808  0.2250 -1.9427  0.4896
  885MOL0     H16818   4.242   3.124  10.209  2.5571 -0.2085  0.6061
  885MOL0     H16819   3.828   3.313   9.809  0.5158 -2.9111 -0.4526
  885MOL0     H16820   3.593   3.391   9.850  5.2278 -2.1015  2.0877
  886MOL0     O16821   1.168   7.827   3.693  0.5382 -0.2231  0.6004
  886MOL0     C16822   1.231   7.745   3.628  0.4336  0.9214  0.1241
  886MOL0     O16823   1.174   7.652   3.543 -0.0668 -0.1508 -0.2557
  886MOL0     C16824   1.035   7.652   3.526 -0.1785 -0.2498  0.6367
  886MOL0     C16825   0.961   7.652   3.402 -0.4456 -0.3379 -0.1610
  886MOL0     C16826   0.813   7.659   3.406 -0.5492  0.0508  0.4649
  886MOL0     C16827   0.740   7.650   3.524  0.0835 -0.4973 -0.2510
  886MOL0     O16828   0.611   7.682   3.547  0.3781  0.2446  0.0380
  886MOL0     C16829   0.532   7.665   3.429  1.1297  0.8500  0.2034
  886MOL0     C16830   0.390   7.702   3.476 -0.1280  0.0039  0.5207
  886MOL0     C16831   0.302   7.682   3.353 -0.3998 -0.4274  0.4220
  886MOL0     C16832   0.167   7.747   3.370 -0.1716 -0.2901  0.2755
  886MOL0     C16833   0.077   7.692   3.480 -0.3381 -0.3331 -0.0584
  886MOL0     C16834   0.025   7.556   3.437 -0.2095  0.1572 -0.9499
  886MOL0     C16835  -0.059   7.497   3.547  0.5066  0.3523  0.2611
  886MOL0     C16836  -0.086   7.355   3.515  0.0194  0.1274 -0.0686
  886MOL0     N16837  -0.225   7.343   3.461  0.4779  0.4701 -0.7814
  886MOL0     C16838  -0.345   7.346   3.531  0.0943 -0.5634  0.7836
  886MOL0     C16839  -0.449   7.339   3.438 -0.3607 -0.8177  0.0201
  886MOL0     C16840  -0.588   7.334   3.486  0.8317 -0.0988 -0.0469
  886MOL0     C16841  -0.626   7.193   3.526  0.3916 -0.1511  0.2466
  886MOL0     C16842  -0.771   7.199   3.574  0.3416  0.0446 -0.2430
  886MOL0     C16843  -0.783   7.271   3.709  1.6540 -0.8786 -0.4015
  886MOL0     O16844  -0.710   7.213   3.809  0.2997 -0.0036  0.0237
  886MOL0     C16845  -0.610   7.296   3.866 -0.6339  0.6714 -0.3090
  886MOL0     C16846  -0.478   7.241   3.869  1.3653  0.4204 -0.2744
  886MOL0     C16847  -0.373   7.304   3.918  0.2533  0.3113 -0.8190
  886MOL0     C16848  -0.392   7.431   3.972 -0.2008 -0.8505  0.0449
  886MOL0     C16849  -0.277   7.495   4.030 -0.0167 -0.1167  0.3983
  886MOL0     O16850  -0.163   7.427   4.040  0.0533 -0.4868  0.7490
  886MOL0     C16851  -0.035   7.472   4.061 -0.5063 -0.3764 -0.0021
  886MOL0     C16852   0.015   7.588   4.014 -0.2780 -0.4573  0.5006
  886MOL0     C16853   0.144   7.633   4.034 -0.4636 -0.5623 -0.7676
  886MOL0     C16854   0.240   7.548   4.093 -0.6021  0.7611 -0.7037
  886MOL0     O16855   0.366   7.591   4.097  0.0445 -1.1153 -0.5325
  886MOL0     C16856   0.476   7.505   4.148 -0.0305  1.4026  0.7083
  886MOL0     C16857   0.604   7.585   4.133  0.4258 -0.2551  0.0142
  886MOL0     C16858   0.722   7.497   4.187  0.5107  0.5219  0.1151
  886MOL0     C16859   0.856   7.565   4.149  0.1503  0.7413 -0.2820
  886MOL0     C16860   0.965   7.525   4.244  1.8686  0.0407  0.0045
  886MOL0     C16861   1.078   7.624   4.226 -0.2690 -1.0795  0.6031
  886MOL0     C16862   1.199   7.587   4.324  0.2817  0.3261  1.0883
  886MOL0     C16863   1.216   7.687   4.436  0.1041  0.2106 -0.2491
  886MOL0    Cl16864   1.381   7.662   4.518 -0.3204  0.1195 -0.0686
  886MOL0     C16865   0.187   7.427   4.139  0.4334 -0.6089 -0.2342
  886MOL0     C16866   0.059   7.386   4.124 -0.3805  0.5134 -0.5591
  886MOL0     O16867  -0.295   7.610   4.069  0.6204 -0.0148 -0.5777
  886MOL0     C16868  -0.520   7.490   3.976 -0.5912 -1.0656  0.8560
  886MOL0     C16869  -0.635   7.423   3.923 -0.2638  0.0370 -0.5756
  886MOL0     N16870  -0.387   7.327   3.314  0.5276  0.2651 -0.2645
  886MOL0     N16871  -0.263   7.321   3.331  0.7472 -0.4817  1.1922
  886MOL0     C16872   0.818   7.647   3.640 -0.6889  0.0435  0.1562
  886MOL0     C16873   0.956   7.630   3.635 -0.7717  0.2875 -0.4133
  886MOL0     C16874   1.380   7.758   3.623 -0.7132 -0.8316 -0.1012
  886MOL0     C16875   1.457   7.676   3.534 -0.9967 -0.1026  0.8931
  886MOL0     C16876   1.595   7.685   3.520 -0.0719  0.5250 -0.2648
  886MOL0     C16877   1.667   7.779   3.601 -0.0505 -0.4188  0.8424
  886MOL0     O16878   1.803   7.799   3.591  0.9715  0.4189 -0.2818
  886MOL0     C16879   1.882   7.699   3.532 -0.0987 -0.6440  0.0378
  886MOL0     C16880   2.021   7.717   3.588 -0.1656  0.3336  0.1321
  886MOL0     C16881   2.088   7.855   3.553 -0.4214 -0.7162  0.3509
  886MOL0     C16882   2.242   7.862   3.550 -0.7691  0.8729  0.2844
  886MOL0     C16883   2.301   7.772   3.652  0.1457 -0.6499 -0.1835
  886MOL0     C16884   2.343   7.706   3.741 -0.1663  0.3405 -0.0142
  886MOL0     C16885   1.595   7.860   3.688 -0.4657 -0.0801  0.1458
  886MOL0     C16886   1.453   7.844   3.703 -0.3123 -0.2813  0.0219
  886MOL0     H16887   1.022   7.674   3.315  1.5138  2.0848  1.6541
  886MOL0     H16888   0.758   7.698   3.320  2.1554  0.9478 -0.9563
  886MOL0     H16889   0.534   7.561   3.394 -0.9742  1.2140 -1.2103
  886MOL0     H16890   0.564   7.727   3.345  1.8064 -0.7183 -0.7339
  886MOL0     H16891   0.380   7.804   3.514 -0.2811 -0.1927  1.0224
  886MOL0     H16892   0.366   7.627   3.552 -1.6409  0.5354  0.5890
  886MOL0     H16893   0.303   7.577   3.320  2.0654  0.2700 -2.1327
  886MOL0     H16894   0.336   7.743   3.269  0.4480 -0.7298  0.5359
  886MOL0     H16895   0.177   7.855   3.386  1.2913 -0.3134 -0.3407
  886MOL0     H16896   0.125   7.744   3.269  1.1607 -1.3302 -0.2649
  886MOL0     H16897  -0.008   7.752   3.514  1.3050 -0.0555  4.0284
  886MOL0     H16898   0.138   7.680   3.569 -2.5872 -0.3297  1.5761
  886MOL0     H16899   0.094   7.482   3.396  0.3129 -1.8187  2.9739
  886MOL0     H16900  -0.039   7.570   3.350 -1.1398 -0.3825 -0.3773
  886MOL0     H16901  -0.008   7.495   3.644  0.6230 -3.8811  0.2949
  886MOL0     H16902  -0.151   7.555   3.558 -1.2033 -2.3033  0.8215
  886MOL0     H16903  -0.091   7.298   3.608 -1.2535 -1.0007 -0.7891
  886MOL0     H16904  -0.006   7.307   3.457  1.7506  1.1583  1.3588
  886MOL0     H16905  -0.357   7.358   3.638 -3.6817 -1.0325  0.5466
  886MOL0     H16906  -0.643   7.370   3.399  0.3067 -0.5976  0.0766
  886MOL0     H16907  -0.612   7.407   3.563 -0.6022  0.6392 -1.1436
  886MOL0     H16908  -0.556   7.151   3.600 -0.6461 -2.1868  0.1335
  886MOL0     H16909  -0.630   7.119   3.446 -0.4872  0.7095 -0.5239
  886MOL0     H16910  -0.833   7.245   3.495  0.2008 -1.6151 -1.1341
  886MOL0     H16911  -0.803   7.096   3.590  0.7171 -0.1482 -0.7237
  886MOL0     H16912  -0.887   7.260   3.740  0.4702  6.4901 -0.0651
  886MOL0     H16913  -0.773   7.380   3.705 -1.3280 -0.5462 -1.2308
  886MOL0     H16914  -0.469   7.142   3.824 -0.2770 -2.2215  4.5119
  886MOL0     H16915  -0.273   7.263   3.916  1.3749  2.8692 -1.6756
  886MOL0     H16916  -0.056   7.641   3.950 -0.6567 -1.6998 -0.1542
  886MOL0     H16917   0.179   7.728   3.997 -0.3399 -0.8886 -1.4982
  886MOL0     H16918   0.481   7.409   4.096 -0.0108  2.4887 -1.3857
  886MOL0     H16919   0.462   7.487   4.255 -3.0027 -0.5385  0.1120
  886MOL0     H16920   0.587   7.677   4.190  0.1800  0.0836 -0.5899
  886MOL0     H16921   0.619   7.605   4.026  1.4858 -0.1141  0.1717
  886MOL0     H16922   0.726   7.391   4.160 -2.5436  0.4942 -0.5205
  886MOL0     H16923   0.706   7.484   4.295  1.5780 -2.4782  0.0165
  886MOL0     H16924   0.884   7.542   4.046  1.8402  1.2803  0.0150
  886MOL0     H16925   0.839   7.672   4.134 -2.0784  0.4746  0.0596
  886MOL0     H16926   0.991   7.419   4.239 -2.9482 -1.5879  2.7581
  886MOL0     H16927   0.928   7.537   4.346  1.5777 -0.8134  0.0079
  886MOL0     H16928   1.038   7.721   4.256 -1.7427 -1.7021  0.7714
  886MOL0     H16929   1.106   7.634   4.120 -0.1425  4.1972  0.8855
  886MOL0     H16930   1.168   7.491   4.365 -1.9045 -0.5701 -2.2451
  886MOL0     H16931   1.291   7.580   4.265 -0.7741 -0.1514 -0.5878
  886MOL0     H16932   1.136   7.695   4.511  2.4373  1.9615  2.2500
  886MOL0     H16933   1.226   7.786   4.391 -1.3780 -0.1318 -1.4095
  886MOL0     H16934   0.238   7.346   4.189 -0.1736 -0.6437  0.3463
  886MOL0     H16935   0.028   7.299   4.180 -1.4810  0.4664 -1.1978
  886MOL0     H16936  -0.533   7.583   4.029  0.9482  0.5349 -1.4246
  886MOL0     H16937  -0.734   7.469   3.927 -0.5873 -0.6852  2.4908
  886MOL0     H16938   0.769   7.637   3.736 -1.9312  0.1304 -0.4529
  886MOL0     H16939   1.010   7.618   3.729 -4.4322  0.0962  1.8853
  886MOL0     H16940   1.414   7.584   3.496 -0.1736 -1.5840  3.3228
  886MOL0     H16941   1.644   7.615   3.452 -1.9444 -0.6485 -0.4656
  886MOL0     H16942   1.884   7.705   3.423  2.0164  0.6901  0.0893
  886MOL0     H16943   1.842   7.600   3.557  0.7647 -1.4323 -1.5463
  886MOL0     H16944   2.014   7.698   3.695  1.3127  0.5643  0.2979
  886MOL0     H16945   2.093   7.643   3.552 -0.3990  0.4174 -0.5268
  886MOL0     H16946   2.050   7.941   3.609  1.9079 -0.3487  1.4589
  886MOL0     H16947   2.050   7.874   3.452 -1.8097  0.6567  1.0797
  886MOL0     H16948   2.274   7.816   3.456  2.8725 -0.0163  1.7851
  886MOL0     H16949   2.280   7.963   3.567 -0.1081  0.2601  3.1632
  886MOL0     H16950   2.364   7.633   3.816  1.2611 -0.3441 -1.0536
  886MOL0     H16951   1.647   7.934   3.748 -1.5831 -1.1839  2.6017
  886MOL0     H16952   1.400   7.915   3.766 -2.4415 -2.0287  0.3356
  887MOL0     O16953  11.318   3.311   3.368  0.2251 -0.0228 -0.3598
  887MOL0     C16954  11.232   3.267   3.288  0.8458 -0.1426 -0.4640
  887MOL0     O16955  11.260   3.216   3.151  0.2065 -0.7718 -0.5206
  887MOL0     C16956  11.373   3.243   3.076 -0.1699  0.0746  0.6014
  887MOL0     C16957  11.375   3.190   2.943 -0.0145  0.4858 -0.2566
  887MOL0     C16958  11.492   3.196   2.861  0.4328  0.5725 -0.3539
  887MOL0     C16959  11.606   3.263   2.902  0.2685  0.2584 -0.7454
  887MOL0     O16960  11.711   3.265   2.814  0.2125 -0.2412 -0.0579
  887MOL0     C16961  11.746   3.398   2.771  0.4786 -1.0917  0.2473
  887MOL0     C16962  11.833   3.396   2.650  0.8353 -0.9453  0.3733
  887MOL0     C16963  11.962   3.345   2.675 -0.1084  0.5355  0.1548
  887MOL0     C16964  12.025   3.300   2.544 -0.6159 -0.7101 -0.0613
  887MOL0     C16965  12.172   3.263   2.565 -0.1979  0.8406 -0.1569
  887MOL0     C16966  12.183   3.116   2.615 -0.2944  0.9273  0.0194
  887MOL0     C16967  12.327   3.064   2.576 -0.6263  0.8439  0.0700
  887MOL0     C16968  12.414   3.058   2.709 -0.1100 -0.2034 -0.4034
  887MOL0     N16969  12.524   2.960   2.709 -0.2504 -0.2165  0.4188
  887MOL0     C16970  12.541   2.870   2.815 -0.2159 -0.3535  0.9094
  887MOL0     C16971  12.652   2.804   2.776  0.0092 -0.3829  0.0116
  887MOL0     C16972  12.697   2.680   2.844  0.6571 -0.3663 -0.3928
  887MOL0     C16973  12.804   2.686   2.956 -0.5321  0.3356  0.2552
  887MOL0     C16974  12.779   2.600   3.079 -0.1034 -0.4154  0.6302
  887MOL0     C16975  12.870   2.617   3.202 -0.4721 -0.3378 -0.9034
  887MOL0     O16976  12.831   2.729   3.285 -0.3265  0.1083  0.0182
  887MOL0     C16977  12.894   2.747   3.407 -0.2097  0.0026  0.0293
  887MOL0     C16978  12.917   2.867   3.475  0.0375  0.0115 -0.0436
  887MOL0     C16979  12.977   2.876   3.601 -0.1664  0.2246 -0.0262
  887MOL0     C16980  13.019   2.759   3.667  0.7803  0.1158 -0.1783
  887MOL0     C16981  13.080   2.770   3.799 -0.5428  0.0266  1.2790
  887MOL0     O16982  13.111   2.904   3.826 -0.2242  1.3964  0.0415
  887MOL0     C16983  13.206   2.925   3.916 -0.3697 -0.3277 -0.7800
  887MOL0     C16984  13.339   2.886   3.903  1.1330  0.6913  0.1891
  887MOL0     C16985  13.431   2.915   3.998 -0.5237 -0.1582  0.3551
  887MOL0     C16986  13.404   2.967   4.117 -1.0872 -1.0523 -0.1040
  887MOL0     O16987  13.511   3.022   4.184  0.2888 -0.7018 -0.9904
  887MOL0     C16988  13.490   3.066   4.319 -0.3587 -0.7577  0.5163
  887MOL0     C16989  13.617   3.149   4.359  0.4388 -0.2038  1.1799
  887MOL0     C16990  13.637   3.159   4.504 -0.2282 -0.1951 -0.0170
  887MOL0     C16991  13.759   3.233   4.543 -0.0493  0.1744  0.3678
  887MOL0     C16992  13.798   3.261   4.696  0.7500 -0.4912  0.5524
  887MOL0     C16993  13.683   3.337   4.767  0.3003  0.3320  0.1410
  887MOL0     C16994  13.733   3.396   4.904 -0.1953  0.3178  0.5210
  887MOL0     C16995  13.800   3.526   4.889 -0.3986 -0.6522 -0.4278
  887MOL0    Cl16996  13.972   3.511   4.858  0.1344 -0.2232  0.1030
  887MOL0     C16997  13.275   3.004   4.139  0.0471 -0.6580  0.2593
  887MOL0     C16998  13.172   2.987   4.040  0.1977  1.0941 -0.0693
  887MOL0     O16999  13.112   2.672   3.859 -0.6193  0.2736  0.0730
  887MOL0     C17000  13.010   2.639   3.602  0.7868  1.0982  0.8384
  887MOL0     C17001  12.952   2.635   3.476  0.4497 -0.0601  0.2243
  887MOL0     N17002  12.690   2.847   2.648 -0.0803  0.0518  0.5321
  887MOL0     N17003  12.620   2.940   2.612 -0.7520 -0.1029  0.7539
  887MOL0     C17004  11.605   3.324   3.031 -1.0782 -0.6685  0.1439
  887MOL0     C17005  11.499   3.309   3.119  0.1666 -0.6553  0.4775
  887MOL0     C17006  11.090   3.273   3.323  0.7207 -0.3201  0.2044
  887MOL0     C17007  11.054   3.350   3.436 -0.8043  0.0606  0.7642
  887MOL0     C17008  10.925   3.350   3.472 -1.0838 -0.8624 -0.7991
  887MOL0     C17009  10.828   3.283   3.401  0.0482  0.7950  0.3635
  887MOL0     O17010  10.709   3.297   3.466 -0.3022 -0.3233  0.0402
  887MOL0     C17011  10.596   3.228   3.404  0.3333 -0.1884 -0.4940
  887MOL0     C17012  10.553   3.113   3.498  0.2064 -0.5240  0.3316
  887MOL0     C17013  10.506   3.175   3.631  0.4731 -0.1235 -0.8654
  887MOL0     C17014  10.366   3.223   3.638 -0.5016  0.5350  1.1037
  887MOL0     C17015  10.266   3.119   3.607  0.0053 -0.3405 -0.1232
  887MOL0     C17016  10.175   3.046   3.585  0.1039  0.0716 -0.0682
  887MOL0     C17017  10.861   3.222   3.275 -0.1313  0.2859 -0.1164
  887MOL0     C17018  10.991   3.217   3.242  0.1966 -0.2905 -0.4348
  887MOL0     H17019  11.290   3.128   2.916 -0.2839 -0.6019  2.6788
  887MOL0     H17020  11.473   3.151   2.764 -1.0340 -0.3952  0.3346
  887MOL0     H17021  11.796   3.457   2.849  0.3685 -0.6345 -0.0250
  887MOL0     H17022  11.660   3.448   2.725  0.8430 -1.4882 -0.9003
  887MOL0     H17023  11.844   3.496   2.606 -3.6624  0.0893  1.1468
  887MOL0     H17024  11.781   3.331   2.578 -0.4656  0.1525  0.2793
  887MOL0     H17025  11.954   3.264   2.747 -1.3250  0.9504  0.5074
  887MOL0     H17026  12.025   3.422   2.720 -0.2942 -0.2035  1.7378
  887MOL0     H17027  11.967   3.228   2.485 -1.5860  1.4960 -1.9561
  887MOL0     H17028  12.028   3.390   2.482 -0.7207 -0.8776 -0.3141
  887MOL0     H17029  12.226   3.328   2.634  2.3161 -0.8982 -0.3293
  887MOL0     H17030  12.225   3.265   2.469 -0.4227  0.6183 -0.2895
  887MOL0     H17031  12.115   3.053   2.557  0.0654 -0.5544  1.1450
  887MOL0     H17032  12.167   3.098   2.722  3.0889 -0.9257  0.3415
  887MOL0     H17033  12.306   2.958   2.560 -2.8122  1.1607  0.5238
  887MOL0     H17034  12.386   3.109   2.496  1.4211 -0.8990  0.5138
  887MOL0     H17035  12.345   3.047   2.793  1.5524  0.3217  1.0932
  887MOL0     H17036  12.443   3.163   2.714  2.6899 -0.8076 -1.6430
  887MOL0     H17037  12.474   2.855   2.899 -2.6406  0.4223 -0.7638
  887MOL0     H17038  12.741   2.632   2.756  3.5073  0.8762  0.2485
  887MOL0     H17039  12.621   2.622   2.897  0.4236  1.4806  1.3855
  887MOL0     H17040  12.820   2.787   2.996 -1.3420 -0.0277  1.5610
  887MOL0     H17041  12.901   2.671   2.908 -1.6793 -0.6925 -1.8740
  887MOL0     H17042  12.678   2.625   3.114 -1.2984 -0.1730 -2.6632
  887MOL0     H17043  12.778   2.494   3.051 -1.8691 -0.7227  1.7128
  887MOL0     H17044  12.974   2.638   3.174 -0.5681  1.6903  0.1175
  887MOL0     H17045  12.850   2.521   3.251  1.4433  0.2209  1.1327
  887MOL0     H17046  12.879   2.952   3.419 -3.1848 -0.9059  0.5784
  887MOL0     H17047  12.987   2.970   3.654  3.8102 -1.4691  2.6798
  887MOL0     H17048  13.377   2.827   3.820 -0.2026 -1.8569  1.2640
  887MOL0     H17049  13.531   2.904   3.957 -0.9459  2.0097 -1.4678
  887MOL0     H17050  13.480   2.980   4.385 -2.1670  1.4898  3.3780
  887MOL0     H17051  13.404   3.131   4.329  0.7606  1.0806 -0.9901
  887MOL0     H17052  13.601   3.244   4.308 -0.2147  0.3437  2.3652
  887MOL0     H17053  13.699   3.089   4.319  1.7253  1.3211  1.4393
  887MOL0     H17054  13.650   3.062   4.552 -0.1043  1.3024  3.2216
  887MOL0     H17055  13.548   3.208   4.545 -0.0884 -0.9590  1.2311
  887MOL0     H17056  13.840   3.176   4.495  0.7201  2.0891 -0.7402
  887MOL0     H17057  13.766   3.331   4.496  2.0359 -0.7655 -1.5350
  887MOL0     H17058  13.892   3.312   4.718  2.1601 -2.7112  0.0093
  887MOL0     H17059  13.817   3.164   4.742 -2.2369 -0.8971  1.1563
  887MOL0     H17060  13.605   3.268   4.800 -2.0661  2.3681 -0.8707
  887MOL0     H17061  13.642   3.410   4.696  1.9451 -0.6327 -1.9322
  887MOL0     H17062  13.639   3.416   4.956 -0.1114  1.5345  0.2305
  887MOL0     H17063  13.797   3.328   4.960 -1.5391 -0.4579  1.1648
  887MOL0     H17064  13.797   3.576   4.986 -1.8310 -1.6611  0.0849
  887MOL0     H17065  13.741   3.568   4.806 -2.2506 -0.0875  1.0941
  887MOL0     H17066  13.240   3.052   4.230  0.8336 -0.2288  0.3443
  887MOL0     H17067  13.071   3.021   4.058  0.5153  0.7602  2.9772
  887MOL0     H17068  13.037   2.548   3.656 -0.6949  0.8959  1.2819
  887MOL0     H17069  12.938   2.528   3.464  2.7211 -0.4280  0.3846
  887MOL0     H17070  11.697   3.373   3.061 -3.0077  4.6372 -1.4683
  887MOL0     H17071  11.511   3.345   3.221  2.4137  1.0109 -0.2751
  887MOL0     H17072  11.125   3.416   3.486  0.9948 -0.1066 -1.4084
  887MOL0     H17073  10.905   3.400   3.566  2.8847 -1.5683  0.5886
  887MOL0     H17074  10.607   3.196   3.300 -4.5995 -1.0580 -1.0121
  887MOL0     H17075  10.522   3.309   3.394  0.2130 -0.2286  0.0554
  887MOL0     H17076  10.475   3.051   3.451 -4.2345  3.1123  2.1354
  887MOL0     H17077  10.644   3.054   3.512  1.0998  0.4699 -1.0379
  887MOL0     H17078  10.590   3.240   3.660  1.8175 -1.9260 -0.5357
  887MOL0     H17079  10.501   3.102   3.712 -2.3728  0.3604 -0.5304
  887MOL0     H17080  10.360   3.254   3.743 -1.6735 -0.6680  1.4153
  887MOL0     H17081  10.354   3.313   3.577  1.7470  1.0447  1.3283
  887MOL0     H17082  10.105   2.966   3.574 -1.7329  1.4832  0.8243
  887MOL0     H17083  10.786   3.175   3.213  0.1587  2.0695 -1.9226
  887MOL0     H17084  11.013   3.180   3.143 -4.0897  2.2927 -2.7041
  888MOL0     O17085   4.570   6.682   5.953 -0.1324 -0.0306  0.2176
  888MOL0     C17086   4.544   6.675   6.075  0.4634 -0.4112 -0.4724
  888MOL0     O17087   4.629   6.630   6.175 -0.0927  0.1348 -0.6743
  888MOL0     C17088   4.742   6.561   6.139  0.0779  0.1143 -0.1571
  888MOL0     C17089   4.857   6.599   6.198 -0.9764 -0.9536  1.2361
  888MOL0     C17090   4.979   6.527   6.173  0.1197  0.1416 -0.4530
  888MOL0     C17091   4.976   6.396   6.116  0.9023 -0.2925 -0.1803
  888MOL0     O17092   5.076   6.303   6.109  0.2414  0.1958  0.0209
  888MOL0     C17093   5.206   6.354   6.129 -0.3965 -1.2764 -0.3753
  888MOL0     C17094   5.254   6.441   6.006  0.4402  0.6665  0.2175
  888MOL0     C17095   5.300   6.344   5.898 -0.4413  0.4144  0.6703
  888MOL0     C17096   5.441   6.276   5.906  0.6194  0.7984 -0.9868
  888MOL0     C17097   5.452   6.179   5.790  0.2763 -0.2031 -0.5962
  888MOL0     C17098   5.568   6.078   5.813 -0.0878 -0.1188  0.3141
  888MOL0     C17099   5.580   5.982   5.690 -0.9271  0.8178  0.4384
  888MOL0     C17100   5.700   5.885   5.714  0.3730  0.5410 -0.2269
  888MOL0     N17101   5.673   5.788   5.823 -0.9409 -0.1082 -0.5944
  888MOL0     C17102   5.582   5.684   5.822 -0.2810  0.4458  0.0555
  888MOL0     C17103   5.605   5.629   5.942 -0.6074  0.3304 -0.1493
  888MOL0     C17104   5.551   5.499   6.003 -1.1638  0.1883  0.0123
  888MOL0     C17105   5.574   5.387   5.901 -0.2564 -0.3007  0.6143
  888MOL0     C17106   5.522   5.251   5.932  0.2148  0.0462 -0.1971
  888MOL0     C17107   5.372   5.236   5.879  0.0942 -0.5025 -0.0478
  888MOL0     O17108   5.279   5.329   5.949  0.1979 -0.7774 -0.9897
  888MOL0     C17109   5.165   5.360   5.881 -0.9684 -0.3010 -0.6012
  888MOL0     C17110   5.080   5.265   5.832  0.3555 -0.2779 -0.0863
  888MOL0     C17111   4.949   5.301   5.783  0.0904  0.0601 -0.5955
  888MOL0     C17112   4.895   5.422   5.809 -0.0470 -0.4843 -0.0542
  888MOL0     C17113   4.764   5.444   5.760 -0.2994  0.2202  0.3768
  888MOL0     O17114   4.758   5.570   5.713 -0.7020  0.3641 -0.0862
  888MOL0     C17115   4.641   5.624   5.677 -0.1320  0.5157 -0.3167
  888MOL0     C17116   4.616   5.693   5.569  0.1432 -1.2902  0.1315
  888MOL0     C17117   4.490   5.759   5.549  0.1983  0.3633 -0.0027
  888MOL0     C17118   4.384   5.761   5.640 -0.7039  0.4202  0.0713
  888MOL0     O17119   4.269   5.837   5.629  0.1152  0.0045  0.5384
  888MOL0     C17120   4.257   5.933   5.527  0.6892 -0.5925  0.4374
  888MOL0     C17121   4.112   6.001   5.535 -0.3612 -0.4771  0.1435
  888MOL0     C17122   4.101   6.106   5.419 -0.7229 -1.0085 -0.0341
  888MOL0     C17123   3.963   6.167   5.424  0.3586 -0.0838  0.6966
  888MOL0     C17124   3.939   6.288   5.326 -0.5270 -0.1509 -0.1507
  888MOL0     C17125   3.788   6.328   5.311 -0.0521  0.5182  0.3001
  888MOL0     C17126   3.715   6.353   5.445  1.4589  0.3416  0.3116
  888MOL0     C17127   3.619   6.230   5.473 -0.1113 -0.7357 -0.0429
  888MOL0    Cl17128   3.700   6.096   5.569  0.2609  0.0922  0.3727
  888MOL0     C17129   4.412   5.684   5.757  0.6733 -0.7912  0.3801
  888MOL0     C17130   4.538   5.627   5.774  0.3341  0.4606  0.3633
  888MOL0     O17131   4.671   5.367   5.767 -0.5715  0.7853 -0.1733
  888MOL0     C17132   4.981   5.516   5.871 -0.2337  0.9837 -0.5783
  888MOL0     C17133   5.120   5.487   5.909  0.7274  0.5031 -0.0581
  888MOL0     N17134   5.703   5.693   6.020  0.4744 -0.3255 -0.4841
  888MOL0     N17135   5.743   5.797   5.939 -0.2865  0.6174 -0.3789
  888MOL0     C17136   4.856   6.354   6.063  0.1776 -0.2543  0.4674
  888MOL0     C17137   4.739   6.433   6.072 -0.8225 -0.0996  0.7381
  888MOL0     C17138   4.407   6.720   6.121 -0.7529 -0.1830 -0.5006
  888MOL0     C17139   4.333   6.801   6.038  0.4332  1.1010  0.5951
  888MOL0     C17140   4.216   6.855   6.092  0.4997  0.7409  0.6285
  888MOL0     C17141   4.171   6.822   6.224 -0.0646  0.7098  0.0743
  888MOL0     O17142   4.050   6.864   6.270 -0.6162 -0.4249 -0.0796
  888MOL0     C17143   3.946   6.760   6.246  0.3876 -0.5814 -0.1660
  888MOL0     C17144   3.877   6.730   6.380 -0.7659 -0.1367  0.4319
  888MOL0     C17145   3.790   6.843   6.441 -0.0971  0.0468  0.1810
  888MOL0     C17146   3.695   6.781   6.531  0.7220  0.5903 -1.0861
  888MOL0     C17147   3.602   6.870   6.594 -0.1867 -1.0104  1.3976
  888MOL0     C17148   3.533   6.938   6.659  0.1911  0.1740  0.0561
  888MOL0     C17149   4.250   6.738   6.301 -0.6608 -0.3430  0.7599
  888MOL0     C17150   4.366   6.685   6.252 -0.7217 -0.0362  0.5091
  888MOL0     H17151   4.866   6.688   6.259 -0.9583  0.2207 -0.3957
  888MOL0     H17152   5.072   6.575   6.200 -0.5236  3.1821 -3.1093
  888MOL0     H17153   5.271   6.274   6.165  0.6598 -0.0369  0.6061
  888MOL0     H17154   5.204   6.425   6.212 -1.8889  0.5370 -1.8527
  888MOL0     H17155   5.338   6.506   6.033  2.8392 -2.4553  0.9484
  888MOL0     H17156   5.173   6.504   5.968 -0.3064 -0.5415 -0.2404
  888MOL0     H17157   5.310   6.408   5.810  2.1563 -1.8429 -0.8218
  888MOL0     H17158   5.215   6.276   5.885  0.9802 -1.5296  1.2167
  888MOL0     H17159   5.513   6.356   5.884  2.8083 -0.1657  1.9271
  888MOL0     H17160   5.460   6.233   6.005 -0.9688  3.9283  0.8313
  888MOL0     H17161   5.475   6.223   5.693  1.9409 -2.1298 -1.1408
  888MOL0     H17162   5.357   6.123   5.789  1.0950 -1.6364 -1.7162
  888MOL0     H17163   5.564   6.026   5.909  3.9120 -1.4729 -0.0718
  888MOL0     H17164   5.671   6.114   5.821  0.3931 -1.7919  2.7857
  888MOL0     H17165   5.482   5.938   5.670 -1.9568  2.9208  0.5842
  888MOL0     H17166   5.603   6.046   5.604 -0.2335  4.4161  3.0464
  888MOL0     H17167   5.787   5.945   5.741  2.1430 -0.7129 -2.8090
  888MOL0     H17168   5.720   5.818   5.630 -4.2519  0.7731 -1.8261
  888MOL0     H17169   5.517   5.654   5.740 -0.5333  1.1388 -0.0121
  888MOL0     H17170   5.444   5.508   6.023 -1.1448 -2.7403  2.3136
  888MOL0     H17171   5.595   5.469   6.099  0.1780 -0.3879 -0.7683
  888MOL0     H17172   5.682   5.381   5.892 -0.1932  2.4247 -2.4430
  888MOL0     H17173   5.534   5.414   5.802 -2.3021 -0.4960  1.3398
  888MOL0     H17174   5.585   5.177   5.883  0.4095 -1.1529  1.7671
  888MOL0     H17175   5.522   5.245   6.041 -4.0027 -0.1333 -0.0544
  888MOL0     H17176   5.341   5.134   5.903  1.0506 -0.8157 -0.0828
  888MOL0     H17177   5.359   5.256   5.773  0.9479  1.4855  0.1942
  888MOL0     H17178   5.115   5.163   5.842  1.1372  0.1237  1.4982
  888MOL0     H17179   4.883   5.222   5.747 -1.2467  0.7318  0.2847
  888MOL0     H17180   4.701   5.716   5.505 -0.0420 -1.3954 -0.1528
  888MOL0     H17181   4.490   5.824   5.462 -1.2181 -1.2142 -1.2620
  888MOL0     H17182   4.270   5.885   5.430  2.6369  0.4571  0.1344
  888MOL0     H17183   4.339   6.005   5.538 -0.0696  0.4781 -0.5765
  888MOL0     H17184   4.094   6.048   5.632 -2.5469  2.3743 -1.5057
  888MOL0     H17185   4.033   5.926   5.526 -2.2080  1.2107  1.6318
  888MOL0     H17186   4.106   6.057   5.322  1.6423  0.6615 -0.8689
  888MOL0     H17187   4.178   6.184   5.424 -0.5392 -0.8631 -3.2551
  888MOL0     H17188   3.889   6.093   5.395 -0.5156 -0.3117  3.2917
  888MOL0     H17189   3.943   6.202   5.526 -2.6354 -1.8825  0.8222
  888MOL0     H17190   3.988   6.247   5.237  1.4169  0.3277  0.6517
  888MOL0     H17191   4.000   6.373   5.358  0.0412  0.4648 -2.6618
  888MOL0     H17192   3.734   6.249   5.257 -3.1907  1.5867  1.6275
  888MOL0     H17193   3.780   6.418   5.249 -2.4721  0.4918  0.4570
  888MOL0     H17194   3.783   6.369   5.529  2.0203 -0.9361  0.1178
  888MOL0     H17195   3.654   6.443   5.435  1.8350  0.3735 -3.4077
  888MOL0     H17196   3.579   6.200   5.375 -0.0013  1.9865 -1.0045
  888MOL0     H17197   3.539   6.270   5.535  0.5559 -0.7802  0.8538
  888MOL0     H17198   4.334   5.676   5.833  1.1895 -0.6050  0.9334
  888MOL0     H17199   4.550   5.571   5.866  1.2714 -0.0648 -0.0742
  888MOL0     H17200   4.931   5.606   5.905 -2.6381 -0.2859 -0.5558
  888MOL0     H17201   5.175   5.556   5.973 -0.2088 -1.9923  3.8147
  888MOL0     H17202   4.843   6.262   6.008  2.7905  0.2632 -1.2362
  888MOL0     H17203   4.645   6.396   6.030 -0.9204  1.6149 -0.6682
  888MOL0     H17204   4.367   6.823   5.938  2.0175 -2.6968  0.1233
  888MOL0     H17205   4.160   6.926   6.033 -0.5108 -0.2925  0.3115
  888MOL0     H17206   3.989   6.669   6.205  0.9016 -0.8478  0.9355
  888MOL0     H17207   3.872   6.809   6.181  0.2562  3.8104  2.7867
  888MOL0     H17208   3.814   6.644   6.359  0.8823 -0.9050 -1.7216
  888MOL0     H17209   3.945   6.695   6.459 -1.4657  0.0329  1.1183
  888MOL0     H17210   3.744   6.893   6.355  1.6692  0.8232 -0.3654
  888MOL0     H17211   3.855   6.909   6.498 -2.9405  2.4289  0.9249
  888MOL0     H17212   3.643   6.708   6.468  1.7365  1.6359 -3.2417
  888MOL0     H17213   3.758   6.726   6.602  1.6694  0.4855 -1.9932
  888MOL0     H17214   3.467   6.998   6.719 -0.0625  1.1445 -1.1212
  888MOL0     H17215   4.222   6.707   6.401 -2.4381  2.1178  1.1119
  888MOL0     H17216   4.439   6.632   6.312  1.2714  1.0076 -0.8644
  889MOL0     O17217   3.792   5.288   7.588  1.1237  0.1074  0.8367
  889MOL0     C17218   3.697   5.216   7.561  0.7886 -0.9276  0.3070
  889MOL0     O17219   3.701   5.084   7.562  0.1398  0.0164 -0.3997
  889MOL0     C17220   3.801   5.017   7.627 -0.1403 -0.3665 -0.5094
  889MOL0     C17221   3.816   4.883   7.603 -0.6158 -0.5968  1.0411
  889MOL0     C17222   3.908   4.804   7.665  0.7080  0.5824  0.0051
  889MOL0     C17223   3.983   4.858   7.774  0.1291  0.2116  0.8070
  889MOL0     O17224   4.050   4.760   7.845  0.4105 -0.5624  0.0046
  889MOL0     C17225   4.187   4.787   7.899  0.2821 -0.5409  0.3817
  889MOL0     C17226   4.208   4.699   8.023  0.6569  0.2927 -0.2507
  889MOL0     C17227   4.120   4.744   8.139  0.8178  0.4194  0.2352
  889MOL0     C17228   4.137   4.667   8.266 -0.5083  0.1848  0.7119
  889MOL0     C17229   4.034   4.694   8.375 -0.1814 -0.2498  0.1867
  889MOL0     C17230   4.033   4.829   8.423  0.1954  0.6502 -0.5875
  889MOL0     C17231   3.926   4.850   8.535 -0.3322 -0.1501 -0.1270
  889MOL0     C17232   3.984   4.936   8.654 -0.2844  0.6057 -0.4570
  889MOL0     N17233   4.026   5.073   8.630 -0.2949  0.1954  0.1471
  889MOL0     C17234   4.149   5.113   8.586  0.6432 -0.5941 -0.2582
  889MOL0     C17235   4.134   5.247   8.577  0.5276  0.3494 -0.2761
  889MOL0     C17236   4.223   5.352   8.535 -1.0581 -0.3539  0.3004
  889MOL0     C17237   4.265   5.331   8.390 -0.1298 -0.3457 -0.1271
  889MOL0     C17238   4.368   5.447   8.359  0.4382  0.5308  0.0911
  889MOL0     C17239   4.442   5.409   8.227 -0.4729  0.5114  0.3025
  889MOL0     O17240   4.533   5.516   8.198  0.1871 -0.4110  0.6747
  889MOL0     C17241   4.507   5.593   8.088  0.4414 -0.6351 -0.6011
  889MOL0     C17242   4.494   5.739   8.113 -1.2664  0.0888 -0.3407
  889MOL0     C17243   4.459   5.814   7.999 -0.2905  0.6491 -0.0214
  889MOL0     C17244   4.438   5.766   7.871 -0.0200  0.1036  0.0313
  889MOL0     C17245   4.397   5.845   7.751  0.1335  0.0594  0.7230
  889MOL0     O17246   4.423   5.797   7.620  0.3970 -0.2970  0.5085
  889MOL0     C17247   4.359   5.850   7.502 -0.8719  0.4546 -0.9715
  889MOL0     C17248   4.409   5.787   7.393  0.2663 -0.3032  0.5661
  889MOL0     C17249   4.356   5.821   7.264  0.5958  0.3282 -0.6189
  889MOL0     C17250   4.247   5.915   7.259 -0.7388  1.1717  0.2842
  889MOL0     O17251   4.211   5.940   7.125 -0.4076 -0.3136  0.2396
  889MOL0     C17252   4.188   6.080   7.096  0.3550 -0.4570  0.6088
  889MOL0     C17253   4.070   6.108   7.003  0.9622 -0.6489  0.3265
  889MOL0     C17254   3.930   6.054   7.025 -0.1042 -0.0532  0.0978
  889MOL0     C17255   3.835   6.090   6.907 -1.0457  0.3561 -1.2340
  889MOL0     C17256   3.689   6.061   6.943  0.6116  0.3554  0.3712
  889MOL0     C17257   3.652   5.913   6.969  0.2020 -0.4960  0.8477
  889MOL0     C17258   3.509   5.914   7.045 -0.3470 -1.1088  0.5062
  889MOL0     C17259   3.471   5.784   7.121 -0.3827 -1.1510  1.1344
  889MOL0    Cl17260   3.337   5.821   7.229 -0.4049 -0.0922  0.0520
  889MOL0     C17261   4.186   5.973   7.371 -0.3979  0.1578 -0.0796
  889MOL0     C17262   4.243   5.938   7.494 -0.0755  1.7291  1.1696
  889MOL0     O17263   4.325   5.935   7.781 -0.6739  0.1494  0.7231
  889MOL0     C17264   4.468   5.635   7.859  0.4662  0.3688 -0.3834
  889MOL0     C17265   4.493   5.544   7.962  0.1447  0.2882  0.3008
  889MOL0     N17266   4.009   5.289   8.618 -0.8536 -0.0906 -0.2393
  889MOL0     N17267   3.944   5.178   8.640 -0.1138  0.4519 -0.0784
  889MOL0     C17268   3.979   4.994   7.802  0.2208  0.1830  0.1742
  889MOL0     C17269   3.885   5.072   7.732 -0.2704  0.9251 -0.2982
  889MOL0     C17270   3.588   5.274   7.474 -0.2970 -0.7093  0.4628
  889MOL0     C17271   3.469   5.201   7.439 -0.5000  0.0608 -0.4697
  889MOL0     C17272   3.371   5.271   7.373 -0.6123 -0.1384 -0.0808
  889MOL0     C17273   3.385   5.401   7.324 -0.7320 -0.1296 -0.2948
  889MOL0     O17274   3.282   5.469   7.256 -0.1893  0.1293 -0.0168
  889MOL0     C17275   3.147   5.414   7.244 -0.5172 -0.2007  0.0738
  889MOL0     C17276   3.051   5.515   7.171 -0.0652  0.5225 -0.2204
  889MOL0     C17277   3.016   5.642   7.259 -0.8320  0.0087 -0.4705
  889MOL0     C17278   2.905   5.731   7.197 -0.0307  0.0218  0.3586
  889MOL0     C17279   2.955   5.840   7.109 -0.8355 -0.0914 -0.1250
  889MOL0     C17280   2.985   5.921   7.020  0.4428  0.4137 -0.2815
  889MOL0     C17281   3.508   5.467   7.350  1.4350  0.2142  0.8126
  889MOL0     C17282   3.598   5.409   7.434 -0.2337 -0.2804  0.3951
  889MOL0     H17283   3.776   4.831   7.517 -1.3190  1.2532  0.1888
  889MOL0     H17284   3.914   4.697   7.650  2.0381  0.5797  0.4608
  889MOL0     H17285   4.210   4.893   7.915  0.8137 -0.6110  0.0887
  889MOL0     H17286   4.244   4.744   7.816 -4.5721 -3.5149 -1.8767
  889MOL0     H17287   4.306   4.731   8.058  1.2765 -1.1450 -0.5954
  889MOL0     H17288   4.195   4.594   7.992 -0.4562  0.7660 -1.4708
  889MOL0     H17289   4.017   4.736   8.103  1.1206  1.5408 -0.9897
  889MOL0     H17290   4.147   4.848   8.160 -1.5313  1.2877 -0.6846
  889MOL0     H17291   4.121   4.560   8.251  0.9724 -0.2386  2.0051
  889MOL0     H17292   4.239   4.688   8.300  0.1188 -0.9988 -0.3405
  889MOL0     H17293   4.059   4.631   8.461 -1.9313 -1.5525 -0.2014
  889MOL0     H17294   3.931   4.671   8.347 -1.1288  1.8053  1.7828
  889MOL0     H17295   4.019   4.892   8.334  4.6578  0.5831 -1.5992
  889MOL0     H17296   4.133   4.842   8.466 -0.6990 -1.8664  2.6264
  889MOL0     H17297   3.837   4.898   8.493 -1.1444  0.7178  2.3721
  889MOL0     H17298   3.902   4.747   8.560 -3.2047 -0.1093 -2.2075
  889MOL0     H17299   4.063   4.884   8.709 -0.3055  2.4609  1.4728
  889MOL0     H17300   3.906   4.954   8.729  2.1326  2.5131  1.7925
  889MOL0     H17301   4.232   5.047   8.562  0.6151 -0.8920  0.4417
  889MOL0     H17302   4.316   5.351   8.594 -2.3992  0.2671  2.5537
  889MOL0     H17303   4.184   5.448   8.571  0.3017 -0.4817  2.3043
  889MOL0     H17304   4.177   5.332   8.325 -0.5436 -0.5226  0.4227
  889MOL0     H17305   4.315   5.234   8.384  2.7253  1.1153 -2.9935
  889MOL0     H17306   4.313   5.541   8.357 -1.4536 -0.4591  1.7282
  889MOL0     H17307   4.446   5.464   8.435 -1.7847  1.4638  2.3232
  889MOL0     H17308   4.371   5.378   8.150 -0.2899  2.7864 -0.8596
  889MOL0     H17309   4.502   5.322   8.255 -0.0596  0.0092 -1.9418
  889MOL0     H17310   4.523   5.786   8.207  1.1381 -0.4455 -0.7465
  889MOL0     H17311   4.457   5.922   8.010  0.4391  0.8488 -1.6883
  889MOL0     H17312   4.488   5.720   7.425 -0.3463 -0.4097  1.9244
  889MOL0     H17313   4.396   5.781   7.171 -0.4412  0.0235 -0.9478
  889MOL0     H17314   4.282   6.118   7.055 -1.4028  2.1997 -1.3251
  889MOL0     H17315   4.171   6.141   7.185  0.9634 -2.0732  1.8902
  889MOL0     H17316   4.099   6.064   6.907  0.5301 -1.0423  0.3698
  889MOL0     H17317   4.062   6.217   6.990 -1.2396 -0.6599  1.1659
  889MOL0     H17318   3.894   6.080   7.125  1.3709  1.3781  0.2934
  889MOL0     H17319   3.932   5.944   7.027 -0.5919 -0.1376 -2.1395
  889MOL0     H17320   3.855   6.195   6.883  1.6857 -0.1913 -1.6236
  889MOL0     H17321   3.862   6.043   6.812 -1.5368  0.7751 -1.5919
  889MOL0     H17322   3.623   6.117   6.876 -1.7340  0.4262  2.5890
  889MOL0     H17323   3.681   6.099   7.045  1.9657  2.8863 -0.3895
  889MOL0     H17324   3.728   5.864   7.029 -0.1670  1.1782  2.8159
  889MOL0     H17325   3.637   5.851   6.880 -1.9369 -1.8015  2.0367
  889MOL0     H17326   3.519   5.991   7.122  1.6093  2.0522 -2.6078
  889MOL0     H17327   3.432   5.944   6.973  0.4842  2.2260  0.8064
  889MOL0     H17328   3.561   5.762   7.179 -0.2563  0.6897  1.7150
  889MOL0     H17329   3.449   5.700   7.055  2.3234 -2.2529  1.5328
  889MOL0     H17330   4.098   6.036   7.361 -0.1340  0.9026  1.8758
  889MOL0     H17331   4.188   5.964   7.584 -2.5830  2.8783 -0.6009
  889MOL0     H17332   4.474   5.588   7.761  0.1828 -1.2165  0.3216
  889MOL0     H17333   4.517   5.442   7.931 -0.8515  1.0824 -3.5185
  889MOL0     H17334   4.042   5.027   7.884  0.7168 -0.1718 -0.0539
  889MOL0     H17335   3.887   5.175   7.766  0.3781  2.4003 -4.2806
  889MOL0     H17336   3.465   5.094   7.457  0.5286 -0.3822 -2.5704
  889MOL0     H17337   3.277   5.221   7.351 -1.1634  0.9262 -0.2302
  889MOL0     H17338   3.094   5.398   7.338 -3.6298  2.0102 -1.1037
  889MOL0     H17339   3.149   5.324   7.183 -2.4661 -2.5849  3.2435
  889MOL0     H17340   3.104   5.530   7.076  3.6133  1.0181  1.7378
  889MOL0     H17341   2.956   5.463   7.156  0.1983  0.2486 -0.9937
  889MOL0     H17342   3.111   5.692   7.279  0.4673 -1.7733 -1.8422
  889MOL0     H17343   2.983   5.598   7.354 -0.9206  1.6701  0.3023
  889MOL0     H17344   2.813   5.688   7.156 -0.9435  0.5924  1.6901
  889MOL0     H17345   2.868   5.773   7.292 -0.9478 -1.6713  0.7910
  889MOL0     H17346   3.017   5.979   6.936 -0.3068 -1.1296 -1.6898
  889MOL0     H17347   3.525   5.571   7.321  5.0432 -0.1340  1.2518
  889MOL0     H17348   3.692   5.461   7.452 -1.8027  2.0166  2.5765
  890MOL0     O17349   8.883   3.872   4.032  0.1901 -0.5112 -0.1022
  890MOL0     C17350   8.902   3.914   4.149 -0.4702 -0.1394  0.9524
  890MOL0     O17351   8.803   3.946   4.230  0.3400  0.3718  0.4163
  890MOL0     C17352   8.674   3.959   4.183 -0.2384  1.3766  0.3539
  890MOL0     C17353   8.563   3.874   4.216  0.2135  0.0593  0.6717
  890MOL0     C17354   8.437   3.912   4.164  0.3779  0.8384  0.1624
  890MOL0     C17355   8.409   4.039   4.087 -0.1810  0.7122 -0.4830
  890MOL0     O17356   8.281   4.070   4.053  0.3738  0.0272  0.3791
  890MOL0     C17357   8.255   4.190   3.988 -0.4878  0.2435 -0.3795
  890MOL0     C17358   8.103   4.196   3.977 -0.5032 -0.0724 -0.1208
  890MOL0     C17359   8.052   4.084   3.875  0.1904  0.0641  0.5254
  890MOL0     C17360   7.898   4.061   3.892 -0.0082 -0.9312  0.8308
  890MOL0     C17361   7.811   4.180   3.847  0.4175  0.0522  0.1413
  890MOL0     C17362   7.664   4.138   3.841 -0.2477  1.2100  0.8371
  890MOL0     C17363   7.634   4.047   3.723 -0.2057  0.6504 -0.6248
  890MOL0     C17364   7.479   4.020   3.698 -0.4565 -0.3933 -0.1689
  890MOL0     N17365   7.468   3.972   3.562 -0.3386  0.9450  0.5157
  890MOL0     C17366   7.423   4.042   3.454 -0.3607 -0.0984 -0.4876
  890MOL0     C17367   7.408   3.948   3.357 -0.6385 -0.1707 -0.0012
  890MOL0     C17368   7.346   3.985   3.223 -0.2188  0.1014 -0.3912
  890MOL0     C17369   7.204   3.926   3.216  0.0952 -0.4823  0.2113
  890MOL0     C17370   7.159   3.918   3.079  0.1314  0.0544  0.5110
  890MOL0     C17371   7.020   3.862   3.068 -0.4296  0.2446 -0.1851
  890MOL0     O17372   7.020   3.720   3.068 -0.1257  0.4203  0.2336
  890MOL0     C17373   7.069   3.650   2.967 -0.0090 -0.9067 -0.7947
  890MOL0     C17374   7.186   3.581   2.988  0.0011  1.0198  0.5702
  890MOL0     C17375   7.244   3.508   2.886 -0.6811  1.0947  1.2033
  890MOL0     C17376   7.182   3.492   2.765 -0.0167 -0.5455  0.6176
  890MOL0     C17377   7.239   3.409   2.652 -0.7286 -0.0528 -0.2917
  890MOL0     O17378   7.367   3.354   2.669 -0.5259  0.1167 -0.6891
  890MOL0     C17379   7.431   3.297   2.565  0.4242 -0.1447 -0.0289
  890MOL0     C17380   7.496   3.175   2.588  0.5617  0.5502  0.0759
  890MOL0     C17381   7.546   3.097   2.479  0.6591 -0.8347  0.0128
  890MOL0     C17382   7.539   3.160   2.351 -0.1650  0.0634 -1.0416
  890MOL0     O17383   7.590   3.104   2.241  0.0802  0.4271 -1.1664
  890MOL0     C17384   7.719   3.036   2.259  0.0683  0.6551  0.5307
  890MOL0     C17385   7.776   3.022   2.121 -1.1882  0.0962  0.3324
  890MOL0     C17386   7.705   2.950   2.014  0.8837  0.1002  0.5859
  890MOL0     C17387   7.794   2.928   1.890  0.3738 -0.4180 -0.3031
  890MOL0     C17388   7.697   2.903   1.773  0.1716 -0.2036 -0.7855
  890MOL0     C17389   7.768   2.892   1.634  0.1592  0.2815  0.6494
  890MOL0     C17390   7.852   2.763   1.624  0.1846 -1.0540 -0.5346
  890MOL0     C17391   7.900   2.726   1.489  0.1124 -0.1057 -0.4396
  890MOL0    Cl17392   8.013   2.588   1.528 -0.1632  0.1515 -0.1460
  890MOL0     C17393   7.480   3.289   2.330  0.7901  0.1812  0.3734
  890MOL0     C17394   7.425   3.355   2.434 -0.0182  1.1299 -0.1634
  890MOL0     O17395   7.175   3.406   2.548 -0.4939 -0.6104  0.1669
  890MOL0     C17396   7.063   3.558   2.748 -0.1028 -0.6401 -1.3803
  890MOL0     C17397   7.010   3.643   2.841  0.2266  0.1711 -0.0040
  890MOL0     N17398   7.458   3.827   3.397 -0.1373  0.0863  0.0334
  890MOL0     N17399   7.492   3.845   3.521  0.9352 -0.3642 -0.8823
  890MOL0     C17400   8.523   4.120   4.061  0.8417 -0.2557 -0.3010
  890MOL0     C17401   8.651   4.071   4.101 -0.9436  0.1435 -1.3825
  890MOL0     C17402   9.036   3.945   4.182  0.1581 -0.0741  0.3894
  890MOL0     C17403   9.073   3.990   4.302 -1.1672 -0.1448 -0.0853
  890MOL0     C17404   9.206   4.008   4.349 -0.1629  0.3512  0.1651
  890MOL0     C17405   9.313   3.969   4.262 -0.2602 -0.2930 -0.2048
  890MOL0     O17406   9.453   3.996   4.279  1.4194 -0.4647 -0.6548
  890MOL0     C17407   9.475   4.046   4.408  0.4300 -0.1091 -0.0209
  890MOL0     C17408   9.626   4.049   4.451  0.5015 -0.5011  0.2394
  890MOL0     C17409   9.680   3.907   4.450  0.2983  0.9024  0.5615
  890MOL0     C17410   9.836   3.880   4.480 -0.3156 -0.1869  0.2033
  890MOL0     C17411   9.868   3.965   4.602  0.1475  0.3856  0.1923
  890MOL0     C17412   9.921   4.023   4.698 -0.2087  0.2825 -0.1843
  890MOL0     C17413   9.281   3.919   4.138 -0.1926 -0.3697  1.2677
  890MOL0     C17414   9.142   3.906   4.100  0.1079  0.1080 -0.4344
  890MOL0     H17415   8.572   3.772   4.251 -0.3320 -0.9868 -2.0354
  890MOL0     H17416   8.348   3.850   4.173  0.3921  0.0020 -3.5900
  890MOL0     H17417   8.304   4.182   3.891  0.7826  1.5512  0.1162
  890MOL0     H17418   8.301   4.271   4.046 -2.7840  0.9080  0.6710
  890MOL0     H17419   8.065   4.296   3.957 -4.0489 -0.7114  2.3797
  890MOL0     H17420   8.064   4.179   4.078  0.8568  0.8077  0.5806
  890MOL0     H17421   8.106   3.991   3.896  0.1953  0.6792  3.8564
  890MOL0     H17422   8.079   4.111   3.773  0.6600  1.5516  1.0090
  890MOL0     H17423   7.878   3.967   3.840 -1.9595 -0.3159  0.3782
  890MOL0     H17424   7.862   4.036   3.993 -2.8822 -2.2543 -0.4116
  890MOL0     H17425   7.847   4.218   3.750  0.9814  3.0153  1.4049
  890MOL0     H17426   7.830   4.262   3.916  1.9686 -1.2291  1.3010
  890MOL0     H17427   7.596   4.223   3.831 -1.1646  0.2783 -1.5430
  890MOL0     H17428   7.623   4.095   3.932 -0.5046  1.7347  0.9731
  890MOL0     H17429   7.676   4.098   3.636  2.1667 -1.1863 -0.6719
  890MOL0     H17430   7.682   3.950   3.741 -2.5744 -0.1797  1.9999
  890MOL0     H17431   7.417   4.108   3.718  1.0051 -0.1178  4.2496
  890MOL0     H17432   7.457   3.939   3.768 -2.8824  0.6184  0.3562
  890MOL0     H17433   7.396   4.147   3.451 -3.1975 -0.7528 -0.5850
  890MOL0     H17434   7.413   3.953   3.144  1.2080  1.1669  0.3435
  890MOL0     H17435   7.331   4.091   3.201 -2.0476 -0.4209 -1.9873
  890MOL0     H17436   7.137   3.974   3.287 -0.1102 -0.3015 -0.1009
  890MOL0     H17437   7.212   3.828   3.264 -1.6475 -0.7565  0.0229
  890MOL0     H17438   7.152   4.015   3.028 -3.7872  0.5398  1.6146
  890MOL0     H17439   7.232   3.865   3.017 -0.7065 -1.2356  0.5917
  890MOL0     H17440   6.988   3.897   2.970  1.6208 -0.3903 -1.1394
  890MOL0     H17441   6.957   3.905   3.147 -1.2667 -1.4302  0.0921
  890MOL0     H17442   7.241   3.595   3.080  2.0718 -1.1227 -0.2303
  890MOL0     H17443   7.342   3.460   2.893 -1.7114 -1.3508 -0.1763
  890MOL0     H17444   7.507   3.123   2.682  0.5328 -1.6784 -1.0771
  890MOL0     H17445   7.606   3.009   2.500  2.4049  0.8627  2.6226
  890MOL0     H17446   7.703   2.931   2.289  0.4258  0.4152 -0.1203
  890MOL0     H17447   7.783   3.084   2.334  1.1492 -2.7037  1.9705
  890MOL0     H17448   7.874   2.975   2.135 -1.9567 -1.1701  1.7229
  890MOL0     H17449   7.803   3.124   2.091  3.1342 -1.4337 -1.8229
  890MOL0     H17450   7.615   3.007   1.989  0.5013 -0.0787  1.5150
  890MOL0     H17451   7.684   2.852   2.058  1.3297 -0.0021  0.5741
  890MOL0     H17452   7.854   3.018   1.873 -1.3162  1.0411  1.0201
  890MOL0     H17453   7.858   2.839   1.891 -2.0556 -2.2852 -0.3623
  890MOL0     H17454   7.631   2.990   1.769 -1.5144 -1.4705 -4.2637
  890MOL0     H17455   7.639   2.816   1.805  4.3393 -1.8536  3.5444
  890MOL0     H17456   7.829   2.978   1.607 -0.7627  1.3337  1.7569
  890MOL0     H17457   7.693   2.880   1.555 -3.2323 -0.2250  3.7006
  890MOL0     H17458   7.937   2.789   1.687 -0.4517  2.0886 -0.8137
  890MOL0     H17459   7.792   2.677   1.656 -1.6538 -0.3270 -1.8519
  890MOL0     H17460   7.943   2.816   1.444 -1.1062  1.5487  1.5263
  890MOL0     H17461   7.826   2.688   1.418 -0.0075 -0.7023 -0.0074
  890MOL0     H17462   7.487   3.321   2.227  0.1115 -0.8201  0.0004
  890MOL0     H17463   7.369   3.443   2.405  1.3251  1.9721 -0.3073
  890MOL0     H17464   7.019   3.578   2.651  1.6617  0.2901 -2.0326
  890MOL0     H17465   6.915   3.693   2.826 -0.9237 -1.0419  2.6829
  890MOL0     H17466   8.511   4.222   4.024 -2.8442 -1.3770 -2.7349
  890MOL0     H17467   8.736   4.136   4.084 -2.5270  2.6655 -0.1440
  890MOL0     H17468   8.993   4.013   4.372 -1.6090 -1.1432 -0.2367
  890MOL0     H17469   9.214   4.044   4.451 -0.1665 -1.4314  0.8276
  890MOL0     H17470   9.420   3.991   4.485  2.4977  1.3265  2.6540
  890MOL0     H17471   9.444   4.151   4.407  0.4687 -0.0983 -0.5420
  890MOL0     H17472   9.676   4.115   4.378 -0.4149 -0.7101 -0.6069
  890MOL0     H17473   9.636   4.106   4.544  3.0251  1.7897 -1.2841
  890MOL0     H17474   9.648   3.871   4.352  0.6847  3.0475 -0.4275
  890MOL0     H17475   9.627   3.846   4.523 -0.8280 -1.0970 -1.7776
  890MOL0     H17476   9.851   3.775   4.503  0.6856 -0.5547 -1.8368
  890MOL0     H17477   9.900   3.913   4.397 -0.8158  2.2167  0.6996
  890MOL0     H17478   9.953   4.065   4.791 -3.9504  2.2052  0.4217
  890MOL0     H17479   9.358   3.892   4.066 -0.0350 -0.0079  1.2994
  890MOL0     H17480   9.120   3.870   4.000 -3.2715  2.9579 -0.8896
  891MOL0     O17481   2.369  10.687   2.580  0.3226 -0.1480 -0.1051
  891MOL0     C17482   2.446  10.765   2.533  0.4477 -0.1336 -1.0335
  891MOL0     O17483   2.426  10.901   2.525  0.9381  0.4808  0.5534
  891MOL0     C17484   2.305  10.968   2.535  0.5265  0.4183 -0.4514
  891MOL0     C17485   2.175  10.910   2.547 -0.8681 -0.2034  0.3733
  891MOL0     C17486   2.056  10.985   2.547  0.6843 -0.0985  0.5390
  891MOL0     C17487   2.073  11.121   2.542 -0.1471  0.3202 -0.2776
  891MOL0     O17488   1.962  11.207   2.558 -0.3788  1.2767 -0.2016
  891MOL0     C17489   1.925  11.299   2.456  0.5331  0.5618 -0.2180
  891MOL0     C17490   1.774  11.292   2.451 -0.6893  0.8547 -1.4104
  891MOL0     C17491   1.708  11.388   2.354 -0.7370  0.6494  0.4270
  891MOL0     C17492   1.716  11.350   2.211 -0.2969  0.4151  0.7087
  891MOL0     C17493   1.661  11.473   2.130  0.3515 -0.5940 -0.3090
  891MOL0     C17494   1.763  11.582   2.104 -0.0510  0.3669  0.8245
  891MOL0     C17495   1.884  11.537   2.017 -0.4004 -0.2103 -0.5581
  891MOL0     C17496   1.853  11.463   1.895 -0.5322  0.0237 -1.0749
  891MOL0     N17497   1.750  11.519   1.806  0.4553 -0.2919 -0.8254
  891MOL0     C17498   1.761  11.642   1.758  0.2104  0.2606 -0.4318
  891MOL0     C17499   1.649  11.662   1.683 -0.2367  0.5224  0.3574
  891MOL0     C17500   1.597  11.778   1.604 -1.1611 -0.9666 -0.0324
  891MOL0     C17501   1.498  11.848   1.701 -1.0702 -0.0284 -0.1691
  891MOL0     C17502   1.426  11.969   1.636 -0.3408  0.0232 -0.8619
  891MOL0     C17503   1.339  12.054   1.727 -0.1242 -0.4680 -0.0735
  891MOL0     O17504   1.322  12.177   1.651  0.5094 -0.1303 -0.1657
  891MOL0     C17505   1.225  12.273   1.685  0.2945  1.1632  0.5554
  891MOL0     C17506   1.157  12.283   1.815  0.0743  0.5194  0.9626
  891MOL0     C17507   1.061  12.386   1.832  0.7309  0.8256  0.3343
  891MOL0     C17508   1.031  12.475   1.735  0.0786  0.1745  0.1833
  891MOL0     C17509   0.921  12.565   1.761  0.5194 -0.2614  0.1070
  891MOL0     O17510   0.872  12.563   1.884 -0.7682  0.0207  0.2198
  891MOL0     C17511   0.758  12.629   1.907  0.6864  0.1426 -0.3305
  891MOL0     C17512   0.722  12.760   1.871 -0.7094  0.4829  0.0372
  891MOL0     C17513   0.607  12.811   1.919  0.4046 -0.6633  0.6222
  891MOL0     C17514   0.515  12.745   2.005  0.0203 -0.0984 -0.7295
  891MOL0     O17515   0.400  12.804   2.053 -0.1200  0.2031  0.4032
  891MOL0     C17516   0.277  12.726   2.051 -0.4560 -0.5584 -0.8927
  891MOL0     C17517   0.169  12.814   2.102 -0.2565 -0.4274 -0.6413
  891MOL0     C17518   0.030  12.746   2.109 -0.2411 -0.2612  0.0867
  891MOL0     C17519  -0.078  12.849   2.119 -0.4271 -0.0596 -0.4716
  891MOL0     C17520  -0.218  12.795   2.102 -0.1667  0.8359  0.0312
  891MOL0     C17521  -0.328  12.891   2.067 -0.2145 -0.4552  0.7384
  891MOL0     C17522  -0.343  13.010   2.158  0.0269  0.2403  0.0605
  891MOL0     C17523  -0.469  13.095   2.117  0.8055  0.6692  0.2234
  891MOL0    Cl17524  -0.403  13.243   2.168 -0.2419  0.9812  0.1159
  891MOL0     C17525   0.563  12.623   2.050  0.4323 -0.2650 -0.1033
  891MOL0     C17526   0.679  12.573   2.006 -0.0752 -0.0700 -0.6764
  891MOL0     O17527   0.872  12.628   1.661  0.0571  0.7955  0.2379
  891MOL0     C17528   1.104  12.470   1.610  0.0499  0.2937  0.6048
  891MOL0     C17529   1.205  12.365   1.596 -0.1112  0.2411  0.5070
  891MOL0     N17530   1.594  11.534   1.676 -0.2678 -0.4174  0.4397
  891MOL0     N17531   1.659  11.442   1.741 -0.0677 -1.4073 -1.1436
  891MOL0     C17532   2.199  11.184   2.532  0.3485 -0.8773  0.1381
  891MOL0     C17533   2.317  11.103   2.520 -0.1183 -0.3413  0.0950
  891MOL0     C17534   2.573  10.718   2.500  1.1208 -0.7004 -0.0314
  891MOL0     C17535   2.612  10.583   2.505 -0.1529  0.4745 -0.2599
  891MOL0     C17536   2.740  10.544   2.483  0.6809  0.3847  0.6379
  891MOL0     C17537   2.838  10.635   2.448  1.1319 -0.5084  0.6924
  891MOL0     O17538   2.971  10.587   2.427  0.1420 -1.3103  0.1306
  891MOL0     C17539   3.070  10.664   2.500 -0.1030  0.3810 -0.5514
  891MOL0     C17540   3.191  10.571   2.504  0.4310  0.6926  0.5403
  891MOL0     C17541   3.158  10.444   2.577 -0.0066  0.4342 -0.5420
  891MOL0     C17542   3.286  10.356   2.602  0.3096  0.5934  0.3511
  891MOL0     C17543   3.251  10.207   2.622 -0.4335  0.1750  0.0327
  891MOL0     C17544   3.233  10.081   2.637  1.0606  0.1194  0.1139
  891MOL0     C17545   2.797  10.774   2.422 -0.4811  0.4719  1.1838
  891MOL0     C17546   2.665  10.820   2.448 -0.0342  0.5884 -0.2354
  891MOL0     H17547   2.170  10.802   2.561 -0.3875 -0.4916 -1.3631
  891MOL0     H17548   1.954  10.953   2.564  0.1267  1.7919  1.0282
  891MOL0     H17549   1.974  11.267   2.364  0.2485  0.3193 -0.2868
  891MOL0     H17550   1.959  11.402   2.473  2.0292  0.7702 -3.6428
  891MOL0     H17551   1.738  11.310   2.552  0.4352  1.9831 -1.1892
  891MOL0     H17552   1.751  11.191   2.415 -0.4790  1.2669 -2.7749
  891MOL0     H17553   1.749  11.489   2.366 -2.7772  1.3439  2.1329
  891MOL0     H17554   1.603  11.387   2.382 -1.4427  1.8305 -1.9309
  891MOL0     H17555   1.817  11.333   2.172  0.0597  0.1010  1.7408
  891MOL0     H17556   1.659  11.260   2.188  0.2743  0.5964 -1.6440
  891MOL0     H17557   1.575  11.513   2.185 -0.1957  0.3280 -1.7748
  891MOL0     H17558   1.625  11.435   2.034 -0.4176 -3.4425  0.9746
  891MOL0     H17559   1.819  11.620   2.190  0.5744  0.2781  0.4564
  891MOL0     H17560   1.710  11.669   2.064 -0.5336 -0.6904 -0.9311
  891MOL0     H17561   1.929  11.632   1.984 -1.3139  0.9939  1.4940
  891MOL0     H17562   1.960  11.491   2.080 -1.0893  1.5644  1.6981
  891MOL0     H17563   1.821  11.363   1.927  3.0992 -0.1872  2.8454
  891MOL0     H17564   1.948  11.451   1.842  0.2520  2.2759 -0.2602
  891MOL0     H17565   1.836  11.720   1.768 -1.0596  1.3349  1.2452
  891MOL0     H17566   1.549  11.744   1.512 -0.2584 -1.5118 -0.3177
  891MOL0     H17567   1.679  11.842   1.570 -1.3827 -0.0836  1.0485
  891MOL0     H17568   1.548  11.884   1.791 -2.9421  2.6756 -0.1201
  891MOL0     H17569   1.432  11.766   1.731 -0.4528 -0.1618  0.8448
  891MOL0     H17570   1.504  12.028   1.586 -0.9611  1.6881  0.0604
  891MOL0     H17571   1.356  11.932   1.561 -0.0155  0.3834 -1.3534
  891MOL0     H17572   1.400  12.066   1.817  0.4140 -3.8647  0.1547
  891MOL0     H17573   1.244  12.009   1.758 -1.6846  3.1834  1.1128
  891MOL0     H17574   1.189  12.226   1.902  3.0880  2.1325  1.0303
  891MOL0     H17575   1.005  12.377   1.924 -0.1478  0.4493 -0.2270
  891MOL0     H17576   0.787  12.822   1.810 -0.4488 -1.7163 -2.0842
  891MOL0     H17577   0.572  12.912   1.897  1.0598 -0.6626 -0.5155
  891MOL0     H17578   0.290  12.635   2.111  0.4337  0.9921  1.4150
  891MOL0     H17579   0.257  12.701   1.946 -0.5522  0.1943 -1.0572
  891MOL0     H17580   0.175  12.902   2.037  1.8355  0.4620  0.6417
  891MOL0     H17581   0.201  12.849   2.201 -0.1573 -2.0699 -0.0606
  891MOL0     H17582   0.034  12.679   2.195  0.5950 -0.0724  0.2057
  891MOL0     H17583   0.004  12.684   2.022  0.3811 -0.7736  0.2581
  891MOL0     H17584  -0.073  12.900   2.216 -4.1513  0.4555 -0.4193
  891MOL0     H17585  -0.052  12.923   2.043 -0.5586  0.0730 -0.3878
  891MOL0     H17586  -0.253  12.747   2.195 -2.8693 -1.6052 -2.0692
  891MOL0     H17587  -0.211  12.713   2.030  1.0450 -0.6419  1.7138
  891MOL0     H17588  -0.423  12.837   2.055 -1.3657  1.7953 -1.1754
  891MOL0     H17589  -0.298  12.930   1.969  0.3503  1.2740  1.5529
  891MOL0     H17590  -0.344  12.974   2.261  1.2944  0.0913  0.0392
  891MOL0     H17591  -0.252  13.067   2.141 -0.7438  1.0867 -1.4399
  891MOL0     H17592  -0.562  13.076   2.171  1.3465  0.9152  1.2815
  891MOL0     H17593  -0.490  13.086   2.010  0.0225  1.4303  0.3018
  891MOL0     H17594   0.497  12.562   2.112  0.8841 -0.6121  0.0360
  891MOL0     H17595   0.709  12.487   2.064  1.8229  0.5646 -0.6494
  891MOL0     H17596   1.090  12.537   1.525  4.8177  0.4158 -0.3956
  891MOL0     H17597   1.257  12.362   1.501 -0.7838  1.6896  0.0676
  891MOL0     H17598   2.203  11.293   2.525  0.9572 -0.8968  0.1435
  891MOL0     H17599   2.411  11.157   2.514 -1.4894  2.4558  1.6022
  891MOL0     H17600   2.542  10.502   2.524  1.2483 -2.6155 -5.8161
  891MOL0     H17601   2.763  10.438   2.486 -0.7461 -0.0385 -1.5115
  891MOL0     H17602   3.046  10.679   2.606  1.1136  1.4782 -0.3950
  891MOL0     H17603   3.087  10.759   2.449 -1.7064 -0.3455 -2.5807
  891MOL0     H17604   3.207  10.538   2.401 -0.0891 -1.6135  1.1367
  891MOL0     H17605   3.279  10.627   2.538 -0.0921  0.1713  2.9772
  891MOL0     H17606   3.076  10.389   2.530 -0.5877 -1.0193  1.9679
  891MOL0     H17607   3.126  10.471   2.678  2.0858 -0.8972  0.5552
  891MOL0     H17608   3.335  10.352   2.505 -2.7790 -1.2085 -1.3201
  891MOL0     H17609   3.352  10.397   2.678 -0.0511  0.8028  0.5551
  891MOL0     H17610   3.221   9.979   2.667 -5.5755  1.5514  4.5074
  891MOL0     H17611   2.865  10.846   2.378  0.5119 -1.6996 -1.0705
  891MOL0     H17612   2.630  10.922   2.443 -2.0297 -0.0440 -0.4804
  892MOL0     O17613   3.569   6.252   2.763  0.0024  0.3548 -0.4660
  892MOL0     C17614   3.642   6.317   2.841  0.3024  0.7396 -1.2372
  892MOL0     O17615   3.642   6.305   2.980  0.1258  0.2204 -0.2552
  892MOL0     C17616   3.541   6.229   3.025  0.9435  0.4042 -0.2577
  892MOL0     C17617   3.401   6.252   3.019  0.5535 -0.0533 -0.3489
  892MOL0     C17618   3.318   6.169   3.092  0.2113  0.2061 -1.0334
  892MOL0     C17619   3.358   6.066   3.181 -0.0525 -0.0299  0.6539
  892MOL0     O17620   3.270   5.990   3.254  0.1553 -0.3687 -0.3547
  892MOL0     C17621   3.300   5.960   3.387  0.6919 -0.0461 -1.2368
  892MOL0     C17622   3.175   5.947   3.472 -0.1935  0.5507  0.2205
  892MOL0     C17623   3.091   6.086   3.503 -0.4167 -0.7486 -0.1425
  892MOL0     C17624   2.976   6.067   3.605 -0.1824  0.3826  0.2860
  892MOL0     C17625   2.826   6.067   3.551 -0.0670  0.0569  0.7057
  892MOL0     C17626   2.814   5.956   3.450  0.3727 -0.5522  0.2396
  892MOL0     C17627   2.663   5.941   3.428  0.8377 -0.3628 -0.1993
  892MOL0     C17628   2.648   5.833   3.322 -1.1580 -0.0477 -0.2241
  892MOL0     N17629   2.508   5.794   3.303 -0.8141  0.5867 -0.0682
  892MOL0     C17630   2.415   5.883   3.275 -0.1091  0.3788  0.3252
  892MOL0     C17631   2.298   5.815   3.263  0.3370 -0.4253 -1.0556
  892MOL0     C17632   2.166   5.889   3.227  0.9382 -0.5622 -0.3818
  892MOL0     C17633   2.064   5.859   3.335 -0.0354  0.1168  1.9818
  892MOL0     C17634   1.995   5.725   3.307  0.4081  0.2325 -0.0846
  892MOL0     C17635   1.907   5.675   3.421  0.1189 -0.5565  0.3199
  892MOL0     O17636   1.769   5.722   3.417 -0.5474 -0.3916  0.2147
  892MOL0     C17637   1.700   5.723   3.538 -0.2723 -0.6524  0.0570
  892MOL0     C17638   1.744   5.666   3.657  0.2613  0.6551  0.8096
  892MOL0     C17639   1.670   5.664   3.767 -0.5167  0.9459  0.0456
  892MOL0     C17640   1.539   5.719   3.777 -0.1839  0.5186  0.2993
  892MOL0     C17641   1.460   5.719   3.902  0.1959 -0.1379  0.1854
  892MOL0     O17642   1.339   5.775   3.886  0.5056  0.1414  0.5799
  892MOL0     C17643   1.239   5.765   3.980 -0.9215  0.2625  1.1268
  892MOL0     C17644   1.185   5.892   4.022  0.3419  0.0095  0.2956
  892MOL0     C17645   1.085   5.892   4.131 -0.4927 -0.8565 -0.5941
  892MOL0     C17646   1.065   5.770   4.195  0.5013 -0.2648  0.4399
  892MOL0     O17647   0.994   5.767   4.314 -0.0232 -0.5554  0.1617
  892MOL0     C17648   0.895   5.669   4.307 -0.3678  0.4338 -0.5549
  892MOL0     C17649   0.771   5.716   4.381  0.2367  0.1549 -0.6456
  892MOL0     C17650   0.740   5.866   4.329 -0.2954 -0.3223 -0.5906
  892MOL0     C17651   0.598   5.935   4.349 -0.1740 -0.1992 -0.6622
  892MOL0     C17652   0.566   5.944   4.500  0.5111  0.3219 -0.2338
  892MOL0     C17653   0.453   6.044   4.546 -0.1922  1.2043  1.2130
  892MOL0     C17654   0.321   6.002   4.487 -1.0437 -0.5102 -0.3031
  892MOL0     C17655   0.273   6.110   4.385  0.8142 -0.5028 -0.5531
  892MOL0    Cl17656   0.133   6.046   4.296  0.3354 -0.5794  0.3970
  892MOL0     C17657   1.133   5.652   4.154  0.1185 -0.3414 -0.6316
  892MOL0     C17658   1.207   5.644   4.039 -0.5014 -0.2693 -0.0248
  892MOL0     O17659   1.509   5.665   3.997  0.0717  0.3695  0.3473
  892MOL0     C17660   1.488   5.770   3.649  0.0635  0.1318 -0.5400
  892MOL0     C17661   1.570   5.769   3.538 -0.4331 -0.0780 -0.2316
  892MOL0     N17662   2.318   5.685   3.311 -1.0972 -0.1973 -0.2937
  892MOL0     N17663   2.443   5.686   3.334  0.5593  0.8494  0.1776
  892MOL0     C17664   3.499   6.040   3.187  0.4009  0.5436 -0.1282
  892MOL0     C17665   3.581   6.124   3.115 -0.1709 -0.3570  0.1413
  892MOL0     C17666   3.756   6.400   2.785  0.7414 -0.8697 -0.5882
  892MOL0     C17667   3.754   6.435   2.653 -0.2807 -0.8913 -0.2043
  892MOL0     C17668   3.854   6.521   2.596  0.3259  0.0746  1.0025
  892MOL0     C17669   3.957   6.573   2.667 -0.3541 -0.1130 -0.5387
  892MOL0     O17670   4.046   6.663   2.606  0.1065 -0.8160  0.0987
  892MOL0     C17671   4.021   6.801   2.633  0.3024  0.2283  0.4862
  892MOL0     C17672   3.891   6.846   2.564 -0.2679 -0.3223 -0.0750
  892MOL0     C17673   3.883   6.817   2.413  0.6542 -0.1223  0.2226
  892MOL0     C17674   3.912   6.939   2.324  0.0921 -0.2021  0.2415
  892MOL0     C17675   4.045   6.998   2.341 -0.8011  0.1578 -0.0993
  892MOL0     C17676   4.152   7.055   2.366  0.1745  0.9362  0.1096
  892MOL0     C17677   3.961   6.533   2.808  0.0986 -0.8515  0.0662
  892MOL0     C17678   3.862   6.450   2.870  0.8133  0.1788 -0.1956
  892MOL0     H17679   3.360   6.323   2.948 -0.9747 -0.7821 -0.2388
  892MOL0     H17680   3.211   6.186   3.101  0.3246  1.0996 -1.2765
  892MOL0     H17681   3.350   6.048   3.430 -2.5725  1.9428 -1.2287
  892MOL0     H17682   3.360   5.868   3.393 -0.3979 -0.8462 -2.1962
  892MOL0     H17683   3.207   5.892   3.562 -0.6582 -0.4742 -0.2243
  892MOL0     H17684   3.105   5.876   3.427  0.7905  0.2252 -0.8558
  892MOL0     H17685   3.061   6.128   3.406 -4.0026 -1.5878  0.4541
  892MOL0     H17686   3.156   6.164   3.542 -2.1793  0.1280  1.1618
  892MOL0     H17687   2.993   5.968   3.647  0.4484 -1.3324 -3.5286
  892MOL0     H17688   2.983   6.138   3.687  0.2206  0.4591  0.1881
  892MOL0     H17689   2.812   6.167   3.508 -1.3075 -0.7439 -0.8341
  892MOL0     H17690   2.762   6.054   3.639 -0.8643  1.4163  0.3597
  892MOL0     H17691   2.860   5.869   3.497 -2.5518 -1.9494  0.7090
  892MOL0     H17692   2.874   5.990   3.365  1.7082 -0.9336  1.0083
  892MOL0     H17693   2.616   5.914   3.522  3.0299 -0.3190  0.9641
  892MOL0     H17694   2.624   6.041   3.406  1.9426 -0.0706 -0.9059
  892MOL0     H17695   2.690   5.741   3.363 -0.0097  2.1431  4.2331
  892MOL0     H17696   2.686   5.859   3.223 -2.7858 -1.6301 -1.3298
  892MOL0     H17697   2.427   5.988   3.250 -0.8053  0.4924  0.4531
  892MOL0     H17698   2.128   5.855   3.130  2.5603  0.6331 -1.5139
  892MOL0     H17699   2.193   5.993   3.206 -1.7901  0.4066  0.5661
  892MOL0     H17700   1.998   5.947   3.345  2.3033  2.1491  0.6690
  892MOL0     H17701   2.104   5.858   3.437  1.8707  2.1715  1.3469
  892MOL0     H17702   1.936   5.746   3.217  0.5670  0.0077 -0.2436
  892MOL0     H17703   2.066   5.642   3.298 -2.2795 -2.4966  1.8925
  892MOL0     H17704   1.967   5.705   3.508 -0.0204 -1.6923  0.8372
  892MOL0     H17705   1.912   5.566   3.419  1.4628 -0.5015 -0.2890
  892MOL0     H17706   1.842   5.620   3.668 -1.7108 -4.2553  0.5089
  892MOL0     H17707   1.709   5.623   3.859 -0.8307  2.7099  1.0025
  892MOL0     H17708   1.221   5.983   3.975 -0.2063  0.8536  1.4787
  892MOL0     H17709   1.037   5.986   4.156 -1.0476 -0.8456 -1.6740
  892MOL0     H17710   0.939   5.577   4.347 -0.8942 -0.4209 -1.8473
  892MOL0     H17711   0.858   5.655   4.205 -2.0674  0.1145  0.0826
  892MOL0     H17712   0.782   5.716   4.490  0.4768  0.6671 -0.6667
  892MOL0     H17713   0.682   5.655   4.365 -0.9597  1.9144 -0.9944
  892MOL0     H17714   0.749   5.855   4.221 -2.3474 -1.0813 -0.7491
  892MOL0     H17715   0.821   5.928   4.366 -0.2654 -0.5606 -0.2516
  892MOL0     H17716   0.594   6.032   4.299 -0.7660  0.2193  0.1594
  892MOL0     H17717   0.525   5.879   4.289  1.8411 -2.6459 -0.9988
  892MOL0     H17718   0.650   5.978   4.561 -0.9466  2.6551  0.5715
  892MOL0     H17719   0.537   5.844   4.534 -3.6027  0.9486 -1.4297
  892MOL0     H17720   0.491   6.142   4.516  1.4506  0.1887 -0.2860
  892MOL0     H17721   0.446   6.036   4.655 -1.2782 -1.0022  1.0407
  892MOL0     H17722   0.324   5.906   4.435  0.1794  0.6375 -2.5178
  892MOL0     H17723   0.251   5.987   4.569  0.2548 -1.8953  0.6025
  892MOL0     H17724   0.357   6.142   4.322  2.2575 -1.1404  0.9806
  892MOL0     H17725   0.239   6.197   4.441  1.3459 -2.8188  3.7412
  892MOL0     H17726   1.118   5.563   4.215 -0.3121 -1.6376 -2.5601
  892MOL0     H17727   1.250   5.552   3.999  1.1560  0.4061  0.1188
  892MOL0     H17728   1.388   5.812   3.653 -0.5041 -1.2479  1.9118
  892MOL0     H17729   1.522   5.810   3.450 -0.2483  0.2554 -0.1813
  892MOL0     H17730   3.531   5.974   3.267 -2.3664 -0.9711 -0.1406
  892MOL0     H17731   3.689   6.120   3.122 -0.1939  1.0619  1.8322
  892MOL0     H17732   3.666   6.405   2.595 -0.1119  0.2952 -1.1228
  892MOL0     H17733   3.851   6.538   2.488  0.0265 -0.8839  0.8519
  892MOL0     H17734   4.102   6.864   2.597 -0.2195 -0.3993 -1.9794
  892MOL0     H17735   4.003   6.809   2.740  0.9556 -1.3342  0.7389
  892MOL0     H17736   3.804   6.801   2.613 -1.7976  1.3898 -1.1082
  892MOL0     H17737   3.887   6.955   2.560  1.0953 -0.2886 -3.1015
  892MOL0     H17738   3.784   6.781   2.385  0.1313  1.8502 -0.6767
  892MOL0     H17739   3.946   6.736   2.375  0.0756  0.1216 -1.3232
  892MOL0     H17740   3.903   6.897   2.224  0.4919 -0.9696  0.5246
  892MOL0     H17741   3.833   7.011   2.347 -0.5162 -0.7068 -0.2594
  892MOL0     H17742   4.245   7.107   2.375  1.1591 -0.3418 -1.9369
  892MOL0     H17743   4.052   6.565   2.857  1.3445  2.7381 -3.9660
  892MOL0     H17744   3.850   6.429   2.976 -0.5380  3.1306  0.3365
  893MOL0     O17745   4.567   8.010   0.601  0.3574 -0.3205  0.0601
  893MOL0     C17746   4.595   8.128   0.561  0.4518  0.5056  1.1013
  893MOL0     O17747   4.717   8.174   0.516  0.2209 -0.2462  0.3968
  893MOL0     C17748   4.793   8.082   0.442 -0.1096 -0.0403  0.0380
  893MOL0     C17749   4.932   8.093   0.433  0.3659 -0.6886 -0.2905
  893MOL0     C17750   5.003   8.008   0.353 -0.6602  0.1557 -0.1170
  893MOL0     C17751   4.940   7.912   0.275 -0.6534  0.2567  0.9868
  893MOL0     O17752   5.039   7.839   0.197 -0.2030  0.1841  0.3515
  893MOL0     C17753   4.993   7.720   0.129 -0.2819 -0.2052  1.0359
  893MOL0     C17754   5.115   7.642   0.083  0.0197 -0.8267 -0.9809
  893MOL0     C17755   5.164   7.679  -0.053 -0.0562 -0.3479 -0.1310
  893MOL0     C17756   5.290   7.610  -0.093 -0.2869  0.1985  0.0990
  893MOL0     C17757   5.337   7.642  -0.238  0.8607 -0.0222  0.0462
  893MOL0     C17758   5.423   7.535  -0.289  0.0060  0.2428  1.0026
  893MOL0     C17759   5.404   7.535  -0.441  0.1621  0.5539  0.9271
  893MOL0     C17760   5.513   7.439  -0.492 -0.2139  0.4167  0.1759
  893MOL0     N17761   5.525   7.460  -0.637  0.2224  0.4367  0.0747
  893MOL0     C17762   5.418   7.412  -0.711  0.6773 -1.2798  0.7459
  893MOL0     C17763   5.426   7.476  -0.830  0.2233 -0.3801  1.0531
  893MOL0     C17764   5.324   7.450  -0.944 -0.1653  0.5430 -0.1150
  893MOL0     C17765   5.372   7.353  -1.052  0.3336 -0.6160  0.2517
  893MOL0     C17766   5.291   7.370  -1.181  0.1996 -1.2246 -0.0098
  893MOL0     C17767   5.320   7.263  -1.284 -0.4934 -0.4332 -1.1765
  893MOL0     O17768   5.325   7.321  -1.414  1.0452  0.2754  0.8839
  893MOL0     C17769   5.231   7.286  -1.505 -0.2237  0.2305 -0.3622
  893MOL0     C17770   5.280   7.281  -1.635  0.3757 -0.3988  0.1858
  893MOL0     C17771   5.217   7.224  -1.746  0.1491 -0.3853  0.2091
  893MOL0     C17772   5.080   7.209  -1.734 -0.0346  0.2037 -0.1761
  893MOL0     C17773   5.008   7.184  -1.862 -0.0902 -0.2676  0.2325
  893MOL0     O17774   4.864   7.164  -1.844 -0.2257  0.6825  0.2731
  893MOL0     C17775   4.791   7.147  -1.963  0.9929  0.0926  0.0054
  893MOL0     C17776   4.708   7.035  -1.971 -0.2035 -0.5090  0.5207
  893MOL0     C17777   4.637   7.025  -2.095  0.3107 -0.1857  0.6958
  893MOL0     C17778   4.624   7.125  -2.188  0.0517 -0.1994 -0.0240
  893MOL0     O17779   4.563   7.091  -2.303 -0.8653  0.0326  0.2471
  893MOL0     C17780   4.565   7.194  -2.407  0.7957  0.6226  0.1994
  893MOL0     C17781   4.502   7.144  -2.538  0.6839 -0.4199 -0.3306
  893MOL0     C17782   4.562   7.222  -2.659 -0.4207 -0.1032 -0.7418
  893MOL0     C17783   4.484   7.203  -2.788 -0.4147  0.8842  0.6901
  893MOL0     C17784   4.557   7.269  -2.901  0.3948 -0.3713  0.3822
  893MOL0     C17785   4.522   7.204  -3.034 -0.7367 -0.6561  0.8793
  893MOL0     C17786   4.616   7.248  -3.151  0.2331 -0.5501  0.3057
  893MOL0     C17787   4.575   7.211  -3.292  0.1772 -0.0650  0.0372
  893MOL0    Cl17788   4.434   7.313  -3.322 -0.0301  0.0705 -0.1202
  893MOL0     C17789   4.703   7.237  -2.165  0.2975 -0.5582  0.6542
  893MOL0     C17790   4.781   7.257  -2.059 -0.4158 -0.6371  0.7874
  893MOL0     O17791   5.071   7.192  -1.971  0.1865 -0.2272 -0.0793
  893MOL0     C17792   5.025   7.215  -1.602  0.4605 -0.5526  0.3340
  893MOL0     C17793   5.098   7.256  -1.491 -0.8838  1.0271 -0.0845
  893MOL0     N17794   5.509   7.586  -0.816 -0.8778  0.5609  0.2877
  893MOL0     N17795   5.573   7.575  -0.704 -0.4827  0.1449  0.1440
  893MOL0     C17796   4.811   7.914   0.270  0.0504  0.4047  0.2015
  893MOL0     C17797   4.730   7.997   0.353 -0.0231  0.0953  0.7585
  893MOL0     C17798   4.475   8.216   0.542 -0.5006 -0.5823 -0.4344
  893MOL0     C17799   4.486   8.342   0.484 -0.2864 -0.4498 -0.7971
  893MOL0     C17800   4.369   8.420   0.460  0.2400  0.0839 -0.7666
  893MOL0     C17801   4.244   8.381   0.514  0.1381 -0.9507  0.0619
  893MOL0     O17802   4.138   8.471   0.508 -1.1320  0.3252  0.5311
  893MOL0     C17803   4.000   8.432   0.522 -0.2141  0.0954  0.2197
  893MOL0     C17804   3.952   8.339   0.412 -0.7373 -0.3749 -0.0694
  893MOL0     C17805   3.800   8.338   0.405  0.4626  0.2325 -0.3370
  893MOL0     C17806   3.744   8.306   0.267 -0.2902 -0.0329 -0.4528
  893MOL0     C17807   3.604   8.351   0.251 -0.2274  0.1344  0.5973
  893MOL0     C17808   3.499   8.409   0.243 -0.1865  0.8195  1.0486
  893MOL0     C17809   4.237   8.256   0.577  0.1976 -0.2377 -0.9201
  893MOL0     C17810   4.352   8.178   0.589  0.5267  1.1870  0.2518
  893MOL0     H17811   4.982   8.172   0.488  0.0703  0.5151 -1.6831
  893MOL0     H17812   5.109   8.027   0.341 -0.8951  1.2998 -0.6078
  893MOL0     H17813   4.933   7.751   0.043 -1.4484 -0.6541  1.6655
  893MOL0     H17814   4.933   7.664   0.200 -0.2842  0.2203  1.3757
  893MOL0     H17815   5.101   7.534   0.086  1.6776 -1.0892 -1.3492
  893MOL0     H17816   5.196   7.675   0.150 -1.0992 -0.0978  0.0444
  893MOL0     H17817   5.174   7.788  -0.065 -2.1519  0.2054  2.2500
  893MOL0     H17818   5.088   7.650  -0.127 -0.2505 -3.0803  1.0448
  893MOL0     H17819   5.372   7.631  -0.024  0.9039 -1.5874 -0.6915
  893MOL0     H17820   5.265   7.503  -0.087  0.9966 -0.1944 -1.0675
  893MOL0     H17821   5.388   7.739  -0.234 -0.7040  0.8061  1.0460
  893MOL0     H17822   5.244   7.625  -0.293  2.1370 -3.2991 -1.3512
  893MOL0     H17823   5.394   7.437  -0.250 -0.1260  0.4076  1.3277
  893MOL0     H17824   5.527   7.547  -0.257  1.3984 -0.5362 -2.7332
  893MOL0     H17825   5.310   7.484  -0.464  1.7508 -1.3306 -1.9856
  893MOL0     H17826   5.405   7.638  -0.479 -2.4287  0.5798  0.7844
  893MOL0     H17827   5.485   7.336  -0.470  1.8385 -0.5494 -1.4100
  893MOL0     H17828   5.616   7.460  -0.464 -0.0547  1.5459 -1.1191
  893MOL0     H17829   5.355   7.335  -0.668  1.6108 -1.4881  1.7842
  893MOL0     H17830   5.302   7.548  -0.988 -0.5131  0.1938 -0.7342
  893MOL0     H17831   5.230   7.412  -0.904 -1.5909  1.5173 -2.3130
  893MOL0     H17832   5.361   7.251  -1.014  1.0897 -1.2705 -1.1852
  893MOL0     H17833   5.477   7.372  -1.077  0.3428 -1.3219 -0.2968
  893MOL0     H17834   5.184   7.381  -1.157 -0.0561 -2.4268 -0.5097
  893MOL0     H17835   5.309   7.462  -1.237 -0.7214 -1.9753 -1.6151
  893MOL0     H17836   5.241   7.188  -1.271 -3.3152  2.4097 -0.6705
  893MOL0     H17837   5.417   7.220  -1.261  0.4641  3.3343  3.4628
  893MOL0     H17838   5.386   7.294  -1.656  0.8025 -4.1711 -0.5898
  893MOL0     H17839   5.268   7.203  -1.840 -0.3873  0.6011 -0.3175
  893MOL0     H17840   4.713   6.948  -1.905 -0.7873 -0.9023  0.0569
  893MOL0     H17841   4.585   6.932  -2.118  0.6303 -0.1145 -0.3863
  893MOL0     H17842   4.667   7.227  -2.431  1.7774 -0.7331  2.2838
  893MOL0     H17843   4.512   7.285  -2.378 -1.1769  0.5776 -2.7615
  893MOL0     H17844   4.393   7.146  -2.534  0.6312 -2.4595  1.3822
  893MOL0     H17845   4.523   7.038  -2.559 -1.3867 -0.1886 -4.4084
  893MOL0     H17846   4.667   7.192  -2.670 -1.1260 -3.6267  0.7976
  893MOL0     H17847   4.560   7.330  -2.641 -0.8477  0.2167 -2.4804
  893MOL0     H17848   4.480   7.094  -2.800  1.1165  0.9566 -1.0017
  893MOL0     H17849   4.386   7.247  -2.771 -0.2092  1.1926  1.0935
  893MOL0     H17850   4.665   7.268  -2.886  0.3450  0.3439  0.8614
  893MOL0     H17851   4.532   7.375  -2.906 -0.6874 -0.3367  3.8136
  893MOL0     H17852   4.418   7.207  -3.066 -0.6518  0.4885  0.6706
  893MOL0     H17853   4.530   7.095  -3.026 -1.5801 -1.0367 -2.2088
  893MOL0     H17854   4.640   7.355  -3.150  1.0963 -0.6354 -2.5575
  893MOL0     H17855   4.710   7.197  -3.125 -1.1177 -2.4940  1.6011
  893MOL0     H17856   4.550   7.106  -3.307 -0.9913  0.5817 -3.2913
  893MOL0     H17857   4.654   7.235  -3.364  2.5803 -0.8201  2.2419
  893MOL0     H17858   4.711   7.311  -2.244  2.2493 -1.1181  0.2666
  893MOL0     H17859   4.831   7.353  -2.046 -2.4439  0.3756  1.5814
  893MOL0     H17860   4.919   7.201  -1.582 -0.0738  0.5889 -1.4406
  893MOL0     H17861   5.051   7.257  -1.393  0.8128  3.5697  0.8023
  893MOL0     H17862   4.759   7.851   0.199 -0.8526  1.1398  0.1923
  893MOL0     H17863   4.622   7.993   0.345 -0.2870  3.2836  1.5497
  893MOL0     H17864   4.584   8.383   0.461 -0.6093  2.2864  1.9869
  893MOL0     H17865   4.383   8.519   0.417  2.4874 -0.0890 -0.5851
  893MOL0     H17866   3.938   8.521   0.508  0.4598  0.4931 -0.2572
  893MOL0     H17867   3.997   8.389   0.623  1.9437 -1.3778 -0.2952
  893MOL0     H17868   3.993   8.370   0.316  0.8404 -2.8611 -0.2987
  893MOL0     H17869   3.992   8.238   0.430 -1.1674 -0.5395 -0.0332
  893MOL0     H17870   3.758   8.436   0.424  0.4397  0.3393 -0.9154
  893MOL0     H17871   3.760   8.258   0.468 -0.5238  0.7628 -0.2761
  893MOL0     H17872   3.805   8.343   0.184  0.4534 -3.1578 -1.4300
  893MOL0     H17873   3.749   8.197   0.260 -0.0983 -0.1408  1.1042
  893MOL0     H17874   3.407   8.461   0.228  0.9622  2.7633  0.3952
  893MOL0     H17875   4.145   8.214   0.617  1.3609  0.2909  2.6150
  893MOL0     H17876   4.338   8.081   0.636 -1.1452  2.4243  2.5294
  894MOL0     O17877   4.856   0.479   1.697  0.3378  0.0440  0.1163
  894MOL0     C17878   4.862   0.496   1.823  0.4096  0.4592 -0.1883
  894MOL0     O17879   4.964   0.559   1.888  0.5612 -0.3448 -0.2289
  894MOL0     C17880   5.068   0.598   1.801  0.3756  0.6732  0.1777
  894MOL0     C17881   5.094   0.731   1.764  0.1522 -0.1703 -0.7473
  894MOL0     C17882   5.206   0.771   1.698 -0.2332  1.3098  0.2041
  894MOL0     C17883   5.294   0.677   1.653  0.1466 -0.2837  0.6955
  894MOL0     O17884   5.397   0.731   1.574 -0.2081 -0.5231  0.2043
  894MOL0     C17885   5.353   0.799   1.455  0.8135  0.1322  0.0658
  894MOL0     C17886   5.433   0.758   1.334 -0.0087 -0.0637  0.3071
  894MOL0     C17887   5.526   0.875   1.311 -0.0898 -0.3517 -1.2909
  894MOL0     C17888   5.631   0.812   1.224  0.3751 -0.4586 -0.1661
  894MOL0     C17889   5.755   0.911   1.216  0.3521  0.1340 -0.7103
  894MOL0     C17890   5.732   0.985   1.084 -1.2571 -0.0245  0.4089
  894MOL0     C17891   5.844   1.084   1.041  0.1901 -0.2760  0.2091
  894MOL0     C17892   5.920   1.156   1.154 -0.5614 -0.2848  0.5279
  894MOL0     N17893   6.032   1.235   1.102 -0.1317 -0.0082  0.5117
  894MOL0     C17894   6.018   1.359   1.036 -0.4999  0.3721 -0.3756
  894MOL0     C17895   6.141   1.374   0.985 -0.8928 -0.1324  0.0195
  894MOL0     C17896   6.213   1.492   0.928  0.4561 -0.6942 -0.6247
  894MOL0     C17897   6.307   1.555   1.030 -0.1377  0.4139  0.1675
  894MOL0     C17898   6.335   1.692   0.977 -0.3488 -0.3530 -0.9464
  894MOL0     C17899   6.441   1.759   1.064  0.6877  0.9975  0.0010
  894MOL0     O17900   6.470   1.880   0.998  0.3138  0.1583  0.8646
  894MOL0     C17901   6.563   1.881   0.903 -0.0122 -0.4999 -0.0582
  894MOL0     C17902   6.593   2.007   0.858 -0.0400  0.1523 -0.8202
  894MOL0     C17903   6.691   2.033   0.760  0.4548 -0.1844  0.3009
  894MOL0     C17904   6.766   1.924   0.700  0.7664 -0.4227  0.8296
  894MOL0     C17905   6.872   1.952   0.596  0.3207 -0.2842  0.1202
  894MOL0     O17906   6.866   2.078   0.538  0.6188 -0.7332 -0.6967
  894MOL0     C17907   6.966   2.118   0.457  0.5760  0.7072  0.3535
  894MOL0     C17908   7.097   2.116   0.499 -0.0388  0.0314  0.3429
  894MOL0     C17909   7.203   2.175   0.424  0.5265 -0.9509  0.7050
  894MOL0     C17910   7.171   2.224   0.297 -0.4937 -0.0460 -1.4918
  894MOL0     O17911   7.278   2.290   0.234 -0.3822  0.1887 -0.4079
  894MOL0     C17912   7.299   2.260   0.096 -0.0725 -0.2995  0.9164
  894MOL0     C17913   7.431   2.331   0.047  0.1287 -0.7923 -0.2456
  894MOL0     C17914   7.553   2.291   0.119  0.3765 -0.2918  0.1524
  894MOL0     C17915   7.684   2.364   0.072 -0.5284 -0.2248 -0.3365
  894MOL0     C17916   7.692   2.414  -0.073  0.2730 -0.1709  0.5131
  894MOL0     C17917   7.836   2.467  -0.107  0.2092 -0.2563  0.4449
  894MOL0     C17918   7.947   2.356  -0.109  1.2425 -0.3814 -0.4967
  894MOL0     C17919   8.085   2.418  -0.136  0.2031 -0.5140 -0.2447
  894MOL0    Cl17920   8.198   2.299  -0.151 -0.1057 -0.1114  0.0384
  894MOL0     C17921   7.038   2.231   0.252  0.7142  0.1160 -0.2627
  894MOL0     C17922   6.934   2.171   0.326 -1.0242  0.0250  0.9412
  894MOL0     O17923   6.953   1.869   0.578 -0.2691 -0.4592 -0.3855
  894MOL0     C17924   6.732   1.798   0.740  0.1596 -0.0640 -0.6118
  894MOL0     C17925   6.630   1.774   0.836 -0.1631  0.2572  0.2390
  894MOL0     N17926   6.229   1.260   1.022 -0.1185  0.0971  0.2489
  894MOL0     N17927   6.156   1.181   1.091  0.5043  1.2460  0.1190
  894MOL0     C17928   5.277   0.540   1.692  0.1585 -0.2935 -0.6427
  894MOL0     C17929   5.165   0.503   1.768 -0.3995  0.0970 -0.0859
  894MOL0     C17930   4.741   0.448   1.894 -0.0251  0.1574  0.7114
  894MOL0     C17931   4.663   0.340   1.843 -0.1708 -1.1454  0.9075
  894MOL0     C17932   4.554   0.295   1.907  0.3490  0.1465  0.3546
  894MOL0     C17933   4.509   0.363   2.026  0.1273 -0.7184 -0.2601
  894MOL0     O17934   4.404   0.325   2.095  0.4888  0.6130  0.2066
  894MOL0     C17935   4.415   0.263   2.224  0.2445  0.3143  0.4102
  894MOL0     C17936   4.506   0.140   2.221 -0.7950  0.9559  0.0047
  894MOL0     C17937   4.449   0.028   2.129 -0.3687  0.1990 -1.6578
  894MOL0     C17938   4.550  -0.091   2.109 -0.1542 -0.4427  0.5200
  894MOL0     C17939   4.570  -0.173   2.231  0.5413 -0.3476  0.6473
  894MOL0     C17940   4.578  -0.245   2.333  0.1099 -0.0618 -1.0716
  894MOL0     C17941   4.600   0.459   2.080 -0.0809 -0.2937  0.7535
  894MOL0     C17942   4.711   0.509   2.011  0.0234  0.1185  0.0633
  894MOL0     H17943   5.023   0.808   1.793 -0.8432  0.4284 -4.2744
  894MOL0     H17944   5.230   0.873   1.669 -1.9706  2.3451  2.1386
  894MOL0     H17945   5.354   0.906   1.475 -0.4131 -0.1267  1.8146
  894MOL0     H17946   5.252   0.768   1.428 -0.4262  2.8163  1.3120
  894MOL0     H17947   5.377   0.729   1.245 -0.2818 -1.4395  0.8997
  894MOL0     H17948   5.480   0.663   1.363  0.8378  0.0188 -0.7607
  894MOL0     H17949   5.573   0.904   1.405 -1.9304 -0.6195 -0.2446
  894MOL0     H17950   5.474   0.962   1.269  0.5075 -0.1213 -1.5694
  894MOL0     H17951   5.667   0.721   1.273  0.0802  0.6524  2.2636
  894MOL0     H17952   5.592   0.798   1.123  2.4513 -1.0243 -0.9435
  894MOL0     H17953   5.853   0.864   1.204  3.4788  5.1852  1.7052
  894MOL0     H17954   5.750   0.979   1.301 -6.1200 -1.1810  0.5448
  894MOL0     H17955   5.642   1.047   1.084  0.2137  2.2529 -0.4712
  894MOL0     H17956   5.736   0.914   1.000 -0.5069 -0.4346  0.7802
  894MOL0     H17957   5.924   1.036   0.984 -1.0677 -0.8889 -1.1204
  894MOL0     H17958   5.797   1.164   0.981  0.2828  1.3738  2.2382
  894MOL0     H17959   5.978   1.078   1.204  2.9543 -0.1439 -2.9221
  894MOL0     H17960   5.859   1.222   1.217 -0.0579  1.1937 -0.4879
  894MOL0     H17961   5.937   1.431   1.050 -0.0861  0.4075  2.5276
  894MOL0     H17962   6.135   1.564   0.902 -0.4431 -1.5144 -0.2351
  894MOL0     H17963   6.271   1.455   0.843 -2.5979 -2.0196 -2.2642
  894MOL0     H17964   6.402   1.501   1.030 -1.1531 -1.6582 -3.1087
  894MOL0     H17965   6.266   1.557   1.132 -1.1508  0.7322 -0.2313
  894MOL0     H17966   6.370   1.686   0.874  3.1356  4.2102 -0.3596
  894MOL0     H17967   6.243   1.751   0.970  0.9580  1.7699 -1.0907
  894MOL0     H17968   6.531   1.699   1.084  0.2173  1.2856  3.8695
  894MOL0     H17969   6.396   1.772   1.163  1.3010  1.9333  0.1678
  894MOL0     H17970   6.536   2.090   0.899 -0.4156 -0.0563 -0.9192
  894MOL0     H17971   6.698   2.139   0.741 -2.0471  0.2579  1.4446
  894MOL0     H17972   7.108   2.070   0.597 -2.2834  2.0603  1.6378
  894MOL0     H17973   7.302   2.180   0.467 -1.7173 -0.7375  6.8822
  894MOL0     H17974   7.218   2.298   0.034 -0.8245 -0.3144  1.8708
  894MOL0     H17975   7.307   2.152   0.084  2.4721  0.0829 -2.1146
  894MOL0     H17976   7.418   2.439   0.054  1.0665 -0.6607 -0.3991
  894MOL0     H17977   7.441   2.303  -0.058 -2.9285  0.4769 -1.0013
  894MOL0     H17978   7.562   2.183   0.100  0.4033 -0.8740  2.9564
  894MOL0     H17979   7.541   2.295   0.228 -2.0047 -0.6066 -0.0480
  894MOL0     H17980   7.692   2.458   0.129 -0.6385  0.3498 -1.2578
  894MOL0     H17981   7.772   2.309   0.107  1.1877  0.9962 -2.5384
  894MOL0     H17982   7.617   2.493  -0.088 -0.9201 -1.3149  0.2545
  894MOL0     H17983   7.669   2.330  -0.138  3.9147  0.9610 -2.5896
  894MOL0     H17984   7.875   2.540  -0.035  4.7583 -2.1324  0.2323
  894MOL0     H17985   7.834   2.516  -0.205 -1.2128  3.0182  1.9896
  894MOL0     H17986   7.953   2.300  -0.014 -0.6313 -1.6968 -1.0998
  894MOL0     H17987   7.920   2.288  -0.190 -1.3977  1.6638 -1.4574
  894MOL0     H17988   8.107   2.495  -0.061  0.5591 -1.2082  0.3798
  894MOL0     H17989   8.083   2.468  -0.233  1.2161  3.8903  1.7544
  894MOL0     H17990   7.031   2.267   0.150  2.0738 -0.7700 -0.7030
  894MOL0     H17991   6.834   2.173   0.284  0.5721  0.7588 -3.2539
  894MOL0     H17992   6.791   1.720   0.694 -0.0932 -0.2229 -0.6665
  894MOL0     H17993   6.606   1.672   0.865 -0.5329  0.4898  0.7862
  894MOL0     H17994   5.351   0.467   1.661 -0.0966 -1.1465  0.6844
  894MOL0     H17995   5.161   0.401   1.805 -0.6443 -0.0161 -0.4237
  894MOL0     H17996   4.695   0.301   1.747  1.7800  1.0405  0.5713
  894MOL0     H17997   4.496   0.222   1.851 -0.3773 -0.6389  2.0667
  894MOL0     H17998   4.317   0.228   2.258  0.0892  0.7366  0.4084
  894MOL0     H17999   4.459   0.337   2.292 -2.0363  0.2073  2.1168
  894MOL0     H18000   4.602   0.178   2.185 -0.9028  0.7688 -0.4834
  894MOL0     H18001   4.524   0.103   2.322  2.2815 -1.6434 -1.3111
  894MOL0     H18002   4.410   0.074   2.037  2.1870  2.9591 -1.5398
  894MOL0     H18003   4.367  -0.017   2.184  0.1464  2.0271  0.8126
  894MOL0     H18004   4.500  -0.141   2.025 -1.0473  2.0150 -0.5197
  894MOL0     H18005   4.643  -0.063   2.058 -1.4306 -0.5785 -2.0674
  894MOL0     H18006   4.577  -0.312   2.416  0.4728  0.1465 -0.8965
  894MOL0     H18007   4.592   0.506   2.178  0.4127  0.8048  0.2763
  894MOL0     H18008   4.768   0.589   2.057  1.5821 -0.3990 -0.8852
  895MOL0     O18009   4.176   7.711   0.031 -0.2482  0.7449 -0.3724
  895MOL0     C18010   4.170   7.602  -0.029  0.7542  0.5440 -0.3053
  895MOL0     O18011   4.089   7.502  -0.007  0.2312 -0.1483  0.6853
  895MOL0     C18012   4.000   7.516   0.094  0.5058 -0.1888  0.3618
  895MOL0     C18013   3.859   7.560   0.073 -0.5644 -0.5630  0.2944
  895MOL0     C18014   3.765   7.576   0.174  0.4644  1.1125 -0.3690
  895MOL0     C18015   3.813   7.564   0.307 -0.1643  0.0951  0.7412
  895MOL0     O18016   3.737   7.584   0.418 -0.6351 -0.0362 -0.6699
  895MOL0     C18017   3.693   7.720   0.431  0.7698  0.8851 -0.2934
  895MOL0     C18018   3.641   7.754   0.562 -0.1879  0.2359 -0.4045
  895MOL0     C18019   3.580   7.896   0.563 -0.8021  0.0604 -0.6155
  895MOL0     C18020   3.510   7.935   0.695  0.2520 -0.3680 -0.2198
  895MOL0     C18021   3.442   8.075   0.677  0.0371 -0.3687 -0.3839
  895MOL0     C18022   3.304   8.050   0.614 -0.0138 -0.7744  0.6019
  895MOL0     C18023   3.245   8.169   0.548 -0.7921 -0.5448  0.9389
  895MOL0     C18024   3.219   8.285   0.637 -0.1346 -0.6289  0.8531
  895MOL0     N18025   3.109   8.379   0.600  0.0148 -0.3181 -0.3161
  895MOL0     C18026   3.093   8.427   0.464 -0.4523  0.9762  0.4646
  895MOL0     C18027   3.009   8.529   0.487 -0.0470  0.9646 -0.0300
  895MOL0     C18028   2.931   8.606   0.385 -0.9709  0.1411  0.4407
  895MOL0     C18029   3.004   8.593   0.248 -0.3008 -0.3616 -0.3375
  895MOL0     C18030   2.932   8.655   0.129 -0.6248 -0.3454  0.4851
  895MOL0     C18031   2.785   8.617   0.119  0.5410 -0.1823  0.3257
  895MOL0     O18032   2.772   8.478   0.080  0.0282  0.4995 -0.2424
  895MOL0     C18033   2.654   8.419   0.112  0.3942 -0.3447  0.1483
  895MOL0     C18034   2.531   8.476   0.141 -0.7132 -0.8967  0.2576
  895MOL0     C18035   2.419   8.402   0.172  0.1522  0.1009  0.3578
  895MOL0     C18036   2.427   8.264   0.195 -0.3223 -0.8595 -0.5533
  895MOL0     C18037   2.309   8.197   0.254  0.0647  0.0559 -0.6238
  895MOL0     O18038   2.210   8.270   0.296  0.2822 -0.5915  0.2556
  895MOL0     C18039   2.095   8.211   0.351  0.1040  0.4801 -0.7307
  895MOL0     C18040   2.089   8.214   0.489 -0.8255  0.1679 -0.5429
  895MOL0     C18041   1.980   8.172   0.553 -0.1094 -0.5086 -0.4859
  895MOL0     C18042   1.866   8.120   0.484  0.0340 -0.5611 -0.9971
  895MOL0     O18043   1.765   8.066   0.560 -0.1489 -0.5360 -0.4388
  895MOL0     C18044   1.632   8.105   0.519  0.2461 -0.1714  0.2477
  895MOL0     C18045   1.522   8.059   0.613  0.4277 -0.1550  0.4430
  895MOL0     C18046   1.543   8.057   0.759  0.8020  0.5275  0.5177
  895MOL0     C18047   1.615   8.181   0.817  0.7420  0.1278  0.4153
  895MOL0     C18048   1.525   8.295   0.865 -0.0636  0.3498 -0.0030
  895MOL0     C18049   1.595   8.431   0.881  0.0915 -0.8213  0.0140
  895MOL0     C18050   1.489   8.542   0.918 -0.7052  0.4555 -0.6855
  895MOL0     C18051   1.557   8.676   0.943  0.1695 -0.5869 -0.0731
  895MOL0    Cl18052   1.529   8.744   1.102  0.5839  0.5069  0.0681
  895MOL0     C18053   1.871   8.119   0.345 -0.9073  0.0054 -0.1190
  895MOL0     C18054   1.989   8.161   0.274 -0.6936 -0.1167  0.4378
  895MOL0     O18055   2.312   8.075   0.249 -0.2338  0.7653  0.0660
  895MOL0     C18056   2.552   8.205   0.172  1.0360 -0.7973  0.8355
  895MOL0     C18057   2.654   8.278   0.112  0.8851  0.7225 -0.0399
  895MOL0     N18058   2.974   8.537   0.625 -0.3426 -0.3783 -0.5627
  895MOL0     N18059   3.041   8.454   0.691 -0.8609  0.1649 -0.9308
  895MOL0     C18060   3.939   7.518   0.331  1.0280 -0.1351 -0.6947
  895MOL0     C18061   4.035   7.494   0.227 -0.0340 -0.0748  0.3473
  895MOL0     C18062   4.255   7.595  -0.158  0.8540  0.6224  0.8245
  895MOL0     C18063   4.333   7.701  -0.191 -0.4704 -0.0976 -0.6740
  895MOL0     C18064   4.415   7.702  -0.303 -0.6763 -0.0556  0.7956
  895MOL0     C18065   4.429   7.598  -0.393  0.7419  0.3887 -0.0601
  895MOL0     O18066   4.524   7.592  -0.484 -0.6589 -0.4919  0.7306
  895MOL0     C18067   4.619   7.483  -0.491 -0.3979  0.0431  0.4692
  895MOL0     C18068   4.750   7.536  -0.550 -0.0536 -0.3894 -0.6661
  895MOL0     C18069   4.843   7.414  -0.587  0.9731 -0.1136  0.3616
  895MOL0     C18070   4.994   7.442  -0.591 -0.1381 -0.3328 -0.1471
  895MOL0     C18071   5.014   7.567  -0.660 -0.0139  0.6256  0.6998
  895MOL0     C18072   5.034   7.663  -0.733  0.3465  0.1788 -0.8184
  895MOL0     C18073   4.332   7.499  -0.369  0.2013  0.3243  0.0117
  895MOL0     C18074   4.243   7.490  -0.256 -0.2608 -0.4209  0.4072
  895MOL0     H18075   3.831   7.569  -0.032 -1.6076 -0.7765  0.5411
  895MOL0     H18076   3.662   7.606   0.157  0.2159  1.5016  1.6634
  895MOL0     H18077   3.601   7.719   0.370 -1.1897  0.3214  2.4641
  895MOL0     H18078   3.760   7.796   0.390 -1.6527  2.1505 -2.2004
  895MOL0     H18079   3.720   7.746   0.637 -0.3732 -1.6518 -0.3553
  895MOL0     H18080   3.560   7.683   0.585 -0.2499  0.9458  1.8251
  895MOL0     H18081   3.499   7.905   0.491 -1.4796  1.4093  0.2754
  895MOL0     H18082   3.657   7.969   0.536  0.7849 -0.9500  0.8839
  895MOL0     H18083   3.436   7.858   0.720  2.2583 -1.8520  1.5718
  895MOL0     H18084   3.579   7.947   0.779 -0.6954  2.8507  0.2256
  895MOL0     H18085   3.502   8.134   0.608 -0.1886 -1.2854 -1.3972
  895MOL0     H18086   3.424   8.138   0.765 -0.5208  2.1723 -2.2127
  895MOL0     H18087   3.233   8.004   0.684 -0.8106  0.9119  0.9484
  895MOL0     H18088   3.321   7.983   0.529 -0.3146  2.6159 -2.3580
  895MOL0     H18089   3.298   8.198   0.457 -2.1877 -1.1573 -0.1189
  895MOL0     H18090   3.152   8.121   0.516 -1.2641 -0.2718  1.8660
  895MOL0     H18091   3.309   8.345   0.652  0.1911 -1.0407  0.5759
  895MOL0     H18092   3.201   8.236   0.733 -0.1424  0.2796  1.3214
  895MOL0     H18093   3.136   8.380   0.376 -0.6455  0.2834  0.7278
  895MOL0     H18094   2.932   8.712   0.410  0.3695  0.1835  0.2695
  895MOL0     H18095   2.829   8.568   0.372 -1.2305  1.4105 -1.8597
  895MOL0     H18096   3.021   8.489   0.219 -1.3919 -0.3062 -1.2667
  895MOL0     H18097   3.095   8.653   0.260 -2.9047  3.9823 -0.1330
  895MOL0     H18098   2.947   8.763   0.130  2.4714 -0.6487 -0.7566
  895MOL0     H18099   2.972   8.618   0.034  2.8177  0.2129  1.5796
  895MOL0     H18100   2.733   8.688   0.055  0.7800  1.1012  1.5014
  895MOL0     H18101   2.735   8.635   0.215 -2.7693  0.2043 -1.3271
  895MOL0     H18102   2.518   8.583   0.127  0.1057 -0.8504 -0.2195
  895MOL0     H18103   2.330   8.462   0.161  0.3323  0.0493 -1.8443
  895MOL0     H18104   2.161   8.274   0.543 -0.2958  0.0352 -1.0907
  895MOL0     H18105   1.978   8.182   0.661  2.8016 -5.1652  0.2743
  895MOL0     H18106   1.596   8.075   0.419 -2.5783  2.1082  0.4425
  895MOL0     H18107   1.631   8.214   0.509  1.1012 -0.0515  1.3504
  895MOL0     H18108   1.496   7.955   0.591 -1.8506 -0.3566  3.3787
  895MOL0     H18109   1.432   8.115   0.587  0.1911 -2.1680 -3.8325
  895MOL0     H18110   1.594   7.961   0.767  0.6679  0.3696 -0.4445
  895MOL0     H18111   1.444   8.051   0.804  0.3040  1.0990 -0.4818
  895MOL0     H18112   1.674   8.153   0.904 -0.7654 -1.3520  1.0159
  895MOL0     H18113   1.681   8.224   0.741 -1.7191  0.6327 -1.5854
  895MOL0     H18114   1.499   8.255   0.963  0.1360 -1.0040 -0.4936
  895MOL0     H18115   1.439   8.296   0.798 -0.9693  1.3784  1.1323
  895MOL0     H18116   1.655   8.456   0.794 -1.2156  2.6725 -0.0224
  895MOL0     H18117   1.662   8.420   0.967 -2.0283  1.3906  2.0972
  895MOL0     H18118   1.421   8.547   0.833  2.4683 -1.0556 -3.5802
  895MOL0     H18119   1.430   8.509   1.004 -2.1322 -1.6276 -2.3553
  895MOL0     H18120   1.529   8.740   0.860  0.8820 -0.5693 -0.3045
  895MOL0     H18121   1.666   8.671   0.936  0.3054  2.2393 -1.1304
  895MOL0     H18122   1.789   8.070   0.293  1.3027 -2.8521 -1.1917
  895MOL0     H18123   1.998   8.151   0.167 -1.2582  1.6903  0.1881
  895MOL0     H18124   2.577   8.100   0.186 -1.2508 -1.8908 -2.1429
  895MOL0     H18125   2.737   8.217   0.077 -0.8175 -0.1847 -2.8373
  895MOL0     H18126   3.974   7.513   0.434 -3.7431  1.9520  1.3470
  895MOL0     H18127   4.137   7.462   0.248  1.0236  1.9355 -1.2613
  895MOL0     H18128   4.349   7.777  -0.115 -2.0863 -0.0917 -0.3208
  895MOL0     H18129   4.491   7.776  -0.324 -1.0841  0.0225 -0.4411
  895MOL0     H18130   4.576   7.403  -0.552 -0.9831  0.0970  0.7986
  895MOL0     H18131   4.633   7.432  -0.395  1.6832 -0.0987  0.1390
  895MOL0     H18132   4.726   7.583  -0.645 -3.1862 -0.2252  0.0860
  895MOL0     H18133   4.786   7.610  -0.477 -3.1069  1.7757 -1.1701
  895MOL0     H18134   4.815   7.399  -0.692  2.2805  0.9355 -0.1710
  895MOL0     H18135   4.814   7.323  -0.533  2.0165 -0.1628  0.8550
  895MOL0     H18136   5.034   7.455  -0.490  0.6092  0.2278 -0.5097
  895MOL0     H18137   5.049   7.356  -0.630  2.3024 -0.5334  3.3783
  895MOL0     H18138   5.051   7.751  -0.792  2.4590  0.9854  0.8666
  895MOL0     H18139   4.319   7.427  -0.450 -3.6909  2.1215 -1.1877
  895MOL0     H18140   4.157   7.424  -0.248 -0.7571  0.0786 -0.6207
  896MOL0     O18141   7.878   0.603   9.282  0.5966  0.3948  0.2829
  896MOL0     C18142   7.947   0.699   9.276 -0.0586  1.1328  0.4232
  896MOL0     O18143   7.920   0.818   9.326  1.0452 -0.8250 -0.1227
  896MOL0     C18144   7.802   0.835   9.403 -0.2295 -0.2683  0.0091
  896MOL0     C18145   7.691   0.904   9.345  0.4592 -0.6536  0.5778
  896MOL0     C18146   7.587   0.948   9.421  0.4182  0.0659  0.3747
  896MOL0     C18147   7.577   0.914   9.551  0.5524 -0.2848  0.0980
  896MOL0     O18148   7.461   0.953   9.618 -0.5498  0.6316  0.3147
  896MOL0     C18149   7.393   0.884   9.729  0.3331  0.1632  1.1216
  896MOL0     C18150   7.244   0.880   9.716 -0.0294 -0.6811  0.2079
  896MOL0     C18151   7.188   1.022   9.761 -0.1791  0.2310  0.0019
  896MOL0     C18152   7.035   1.030   9.783  0.1529 -0.1262 -0.1685
  896MOL0     C18153   6.998   1.147   9.874 -0.2636 -0.5730  0.1620
  896MOL0     C18154   6.845   1.154   9.893 -0.2427  0.1822 -0.6102
  896MOL0     C18155   6.773   1.218   9.773  0.2885 -0.0066  0.5064
  896MOL0     C18156   6.632   1.258   9.821  0.0246 -0.2309 -0.1619
  896MOL0     N18157   6.632   1.390   9.894 -0.1526 -0.3733  0.4177
  896MOL0     C18158   6.662   1.424  10.027  1.2241 -0.2867  0.7952
  896MOL0     C18159   6.605   1.545  10.049 -0.3236  0.2641  0.4551
  896MOL0     C18160   6.586   1.604  10.190 -0.2398  0.1492 -0.6770
  896MOL0     C18161   6.468   1.702  10.198  0.4202 -1.5296 -0.3772
  896MOL0     C18162   6.438   1.736  10.351  0.4957  0.4895 -0.4459
  896MOL0     C18163   6.297   1.802  10.362 -0.7711  1.1186  0.3207
  896MOL0     O18164   6.293   1.836  10.503 -0.2330  0.3018  0.5775
  896MOL0     C18165   6.173   1.877  10.562  0.0002 -0.7365  0.4085
  896MOL0     C18166   6.165   1.882  10.705 -0.5190  0.6914 -0.1226
  896MOL0     C18167   6.060   1.935  10.765  0.6176 -0.1658 -0.0471
  896MOL0     C18168   5.944   1.969  10.693  0.0065 -0.7170 -0.0434
  896MOL0     C18169   5.826   2.014  10.766  0.0587  0.9567  0.1100
  896MOL0     O18170   5.708   1.960  10.732 -0.2610  0.0785 -0.1128
  896MOL0     C18171   5.592   1.983  10.798 -0.5283  0.3121  0.4364
  896MOL0     C18172   5.541   1.877  10.873  0.0476  0.1782 -0.4174
  896MOL0     C18173   5.415   1.889  10.937  0.0322 -0.1424 -0.9173
  896MOL0     C18174   5.337   2.004  10.913  0.3213  0.6690 -0.4238
  896MOL0     O18175   5.225   2.037  10.989  0.2292 -0.1379  0.0895
  896MOL0     C18176   5.201   1.956  11.105  0.2652  0.0155  0.1021
  896MOL0     C18177   5.096   2.014  11.193  0.1853 -0.0922 -0.1394
  896MOL0     C18178   4.953   1.968  11.149  0.2720  0.1074  1.1604
  896MOL0     C18179   4.843   2.036  11.225 -0.8592 -0.1128 -0.6863
  896MOL0     C18180   4.709   1.962  11.207  0.8963 -1.3121 -0.4132
  896MOL0     C18181   4.659   1.945  11.056  0.4998  0.5585  0.4709
  896MOL0     C18182   4.532   1.857  11.053  0.3888 -0.6237  0.7870
  896MOL0     C18183   4.454   1.879  10.919 -0.5695 -0.4967 -0.9248
  896MOL0    Cl18184   4.552   1.805  10.782 -0.1215  0.1371  0.2286
  896MOL0     C18185   5.384   2.103  10.825 -0.3700  0.5390 -0.0936
  896MOL0     C18186   5.516   2.100  10.770  0.1086  0.4598  0.3817
  896MOL0     O18187   5.841   2.100  10.855  0.4494  0.3866 -0.4619
  896MOL0     C18188   5.952   1.968  10.551  0.1764  0.2597  0.3230
  896MOL0     C18189   6.063   1.930  10.489  0.0030 -0.0763  0.1319
  896MOL0     N18190   6.568   1.598   9.930 -0.3284  0.4152  0.6189
  896MOL0     N18191   6.587   1.507   9.838  0.3754 -1.1002  0.3197
  896MOL0     C18192   7.675   0.829   9.613 -0.4420 -0.1955 -0.5774
  896MOL0     C18193   7.795   0.800   9.540 -0.3169 -0.1867  0.1949
  896MOL0     C18194   8.068   0.701   9.201 -0.4117  0.0819 -0.4994
  896MOL0     C18195   8.144   0.813   9.168  0.7052  0.5805 -0.0808
  896MOL0     C18196   8.269   0.805   9.107 -0.1808  0.1800 -0.7997
  896MOL0     C18197   8.314   0.684   9.066 -0.1192  1.0811 -0.5249
  896MOL0     O18198   8.431   0.672   9.003  0.0261 -0.0213 -0.2708
  896MOL0     C18199   8.417   0.628   8.866 -0.3668 -0.7982  0.4282
  896MOL0     C18200   8.555   0.619   8.807 -0.2126 -1.1419  0.2574
  896MOL0     C18201   8.637   0.504   8.878 -0.0818 -1.0104 -0.0681
  896MOL0     C18202   8.769   0.493   8.806 -2.0760 -0.2088  0.1832
  896MOL0     C18203   8.875   0.415   8.877  0.3179  0.3608  0.6085
  896MOL0     C18204   8.961   0.353   8.926  0.5488  0.3365 -0.3515
  896MOL0     C18205   8.242   0.571   9.094  0.3741 -0.1504  0.3420
  896MOL0     C18206   8.120   0.576   9.165  0.1916 -0.0233 -0.1613
  896MOL0     H18207   7.692   0.924   9.238  1.2871  1.1835  0.8871
  896MOL0     H18208   7.511   1.002   9.365 -0.2764 -1.8651 -0.6074
  896MOL0     H18209   7.440   0.926   9.818  0.3136  3.5529 -0.2937
  896MOL0     H18210   7.431   0.783   9.713 -4.2170 -1.5054 -0.9549
  896MOL0     H18211   7.219   0.805   9.793 -3.9097  0.2875  0.0940
  896MOL0     H18212   7.208   0.853   9.617  0.6547  0.2999 -0.3174
  896MOL0     H18213   7.225   1.098   9.692  1.2191 -1.1949 -0.8797
  896MOL0     H18214   7.233   1.047   9.858  1.3901  0.3318 -0.7241
  896MOL0     H18215   6.980   1.051   9.691 -0.8644  1.8349  0.8276
  896MOL0     H18216   7.006   0.936   9.832  0.8503  0.9735  2.5071
  896MOL0     H18217   7.035   1.246   9.846  0.4245  0.2923  3.6966
  896MOL0     H18218   7.038   1.133   9.975  1.9641  0.4868 -0.5177
  896MOL0     H18219   6.826   1.208   9.986  0.2553  0.3503 -0.6034
  896MOL0     H18220   6.815   1.052   9.917  1.1493  0.1409  1.1556
  896MOL0     H18221   6.816   1.311   9.735 -0.7829  0.2959 -0.0114
  896MOL0     H18222   6.760   1.143   9.694 -4.3486  0.8556  0.1798
  896MOL0     H18223   6.593   1.186   9.893  0.6961 -0.1052  0.3401
  896MOL0     H18224   6.559   1.274   9.741  1.0336  0.4115 -0.9758
  896MOL0     H18225   6.698   1.348  10.096 -1.3890 -2.4090  0.0107
  896MOL0     H18226   6.670   1.646  10.245  0.5403 -0.4151 -1.4219
  896MOL0     H18227   6.563   1.514  10.247 -0.6158  1.7960  1.9674
  896MOL0     H18228   6.375   1.647  10.179 -1.9379  1.2127  2.2397
  896MOL0     H18229   6.482   1.795  10.142  0.2883 -0.3375  1.5097
  896MOL0     H18230   6.431   1.650  10.417  0.7555  1.2400  0.5877
  896MOL0     H18231   6.517   1.803  10.386  0.1802 -0.4431  2.3239
  896MOL0     H18232   6.220   1.733  10.327  0.7452 -0.8283  0.6704
  896MOL0     H18233   6.294   1.893  10.302  0.0800  2.5060  2.2746
  896MOL0     H18234   6.243   1.831  10.760 -3.8666 -0.6158  3.9180
  896MOL0     H18235   6.053   1.932  10.874 -0.0188 -2.7434 -0.0932
  896MOL0     H18236   5.594   1.782  10.867 -1.2317 -0.5146 -1.1185
  896MOL0     H18237   5.379   1.813  11.006  1.9397 -1.3123 -1.1159
  896MOL0     H18238   5.290   1.932  11.163  0.7636  1.1335 -0.1722
  896MOL0     H18239   5.161   1.859  11.075 -0.1345  0.0187  0.5994
  896MOL0     H18240   5.104   2.123  11.187 -0.1345 -0.0805 -0.3750
  896MOL0     H18241   5.122   1.993  11.297 -0.0133  0.5381  0.0392
  896MOL0     H18242   4.950   1.859  11.161  1.2317  0.0733  1.1236
  896MOL0     H18243   4.932   1.996  11.046  0.2593 -2.7280  0.3141
  896MOL0     H18244   4.853   2.032  11.334 -0.0101 -3.7268 -0.7645
  896MOL0     H18245   4.841   2.142  11.195 -0.8835  0.1844  0.3292
  896MOL0     H18246   4.636   2.017  11.266 -0.5020 -1.3045 -2.0811
  896MOL0     H18247   4.718   1.863  11.253  2.7633 -0.2147  1.7492
  896MOL0     H18248   4.737   1.895  10.998  2.7316  0.1272  3.6000
  896MOL0     H18249   4.637   2.044  11.016  0.3485 -0.5218 -2.3331
  896MOL0     H18250   4.560   1.752  11.068  2.5617 -0.1205  0.5146
  896MOL0     H18251   4.461   1.890  11.129  1.0295  3.6806 -0.2502
  896MOL0     H18252   4.455   1.986  10.897  0.9283  0.1521  1.7838
  896MOL0     H18253   4.359   1.828  10.939 -0.1114 -0.7624  0.7476
  896MOL0     H18254   5.313   2.177  10.789  0.6186  0.1641 -3.1430
  896MOL0     H18255   5.548   2.182  10.707 -2.3777  1.1563 -0.1040
  896MOL0     H18256   5.870   2.013  10.494 -1.7231 -0.6454  2.1989
  896MOL0     H18257   6.072   1.933  10.381  0.8016  0.1900  0.1979
  896MOL0     H18258   7.673   0.810   9.719  1.9559  1.6864 -0.0890
  896MOL0     H18259   7.886   0.758   9.583  0.2532  0.3558 -0.4674
  896MOL0     H18260   8.117   0.914   9.197 -2.0824  0.6476 -2.4428
  896MOL0     H18261   8.320   0.900   9.095 -0.9391  0.6544 -0.3374
  896MOL0     H18262   8.345   0.689   8.809 -0.8318 -1.8074 -0.0923
  896MOL0     H18263   8.373   0.529   8.851 -2.2112  0.2441 -1.9835
  896MOL0     H18264   8.555   0.597   8.700  0.4001  1.5240 -0.3499
  896MOL0     H18265   8.608   0.714   8.813 -0.9207 -0.7220 -0.0495
  896MOL0     H18266   8.572   0.417   8.871 -1.3039  0.0159 -2.6274
  896MOL0     H18267   8.668   0.535   8.978 -0.7509 -1.1771  0.1994
  896MOL0     H18268   8.755   0.445   8.708 -2.7811  1.4181 -0.5407
  896MOL0     H18269   8.813   0.591   8.784  0.9694 -1.2072  1.3219
  896MOL0     H18270   9.044   0.300   8.969 -0.6860 -1.3435  0.0664
  896MOL0     H18271   8.270   0.474   9.054 -0.2421 -0.4978  0.7399
  896MOL0     H18272   8.062   0.486   9.181  0.0276 -0.0421 -0.8262
  897MOL0     O18273   7.675   0.221   8.777 -0.0147  0.2733  0.2138
  897MOL0     C18274   7.670   0.128   8.857  0.0611  0.3842 -1.1569
  897MOL0     O18275   7.584   0.112   8.954 -0.4603  0.7142  0.1215
  897MOL0     C18276   7.530   0.226   9.005  0.4654  0.4059  0.3697
  897MOL0     C18277   7.613   0.335   9.047  0.2554 -0.2204  0.5226
  897MOL0     C18278   7.553   0.456   9.089  0.4373  0.7741 -0.5158
  897MOL0     C18279   7.419   0.469   9.090  0.0251  0.0951 -1.0296
  897MOL0     O18280   7.360   0.584   9.142  0.2925 -0.1166  0.5541
  897MOL0     C18281   7.393   0.600   9.276  0.1978 -0.1382  0.1078
  897MOL0     C18282   7.306   0.723   9.321 -0.1048 -0.3998 -0.8700
  897MOL0     C18283   7.158   0.706   9.314  0.0476  0.5979 -0.6194
  897MOL0     C18284   7.105   0.582   9.402 -0.2258 -0.5083 -0.0221
  897MOL0     C18285   6.961   0.597   9.451  0.8476 -0.3593 -0.9101
  897MOL0     C18286   6.932   0.698   9.559 -0.5118 -1.3829  0.2087
  897MOL0     C18287   6.783   0.692   9.589 -1.1799 -0.1366  0.3722
  897MOL0     C18288   6.762   0.776   9.720 -0.3551 -0.2694  0.0855
  897MOL0     N18289   6.620   0.811   9.748 -0.0686 -0.0687 -0.3911
  897MOL0     C18290   6.541   0.864   9.660  0.8218 -1.5901  0.2231
  897MOL0     C18291   6.412   0.860   9.716  0.3803  0.1249  0.5695
  897MOL0     C18292   6.287   0.923   9.658 -0.1143 -0.1859 -0.8938
  897MOL0     C18293   6.266   1.069   9.709  1.2214  0.1893  0.0141
  897MOL0     C18294   6.262   1.096   9.867 -0.4760  0.3225 -1.2258
  897MOL0     C18295   6.239   1.240   9.901 -0.4608  0.4085 -0.2139
  897MOL0     O18296   6.245   1.259  10.042  0.5515 -0.8510 -0.4179
  897MOL0     C18297   6.169   1.363  10.096 -0.5748 -0.4509  0.1052
  897MOL0     C18298   6.064   1.344  10.183 -1.0232  0.1569 -0.8230
  897MOL0     C18299   6.000   1.464  10.239  0.0817 -0.5536  0.1634
  897MOL0     C18300   6.024   1.591  10.181 -0.7315 -0.7647 -0.1676
  897MOL0     C18301   5.943   1.707  10.220  0.2367  0.0989  0.9678
  897MOL0     O18302   5.849   1.697  10.313  0.0237  0.5342 -0.7793
  897MOL0     C18303   5.741   1.779  10.318  1.2769  0.2061  0.0678
  897MOL0     C18304   5.674   1.796  10.436  0.6470  0.3920  0.4257
  897MOL0     C18305   5.565   1.889  10.457  0.1607  0.0141 -0.3380
  897MOL0     C18306   5.524   1.963  10.345  0.8536  0.4709  0.1005
  897MOL0     O18307   5.430   2.053  10.347 -0.0449 -0.2023 -0.0814
  897MOL0     C18308   5.432   2.163  10.438 -0.1643 -0.3402  1.0874
  897MOL0     C18309   5.374   2.283  10.373 -0.6628  0.7633 -0.5176
  897MOL0     C18310   5.219   2.266  10.384  0.2277  0.2412  0.4599
  897MOL0     C18311   5.157   2.368  10.280 -0.7780  0.5024 -0.1566
  897MOL0     C18312   5.003   2.377  10.293  0.2773  1.1432  0.9125
  897MOL0     C18313   4.938   2.448  10.168 -0.2167  0.6041  0.6109
  897MOL0     C18314   4.793   2.465  10.200  0.0446  0.1097 -0.2480
  897MOL0     C18315   4.721   2.330  10.232  0.1353 -0.0332 -0.2204
  897MOL0    Cl18316   4.543   2.341  10.186  0.2356 -0.2152 -0.1403
  897MOL0     C18317   5.582   1.934  10.221  1.2298 -0.2905  0.9825
  897MOL0     C18318   5.688   1.846  10.210 -0.2304 -0.4457  1.0387
  897MOL0     O18319   5.969   1.813  10.177 -0.8860 -0.4225  0.9415
  897MOL0     C18320   6.127   1.607  10.086 -0.6199 -0.2391  1.3313
  897MOL0     C18321   6.200   1.491  10.040 -0.0581  0.5576 -0.7746
  897MOL0     N18322   6.423   0.806   9.841 -0.0708 -0.2960  0.5804
  897MOL0     N18323   6.543   0.758   9.853  0.1104  0.6273 -0.0928
  897MOL0     C18324   7.332   0.362   9.059  0.5052 -0.4520  0.4829
  897MOL0     C18325   7.388   0.244   9.003 -0.6533 -0.6170  0.3055
  897MOL0     C18326   7.765   0.019   8.827  0.5283 -0.9206 -0.1015
  897MOL0     C18327   7.717  -0.109   8.852  0.1514 -0.5651  0.4579
  897MOL0     C18328   7.804  -0.218   8.846 -0.6212 -0.3030  0.1692
  897MOL0     C18329   7.939  -0.206   8.802 -0.4797  0.6138 -0.0407
  897MOL0     O18330   8.013  -0.321   8.818 -0.3066 -0.2924 -0.1850
  897MOL0     C18331   8.151  -0.311   8.769 -0.5642  0.4282  0.0637
  897MOL0     C18332   8.206  -0.451   8.759  0.3894  0.1159 -0.3259
  897MOL0     C18333   8.363  -0.439   8.722  0.1527  0.1971  0.6124
  897MOL0     C18334   8.419  -0.580   8.688 -0.8898 -0.3835  0.0243
  897MOL0     C18335   8.547  -0.549   8.622 -0.6483  0.0155  0.2236
  897MOL0     C18336   8.663  -0.530   8.577 -0.0411  0.7666  0.4349
  897MOL0     C18337   7.983  -0.079   8.765  0.2134 -0.7999  0.0871
  897MOL0     C18338   7.894   0.032   8.780  0.1488  0.3094 -0.6989
  897MOL0     H18339   7.720   0.318   9.043 -0.0590 -2.4321  0.6198
  897MOL0     H18340   7.616   0.536   9.128 -0.3430  1.2002 -0.1154
  897MOL0     H18341   7.497   0.621   9.302 -0.3880 -0.3258  2.8860
  897MOL0     H18342   7.375   0.502   9.322  2.3062  0.0959  1.5691
  897MOL0     H18343   7.314   0.816   9.264 -3.0178  1.0750  0.9043
  897MOL0     H18344   7.327   0.748   9.425 -0.2794  0.7311 -1.0876
  897MOL0     H18345   7.139   0.680   9.209  3.3112  1.2401 -1.4925
  897MOL0     H18346   7.112   0.804   9.332  0.6772  0.8778 -0.4954
  897MOL0     H18347   7.117   0.498   9.333  2.2479  1.0262 -1.6213
  897MOL0     H18348   7.172   0.568   9.488 -1.5832  0.6719  1.2847
  897MOL0     H18349   6.934   0.499   9.490 -1.1592  1.0934  1.6640
  897MOL0     H18350   6.897   0.604   9.362  0.5205 -0.4005 -0.6771
  897MOL0     H18351   6.946   0.796   9.513  1.5940 -0.8669  1.8070
  897MOL0     H18352   6.997   0.680   9.645  0.3948  0.4870 -0.0434
  897MOL0     H18353   6.718   0.741   9.516 -0.6073 -0.0517 -0.0822
  897MOL0     H18354   6.746   0.591   9.611  1.1029 -0.7521  1.7305
  897MOL0     H18355   6.814   0.872   9.714 -0.8779  0.1029  1.2530
  897MOL0     H18356   6.811   0.718   9.798  4.7194  4.5803  1.1574
  897MOL0     H18357   6.560   0.912   9.565  0.0032  0.0989  0.8794
  897MOL0     H18358   6.195   0.866   9.675 -0.5184  0.1761 -1.7711
  897MOL0     H18359   6.296   0.925   9.549  0.4391  0.5984 -0.8419
  897MOL0     H18360   6.166   1.097   9.675  1.7518  1.0276 -0.9095
  897MOL0     H18361   6.342   1.122   9.650 -0.9377  0.7813 -2.4505
  897MOL0     H18362   6.179   1.037   9.908 -0.1027 -0.5480 -1.6833
  897MOL0     H18363   6.355   1.068   9.915 -2.5724 -1.9546  1.9209
  897MOL0     H18364   6.140   1.270   9.865  1.1253  3.6442 -2.3684
  897MOL0     H18365   6.318   1.296   9.850 -0.3088 -0.5956 -1.1201
  897MOL0     H18366   6.031   1.249  10.224 -2.4765  2.1438  3.0898
  897MOL0     H18367   5.912   1.462  10.303  0.4828 -2.2955  0.7053
  897MOL0     H18368   5.718   1.741  10.518  1.3360  1.3458  0.7137
  897MOL0     H18369   5.498   1.885  10.542 -1.4487 -0.1714 -1.5849
  897MOL0     H18370   5.536   2.183  10.464  0.2067 -0.0818 -0.4699
  897MOL0     H18371   5.377   2.132  10.527 -3.7210 -0.8498 -1.1016
  897MOL0     H18372   5.403   2.295  10.269  0.0130  1.7168 -0.2387
  897MOL0     H18373   5.406   2.367  10.435  0.4603  0.4202 -0.6100
  897MOL0     H18374   5.179   2.281  10.484 -0.1002  0.7643  0.2486
  897MOL0     H18375   5.200   2.159  10.371 -2.3854  0.6154  0.8000
  897MOL0     H18376   5.202   2.466  10.294 -1.4830  0.8763 -0.4471
  897MOL0     H18377   5.181   2.334  10.179 -2.2276  0.8990 -0.6619
  897MOL0     H18378   4.978   2.433  10.384 -1.6606 -0.5516  1.4978
  897MOL0     H18379   4.968   2.275  10.310  3.5481  0.0730  2.0037
  897MOL0     H18380   4.959   2.384  10.082  1.5322  1.5443  0.2815
  897MOL0     H18381   4.988   2.543  10.147  0.2461 -0.0093 -1.2816
  897MOL0     H18382   4.768   2.543  10.273 -1.9509 -0.8711  0.1743
  897MOL0     H18383   4.750   2.505  10.108 -0.2341 -0.5285 -0.3960
  897MOL0     H18384   4.735   2.301  10.336 -0.0444 -1.8650 -0.6740
  897MOL0     H18385   4.758   2.249  10.168  1.4988  1.7851 -1.8915
  897MOL0     H18386   5.534   1.983  10.137 -1.9669 -2.7098  1.2085
  897MOL0     H18387   5.732   1.828  10.112  3.3378  1.4015  2.1666
  897MOL0     H18388   6.158   1.699  10.039  0.4371 -1.1872  0.1256
  897MOL0     H18389   6.274   1.507   9.963  0.2848 -2.0871 -1.0831
  897MOL0     H18390   7.223   0.364   9.059  0.5033 -0.3178 -0.5039
  897MOL0     H18391   7.326   0.164   8.963 -2.1792 -0.1945  1.7113
  897MOL0     H18392   7.613  -0.126   8.877  1.0028 -1.9545  3.4746
  897MOL0     H18393   7.772  -0.320   8.864  0.3533 -0.3996  1.5867
  897MOL0     H18394   8.203  -0.246   8.840 -0.9040 -0.6053  1.2776
  897MOL0     H18395   8.152  -0.260   8.672  1.3703 -1.1781 -0.8275
  897MOL0     H18396   8.199  -0.496   8.859  2.9968 -0.8361 -0.4964
  897MOL0     H18397   8.146  -0.511   8.691 -2.1112 -0.8643  2.5347
  897MOL0     H18398   8.427  -0.393   8.798  3.2076 -0.6784 -1.2924
  897MOL0     H18399   8.372  -0.377   8.633 -0.3643  2.5234  2.0850
  897MOL0     H18400   8.428  -0.638   8.780  2.3587 -0.5498 -0.2780
  897MOL0     H18401   8.356  -0.629   8.613 -1.1045  0.6583 -0.4950
  897MOL0     H18402   8.759  -0.517   8.532  1.0514 -1.8781  1.8219
  897MOL0     H18403   8.083  -0.060   8.728  0.1643  0.5869  0.6133
  897MOL0     H18404   7.930   0.128   8.744  2.1539  0.5324  1.6435
  898MOL0     O18405   7.752   7.794   5.590 -0.0517  0.2293  0.0773
  898MOL0     C18406   7.797   7.906   5.563  0.7629 -1.1073  0.1585
  898MOL0     O18407   7.732   8.028   5.567 -0.0244 -0.5184 -0.0251
  898MOL0     C18408   7.602   8.024   5.615 -0.1654  0.4472  0.6484
  898MOL0     C18409   7.580   8.080   5.742  0.6626  0.1828 -0.2630
  898MOL0     C18410   7.446   8.080   5.791  0.1771  0.1784 -0.5334
  898MOL0     C18411   7.339   8.017   5.721 -0.0069  0.5597  0.4165
  898MOL0     O18412   7.209   8.022   5.762  0.4645  0.4904  1.2184
  898MOL0     C18413   7.170   8.123   5.860 -0.5643  0.1234 -0.1462
  898MOL0     C18414   7.142   8.244   5.777 -0.7667 -0.3615  0.7411
  898MOL0     C18415   7.061   8.351   5.854  0.7287  0.4128  0.5834
  898MOL0     C18416   7.016   8.472   5.762 -0.9272 -0.0559 -0.2275
  898MOL0     C18417   6.933   8.595   5.825  0.7521  0.3804  0.7210
  898MOL0     C18418   6.794   8.539   5.868  0.2243 -0.0426 -0.1226
  898MOL0     C18419   6.697   8.652   5.882 -0.8516 -0.8898 -0.1502
  898MOL0     C18420   6.631   8.690   5.750  0.1629 -0.9869  0.0827
  898MOL0     N18421   6.493   8.632   5.748  0.5452 -0.2864  0.1460
  898MOL0     C18422   6.465   8.530   5.657 -0.6836  0.0117  0.1905
  898MOL0     C18423   6.343   8.559   5.608  1.0280 -0.2871  0.1470
  898MOL0     C18424   6.274   8.475   5.507  0.5084 -1.4170 -0.1616
  898MOL0     C18425   6.288   8.545   5.364  0.2186 -0.2374 -0.3825
  898MOL0     C18426   6.424   8.518   5.305  0.0334  0.0550  0.7271
  898MOL0     C18427   6.444   8.376   5.263 -0.4148 -0.2561 -0.3376
  898MOL0     O18428   6.579   8.357   5.223 -0.2728 -0.1418 -0.0414
  898MOL0     C18429   6.619   8.402   5.092  0.8630 -0.5021 -0.1289
  898MOL0     C18430   6.752   8.393   5.062 -0.2584  0.4496  0.3776
  898MOL0     C18431   6.808   8.415   4.939 -0.1634 -0.0387  0.0858
  898MOL0     C18432   6.732   8.444   4.829  0.7301  0.0193  0.5202
  898MOL0     C18433   6.785   8.443   4.692 -0.7091 -0.4233 -0.1455
  898MOL0     O18434   6.920   8.413   4.681  0.7314  0.6807 -0.3149
  898MOL0     C18435   6.961   8.384   4.549  0.7155 -0.2915 -0.2183
  898MOL0     C18436   7.057   8.459   4.493  0.2022 -0.1015  0.2223
  898MOL0     C18437   7.111   8.414   4.370 -0.1017 -0.1430 -0.7767
  898MOL0     C18438   7.067   8.305   4.301  0.8340 -0.5001 -0.0803
  898MOL0     O18439   7.110   8.261   4.178  0.2731  0.2841 -0.1046
  898MOL0     C18440   7.235   8.303   4.129  1.0037 -0.2384  0.6876
  898MOL0     C18441   7.269   8.290   3.977 -0.3418 -0.0874  0.3541
  898MOL0     C18442   7.282   8.136   3.950  0.6190  0.3921 -0.2216
  898MOL0     C18443   7.343   8.091   3.824 -0.0689  0.7479  0.3296
  898MOL0     C18444   7.496   8.107   3.819 -0.2568  0.6125 -0.4929
  898MOL0     C18445   7.553   8.009   3.710 -0.4605  0.5353 -0.4114
  898MOL0     C18446   7.612   7.870   3.759 -0.0133 -1.2795  0.2996
  898MOL0     C18447   7.516   7.754   3.732 -0.2139  0.4083  0.7524
  898MOL0    Cl18448   7.468   7.720   3.565  0.2036 -0.0350  0.0374
  898MOL0     C18449   6.958   8.230   4.365  1.1871 -0.5950  0.2628
  898MOL0     C18450   6.908   8.275   4.487 -0.1829 -0.3976  0.9540
  898MOL0     O18451   6.715   8.480   4.597 -0.5423  0.8574 -0.1040
  898MOL0     C18452   6.598   8.463   4.857 -0.7856  0.2284  0.4397
  898MOL0     C18453   6.540   8.448   4.984 -0.1268 -0.2736  0.4502
  898MOL0     N18454   6.292   8.674   5.672 -0.2973  0.5775  0.6108
  898MOL0     N18455   6.385   8.711   5.755  0.8935  0.2962 -0.4288
  898MOL0     C18456   7.376   7.958   5.596  0.1659 -0.5349 -0.4644
  898MOL0     C18457   7.501   7.965   5.540 -0.1195 -0.4774  0.0537
  898MOL0     C18458   7.936   7.913   5.547  0.2507 -0.0973  0.3031
  898MOL0     C18459   8.027   7.816   5.593  0.2990  0.1231 -0.1136
  898MOL0     C18460   8.163   7.830   5.577  0.2910  0.1204  0.0619
  898MOL0     C18461   8.213   7.939   5.516 -0.0691 -0.9987  0.3593
  898MOL0     O18462   8.346   7.940   5.485  0.3330 -0.0784  0.1112
  898MOL0     C18463   8.436   8.047   5.538  0.6097  0.1046  0.0957
  898MOL0     C18464   8.554   8.084   5.437  0.2518 -0.4829  0.2297
  898MOL0     C18465   8.664   7.979   5.446 -0.3511  0.0865 -0.5214
  898MOL0     C18466   8.769   7.997   5.554 -0.0247 -0.3048 -0.3231
  898MOL0     C18467   8.825   8.134   5.554 -0.2950  0.4266  0.2823
  898MOL0     C18468   8.880   8.240   5.544  0.5842  0.4072  0.7546
  898MOL0     C18469   8.128   8.038   5.465 -0.4657 -1.0338  0.1287
  898MOL0     C18470   7.993   8.030   5.489 -0.0103 -0.3733  0.3820
  898MOL0     H18471   7.662   8.117   5.802  1.6061  2.0035 -2.5205
  898MOL0     H18472   7.431   8.106   5.895  1.8601  0.4716 -0.3305
  898MOL0     H18473   7.241   8.141   5.942 -1.4470  1.2775  0.4015
  898MOL0     H18474   7.087   8.086   5.921  1.0485 -0.7236  1.6471
  898MOL0     H18475   7.079   8.201   5.699  0.2303 -0.7697  0.1479
  898MOL0     H18476   7.230   8.279   5.723 -1.5830  1.9921  0.8282
  898MOL0     H18477   7.117   8.389   5.940 -0.1974 -2.1435  2.4703
  898MOL0     H18478   6.967   8.305   5.887  0.7228 -0.5459 -0.6893
  898MOL0     H18479   7.111   8.516   5.731 -0.1857 -0.3842  1.4744
  898MOL0     H18480   6.962   8.419   5.683 -1.1342  1.6646 -1.2753
  898MOL0     H18481   6.935   8.673   5.748 -1.3499 -0.6300 -0.4432
  898MOL0     H18482   6.992   8.633   5.909  0.8628 -1.6995  1.6618
  898MOL0     H18483   6.794   8.487   5.964  1.5860  0.4639  0.1750
  898MOL0     H18484   6.757   8.469   5.792  1.8304  0.5109 -1.4654
  898MOL0     H18485   6.629   8.614   5.959  0.1381 -0.2083  1.1083
  898MOL0     H18486   6.739   8.743   5.925  1.2859 -1.8420 -0.0823
  898MOL0     H18487   6.684   8.644   5.665 -1.7797 -2.6290 -0.3186
  898MOL0     H18488   6.630   8.796   5.723  0.5512 -1.0912 -0.3686
  898MOL0     H18489   6.537   8.458   5.620 -0.2288  0.8478 -0.6228
  898MOL0     H18490   6.166   8.462   5.520  0.6970 -2.3588  0.5982
  898MOL0     H18491   6.325   8.379   5.495  2.4097 -0.5428  0.5925
  898MOL0     H18492   6.263   8.652   5.364 -4.2244 -1.0958  0.0574
  898MOL0     H18493   6.215   8.502   5.295 -0.6189  0.3558  0.1065
  898MOL0     H18494   6.422   8.574   5.211  2.1801  0.2065  0.7355
  898MOL0     H18495   6.510   8.568   5.351  1.1750 -0.0549 -1.1850
  898MOL0     H18496   6.371   8.347   5.187  0.4062 -0.1183 -1.1859
  898MOL0     H18497   6.428   8.301   5.342 -1.2406  1.1741  0.9048
  898MOL0     H18498   6.815   8.362   5.144 -0.0326 -1.0032 -0.3110
  898MOL0     H18499   6.915   8.405   4.923 -0.3664  1.4225 -2.7116
  898MOL0     H18500   7.101   8.551   4.529 -0.6489  0.6767 -0.6637
  898MOL0     H18501   7.183   8.484   4.329  0.2799  1.6831  2.6602
  898MOL0     H18502   7.299   8.244   4.194  1.7877 -2.4768 -1.9138
  898MOL0     H18503   7.241   8.411   4.147  0.0804 -0.2743  1.2635
  898MOL0     H18504   7.363   8.339   3.948  1.1252 -2.8401  0.0992
  898MOL0     H18505   7.187   8.329   3.916 -0.8596  0.8310  1.6051
  898MOL0     H18506   7.179   8.098   3.956  0.4883  0.4933 -1.5720
  898MOL0     H18507   7.344   8.095   4.030  2.3177 -0.6470 -1.9888
  898MOL0     H18508   7.331   7.983   3.812  1.0830  0.6397  0.0113
  898MOL0     H18509   7.296   8.147   3.742  1.5800  0.4303 -0.8685
  898MOL0     H18510   7.549   8.091   3.913  1.3799  0.7148 -1.3569
  898MOL0     H18511   7.520   8.209   3.788  0.6756  0.8049  0.7590
  898MOL0     H18512   7.638   8.063   3.667 -1.5136  1.2476 -1.6817
  898MOL0     H18513   7.481   7.995   3.629 -1.8930  0.4504  0.8324
  898MOL0     H18514   7.703   7.849   3.703 -0.0298  0.8959 -0.6176
  898MOL0     H18515   7.632   7.870   3.867 -3.1101 -1.2596  0.9838
  898MOL0     H18516   7.426   7.791   3.781 -0.1709 -0.4598  1.4879
  898MOL0     H18517   7.547   7.664   3.785 -2.4103 -0.6423  0.3607
  898MOL0     H18518   6.911   8.144   4.318 -0.1218  0.9796 -1.4356
  898MOL0     H18519   6.816   8.231   4.527  1.7764 -2.1778  3.9116
  898MOL0     H18520   6.549   8.516   4.775  0.2039  0.7803  0.1875
  898MOL0     H18521   6.431   8.453   4.986 -0.3847 -3.3471 -0.1858
  898MOL0     H18522   7.293   7.935   5.530 -0.0216  1.0360 -0.8117
  898MOL0     H18523   7.523   7.905   5.452  2.2065 -1.5285  1.2729
  898MOL0     H18524   7.996   7.727   5.647 -1.0327  0.5539 -0.1399
  898MOL0     H18525   8.220   7.753   5.629  1.3536  1.5726  1.1384
  898MOL0     H18526   8.484   8.017   5.631  0.0310  1.6683  0.9354
  898MOL0     H18527   8.386   8.142   5.560  1.4677  0.5532  0.1646
  898MOL0     H18528   8.521   8.076   5.333 -0.6705 -0.5968  0.5211
  898MOL0     H18529   8.578   8.191   5.438  1.9801 -0.8028 -1.4323
  898MOL0     H18530   8.719   7.992   5.352 -2.0308 -0.4951 -1.6337
  898MOL0     H18531   8.624   7.877   5.443 -3.0587  1.0096  0.8119
  898MOL0     H18532   8.721   7.973   5.649 -1.6564 -1.8268 -1.4808
  898MOL0     H18533   8.848   7.924   5.531  0.8723  0.3492  0.5981
  898MOL0     H18534   8.930   8.333   5.523  0.1445  0.5169  0.1831
  898MOL0     H18535   8.171   8.111   5.397  0.1482 -3.1962 -1.9425
  898MOL0     H18536   7.924   8.110   5.466  0.5178  0.3086  1.1087
  899MOL0     O18537   5.917  11.032   3.889 -0.6859  0.0192 -0.1831
  899MOL0     C18538   5.973  11.032   4.001  1.2033  0.5236  0.7914
  899MOL0     O18539   5.940  11.122   4.101 -0.2705 -0.1566 -0.0248
  899MOL0     C18540   5.852  11.221   4.076  0.4135  0.2201  0.3111
  899MOL0     C18541   5.769  11.248   4.182 -0.0885 -0.0522 -0.3308
  899MOL0     C18542   5.682  11.357   4.167 -0.0349 -0.1176  0.1611
  899MOL0     C18543   5.670  11.439   4.051  0.4136 -0.2267 -0.2132
  899MOL0     O18544   5.603  11.552   4.048 -0.2494 -0.0495  0.0434
  899MOL0     C18545   5.517  11.571   3.934 -0.3431  0.1980 -1.0105
  899MOL0     C18546   5.424  11.688   3.953  0.4272  0.5584  0.5235
  899MOL0     C18547   5.325  11.662   4.062 -0.4648  0.0228 -0.0873
  899MOL0     C18548   5.230  11.546   4.037  0.4119 -0.5054 -0.4263
  899MOL0     C18549   5.135  11.566   3.922 -0.0085 -0.2849  0.8641
  899MOL0     C18550   5.004  11.648   3.955 -0.5844 -0.4161 -1.1610
  899MOL0     C18551   4.888  11.543   3.994 -0.0605 -0.9986 -0.1001
  899MOL0     C18552   4.759  11.613   4.033 -0.0582  0.0547 -0.2837
  899MOL0     N18553   4.664  11.506   4.067  0.8807 -0.1290 -0.3486
  899MOL0     C18554   4.609  11.476   4.191  0.2708  0.6327  0.2499
  899MOL0     C18555   4.507  11.404   4.166  0.1086 -0.2251  0.1398
  899MOL0     C18556   4.404  11.358   4.263 -0.2959 -0.2857  0.5571
  899MOL0     C18557   4.276  11.437   4.250 -0.3286  0.0522 -0.2267
  899MOL0     C18558   4.134  11.364   4.252 -0.4714 -0.1192 -0.4919
  899MOL0     C18559   4.123  11.266   4.132 -0.8671 -0.0068  0.0372
  899MOL0     O18560   4.139  11.327   4.004  0.6065 -0.7074 -0.8761
  899MOL0     C18561   4.012  11.358   3.966 -0.1025 -0.0518  0.0397
  899MOL0     C18562   3.962  11.491   3.974  0.4946  0.3908  0.0649
  899MOL0     C18563   3.829  11.521   3.937  0.1697 -0.3263  0.5176
  899MOL0     C18564   3.752  11.419   3.871  0.7758 -0.0825 -1.0505
  899MOL0     C18565   3.621  11.463   3.809 -0.3024  0.4532 -0.5384
  899MOL0     O18566   3.555  11.359   3.742 -0.7077 -0.7827  0.3298
  899MOL0     C18567   3.439  11.404   3.683 -0.7793  0.7061 -0.2864
  899MOL0     C18568   3.434  11.419   3.545 -0.7281 -0.9198  0.2329
  899MOL0     C18569   3.318  11.463   3.485  0.6966 -0.2969  0.3437
  899MOL0     C18570   3.205  11.478   3.562  0.6026 -0.0407  0.4909
  899MOL0     O18571   3.091  11.532   3.502  0.0131  0.1536 -0.2816
  899MOL0     C18572   3.000  11.612   3.585 -0.2014 -0.0031 -0.0612
  899MOL0     C18573   2.894  11.656   3.490  0.0211 -0.3112 -0.2143
  899MOL0     C18574   2.794  11.527   3.471 -0.0744  0.3495  0.5776
  899MOL0     C18575   2.671  11.557   3.379  0.1407  0.1136 -0.1108
  899MOL0     C18576   2.573  11.646   3.459  0.9728  0.1076 -0.6989
  899MOL0     C18577   2.435  11.645   3.407  0.9242 -0.0428 -0.1823
  899MOL0     C18578   2.423  11.685   3.251 -0.0071 -0.7902  0.0924
  899MOL0     C18579   2.274  11.710   3.209 -0.6569 -0.8180  0.3531
  899MOL0    Cl18580   2.192  11.556   3.223 -0.2119 -0.3219  0.0034
  899MOL0     C18581   3.213  11.462   3.700  0.5792  0.2382  0.2931
  899MOL0     C18582   3.333  11.431   3.760  0.2812 -0.2251  0.2285
  899MOL0     O18583   3.583  11.577   3.819  0.2811  0.4564 -0.4684
  899MOL0     C18584   3.792  11.280   3.883 -0.4123 -0.2548  0.9772
  899MOL0     C18585   3.926  11.252   3.923  0.1973  0.3349  0.0898
  899MOL0     N18586   4.500  11.377   4.029 -0.4299  0.5732 -0.3498
  899MOL0     N18587   4.601  11.433   3.970  0.1592 -0.6662 -0.7716
  899MOL0     C18588   5.760  11.410   3.947  0.5681  0.2615 -0.1529
  899MOL0     C18589   5.848  11.303   3.956  0.1064 -0.3708 -0.2955
  899MOL0     C18590   6.059  10.919   4.034  0.2197 -0.4302 -0.3016
  899MOL0     C18591   6.143  10.935   4.152 -0.3438  0.2516 -0.5068
  899MOL0     C18592   6.228  10.824   4.178  0.9695 -0.7371  0.6124
  899MOL0     C18593   6.228  10.702   4.105  0.3663  0.0451 -0.7412
  899MOL0     O18594   6.307  10.595   4.149 -0.0441 -0.3255  0.7727
  899MOL0     C18595   6.418  10.571   4.068 -0.1010 -0.5893  0.5179
  899MOL0     C18596   6.534  10.522   4.170  0.6226  0.4755  0.6218
  899MOL0     C18597   6.651  10.461   4.091 -0.2570 -0.4167 -0.4206
  899MOL0     C18598   6.700  10.562   3.982 -0.2578  0.4422  0.8912
  899MOL0     C18599   6.841  10.545   3.946 -1.5410 -0.2183  0.2919
  899MOL0     C18600   6.960  10.548   3.925 -0.1352 -0.7731 -0.5246
  899MOL0     C18601   6.148  10.702   3.987  0.2281  0.6739  0.2121
  899MOL0     C18602   6.056  10.800   3.955 -0.9543 -0.1502  1.1009
  899MOL0     H18603   5.784  11.189   4.272  0.8665  2.1081  1.0276
  899MOL0     H18604   5.632  11.382   4.260 -0.4170  1.8146 -0.5127
  899MOL0     H18605   5.462  11.479   3.910 -1.3412  0.8459 -1.2889
  899MOL0     H18606   5.572  11.600   3.844  0.2125  0.6616 -0.5301
  899MOL0     H18607   5.380  11.706   3.855  0.8537 -2.3724 -0.3267
  899MOL0     H18608   5.487  11.772   3.983 -0.0240  0.8405  0.6779
  899MOL0     H18609   5.267  11.753   4.080 -1.7253 -0.9436  0.8676
  899MOL0     H18610   5.385  11.632   4.148 -0.2969 -0.8456 -0.4987
  899MOL0     H18611   5.290  11.456   4.024  0.6764 -0.3762 -0.1016
  899MOL0     H18612   5.174  11.529   4.130  2.9621 -5.1537  0.5070
  899MOL0     H18613   5.111  11.465   3.887  0.2786  0.0746 -0.4006
  899MOL0     H18614   5.190  11.615   3.842 -0.0682 -0.7865  0.5088
  899MOL0     H18615   4.985  11.708   3.866 -0.9751 -0.4472 -1.1013
  899MOL0     H18616   5.017  11.712   4.043 -0.4446  0.4066 -1.7772
  899MOL0     H18617   4.858  11.478   3.912 -0.9647  0.8461 -1.2979
  899MOL0     H18618   4.920  11.487   4.082 -0.7134 -1.7527 -0.3367
  899MOL0     H18619   4.720  11.671   3.949 -0.4531  2.0907  1.2318
  899MOL0     H18620   4.775  11.686   4.113  2.6799 -0.0966 -0.5931
  899MOL0     H18621   4.636  11.522   4.285 -0.3134  2.6399 -0.5087
  899MOL0     H18622   4.446  11.379   4.362  3.8867  1.6654 -1.3937
  899MOL0     H18623   4.384  11.251   4.251 -0.1011 -0.3528  0.8135
  899MOL0     H18624   4.281  11.489   4.155 -1.1929  0.4543 -0.0563
  899MOL0     H18625   4.271  11.504   4.337  1.0248 -1.6328  1.2447
  899MOL0     H18626   4.128  11.310   4.348 -2.9208  0.1923 -0.3920
  899MOL0     H18627   4.053  11.438   4.258 -0.0124  0.2916  2.4030
  899MOL0     H18628   4.035  11.201   4.139 -0.3362 -0.5657  1.8425
  899MOL0     H18629   4.205  11.195   4.134 -0.4421  0.4481 -0.7534
  899MOL0     H18630   4.029  11.571   4.003 -0.0817  1.5253 -1.6159
  899MOL0     H18631   3.776  11.614   3.955 -0.2409 -1.0477  3.6776
  899MOL0     H18632   3.523  11.418   3.482  1.3805  1.8555  2.8263
  899MOL0     H18633   3.311  11.488   3.379  1.1395  0.8493  0.5732
  899MOL0     H18634   3.044  11.705   3.622 -2.0388  0.0169  2.2629
  899MOL0     H18635   2.959  11.550   3.665 -2.6731  0.6196 -0.7720
  899MOL0     H18636   2.941  11.691   3.398 -0.5777 -1.8670 -1.1361
  899MOL0     H18637   2.832  11.734   3.535 -0.4569 -0.4837 -0.5755
  899MOL0     H18638   2.758  11.486   3.566  1.2851 -2.7659 -0.1175
  899MOL0     H18639   2.852  11.443   3.432  0.2263  0.6196  0.4395
  899MOL0     H18640   2.700  11.625   3.298 -1.5691  2.3895  1.0809
  899MOL0     H18641   2.618  11.468   3.343  1.9586 -0.3826 -1.7493
  899MOL0     H18642   2.596  11.753   3.457  0.5336  0.2043 -0.6642
  899MOL0     H18643   2.573  11.612   3.563  2.9620  3.3499  0.5345
  899MOL0     H18644   2.372  11.707   3.471 -1.4333 -2.5850  0.1097
  899MOL0     H18645   2.400  11.542   3.410 -1.4367  0.7164  0.8279
  899MOL0     H18646   2.477  11.780   3.241  0.4994 -0.4968  4.0729
  899MOL0     H18647   2.483  11.624   3.183  2.6598  2.5097 -0.8267
  899MOL0     H18648   2.271  11.751   3.107  2.2400 -0.8042  0.1679
  899MOL0     H18649   2.220  11.780   3.272  0.7384  1.0698 -0.4328
  899MOL0     H18650   3.133  11.485   3.769 -1.0707 -0.7174 -1.1951
  899MOL0     H18651   3.334  11.388   3.859  1.7218 -1.5894 -0.3417
  899MOL0     H18652   3.722  11.215   3.832 -1.1895 -0.0274  1.7323
  899MOL0     H18653   3.955  11.148   3.928 -2.4873 -0.4179  2.5118
  899MOL0     H18654   5.757  11.462   3.852  0.0395 -0.4111 -0.5127
  899MOL0     H18655   5.909  11.282   3.869 -1.3526 -2.5293 -0.8850
  899MOL0     H18656   6.143  11.019   4.220  1.4461 -1.6358  1.9948
  899MOL0     H18657   6.295  10.821   4.263  1.4606 -2.7877  0.2204
  899MOL0     H18658   6.458  10.661   4.020 -1.0508  0.0650  0.9287
  899MOL0     H18659   6.397  10.489   3.999  1.4986 -2.2352  1.8453
  899MOL0     H18660   6.566  10.607   4.232  2.5048 -0.7205  1.3727
  899MOL0     H18661   6.492  10.447   4.238 -0.1373 -1.1401 -1.5233
  899MOL0     H18662   6.606  10.369   4.054 -2.7656  1.0103 -1.1938
  899MOL0     H18663   6.735  10.436   4.156 -4.2960 -0.9960  5.3358
  899MOL0     H18664   6.657  10.560   3.881  1.8785  0.6939 -0.0662
  899MOL0     H18665   6.683  10.665   4.017 -0.2321  0.9788 -0.5946
  899MOL0     H18666   7.058  10.564   3.884 -0.5119 -0.6997 -1.4117
  899MOL0     H18667   6.145  10.612   3.927 -2.9872  0.1866  0.9061
  899MOL0     H18668   5.983  10.790   3.875 -2.0333  0.8488  1.9239
  900MOL0     O18669   2.976   6.739   7.271 -0.4750  0.5641 -0.1623
  900MOL0     C18670   2.971   6.764   7.150 -0.6884  0.0959 -0.7917
  900MOL0     O18671   2.859   6.756   7.072 -0.1750 -0.7379 -0.7683
  900MOL0     C18672   2.729   6.731   7.113  0.5221  0.2387 -0.2117
  900MOL0     C18673   2.626   6.796   7.041  0.3060 -0.2471  0.8802
  900MOL0     C18674   2.496   6.774   7.083 -0.3799 -0.7120  0.1209
  900MOL0     C18675   2.471   6.690   7.190  0.0334 -0.0668 -0.3188
  900MOL0     O18676   2.344   6.662   7.229  0.2622  0.1838 -0.3907
  900MOL0     C18677   2.269   6.625   7.114  0.1815  0.1344  0.5541
  900MOL0     C18678   2.161   6.531   7.146 -0.1147 -0.0138 -0.0418
  900MOL0     C18679   2.022   6.566   7.197 -0.3265 -0.7117 -0.0789
  900MOL0     C18680   1.909   6.456   7.208 -0.9194  0.3248 -0.9862
  900MOL0     C18681   1.772   6.501   7.251  0.9442 -0.6661  0.2589
  900MOL0     C18682   1.651   6.413   7.274  0.3082 -0.8734  0.9068
  900MOL0     C18683   1.631   6.381   7.420 -0.0823  0.8622  0.6970
  900MOL0     C18684   1.545   6.253   7.435  0.5728 -0.0793 -0.7502
  900MOL0     N18685   1.399   6.290   7.430  1.1673 -0.1549 -0.3300
  900MOL0     C18686   1.311   6.228   7.339 -0.3198  0.2120 -0.2862
  900MOL0     C18687   1.182   6.271   7.379 -0.2347 -0.4162  0.2744
  900MOL0     C18688   1.061   6.252   7.289  0.0563  0.5744 -0.3551
  900MOL0     C18689   1.006   6.109   7.285 -0.5854 -0.3559  0.1819
  900MOL0     C18690   0.941   6.057   7.413 -0.0521  0.7414 -0.0384
  900MOL0     C18691   0.879   6.164   7.503 -0.2777 -0.0374  0.6571
  900MOL0     O18692   0.780   6.240   7.429  0.6035 -0.2057  0.1678
  900MOL0     C18693   0.655   6.181   7.403 -0.2505 -0.1134 -0.8357
  900MOL0     C18694   0.573   6.258   7.335 -0.6238  0.2342 -0.6725
  900MOL0     C18695   0.438   6.237   7.330 -0.4673  0.4308  0.3607
  900MOL0     C18696   0.386   6.117   7.378 -0.5921  0.2827 -0.2523
  900MOL0     C18697   0.245   6.074   7.358  0.3337 -0.2511  0.1228
  900MOL0     O18698   0.162   6.165   7.295 -0.0032 -0.4286  0.2706
  900MOL0     C18699   0.034   6.129   7.283  0.0914  0.2164  0.4580
  900MOL0     C18700  -0.016   6.099   7.151  0.1213 -0.2933 -0.9116
  900MOL0     C18701  -0.145   6.053   7.133  0.5564 -0.2762  0.4781
  900MOL0     C18702  -0.239   6.043   7.243  0.0054  0.8666  0.2204
  900MOL0     O18703  -0.363   5.995   7.224  0.2608 -0.1322  0.7477
  900MOL0     C18704  -0.377   5.870   7.167 -0.4698  1.4854  0.6046
  900MOL0     C18705  -0.478   5.865   7.049  0.3756 -0.4478  0.9070
  900MOL0     C18706  -0.599   5.960   7.068  1.0461  0.4010  0.5379
  900MOL0     C18707  -0.673   5.963   6.931 -0.8637  0.5820 -0.3221
  900MOL0     C18708  -0.808   5.892   6.961  0.0120 -0.0757 -0.0997
  900MOL0     C18709  -0.897   5.895   6.833  0.2082 -0.8162  0.7999
  900MOL0     C18710  -1.017   5.811   6.848 -0.4073 -0.3602  0.4451
  900MOL0     C18711  -1.081   5.797   6.709  0.4801 -0.5755 -0.0091
  900MOL0    Cl18712  -1.243   5.737   6.730  0.0157  0.5454 -0.0417
  900MOL0     C18713  -0.186   6.063   7.373  0.1528  0.5196  0.6285
  900MOL0     C18714  -0.057   6.109   7.388  0.2437  0.2559 -0.7048
  900MOL0     O18715   0.213   5.961   7.398  0.3131 -0.0415  1.2587
  900MOL0     C18716   0.471   6.036   7.455  0.9567  1.2423 -0.4930
  900MOL0     C18717   0.611   6.070   7.469  0.3454  1.0245 -0.2078
  900MOL0     N18718   1.191   6.355   7.487  1.1355  0.6835  0.5809
  900MOL0     N18719   1.324   6.371   7.511  0.1680 -0.1859  0.8524
  900MOL0     C18720   2.571   6.620   7.256 -0.4355 -0.6651  0.3432
  900MOL0     C18721   2.705   6.648   7.219  0.8854  0.8183 -1.0975
  900MOL0     C18722   3.107   6.802   7.102 -0.6701  0.5562  0.5281
  900MOL0     C18723   3.225   6.775   7.163 -0.6825 -0.4517 -0.2564
  900MOL0     C18724   3.346   6.812   7.125 -0.6787 -0.5008 -0.1690
  900MOL0     C18725   3.357   6.876   6.998  0.1556 -0.4404 -0.1549
  900MOL0     O18726   3.475   6.916   6.947  0.3351  0.2336 -0.0095
  900MOL0     C18727   3.587   6.887   7.033 -0.0321 -0.1395 -0.6250
  900MOL0     C18728   3.711   6.954   6.972  0.6197 -0.2189  0.2511
  900MOL0     C18729   3.837   6.940   7.060  0.6130  0.1849 -0.6594
  900MOL0     C18730   3.951   6.976   6.972  0.8134 -0.1487  0.8415
  900MOL0     C18731   3.991   6.877   6.869 -0.3872  0.7233  0.2291
  900MOL0     C18732   4.016   6.800   6.776 -0.2949 -0.7873  0.7025
  900MOL0     C18733   3.244   6.899   6.924 -0.1068 -0.5367  1.2316
  900MOL0     C18734   3.119   6.860   6.972 -0.2058 -0.8379 -0.3971
  900MOL0     H18735   2.641   6.875   6.969 -1.0942  0.7500  1.6439
  900MOL0     H18736   2.417   6.838   7.046  0.1805 -0.0675  0.0247
  900MOL0     H18737   2.337   6.573   7.046 -0.9658 -0.6639 -0.0174
  900MOL0     H18738   2.218   6.708   7.062  3.5848  1.5576 -0.8008
  900MOL0     H18739   2.193   6.451   7.214 -0.4404 -2.6463 -2.8063
  900MOL0     H18740   2.133   6.477   7.055 -2.3230 -0.6770  0.9613
  900MOL0     H18741   1.979   6.649   7.140 -0.1713  1.0273  2.1685
  900MOL0     H18742   2.040   6.604   7.298 -1.3350 -0.5869  0.0733
  900MOL0     H18743   1.905   6.401   7.114  0.3672 -3.3351  0.9082
  900MOL0     H18744   1.934   6.379   7.282 -2.1746  2.3019  1.6783
  900MOL0     H18745   1.749   6.579   7.177  1.0511 -0.9614 -0.0913
  900MOL0     H18746   1.797   6.544   7.348  1.6816  2.8992 -1.3168
  900MOL0     H18747   1.664   6.330   7.204  1.2504  3.4611 -4.7371
  900MOL0     H18748   1.561   6.459   7.233  1.3939 -0.5549 -1.2541
  900MOL0     H18749   1.728   6.348   7.458 -2.1101 -3.2651  2.8902
  900MOL0     H18750   1.579   6.469   7.457 -2.2817  0.5952 -1.5132
  900MOL0     H18751   1.559   6.202   7.531 -0.3432  3.4444  1.4634
  900MOL0     H18752   1.567   6.172   7.364 -0.4285 -1.8345  0.8319
  900MOL0     H18753   1.334   6.178   7.245 -0.9139 -1.5444  0.4685
  900MOL0     H18754   1.089   6.285   7.189 -0.4932 -0.1738 -0.7742
  900MOL0     H18755   0.981   6.315   7.330 -1.1507 -0.0446 -1.6431
  900MOL0     H18756   1.087   6.046   7.246  0.0390 -0.0772  0.9945
  900MOL0     H18757   0.929   6.109   7.207  1.2798  1.9350 -1.8224
  900MOL0     H18758   0.872   5.974   7.394  2.7311 -1.8582  0.2811
  900MOL0     H18759   1.022   6.010   7.470 -1.0446 -0.7510  0.2083
  900MOL0     H18760   0.947   6.245   7.530 -1.4550  0.6573  1.6343
  900MOL0     H18761   0.839   6.126   7.597  0.0726  4.3178  2.7959
  900MOL0     H18762   0.624   6.344   7.293  0.4272 -0.1808 -0.2744
  900MOL0     H18763   0.389   6.317   7.276  3.6262  1.9737 -1.4851
  900MOL0     H18764   0.047   6.105   7.063  0.0287 -2.4726 -1.1884
  900MOL0     H18765  -0.178   6.038   7.030 -4.0979  1.5645  1.4601
  900MOL0     H18766  -0.408   5.802   7.247  2.5693  1.6264  2.0328
  900MOL0     H18767  -0.283   5.825   7.136 -2.0580 -2.2208  0.6306
  900MOL0     H18768  -0.512   5.763   7.029 -1.0220  0.1833 -0.1405
  900MOL0     H18769  -0.422   5.885   6.957  3.0185  0.1648  2.5791
  900MOL0     H18770  -0.574   6.063   7.097  2.3631 -0.2859  1.9710
  900MOL0     H18771  -0.651   5.915   7.152  0.6662  2.2181  1.3122
  900MOL0     H18772  -0.700   6.067   6.913  0.3156  0.8130 -0.7914
  900MOL0     H18773  -0.627   5.913   6.845 -2.0543  0.2362 -0.7901
  900MOL0     H18774  -0.849   5.938   7.052  2.5012  0.8570  0.6380
  900MOL0     H18775  -0.780   5.788   6.979  0.9648  0.1596 -0.1586
  900MOL0     H18776  -0.848   5.859   6.742 -2.0135  1.2658 -1.3598
  900MOL0     H18777  -0.927   5.999   6.816 -1.1858 -1.1697  0.9380
  900MOL0     H18778  -0.984   5.713   6.885  2.9227 -0.1614 -1.5361
  900MOL0     H18779  -1.082   5.865   6.917 -2.6538 -1.3664 -0.7837
  900MOL0     H18780  -1.016   5.740   6.641 -1.5255 -3.9396  0.7049
  900MOL0     H18781  -1.096   5.895   6.662 -2.0988 -2.0019 -2.5102
  900MOL0     H18782  -0.243   6.060   7.466 -0.1287 -1.3130  0.4322
  900MOL0     H18783  -0.019   6.114   7.490 -0.0046 -3.5043 -0.2934
  900MOL0     H18784   0.439   5.947   7.508  1.7251  1.4213  0.2983
  900MOL0     H18785   0.668   6.015   7.542 -4.1284 -2.0912  1.3542
  900MOL0     H18786   2.550   6.552   7.338 -3.0722  0.3390  0.5961
  900MOL0     H18787   2.777   6.586   7.272  0.8269  0.9440 -0.8713
  900MOL0     H18788   3.241   6.734   7.263 -1.3160  0.9916  0.4615
  900MOL0     H18789   3.428   6.785   7.192  1.1844  1.3567 -1.5698
  900MOL0     H18790   3.607   6.781   7.051  0.9693  0.0803 -0.3476
  900MOL0     H18791   3.562   6.938   7.126 -0.8331 -1.0715 -0.3166
  900MOL0     H18792   3.727   6.905   6.876 -2.8034 -0.4470 -0.3334
  900MOL0     H18793   3.694   7.061   6.958  0.8998 -0.3622 -1.2664
  900MOL0     H18794   3.843   6.841   7.106 -2.7374  0.5578  0.8737
  900MOL0     H18795   3.829   7.012   7.142  5.6411  2.4587 -1.7528
  900MOL0     H18796   3.927   7.073   6.928  0.3386  0.3306  2.0994
  900MOL0     H18797   4.033   6.980   7.045  0.2802  0.0659  1.4369
  900MOL0     H18798   4.066   6.741   6.701  2.9941  2.2651  0.2203
  900MOL0     H18799   3.259   6.942   6.826 -0.0723  0.9402  1.8630
  900MOL0     H18800   3.021   6.872   6.926 -3.1147  0.6724  5.2325
  901MOL0     O18801   5.773   6.128   5.416  0.6006 -0.0762 -0.2986
  901MOL0     C18802   5.752   6.031   5.342 -0.5115  0.8216  0.1730
  901MOL0     O18803   5.639   5.995   5.284  0.3049  0.1421 -0.2344
  901MOL0     C18804   5.523   6.060   5.323  0.2217 -0.2090  0.2564
  901MOL0     C18805   5.422   5.992   5.382  0.6775 -0.5491  0.0963
  901MOL0     C18806   5.312   6.059   5.439  0.0927  0.5921 -0.3083
  901MOL0     C18807   5.295   6.196   5.425  0.2915 -1.1128  0.1021
  901MOL0     O18808   5.188   6.272   5.477 -0.2670  0.3403 -0.0589
  901MOL0     C18809   5.070   6.212   5.541  0.3156 -0.2659 -0.2420
  901MOL0     C18810   4.973   6.318   5.565 -0.2946 -0.7093  0.1609
  901MOL0     C18811   4.940   6.396   5.434  0.4669  0.2290  0.0755
  901MOL0     C18812   4.793   6.440   5.438  0.1301 -0.9807 -0.1949
  901MOL0     C18813   4.766   6.555   5.329 -0.4792 -0.0318 -0.1198
  901MOL0     C18814   4.610   6.595   5.323  0.5878  0.1541  0.6312
  901MOL0     C18815   4.557   6.692   5.218 -0.5454 -0.5134  0.2287
  901MOL0     C18816   4.565   6.622   5.081  0.0993 -0.3498  0.1177
  901MOL0     N18817   4.519   6.722   4.981 -0.3220  0.5882  0.2316
  901MOL0     C18818   4.402   6.707   4.918 -0.0270 -0.2992  0.2810
  901MOL0     C18819   4.406   6.786   4.809  0.1441  0.4913  0.1894
  901MOL0     C18820   4.306   6.808   4.706  0.9962 -0.4090 -0.3634
  901MOL0     C18821   4.320   6.942   4.637  0.4036  0.1839  0.4632
  901MOL0     C18822   4.422   6.934   4.518  0.0397 -0.1299  0.1303
  901MOL0     C18823   4.405   7.009   4.381 -0.0565  0.6106  0.4139
  901MOL0     O18824   4.395   7.146   4.422  0.2723 -0.0885 -0.3667
  901MOL0     C18825   4.392   7.244   4.324 -0.4491 -0.5908 -0.4914
  901MOL0     C18826   4.499   7.273   4.245 -0.2862 -0.5650  0.4438
  901MOL0     C18827   4.490   7.370   4.146 -0.1946 -0.3580  0.3474
  901MOL0     C18828   4.374   7.447   4.134  1.5405 -0.0107 -0.2235
  901MOL0     C18829   4.350   7.550   4.030 -2.0167 -0.4364  0.9341
  901MOL0     O18830   4.227   7.606   4.030 -0.5701 -0.3167  0.4270
  901MOL0     C18831   4.192   7.726   3.964 -0.4680  0.0792  0.3436
  901MOL0     C18832   4.283   7.817   3.903  0.4765  0.1541 -0.3635
  901MOL0     C18833   4.238   7.932   3.829 -0.3506 -0.8534 -0.2542
  901MOL0     C18834   4.102   7.981   3.853 -0.8508 -0.0020  0.0434
  901MOL0     O18835   4.037   8.084   3.790  0.1709  0.0253  0.4596
  901MOL0     C18836   4.127   8.191   3.750  0.5956 -0.6205 -0.2675
  901MOL0     C18837   4.069   8.338   3.760  0.9860 -0.4462  1.2625
  901MOL0     C18838   3.930   8.342   3.687  0.2452  0.2814  0.2336
  901MOL0     C18839   3.860   8.478   3.719 -0.1363  0.5749  0.0900
  901MOL0     C18840   3.743   8.499   3.626 -0.9305 -0.5942  0.1939
  901MOL0     C18841   3.669   8.629   3.668 -0.1418 -0.4256  0.2329
  901MOL0     C18842   3.540   8.646   3.588  0.3361  0.4690  1.4442
  901MOL0     C18843   3.426   8.704   3.677 -1.0125 -0.9313  0.9598
  901MOL0    Cl18844   3.467   8.868   3.728 -0.1121  0.1194 -0.4094
  901MOL0     C18845   4.020   7.889   3.925 -0.6181  0.9408  0.2217
  901MOL0     C18846   4.065   7.768   3.972 -0.0072  0.1204  0.7548
  901MOL0     O18847   4.437   7.573   3.942 -0.1519  0.2409 -0.9582
  901MOL0     C18848   4.270   7.438   4.234 -0.4412 -0.2937 -0.2389
  901MOL0     C18849   4.279   7.327   4.324  1.0104 -0.1946 -0.5247
  901MOL0     N18850   4.538   6.840   4.807  0.0083  0.0328 -0.3409
  901MOL0     N18851   4.604   6.802   4.905 -0.3212  0.7178 -0.1253
  901MOL0     C18852   5.397   6.267   5.353  0.1174 -0.6767  0.6616
  901MOL0     C18853   5.508   6.200   5.303 -0.3424  0.8329 -0.1659
  901MOL0     C18854   5.878   5.934   5.321 -0.0888 -0.3510 -0.1957
  901MOL0     C18855   5.976   5.947   5.419 -0.2434  0.6345 -0.9921
  901MOL0     C18856   6.095   5.870   5.406  0.8004  0.1522 -0.7644
  901MOL0     C18857   6.116   5.781   5.302  1.3769  0.6299 -0.3380
  901MOL0     O18858   6.230   5.709   5.309 -0.0085  0.5340 -0.4581
  901MOL0     C18859   6.247   5.588   5.228  0.0549  0.2489 -0.1624
  901MOL0     C18860   6.346   5.611   5.107  0.8643 -0.6916 -1.2461
  901MOL0     C18861   6.385   5.486   5.032  0.5217  0.6361  0.2548
  901MOL0     C18862   6.445   5.380   5.119  0.0879  0.5682  0.4768
  901MOL0     C18863   6.500   5.272   5.025  0.6540 -0.2917  0.2846
  901MOL0     C18864   6.521   5.169   4.963  0.3202  0.3311  0.0495
  901MOL0     C18865   6.012   5.761   5.204 -0.5065 -0.3314  0.0019
  901MOL0     C18866   5.896   5.838   5.214 -0.1461 -0.5369 -1.3731
  901MOL0     H18867   5.438   5.884   5.388 -1.5645 -0.9399  0.0967
  901MOL0     H18868   5.252   5.992   5.499  1.2649  2.4843  3.2814
  901MOL0     H18869   5.093   6.171   5.640  0.2586  0.1462 -0.0572
  901MOL0     H18870   5.036   6.128   5.479  2.1721  0.0588 -1.8090
  901MOL0     H18871   5.011   6.379   5.648 -0.1877 -1.0666  0.3795
  901MOL0     H18872   4.879   6.275   5.603 -0.9053  0.4086 -0.0369
  901MOL0     H18873   4.955   6.319   5.358 -0.3440  0.9757 -0.8744
  901MOL0     H18874   5.016   6.470   5.407  3.4406 -1.8568  2.0923
  901MOL0     H18875   4.724   6.357   5.423 -2.4149  0.5060  2.2114
  901MOL0     H18876   4.770   6.480   5.537  1.8337  1.2242 -0.6084
  901MOL0     H18877   4.796   6.506   5.237  0.8736 -1.6104  1.1010
  901MOL0     H18878   4.829   6.642   5.348  0.7438 -0.9908  0.3581
  901MOL0     H18879   4.586   6.636   5.422 -1.8093  0.4073  0.0124
  901MOL0     H18880   4.545   6.507   5.320  1.3512 -0.4482 -3.2854
  901MOL0     H18881   4.453   6.724   5.234 -0.4354 -0.7247  1.4677
  901MOL0     H18882   4.628   6.775   5.214  0.1663 -1.1338 -0.2266
  901MOL0     H18883   4.495   6.540   5.062 -0.6064  0.3062 -0.1931
  901MOL0     H18884   4.668   6.597   5.056 -0.6410 -0.5962 -3.1268
  901MOL0     H18885   4.318   6.657   4.967 -2.4766 -0.4866 -3.6549
  901MOL0     H18886   4.205   6.810   4.746 -0.3485 -1.8766 -3.3743
  901MOL0     H18887   4.300   6.723   4.638 -4.3410 -3.0804  2.8333
  901MOL0     H18888   4.361   7.023   4.699  2.4111  1.6849 -2.5744
  901MOL0     H18889   4.223   6.972   4.595 -0.6766 -2.2342  1.0674
  901MOL0     H18890   4.514   6.984   4.550 -1.6620  2.6021  1.0623
  901MOL0     H18891   4.451   6.830   4.495 -0.5093 -0.2857  0.1407
  901MOL0     H18892   4.309   6.979   4.336  0.6126 -2.3523  0.7645
  901MOL0     H18893   4.485   6.985   4.311 -2.3603 -3.4161 -1.2236
  901MOL0     H18894   4.584   7.207   4.256  0.5163  0.7589  3.3954
  901MOL0     H18895   4.561   7.376   4.064  0.5718 -0.4899  0.9879
  901MOL0     H18896   4.383   7.781   3.882  0.4954  0.1081 -0.1918
  901MOL0     H18897   4.305   7.997   3.774 -0.0770  0.0601  1.1040
  901MOL0     H18898   4.162   8.168   3.649  0.3605 -1.1238 -0.2379
  901MOL0     H18899   4.220   8.199   3.805 -0.2771 -0.6383  1.2527
  901MOL0     H18900   4.140   8.403   3.709  0.4896 -0.7815  0.1260
  901MOL0     H18901   4.047   8.376   3.861  0.8872 -1.7277  1.7399
  901MOL0     H18902   3.876   8.250   3.711  2.5408 -1.7007 -1.7415
  901MOL0     H18903   3.939   8.342   3.578 -1.4345  2.2079  0.0267
  901MOL0     H18904   3.839   8.488   3.826  1.2122  1.7526  0.2775
  901MOL0     H18905   3.929   8.557   3.689  2.3587 -1.0527  1.2095
  901MOL0     H18906   3.676   8.413   3.615 -0.6900 -0.6456 -0.9628
  901MOL0     H18907   3.785   8.518   3.527 -1.9937 -0.7161 -0.2958
  901MOL0     H18908   3.734   8.717   3.660  0.9985 -1.3474 -1.3835
  901MOL0     H18909   3.659   8.609   3.775  0.1110 -0.8116  0.1829
  901MOL0     H18910   3.562   8.727   3.517  1.4194 -2.1495 -1.4249
  901MOL0     H18911   3.498   8.553   3.549  0.8251 -0.4778  3.1025
  901MOL0     H18912   3.415   8.641   3.765 -0.6759 -0.3602  1.4176
  901MOL0     H18913   3.325   8.688   3.639 -1.5379 -2.8005  2.9357
  901MOL0     H18914   3.914   7.904   3.938 -0.9778 -0.6100 -0.7122
  901MOL0     H18915   4.000   7.707   4.035 -2.7181  3.7968  1.8306
  901MOL0     H18916   4.184   7.505   4.233  0.9442  1.6160  1.6724
  901MOL0     H18917   4.199   7.314   4.397 -0.3511 -0.4885 -2.0122
  901MOL0     H18918   5.382   6.373   5.334 -0.6156 -0.8705  0.1068
  901MOL0     H18919   5.590   6.252   5.255  0.3092  0.5662  0.6501
  901MOL0     H18920   5.952   5.995   5.513  0.0859 -2.9542  1.1281
  901MOL0     H18921   6.165   5.874   5.489  0.0351 -2.6280  0.1330
  901MOL0     H18922   6.155   5.540   5.195 -1.6252  3.1073 -0.0385
  901MOL0     H18923   6.279   5.512   5.301 -1.6562 -1.3728 -1.0355
  901MOL0     H18924   6.294   5.674   5.034  2.8512  0.3785 -1.7979
  901MOL0     H18925   6.429   5.668   5.149 -2.0019  2.7065  0.4431
  901MOL0     H18926   6.461   5.506   4.956  0.3873 -0.8152 -0.2887
  901MOL0     H18927   6.300   5.445   4.976  0.3338  2.3200 -0.7917
  901MOL0     H18928   6.526   5.426   5.176  1.2723  2.1391 -2.2841
  901MOL0     H18929   6.373   5.340   5.190 -2.5121 -0.4963 -2.5232
  901MOL0     H18930   6.555   5.072   4.934 -1.4295  0.6696 -3.8035
  901MOL0     H18931   6.022   5.698   5.117 -0.9912  2.3867 -2.1537
  901MOL0     H18932   5.820   5.830   5.137 -0.6551 -2.3004 -0.7347
  902MOL0     O18933   3.351   8.356  10.773 -0.5913 -0.2965  0.2445
  902MOL0     C18934   3.337   8.473  10.812  0.2040  0.1001  0.4436
  902MOL0     O18935   3.223   8.545  10.796  0.2690  0.1375  0.2954
  902MOL0     C18936   3.108   8.482  10.762  1.1604 -0.4357  0.9266
  902MOL0     C18937   3.055   8.373  10.842 -1.2918 -0.3096  1.4178
  902MOL0     C18938   2.926   8.328  10.814 -0.1436 -0.3840 -0.3532
  902MOL0     C18939   2.845   8.381  10.722  0.2605  0.4976  0.4766
  902MOL0     O18940   2.722   8.335  10.716  0.4181  0.3512  0.3808
  902MOL0     C18941   2.659   8.335  10.586 -0.1109  0.5845 -0.4254
  902MOL0     C18942   2.526   8.254  10.588 -0.4214  0.2919  0.9698
  902MOL0     C18943   2.552   8.105  10.610 -0.0358 -0.1972 -0.2695
  902MOL0     C18944   2.566   8.059  10.757 -0.2247 -0.0920  0.1863
  902MOL0     C18945   2.562   7.900  10.769  0.3583  0.2766 -0.6360
  902MOL0     C18946   2.625   7.872  10.914 -0.4934 -0.6666  0.3459
  902MOL0     C18947   2.636   7.731  10.966 -0.1914 -0.1772  0.3968
  902MOL0     C18948   2.709   7.630  10.863  0.5559 -0.9407 -0.6052
  902MOL0     N18949   2.730   7.497  10.928  0.2607 -0.2507  0.3691
  902MOL0     C18950   2.845   7.430  10.941 -1.4992  0.4823 -0.3680
  902MOL0     C18951   2.807   7.322  11.010 -1.7942 -0.4834  0.0767
  902MOL0     C18952   2.899   7.214  11.059  0.3663 -0.1317 -0.2435
  902MOL0     C18953   2.894   7.110  10.949  0.3129 -0.0377  0.6728
  902MOL0     C18954   2.978   7.004  11.004 -0.2577  0.8336  0.1610
  902MOL0     C18955   2.963   6.875  10.925  0.3277 -0.3772  0.1318
  902MOL0     O18956   2.983   6.890  10.785 -0.1708  0.0297  0.1892
  902MOL0     C18957   3.100   6.930  10.731 -0.3570  0.1020  0.0472
  902MOL0     C18958   3.086   6.993  10.612  0.8039 -0.1879  1.2871
  902MOL0     C18959   3.193   7.066  10.552  0.0886  0.5417  0.7185
  902MOL0     C18960   3.331   7.056  10.601 -0.2465 -0.5193 -0.4013
  902MOL0     C18961   3.445   7.093  10.517 -0.2591 -0.2357  0.3969
  902MOL0     O18962   3.421   7.111  10.384  0.4026 -0.1557 -0.2355
  902MOL0     C18963   3.529   7.115  10.296  0.9272 -0.1458  0.1721
  902MOL0     C18964   3.602   6.994  10.274  0.0147  0.2041  0.3568
  902MOL0     C18965   3.703   6.984  10.173  0.4135  0.1621 -0.2732
  902MOL0     C18966   3.721   7.097  10.086  0.6087 -1.4564 -0.1261
  902MOL0     O18967   3.798   7.107   9.976  0.0308 -0.3828  0.4227
  902MOL0     C18968   3.905   7.012   9.971 -0.4033 -0.3122  0.1590
  902MOL0     C18969   3.869   6.877   9.894 -0.1599 -0.4311 -0.2051
  902MOL0     C18970   3.871   6.900   9.743  1.3631 -0.0230  0.0364
  902MOL0     C18971   3.837   6.771   9.675 -0.1891 -0.9227  0.3557
  902MOL0     C18972   3.840   6.782   9.524  0.1541 -0.8395 -0.2765
  902MOL0     C18973   3.755   6.893   9.457  1.3316 -0.0723 -0.2034
  902MOL0     C18974   3.605   6.881   9.478  1.0959  0.3338 -0.2690
  902MOL0     C18975   3.515   6.942   9.363  0.4097  0.7680  0.3900
  902MOL0    Cl18976   3.512   6.832   9.217 -0.1198  0.0069  0.0019
  902MOL0     C18977   3.650   7.215  10.119 -0.2105  0.3622  1.1511
  902MOL0     C18978   3.555   7.225  10.213  0.7051  0.6831 -1.2719
  902MOL0     O18979   3.559   7.088  10.560  0.0035 -0.6625 -0.3591
  902MOL0     C18980   3.344   6.991  10.729  0.0441  0.5136  0.9003
  902MOL0     C18981   3.223   6.929  10.793  0.2223  1.0501  0.1568
  902MOL0     N18982   2.671   7.324  11.041 -0.1824 -0.5033  0.6133
  902MOL0     N18983   2.627   7.432  10.987  0.8408 -0.9655  0.7933
  902MOL0     C18984   2.888   8.483  10.636 -0.8186  0.0646 -1.3768
  902MOL0     C18985   3.023   8.537  10.665  1.1747 -0.1302  0.4978
  902MOL0     C18986   3.453   8.554  10.865 -0.3317  0.1039  0.5694
  902MOL0     C18987   3.427   8.669  10.940  0.1764 -0.0510 -0.3828
  902MOL0     C18988   3.532   8.746  10.990  0.2703  0.3487 -0.2745
  902MOL0     C18989   3.667   8.727  10.943 -0.7255  0.6767 -0.0276
  902MOL0     O18990   3.756   8.818  10.975 -0.0102  0.0241  0.6107
  902MOL0     C18991   3.897   8.800  10.937 -0.4886  0.5638 -0.7717
  902MOL0     C18992   3.968   8.929  10.996  0.4191  1.1920 -0.3775
  902MOL0     C18993   4.106   8.955  10.926 -0.0741  0.2438  0.6920
  902MOL0     C18994   4.203   8.841  10.935 -0.1140 -0.0475 -0.2061
  902MOL0     C18995   4.321   8.859  10.846 -0.2399 -0.0984  0.0119
  902MOL0     C18996   4.418   8.908  10.793 -1.2365  0.5934  1.1090
  902MOL0     C18997   3.695   8.619  10.858  0.3435  0.3780  0.6141
  902MOL0     C18998   3.590   8.531  10.822 -0.2727  0.3366 -0.1312
  902MOL0     H18999   3.115   8.318  10.914  2.6696 -0.3436 -1.5304
  902MOL0     H19000   2.897   8.240  10.871  1.1686 -1.3311 -1.0903
  902MOL0     H19001   2.719   8.298  10.503 -1.9029 -2.3445 -0.5547
  902MOL0     H19002   2.631   8.440  10.568 -1.8098 -0.0638 -1.9006
  902MOL0     H19003   2.469   8.277  10.498  1.8805 -5.1379 -2.4027
  902MOL0     H19004   2.471   8.302  10.670  0.5830  0.8958  1.3163
  902MOL0     H19005   2.641   8.073  10.557 -1.0014 -2.7039 -0.5059
  902MOL0     H19006   2.461   8.058  10.570 -2.4339  2.5131  1.5444
  902MOL0     H19007   2.654   8.107  10.802 -0.2240  0.1944 -0.1142
  902MOL0     H19008   2.483   8.100  10.814  1.6703  3.0494  0.9776
  902MOL0     H19009   2.625   7.860  10.689  0.4913  0.0834 -0.4349
  902MOL0     H19010   2.461   7.861  10.751 -0.3964  3.1627 -3.7923
  902MOL0     H19011   2.573   7.940  10.982 -1.6763 -1.6555  0.4775
  902MOL0     H19012   2.725   7.916  10.915 -1.2662  1.2985 -0.8193
  902MOL0     H19013   2.697   7.729  11.057  1.9492 -0.4616 -0.9679
  902MOL0     H19014   2.538   7.693  10.994 -0.0713 -0.2035  0.7913
  902MOL0     H19015   2.802   7.681  10.840 -0.1670  2.3771  2.9343
  902MOL0     H19016   2.650   7.622  10.771  2.1425  2.4518 -2.0743
  902MOL0     H19017   2.942   7.462  10.904 -0.1779 -4.7292 -2.3531
  902MOL0     H19018   2.859   7.175  11.153  0.6728 -0.1381 -0.1108
  902MOL0     H19019   2.997   7.262  11.074  0.3355  0.0228 -0.5363
  902MOL0     H19020   2.923   7.141  10.849 -3.6420 -0.6329 -0.8448
  902MOL0     H19021   2.792   7.072  10.942  0.8299 -1.8334  2.0542
  902MOL0     H19022   3.082   7.039  10.992 -0.5401  2.4163  1.8772
  902MOL0     H19023   2.974   6.972  11.108  2.2110  1.4045  0.5131
  902MOL0     H19024   2.865   6.828  10.936  0.5512 -0.9201 -0.1381
  902MOL0     H19025   3.042   6.804  10.954  0.6018 -1.1643 -2.2377
  902MOL0     H19026   2.986   7.012  10.572  0.5377  2.4800  2.9699
  902MOL0     H19027   3.175   7.119  10.460  5.0736 -0.7470 -1.3382
  902MOL0     H19028   3.576   6.909  10.336 -0.4949  1.0014  1.2452
  902MOL0     H19029   3.763   6.894  10.174 -0.4018 -0.4185  1.4163
  902MOL0     H19030   3.935   6.988  10.073  2.2546  0.3699 -0.3996
  902MOL0     H19031   3.990   7.066   9.929  2.5646 -3.7549  1.2805
  902MOL0     H19032   3.763   6.868   9.919 -1.3765  1.2796 -4.0453
  902MOL0     H19033   3.929   6.793   9.930  2.0630  1.0053 -0.2914
  902MOL0     H19034   3.968   6.941   9.714  1.7782 -1.4621 -0.7288
  902MOL0     H19035   3.792   6.972   9.720 -1.7843 -3.5170 -1.0199
  902MOL0     H19036   3.911   6.697   9.708 -0.1147 -1.4327 -0.9040
  902MOL0     H19037   3.738   6.734   9.703 -0.7172  0.9224  1.0824
  902MOL0     H19038   3.799   6.684   9.496  0.9488 -0.1609 -4.5340
  902MOL0     H19039   3.937   6.763   9.477 -0.1354  0.4587 -1.4562
  902MOL0     H19040   3.762   6.885   9.348 -1.7246  1.0219 -0.5962
  902MOL0     H19041   3.778   6.996   9.486 -2.1923  0.2090  2.2005
  902MOL0     H19042   3.554   6.785   9.479 -1.4621  1.3942 -4.3669
  902MOL0     H19043   3.590   6.926   9.577  1.8819 -0.5409  0.2640
  902MOL0     H19044   3.540   7.046   9.337 -0.6745  0.6821 -1.1450
  902MOL0     H19045   3.412   6.943   9.401  0.9703  1.5186  1.9740
  902MOL0     H19046   3.678   7.303  10.061  3.3271 -1.6255 -0.4667
  902MOL0     H19047   3.500   7.319  10.224 -0.2448 -0.1627  2.5928
  902MOL0     H19048   3.445   6.984  10.768  0.9499  1.2103 -1.1688
  902MOL0     H19049   3.251   6.885  10.888 -3.2965 -0.4048  0.6755
  902MOL0     H19050   2.824   8.535  10.564 -1.1590  0.8838 -0.4981
  902MOL0     H19051   3.052   8.619  10.601  0.9907  1.6698  2.5861
  902MOL0     H19052   3.323   8.685  10.969 -0.4051  0.4536 -2.6085
  902MOL0     H19053   3.505   8.820  11.065 -0.9001  0.0099 -0.3408
  902MOL0     H19054   3.907   8.801  10.828 -1.2095  0.7298 -0.8405
  902MOL0     H19055   3.933   8.706  10.978 -1.1786 -0.7797 -3.0754
  902MOL0     H19056   3.906   9.017  10.974 -0.1935  0.7490 -0.4387
  902MOL0     H19057   3.977   8.929  11.105 -1.7463 -1.5687 -0.1018
  902MOL0     H19058   4.154   9.047  10.961 -2.6611  1.8854  0.2478
  902MOL0     H19059   4.087   8.974  10.820 -1.5408 -2.2642  0.4196
  902MOL0     H19060   4.246   8.850  11.035 -1.0274 -3.2846  0.6146
  902MOL0     H19061   4.162   8.739  10.933 -0.7411  0.1538  0.9709
  902MOL0     H19062   4.512   8.945  10.758  0.8343 -2.0765  3.3313
  902MOL0     H19063   3.792   8.597  10.815  0.6205  1.1394  0.8256
  902MOL0     H19064   3.618   8.442  10.766  2.6482  0.3141  1.1733
  903MOL0     O19065   6.543   9.872   9.403 -0.7252  0.6478 -0.3146
  903MOL0     C19066   6.588   9.802   9.308 -0.0040  0.2090  0.9210
  903MOL0     O19067   6.536   9.678   9.269  1.4102  0.0071 -0.4844
  903MOL0     C19068   6.471   9.600   9.363  0.5787  0.0625  0.5693
  903MOL0     C19069   6.380   9.501   9.325  0.1157  0.0094 -0.7121
  903MOL0     C19070   6.321   9.413   9.418 -0.0487 -0.0104 -1.1042
  903MOL0     C19071   6.341   9.421   9.555 -0.0025 -0.0385 -0.6652
  903MOL0     O19072   6.293   9.326   9.640 -0.2399  0.2353  0.7524
  903MOL0     C19073   6.204   9.233   9.583  0.4201 -0.0086  0.5873
  903MOL0     C19074   6.136   9.135   9.683 -0.7122 -0.6569 -0.0699
  903MOL0     C19075   6.068   9.211   9.801 -0.0230 -0.1743  0.4236
  903MOL0     C19076   5.962   9.113   9.868 -0.0400 -0.0416 -0.5048
  903MOL0     C19077   5.962   9.126  10.021  0.7983 -0.0331  0.2014
  903MOL0     C19078   5.909   9.258  10.077 -1.7643  0.7341 -0.5558
  903MOL0     C19079   5.939   9.275  10.224 -0.3678 -0.5648 -0.1350
  903MOL0     C19080   6.102   9.291  10.255  0.5477  0.2821  0.4617
  903MOL0     N19081   6.138   9.365  10.377 -0.6066  0.6113  0.5488
  903MOL0     C19082   6.169   9.309  10.499  0.4902 -0.0780  0.2765
  903MOL0     C19083   6.230   9.410  10.573 -0.0623  0.1301  0.1075
  903MOL0     C19084   6.290   9.390  10.711 -0.6203 -0.3144  0.6877
  903MOL0     C19085   6.247   9.267  10.788 -0.6307  0.0065 -0.7898
  903MOL0     C19086   6.301   9.281  10.931  0.3019  0.4513 -0.5528
  903MOL0     C19087   6.254   9.403  11.011 -0.0869 -0.1864  0.8799
  903MOL0     O19088   6.112   9.417  10.991 -0.2557  0.2165 -0.6589
  903MOL0     C19089   6.050   9.535  11.023  0.6279  0.4480 -0.3992
  903MOL0     C19090   5.936   9.561  10.947  1.1301  0.0190  0.9953
  903MOL0     C19091   5.866   9.681  10.966 -0.2508  0.2981  0.0291
  903MOL0     C19092   5.914   9.777  11.055  0.0300 -0.3305 -0.5102
  903MOL0     C19093   5.841   9.907  11.069  0.0513  0.0316  0.4361
  903MOL0     O19094   5.743   9.940  10.972 -0.6383  0.1640  0.0139
  903MOL0     C19095   5.640  10.024  10.988 -1.0409 -1.1320 -0.2801
  903MOL0     C19096   5.633  10.130  11.079  0.3800  0.8622  0.0285
  903MOL0     C19097   5.527  10.217  11.087 -1.0094 -0.9441 -0.0170
  903MOL0     C19098   5.421  10.213  10.998  0.1461  0.6597 -0.6027
  903MOL0     O19099   5.323  10.299  11.032 -0.3396  0.2611 -0.1212
  903MOL0     C19100   5.203  10.311  10.951 -0.9043  0.3894  0.1914
  903MOL0     C19101   5.122  10.411  11.033  1.4327 -0.3694  0.3429
  903MOL0     C19102   5.103  10.382  11.186 -0.5349  0.3903  0.4985
  903MOL0     C19103   5.008  10.481  11.256  0.4972 -0.4353  0.0855
  903MOL0     C19104   4.871  10.425  11.289  0.5888 -0.0590 -0.2764
  903MOL0     C19105   4.802  10.517  11.386 -0.7036  0.1074  1.0000
  903MOL0     C19106   4.662  10.466  11.421 -0.2776 -0.4693 -0.3412
  903MOL0     C19107   4.555  10.543  11.351  0.6005  0.3591  0.1082
  903MOL0    Cl19108   4.541  10.475  11.181 -0.1825 -0.4705 -0.4554
  903MOL0     C19109   5.420  10.105  10.902  0.2713  0.3487 -0.7070
  903MOL0     C19110   5.534  10.016  10.889 -1.1784 -0.0758  0.2707
  903MOL0     O19111   5.876   9.983  11.165 -0.4939  0.3088 -0.1251
  903MOL0     C19112   6.035   9.752  11.129  0.4364  0.5278 -0.3678
  903MOL0     C19113   6.094   9.625  11.114  0.8730 -0.0331 -0.3434
  903MOL0     N19114   6.227   9.522  10.500 -0.4014  0.3024  0.0785
  903MOL0     N19115   6.174   9.496  10.383 -0.2302 -0.5663  0.9408
  903MOL0     C19116   6.435   9.517   9.592  0.1285  1.4830 -0.3033
  903MOL0     C19117   6.496   9.604   9.500  0.2823  0.4807 -0.9136
  903MOL0     C19118   6.660   9.873   9.191  0.0850  0.2098  0.1221
  903MOL0     C19119   6.679   9.804   9.067  0.0819 -0.4387 -0.7118
  903MOL0     C19120   6.743   9.870   8.962  0.0875 -0.5693  0.6316
  903MOL0     C19121   6.774  10.006   8.967 -0.1048  0.0757 -0.1135
  903MOL0     O19122   6.828  10.054   8.847 -0.0024 -0.1865  0.2849
  903MOL0     C19123   6.866  10.190   8.833  0.2853  0.0645 -0.4812
  903MOL0     C19124   6.747  10.277   8.805  0.0391  0.4456 -0.1057
  903MOL0     C19125   6.705  10.278   8.655  0.3517  0.7480  0.7749
  903MOL0     C19126   6.595  10.386   8.636 -0.2748  0.5791 -0.0786
  903MOL0     C19127   6.538  10.398   8.502 -1.2102  0.5309 -0.0145
  903MOL0     C19128   6.499  10.407   8.395  0.4125 -0.2030  0.0935
  903MOL0     C19129   6.745  10.083   9.082  0.8941  0.3288 -0.0951
  903MOL0     C19130   6.695  10.012   9.192 -0.0925 -0.7364 -1.0952
  903MOL0     H19131   6.352   9.488   9.221  0.1213 -2.3520 -0.4872
  903MOL0     H19132   6.241   9.351   9.379 -0.0626 -1.0886  0.5448
  903MOL0     H19133   6.255   9.174   9.507 -1.2335 -1.4091  0.4799
  903MOL0     H19134   6.126   9.295   9.537  2.4768  1.5769 -0.9549
  903MOL0     H19135   6.208   9.059   9.715 -0.6387 -0.3188  0.5984
  903MOL0     H19136   6.053   9.082   9.635 -0.4470  0.5357 -1.9320
  903MOL0     H19137   6.015   9.301   9.768 -2.0962 -0.3494  2.9389
  903MOL0     H19138   6.139   9.243   9.877  1.4142 -1.4684 -0.3180
  903MOL0     H19139   5.868   9.115   9.812  0.8459 -1.0020 -2.0987
  903MOL0     H19140   6.006   9.017   9.840 -0.9696 -0.4798 -0.5122
  903MOL0     H19141   6.065   9.127  10.057  0.9664  1.4221 -0.2527
  903MOL0     H19142   5.916   9.038  10.066  3.6294 -1.9888 -0.5020
  903MOL0     H19143   5.801   9.255  10.061 -2.1553 -4.5855  1.2277
  903MOL0     H19144   5.957   9.343  10.027 -2.1912  1.5145  0.3305
  903MOL0     H19145   5.877   9.353  10.268 -0.3192 -1.0997  0.9140
  903MOL0     H19146   5.899   9.189  10.279  1.7809 -0.5220  1.6506
  903MOL0     H19147   6.144   9.349  10.172 -2.6778  3.5286  0.8299
  903MOL0     H19148   6.152   9.194  10.255  0.3338  0.0927 -2.1920
  903MOL0     H19149   6.174   9.207  10.535  3.2199  0.2441  1.0632
  903MOL0     H19150   6.254   9.478  10.765  0.0058 -0.0552  0.6935
  903MOL0     H19151   6.399   9.388  10.710 -0.6163 -2.2886 -0.3790
  903MOL0     H19152   6.279   9.177  10.735  0.6362  1.8812 -3.4559
  903MOL0     H19153   6.138   9.265  10.799 -0.3636 -0.8122  2.7899
  903MOL0     H19154   6.274   9.199  10.999  1.7778  0.1085 -0.3371
  903MOL0     H19155   6.410   9.288  10.939  0.0940  1.2033  2.9988
  903MOL0     H19156   6.312   9.489  10.977 -0.3273 -0.2784  0.2170
  903MOL0     H19157   6.266   9.400  11.120 -2.6834  0.7839  1.2746
  903MOL0     H19158   5.889   9.491  10.878  0.6228  0.3903  0.9534
  903MOL0     H19159   5.776   9.702  10.908  1.2450 -2.9106 -3.9387
  903MOL0     H19160   5.702  10.154  11.160  1.4829  0.2591 -0.7150
  903MOL0     H19161   5.522  10.291  11.166 -1.9008 -0.5790 -0.4008
  903MOL0     H19162   5.141  10.223  10.931 -0.8701  0.7766 -1.8717
  903MOL0     H19163   5.229  10.360  10.857  2.9524  3.4677  2.5320
  903MOL0     H19164   5.021  10.417  10.990  2.1539 -2.1549 -1.7840
  903MOL0     H19165   5.174  10.507  11.031 -2.2573  1.8501  0.2835
  903MOL0     H19166   5.197  10.395  11.240  0.1587  1.8400 -0.9540
  903MOL0     H19167   5.053  10.286  11.198 -3.1297  1.6291  0.3830
  903MOL0     H19168   5.058  10.504  11.350  1.2845 -0.1930 -0.3855
  903MOL0     H19169   5.001  10.568  11.190 -1.4402  1.1357  2.1985
  903MOL0     H19170   4.873  10.328  11.340 -1.3330  0.4832  0.9574
  903MOL0     H19171   4.818  10.413  11.194  0.3253  3.0293 -0.6276
  903MOL0     H19172   4.803  10.621  11.354  0.6572 -0.7683 -2.2276
  903MOL0     H19173   4.856  10.521  11.481 -0.4803 -0.0694  0.8822
  903MOL0     H19174   4.658  10.357  11.412  0.5972 -1.0096  3.8391
  903MOL0     H19175   4.657  10.489  11.528  3.8085  3.3109 -0.6778
  903MOL0     H19176   4.573  10.650  11.364 -0.0395  0.6660 -1.2799
  903MOL0     H19177   4.461  10.518  11.403  2.5171 -3.6773  2.1291
  903MOL0     H19178   5.333  10.101  10.837 -0.6374  0.9057  0.4535
  903MOL0     H19179   5.547   9.936  10.817 -1.9604  1.4840 -1.7002
  903MOL0     H19180   6.083   9.818  11.201  3.0326 -2.6167  1.0132
  903MOL0     H19181   6.179   9.603  11.177 -0.6056 -1.1692  1.3512
  903MOL0     H19182   6.460   9.527   9.697  0.0367 -2.4498  0.2486
  903MOL0     H19183   6.545   9.691   9.543 -1.2326  0.7048  0.4610
  903MOL0     H19184   6.646   9.701   9.062  2.5947 -1.6980  3.4628
  903MOL0     H19185   6.757   9.823   8.865 -0.9805 -2.3001  1.2624
  903MOL0     H19186   6.947  10.180   8.760  1.0447 -0.6350  0.4185
  903MOL0     H19187   6.910  10.217   8.930 -0.7445 -0.5664  0.1800
  903MOL0     H19188   6.658  10.251   8.864 -0.3612 -1.5946 -1.5076
  903MOL0     H19189   6.776  10.381   8.818 -1.5950  1.5645 -4.0050
  903MOL0     H19190   6.664  10.181   8.627 -1.0303  1.4156  0.4074
  903MOL0     H19191   6.792  10.302   8.592  1.5169 -0.1534  1.9721
  903MOL0     H19192   6.504  10.354   8.688  0.7717  1.7238  2.6144
  903MOL0     H19193   6.614  10.483   8.683  0.4154 -0.3555  1.6640
  903MOL0     H19194   6.446  10.407   8.302  1.2135  3.5238 -0.5142
  903MOL0     H19195   6.738  10.191   9.087  0.6681  0.4291 -2.0012
  903MOL0     H19196   6.676  10.066   9.284  1.1732 -4.2518  1.4507
  904MOL0     O19197   4.623   7.449   6.466 -0.4041  0.7016  0.0753
  904MOL0     C19198   4.513   7.419   6.427 -0.0424 -0.3564 -0.6838
  904MOL0     O19199   4.478   7.327   6.333 -0.2371  0.7292 -0.8658
  904MOL0     C19200   4.580   7.271   6.250  0.6221  1.3097 -0.1765
  904MOL0     C19201   4.539   7.166   6.162  0.1655  0.2241  0.9015
  904MOL0     C19202   4.614   7.099   6.069  0.0023  0.6666 -1.0388
  904MOL0     C19203   4.751   7.136   6.060 -0.0967  0.3084 -0.9379
  904MOL0     O19204   4.849   7.076   5.986  0.6284 -0.0284  0.4603
  904MOL0     C19205   4.824   6.943   5.941 -0.4624  0.3901 -0.5906
  904MOL0     C19206   4.956   6.879   5.904 -0.7552 -0.1427  0.5547
  904MOL0     C19207   4.930   6.761   5.793 -0.8536  0.7181  0.6874
  904MOL0     C19208   5.063   6.701   5.733  0.2078  0.0331  0.8211
  904MOL0     C19209   5.134   6.807   5.643  0.2036  0.5862  0.6272
  904MOL0     C19210   5.211   6.735   5.533 -0.4701  0.5603 -0.5991
  904MOL0     C19211   5.296   6.851   5.469 -0.8156 -0.6944 -0.7666
  904MOL0     C19212   5.407   6.800   5.377  0.6582  0.9256 -0.6126
  904MOL0     N19213   5.517   6.738   5.447  0.9181 -0.5033 -0.3856
  904MOL0     C19214   5.564   6.611   5.426  0.1338 -0.1411 -1.2738
  904MOL0     C19215   5.633   6.588   5.540 -0.3714  0.4312 -0.3062
  904MOL0     C19216   5.669   6.454   5.588  0.1802  0.1701  0.3753
  904MOL0     C19217   5.821   6.417   5.563 -0.2600 -0.2569 -0.0091
  904MOL0     C19218   5.892   6.460   5.425  0.8931 -0.6131 -0.7738
  904MOL0     C19219   6.011   6.373   5.381  0.3363  0.5521 -0.2523
  904MOL0     O19220   6.050   6.409   5.247 -0.7123  0.0151  0.5325
  904MOL0     C19221   6.133   6.322   5.188 -0.2873  0.7104  0.4427
  904MOL0     C19222   6.266   6.359   5.151  0.8093 -0.2376 -0.1734
  904MOL0     C19223   6.346   6.272   5.070  0.0805 -0.5763  0.3131
  904MOL0     C19224   6.295   6.146   5.038  0.0700  0.6695 -0.1861
  904MOL0     C19225   6.382   6.049   4.969  0.4751 -1.0186  0.3437
  904MOL0     O19226   6.521   6.080   4.977  0.2289  0.1039 -0.4308
  904MOL0     C19227   6.612   5.995   4.934 -0.7703  0.1401 -0.5273
  904MOL0     C19228   6.654   5.889   5.017 -0.2582  0.6722  0.3611
  904MOL0     C19229   6.756   5.802   4.982 -0.8453  0.0968 -0.1935
  904MOL0     C19230   6.830   5.812   4.861 -0.0226  0.0412 -1.0112
  904MOL0     O19231   6.920   5.710   4.818  0.7938  0.4014  0.2070
  904MOL0     C19232   7.029   5.684   4.899 -1.0972 -0.1340 -1.0086
  904MOL0     C19233   7.116   5.572   4.820 -0.9406 -0.3654  0.2672
  904MOL0     C19234   7.215   5.618   4.708 -0.0363  0.2812  0.6973
  904MOL0     C19235   7.262   5.492   4.633 -0.8345  0.7823  0.4183
  904MOL0     C19236   7.337   5.385   4.725  0.3479 -0.6276  0.4507
  904MOL0     C19237   7.395   5.272   4.640  0.5763 -0.7762  0.4312
  904MOL0     C19238   7.438   5.165   4.734  0.3769 -0.0696 -0.5970
  904MOL0     C19239   7.459   5.031   4.673  0.2529 -0.3312 -0.2233
  904MOL0    Cl19240   7.296   4.948   4.644  0.0051 -0.0812  0.1256
  904MOL0     C19241   6.784   5.924   4.774  0.3464 -0.8037  0.6168
  904MOL0     C19242   6.686   6.015   4.814 -0.6215  0.1238  0.5199
  904MOL0     O19243   6.336   5.950   4.930  0.0296  0.4879  0.0811
  904MOL0     C19244   6.157   6.119   5.063  0.7476  1.0984 -1.0734
  904MOL0     C19245   6.082   6.205   5.140 -0.1932  0.6432 -0.3232
  904MOL0     N19246   5.662   6.712   5.603 -0.3709 -0.3033  0.4513
  904MOL0     N19247   5.593   6.803   5.546 -0.1311 -0.1889  0.2167
  904MOL0     C19248   4.790   7.244   6.140  0.3733  0.5809  1.0237
  904MOL0     C19249   4.711   7.312   6.231  0.1941  0.1811 -0.1179
  904MOL0     C19250   4.399   7.478   6.485  0.1963  0.6545  0.8209
  904MOL0     C19251   4.267   7.468   6.426 -0.3079 -0.4773  0.5687
  904MOL0     C19252   4.161   7.544   6.475 -0.5243  0.2303 -0.5095
  904MOL0     C19253   4.180   7.630   6.583 -0.0197  0.5812 -0.2226
  904MOL0     O19254   4.079   7.694   6.647  0.4700  0.4661  0.4384
  904MOL0     C19255   3.986   7.762   6.563  1.2160 -0.3550  0.0136
  904MOL0     C19256   3.967   7.907   6.627  0.1447  0.2781  0.2047
  904MOL0     C19257   4.077   8.010   6.584  0.2428 -0.3690 -0.2936
  904MOL0     C19258   4.024   8.154   6.556 -0.0480  0.1766  0.6064
  904MOL0     C19259   3.972   8.230   6.676  0.4744 -0.0243 -0.4972
  904MOL0     C19260   3.921   8.290   6.771  0.0426  0.4281  0.5811
  904MOL0     C19261   4.304   7.641   6.643  0.6033  0.0477  0.1675
  904MOL0     C19262   4.414   7.570   6.589 -0.7421 -0.0469  0.3613
  904MOL0     H19263   4.436   7.134   6.177 -0.2215  0.1199 -1.6391
  904MOL0     H19264   4.567   7.016   6.019  0.6498 -1.4339  1.5866
  904MOL0     H19265   4.756   6.954   5.856 -2.0019 -0.9280  0.4030
  904MOL0     H19266   4.762   6.880   6.005  2.6849 -1.9015  0.4231
  904MOL0     H19267   5.001   6.832   5.991 -1.5047 -0.5874  0.7045
  904MOL0     H19268   5.019   6.965   5.876 -0.9424 -0.5200 -1.1364
  904MOL0     H19269   4.869   6.799   5.711  1.7048  0.8117 -1.2670
  904MOL0     H19270   4.876   6.685   5.851 -0.9359  1.5005  1.6649
  904MOL0     H19271   5.131   6.659   5.808  3.2052 -0.6662 -2.0166
  904MOL0     H19272   5.025   6.624   5.666 -0.8227  3.2003 -2.5905
  904MOL0     H19273   5.200   6.872   5.702 -1.2982  2.8714 -0.0943
  904MOL0     H19274   5.066   6.877   5.595  0.5420 -0.2701 -1.1960
  904MOL0     H19275   5.145   6.681   5.464  0.8341  0.7573 -2.0382
  904MOL0     H19276   5.285   6.674   5.586 -0.1800  0.1000 -1.5074
  904MOL0     H19277   5.238   6.916   5.403 -1.4786 -0.1002  0.3690
  904MOL0     H19278   5.349   6.917   5.539 -0.4807 -1.3170 -0.4243
  904MOL0     H19279   5.459   6.874   5.314  3.3976 -2.4037 -2.6393
  904MOL0     H19280   5.364   6.740   5.296 -2.4224  2.3565 -0.1635
  904MOL0     H19281   5.538   6.536   5.352 -1.3501  0.6885 -1.6192
  904MOL0     H19282   5.599   6.385   5.540  1.1901  0.4349 -1.5639
  904MOL0     H19283   5.646   6.455   5.695  0.2047  1.2757  0.3838
  904MOL0     H19284   5.832   6.309   5.575  2.3418 -0.0438  0.0607
  904MOL0     H19285   5.886   6.467   5.635  0.8209  1.2194 -1.9291
  904MOL0     H19286   5.822   6.457   5.342 -0.5200 -2.4966  0.4065
  904MOL0     H19287   5.926   6.561   5.452 -0.8883 -0.7854  2.7207
  904MOL0     H19288   5.976   6.270   5.393 -1.9741  1.4643  1.8762
  904MOL0     H19289   6.085   6.392   5.460 -3.3291  0.4503  3.5975
  904MOL0     H19290   6.299   6.458   5.181 -2.2811  1.3710 -1.6063
  904MOL0     H19291   6.447   6.293   5.038 -0.2988 -2.2028 -2.2965
  904MOL0     H19292   6.604   5.871   5.111  0.3581 -0.9924  0.3931
  904MOL0     H19293   6.778   5.728   5.058  0.1333  1.1868  0.6183
  904MOL0     H19294   7.011   5.639   4.997 -2.1578 -0.2133 -1.2294
  904MOL0     H19295   7.080   5.778   4.920 -0.9473 -0.3589 -0.3287
  904MOL0     H19296   7.039   5.506   4.779 -2.2789  1.1760  0.1529
  904MOL0     H19297   7.173   5.516   4.894  1.1175  0.2261 -0.7922
  904MOL0     H19298   7.288   5.687   4.750 -1.3327  1.5948  0.8641
  904MOL0     H19299   7.168   5.680   4.632  2.3813  0.3969 -0.8212
  904MOL0     H19300   7.180   5.439   4.582 -2.3894  2.7160  0.7703
  904MOL0     H19301   7.320   5.525   4.546 -2.2157 -1.7201 -1.6106
  904MOL0     H19302   7.272   5.350   4.805 -2.4692 -2.5146 -2.4194
  904MOL0     H19303   7.426   5.434   4.765  0.2787 -0.5559  0.5164
  904MOL0     H19304   7.477   5.310   4.579  0.1472  1.2408  1.0606
  904MOL0     H19305   7.309   5.244   4.578  0.2774 -0.2273  0.5979
  904MOL0     H19306   7.530   5.196   4.784 -2.2048  1.7870  3.5731
  904MOL0     H19307   7.360   5.161   4.810  1.5355 -1.9479  0.5940
  904MOL0     H19308   7.513   4.960   4.737 -1.8246 -1.3367  0.5031
  904MOL0     H19309   7.519   5.041   4.582 -2.4555  3.7560 -1.8286
  904MOL0     H19310   6.839   5.938   4.681 -0.5688 -1.6631 -0.0863
  904MOL0     H19311   6.679   6.100   4.748  2.0334  0.6001  0.7268
  904MOL0     H19312   6.116   6.028   5.022 -1.6753  1.8901 -0.5427
  904MOL0     H19313   5.980   6.179   5.165  0.7712  0.6117  4.6430
  904MOL0     H19314   4.891   7.275   6.113 -0.2371 -0.0510 -2.3429
  904MOL0     H19315   4.759   7.394   6.282  0.7782 -0.8889  1.0965
  904MOL0     H19316   4.251   7.406   6.338  3.2587 -0.4356 -0.2687
  904MOL0     H19317   4.065   7.549   6.424 -0.1495  2.2572 -1.0837
  904MOL0     H19318   3.891   7.712   6.547 -0.2126  3.1693 -4.5976
  904MOL0     H19319   4.028   7.768   6.462  2.8258  0.1518  0.6718
  904MOL0     H19320   3.882   7.951   6.574 -0.1677 -3.9258 -3.4327
  904MOL0     H19321   3.951   7.900   6.735  1.0802 -3.4575  0.2160
  904MOL0     H19322   4.120   7.973   6.490  1.7847 -0.5234  0.4391
  904MOL0     H19323   4.152   8.009   6.664  0.7711 -2.4122 -0.7588
  904MOL0     H19324   4.113   8.195   6.508  0.7618 -3.2422 -1.1483
  904MOL0     H19325   3.950   8.146   6.475 -0.7049 -1.7013  1.3370
  904MOL0     H19326   3.878   8.335   6.859  0.9014  1.2853  0.5820
  904MOL0     H19327   4.320   7.707   6.727 -2.0050 -0.6192  1.3183
  904MOL0     H19328   4.511   7.583   6.637 -1.4248 -2.6595  2.7261
  905MOL0     O19329   6.339  11.292   9.791 -0.2479 -0.0672 -0.5796
  905MOL0     C19330   6.343  11.203   9.880 -0.1014  0.5721  0.2612
  905MOL0     O19331   6.264  11.185   9.974 -0.3765 -0.0382 -0.4135
  905MOL0     C19332   6.146  11.253   9.980  0.1028  1.0961  0.0447
  905MOL0     C19333   6.037  11.180   9.991  1.0954 -0.9443  0.7481
  905MOL0     C19334   5.904  11.234   9.993 -0.1420 -0.5994  1.4876
  905MOL0     C19335   5.891  11.376   9.989 -0.4707  0.0540 -0.4532
  905MOL0     O19336   5.771  11.441  10.012 -0.3537 -0.3169  0.6243
  905MOL0     C19337   5.651  11.364  10.017  0.5841  0.4761 -0.3730
  905MOL0     C19338   5.533  11.449   9.979 -0.1180  0.1494  0.1012
  905MOL0     C19339   5.400  11.372  10.012  0.0220  0.5120  0.2052
  905MOL0     C19340   5.268  11.452   9.996 -0.7338  0.0216 -0.5097
  905MOL0     C19341   5.220  11.474   9.848 -0.7689 -0.3003 -0.9032
  905MOL0     C19342   5.228  11.344   9.754  0.6729  0.1824 -0.2090
  905MOL0     C19343   5.138  11.360   9.625 -0.2100 -0.0276 -0.9594
  905MOL0     C19344   5.159  11.498   9.558 -0.5579  0.4327  0.0977
  905MOL0     N19345   5.294  11.503   9.494  0.3057 -0.6983  0.2414
  905MOL0     C19346   5.316  11.462   9.365 -0.3519 -0.6455  0.1703
  905MOL0     C19347   5.441  11.508   9.322  0.6882 -0.1046  0.7678
  905MOL0     C19348   5.516  11.501   9.197  0.4952  0.8763 -0.4869
  905MOL0     C19349   5.422  11.559   9.083  0.7931 -0.6652  0.9398
  905MOL0     C19350   5.511  11.652   8.993 -1.0476  0.5288 -0.1591
  905MOL0     C19351   5.438  11.720   8.882  0.1436  0.1143  0.0032
  905MOL0     O19352   5.419  11.618   8.791 -0.0702  0.9358  0.2842
  905MOL0     C19353   5.342  11.637   8.676  0.4994 -0.4022  0.1649
  905MOL0     C19354   5.337  11.529   8.586  0.3614 -0.6084 -0.5745
  905MOL0     C19355   5.260  11.548   8.471 -0.2382  0.0535 -0.8030
  905MOL0     C19356   5.179  11.660   8.447  0.9566  0.0520  0.0354
  905MOL0     C19357   5.103  11.669   8.328  0.6473 -0.5639  0.8221
  905MOL0     O19358   5.136  11.580   8.229  0.4714 -0.6980 -0.1391
  905MOL0     C19359   5.097  11.610   8.100  0.6850  0.4770  0.4010
  905MOL0     C19360   4.962  11.641   8.063 -0.3731 -0.1234 -0.2353
  905MOL0     C19361   4.920  11.646   7.933 -0.0445 -1.2747 -0.4113
  905MOL0     C19362   5.026  11.633   7.839  0.3853  0.1214 -0.0877
  905MOL0     O19363   4.989  11.637   7.704  0.2740 -0.1151 -0.6358
  905MOL0     C19364   4.969  11.507   7.647 -0.0438  0.8917 -0.9428
  905MOL0     C19365   4.867  11.503   7.541  0.8896  0.2176 -0.5554
  905MOL0     C19366   4.720  11.520   7.584 -0.5529 -1.3973  0.0844
  905MOL0     C19367   4.662  11.422   7.692 -0.5194 -0.6294 -0.4448
  905MOL0     C19368   4.529  11.486   7.735  0.0710  0.2609  0.2920
  905MOL0     C19369   4.467  11.411   7.849  0.3247  0.7617 -0.0836
  905MOL0     C19370   4.534  11.445   7.986 -0.7411 -0.3758 -0.8677
  905MOL0     C19371   4.471  11.385   8.104  0.3239 -0.3523 -0.3312
  905MOL0    Cl19372   4.291  11.436   8.100  0.3088 -0.5297  0.2465
  905MOL0     C19373   5.154  11.587   7.873 -0.2121  0.6996 -0.8347
  905MOL0     C19374   5.193  11.573   8.006 -0.3413  0.1868 -0.1813
  905MOL0     O19375   5.017  11.763   8.327 -0.0376 -0.3024  0.2131
  905MOL0     C19376   5.185  11.752   8.543  0.0733  0.2264  0.0978
  905MOL0     C19377   5.259  11.746   8.662  0.5092  0.1386  0.7757
  905MOL0     N19378   5.489  11.578   9.435  0.4523  0.5230 -0.2059
  905MOL0     N19379   5.402  11.574   9.534 -1.0463  0.1359  0.7853
  905MOL0     C19380   6.011  11.451   9.980  1.0087  1.1160 -0.8163
  905MOL0     C19381   6.132  11.386   9.989 -0.5703  0.2200  0.1316
  905MOL0     C19382   6.450  11.102   9.878  0.0494  0.5588 -0.1778
  905MOL0     C19383   6.552  11.118   9.775 -1.0030  0.3952 -0.3283
  905MOL0     C19384   6.659  11.027   9.781  0.6909  0.3222 -1.7992
  905MOL0     C19385   6.670  10.918   9.875 -0.0476 -0.0578  0.3475
  905MOL0     O19386   6.766  10.820   9.871  0.7547 -0.3899 -0.3329
  905MOL0     C19387   6.838  10.809   9.757 -0.1025 -0.7036 -0.5390
  905MOL0     C19388   6.910  10.676   9.772 -0.2109 -0.4104  0.6591
  905MOL0     C19389   7.033  10.678   9.687  0.0261 -0.3036 -0.9987
  905MOL0     C19390   7.119  10.557   9.693  0.1954  0.7006  0.5315
  905MOL0     C19391   7.242  10.591   9.624  0.5567 -0.2364  0.3261
  905MOL0     C19392   7.347  10.623   9.579 -0.3683  0.3623  0.3821
  905MOL0     C19393   6.573  10.911   9.966  0.0659  0.9935  0.0642
  905MOL0     C19394   6.455  10.984   9.965  1.4728 -0.5014  0.3176
  905MOL0     H19395   6.024  11.072   9.992 -0.8592 -0.8273  3.8763
  905MOL0     H19396   5.810  11.180   9.991  0.3018 -1.5717 -2.8257
  905MOL0     H19397   5.634  11.330  10.120 -0.8956 -1.8166 -1.3226
  905MOL0     H19398   5.636  11.286   9.943  0.3152  1.8167 -1.7837
  905MOL0     H19399   5.533  11.465   9.871 -1.3344 -3.6308 -0.6055
  905MOL0     H19400   5.545  11.545  10.031  2.1593  0.4350 -0.8323
  905MOL0     H19401   5.404  11.341  10.116 -0.9375 -1.6044 -0.3443
  905MOL0     H19402   5.398  11.274   9.964  1.2280  0.4108  0.3435
  905MOL0     H19403   5.187  11.395  10.044 -1.7378 -0.7975 -2.9799
  905MOL0     H19404   5.266  11.545  10.052  0.1023  0.5351 -1.3088
  905MOL0     H19405   5.270  11.557   9.798 -1.9515 -1.1521 -3.7132
  905MOL0     H19406   5.121  11.517   9.865  1.6031  4.8410  2.2956
  905MOL0     H19407   5.197  11.255   9.808 -1.3809  0.5723 -0.6559
  905MOL0     H19408   5.330  11.324   9.719  1.1610 -1.3232  1.9325
  905MOL0     H19409   5.156  11.278   9.555  0.0621 -1.0152  0.2192
  905MOL0     H19410   5.033  11.361   9.655  0.1980 -0.5446  0.5771
  905MOL0     H19411   5.151  11.586   9.622  0.2905  0.7475 -0.2063
  905MOL0     H19412   5.084  11.513   9.480 -1.5363  0.7117  1.0771
  905MOL0     H19413   5.245  11.406   9.304 -1.8682 -1.8099  2.8514
  905MOL0     H19414   5.539  11.397   9.174 -1.3173  0.6393 -1.3709
  905MOL0     H19415   5.607  11.559   9.216  0.5269  0.3294  1.2072
  905MOL0     H19416   5.348  11.625   9.130  1.7058 -1.5438  3.8139
  905MOL0     H19417   5.358  11.494   9.023 -0.1009  1.1884 -0.2085
  905MOL0     H19418   5.551  11.734   9.054 -1.7112  1.7279 -1.2894
  905MOL0     H19419   5.591  11.586   8.957 -0.1752  3.0750 -3.3776
  905MOL0     H19420   5.497  11.799   8.835 -0.3286  0.5344  0.1017
  905MOL0     H19421   5.343  11.753   8.924 -1.9111 -2.8789 -1.8297
  905MOL0     H19422   5.405  11.446   8.605  1.6558  0.8943  1.7792
  905MOL0     H19423   5.260  11.461   8.406 -0.7080 -1.3313  0.9474
  905MOL0     H19424   4.892  11.663   8.143 -0.2450  1.1125 -0.4465
  905MOL0     H19425   4.819  11.672   7.906  0.5939 -0.8124 -2.5277
  905MOL0     H19426   4.949  11.434   7.726  2.6287  1.2437  0.1707
  905MOL0     H19427   5.063  11.471   7.605  0.3661  1.2048 -0.3174
  905MOL0     H19428   4.880  11.408   7.488  1.4870 -0.7963  1.2913
  905MOL0     H19429   4.890  11.583   7.470 -0.4292  4.2366  3.0797
  905MOL0     H19430   4.654  11.518   7.496  1.0296  0.6125 -1.2351
  905MOL0     H19431   4.712  11.620   7.626  1.2623 -1.3321  0.3435
  905MOL0     H19432   4.639  11.323   7.653  1.4843 -2.1509  1.9377
  905MOL0     H19433   4.734  11.411   7.774 -1.5971  1.4235  0.8754
  905MOL0     H19434   4.454  11.502   7.657  0.5009  2.7484  0.3336
  905MOL0     H19435   4.557  11.586   7.769 -0.3112  0.0005  1.4127
  905MOL0     H19436   4.479  11.305   7.826  0.6891  0.9752 -0.8983
  905MOL0     H19437   4.363  11.444   7.856  0.4264  0.7355  2.5926
  905MOL0     H19438   4.635  11.404   7.976 -1.8533 -3.1030 -1.8555
  905MOL0     H19439   4.545  11.551   8.009 -2.6883 -0.3909  0.3184
  905MOL0     H19440   4.521  11.414   8.197 -0.2688 -0.9252  0.1763
  905MOL0     H19441   4.468  11.276   8.104  0.1902 -0.3494 -0.5711
  905MOL0     H19442   5.226  11.554   7.800 -0.0506  0.6816 -0.6684
  905MOL0     H19443   5.288  11.534   8.040  0.3098  1.4204 -0.5367
  905MOL0     H19444   5.141  11.847   8.517 -1.4248 -0.2944  0.6502
  905MOL0     H19445   5.253  11.834   8.725  0.4022  0.9459 -0.3267
  905MOL0     H19446   6.016  11.559   9.975  0.4928  1.1628 -0.3827
  905MOL0     H19447   6.228  11.437   9.998  0.4429 -1.2522 -1.6873
  905MOL0     H19448   6.552  11.202   9.706  0.8910  1.0013  0.3406
  905MOL0     H19449   6.737  11.052   9.710 -0.5208  0.7313 -3.0205
  905MOL0     H19450   6.917  10.884   9.749 -0.9125  0.1617 -0.5678
  905MOL0     H19451   6.777  10.804   9.666 -0.5486 -1.7147 -0.2044
  905MOL0     H19452   6.940  10.659   9.876  1.1537  0.5665  0.4538
  905MOL0     H19453   6.842  10.598   9.736  2.8887 -2.1489 -1.9675
  905MOL0     H19454   7.086  10.764   9.729 -4.6413  2.0065  0.9467
  905MOL0     H19455   7.005  10.691   9.582 -1.3653  0.7663 -0.5225
  905MOL0     H19456   7.130  10.524   9.797  2.9042 -1.3605 -0.3039
  905MOL0     H19457   7.074  10.474   9.637  0.8760 -0.5941  1.8332
  905MOL0     H19458   7.447  10.655   9.557  0.5897 -1.4856  1.7840
  905MOL0     H19459   6.592  10.836  10.042  0.4882  2.5541  1.5691
  905MOL0     H19460   6.377  10.956  10.034  0.9809 -0.5192 -0.2350
  906MOL0     O19461   0.264   8.105   8.470 -1.0032  0.1898 -0.6169
  906MOL0     C19462   0.315   8.199   8.538  0.4840 -0.1745 -0.3291
  906MOL0     O19463   0.249   8.307   8.595 -0.0041  0.4557 -0.1647
  906MOL0     C19464   0.114   8.313   8.561  0.8221 -0.3484 -0.1558
  906MOL0     C19465   0.063   8.423   8.479 -0.1546  0.1469 -0.8732
  906MOL0     C19466  -0.071   8.423   8.430 -0.8188  0.1435  0.7100
  906MOL0     C19467  -0.156   8.315   8.459  0.2985 -0.7399  0.0708
  906MOL0     O19468  -0.283   8.299   8.419  0.1876 -0.4036 -0.2338
  906MOL0     C19469  -0.339   8.376   8.310 -0.5526 -0.2686 -0.3598
  906MOL0     C19470  -0.417   8.495   8.362 -0.8340 -0.8585  0.4535
  906MOL0     C19471  -0.469   8.597   8.250 -0.4342  0.4241  1.0272
  906MOL0     C19472  -0.508   8.733   8.285  0.4710 -0.0843 -0.4778
  906MOL0     C19473  -0.626   8.733   8.381  0.6010 -0.0470 -0.2589
  906MOL0     C19474  -0.685   8.870   8.412 -0.4444 -0.5705  0.0198
  906MOL0     C19475  -0.598   8.947   8.511  0.5603 -0.3509  0.2215
  906MOL0     C19476  -0.643   9.096   8.537 -0.5313  0.4285 -0.4662
  906MOL0     N19477  -0.540   9.169   8.605  0.3050 -0.5323  0.2990
  906MOL0     C19478  -0.427   9.135   8.661 -0.4926  0.1787 -0.3931
  906MOL0     C19479  -0.374   9.245   8.721  0.2808 -0.2470  0.0749
  906MOL0     C19480  -0.242   9.248   8.805  0.9103 -0.2507  0.0546
  906MOL0     C19481  -0.286   9.172   8.935 -0.8960  0.2028  0.3130
  906MOL0     C19482  -0.169   9.128   9.020  1.0112 -1.2812  0.6370
  906MOL0     C19483  -0.200   9.022   9.126  0.4045 -1.2958  0.1465
  906MOL0     O19484  -0.304   9.056   9.215 -0.1817 -0.1832  0.0528
  906MOL0     C19485  -0.415   8.974   9.217 -0.0715 -0.5968 -0.7020
  906MOL0     C19486  -0.547   9.012   9.230  0.2394 -0.5287 -0.2725
  906MOL0     C19487  -0.661   8.926   9.226 -0.1782 -0.3848  0.8224
  906MOL0     C19488  -0.647   8.795   9.205  0.4258 -0.1331 -0.2425
  906MOL0     C19489  -0.757   8.695   9.221  1.1318  0.2737 -0.7862
  906MOL0     O19490  -0.724   8.559   9.190  0.2702 -0.3599 -0.2989
  906MOL0     C19491  -0.840   8.478   9.186 -0.5294  0.2897 -0.4746
  906MOL0     C19492  -0.893   8.433   9.063 -0.1507 -0.0773 -0.1418
  906MOL0     C19493  -1.010   8.352   9.061  0.1520 -1.6726 -0.6990
  906MOL0     C19494  -1.075   8.324   9.184  0.0251  0.1671  0.3085
  906MOL0     O19495  -1.180   8.235   9.186  0.1561 -0.3505 -0.4963
  906MOL0     C19496  -1.283   8.240   9.081  0.1741  0.5098  0.0347
  906MOL0     C19497  -1.313   8.093   9.056  0.6146  0.2423 -0.6872
  906MOL0     C19498  -1.465   8.060   9.015 -0.0934  0.7318 -0.1322
  906MOL0     C19499  -1.467   7.983   8.880  0.2420  1.0529 -0.1473
  906MOL0     C19500  -1.619   7.958   8.853 -0.0548  0.6823  0.2406
  906MOL0     C19501  -1.647   7.879   8.728  0.0072 -0.3563  0.0916
  906MOL0     C19502  -1.790   7.842   8.687  0.8964  0.7082  0.9881
  906MOL0     C19503  -1.790   7.755   8.558 -0.1176 -0.5491 -0.0475
  906MOL0    Cl19504  -1.955   7.776   8.487 -0.8074 -0.3391 -0.0162
  906MOL0     C19505  -1.020   8.367   9.308  0.9278 -0.1009 -0.0797
  906MOL0     C19506  -0.906   8.442   9.304 -0.3637  0.8263 -0.3366
  906MOL0     O19507  -0.855   8.730   9.294 -0.5347  0.7820  0.4464
  906MOL0     C19508  -0.515   8.747   9.193  0.1428 -0.0085  0.7008
  906MOL0     C19509  -0.401   8.833   9.198  0.0473 -0.8657 -0.3651
  906MOL0     N19510  -0.460   9.351   8.688 -1.0229 -0.2314 -0.2422
  906MOL0     N19511  -0.560   9.304   8.620 -0.5059 -0.1261  0.0313
  906MOL0     C19512  -0.111   8.213   8.548  0.7013 -0.5906  0.1143
  906MOL0     C19513   0.026   8.210   8.596  1.3602 -0.4697 -1.3301
  906MOL0     C19514   0.460   8.191   8.562  0.0973 -0.4783 -0.0239
  906MOL0     C19515   0.550   8.132   8.467 -0.1159 -0.4274 -0.1626
  906MOL0     C19516   0.688   8.128   8.486  0.8843 -0.1270 -0.9138
  906MOL0     C19517   0.745   8.155   8.614 -0.6538 -1.4618 -0.7287
  906MOL0     O19518   0.876   8.129   8.620  0.0767 -0.9735 -0.2757
  906MOL0     C19519   0.933   8.154   8.747  0.7047 -0.4625  0.6539
  906MOL0     C19520   1.083   8.122   8.732  0.1059 -0.5128 -0.0492
  906MOL0     C19521   1.152   8.202   8.847 -0.1359 -0.5243 -0.2079
  906MOL0     C19522   1.310   8.188   8.848 -0.2006 -0.6663  0.3788
  906MOL0     C19523   1.338   8.057   8.905 -0.2547  0.3575 -0.8168
  906MOL0     C19524   1.353   7.952   8.969 -0.8521  0.4543 -0.2302
  906MOL0     C19525   0.661   8.227   8.700  0.0166  1.0455 -0.0422
  906MOL0     C19526   0.521   8.255   8.669  0.0700  0.5193  0.5521
  906MOL0     H19527   0.124   8.512   8.464 -1.2699  0.7666 -1.9099
  906MOL0     H19528  -0.101   8.500   8.359  2.2766 -0.4367 -1.4423
  906MOL0     H19529  -0.398   8.311   8.245 -0.8035  2.4648 -3.0711
  906MOL0     H19530  -0.257   8.403   8.244  2.3144 -1.3261  2.5364
  906MOL0     H19531  -0.343   8.552   8.419 -2.2283  1.4340  0.1094
  906MOL0     H19532  -0.497   8.469   8.431 -0.7781 -0.8999  0.5018
  906MOL0     H19533  -0.554   8.544   8.207 -2.3555  2.5059  2.0127
  906MOL0     H19534  -0.400   8.612   8.167  0.8143 -1.4252  1.6764
  906MOL0     H19535  -0.424   8.797   8.315 -0.1858  0.6011 -0.0718
  906MOL0     H19536  -0.532   8.788   8.193 -1.7154  1.5789  0.9968
  906MOL0     H19537  -0.606   8.678   8.474 -0.3405 -1.2159 -0.7140
  906MOL0     H19538  -0.707   8.686   8.323  0.2029  1.8007 -1.2683
  906MOL0     H19539  -0.781   8.870   8.464  0.5040  1.7379  1.9486
  906MOL0     H19540  -0.701   8.927   8.320 -0.3528  0.8206  0.8334
  906MOL0     H19541  -0.589   8.892   8.605  4.0345 -1.0778 -0.4046
  906MOL0     H19542  -0.499   8.943   8.464 -0.2178  1.1061 -1.6917
  906MOL0     H19543  -0.737   9.088   8.592 -0.5333 -1.9285 -0.7305
  906MOL0     H19544  -0.674   9.147   8.446 -0.5153  1.2431 -0.0293
  906MOL0     H19545  -0.398   9.030   8.650  3.8348  1.4661 -5.8063
  906MOL0     H19546  -0.219   9.353   8.827 -2.3725  0.5592  0.2342
  906MOL0     H19547  -0.163   9.210   8.741 -0.2239  1.6119 -2.6452
  906MOL0     H19548  -0.345   9.086   8.900 -2.1085  1.2258 -0.2720
  906MOL0     H19549  -0.360   9.228   8.993  1.3916  0.5087  3.1634
  906MOL0     H19550  -0.091   9.090   8.953 -0.6474 -2.8151 -0.5044
  906MOL0     H19551  -0.121   9.215   9.066  1.3594 -0.2922 -1.4721
  906MOL0     H19552  -0.109   9.014   9.185 -0.2132  1.5906  1.6886
  906MOL0     H19553  -0.221   8.934   9.064  2.1326  0.4198 -3.1329
  906MOL0     H19554  -0.557   9.118   9.247  0.0842 -0.1688 -2.3246
  906MOL0     H19555  -0.757   8.971   9.252 -0.4980 -0.4782 -0.1471
  906MOL0     H19556  -0.844   8.450   8.968 -0.3145  0.0717 -0.2024
  906MOL0     H19557  -1.060   8.307   8.975 -1.0392 -1.2011 -0.2788
  906MOL0     H19558  -1.245   8.288   8.990  0.8008 -2.4652 -1.3939
  906MOL0     H19559  -1.379   8.283   9.110  0.0945 -0.6671  1.6248
  906MOL0     H19560  -1.302   8.032   9.147 -1.8510  2.0240  0.9431
  906MOL0     H19561  -1.245   8.052   8.981  1.2554 -3.3397  1.5982
  906MOL0     H19562  -1.540   8.140   9.013 -1.3899 -0.4523 -1.9840
  906MOL0     H19563  -1.500   7.993   9.094  0.2931  0.4713 -0.1798
  906MOL0     H19564  -1.435   8.044   8.795  0.0390 -0.4954 -1.3824
  906MOL0     H19565  -1.413   7.887   8.883 -2.8305 -0.9003  4.5313
  906MOL0     H19566  -1.669   8.055   8.854 -1.1445  0.1941  3.0637
  906MOL0     H19567  -1.665   7.902   8.935  1.7752 -2.4262 -0.7084
  906MOL0     H19568  -1.580   7.793   8.733  3.1952  1.9288 -0.1876
  906MOL0     H19569  -1.608   7.943   8.648  1.4025  1.6060  2.2305
  906MOL0     H19570  -1.841   7.785   8.765 -1.9145 -0.2531 -1.3792
  906MOL0     H19571  -1.843   7.937   8.670  3.5473  1.7550 -2.6446
  906MOL0     H19572  -1.751   7.653   8.574 -0.4777 -0.3965  2.1518
  906MOL0     H19573  -1.722   7.794   8.482  1.9966  1.8704  2.8275
  906MOL0     H19574  -1.077   8.334   9.395  2.4281 -0.8924  0.6375
  906MOL0     H19575  -0.851   8.480   9.390 -1.2898  2.7964 -0.5655
  906MOL0     H19576  -0.490   8.641   9.200  0.1672 -0.2502 -2.1075
  906MOL0     H19577  -0.306   8.783   9.210  1.2455  1.8337  3.4432
  906MOL0     H19578  -0.177   8.134   8.582  0.1390 -0.4016 -0.5289
  906MOL0     H19579   0.052   8.127   8.661  0.9034  2.1469  2.5584
  906MOL0     H19580   0.516   8.096   8.371  0.8030  0.8911 -1.0140
  906MOL0     H19581   0.757   8.103   8.406  0.6793 -1.2677 -0.7558
  906MOL0     H19582   0.882   8.091   8.821  1.0720 -2.1102 -0.4506
  906MOL0     H19583   0.913   8.259   8.769 -0.8747 -0.9097  1.5545
  906MOL0     H19584   1.112   8.017   8.726  3.1814  0.1952  0.7090
  906MOL0     H19585   1.128   8.161   8.640  3.0212 -1.3684  0.9168
  906MOL0     H19586   1.119   8.181   8.949  1.7810  2.8384  1.2682
  906MOL0     H19587   1.141   8.309   8.828  1.3403 -0.5044 -1.1628
  906MOL0     H19588   1.355   8.206   8.750 -1.9076 -1.3206 -0.5748
  906MOL0     H19589   1.348   8.269   8.910  2.6322  0.6662 -2.7615
  906MOL0     H19590   1.366   7.859   9.021  3.5554  0.7344 -0.4643
  906MOL0     H19591   0.695   8.269   8.794 -0.4173  0.6365  0.3043
  906MOL0     H19592   0.465   8.321   8.733 -1.2595  0.0904 -0.1397
  907MOL0     O19593   3.599   5.510   2.918  0.0688 -0.1588  0.2245
  907MOL0     C19594   3.692   5.481   2.846 -0.0017  0.1012 -0.5829
  907MOL0     O19595   3.679   5.405   2.733  1.0689  0.1399  0.5608
  907MOL0     C19596   3.571   5.322   2.704 -0.3964 -0.3504  0.5025
  907MOL0     C19597   3.509   5.246   2.798 -0.2525 -0.8661 -0.3711
  907MOL0     C19598   3.403   5.168   2.767  0.5062 -0.2125  0.6714
  907MOL0     C19599   3.362   5.155   2.637  0.3839  0.0884 -0.0430
  907MOL0     O19600   3.258   5.075   2.604 -0.4606 -0.3448  0.4088
  907MOL0     C19601   3.285   4.938   2.573 -0.0641 -1.0308 -0.6106
  907MOL0     C19602   3.199   4.871   2.462 -0.1545 -0.2392 -1.1330
  907MOL0     C19603   3.146   4.958   2.354 -0.1394  0.1459 -0.1683
  907MOL0     C19604   3.034   4.878   2.269 -1.2313 -0.4299 -0.1019
  907MOL0     C19605   2.897   4.915   2.330 -0.9157  1.4708  0.0440
  907MOL0     C19606   2.766   4.864   2.264 -0.0427  0.7841 -0.2664
  907MOL0     C19607   2.652   4.946   2.313  0.5529  0.0588 -0.5751
  907MOL0     C19608   2.641   4.947   2.470  0.4678 -0.8657 -0.3511
  907MOL0     N19609   2.507   4.977   2.518  0.5177 -0.0703  0.3339
  907MOL0     C19610   2.411   4.891   2.569  0.2665 -0.0706  0.0829
  907MOL0     C19611   2.300   4.982   2.580 -0.7105  0.4557 -0.3837
  907MOL0     C19612   2.183   4.928   2.647 -0.8871  0.6699  0.4859
  907MOL0     C19613   2.059   4.998   2.601  0.0752 -0.5296 -0.0901
  907MOL0     C19614   1.920   4.931   2.620 -0.6920 -0.6389  0.8466
  907MOL0     C19615   1.904   4.797   2.546  0.3175 -0.3643  0.2298
  907MOL0     O19616   1.913   4.812   2.407  0.2217  0.0977 -0.0669
  907MOL0     C19617   1.804   4.872   2.347  1.2460  1.1354 -0.6673
  907MOL0     C19618   1.837   4.966   2.247 -0.9923  0.7652  0.1211
  907MOL0     C19619   1.737   5.032   2.173 -0.5275  1.0963 -1.6586
  907MOL0     C19620   1.598   5.022   2.218 -1.0078  0.0680  0.7100
  907MOL0     C19621   1.494   5.098   2.148  0.8454 -0.1143  0.3960
  907MOL0     O19622   1.365   5.086   2.205 -0.0830 -1.0060  0.3506
  907MOL0     C19623   1.254   5.172   2.174 -0.7133 -0.0290  0.1899
  907MOL0     C19624   1.130   5.114   2.167 -0.7772  0.1746  0.1310
  907MOL0     C19625   1.022   5.197   2.177 -1.1186 -0.2745  0.5465
  907MOL0     C19626   1.027   5.336   2.169  0.0628  0.2020 -0.2640
  907MOL0     O19627   0.909   5.407   2.172 -0.2913  0.8568  0.8095
  907MOL0     C19628   0.864   5.436   2.045 -0.6434 -0.0892 -0.8418
  907MOL0     C19629   0.781   5.325   1.985  0.2361  0.1464 -0.3220
  907MOL0     C19630   0.652   5.274   2.070 -0.1451  0.6569  0.1762
  907MOL0     C19631   0.554   5.199   1.974 -0.2430 -0.1618 -0.8780
  907MOL0     C19632   0.416   5.168   2.040  0.0697 -0.1964 -0.1484
  907MOL0     C19633   0.321   5.089   1.943  0.8344  0.2977 -0.2899
  907MOL0     C19634   0.197   5.034   2.012  0.2334  0.7329  0.3427
  907MOL0     C19635   0.077   5.024   1.913 -0.4931  0.4492 -0.6299
  907MOL0    Cl19636  -0.071   4.971   1.998  0.2411 -0.2343  0.4490
  907MOL0     C19637   1.158   5.392   2.160  0.6616  0.2101 -0.3980
  907MOL0     C19638   1.264   5.314   2.166 -0.0284  1.0999 -0.0885
  907MOL0     O19639   1.521   5.175   2.063  0.0553  0.5260  0.2904
  907MOL0     C19640   1.577   4.919   2.313 -0.6899  0.0061  0.8140
  907MOL0     C19641   1.667   4.842   2.381 -0.0007  0.9742 -0.0057
  907MOL0     N19642   2.339   5.112   2.567 -0.3957 -0.6723 -0.8368
  907MOL0     N19643   2.461   5.110   2.530  0.0643 -0.2875 -0.0289
  907MOL0     C19644   3.422   5.226   2.537  0.3876 -0.4672  0.3169
  907MOL0     C19645   3.539   5.306   2.576 -0.1581 -0.4155  0.5421
  907MOL0     C19646   3.827   5.527   2.887 -0.0513 -0.0971  0.6045
  907MOL0     C19647   3.930   5.539   2.798 -0.3897  0.6632  0.1752
  907MOL0     C19648   4.056   5.583   2.832  0.0846  0.6188  0.0786
  907MOL0     C19649   4.083   5.616   2.970  0.2189  0.2684 -0.4696
  907MOL0     O19650   4.212   5.644   2.996  0.1926 -0.0524  0.6668
  907MOL0     C19651   4.278   5.597   3.119  0.2906 -0.6568  0.4620
  907MOL0     C19652   4.351   5.468   3.100 -0.0906 -0.6327 -0.5878
  907MOL0     C19653   4.452   5.467   2.981 -0.2574 -0.7865  0.7407
  907MOL0     C19654   4.570   5.573   2.991 -0.2105  0.0026 -0.4910
  907MOL0     C19655   4.614   5.599   3.130  0.6655 -0.1297 -0.1164
  907MOL0     C19656   4.658   5.612   3.241 -0.4885 -0.3459  0.5993
  907MOL0     C19657   3.982   5.596   3.064 -1.0468  0.0896 -0.4317
  907MOL0     C19658   3.852   5.551   3.020  0.0558  0.0758 -0.9465
  907MOL0     H19659   3.529   5.263   2.903 -0.2914  0.5301 -0.5809
  907MOL0     H19660   3.353   5.109   2.843 -1.5191 -0.1941 -0.5675
  907MOL0     H19661   3.289   4.880   2.665  3.4371 -1.7310 -1.0530
  907MOL0     H19662   3.385   4.946   2.529 -0.7147  3.1417 -1.7202
  907MOL0     H19663   3.114   4.829   2.518  0.4199 -1.3219 -1.0395
  907MOL0     H19664   3.266   4.793   2.423  0.9212 -0.9081  1.7853
  907MOL0     H19665   3.230   4.984   2.290  1.5033 -2.3542  0.8145
  907MOL0     H19666   3.106   5.051   2.396 -0.3240 -0.5878  1.3318
  907MOL0     H19667   3.030   4.907   2.164  1.0175 -0.9644 -0.3961
  907MOL0     H19668   3.034   4.770   2.284 -0.3505 -0.1661  2.3531
  907MOL0     H19669   2.893   5.024   2.331 -0.4323  1.5004 -0.4826
  907MOL0     H19670   2.900   4.875   2.431 -1.8855  0.1907 -0.4043
  907MOL0     H19671   2.748   4.761   2.295 -0.6457  1.0748  0.3649
  907MOL0     H19672   2.772   4.866   2.155 -1.9945  1.0655 -0.4014
  907MOL0     H19673   2.669   5.051   2.289 -1.2565  0.4290 -0.4271
  907MOL0     H19674   2.562   4.908   2.263 -1.0636  2.1181  0.5797
  907MOL0     H19675   2.716   5.019   2.504  0.4938 -0.9102 -0.3147
  907MOL0     H19676   2.676   4.852   2.511 -0.9852 -1.6899 -0.9461
  907MOL0     H19677   2.410   4.784   2.588  1.7087  0.2943  2.5736
  907MOL0     H19678   2.190   4.916   2.755 -1.2683  0.8530  0.5310
  907MOL0     H19679   2.175   4.829   2.600  0.6633  0.7505 -0.0009
  907MOL0     H19680   2.071   5.009   2.493 -1.5225 -0.1421 -0.2604
  907MOL0     H19681   2.068   5.091   2.658 -4.5382 -0.4211  0.8587
  907MOL0     H19682   1.899   4.903   2.723 -3.1359  2.4969  1.3600
  907MOL0     H19683   1.847   5.008   2.595  0.0690  1.1814  3.7476
  907MOL0     H19684   1.813   4.750   2.584 -0.2441  0.1702 -0.4067
  907MOL0     H19685   1.987   4.729   2.563  1.7626  1.0122 -0.9189
  907MOL0     H19686   1.942   4.970   2.222 -1.2047 -2.3487 -1.8604
  907MOL0     H19687   1.772   5.106   2.102 -3.2198  1.0614 -3.1654
  907MOL0     H19688   1.122   5.006   2.157  0.9292  0.2059 -2.8376
  907MOL0     H19689   0.928   5.143   2.182 -1.8521  0.9764  0.5788
  907MOL0     H19690   0.945   5.461   1.976 -0.1758 -0.4302 -0.4281
  907MOL0     H19691   0.803   5.526   2.057  0.0476  0.1758  1.0243
  907MOL0     H19692   0.845   5.237   1.973 -0.7333 -0.4552 -1.2713
  907MOL0     H19693   0.736   5.359   1.891 -3.8734 -0.9419  1.0275
  907MOL0     H19694   0.594   5.360   2.104 -2.4534 -0.2215 -1.2739
  907MOL0     H19695   0.678   5.210   2.155  0.0078  3.5209  2.4163
  907MOL0     H19696   0.521   5.264   1.892 -3.3306 -1.7571 -1.0566
  907MOL0     H19697   0.592   5.107   1.930 -1.1813 -0.8242 -0.3426
  907MOL0     H19698   0.373   5.265   2.066  0.8650  0.1790 -0.2061
  907MOL0     H19699   0.427   5.112   2.133 -0.5700 -2.0080 -1.1129
  907MOL0     H19700   0.373   5.015   1.881 -2.8169 -4.4291  1.6446
  907MOL0     H19701   0.289   5.169   1.876 -1.9853  2.4484  3.2329
  907MOL0     H19702   0.235   4.940   2.053 -0.5434  0.6347  0.8724
  907MOL0     H19703   0.156   5.087   2.099 -1.1099 -1.9845  1.4908
  907MOL0     H19704   0.102   4.960   1.828  0.5274 -1.7514  1.2328
  907MOL0     H19705   0.050   5.123   1.874 -1.6362 -1.1658 -4.2880
  907MOL0     H19706   1.177   5.497   2.143 -3.2045  0.6419 -3.6109
  907MOL0     H19707   1.368   5.347   2.166  0.3710 -0.0550 -1.4696
  907MOL0     H19708   1.474   4.897   2.338 -1.3084  0.3571 -1.2560
  907MOL0     H19709   1.649   4.758   2.448 -0.3542  1.0716  0.0240
  907MOL0     H19710   3.378   5.228   2.438  1.2748  0.4826 -0.0752
  907MOL0     H19711   3.591   5.370   2.506 -0.9400  0.5102  0.7825
  907MOL0     H19712   3.908   5.520   2.693 -4.4365 -1.8670  1.2083
  907MOL0     H19713   4.138   5.596   2.763 -1.8377  0.7247 -2.3227
  907MOL0     H19714   4.209   5.586   3.203 -2.5203  1.1335 -1.4121
  907MOL0     H19715   4.350   5.678   3.133 -1.5476  1.4701 -1.4454
  907MOL0     H19716   4.393   5.459   3.201 -0.8633 -0.5754 -0.2511
  907MOL0     H19717   4.280   5.387   3.083  0.2673 -0.5138 -3.0645
  907MOL0     H19718   4.392   5.488   2.892 -0.3476 -1.5796  0.6111
  907MOL0     H19719   4.496   5.372   2.949  1.6774  0.3925 -0.2725
  907MOL0     H19720   4.650   5.539   2.925 -0.0100 -0.2400 -0.1262
  907MOL0     H19721   4.535   5.672   2.960  0.3867  0.8428  1.3953
  907MOL0     H19722   4.696   5.626   3.341 -0.5541 -0.9118  0.7098
  907MOL0     H19723   4.015   5.617   3.165  0.7947 -0.3521 -0.9107
  907MOL0     H19724   3.774   5.536   3.095  0.4082  0.0518 -0.5794
  908MOL0     O19725   7.567   1.090   0.112 -0.3168  0.2491  1.1247
  908MOL0     C19726   7.628   1.172   0.180 -0.5256 -0.4595  0.0149
  908MOL0     O19727   7.600   1.308   0.193  0.6158  0.8231  0.1965
  908MOL0     C19728   7.512   1.359   0.098  0.3419 -0.7802 -0.8567
  908MOL0     C19729   7.379   1.391   0.129  0.7886  0.2735  0.0569
  908MOL0     C19730   7.304   1.443   0.024 -0.8508  0.1781  0.5135
  908MOL0     C19731   7.357   1.459  -0.106  0.8383 -0.3412 -0.1160
  908MOL0     O19732   7.262   1.507  -0.192 -0.3074 -0.9889 -0.4711
  908MOL0     C19733   7.239   1.422  -0.306  0.1684  0.2985 -0.3477
  908MOL0     C19734   7.107   1.471  -0.378 -0.6597 -0.9048  0.2906
  908MOL0     C19735   6.983   1.444  -0.291 -0.2341 -1.0783 -0.4616
  908MOL0     C19736   6.849   1.505  -0.348  0.3715  0.1943  1.6483
  908MOL0     C19737   6.739   1.486  -0.249  0.1775 -0.4989 -0.3386
  908MOL0     C19738   6.682   1.344  -0.254  0.5258 -0.6579  0.5702
  908MOL0     C19739   6.590   1.326  -0.140  0.0770  1.6169 -0.2288
  908MOL0     C19740   6.513   1.195  -0.165  0.0473  0.7468 -0.2792
  908MOL0     N19741   6.395   1.190  -0.087  1.0539  0.1081  0.6800
  908MOL0     C19742   6.287   1.272  -0.107 -0.2290 -0.5596 -0.1508
  908MOL0     C19743   6.185   1.212  -0.051  0.5398  0.1395 -0.7210
  908MOL0     C19744   6.045   1.280  -0.055 -0.1709  0.0708 -0.2147
  908MOL0     C19745   5.940   1.179  -0.036 -0.1822 -0.2771  0.8563
  908MOL0     C19746   5.888   1.163   0.108 -0.1055 -0.1427  0.5059
  908MOL0     C19747   5.830   1.290   0.183  1.1061  0.0731 -0.1040
  908MOL0     O19748   5.732   1.361   0.110 -0.0854 -0.7861 -0.1238
  908MOL0     C19749   5.597   1.350   0.137 -0.6029  0.3528 -0.6287
  908MOL0     C19750   5.514   1.457   0.129 -0.5682 -0.6029  0.0358
  908MOL0     C19751   5.376   1.444   0.155  0.0084 -0.4573  0.4376
  908MOL0     C19752   5.317   1.325   0.215 -0.0557  0.9323 -0.1587
  908MOL0     C19753   5.179   1.316   0.255  0.0262 -1.3407 -0.3612
  908MOL0     O19754   5.129   1.202   0.320 -0.1160  0.1175 -0.6780
  908MOL0     C19755   4.996   1.189   0.332  0.6037 -0.6491 -0.5804
  908MOL0     C19756   4.955   1.063   0.303 -0.3684 -0.2425  0.0261
  908MOL0     C19757   4.820   1.020   0.326 -0.8995 -0.4628  0.6013
  908MOL0     C19758   4.732   1.117   0.375  0.6371  0.3416  0.5421
  908MOL0     O19759   4.596   1.080   0.356 -0.0944 -0.5539  0.0211
  908MOL0     C19760   4.498   1.175   0.395  0.2199  0.1374 -0.1016
  908MOL0     C19761   4.492   1.288   0.294 -0.4640 -0.3143  0.3241
  908MOL0     C19762   4.374   1.382   0.324 -1.2615 -1.2048  0.1100
  908MOL0     C19763   4.236   1.326   0.286 -0.0992 -0.4163 -0.7059
  908MOL0     C19764   4.142   1.454   0.308  0.2922 -0.4838 -0.0624
  908MOL0     C19765   4.005   1.409   0.353  0.1491  0.3295  0.1509
  908MOL0     C19766   3.960   1.458   0.490 -0.0837  0.3989 -0.1493
  908MOL0     C19767   3.824   1.523   0.475  0.7693  0.4638 -0.4539
  908MOL0    Cl19768   3.810   1.666   0.366 -0.0029 -0.1033  0.2660
  908MOL0     C19769   4.776   1.241   0.425 -0.0703 -0.3379  0.1563
  908MOL0     C19770   4.901   1.277   0.387 -0.3683 -0.2548 -1.0584
  908MOL0     O19771   5.114   1.418   0.237 -0.3737  0.4779 -0.5524
  908MOL0     C19772   5.407   1.219   0.219 -0.7801 -0.1107 -0.8822
  908MOL0     C19773   5.539   1.227   0.184 -0.4169 -0.0862 -0.1172
  908MOL0     N19774   6.224   1.082  -0.010 -0.1699  0.3218  0.3731
  908MOL0     N19775   6.347   1.071  -0.037  0.1781  0.2872  0.4067
  908MOL0     C19776   7.494   1.444  -0.128  0.1799 -0.5447  0.2639
  908MOL0     C19777   7.566   1.392  -0.026 -0.1606 -0.5685  0.0648
  908MOL0     C19778   7.748   1.125   0.253  1.8525 -1.0085 -0.0627
  908MOL0     C19779   7.806   1.214   0.353 -0.1425  0.2554  0.1147
  908MOL0     C19780   7.932   1.189   0.407 -0.6209  0.2587 -0.7173
  908MOL0     C19781   8.006   1.081   0.378  0.3124  0.4159 -1.1699
  908MOL0     O19782   8.135   1.080   0.424  0.1820  0.5240  0.5564
  908MOL0     C19783   8.236   1.129   0.338  0.4816 -0.5723 -0.0304
  908MOL0     C19784   8.246   1.049   0.202  0.2296  0.5499 -0.6459
  908MOL0     C19785   8.353   1.115   0.109 -0.7203  1.0409 -0.4864
  908MOL0     C19786   8.338   1.074  -0.036  0.1894  0.6615  0.4075
  908MOL0     C19787   8.433   1.171  -0.107  0.2547 -0.8931 -0.2878
  908MOL0     C19788   8.497   1.237  -0.187 -0.0775  0.1292  0.2165
  908MOL0     C19789   7.959   0.990   0.288 -0.2845 -0.0955  0.1750
  908MOL0     C19790   7.829   1.009   0.233  1.3446 -0.4995  0.8981
  908MOL0     H19791   7.352   1.388   0.234 -1.9996  1.0233 -0.5682
  908MOL0     H19792   7.202   1.470   0.050 -2.2593 -2.4127 -1.7595
  908MOL0     H19793   7.225   1.320  -0.269 -1.8547  0.8487  0.5500
  908MOL0     H19794   7.324   1.430  -0.374  0.5484  2.6513  0.3185
  908MOL0     H19795   7.102   1.425  -0.477  2.0115 -1.3225  0.2634
  908MOL0     H19796   7.112   1.581  -0.380 -2.2978 -0.8011 -2.1994
  908MOL0     H19797   6.994   1.464  -0.184 -0.7455 -4.1202  0.2468
  908MOL0     H19798   6.969   1.337  -0.304  0.5386 -1.1703 -0.6288
  908MOL0     H19799   6.873   1.610  -0.369  0.2001 -0.2903 -1.3986
  908MOL0     H19800   6.824   1.458  -0.443  0.8450  2.8069  0.1139
  908MOL0     H19801   6.656   1.554  -0.273 -0.0348 -0.8174 -0.5088
  908MOL0     H19802   6.782   1.499  -0.149 -1.2841 -0.9162  0.3809
  908MOL0     H19803   6.760   1.268  -0.249 -0.1206 -1.3337  0.5669
  908MOL0     H19804   6.616   1.344  -0.340 -0.0562  1.2740  0.9609
  908MOL0     H19805   6.646   1.306  -0.049  0.3440  1.0155 -0.5193
  908MOL0     H19806   6.521   1.410  -0.126 -1.4083  0.3262  0.3842
  908MOL0     H19807   6.567   1.104  -0.139 -0.9297  1.0880  3.4775
  908MOL0     H19808   6.472   1.171  -0.264 -0.6348  0.0097  0.1676
  908MOL0     H19809   6.286   1.360  -0.170 -1.3024 -0.5870 -0.1844
  908MOL0     H19810   6.024   1.330  -0.150  2.6849  2.8178  0.4641
  908MOL0     H19811   6.032   1.352   0.026  0.8403 -0.7606  0.7169
  908MOL0     H19812   5.979   1.084  -0.075 -1.6518 -0.3098 -0.6530
  908MOL0     H19813   5.857   1.206  -0.101  1.1801 -1.2821 -1.4234
  908MOL0     H19814   5.797   1.104   0.097 -2.0599  3.1104 -4.5466
  908MOL0     H19815   5.972   1.121   0.165 -0.6519 -0.3374  1.1845
  908MOL0     H19816   5.908   1.359   0.216  2.7095 -1.8003  0.2171
  908MOL0     H19817   5.784   1.250   0.274 -3.4441 -1.6348 -2.7897
  908MOL0     H19818   5.562   1.550   0.102 -1.4036  0.4369  1.8797
  908MOL0     H19819   5.325   1.539   0.149  2.9276  1.1647 -0.6773
  908MOL0     H19820   5.026   0.996   0.256 -0.1053 -0.8692  1.2863
  908MOL0     H19821   4.800   0.918   0.298  0.5351 -0.6138  0.0250
  908MOL0     H19822   4.515   1.212   0.497  0.3622  0.2340 -0.1598
  908MOL0     H19823   4.403   1.122   0.393 -1.2068  2.3687  2.2742
  908MOL0     H19824   4.477   1.255   0.191  1.3489  2.1828 -0.8651
  908MOL0     H19825   4.590   1.338   0.290 -1.1145  0.9800 -0.3334
  908MOL0     H19826   4.392   1.463   0.252  0.7616 -1.4447  0.2778
  908MOL0     H19827   4.376   1.424   0.424  1.9957  1.2369 -0.7987
  908MOL0     H19828   4.234   1.277   0.188 -0.4365 -2.4727  0.2829
  908MOL0     H19829   4.215   1.246   0.357  0.2993  0.0704 -0.0271
  908MOL0     H19830   4.124   1.501   0.211 -2.8763 -1.1615  0.0747
  908MOL0     H19831   4.187   1.528   0.375 -0.3818 -0.8657  0.8414
  908MOL0     H19832   3.994   1.301   0.338 -3.3835  0.6941 -0.7867
  908MOL0     H19833   3.941   1.464   0.283  2.7291  1.7094 -1.2438
  908MOL0     H19834   3.948   1.366   0.548  0.2726 -0.2548 -1.0981
  908MOL0     H19835   4.030   1.522   0.545  0.1304  1.1553 -1.2730
  908MOL0     H19836   3.785   1.545   0.575  0.6276 -1.6042  0.0043
  908MOL0     H19837   3.760   1.441   0.439 -0.9438 -0.3392  3.7339
  908MOL0     H19838   4.704   1.310   0.468  0.0617  1.3873 -2.2003
  908MOL0     H19839   4.951   1.371   0.407  0.0014 -1.0536  2.4197
  908MOL0     H19840   5.370   1.124   0.258 -1.6011  0.7834  0.6129
  908MOL0     H19841   5.591   1.134   0.203 -0.7766 -0.8322 -2.4427
  908MOL0     H19842   7.542   1.456  -0.224  0.9589  3.5118  0.9696
  908MOL0     H19843   7.668   1.362  -0.050  0.7461  0.6935  2.0516
  908MOL0     H19844   7.771   1.316   0.358 -3.7564 -0.7793 -0.8521
  908MOL0     H19845   7.976   1.262   0.473 -1.6646  0.9429 -0.7581
  908MOL0     H19846   8.329   1.121   0.396  0.4134 -1.2347 -0.0034
  908MOL0     H19847   8.216   1.229   0.300 -3.8668 -2.3979 -3.4330
  908MOL0     H19848   8.266   0.942   0.210  0.6137  0.6980  0.6611
  908MOL0     H19849   8.154   1.054   0.143  0.5978  2.3025 -1.1414
  908MOL0     H19850   8.445   1.087   0.161 -2.4127 -0.2732  2.0818
  908MOL0     H19851   8.349   1.225   0.112  2.9337  1.2964  0.4030
  908MOL0     H19852   8.368   0.970  -0.055 -1.2524  0.1487  0.8336
  908MOL0     H19853   8.236   1.090  -0.071 -0.1826 -2.3325 -0.1410
  908MOL0     H19854   8.546   1.310  -0.248  2.8350 -1.5260  0.3745
  908MOL0     H19855   8.019   0.900   0.283 -1.5949 -1.3485  3.9070
  908MOL0     H19856   7.792   0.935   0.163 -0.9341  1.4068 -0.0577
  909MOL0     O19857   6.285   9.216   6.673 -0.9379  0.0191 -0.8093
  909MOL0     C19858   6.292   9.240   6.550 -0.6454  0.0418  0.5778
  909MOL0     O19859   6.180   9.252   6.469 -0.7896 -0.4689  0.5057
  909MOL0     C19860   6.049   9.272   6.530 -0.0605 -0.0545 -0.3986
  909MOL0     C19861   5.943   9.272   6.439 -0.3369  1.0714  0.1469
  909MOL0     C19862   5.810   9.298   6.471 -0.2391 -0.0126  0.3778
  909MOL0     C19863   5.777   9.326   6.611 -0.3037  0.6681 -0.1359
  909MOL0     O19864   5.653   9.351   6.660  0.5251  0.3876 -0.1342
  909MOL0     C19865   5.546   9.352   6.571  0.8396  0.4210 -0.1671
  909MOL0     C19866   5.413   9.351   6.649 -0.3001  0.5603  0.3612
  909MOL0     C19867   5.394   9.482   6.715 -0.7921  0.3648  0.6209
  909MOL0     C19868   5.273   9.484   6.810 -0.6531 -0.3944  0.3549
  909MOL0     C19869   5.244   9.624   6.854  0.3330 -0.0391 -0.4857
  909MOL0     C19870   5.124   9.636   6.945  0.4947  0.0680 -0.4109
  909MOL0     C19871   4.986   9.584   6.887  0.2374 -0.6917 -0.9134
  909MOL0     C19872   4.881   9.622   6.985  0.7696  0.0807  0.3425
  909MOL0     N19873   4.864   9.765   7.029  0.6609  0.0977 -0.1723
  909MOL0     C19874   4.794   9.869   6.967 -0.5752  0.1259  0.2471
  909MOL0     C19875   4.800   9.983   7.051 -0.3145 -0.0487 -0.8973
  909MOL0     C19876   4.755  10.121   7.029 -0.3712  0.3655  0.3540
  909MOL0     C19877   4.672  10.184   7.138  0.4453  0.4631 -1.0177
  909MOL0     C19878   4.553  10.089   7.147 -0.6188 -0.1642  0.2846
  909MOL0     C19879   4.446  10.159   7.227 -0.5126 -0.5498 -0.0564
  909MOL0     O19880   4.336  10.076   7.226  0.1043  0.1461  0.1830
  909MOL0     C19881   4.230  10.116   7.304 -0.2817  1.0283  0.9710
  909MOL0     C19882   4.211  10.243   7.350  0.0562 -0.7472  0.1857
  909MOL0     C19883   4.102  10.268   7.429  0.4338 -0.4098 -0.2516
  909MOL0     C19884   4.008  10.176   7.464  0.4853  0.1423 -0.6449
  909MOL0     C19885   3.887  10.217   7.546 -0.4294 -0.1946 -0.6666
  909MOL0     O19886   3.843  10.128   7.630 -0.3921  0.4455 -0.8808
  909MOL0     C19887   3.723  10.150   7.700 -0.6336  0.2434 -0.6678
  909MOL0     C19888   3.605  10.191   7.645  0.2606  0.2230  1.0302
  909MOL0     C19889   3.493  10.216   7.733 -0.1456  0.7094 -0.1354
  909MOL0     C19890   3.489  10.184   7.870  0.2821 -0.2953 -0.1597
  909MOL0     O19891   3.372  10.199   7.941  0.0388 -0.0620  0.0723
  909MOL0     C19892   3.377  10.171   8.084  0.6665 -0.0219 -0.1708
  909MOL0     C19893   3.252  10.230   8.154 -0.0430  0.8361  0.3898
  909MOL0     C19894   3.123  10.158   8.111 -1.0332  0.1576  0.3391
  909MOL0     C19895   3.001  10.218   8.170 -0.2700 -0.9340 -0.9424
  909MOL0     C19896   2.864  10.170   8.124 -1.2234 -0.7869  0.5654
  909MOL0     C19897   2.754  10.252   8.194 -0.4937  0.2343  0.6267
  909MOL0     C19898   2.619  10.232   8.120 -1.3416  0.6434 -0.4783
  909MOL0     C19899   2.495  10.235   8.203  0.6156 -0.7259 -0.1873
  909MOL0    Cl19900   2.475  10.415   8.241 -0.0733 -0.0406  0.3928
  909MOL0     C19901   3.609  10.134   7.922 -0.5423  0.5218 -0.1511
  909MOL0     C19902   3.725  10.126   7.833  0.6300  0.1412  0.1425
  909MOL0     O19903   3.840  10.330   7.534  0.2794  0.1808  0.4808
  909MOL0     C19904   4.020  10.048   7.408 -0.4369 -0.2299  0.9352
  909MOL0     C19905   4.131  10.017   7.324  0.8750  0.0884  0.1912
  909MOL0     N19906   4.883   9.951   7.155 -0.4283 -0.1791  0.3981
  909MOL0     N19907   4.906   9.827   7.146  0.4335  0.2268  0.4282
  909MOL0     C19908   5.888   9.338   6.701 -0.3232  0.6550  0.3873
  909MOL0     C19909   6.019   9.315   6.663 -0.4560  1.2342  0.2371
  909MOL0     C19910   6.419   9.227   6.471 -0.6010 -0.4349 -0.6526
  909MOL0     C19911   6.549   9.227   6.536  1.1979  0.0569 -0.0568
  909MOL0     C19912   6.664   9.200   6.457  0.0630  0.7723  0.5347
  909MOL0     C19913   6.654   9.187   6.318 -1.0653  0.8615  0.1050
  909MOL0     O19914   6.763   9.140   6.251 -0.6619  0.0093  0.0580
  909MOL0     C19915   6.793   9.205   6.127  0.6201 -1.0475  0.4189
  909MOL0     C19916   6.947   9.205   6.101  0.0501  0.2091  0.1624
  909MOL0     C19917   7.026   9.233   6.226  0.1055 -0.2963 -1.1497
  909MOL0     C19918   7.017   9.364   6.306 -0.4777  0.1668  0.2968
  909MOL0     C19919   7.092   9.356   6.431  0.1679 -0.1312  0.6956
  909MOL0     C19920   7.151   9.357   6.537  1.0112  1.1652  0.2066
  909MOL0     C19921   6.533   9.210   6.260  0.4685 -0.3844  0.4707
  909MOL0     C19922   6.418   9.208   6.334  0.2352 -0.2651  0.4149
  909MOL0     H19923   5.961   9.264   6.332  0.1117 -0.1028  0.2997
  909MOL0     H19924   5.747   9.292   6.382  0.9693 -3.0749 -0.3978
  909MOL0     H19925   5.550   9.267   6.502  3.0930  0.3751 -0.0611
  909MOL0     H19926   5.553   9.443   6.511  4.1670 -0.5451 -1.4905
  909MOL0     H19927   5.416   9.266   6.717  0.7463  1.9093  2.0801
  909MOL0     H19928   5.331   9.337   6.579  0.2606  0.9725 -0.3933
  909MOL0     H19929   5.368   9.551   6.634  1.0703  0.8106  0.3502
  909MOL0     H19930   5.488   9.514   6.761  0.2476 -0.6749 -0.6551
  909MOL0     H19931   5.194   9.422   6.766 -0.1815 -1.3907  0.8786
  909MOL0     H19932   5.302   9.434   6.903  1.2607 -2.1542 -1.0900
  909MOL0     H19933   5.218   9.687   6.768  0.9596  0.5422 -0.2529
  909MOL0     H19934   5.337   9.659   6.898  0.0054 -2.5532  2.5236
  909MOL0     H19935   5.110   9.743   6.957 -0.2958 -0.1713  1.1609
  909MOL0     H19936   5.152   9.591   7.041 -1.0682 -0.9736 -0.4023
  909MOL0     H19937   4.958   9.635   6.794 -2.0347 -3.6005 -1.9964
  909MOL0     H19938   4.977   9.476   6.870 -3.6779 -0.8749  1.0451
  909MOL0     H19939   4.889   9.561   7.075  0.4505 -0.2319  0.1641
  909MOL0     H19940   4.786   9.581   6.949  2.6394 -4.1447 -0.3524
  909MOL0     H19941   4.741   9.866   6.872 -0.0611 -1.6705 -0.0243
  909MOL0     H19942   4.692  10.116   6.940  0.1164  0.0062  0.0231
  909MOL0     H19943   4.841  10.184   7.003  0.2530  0.4301  2.3934
  909MOL0     H19944   4.644  10.290   7.129 -4.1739 -0.0480  3.2626
  909MOL0     H19945   4.722  10.182   7.235  1.4856 -1.7892 -1.5350
  909MOL0     H19946   4.516  10.059   7.048 -1.9993  1.3669  0.2867
  909MOL0     H19947   4.576  10.004   7.212 -0.1071  1.5170  2.4330
  909MOL0     H19948   4.422  10.260   7.192  0.1646  0.0796  1.1986
  909MOL0     H19949   4.490  10.184   7.325  0.1858  0.3726 -0.5839
  909MOL0     H19950   4.284  10.321   7.331  1.4348 -2.0907 -0.1932
  909MOL0     H19951   4.098  10.370   7.465  1.3900 -0.2265 -0.6392
  909MOL0     H19952   3.589  10.220   7.542 -2.4774  4.6536  2.4354
  909MOL0     H19953   3.409  10.245   7.672  0.1549  0.0784 -0.8650
  909MOL0     H19954   3.466  10.223   8.120 -0.6521  3.3195 -1.3729
  909MOL0     H19955   3.396  10.065   8.102  2.8486  0.4197  0.3637
  909MOL0     H19956   3.241  10.337   8.136  2.7207  0.7611 -2.7676
  909MOL0     H19957   3.267  10.209   8.261 -2.2414 -1.3236  0.3725
  909MOL0     H19958   3.139  10.052   8.135  3.7442  0.4088 -0.8741
  909MOL0     H19959   3.107  10.163   8.003 -2.5855  0.0147  0.5271
  909MOL0     H19960   3.000  10.187   8.275  1.2769 -0.6023 -0.8056
  909MOL0     H19961   3.007  10.327   8.170  2.0087 -0.8489  3.1558
  909MOL0     H19962   2.844  10.064   8.141 -1.9344 -0.6794  0.4449
  909MOL0     H19963   2.875  10.195   8.018  0.1411 -2.0096  0.3935
  909MOL0     H19964   2.790  10.355   8.184  0.3940 -0.1852 -0.6412
  909MOL0     H19965   2.754  10.215   8.297  4.1419 -0.8593  0.4472
  909MOL0     H19966   2.607  10.303   8.038  2.7495 -1.0036 -2.8274
  909MOL0     H19967   2.622  10.135   8.069 -0.5669  1.3256 -1.7868
  909MOL0     H19968   2.487  10.180   8.297 -1.5826  0.1040  0.1757
  909MOL0     H19969   2.405  10.203   8.149 -0.3792  1.1280  0.2877
  909MOL0     H19970   3.624  10.106   8.026  1.6026 -1.4257 -0.8934
  909MOL0     H19971   3.816  10.105   7.889  1.3527  0.7741 -0.7691
  909MOL0     H19972   3.941   9.980   7.436 -1.5520  0.9566  0.7682
  909MOL0     H19973   4.130   9.926   7.265 -1.1553  0.8841 -1.1024
  909MOL0     H19974   5.870   9.370   6.803 -1.0192 -1.5861  1.0313
  909MOL0     H19975   6.100   9.326   6.734  1.1314  1.1140 -1.5079
  909MOL0     H19976   6.544   9.244   6.644 -1.9737  2.1692 -0.3984
  909MOL0     H19977   6.757   9.184   6.510 -0.1800 -2.0922  0.2341
  909MOL0     H19978   6.751   9.305   6.113  2.9579 -0.1650 -0.9198
  909MOL0     H19979   6.742   9.146   6.050 -0.8603  3.1008 -2.1359
  909MOL0     H19980   6.976   9.106   6.065  1.8399  0.6176  0.4111
  909MOL0     H19981   6.965   9.280   6.024 -2.5841 -1.9476 -2.8403
  909MOL0     H19982   7.127   9.209   6.191  0.7749 -3.6776  2.3813
  909MOL0     H19983   7.009   9.161   6.307 -0.9981  1.6661  0.4542
  909MOL0     H19984   7.058   9.436   6.236  2.4279 -0.9687  0.6832
  909MOL0     H19985   6.913   9.386   6.331  0.0964  2.6152  0.7507
  909MOL0     H19986   7.204   9.353   6.630  1.7752  3.3380 -0.0661
  909MOL0     H19987   6.526   9.200   6.152 -0.2078 -0.0731  0.4831
  909MOL0     H19988   6.330   9.197   6.272 -0.1889 -3.0383  1.3359
  910MOL0     O19989   5.342   5.789   7.791  0.7506 -0.5380  0.0476
  910MOL0     C19990   5.445   5.724   7.762  0.2133 -0.1478 -0.2160
  910MOL0     O19991   5.541   5.763   7.669 -0.7009 -0.1354  0.7086
  910MOL0     C19992   5.532   5.874   7.584 -0.3747  1.4884 -0.0603
  910MOL0     C19993   5.527   5.999   7.649  0.1359  0.6781 -0.1228
  910MOL0     C19994   5.534   6.114   7.571  1.0430  0.0238  0.0736
  910MOL0     C19995   5.529   6.113   7.432  0.4672 -0.3553  0.7519
  910MOL0     O19996   5.508   6.220   7.350  0.7971 -0.1169 -0.2274
  910MOL0     C19997   5.444   6.338   7.400  0.0424 -0.1531 -0.5965
  910MOL0     C19998   5.295   6.313   7.420  0.2771 -0.1911  0.1454
  910MOL0     C19999   5.237   6.453   7.421  0.5024  0.2606  0.1408
  910MOL0     C20000   5.089   6.475   7.420  0.1167  1.0244 -0.1161
  910MOL0     C20001   5.023   6.413   7.294  0.0081 -0.2495  0.0793
  910MOL0     C20002   4.878   6.455   7.301 -1.5386 -0.1028 -0.3830
  910MOL0     C20003   4.787   6.408   7.187  0.4146 -0.3366 -0.5881
  910MOL0     C20004   4.650   6.481   7.199  0.5390 -0.4841 -0.7458
  910MOL0     N20005   4.552   6.444   7.100 -0.5683  0.1221 -0.9501
  910MOL0     C20006   4.581   6.440   6.968 -0.0834  0.4215 -0.7544
  910MOL0     C20007   4.473   6.385   6.905 -0.1105  0.0922  0.1497
  910MOL0     C20008   4.470   6.354   6.757 -1.1274 -0.2781  0.1390
  910MOL0     C20009   4.339   6.307   6.707 -0.8823  0.5005 -0.0662
  910MOL0     C20010   4.239   6.414   6.690 -0.0775  0.5232  0.3391
  910MOL0     C20011   4.143   6.371   6.583 -0.4435  0.2449 -0.9538
  910MOL0     O20012   4.023   6.446   6.614 -0.0419  0.2186  0.4638
  910MOL0     C20013   3.904   6.411   6.550 -0.5057  0.3009 -0.2461
  910MOL0     C20014   3.897   6.330   6.436 -0.6384  0.5271  0.5667
  910MOL0     C20015   3.764   6.302   6.385  0.3681 -0.0781  0.2168
  910MOL0     C20016   3.647   6.361   6.436  0.5217  0.1516  0.0942
  910MOL0     C20017   3.506   6.322   6.393 -0.3381  0.1445 -0.3063
  910MOL0     O20018   3.401   6.387   6.455 -0.2232  0.0306 -0.2245
  910MOL0     C20019   3.269   6.392   6.409  0.2618  0.0288 -0.0359
  910MOL0     C20020   3.204   6.517   6.407  0.0909 -0.3571  0.8818
  910MOL0     C20021   3.065   6.515   6.364 -0.2748 -0.0501  0.1175
  910MOL0     C20022   2.996   6.403   6.329 -1.0775 -0.2538  0.3956
  910MOL0     O20023   2.864   6.424   6.292  0.6030  0.5947  0.1187
  910MOL0     C20024   2.779   6.309   6.274  0.5485 -0.1443 -0.1749
  910MOL0     C20025   2.640   6.336   6.205 -0.0347  0.7829 -0.8279
  910MOL0     C20026   2.555   6.445   6.276  0.0614  0.2768  0.6024
  910MOL0     C20027   2.421   6.464   6.211 -0.0792 -0.7414 -0.3064
  910MOL0     C20028   2.383   6.610   6.215 -0.4037 -1.1605 -0.5055
  910MOL0     C20029   2.233   6.637   6.168  0.3741  0.4872  0.4990
  910MOL0     C20030   2.183   6.778   6.175  0.1908 -0.0947 -0.6156
  910MOL0     C20031   2.035   6.784   6.147 -0.0350  0.6260  1.3301
  910MOL0    Cl20032   1.934   6.673   6.238 -0.2504 -0.6779 -0.1218
  910MOL0     C20033   3.060   6.278   6.353 -0.3198 -0.7070  0.1223
  910MOL0     C20034   3.194   6.272   6.385 -0.1325 -0.3638 -0.0837
  910MOL0     O20035   3.497   6.226   6.316 -0.0132  0.3173  0.0385
  910MOL0     C20036   3.662   6.446   6.550  0.1556 -0.1519 -0.0948
  910MOL0     C20037   3.791   6.460   6.612 -0.1299 -0.0118  0.1928
  910MOL0     N20038   4.388   6.347   7.009  0.3490 -0.7235  0.5076
  910MOL0     N20039   4.435   6.381   7.127 -0.1060 -0.1019 -1.0714
  910MOL0     C20040   5.548   5.986   7.375  0.2338  0.3699  0.2947
  910MOL0     C20041   5.545   5.863   7.450 -0.7751  0.6578 -0.0313
  910MOL0     C20042   5.466   5.600   7.845  0.4441  0.4987 -0.2630
  910MOL0     C20043   5.583   5.538   7.845 -0.8024 -0.0287  0.7856
  910MOL0     C20044   5.606   5.428   7.928  1.1581 -0.1055  0.1584
  910MOL0     C20045   5.506   5.386   8.015  0.0818  0.4942 -0.2465
  910MOL0     O20046   5.492   5.264   8.080 -1.4402 -0.1864  0.2015
  910MOL0     C20047   5.608   5.171   8.060 -0.5828 -0.2777 -0.0898
  910MOL0     C20048   5.583   5.049   8.146 -0.0845 -0.8988  0.0970
  910MOL0     C20049   5.594   5.092   8.296  0.2613  0.3818 -0.7980
  910MOL0     C20050   5.735   5.127   8.340 -0.2424 -0.5644  0.3479
  910MOL0     C20051   5.747   5.174   8.476 -0.0086 -0.5227 -0.7153
  910MOL0     C20052   5.760   5.222   8.583 -0.7653 -0.3749 -0.7142
  910MOL0     C20053   5.396   5.464   8.035 -0.1800 -0.5992  0.7403
  910MOL0     C20054   5.366   5.567   7.946 -0.4196  0.1463  0.0011
  910MOL0     H20055   5.520   6.005   7.757  1.2918  0.1486 -0.0121
  910MOL0     H20056   5.522   6.211   7.618 -0.0476 -1.0820  2.2221
  910MOL0     H20057   5.455   6.418   7.327  2.9798  1.3953  1.3045
  910MOL0     H20058   5.487   6.380   7.492 -1.7423  1.5631 -0.4959
  910MOL0     H20059   5.274   6.245   7.504 -0.1017 -0.7166 -0.3633
  910MOL0     H20060   5.251   6.258   7.336 -0.6413 -0.0663  0.5299
  910MOL0     H20061   5.273   6.495   7.328 -0.8289  1.1758  0.0126
  910MOL0     H20062   5.280   6.499   7.511  0.4546 -0.3301  0.4751
  910MOL0     H20063   5.048   6.447   7.517  1.8062  1.0034  0.6257
  910MOL0     H20064   5.086   6.585   7.418  5.0169  1.4209  0.9306
  910MOL0     H20065   5.029   6.304   7.299 -0.1537 -0.2096  1.6479
  910MOL0     H20066   5.065   6.455   7.203 -4.0467  1.1221 -1.3749
  910MOL0     H20067   4.866   6.564   7.309  0.4868  0.3131 -2.3294
  910MOL0     H20068   4.832   6.419   7.394 -1.0974 -0.1614 -0.1826
  910MOL0     H20069   4.829   6.419   7.087  1.1929 -5.0013 -1.0078
  910MOL0     H20070   4.777   6.301   7.205  0.9683 -0.1888  0.7033
  910MOL0     H20071   4.667   6.589   7.188  0.4301 -0.6266 -2.6771
  910MOL0     H20072   4.608   6.472   7.300 -0.0973  0.9423 -0.8631
  910MOL0     H20073   4.673   6.484   6.931  2.8095 -1.3649  3.4655
  910MOL0     H20074   4.564   6.307   6.728  2.4825  5.0693  1.6334
  910MOL0     H20075   4.488   6.448   6.703  1.7569 -0.5431  0.4696
  910MOL0     H20076   4.304   6.232   6.778 -0.6603 -0.5387 -1.0426
  910MOL0     H20077   4.362   6.253   6.615 -2.9322  1.5835 -1.2696
  910MOL0     H20078   4.180   6.441   6.777 -0.1271  1.3155  0.0657
  910MOL0     H20079   4.288   6.508   6.661  1.4351 -0.6031 -0.9254
  910MOL0     H20080   4.124   6.264   6.592  3.3820 -0.4136  2.3538
  910MOL0     H20081   4.166   6.406   6.482 -3.5917  0.6978 -1.6164
  910MOL0     H20082   3.989   6.294   6.391 -1.5851  0.4878 -1.4213
  910MOL0     H20083   3.759   6.241   6.296  1.5235  0.5449 -0.2975
  910MOL0     H20084   3.256   6.612   6.420  1.3436 -0.4564 -2.3877
  910MOL0     H20085   3.010   6.607   6.348 -2.1563 -0.7701  1.9284
  910MOL0     H20086   2.768   6.268   6.375  0.8980 -0.6302 -0.3312
  910MOL0     H20087   2.837   6.232   6.222  3.4309  2.8681 -1.7943
  910MOL0     H20088   2.598   6.235   6.212  2.2365 -0.3670 -2.3236
  910MOL0     H20089   2.663   6.360   6.101  1.8715 -2.2418 -1.2433
  910MOL0     H20090   2.617   6.535   6.267  1.2377 -0.7135 -3.6331
  910MOL0     H20091   2.534   6.413   6.378 -2.0498  0.1580  0.1691
  910MOL0     H20092   2.429   6.431   6.107  1.3719 -4.0887  0.7251
  910MOL0     H20093   2.348   6.399   6.260 -3.4188  1.2339 -2.2130
  910MOL0     H20094   2.446   6.666   6.146 -1.5751 -0.9166 -1.4068
  910MOL0     H20095   2.412   6.657   6.310  2.4260  0.3249 -1.9948
  910MOL0     H20096   2.176   6.573   6.237  0.8403  0.3191  0.7279
  910MOL0     H20097   2.228   6.603   6.065  0.0878 -0.6499  0.8705
  910MOL0     H20098   2.214   6.812   6.275  3.9688 -1.3760 -1.1669
  910MOL0     H20099   2.237   6.851   6.114  0.9679 -2.2921 -2.7078
  910MOL0     H20100   2.001   6.774   6.043  1.5117 -3.1332  1.0181
  910MOL0     H20101   2.006   6.882   6.187 -1.3428 -0.0565  2.1490
  910MOL0     H20102   3.012   6.182   6.334 -0.2886 -1.3738  2.9077
  910MOL0     H20103   3.243   6.177   6.404  0.9568 -0.5343 -3.1833
  910MOL0     H20104   3.569   6.493   6.580 -1.3404 -0.1781 -4.0517
  910MOL0     H20105   3.800   6.512   6.707 -1.6827 -0.4190  0.5854
  910MOL0     H20106   5.548   5.978   7.267  0.0973 -1.4233  0.4013
  910MOL0     H20107   5.572   5.772   7.399 -2.4981  0.2789 -0.3209
  910MOL0     H20108   5.667   5.557   7.778  1.0801  1.3562  3.3611
  910MOL0     H20109   5.695   5.367   7.916  1.8773  0.8837  0.3234
  910MOL0     H20110   5.700   5.228   8.079  0.6513 -1.6145 -1.6962
  910MOL0     H20111   5.607   5.149   7.953 -1.1571  1.9862 -0.6028
  910MOL0     H20112   5.482   5.009   8.128 -0.9867 -0.1204  2.8283
  910MOL0     H20113   5.655   4.973   8.115 -1.8833 -2.5172 -0.3248
  910MOL0     H20114   5.567   5.007   8.359  1.2916 -1.3583 -2.5995
  910MOL0     H20115   5.524   5.173   8.320  0.2930  0.0328  0.5180
  910MOL0     H20116   5.803   5.049   8.308 -0.2048 -0.2577 -0.3441
  910MOL0     H20117   5.782   5.210   8.286  1.0787 -1.1821  0.5030
  910MOL0     H20118   5.774   5.265   8.680  0.0182  1.5116 -1.6085
  910MOL0     H20119   5.324   5.431   8.109 -1.1305  2.7249  1.4952
  910MOL0     H20120   5.273   5.623   7.957 -0.1731  1.3994 -3.2172
  911MOL0     O20121   9.775   6.798   5.586  0.4148  0.4205  0.3837
  911MOL0     C20122   9.828   6.850   5.492  0.6075  1.2716 -0.6525
  911MOL0     O20123   9.777   6.844   5.361 -0.1328  0.7191  0.2352
  911MOL0     C20124   9.649   6.804   5.329 -1.2837 -0.0932 -1.1791
  911MOL0     C20125   9.621   6.787   5.189 -0.5776  0.8981  0.0800
  911MOL0     C20126   9.502   6.725   5.145  0.3692 -0.2876 -0.6771
  911MOL0     C20127   9.406   6.680   5.243 -0.9812  0.0446  0.7846
  911MOL0     O20128   9.296   6.616   5.189  0.0424 -0.3105  0.5414
  911MOL0     C20129   9.221   6.530   5.278 -0.0538 -0.7126 -0.8556
  911MOL0     C20130   9.094   6.600   5.337 -0.4617 -0.2648 -0.1710
  911MOL0     C20131   8.994   6.642   5.233 -0.5042  0.0438 -0.2748
  911MOL0     C20132   8.894   6.744   5.286 -0.2931 -0.3754 -0.2377
  911MOL0     C20133   8.802   6.774   5.167 -0.2967 -0.1230 -0.0091
  911MOL0     C20134   8.686   6.860   5.225 -0.0795  0.5808  0.9956
  911MOL0     C20135   8.572   6.867   5.129 -0.2211  0.4543  1.1752
  911MOL0     C20136   8.479   6.965   5.187  0.5728 -0.1804  0.1592
  911MOL0     N20137   8.349   6.992   5.110  0.0055 -0.4900 -0.5309
  911MOL0     C20138   8.247   7.034   5.183  0.0503  0.3409 -0.1074
  911MOL0     C20139   8.138   7.051   5.101 -0.8952  0.4492  0.0768
  911MOL0     C20140   7.996   7.088   5.128  0.1397 -0.3260 -0.0932
  911MOL0     C20141   7.893   7.007   5.037  0.8645 -0.0300  1.3031
  911MOL0     C20142   7.744   7.036   5.058  0.3880  0.1875  0.9731
  911MOL0     C20143   7.691   7.183   5.058 -0.7228 -0.2500 -0.7987
  911MOL0     O20144   7.688   7.259   4.935 -0.0921 -0.4895  1.0104
  911MOL0     C20145   7.569   7.280   4.874  0.0194  0.2777  0.1935
  911MOL0     C20146   7.458   7.199   4.892  0.1455 -0.5503 -0.6093
  911MOL0     C20147   7.343   7.222   4.816  0.0940 -0.4076  0.3217
  911MOL0     C20148   7.336   7.327   4.718  0.2901 -0.1964 -0.9139
  911MOL0     C20149   7.206   7.360   4.658  1.0601 -0.0709  0.7554
  911MOL0     O20150   7.111   7.265   4.655 -0.4023  0.2769  0.8129
  911MOL0     C20151   6.982   7.309   4.637  1.0681 -0.2884 -0.7664
  911MOL0     C20152   6.911   7.362   4.745  0.2706 -0.3579 -0.1686
  911MOL0     C20153   6.772   7.381   4.742  0.0252 -0.2301  0.0945
  911MOL0     C20154   6.701   7.357   4.624 -0.1735  0.6771 -0.9690
  911MOL0     O20155   6.564   7.383   4.632 -0.3947  0.7005 -0.1811
  911MOL0     C20156   6.493   7.277   4.567 -0.4713 -0.5175 -0.3148
  911MOL0     C20157   6.349   7.322   4.575 -0.5187  0.1182 -0.1565
  911MOL0     C20158   6.260   7.214   4.538  0.7394  1.9011  0.1021
  911MOL0     C20159   6.110   7.248   4.538  0.7082  0.2873  0.0683
  911MOL0     C20160   6.022   7.134   4.494  0.2284  0.5724 -0.5694
  911MOL0     C20161   5.871   7.165   4.493 -0.0007  0.2097 -0.3566
  911MOL0     C20162   5.823   7.201   4.627  0.7381 -0.0297  0.2125
  911MOL0     C20163   5.821   7.089   4.734  0.0627  0.6240 -0.7947
  911MOL0    Cl20164   5.665   7.090   4.837  0.1736 -0.3232  0.3576
  911MOL0     C20165   6.772   7.309   4.507  0.7520 -0.6772  0.1721
  911MOL0     C20166   6.908   7.290   4.515  0.0390 -0.5817  0.8953
  911MOL0     O20167   7.183   7.480   4.628 -1.0527  0.9596 -0.3603
  911MOL0     C20168   7.450   7.416   4.713 -0.1752 -0.7134  1.1490
  911MOL0     C20169   7.565   7.386   4.782 -0.1705 -0.6951  0.4760
  911MOL0     N20170   8.188   7.023   4.972 -0.4831 -1.1822 -0.1924
  911MOL0     N20171   8.309   6.985   4.978  0.1465  0.6611 -1.0643
  911MOL0     C20172   9.432   6.708   5.373 -0.9674  0.1915 -0.7939
  911MOL0     C20173   9.549   6.771   5.409 -0.6991  0.3183  0.2162
  911MOL0     C20174   9.955   6.924   5.505  0.5294  1.0517 -0.9954
  911MOL0     C20175  10.044   6.942   5.400  0.5120 -0.2801  0.6299
  911MOL0     C20176  10.157   7.007   5.409 -0.2134  0.4323 -0.7351
  911MOL0     C20177  10.198   7.059   5.537 -0.4582  0.3716 -0.0141
  911MOL0     O20178  10.315   7.121   5.529 -0.8305  0.6982 -0.0005
  911MOL0     C20179  10.352   7.202   5.647  0.1594  0.8848 -0.6588
  911MOL0     C20180  10.489   7.272   5.638 -0.7633  0.2550  1.0188
  911MOL0     C20181  10.513   7.364   5.751 -0.5415  0.2147 -0.6331
  911MOL0     C20182  10.455   7.307   5.892  0.1754  0.7085 -0.2566
  911MOL0     C20183  10.494   7.414   5.992 -0.5865 -1.2572  0.1236
  911MOL0     C20184  10.504   7.519   6.068 -0.6022  0.0147 -0.3958
  911MOL0     C20185  10.106   7.052   5.641 -0.2334 -0.4584 -0.2670
  911MOL0     C20186   9.997   6.968   5.633 -0.4879  0.1836  0.5390
  911MOL0     H20187   9.691   6.816   5.111  1.8023 -0.7130  1.5112
  911MOL0     H20188   9.484   6.716   5.038 -1.0077 -2.4656 -0.3156
  911MOL0     H20189   9.289   6.491   5.354 -1.4650  0.6974  1.2573
  911MOL0     H20190   9.179   6.450   5.216  0.0513 -1.8423  0.4780
  911MOL0     H20191   9.135   6.688   5.388  3.8074 -0.7948 -2.1794
  911MOL0     H20192   9.060   6.536   5.419  3.0836  0.3959  2.0548
  911MOL0     H20193   8.941   6.553   5.199 -0.0802  0.1115 -1.1427
  911MOL0     H20194   9.052   6.675   5.146  1.3403 -2.0074  0.1149
  911MOL0     H20195   8.833   6.705   5.368  0.0872  0.1353  0.3016
  911MOL0     H20196   8.959   6.826   5.318 -0.7789 -0.9826  2.5903
  911MOL0     H20197   8.752   6.682   5.138  2.1820 -2.3359  2.1201
  911MOL0     H20198   8.867   6.825   5.095  1.8184  1.1255  2.5731
  911MOL0     H20199   8.710   6.960   5.262 -1.1477  1.0550  0.4423
  911MOL0     H20200   8.639   6.804   5.307 -2.4535 -0.1501 -0.7487
  911MOL0     H20201   8.588   6.896   5.025 -0.7141  1.0069  1.2469
  911MOL0     H20202   8.539   6.764   5.112 -0.1034  0.7200 -0.9347
  911MOL0     H20203   8.537   7.056   5.204 -0.3269  0.1946  1.3263
  911MOL0     H20204   8.442   6.925   5.282  0.1472 -1.9001 -0.6901
  911MOL0     H20205   8.250   7.052   5.290 -2.4646  0.2491  0.0351
  911MOL0     H20206   7.982   7.195   5.106  1.5825  0.4113  2.2438
  911MOL0     H20207   7.973   7.083   5.234 -0.3298 -0.3130 -0.1912
  911MOL0     H20208   7.920   6.902   5.040  0.2235 -0.3736 -1.8948
  911MOL0     H20209   7.914   7.028   4.932 -0.0327 -0.6391  0.9962
  911MOL0     H20210   7.687   7.003   4.970  0.5850  3.3376 -0.4873
  911MOL0     H20211   7.701   6.988   5.146 -1.8119  2.1699  1.0774
  911MOL0     H20212   7.764   7.244   5.112  2.7909 -3.9606 -0.7865
  911MOL0     H20213   7.597   7.172   5.114 -1.4310 -0.2541 -1.9564
  911MOL0     H20214   7.453   7.117   4.963 -1.4799 -1.1626 -1.3625
  911MOL0     H20215   7.258   7.157   4.832 -1.1168 -0.2141 -4.0719
  911MOL0     H20216   6.949   7.383   4.844 -2.3147  1.4253  0.5244
  911MOL0     H20217   6.714   7.425   4.823  4.4216  3.9462  1.3962
  911MOL0     H20218   6.509   7.175   4.603  0.4651 -0.5910 -0.8962
  911MOL0     H20219   6.527   7.278   4.463  0.8298  2.5053  0.0397
  911MOL0     H20220   6.307   7.400   4.511 -1.5914 -2.5504 -2.9126
  911MOL0     H20221   6.323   7.356   4.676 -1.0540 -2.5516  0.6866
  911MOL0     H20222   6.274   7.124   4.599 -0.0181  2.5084  1.2041
  911MOL0     H20223   6.293   7.169   4.444 -0.3030 -1.3731  1.1504
  911MOL0     H20224   6.087   7.266   4.644 -3.3289  1.6608 -0.8618
  911MOL0     H20225   6.084   7.334   4.475  1.0998  1.0081  0.8709
  911MOL0     H20226   6.037   7.054   4.567  0.7043  2.0939  1.0874
  911MOL0     H20227   6.054   7.093   4.398  0.6905  0.4664 -0.3738
  911MOL0     H20228   5.812   7.078   4.462 -0.4252  0.0782  0.7667
  911MOL0     H20229   5.850   7.238   4.414  0.1491 -2.3623 -2.9548
  911MOL0     H20230   5.865   7.294   4.666 -0.2856 -0.2148  1.8482
  911MOL0     H20231   5.716   7.219   4.616  0.1634 -1.1849  3.0364
  911MOL0     H20232   5.902   7.093   4.808  0.4402 -1.9917 -0.9724
  911MOL0     H20233   5.810   6.991   4.687  1.0022  0.2334 -0.2160
  911MOL0     H20234   6.729   7.290   4.409  1.5642 -1.2711 -0.0718
  911MOL0     H20235   6.963   7.229   4.444  0.0231 -2.1589  2.1819
  911MOL0     H20236   7.439   7.502   4.648 -2.8698 -2.6391 -1.2410
  911MOL0     H20237   7.651   7.450   4.769 -0.2154 -0.6157  0.5668
  911MOL0     H20238   9.359   6.673   5.445 -0.3335  0.6138  0.0702
  911MOL0     H20239   9.549   6.783   5.517 -2.6232  0.0301  0.2756
  911MOL0     H20240  10.029   6.918   5.295  1.7216  1.7885 -0.0668
  911MOL0     H20241  10.214   7.012   5.317 -2.5713  0.8406 -2.2647
  911MOL0     H20242  10.356   7.127   5.726 -1.8951  0.4745 -0.8890
  911MOL0     H20243  10.276   7.275   5.676  0.0866  0.1228  1.1882
  911MOL0     H20244  10.568   7.199   5.620 -2.4901 -1.0807 -2.0411
  911MOL0     H20245  10.484   7.337   5.550  2.4288  1.9287  1.9294
  911MOL0     H20246  10.476   7.465   5.735  1.7633  0.8897 -2.1029
  911MOL0     H20247  10.620   7.379   5.764 -0.5813  0.5453 -0.6862
  911MOL0     H20248  10.349   7.280   5.888  0.4773 -0.7970  0.9702
  911MOL0     H20249  10.506   7.213   5.916 -2.6305 -1.1514 -1.0571
  911MOL0     H20250  10.525   7.605   6.127  3.8217  0.5245 -2.3593
  911MOL0     H20251  10.138   7.098   5.735  0.6042 -1.2274 -0.1673
  911MOL0     H20252   9.940   6.952   5.724 -2.8175  3.6009 -0.1334
  912MOL0     O20253   1.851   1.402   5.477 -0.7480  0.8176  0.2730
  912MOL0     C20254   1.954   1.456   5.508 -0.3113  0.2973  0.3821
  912MOL0     O20255   1.969   1.562   5.581  0.5688  0.7438  0.2003
  912MOL0     C20256   1.858   1.625   5.641 -1.0881  0.2656  0.3542
  912MOL0     C20257   1.877   1.689   5.764  0.1377 -0.0423  0.6972
  912MOL0     C20258   1.774   1.759   5.839 -0.7320  0.5792  0.4626
  912MOL0     C20259   1.652   1.765   5.779 -0.2308  0.4659  0.1945
  912MOL0     O20260   1.564   1.832   5.854 -0.1724 -1.2142 -0.3230
  912MOL0     C20261   1.425   1.838   5.825  0.6224  0.3934 -0.5178
  912MOL0     C20262   1.353   1.875   5.954 -0.5839 -0.5844  1.3174
  912MOL0     C20263   1.328   1.757   6.047 -0.0139 -0.5715  0.5764
  912MOL0     C20264   1.252   1.791   6.181  0.5836  0.4855 -0.4342
  912MOL0     C20265   1.229   1.671   6.272  0.1004  0.2227  0.2105
  912MOL0     C20266   1.152   1.721   6.396 -1.0946 -0.0240  0.2458
  912MOL0     C20267   1.071   1.614   6.453  0.2647  0.8519 -0.3543
  912MOL0     C20268   1.156   1.515   6.546  0.6037 -0.4614  0.3950
  912MOL0     N20269   1.241   1.410   6.475 -0.0623 -0.0551  0.7095
  912MOL0     C20270   1.184   1.303   6.410  0.0175  0.0725  0.5477
  912MOL0     C20271   1.288   1.244   6.355  0.9121 -0.2680 -0.1910
  912MOL0     C20272   1.285   1.110   6.279  1.0191 -0.2834 -0.0066
  912MOL0     C20273   1.292   1.011   6.395 -0.3688  0.3632 -0.1470
  912MOL0     C20274   1.420   0.992   6.476 -0.3040 -0.6463  0.0483
  912MOL0     C20275   1.418   0.928   6.619  0.2413 -0.4351  0.4340
  912MOL0     O20276   1.284   0.936   6.680 -0.1637 -0.2014  0.6000
  912MOL0     C20277   1.239   1.054   6.740  1.0224 -0.6897 -0.4894
  912MOL0     C20278   1.315   1.173   6.742 -0.0520  0.1092 -0.1391
  912MOL0     C20279   1.267   1.294   6.799 -0.2611  0.7821  0.4633
  912MOL0     C20280   1.133   1.299   6.855  0.2411  0.3083  0.9907
  912MOL0     C20281   1.079   1.417   6.919  0.5335 -0.8338  0.4536
  912MOL0     O20282   0.975   1.401   7.007 -0.0643  0.1907 -0.2740
  912MOL0     C20283   0.900   1.509   7.053 -0.6443  0.3444  0.5314
  912MOL0     C20284   0.863   1.513   7.187  0.0048 -0.1996 -0.2408
  912MOL0     C20285   0.799   1.625   7.243 -0.3373 -0.1939 -0.5259
  912MOL0     C20286   0.785   1.746   7.171 -0.3253  0.6120 -0.4373
  912MOL0     O20287   0.729   1.852   7.237  0.4264 -0.4017 -0.0035
  912MOL0     C20288   0.731   1.982   7.169 -0.2360  0.3483 -1.1952
  912MOL0     C20289   0.627   2.076   7.233 -0.1382  1.0813  0.0503
  912MOL0     C20290   0.480   2.029   7.193 -0.9813 -0.3206 -0.6309
  912MOL0     C20291   0.369   2.110   7.248 -0.4175 -0.0872 -0.0375
  912MOL0     C20292   0.279   2.164   7.138  0.0027 -0.3035 -0.2210
  912MOL0     C20293   0.342   2.259   7.037  1.1697  1.1489  0.1266
  912MOL0     C20294   0.217   2.316   6.957  0.4155  0.0839 -0.7208
  912MOL0     C20295   0.267   2.429   6.867  0.6125 -0.0706 -0.8465
  912MOL0    Cl20296   0.366   2.348   6.733 -0.0136  0.1454 -0.1825
  912MOL0     C20297   0.814   1.740   7.028  0.6497 -0.0521  0.3311
  912MOL0     C20298   0.868   1.623   6.966  0.7239  0.4013  0.4269
  912MOL0     O20299   1.100   1.516   6.854  0.0007 -0.3273 -0.1663
  912MOL0     C20300   1.047   1.185   6.851  0.3245  0.3023 -0.0355
  912MOL0     C20301   1.108   1.063   6.796  0.3943 -0.0772  0.0721
  912MOL0     N20302   1.400   1.313   6.393 -0.5443 -0.3696 -0.5585
  912MOL0     N20303   1.371   1.424   6.457  0.5429 -0.5983 -0.8171
  912MOL0     C20304   1.632   1.715   5.649 -0.7687 -0.7923  0.2845
  912MOL0     C20305   1.730   1.639   5.586 -0.5069 -0.7577  0.0568
  912MOL0     C20306   2.075   1.383   5.454 -0.8857  0.0025 -0.2586
  912MOL0     C20307   2.205   1.424   5.483 -0.5631  0.2380 -0.5911
  912MOL0     C20308   2.319   1.348   5.451 -0.1590  0.0411 -0.0783
  912MOL0     C20309   2.297   1.244   5.354  0.5421 -0.8577  0.5445
  912MOL0     O20310   2.402   1.170   5.310  0.5960 -0.3056  0.4126
  912MOL0     C20311   2.536   1.227   5.322  0.1656 -0.4959 -0.0383
  912MOL0     C20312   2.629   1.204   5.198 -0.3198  0.6662 -0.6272
  912MOL0     C20313   2.646   1.051   5.192  0.3944  0.3015  0.7255
  912MOL0     C20314   2.747   1.008   5.078  0.6900 -0.2795  0.1867
  912MOL0     C20315   2.710   1.053   4.943  1.3042  0.2459  0.3491
  912MOL0     C20316   2.675   1.085   4.829 -0.3808  0.3978  0.8762
  912MOL0     C20317   2.173   1.202   5.312  0.1380 -0.5453  0.6297
  912MOL0     C20318   2.063   1.279   5.358  0.5408  0.2950  0.7896
  912MOL0     H20319   1.975   1.694   5.811  1.4987 -1.3989 -1.7577
  912MOL0     H20320   1.809   1.805   5.931 -0.5338  0.9360  0.2120
  912MOL0     H20321   1.401   1.741   5.781  1.9870  0.7799 -2.2508
  912MOL0     H20322   1.406   1.917   5.751  1.4892  1.3650  0.2821
  912MOL0     H20323   1.251   1.900   5.923 -0.1317 -0.7080 -0.3174
  912MOL0     H20324   1.412   1.956   5.998 -3.4086  2.7941 -0.5923
  912MOL0     H20325   1.430   1.725   6.072  0.5175 -2.6016 -3.3190
  912MOL0     H20326   1.272   1.693   5.979 -0.3638  0.2542  0.0694
  912MOL0     H20327   1.313   1.862   6.239 -1.5287  1.3308  0.8532
  912MOL0     H20328   1.159   1.847   6.165  0.2004  0.2071  0.7269
  912MOL0     H20329   1.320   1.618   6.302 -0.4542 -0.2725  1.0654
  912MOL0     H20330   1.170   1.605   6.207  1.2688  0.7228 -1.4154
  912MOL0     H20331   1.077   1.798   6.378 -1.5089  0.1453  2.4679
  912MOL0     H20332   1.218   1.766   6.470 -0.7403  1.6409 -1.0130
  912MOL0     H20333   0.990   1.661   6.509 -0.8893 -0.4681 -0.8550
  912MOL0     H20334   1.028   1.556   6.371  2.7543 -2.3816  0.4009
  912MOL0     H20335   1.081   1.460   6.604  1.0933 -2.5995 -0.8650
  912MOL0     H20336   1.220   1.573   6.612 -0.7404  3.7611 -1.6693
  912MOL0     H20337   1.082   1.265   6.404 -0.9882  2.5493  0.6836
  912MOL0     H20338   1.368   1.109   6.206  0.1295  1.7359 -1.1456
  912MOL0     H20339   1.191   1.096   6.225  0.6978 -4.8191  1.3180
  912MOL0     H20340   1.277   0.906   6.369 -0.2059  0.1187  0.7142
  912MOL0     H20341   1.220   1.039   6.473  0.7848  2.9155  0.1173
  912MOL0     H20342   1.488   0.936   6.411 -0.5907  0.5578 -1.3402
  912MOL0     H20343   1.468   1.089   6.493 -2.9223  0.4070  2.3681
  912MOL0     H20344   1.492   0.978   6.683  2.5879  1.8496 -3.6891
  912MOL0     H20345   1.451   0.824   6.608  0.0772 -0.6642  1.8458
  912MOL0     H20346   1.413   1.188   6.698  1.0597  1.1985  2.4843
  912MOL0     H20347   1.316   1.390   6.781  0.3844  0.3556 -0.1305
  912MOL0     H20348   0.866   1.425   7.250  0.8497 -0.9024 -1.2349
  912MOL0     H20349   0.755   1.626   7.342  0.1156  2.5502 -0.2732
  912MOL0     H20350   0.707   1.981   7.063  1.3589 -2.7483 -1.6305
  912MOL0     H20351   0.834   2.017   7.184  0.1196  0.0074 -2.7052
  912MOL0     H20352   0.646   2.182   7.210  0.2409  0.5916 -2.1282
  912MOL0     H20353   0.633   2.060   7.341 -2.2520 -2.2619 -0.2046
  912MOL0     H20354   0.475   1.922   7.214  1.1068 -0.8464 -2.4560
  912MOL0     H20355   0.470   2.048   7.086  2.7258  0.4930 -0.9622
  912MOL0     H20356   0.311   2.039   7.307  1.8130 -0.6819  1.5393
  912MOL0     H20357   0.417   2.185   7.311 -1.7851  0.3148  0.5543
  912MOL0     H20358   0.196   2.211   7.192 -0.5103 -1.8248  0.3729
  912MOL0     H20359   0.233   2.085   7.079  1.5022 -0.2068 -1.6027
  912MOL0     H20360   0.408   2.207   6.967  3.1643  1.8400  1.4308
  912MOL0     H20361   0.399   2.339   7.085  1.2189 -0.6243  3.2373
  912MOL0     H20362   0.171   2.240   6.893  0.5636 -2.5447  2.0459
  912MOL0     H20363   0.146   2.362   7.027 -3.0080 -1.0525 -3.1906
  912MOL0     H20364   0.335   2.498   6.917  0.4954 -0.5691  0.0135
  912MOL0     H20365   0.179   2.483   6.830 -0.2269  0.0781  1.2259
  912MOL0     H20366   0.801   1.832   6.972  2.0052  0.5067  0.8838
  912MOL0     H20367   0.879   1.615   6.858 -0.3108  1.4231  0.2328
  912MOL0     H20368   0.949   1.186   6.897  0.5853  1.3133  0.5485
  912MOL0     H20369   1.046   0.974   6.797  0.4766 -0.1764 -1.7547
  912MOL0     H20370   1.539   1.734   5.597 -1.5289 -3.6377  0.4634
  912MOL0     H20371   1.710   1.593   5.490  0.1281 -2.5965  0.7760
  912MOL0     H20372   2.230   1.515   5.537  0.8136 -1.2924  1.5278
  912MOL0     H20373   2.413   1.385   5.488 -2.0804  5.1158  0.4971
  912MOL0     H20374   2.583   1.186   5.412 -1.8324 -0.3707  1.1187
  912MOL0     H20375   2.525   1.335   5.333  0.5489 -0.3615 -0.8876
  912MOL0     H20376   2.589   1.238   5.102  3.1736  1.8506 -1.8193
  912MOL0     H20377   2.734   1.236   5.204  0.2171 -1.0648 -0.0133
  912MOL0     H20378   2.556   0.999   5.158  0.3632  1.8439 -1.8553
  912MOL0     H20379   2.670   1.009   5.290 -1.3053  0.7521  1.3772
  912MOL0     H20380   2.847   1.043   5.108  0.4947  0.0300  0.4854
  912MOL0     H20381   2.764   0.901   5.065  0.6340 -0.3923  0.9930
  912MOL0     H20382   2.630   1.096   4.733  1.3023  2.3602  0.2210
  912MOL0     H20383   2.166   1.117   5.245 -3.7208 -0.5797  0.8220
  912MOL0     H20384   1.972   1.238   5.315  0.4993  0.3172  0.8550
  913MOL0     O20385   1.913  10.388   2.938  0.4779  0.1434  0.2206
  913MOL0     C20386   1.998  10.404   3.032  0.8275 -0.7212  1.5617
  913MOL0     O20387   1.968  10.419   3.164  0.0496  0.2022 -0.2079
  913MOL0     C20388   1.838  10.408   3.205 -0.3379  1.1776 -0.2679
  913MOL0     C20389   1.777  10.510   3.270 -0.0610 -0.2676  0.1150
  913MOL0     C20390   1.654  10.496   3.327  0.1997  0.2470  1.2829
  913MOL0     C20391   1.586  10.371   3.324 -0.9013 -0.7406  0.2317
  913MOL0     O20392   1.458  10.383   3.371  0.5551  0.6755  0.0248
  913MOL0     C20393   1.367  10.267   3.358 -0.8913  0.2506 -0.9081
  913MOL0     C20394   1.319  10.250   3.509  0.8300 -0.3623  0.1184
  913MOL0     C20395   1.218  10.353   3.555  0.0365  0.6854 -0.2711
  913MOL0     C20396   1.167  10.342   3.701  0.8625 -1.2619  0.0364
  913MOL0     C20397   1.260  10.346   3.808  0.2564  0.9317 -0.5663
  913MOL0     C20398   1.354  10.462   3.820  0.7253  0.1353 -0.8657
  913MOL0     C20399   1.480  10.426   3.902  0.5279 -0.4772  0.5808
  913MOL0     C20400   1.588  10.539   3.892 -0.6475 -0.2723  0.1360
  913MOL0     N20401   1.669  10.530   3.768 -0.5101  0.4538  0.4567
  913MOL0     C20402   1.761  10.430   3.737  0.3024 -0.0094  0.5021
  913MOL0     C20403   1.840  10.480   3.645 -0.0752 -0.7214  0.6260
  913MOL0     C20404   1.958  10.427   3.568  0.9589  0.5557  0.4956
  913MOL0     C20405   2.076  10.407   3.664 -0.6219  0.2440 -0.3202
  913MOL0     C20406   2.209  10.393   3.592  0.0445 -0.8171  0.4990
  913MOL0     C20407   2.316  10.379   3.694 -0.2670  0.8076  0.1801
  913MOL0     O20408   2.292  10.250   3.761 -0.0853  0.1744  0.1739
  913MOL0     C20409   2.403  10.166   3.795  0.2050  0.3720  0.3949
  913MOL0     C20410   2.526  10.222   3.813  0.0105  0.6945  0.4021
  913MOL0     C20411   2.632  10.140   3.858 -0.1659 -0.6919  0.7668
  913MOL0     C20412   2.617  10.006   3.887  0.3816 -0.3995  0.0469
  913MOL0     C20413   2.723   9.934   3.959 -0.1544  0.1952  0.3531
  913MOL0     O20414   2.708   9.797   3.961 -0.1450 -0.1225 -0.1441
  913MOL0     C20415   2.815   9.709   3.975  0.3263 -0.4281  0.1609
  913MOL0     C20416   2.795   9.584   4.022 -0.3375 -0.7840 -0.8315
  913MOL0     C20417   2.905   9.487   4.022  0.0364 -0.2048 -0.2033
  913MOL0     C20418   3.038   9.520   3.979  0.7026  0.5894  0.5081
  913MOL0     O20419   3.141   9.435   4.001  0.0011 -0.7542  0.5267
  913MOL0     C20420   3.138   9.300   4.061 -0.3865 -0.2386  1.0827
  913MOL0     C20421   3.120   9.194   3.955 -0.2525  0.8357 -0.2564
  913MOL0     C20422   3.130   9.046   4.018 -0.1558 -0.0709 -0.4349
  913MOL0     C20423   3.104   8.942   3.912 -0.7827 -0.2836  0.0911
  913MOL0     C20424   3.129   8.805   3.959  0.3545 -0.0575  0.2949
  913MOL0     C20425   3.024   8.752   4.070 -1.3150 -0.2219  0.8314
  913MOL0     C20426   3.070   8.619   4.127 -0.1311  0.7637  0.2631
  913MOL0     C20427   3.171   8.642   4.241 -0.3295 -0.2548 -0.4517
  913MOL0    Cl20428   3.109   8.730   4.385 -0.4919 -0.2736 -0.0905
  913MOL0     C20429   3.055   9.650   3.936 -0.7992  0.3992 -0.4255
  913MOL0     C20430   2.949   9.746   3.935  0.4165  0.0144  0.2286
  913MOL0     O20431   2.828   9.995   3.975  0.4462 -0.4553  0.4605
  913MOL0     C20432   2.486   9.957   3.869 -0.9610  0.4751 -0.7341
  913MOL0     C20433   2.379  10.032   3.819 -0.2778  0.5098 -0.7266
  913MOL0     N20434   1.788  10.607   3.618 -0.5292  0.3353  0.7455
  913MOL0     N20435   1.689  10.628   3.680  0.6462 -0.7414 -0.2268
  913MOL0     C20436   1.644  10.262   3.259 -0.4253 -0.0440  0.7617
  913MOL0     C20437   1.774  10.279   3.215  0.3822  0.7137 -0.1984
  913MOL0     C20438   2.139  10.407   2.987 -0.7673  0.6522 -0.1836
  913MOL0     C20439   2.170  10.406   2.848  0.0887 -0.3242 -0.2831
  913MOL0     C20440   2.308  10.424   2.809  1.6686 -1.2236  0.6498
  913MOL0     C20441   2.411  10.441   2.905  1.0839 -0.0418  0.1857
  913MOL0     O20442   2.535  10.470   2.855  0.6007  0.6140  0.0674
  913MOL0     C20443   2.645  10.503   2.940  0.0389  0.4747  0.9741
  913MOL0     C20444   2.767  10.538   2.858 -0.4710  0.8939 -1.2045
  913MOL0     C20445   2.844  10.411   2.801 -0.8974  0.7820 -0.7484
  913MOL0     C20446   2.929  10.340   2.912 -0.3075  0.1651  0.5368
  913MOL0     C20447   2.957  10.199   2.869  0.9062 -1.7373 -0.6876
  913MOL0     C20448   2.991  10.091   2.838  0.2326  0.3605 -0.0977
  913MOL0     C20449   2.375  10.433   3.040 -0.5119 -0.3638 -1.4954
  913MOL0     C20450   2.243  10.404   3.079 -0.6616  0.3912 -0.4765
  913MOL0     H20451   1.829  10.605   3.282 -0.4507  0.3137 -2.2612
  913MOL0     H20452   1.599  10.568   3.387 -3.3237 -0.9553 -0.2552
  913MOL0     H20453   1.416  10.174   3.329 -2.0723 -0.4258 -0.8191
  913MOL0     H20454   1.288  10.275   3.283 -1.8955 -2.6676 -0.3058
  913MOL0     H20455   1.412  10.256   3.566  0.1425  0.7706  1.1908
  913MOL0     H20456   1.271  10.152   3.520 -1.8151  0.7844 -0.4502
  913MOL0     H20457   1.127  10.334   3.497  0.8207  0.2752 -1.3935
  913MOL0     H20458   1.256  10.453   3.532  1.6438 -0.0402 -0.8633
  913MOL0     H20459   1.101  10.429   3.712  1.7798 -0.7793  2.3469
  913MOL0     H20460   1.109  10.249   3.709 -2.7634  0.8795  1.4160
  913MOL0     H20461   1.318  10.255   3.794  0.1152  1.1662 -3.0633
  913MOL0     H20462   1.204  10.335   3.901  2.4598 -1.1708  0.6437
  913MOL0     H20463   1.310  10.546   3.874  2.9142  0.9506 -0.2294
  913MOL0     H20464   1.377  10.496   3.718 -0.8026 -0.2973 -1.3721
  913MOL0     H20465   1.442  10.420   4.004  3.2630 -0.4512  1.7016
  913MOL0     H20466   1.530  10.336   3.865  2.4245  0.9658 -0.5500
  913MOL0     H20467   1.658  10.530   3.976  0.9964  3.0607 -0.7365
  913MOL0     H20468   1.540  10.637   3.902 -2.2026 -0.9368 -0.4975
  913MOL0     H20469   1.778  10.331   3.776 -0.1525 -0.5251 -0.5517
  913MOL0     H20470   1.984  10.480   3.477 -2.6023 -3.3604 -3.2534
  913MOL0     H20471   1.932  10.325   3.537  4.2219 -1.4315  3.5324
  913MOL0     H20472   2.052  10.323   3.729  1.4161 -0.5226 -0.4840
  913MOL0     H20473   2.083  10.494   3.730 -1.8725  0.7633 -0.8517
  913MOL0     H20474   2.206  10.301   3.533 -0.1274 -0.4337 -0.0925
  913MOL0     H20475   2.224  10.484   3.534 -0.3722  0.0642  1.7407
  913MOL0     H20476   2.314  10.468   3.757 -2.2840  1.4248 -0.6829
  913MOL0     H20477   2.411  10.381   3.639 -2.0249  1.0224 -3.1374
  913MOL0     H20478   2.538  10.330   3.822 -1.2138  0.8309  0.6782
  913MOL0     H20479   2.722  10.190   3.893  0.9353 -3.2599  1.8429
  913MOL0     H20480   2.694   9.549   4.038 -0.6431 -1.6194 -3.9231
  913MOL0     H20481   2.888   9.385   4.054  0.2256 -0.4350 -0.8318
  913MOL0     H20482   3.064   9.285   4.140  0.5365  1.9367  2.4401
  913MOL0     H20483   3.232   9.286   4.115  0.3273 -0.3975 -0.1630
  913MOL0     H20484   3.193   9.213   3.876  0.1141  1.4674  0.2179
  913MOL0     H20485   3.018   9.209   3.919 -0.1791  3.5091  0.4068
  913MOL0     H20486   3.059   9.045   4.102 -1.5687 -1.3869 -1.6044
  913MOL0     H20487   3.227   9.028   4.066 -2.1434 -2.1001  3.3292
  913MOL0     H20488   3.004   8.944   3.867  0.0701  0.3950 -1.8637
  913MOL0     H20489   3.168   8.970   3.828 -2.1168  2.0979 -0.2285
  913MOL0     H20490   3.231   8.801   4.000  0.7075 -2.1524 -0.6376
  913MOL0     H20491   3.126   8.738   3.872 -0.8554  3.0670 -2.2556
  913MOL0     H20492   2.926   8.735   4.027 -0.3289  0.4857 -1.8778
  913MOL0     H20493   3.017   8.825   4.152  3.4909 -0.5729  1.8776
  913MOL0     H20494   2.996   8.559   4.180  3.0697 -2.4322  1.6014
  913MOL0     H20495   3.109   8.556   4.046 -0.1938  0.5862  0.3709
  913MOL0     H20496   3.264   8.687   4.205 -0.7022  2.0306  1.2670
  913MOL0     H20497   3.194   8.542   4.278 -1.5299  0.7021  3.1985
  913MOL0     H20498   3.158   9.673   3.911  0.1518 -3.2685 -0.4670
  913MOL0     H20499   2.982   9.847   3.912  1.7054 -0.3913  0.2740
  913MOL0     H20500   2.458   9.856   3.897  0.0484 -0.0508 -1.5527
  913MOL0     H20501   2.278   9.991   3.816  0.7465 -2.6901  2.2611
  913MOL0     H20502   1.599  10.166   3.233  0.3222  0.3272 -2.4089
  913MOL0     H20503   1.831  10.196   3.175  0.8318  1.1906 -0.5719
  913MOL0     H20504   2.091  10.409   2.773  1.5654  2.0641 -1.8862
  913MOL0     H20505   2.336  10.453   2.708  3.0255  1.7469  1.7623
  913MOL0     H20506   2.673  10.427   3.014  2.8259  1.3791  0.9690
  913MOL0     H20507   2.618  10.594   2.994 -4.5565  2.1031 -3.3118
  913MOL0     H20508   2.741  10.597   2.770  4.1300  3.2539 -1.3259
  913MOL0     H20509   2.838  10.597   2.917 -0.1471 -0.1293 -0.5320
  913MOL0     H20510   2.907  10.435   2.715  1.1358  1.3337  0.8073
  913MOL0     H20511   2.763  10.345   2.771 -0.4228  0.0006 -0.3392
  913MOL0     H20512   3.022  10.397   2.923 -0.1049 -0.2413  0.9431
  913MOL0     H20513   2.877  10.342   3.008 -0.8478  0.3674  0.2425
  913MOL0     H20514   3.025   9.993   2.812  0.7995  0.8803 -1.4183
  913MOL0     H20515   2.447  10.440   3.120 -1.6635 -3.9303  0.0176
  913MOL0     H20516   2.226  10.416   3.186  1.4274 -0.6521  0.0372
  914MOL0     O20517   7.542   5.182  10.955 -0.6632 -0.5350 -0.1573
  914MOL0     C20518   7.425   5.165  10.920 -0.1183  1.1217 -0.7027
  914MOL0     O20519   7.319   5.231  10.975  0.1523 -1.2541  0.5665
  914MOL0     C20520   7.335   5.353  11.043  0.6751  0.1194 -0.2420
  914MOL0     C20521   7.372   5.469  10.970 -0.7186  0.9210 -0.0683
  914MOL0     C20522   7.389   5.592  11.040 -0.0197 -0.4015  0.0026
  914MOL0     C20523   7.362   5.592  11.181 -0.2274 -0.0290  0.7379
  914MOL0     O20524   7.351   5.706  11.264 -0.9957  0.3785  0.0843
  914MOL0     C20525   7.413   5.828  11.237 -0.0750 -0.4114  0.6848
  914MOL0     C20526   7.345   5.949  11.308 -0.3317 -0.4997  0.1286
  914MOL0     C20527   7.416   5.989  11.444  0.2780 -0.5579 -0.1411
  914MOL0     C20528   7.343   6.101  11.510  1.0222 -0.5385 -0.8319
  914MOL0     C20529   7.437   6.150  11.623 -0.0009 -0.1306  0.0622
  914MOL0     C20530   7.367   6.250  11.720 -0.4127 -0.0725 -0.4123
  914MOL0     C20531   7.294   6.369  11.658  0.4653 -0.4138 -0.9466
  914MOL0     C20532   7.269   6.476  11.762  0.9970 -0.4177  0.2738
  914MOL0     N20533   7.179   6.579  11.700 -0.1484  1.1166  0.0717
  914MOL0     C20534   7.207   6.695  11.633  0.2181  0.1559 -0.2499
  914MOL0     C20535   7.096   6.714  11.564  0.0991 -1.7469  0.0866
  914MOL0     C20536   7.051   6.824  11.475  0.0390  0.8111 -0.7686
  914MOL0     C20537   7.162   6.845  11.372  0.3638 -1.1810 -0.6097
  914MOL0     C20538   7.103   6.955  11.271  0.3717  0.5009 -0.1183
  914MOL0     C20539   7.178   6.952  11.139  0.4612  0.1069 -0.3099
  914MOL0     O20540   7.320   6.949  11.153  0.1548 -1.0374 -0.6977
  914MOL0     C20541   7.399   6.929  11.048 -0.9186  0.3999 -0.6148
  914MOL0     C20542   7.364   6.935  10.910  0.0656 -1.2107 -1.2201
  914MOL0     C20543   7.454   6.905  10.815 -0.2657  0.3480  0.0879
  914MOL0     C20544   7.584   6.865  10.852  0.5031 -0.1677  0.1511
  914MOL0     C20545   7.675   6.821  10.737  1.0988  1.0516  0.4350
  914MOL0     O20546   7.652   6.885  10.621 -0.4428 -0.5013 -0.7164
  914MOL0     C20547   7.727   6.855  10.513 -0.3683  0.4181  0.5377
  914MOL0     C20548   7.667   6.852  10.389 -0.6849 -0.2928 -0.2841
  914MOL0     C20549   7.744   6.831  10.268  0.8281  1.1849  0.2501
  914MOL0     C20550   7.878   6.793  10.277  1.0247  0.4421  0.6346
  914MOL0     O20551   7.947   6.745  10.163  0.4056  0.2185 -0.5864
  914MOL0     C20552   8.092   6.727  10.170 -0.8166 -0.0157  0.0456
  914MOL0     C20553   8.158   6.668  10.047 -0.0879 -0.3380  0.6073
  914MOL0     C20554   8.097   6.533   9.993  0.9903 -0.8398 -0.1751
  914MOL0     C20555   7.995   6.564   9.876 -0.0170 -0.3108 -0.3850
  914MOL0     C20556   7.958   6.430   9.806  1.1504 -0.6151 -0.2286
  914MOL0     C20557   7.838   6.454   9.706  0.9953  0.1798  0.6888
  914MOL0     C20558   7.800   6.328   9.624 -0.3239  0.1327  0.6992
  914MOL0     C20559   7.700   6.370   9.517 -0.2639 -0.3769  0.5601
  914MOL0    Cl20560   7.764   6.486   9.391  0.1047 -0.1696 -0.3509
  914MOL0     C20561   7.932   6.791  10.404  0.1335  0.0746 -0.2176
  914MOL0     C20562   7.859   6.829  10.516 -0.5010 -0.1449  0.2304
  914MOL0     O20563   7.730   6.714  10.754 -0.0022  0.1031 -0.5459
  914MOL0     C20564   7.623   6.874  10.989  0.1273  0.8874 -0.3290
  914MOL0     C20565   7.533   6.908  11.088 -0.1894  0.8106 -0.2446
  914MOL0     N20566   6.999   6.626  11.599  0.5483 -0.4053 -0.1273
  914MOL0     N20567   7.048   6.551  11.683  0.0215  0.3393  0.2879
  914MOL0     C20568   7.324   5.477  11.246 -0.1253  0.0538  0.3001
  914MOL0     C20569   7.309   5.361  11.175  0.1568  1.0283  0.2966
  914MOL0     C20570   7.397   5.064  10.809  0.2490 -0.1180 -0.2880
  914MOL0     C20571   7.278   5.068  10.741  0.3761  0.7670 -0.0797
  914MOL0     C20572   7.260   4.978  10.641 -0.0607 -0.3609 -0.2445
  914MOL0     C20573   7.356   4.877  10.610  0.3919 -0.4492 -0.6037
  914MOL0     O20574   7.352   4.785  10.509 -0.8422 -0.1446  0.4254
  914MOL0     C20575   7.249   4.799  10.403 -0.5339 -0.0771  0.7049
  914MOL0     C20576   7.316   4.830  10.261 -0.3794 -0.9113 -0.9206
  914MOL0     C20577   7.207   4.849  10.158  0.4298 -0.3081 -0.6720
  914MOL0     C20578   7.245   4.822  10.011  0.6318  0.3523  0.6143
  914MOL0     C20579   7.288   4.676   9.992 -0.3152 -0.6863 -0.7473
  914MOL0     C20580   7.320   4.563   9.980 -0.9485 -0.5606  0.8212
  914MOL0     C20581   7.467   4.864  10.693  0.0569 -0.2468  0.1086
  914MOL0     C20582   7.495   4.964  10.785 -0.6259  0.6498  0.3084
  914MOL0     H20583   7.390   5.455  10.864  1.6392  4.0511 -0.2379
  914MOL0     H20584   7.413   5.683  10.986 -0.7082  0.4273  1.0444
  914MOL0     H20585   7.422   5.851  11.131  3.6782 -0.3188  0.8835
  914MOL0     H20586   7.517   5.825  11.269  0.2513  1.8261 -0.0244
  914MOL0     H20587   7.238   5.932  11.324  0.3082 -4.3007  1.3881
  914MOL0     H20588   7.339   6.036  11.242  0.0801  0.0388  0.7822
  914MOL0     H20589   7.522   6.013  11.427  1.2253 -4.7666 -1.2264
  914MOL0     H20590   7.414   5.898  11.504 -2.5376 -2.5843 -3.0139
  914MOL0     H20591   7.322   6.185  11.442  1.0983  0.2507  0.1033
  914MOL0     H20592   7.246   6.060  11.540  0.4456 -2.1382 -4.3507
  914MOL0     H20593   7.520   6.203  11.576 -0.2485 -2.2434 -3.0309
  914MOL0     H20594   7.487   6.067  11.675 -2.0318  0.0490  2.5325
  914MOL0     H20595   7.436   6.292  11.793  0.5940 -1.2243 -0.6647
  914MOL0     H20596   7.286   6.194  11.768 -0.4552 -2.1898 -2.7042
  914MOL0     H20597   7.356   6.397  11.572  1.4736 -0.6694 -0.3218
  914MOL0     H20598   7.202   6.331  11.613 -0.9506  0.7579  0.8548
  914MOL0     H20599   7.357   6.532  11.793  0.5009  1.4571 -1.4742
  914MOL0     H20600   7.218   6.436  11.850 -1.7523  1.6698 -0.2520
  914MOL0     H20601   7.300   6.751  11.638  0.2821 -0.0540  1.1865
  914MOL0     H20602   7.035   6.917  11.532 -0.8261 -0.5066  1.2521
  914MOL0     H20603   6.956   6.798  11.428 -0.0003  0.8845 -0.7302
  914MOL0     H20604   7.179   6.756  11.311 -1.0344 -1.7738 -0.1763
  914MOL0     H20605   7.262   6.875  11.406  0.3185 -2.7501  1.0256
  914MOL0     H20606   6.996   6.945  11.250 -0.1547  2.6610  1.2799
  914MOL0     H20607   7.132   7.053  11.310  1.6510 -1.3381  4.2066
  914MOL0     H20608   7.153   7.047  11.091  1.7201  0.5535 -0.1085
  914MOL0     H20609   7.144   6.867  11.078  0.8239 -1.5450  1.6625
  914MOL0     H20610   7.263   6.944  10.869 -0.6982 -2.7050  0.1965
  914MOL0     H20611   7.431   6.909  10.709  2.7119 -3.4256 -0.9487
  914MOL0     H20612   7.561   6.878  10.387 -0.5965  0.3203  1.4696
  914MOL0     H20613   7.689   6.827  10.175  0.0189 -1.6934  0.7702
  914MOL0     H20614   8.115   6.647  10.242 -1.7435  0.4766  0.9139
  914MOL0     H20615   8.145   6.820  10.195  1.6515 -0.8304 -1.7429
  914MOL0     H20616   8.261   6.662  10.082  0.1016 -1.1031 -0.0401
  914MOL0     H20617   8.158   6.745   9.969 -0.0569 -1.0960 -0.1663
  914MOL0     H20618   8.048   6.487  10.079  1.2359 -2.4321 -0.8445
  914MOL0     H20619   8.170   6.460   9.958  2.9354  2.0866 -2.8342
  914MOL0     H20620   7.911   6.615   9.924  0.3601  0.4674 -0.5384
  914MOL0     H20621   8.052   6.637   9.819  2.3161 -2.3643 -0.8738
  914MOL0     H20622   7.924   6.358   9.882  2.0629 -1.2767 -0.4375
  914MOL0     H20623   8.043   6.405   9.742  1.7357  2.3262 -0.7183
  914MOL0     H20624   7.860   6.542   9.644  1.3199 -1.5702 -1.8383
  914MOL0     H20625   7.750   6.489   9.762  1.9469  2.9462  0.6065
  914MOL0     H20626   7.887   6.289   9.571 -0.6193  0.9443 -0.4104
  914MOL0     H20627   7.772   6.247   9.692  1.6606 -2.2717 -1.1965
  914MOL0     H20628   7.618   6.417   9.574 -2.8147  0.2126 -3.2339
  914MOL0     H20629   7.670   6.280   9.464  1.7983  0.0258 -1.4410
  914MOL0     H20630   8.028   6.747  10.430 -0.4921 -1.4139 -0.3305
  914MOL0     H20631   7.912   6.829  10.611 -2.2158  1.9769  1.2867
  914MOL0     H20632   7.725   6.841  11.008 -0.6800 -0.4029  2.1902
  914MOL0     H20633   7.560   6.912  11.193 -0.4625  1.4382 -0.1934
  914MOL0     H20634   7.297   5.467  11.350  2.0363 -1.0851  0.8185
  914MOL0     H20635   7.273   5.275  11.231 -0.7191  1.7260  0.8182
  914MOL0     H20636   7.200   5.137  10.771 -1.4523 -1.1181 -0.3142
  914MOL0     H20637   7.158   4.994  10.609 -0.3994  2.6357  1.8863
  914MOL0     H20638   7.183   4.885  10.417  0.8786  1.4441 -1.3303
  914MOL0     H20639   7.191   4.707  10.390  0.1218 -0.2584 -1.2052
  914MOL0     H20640   7.376   4.919  10.284 -0.6183 -1.2682  1.3235
  914MOL0     H20641   7.380   4.745  10.237 -0.9579 -1.2222 -1.3743
  914MOL0     H20642   7.165   4.950  10.165  1.9768  0.2798  0.8168
  914MOL0     H20643   7.121   4.786  10.180  0.1968  0.3726  0.4255
  914MOL0     H20644   7.160   4.839   9.944  0.6772  1.9349  0.9126
  914MOL0     H20645   7.317   4.900   9.985  0.0197  0.7539  0.0885
  914MOL0     H20646   7.351   4.462   9.968 -0.4059 -0.5297  1.8151
  914MOL0     H20647   7.535   4.782  10.672  1.2227  0.5910  0.4901
  914MOL0     H20648   7.595   4.965  10.828  0.4963 -5.0734 -1.2758
  915MOL0     O20649   9.186   4.838   7.703  1.1142 -0.3412  0.4915
  915MOL0     C20650   9.301   4.867   7.735 -0.0249  0.4310  0.3336
  915MOL0     O20651   9.351   4.994   7.751  0.0177 -0.0762  0.0424
  915MOL0     C20652   9.273   5.092   7.681  0.1406  0.6338 -0.9150
  915MOL0     C20653   9.315   5.142   7.552 -0.4087  0.3318  0.0900
  915MOL0     C20654   9.270   5.270   7.504  0.0298 -0.1155 -0.0924
  915MOL0     C20655   9.169   5.334   7.579 -0.7439  0.6788 -0.6791
  915MOL0     O20656   9.106   5.433   7.516 -0.9105  0.3167 -0.2853
  915MOL0     C20657   8.979   5.479   7.555 -0.0923 -0.7414  0.1164
  915MOL0     C20658   8.874   5.376   7.526  0.1145  1.5456 -0.3317
  915MOL0     C20659   8.854   5.346   7.377  0.4412 -0.2284 -0.3203
  915MOL0     C20660   8.761   5.445   7.303 -0.0633  0.8037 -0.3120
  915MOL0     C20661   8.716   5.392   7.168 -0.6187 -0.7252 -0.3181
  915MOL0     C20662   8.663   5.509   7.079 -0.8934 -0.3385 -0.1279
  915MOL0     C20663   8.603   5.449   6.945  0.2568 -0.5866  0.1337
  915MOL0     C20664   8.706   5.406   6.843 -0.3589 -0.0931 -0.1236
  915MOL0     N20665   8.785   5.515   6.792 -0.2434  0.0687 -0.4511
  915MOL0     C20666   8.750   5.596   6.685 -0.7564 -0.2848 -0.9439
  915MOL0     C20667   8.848   5.689   6.684 -0.2597  0.4740 -0.7667
  915MOL0     C20668   8.876   5.795   6.577  0.2893  0.2824 -0.3020
  915MOL0     C20669   8.953   5.748   6.462 -0.4110  0.2537 -0.8239
  915MOL0     C20670   9.061   5.639   6.492 -0.1843 -0.2495  0.6737
  915MOL0     C20671   9.154   5.624   6.382 -0.5501  0.0052  0.1550
  915MOL0     O20672   9.247   5.736   6.380  1.2334  0.6918  0.2097
  915MOL0     C20673   9.365   5.725   6.309 -0.2484  0.0072  0.2545
  915MOL0     C20674   9.428   5.612   6.264 -0.2531  1.1305  0.0209
  915MOL0     C20675   9.540   5.603   6.179 -0.0223  0.0234 -0.1407
  915MOL0     C20676   9.609   5.726   6.145 -0.2847  0.6747 -0.1231
  915MOL0     C20677   9.729   5.719   6.067 -0.4607  0.1006  0.8411
  915MOL0     O20678   9.809   5.826   6.074  0.2921 -0.0447 -0.4719
  915MOL0     C20679   9.929   5.828   6.023 -0.6491  0.1767  0.3242
  915MOL0     C20680  10.034   5.743   6.062  0.0222  0.4901  0.6086
  915MOL0     C20681  10.150   5.737   5.987  0.1226 -0.2271 -0.2691
  915MOL0     C20682  10.169   5.825   5.874  0.1085 -0.4640  0.0843
  915MOL0     O20683  10.288   5.829   5.812 -0.2049  0.0761 -0.4959
  915MOL0     C20684  10.401   5.776   5.863 -0.9559 -0.5436 -0.1428
  915MOL0     C20685  10.508   5.786   5.763  0.1486  0.2436 -0.1936
  915MOL0     C20686  10.477   5.671   5.661 -0.0616 -0.2336 -0.2031
  915MOL0     C20687  10.577   5.659   5.546  0.4490  0.1754  0.5853
  915MOL0     C20688  10.512   5.547   5.455  0.3506  0.2630 -0.3552
  915MOL0     C20689  10.615   5.491   5.351  0.5573 -0.0567 -0.6030
  915MOL0     C20690  10.624   5.339   5.354 -0.0595  0.2855 -0.5134
  915MOL0     C20691  10.649   5.286   5.206  0.0182 -0.6793 -0.6215
  915MOL0    Cl20692  10.582   5.116   5.190  0.0367  0.0191  0.0356
  915MOL0     C20693  10.065   5.917   5.838 -0.5282 -0.1276 -0.0326
  915MOL0     C20694   9.949   5.916   5.915  0.0961 -0.5698 -0.0257
  915MOL0     O20695   9.750   5.617   5.996  0.6583 -0.6272  0.5635
  915MOL0     C20696   9.551   5.847   6.209 -0.0835  0.1864  0.1349
  915MOL0     C20697   9.433   5.846   6.284 -0.8632 -0.4107  0.1440
  915MOL0     N20698   8.931   5.673   6.794 -0.6445  0.2230  0.0002
  915MOL0     N20699   8.905   5.562   6.850 -0.6002  0.1865  0.0594
  915MOL0     C20700   9.128   5.284   7.708  0.8523  0.6823  0.1953
  915MOL0     C20701   9.180   5.162   7.756  0.4014 -0.2695 -0.3827
  915MOL0     C20702   9.402   4.756   7.759  0.6145 -0.2696 -1.3207
  915MOL0     C20703   9.541   4.780   7.787 -0.6329 -0.9507 -0.5167
  915MOL0     C20704   9.632   4.674   7.796 -0.5870  0.6303 -0.6600
  915MOL0     C20705   9.588   4.537   7.792  0.6892 -0.6305 -0.5762
  915MOL0     O20706   9.668   4.423   7.791 -0.0525  0.0717  0.3470
  915MOL0     C20707   9.795   4.418   7.857  0.0785  0.7586  0.0635
  915MOL0     C20708   9.781   4.325   7.981  0.0051 -0.0558  0.8864
  915MOL0     C20709   9.898   4.248   8.038  0.3466 -0.2150  0.2520
  915MOL0     C20710  10.004   4.333   8.110  0.0931 -0.3766 -0.2677
  915MOL0     C20711  10.073   4.415   8.020 -0.3615 -0.1462  0.4304
  915MOL0     C20712  10.124   4.483   7.933  0.6578  0.6320 -0.2801
  915MOL0     C20713   9.449   4.513   7.795  0.1337 -0.4103 -0.2844
  915MOL0     C20714   9.356   4.625   7.772  0.0372 -0.5435 -0.0666
  915MOL0     H20715   9.392   5.094   7.493  0.4209  1.5955  0.1210
  915MOL0     H20716   9.302   5.301   7.405 -2.6027  2.6412 -0.2023
  915MOL0     H20717   8.951   5.567   7.497  0.8431 -0.1679  0.5092
  915MOL0     H20718   8.980   5.508   7.661  0.9465 -3.6759  1.0415
  915MOL0     H20719   8.785   5.420   7.570 -1.2553 -0.8957 -0.4807
  915MOL0     H20720   8.888   5.282   7.581  3.3338  1.1838 -1.5230
  915MOL0     H20721   8.801   5.251   7.363  2.3140 -1.4823  0.7706
  915MOL0     H20722   8.951   5.348   7.329  0.4119 -0.4499 -0.3885
  915MOL0     H20723   8.673   5.473   7.361  0.1665 -1.1949  1.1331
  915MOL0     H20724   8.817   5.536   7.282  1.5958  0.7774  3.3214
  915MOL0     H20725   8.654   5.302   7.173  0.0980 -1.1855  0.6113
  915MOL0     H20726   8.807   5.370   7.113 -1.0691  1.5871 -2.1775
  915MOL0     H20727   8.742   5.581   7.055  1.6010 -1.7326  3.1574
  915MOL0     H20728   8.586   5.560   7.138  0.0642  1.6353 -0.4938
  915MOL0     H20729   8.539   5.364   6.971 -0.3602  0.0357  0.6890
  915MOL0     H20730   8.539   5.522   6.897  0.3649 -0.0967  0.7262
  915MOL0     H20731   8.659   5.346   6.765  0.5107 -1.4089  0.3174
  915MOL0     H20732   8.779   5.340   6.891  0.8046  1.4012  0.2117
  915MOL0     H20733   8.664   5.585   6.619 -2.6930  0.2766  1.3287
  915MOL0     H20734   8.920   5.883   6.624 -2.7219  1.8079 -0.0636
  915MOL0     H20735   8.778   5.825   6.536 -2.3402 -0.3423  4.7509
  915MOL0     H20736   9.003   5.829   6.408 -0.3908 -0.9515 -2.7048
  915MOL0     H20737   8.884   5.703   6.389  0.8353 -2.0857 -0.6617
  915MOL0     H20738   9.107   5.666   6.587 -1.6505  3.1570  0.5687
  915MOL0     H20739   9.000   5.549   6.501 -0.9813  0.2791  0.6603
  915MOL0     H20740   9.107   5.624   6.284  1.4802 -1.9159 -0.9103
  915MOL0     H20741   9.214   5.533   6.396  0.6991  0.1633 -3.3176
  915MOL0     H20742   9.370   5.521   6.268 -1.2758  1.5887 -2.4317
  915MOL0     H20743   9.574   5.506   6.145  0.4683  0.3603 -0.6365
  915MOL0     H20744  10.009   5.665   6.133 -1.6108  2.4311  2.3128
  915MOL0     H20745  10.219   5.668   6.034  1.9198  0.2131 -2.1250
  915MOL0     H20746  10.382   5.671   5.885  2.5542 -1.1397  0.8035
  915MOL0     H20747  10.438   5.831   5.950 -2.7326  2.5762 -1.2143
  915MOL0     H20748  10.606   5.769   5.808 -0.7305  0.8505  2.1330
  915MOL0     H20749  10.512   5.884   5.715  0.3377 -0.2009 -1.1047
  915MOL0     H20750  10.373   5.676   5.627  0.0358  1.9229 -0.2771
  915MOL0     H20751  10.476   5.573   5.710 -1.4023 -0.2464 -0.2211
  915MOL0     H20752  10.589   5.757   5.498 -1.5264  1.2824  2.2154
  915MOL0     H20753  10.667   5.613   5.588 -0.4568 -1.3128  0.9713
  915MOL0     H20754  10.436   5.605   5.401  1.9220  2.2311 -0.5772
  915MOL0     H20755  10.470   5.460   5.506  2.2360 -1.9516 -2.3576
  915MOL0     H20756  10.703   5.552   5.370  1.6437 -1.0130 -2.3522
  915MOL0     H20757  10.571   5.515   5.254 -1.3295 -0.6695  0.0391
  915MOL0     H20758  10.712   5.314   5.415  0.2325  1.0790 -0.5985
  915MOL0     H20759  10.537   5.293   5.401 -0.0628 -0.4412 -1.2033
  915MOL0     H20760  10.756   5.292   5.181  0.1401 -0.7324 -0.1270
  915MOL0     H20761  10.601   5.352   5.133  1.2281 -0.2766 -1.0774
  915MOL0     H20762  10.084   5.978   5.751  1.6840  0.4392  0.7714
  915MOL0     H20763   9.870   5.982   5.880  0.3021  2.0839  3.8588
  915MOL0     H20764   9.602   5.941   6.194 -1.2520  0.9797  0.9357
  915MOL0     H20765   9.385   5.935   6.325  1.5493  2.6895 -3.1213
  915MOL0     H20766   9.051   5.335   7.765 -1.0626 -2.8598  1.1367
  915MOL0     H20767   9.151   5.127   7.854  2.8032  1.8055  1.1810
  915MOL0     H20768   9.572   4.884   7.783  2.9168 -1.9060 -2.7974
  915MOL0     H20769   9.736   4.699   7.817 -0.1952 -1.2019 -0.2421
  915MOL0     H20770   9.847   4.510   7.886  1.2802  1.1214 -2.8720
  915MOL0     H20771   9.855   4.360   7.785 -2.2799 -1.4710 -0.2476
  915MOL0     H20772   9.735   4.384   8.060 -2.8432 -0.1356 -0.5625
  915MOL0     H20773   9.707   4.248   7.958 -0.6993  0.4226  1.5188
  915MOL0     H20774   9.956   4.198   7.961  2.5094 -1.7891  2.7306
  915MOL0     H20775   9.856   4.173   8.104 -0.3512 -0.0555 -0.0053
  915MOL0     H20776   9.971   4.403   8.187  0.5614 -1.7391  1.2397
  915MOL0     H20777  10.073   4.260   8.153 -1.6356 -2.7482 -1.3013
  915MOL0     H20778  10.161   4.555   7.863  2.3468 -0.9443 -1.1159
  915MOL0     H20779   9.409   4.412   7.800  0.7063 -0.6113  0.3372
  915MOL0     H20780   9.249   4.611   7.759 -0.0419 -4.7080  2.9822
  916MOL0     O20781   3.301   7.899   3.352  0.3901 -0.2249 -0.1365
  916MOL0     C20782   3.384   7.895   3.262  0.1759  0.3725  1.0571
  916MOL0     O20783   3.386   7.802   3.162  0.4030 -0.0436 -0.9803
  916MOL0     C20784   3.279   7.718   3.137  0.1559  0.3972 -0.1815
  916MOL0     C20785   3.225   7.714   3.005 -0.8448 -0.7912  0.4021
  916MOL0     C20786   3.125   7.620   2.977  0.3571 -0.3946  0.4114
  916MOL0     C20787   3.044   7.566   3.079 -0.0770 -0.0517  0.1392
  916MOL0     O20788   2.929   7.506   3.046  0.0628  0.0383  0.5267
  916MOL0     C20789   2.834   7.590   2.973 -0.4789 -0.7743  0.0430
  916MOL0     C20790   2.691   7.541   2.995  0.5322  1.0071 -0.0837
  916MOL0     C20791   2.659   7.426   2.900  0.5082 -0.0787 -1.0691
  916MOL0     C20792   2.505   7.390   2.909 -0.1746 -0.3413  0.2213
  916MOL0     C20793   2.480   7.281   2.804 -0.0212 -0.7560  1.4068
  916MOL0     C20794   2.333   7.260   2.775  0.3934  0.7708 -0.9315
  916MOL0     C20795   2.308   7.143   2.672  0.0639 -0.5600  0.8753
  916MOL0     C20796   2.379   7.165   2.538  0.6715 -0.8222 -0.1417
  916MOL0     N20797   2.373   7.054   2.455  0.6620  0.6813 -0.2901
  916MOL0     C20798   2.254   7.000   2.409 -0.0513 -0.3060  0.4770
  916MOL0     C20799   2.291   6.908   2.313  0.8300  0.3940  0.1936
  916MOL0     C20800   2.205   6.815   2.223 -0.1625 -1.8459 -0.4256
  916MOL0     C20801   2.054   6.859   2.211  0.4249  0.0103 -0.1880
  916MOL0     C20802   1.972   6.746   2.143 -0.4321 -0.6820 -0.8555
  916MOL0     C20803   1.820   6.772   2.156 -0.3654 -0.1722 -0.8920
  916MOL0     O20804   1.766   6.902   2.128  0.0549  0.0918 -0.0444
  916MOL0     C20805   1.632   6.917   2.114  0.1011 -0.2641  0.8039
  916MOL0     C20806   1.537   6.828   2.173  0.2935  0.5890  0.4420
  916MOL0     C20807   1.401   6.857   2.181  0.7040 -0.0592  0.8729
  916MOL0     C20808   1.363   6.983   2.141 -0.4940  0.1112  0.1646
  916MOL0     C20809   1.220   7.008   2.141 -0.3277 -0.0792  0.3394
  916MOL0     O20810   1.152   6.965   2.258  0.2703  0.0509  0.9267
  916MOL0     C20811   1.022   7.013   2.265 -0.6187  0.4914  0.2893
  916MOL0     C20812   0.912   6.946   2.223  0.2388  0.7433  0.3048
  916MOL0     C20813   0.788   7.021   2.222 -0.7669  0.5292  0.0975
  916MOL0     C20814   0.774   7.152   2.277 -0.1891  0.7121  1.1216
  916MOL0     O20815   0.651   7.215   2.264  0.7409  0.4823 -0.0863
  916MOL0     C20816   0.624   7.358   2.296 -0.8087 -0.0083  0.3373
  916MOL0     C20817   0.472   7.373   2.319 -0.3716  1.5736 -0.6431
  916MOL0     C20818   0.377   7.300   2.212 -0.5898 -0.1564 -0.7971
  916MOL0     C20819   0.235   7.308   2.247 -0.1654 -1.4653  0.6263
  916MOL0     C20820   0.148   7.404   2.151 -0.0531 -0.1219  0.2089
  916MOL0     C20821   0.198   7.545   2.127  0.4831  0.0839 -0.1470
  916MOL0     C20822   0.118   7.624   2.025 -0.1403  0.4482  0.6528
  916MOL0     C20823   0.149   7.777   2.033 -0.2913 -0.3451  0.0561
  916MOL0    Cl20824   0.040   7.842   2.158  0.0800 -0.0121 -0.1805
  916MOL0     C20825   0.887   7.205   2.332  0.4799 -0.2352  0.2954
  916MOL0     C20826   1.004   7.137   2.328 -0.9815  0.1782  0.1082
  916MOL0     O20827   1.183   7.096   2.057  0.2627  0.4708  0.6221
  916MOL0     C20828   1.455   7.071   2.089  1.4765  0.2648  0.5532
  916MOL0     C20829   1.588   7.039   2.077  0.7193  0.4972 -0.1146
  916MOL0     N20830   2.428   6.908   2.315  0.4833 -0.1218 -0.0974
  916MOL0     N20831   2.477   6.988   2.400  0.0002  0.7141  0.0387
  916MOL0     C20832   3.109   7.561   3.201 -0.6150  0.5592  0.8209
  916MOL0     C20833   3.222   7.637   3.234 -0.3903 -1.2258  0.5807
  916MOL0     C20834   3.508   7.971   3.271 -0.3814 -0.1644 -0.5905
  916MOL0     C20835   3.598   8.004   3.161  0.9040  0.5345  0.0176
  916MOL0     C20836   3.722   8.073   3.184  0.0955  1.8018 -0.0724
  916MOL0     C20837   3.750   8.115   3.316 -0.3090 -0.4208  0.0206
  916MOL0     O20838   3.859   8.198   3.354  0.4029  0.6872  0.3116
  916MOL0     C20839   3.934   8.283   3.258 -0.2657  0.6850  0.4052
  916MOL0     C20840   4.050   8.203   3.203  0.5527 -0.6724  1.0198
  916MOL0     C20841   4.131   8.153   3.319  0.4721  0.6865  0.3599
  916MOL0     C20842   4.273   8.116   3.289  0.1888  0.1149 -0.0187
  916MOL0     C20843   4.346   8.226   3.222 -0.0062 -0.6567  1.0374
  916MOL0     C20844   4.405   8.318   3.168  0.7323 -0.9894  0.1672
  916MOL0     C20845   3.679   8.067   3.423  0.3871  0.5507 -0.5578
  916MOL0     C20846   3.557   8.004   3.398  0.1313  0.3617 -0.4680
  916MOL0     H20847   3.258   7.774   2.921 -1.4081 -1.8733 -0.6129
  916MOL0     H20848   3.089   7.627   2.875  1.8118 -0.7434 -0.1411
  916MOL0     H20849   2.862   7.606   2.868  3.9679  0.0338  1.1387
  916MOL0     H20850   2.852   7.690   3.013  1.4551 -0.8465 -0.5547
  916MOL0     H20851   2.627   7.627   2.973  2.0101  2.1289 -0.1684
  916MOL0     H20852   2.676   7.501   3.095 -1.1774  0.6053 -0.4726
  916MOL0     H20853   2.715   7.337   2.932  0.8237  0.4643 -0.0835
  916MOL0     H20854   2.688   7.450   2.797 -1.9977  1.6285 -1.4553
  916MOL0     H20855   2.464   7.363   3.006 -1.1942 -1.3328 -0.4615
  916MOL0     H20856   2.447   7.480   2.886  1.3775  0.2328 -1.6898
  916MOL0     H20857   2.523   7.184   2.830  0.7049 -1.3859 -1.7396
  916MOL0     H20858   2.526   7.322   2.714 -1.1005  0.9639  1.5888
  916MOL0     H20859   2.295   7.360   2.750  0.2960  0.7794 -0.7459
  916MOL0     H20860   2.289   7.233   2.871 -1.6287  1.2129 -1.6714
  916MOL0     H20861   2.336   7.045   2.712  1.5534 -0.3771  0.3547
  916MOL0     H20862   2.202   7.150   2.649  0.7536  1.7670 -2.3744
  916MOL0     H20863   2.484   7.195   2.535  1.1767 -2.5368 -0.0891
  916MOL0     H20864   2.331   7.247   2.483  0.5159 -0.7401  0.1123
  916MOL0     H20865   2.155   7.021   2.447  0.4157 -0.6770  1.9598
  916MOL0     H20866   2.229   6.718   2.266  4.3161 -0.2384  1.2760
  916MOL0     H20867   2.241   6.813   2.119 -1.1587  0.7545 -0.9179
  916MOL0     H20868   2.049   6.956   2.160  0.0346 -1.6851 -3.6447
  916MOL0     H20869   2.013   6.872   2.312  2.9652 -0.7183  1.0217
  916MOL0     H20870   2.004   6.743   2.038 -0.0689  1.9993 -0.8955
  916MOL0     H20871   2.001   6.654   2.194  1.1245 -0.1103 -0.6506
  916MOL0     H20872   1.789   6.742   2.257 -2.9278  0.5872 -1.3810
  916MOL0     H20873   1.785   6.695   2.087  4.0951 -1.3755 -2.1199
  916MOL0     H20874   1.568   6.728   2.202 -0.4918  0.1152 -0.2915
  916MOL0     H20875   1.322   6.785   2.201 -0.9189  1.4871  0.2838
  916MOL0     H20876   0.925   6.848   2.179 -2.2720  0.2529  0.5004
  916MOL0     H20877   0.701   6.977   2.176 -0.3164  2.8353 -3.2784
  916MOL0     H20878   0.651   7.414   2.206 -2.8316  1.6748  0.6909
  916MOL0     H20879   0.682   7.386   2.384 -0.5547 -1.1406  0.5420
  916MOL0     H20880   0.446   7.479   2.330 -0.5915  1.2443  3.5442
  916MOL0     H20881   0.440   7.333   2.415  0.8730  0.3745 -0.6986
  916MOL0     H20882   0.426   7.203   2.198  2.9148  1.1745  0.8789
  916MOL0     H20883   0.404   7.352   2.120  1.5378 -2.8706 -1.8588
  916MOL0     H20884   0.190   7.212   2.221 -1.0998 -0.1125 -3.5679
  916MOL0     H20885   0.216   7.326   2.353  2.6657 -0.0691  0.9968
  916MOL0     H20886   0.042   7.412   2.173  0.1450  0.1640  1.1040
  916MOL0     H20887   0.141   7.362   2.050  0.7559 -1.4434  0.6703
  916MOL0     H20888   0.303   7.536   2.098  1.4032  3.5087  1.5743
  916MOL0     H20889   0.200   7.605   2.219 -4.1615  0.6822 -0.1678
  916MOL0     H20890   0.159   7.601   1.926  1.1375  1.5946  0.8915
  916MOL0     H20891   0.014   7.592   2.028 -0.4281  1.4213  1.4515
  916MOL0     H20892   0.124   7.826   1.938  1.2890 -1.4361 -0.9817
  916MOL0     H20893   0.255   7.791   2.056  0.2186 -1.1578 -1.6278
  916MOL0     H20894   0.887   7.302   2.382  1.5005 -0.1042  0.0709
  916MOL0     H20895   1.091   7.190   2.363 -1.0380 -0.5771  1.4596
  916MOL0     H20896   1.414   7.167   2.059 -0.5931  0.2260  2.9604
  916MOL0     H20897   1.662   7.112   2.045  2.9980 -2.4853 -2.2485
  916MOL0     H20898   3.050   7.491   3.259 -1.2917  0.1161 -0.3590
  916MOL0     H20899   3.278   7.634   3.327 -1.7887  0.8009  1.5639
  916MOL0     H20900   3.583   7.975   3.057 -0.1714 -0.4460  0.4239
  916MOL0     H20901   3.777   8.087   3.091 -0.9513 -3.4637 -1.8674
  916MOL0     H20902   3.971   8.370   3.311 -0.6621  1.1131 -0.0106
  916MOL0     H20903   3.868   8.322   3.179  1.6666 -1.2213 -2.3416
  916MOL0     H20904   4.000   8.127   3.142  0.8525  1.0617 -1.5647
  916MOL0     H20905   4.117   8.261   3.138  1.6343 -0.7527  2.0415
  916MOL0     H20906   4.085   8.061   3.357  0.2067 -0.4589 -2.4833
  916MOL0     H20907   4.127   8.208   3.413 -0.8705  2.4655 -0.6707
  916MOL0     H20908   4.314   8.076   3.382 -0.5909 -4.5343 -1.4324
  916MOL0     H20909   4.262   8.029   3.224 -2.4295  1.7754 -1.9815
  916MOL0     H20910   4.438   8.403   3.112 -2.6423  1.0627  0.9696
  916MOL0     H20911   3.696   8.106   3.522 -1.1803 -0.2703  0.0759
  916MOL0     H20912   3.500   7.973   3.485  0.8705  0.3590  0.0239
  917MOL0     O20913   4.901   8.927   9.456  0.5479  0.6129  0.0564
  917MOL0     C20914   5.016   8.956   9.455  0.4230  0.1154 -1.1133
  917MOL0     O20915   5.093   8.974   9.570  0.1286  0.3557  0.0792
  917MOL0     C20916   5.019   8.984   9.686  1.0471  0.6166 -0.8509
  917MOL0     C20917   4.946   8.870   9.731  0.5297 -0.2017  0.6305
  917MOL0     C20918   4.860   8.873   9.839  0.6150  0.8536 -0.1747
  917MOL0     C20919   4.864   8.989   9.918  0.4483  0.7335  0.4237
  917MOL0     O20920   4.811   8.975  10.040 -0.2623  0.3873 -0.6387
  917MOL0     C20921   4.704   9.052  10.092  0.3448 -0.3214 -0.2736
  917MOL0     C20922   4.614   9.112   9.983 -0.8778 -0.1492  0.1460
  917MOL0     C20923   4.544   9.244  10.027  1.1401  0.4997 -0.5165
  917MOL0     C20924   4.439   9.301   9.922  0.3448 -0.1398 -0.4597
  917MOL0     C20925   4.386   9.428   9.975  1.4466 -0.4399 -0.1529
  917MOL0     C20926   4.274   9.406  10.075 -0.2632 -0.3227 -0.0120
  917MOL0     C20927   4.196   9.521  10.125  0.4318  0.0678  0.8436
  917MOL0     C20928   4.081   9.466  10.207  0.3920 -0.3095 -0.0027
  917MOL0     N20929   3.996   9.568  10.268  0.6452  0.4038 -0.6343
  917MOL0     C20930   4.040   9.683  10.326 -0.0067 -0.7286  0.9032
  917MOL0     C20931   3.917   9.750  10.344 -0.2141  0.2165  0.5697
  917MOL0     C20932   3.892   9.886  10.419 -0.5789  0.4265  0.1509
  917MOL0     C20933   3.845   9.854  10.563 -0.3183  0.0012 -0.5497
  917MOL0     C20934   3.975   9.833  10.647  0.1400  0.1613  0.0744
  917MOL0     C20935   4.045   9.960  10.688 -0.7715  0.4608 -1.1151
  917MOL0     O20936   4.134  10.032  10.598  0.1575  0.0891 -0.5131
  917MOL0     C20937   4.243   9.968  10.551  0.0234  0.2536 -0.7160
  917MOL0     C20938   4.269   9.979  10.413  0.4053 -0.1721  0.3805
  917MOL0     C20939   4.362   9.905  10.356 -0.1248  0.7823 -0.5535
  917MOL0     C20940   4.447   9.829  10.435  0.4394  0.1450 -0.5791
  917MOL0     C20941   4.565   9.756  10.374  0.1075 -0.0594 -0.7558
  917MOL0     O20942   4.641   9.680  10.456 -0.0654 -0.1273  0.4892
  917MOL0     C20943   4.775   9.659  10.419 -0.6503 -0.7537 -0.3469
  917MOL0     C20944   4.853   9.562  10.479 -0.4995  0.3876  0.1025
  917MOL0     C20945   4.986   9.540  10.452  0.4923  0.3951  0.0706
  917MOL0     C20946   5.053   9.621  10.371 -0.1214 -0.6430  0.0644
  917MOL0     O20947   5.182   9.599  10.352 -0.0207  0.4360 -0.0173
  917MOL0     C20948   5.225   9.605  10.216  0.2632  0.5212  0.0318
  917MOL0     C20949   5.368   9.572  10.184  0.0354  0.1011  0.0246
  917MOL0     C20950   5.399   9.424  10.222 -0.3279  0.4351 -0.9463
  917MOL0     C20951   5.529   9.356  10.183  0.3825  0.2601 -0.1469
  917MOL0     C20952   5.519   9.202  10.198  0.1334 -0.8773  0.4656
  917MOL0     C20953   5.493   9.166  10.348 -0.2915  1.0370 -0.6493
  917MOL0     C20954   5.497   9.007  10.366 -0.1977 -0.2415 -0.3412
  917MOL0     C20955   5.394   8.959  10.466 -0.3863  0.2095 -0.1037
  917MOL0    Cl20956   5.456   9.036  10.610  0.5357  0.6175  0.1418
  917MOL0     C20957   4.991   9.733  10.314  0.2544  0.5831  0.8610
  917MOL0     C20958   4.852   9.737  10.329  0.2447 -0.2924  0.4751
  917MOL0     O20959   4.559   9.746  10.253  0.1658  0.3122 -0.4783
  917MOL0     C20960   4.429   9.818  10.570 -0.1154  0.8808  0.4020
  917MOL0     C20961   4.326   9.890  10.635 -0.5312 -0.0884  0.0954
  917MOL0     N20962   3.812   9.677  10.296 -0.3295 -0.5396  0.5550
  917MOL0     N20963   3.863   9.573  10.241  0.5604  0.4921  0.5686
  917MOL0     C20964   4.938   9.104   9.884 -0.0944  0.4544  0.4973
  917MOL0     C20965   5.022   9.100   9.769 -0.6547 -0.1317  0.0694
  917MOL0     C20966   5.094   8.941   9.335 -0.0079 -0.8049  0.8575
  917MOL0     C20967   5.230   8.963   9.321 -0.1049 -0.4468 -0.3286
  917MOL0     C20968   5.295   8.951   9.203 -0.0926 -0.4199 -0.1631
  917MOL0     C20969   5.225   8.910   9.089 -0.0791  0.0067  0.3641
  917MOL0     O20970   5.274   8.913   8.963 -0.1583 -0.2959  0.1313
  917MOL0     C20971   5.398   8.837   8.942 -0.3214  0.3132  1.0741
  917MOL0     C20972   5.378   8.691   8.912  0.0736 -0.6413 -0.0258
  917MOL0     C20973   5.513   8.608   8.904 -0.1036 -0.9156  0.5404
  917MOL0     C20974   5.564   8.569   9.044 -0.7494 -0.4303  0.0710
  917MOL0     C20975   5.704   8.512   9.042  0.3339  0.3197  0.7888
  917MOL0     C20976   5.823   8.476   9.044  0.3908 -0.3198  0.5705
  917MOL0     C20977   5.090   8.882   9.093 -0.1460  0.8035 -0.5467
  917MOL0     C20978   5.025   8.898   9.217 -0.2700 -0.6890 -1.1446
  917MOL0     H20979   4.952   8.778   9.673  0.6578 -0.0269  0.3638
  917MOL0     H20980   4.796   8.790   9.869  0.4623  0.7079 -0.8917
  917MOL0     H20981   4.746   9.139  10.143 -0.6269  0.6501 -1.0998
  917MOL0     H20982   4.635   8.994  10.154 -3.5508  3.1788 -0.9070
  917MOL0     H20983   4.536   9.038   9.963  0.7459 -1.8800 -0.0950
  917MOL0     H20984   4.665   9.141   9.892 -1.1695  0.8153  0.2783
  917MOL0     H20985   4.610   9.328  10.049  2.1932 -0.4817  0.1570
  917MOL0     H20986   4.496   9.220  10.122  1.8364  2.9417  0.5185
  917MOL0     H20987   4.491   9.334   9.831  0.1761  1.5760  0.0282
  917MOL0     H20988   4.368   9.222   9.897  0.1296  0.3518 -1.4653
  917MOL0     H20989   4.355   9.488   9.889  1.2942 -1.1819 -0.6259
  917MOL0     H20990   4.459   9.487  10.031 -1.0591  1.1757  1.6688
  917MOL0     H20991   4.295   9.336  10.156 -1.5380 -0.7542 -0.0349
  917MOL0     H20992   4.197   9.353  10.018 -0.5882  0.0034  0.1140
  917MOL0     H20993   4.258   9.575  10.197  1.7867 -0.6073  0.2084
  917MOL0     H20994   4.170   9.586  10.041 -0.1669  2.5493  2.8076
  917MOL0     H20995   4.120   9.398  10.283 -1.5303 -0.5324  0.8298
  917MOL0     H20996   4.014   9.409  10.142 -1.1346  1.5165 -0.1378
  917MOL0     H20997   4.141   9.695  10.364  0.0622  0.8912  0.2942
  917MOL0     H20998   3.821   9.956  10.374  0.0668  1.3893  0.5897
  917MOL0     H20999   3.987   9.937  10.434  2.7494 -4.7667 -0.6165
  917MOL0     H21000   3.785   9.763  10.552 -1.1824  0.4492  0.3423
  917MOL0     H21001   3.782   9.931  10.607 -0.0882  0.8140 -1.6007
  917MOL0     H21002   3.941   9.793  10.743 -2.1857  0.6214 -0.4973
  917MOL0     H21003   4.032   9.756  10.594  0.4922  1.4170 -1.4622
  917MOL0     H21004   4.106   9.932  10.774  0.3636 -2.9118 -2.8301
  917MOL0     H21005   3.966  10.023  10.729 -1.5389 -1.8307  1.1797
  917MOL0     H21006   4.200  10.041  10.356  0.6906  3.5523  3.7070
  917MOL0     H21007   4.387   9.921  10.251 -0.7045  2.8326 -0.4264
  917MOL0     H21008   4.791   9.509  10.551 -6.1083  1.6421 -3.2163
  917MOL0     H21009   5.038   9.458  10.501  0.3067  0.1178 -0.1914
  917MOL0     H21010   5.207   9.705  10.177 -0.0220  0.8484  0.9891
  917MOL0     H21011   5.161   9.548  10.147  0.4089  0.1196  0.2271
  917MOL0     H21012   5.433   9.640  10.239  1.0388  0.1581 -1.1895
  917MOL0     H21013   5.384   9.579  10.076 -1.1426 -0.0887 -0.1743
  917MOL0     H21014   5.320   9.361  10.179 -0.7449  1.2516 -1.3904
  917MOL0     H21015   5.379   9.427  10.330 -4.9774  2.0076 -1.5959
  917MOL0     H21016   5.529   9.385  10.078  0.3096  3.5568  0.6509
  917MOL0     H21017   5.617   9.400  10.230 -0.5566  1.2693  0.7544
  917MOL0     H21018   5.617   9.161  10.173  0.0816 -0.8776  0.2591
  917MOL0     H21019   5.434   9.152  10.151  0.1708  0.4842 -1.1814
  917MOL0     H21020   5.400   9.206  10.389 -1.4677 -2.8669  0.9498
  917MOL0     H21021   5.570   9.213  10.410  0.2166 -0.4488 -0.0995
  917MOL0     H21022   5.460   8.966  10.272 -2.8668 -1.3344  1.0737
  917MOL0     H21023   5.599   8.967  10.366 -1.2026 -3.0288 -0.5551
  917MOL0     H21024   5.381   8.851  10.467 -0.7420  0.1624  3.4176
  917MOL0     H21025   5.301   9.005  10.433  0.6096  1.8555 -0.7386
  917MOL0     H21026   5.050   9.808  10.262 -0.9643  2.2429  1.7731
  917MOL0     H21027   4.803   9.807  10.264 -2.7859 -2.2401  0.4643
  917MOL0     H21028   4.492   9.760  10.638  0.5288  1.3019  0.1788
  917MOL0     H21029   4.315   9.888  10.743 -1.0040 -2.4398  0.0422
  917MOL0     H21030   4.959   9.191   9.945 -2.3293  0.3922  1.4128
  917MOL0     H21031   5.070   9.190   9.734 -2.2795 -0.8230 -4.6411
  917MOL0     H21032   5.294   9.000   9.401  2.8639 -0.3709 -2.5779
  917MOL0     H21033   5.402   8.967   9.194  0.2844 -2.5754 -0.1656
  917MOL0     H21034   5.463   8.835   9.031  1.7529 -1.5537 -0.3912
  917MOL0     H21035   5.439   8.883   8.852 -3.4695  0.1092 -0.6098
  917MOL0     H21036   5.310   8.647   8.986  0.4044 -2.2464 -0.6355
  917MOL0     H21037   5.330   8.678   8.815  1.0354 -0.2586 -0.5596
  917MOL0     H21038   5.590   8.652   8.839 -0.9001 -1.5142 -0.8600
  917MOL0     H21039   5.485   8.521   8.844 -0.4363  1.1586 -2.5383
  917MOL0     H21040   5.554   8.659   9.105 -0.3203  0.1793 -0.7343
  917MOL0     H21041   5.494   8.495   9.083  0.1589  0.0159  2.6995
  917MOL0     H21042   5.927   8.449   9.042  0.2639 -0.7806 -0.2620
  917MOL0     H21043   5.021   8.849   9.016  0.9673 -2.3256 -0.3597
  917MOL0     H21044   4.918   8.881   9.220 -0.4515  0.4745  0.6055
  918MOL0     O21045   7.530   9.231   0.489 -0.6540 -1.2871  0.1674
  918MOL0     C21046   7.557   9.302   0.393  0.7110 -0.1755 -0.0065
  918MOL0     O21047   7.462   9.370   0.316 -0.0371  0.2844 -0.3379
  918MOL0     C21048   7.335   9.384   0.368 -0.4857  0.8276 -0.7795
  918MOL0     C21049   7.288   9.510   0.373  0.3616  0.2654 -0.2539
  918MOL0     C21050   7.161   9.531   0.428 -0.1824 -0.8675  0.0691
  918MOL0     C21051   7.079   9.432   0.476  0.9062  0.6970 -0.4861
  918MOL0     O21052   6.951   9.477   0.504 -0.6141 -0.1786 -0.2386
  918MOL0     C21053   6.869   9.397   0.597  0.3605 -0.1992  0.1958
  918MOL0     C21054   6.927   9.380   0.733 -0.9831  0.3979  0.0677
  918MOL0     C21055   6.951   9.516   0.803 -0.4691  0.0753  0.2558
  918MOL0     C21056   6.949   9.508   0.955  0.8197 -0.1532 -0.2132
  918MOL0     C21057   7.084   9.451   1.005 -0.3943  0.0403 -0.4174
  918MOL0     C21058   7.085   9.449   1.155 -0.7955 -0.2643 -0.1927
  918MOL0     C21059   7.236   9.430   1.223  0.8710  0.0834  1.2474
  918MOL0     C21060   7.234   9.397   1.372 -0.2521  0.5252  0.5575
  918MOL0     N21061   7.251   9.248   1.383 -0.1488 -0.2242  0.1842
  918MOL0     C21062   7.354   9.182   1.453  0.2183  1.0302 -0.1920
  918MOL0     C21063   7.300   9.056   1.461  0.2427  0.1143  0.2099
  918MOL0     C21064   7.380   8.947   1.522 -0.7191 -0.8534  0.6720
  918MOL0     C21065   7.517   8.924   1.452  0.7667  0.6138 -0.8782
  918MOL0     C21066   7.597   8.804   1.509 -0.0929  0.3821 -0.6277
  918MOL0     C21067   7.743   8.777   1.449 -0.4084 -0.6579 -0.6174
  918MOL0     O21068   7.732   8.760   1.310  0.3545 -0.1053  0.6060
  918MOL0     C21069   7.852   8.745   1.250 -0.5997 -0.3967  1.1508
  918MOL0     C21070   7.856   8.801   1.123  0.1098 -0.3951  0.1650
  918MOL0     C21071   7.978   8.808   1.048  0.0185 -0.3578 -0.2061
  918MOL0     C21072   8.096   8.762   1.098  1.0761 -0.2203 -0.2987
  918MOL0     C21073   8.226   8.793   1.036 -0.0216 -0.1160 -0.8585
  918MOL0     O21074   8.218   8.877   0.928  0.2867 -0.1374 -0.4699
  918MOL0     C21075   8.330   8.958   0.905  0.1541 -0.5210 -0.7304
  918MOL0     C21076   8.324   9.096   0.936 -0.6861  0.5691  0.1523
  918MOL0     C21077   8.425   9.179   0.889 -0.0556  0.3093 -0.1473
  918MOL0     C21078   8.541   9.129   0.830  0.9765 -0.5333  1.1878
  918MOL0     O21079   8.626   9.220   0.778 -1.0667  0.0233 -0.1110
  918MOL0     C21080   8.669   9.208   0.646  0.5150  0.7460 -0.3060
  918MOL0     C21081   8.800   9.128   0.634 -0.2109  0.0673 -0.0836
  918MOL0     C21082   8.907   9.140   0.748 -0.6376 -0.7067 -0.0162
  918MOL0     C21083   8.939   9.283   0.780 -0.2678 -0.7798 -0.4035
  918MOL0     C21084   9.068   9.292   0.861  0.4009  0.0525 -0.4853
  918MOL0     C21085   9.029   9.297   1.011 -0.2383  0.0422 -0.9442
  918MOL0     C21086   9.147   9.263   1.100 -0.3790  0.4428  0.2474
  918MOL0     C21087   9.140   9.345   1.229 -1.3030 -0.4918 -0.4715
  918MOL0    Cl21088   8.978   9.400   1.297 -0.8947 -0.2202 -0.4479
  918MOL0     C21089   8.552   8.992   0.811 -0.6569  0.3904  0.5110
  918MOL0     C21090   8.452   8.903   0.852  0.0489  0.5081  0.1433
  918MOL0     O21091   8.326   8.732   1.081  0.3922 -0.9556  0.9429
  918MOL0     C21092   8.090   8.710   1.226  0.0320  0.3571  0.3480
  918MOL0     C21093   7.977   8.701   1.301 -0.6100 -0.0425 -0.6722
  918MOL0     N21094   7.168   9.046   1.403 -0.4213 -0.6773  0.5063
  918MOL0     N21095   7.147   9.164   1.351  0.6235 -0.0582  0.6385
  918MOL0     C21096   7.132   9.300   0.461 -0.3748  0.8855 -0.6912
  918MOL0     C21097   7.256   9.276   0.409 -0.7582 -0.3681 -0.2489
  918MOL0     C21098   7.697   9.305   0.333 -0.7149 -0.4949 -0.6847
  918MOL0     C21099   7.727   9.366   0.200 -0.0276  0.1602  0.6814
  918MOL0     C21100   7.854   9.357   0.154 -0.3559  0.1620  0.7058
  918MOL0     C21101   7.956   9.304   0.229 -0.0573  0.8483 -0.5674
  918MOL0     O21102   8.085   9.298   0.186 -0.6017 -0.7195 -0.3314
  918MOL0     C21103   8.147   9.414   0.127 -0.2133  0.2721 -0.3961
  918MOL0     C21104   8.298   9.405   0.157 -0.3521 -0.0300  0.0041
  918MOL0     C21105   8.374   9.531   0.130 -0.5270 -1.1550  1.0228
  918MOL0     C21106   8.521   9.521   0.178 -0.6028 -0.9252 -0.1360
  918MOL0     C21107   8.622   9.621   0.147  1.3393 -0.1863  0.7809
  918MOL0     C21108   8.710   9.707   0.120 -0.5513  0.5187 -0.2727
  918MOL0     C21109   7.928   9.241   0.353 -0.6399  0.9914  0.1676
  918MOL0     C21110   7.803   9.247   0.411  0.8832  0.0707  0.6107
  918MOL0     H21111   7.343   9.601   0.347 -0.7328  1.3433  1.0513
  918MOL0     H21112   7.121   9.632   0.435  1.4443 -0.1732 -0.2565
  918MOL0     H21113   6.857   9.299   0.550 -0.1771 -0.6950  1.3402
  918MOL0     H21114   6.768   9.438   0.604  0.2714 -0.4616  0.4796
  918MOL0     H21115   7.020   9.325   0.718 -0.0291  2.0494 -0.3478
  918MOL0     H21116   6.865   9.322   0.802  1.7742  1.8798  4.1853
  918MOL0     H21117   6.863   9.581   0.791 -1.0152 -0.4622  1.2418
  918MOL0     H21118   7.034   9.579   0.770 -2.8877  2.5653 -1.5719
  918MOL0     H21119   6.919   9.603   1.000  2.6643 -0.2542  1.3173
  918MOL0     H21120   6.873   9.436   0.986  0.9873  0.1042  0.8183
  918MOL0     H21121   7.164   9.514   0.966  0.6042 -1.4698 -0.9327
  918MOL0     H21122   7.098   9.347   0.973  2.4802 -1.0441  3.5647
  918MOL0     H21123   7.015   9.367   1.172  2.2922 -3.2054 -0.3639
  918MOL0     H21124   7.050   9.544   1.196  0.3982 -1.0769  3.0370
  918MOL0     H21125   7.297   9.360   1.167 -0.7043 -0.8047  0.5667
  918MOL0     H21126   7.284   9.529   1.221 -0.9871  1.0585 -1.9489
  918MOL0     H21127   7.140   9.433   1.415 -1.2191  1.2405 -1.9853
  918MOL0     H21128   7.325   9.432   1.423  0.6311 -0.6268 -0.1940
  918MOL0     H21129   7.448   9.227   1.481  0.5637  1.7964 -2.3916
  918MOL0     H21130   7.323   8.854   1.528 -1.8449 -0.0937  2.8286
  918MOL0     H21131   7.399   8.981   1.625 -1.9030  0.6955  0.4256
  918MOL0     H21132   7.572   9.017   1.472 -0.5231  0.8427  2.2956
  918MOL0     H21133   7.500   8.902   1.346 -1.7052  0.9662 -0.6237
  918MOL0     H21134   7.617   8.817   1.616 -1.6353 -1.9638  0.0290
  918MOL0     H21135   7.535   8.715   1.499 -0.7612  0.9328 -1.4944
  918MOL0     H21136   7.797   8.697   1.501  1.6889 -0.5937 -2.5209
  918MOL0     H21137   7.797   8.870   1.470  0.3166 -1.2779  0.3465
  918MOL0     H21138   7.766   8.837   1.076 -2.1213 -4.1366  1.1770
  918MOL0     H21139   7.993   8.836   0.944 -1.2022 -2.1088 -0.9054
  918MOL0     H21140   8.237   9.135   0.988 -1.7944 -1.3769 -0.1432
  918MOL0     H21141   8.420   9.287   0.901  2.8695  0.6792 -1.3172
  918MOL0     H21142   8.706   9.308   0.622  1.4533  0.2683 -0.9105
  918MOL0     H21143   8.589   9.170   0.581 -0.9343  0.3600  1.5981
  918MOL0     H21144   8.857   9.164   0.548  2.9023  0.3788  1.9613
  918MOL0     H21145   8.773   9.022   0.628 -1.7166  0.5051 -2.5830
  918MOL0     H21146   8.993   9.087   0.705  0.9289  0.3895  1.6418
  918MOL0     H21147   8.874   9.098   0.843  0.6963  1.4691  1.5085
  918MOL0     H21148   8.967   9.329   0.685 -0.3177 -0.5111 -0.2884
  918MOL0     H21149   8.859   9.337   0.832 -1.1734 -1.3029 -1.2173
  918MOL0     H21150   9.127   9.382   0.839  0.8391  0.1199  0.8292
  918MOL0     H21151   9.140   9.213   0.837  1.9379  1.2881 -0.0922
  918MOL0     H21152   8.948   9.224   1.025 -0.9986  1.0117 -0.1141
  918MOL0     H21153   8.989   9.394   1.043  0.6291 -0.4946  1.9922
  918MOL0     H21154   9.145   9.158   1.131  0.3930  0.9099  2.0017
  918MOL0     H21155   9.240   9.270   1.043 -0.9985 -1.8607 -1.1811
  918MOL0     H21156   9.205   9.432   1.216 -2.5547  0.0538 -4.3685
  918MOL0     H21157   9.191   9.286   1.306  0.0406 -0.0376 -0.9837
  918MOL0     H21158   8.647   8.949   0.780  0.4857  3.7860 -1.1788
  918MOL0     H21159   8.454   8.795   0.841  3.2670  0.4973 -0.0585
  918MOL0     H21160   8.185   8.684   1.272  0.4309 -0.0483 -0.6781
  918MOL0     H21161   7.982   8.661   1.402  0.6995 -0.2553 -0.7969
  918MOL0     H21162   7.070   9.212   0.474 -0.0233  0.7168 -0.1328
  918MOL0     H21163   7.293   9.174   0.415 -0.0313 -0.0936  5.3598
  918MOL0     H21164   7.655   9.417   0.137 -0.6554 -1.8553 -0.3203
  918MOL0     H21165   7.883   9.401   0.058  1.4145 -1.8938  0.2060
  918MOL0     H21166   8.102   9.509   0.157  2.0860  1.4532 -0.5200
  918MOL0     H21167   8.136   9.409   0.018  0.8433 -1.5328 -0.4601
  918MOL0     H21168   8.300   9.386   0.265  2.9398  0.1398  0.0882
  918MOL0     H21169   8.352   9.327   0.104 -2.6038  0.3220 -3.0412
  918MOL0     H21170   8.329   9.619   0.175 -0.8141 -0.6080 -0.2925
  918MOL0     H21171   8.377   9.543   0.022 -0.9183 -1.1656  1.0105
  918MOL0     H21172   8.510   9.517   0.287  0.1987  2.4016  0.1702
  918MOL0     H21173   8.559   9.423   0.148  0.1615 -0.1335 -1.8637
  918MOL0     H21174   8.785   9.770   0.078 -2.8557  4.5382  1.1186
  918MOL0     H21175   8.007   9.189   0.407 -2.2360 -1.6798  0.0902
  918MOL0     H21176   7.786   9.196   0.505  1.9420  2.3005  2.1231
  919MOL0     O21177   9.487   1.554   8.419  0.3012 -0.7611  0.6155
  919MOL0     C21178   9.576   1.640   8.410  0.5032 -0.8837  0.2978
  919MOL0     O21179   9.547   1.780   8.412 -0.0762  0.9636  0.1902
  919MOL0     C21180   9.416   1.831   8.380 -0.3225  0.4088 -0.6187
  919MOL0     C21181   9.392   1.959   8.425  0.0439  0.0973  0.5622
  919MOL0     C21182   9.270   2.021   8.399 -0.6428  0.0610  1.0154
  919MOL0     C21183   9.179   1.958   8.315  0.6875  1.4509  0.8252
  919MOL0     O21184   9.061   2.017   8.280  0.1514  0.8916 -0.1086
  919MOL0     C21185   8.949   1.976   8.356 -0.3651  0.3623  0.7478
  919MOL0     C21186   8.815   2.061   8.331 -0.4586 -0.1941 -0.9956
  919MOL0     C21187   8.702   1.981   8.383 -0.3739 -0.1809 -0.3606
  919MOL0     C21188   8.562   2.046   8.371 -0.6385  0.1588  0.0044
  919MOL0     C21189   8.464   1.974   8.470 -0.3238 -0.4149  0.0378
  919MOL0     C21190   8.327   2.038   8.495 -0.5547 -0.8663 -0.2945
  919MOL0     C21191   8.249   2.075   8.373  0.6673 -0.2913 -1.5239
  919MOL0     C21192   8.104   2.135   8.411  0.2602  0.1751  0.0497
  919MOL0     N21193   8.031   2.152   8.291  0.1796  1.0452 -0.2793
  919MOL0     C21194   7.898   2.136   8.282 -0.0991 -0.3530  0.7156
  919MOL0     C21195   7.866   2.193   8.160 -0.1931  0.4884  0.1800
  919MOL0     C21196   7.721   2.205   8.099 -0.0577 -0.3017 -0.5287
  919MOL0     C21197   7.616   2.298   8.162 -0.3856  0.3133  0.6980
  919MOL0     C21198   7.531   2.371   8.050 -0.4094  0.5273  0.1762
  919MOL0     C21199   7.613   2.481   7.980 -0.0372  0.7402  0.7775
  919MOL0     O21200   7.517   2.553   7.900 -0.6133 -0.0735  0.5207
  919MOL0     C21201   7.458   2.661   7.956  0.2652 -0.1096  0.5646
  919MOL0     C21202   7.522   2.766   8.019  0.6310  0.4429  0.0190
  919MOL0     C21203   7.445   2.883   8.062 -1.0617  0.3643 -0.6289
  919MOL0     C21204   7.306   2.887   8.047 -0.5656  0.0005 -0.2662
  919MOL0     C21205   7.238   2.999   8.094 -0.0345 -1.2540  0.1927
  919MOL0     O21206   7.117   3.036   8.035 -0.2961  0.6742  0.3476
  919MOL0     C21207   7.042   3.130   8.100  0.0279 -0.2558 -0.5529
  919MOL0     C21208   6.976   3.107   8.217  0.3381  0.1478 -0.2101
  919MOL0     C21209   6.900   3.204   8.278 -0.2745 -0.5044 -0.6884
  919MOL0     C21210   6.896   3.340   8.237 -0.4541 -0.3475  0.2434
  919MOL0     O21211   6.841   3.438   8.317 -0.1198 -0.1035 -0.0373
  919MOL0     C21212   6.711   3.426   8.365 -1.1701 -0.2935  0.1138
  919MOL0     C21213   6.679   3.546   8.455  0.7502 -0.4037  0.2569
  919MOL0     C21214   6.534   3.509   8.515 -0.5411  0.1272 -0.3059
  919MOL0     C21215   6.503   3.608   8.633 -0.2289 -1.0257  1.4917
  919MOL0     C21216   6.478   3.759   8.602 -0.6659  0.3764  0.1533
  919MOL0     C21217   6.479   3.840   8.728 -1.1874 -0.6002 -0.3517
  919MOL0     C21218   6.430   3.993   8.696  0.4945  0.2578 -0.0753
  919MOL0     C21219   6.276   4.001   8.672 -0.0633 -0.9050 -0.8210
  919MOL0    Cl21220   6.217   4.147   8.587 -0.5529  0.2292 -0.1973
  919MOL0     C21221   6.975   3.366   8.125  0.1345  0.7771 -0.2165
  919MOL0     C21222   7.041   3.263   8.056 -1.1853  0.2381  0.4767
  919MOL0     O21223   7.287   3.056   8.192  0.1442  0.7544  0.5378
  919MOL0     C21224   7.252   2.781   7.974 -0.0708  0.0331 -0.0026
  919MOL0     C21225   7.321   2.674   7.931  0.4762  0.0892  0.8691
  919MOL0     N21226   7.978   2.227   8.098  0.3176  0.4943  0.0104
  919MOL0     N21227   8.076   2.217   8.181  0.1182 -0.3891 -0.3626
  919MOL0     C21228   9.211   1.832   8.259 -0.2095 -0.5495 -0.4992
  919MOL0     C21229   9.334   1.774   8.286 -0.8215 -0.1105 -0.5645
  919MOL0     C21230   9.722   1.604   8.429  0.1791  0.8934  0.4517
  919MOL0     C21231   9.765   1.468   8.422 -0.1204 -0.0663  0.4257
  919MOL0     C21232   9.898   1.436   8.431  0.9482  0.1926  0.0763
  919MOL0     C21233   9.994   1.529   8.453  0.6024  0.2282 -0.0600
  919MOL0     O21234  10.123   1.481   8.454  0.5266 -0.3590  0.2437
  919MOL0     C21235  10.227   1.564   8.503  0.4837 -0.0950 -0.2118
  919MOL0     C21236  10.341   1.481   8.459 -0.7430 -1.1676  0.2627
  919MOL0     C21237  10.363   1.488   8.306 -0.2719 -0.6857  0.1602
  919MOL0     C21238  10.479   1.400   8.251  0.7580 -0.3894  0.0059
  919MOL0     C21239  10.601   1.467   8.281  0.8613  0.7844 -0.3104
  919MOL0     C21240  10.707   1.512   8.305  0.0500 -0.0361  0.4563
  919MOL0     C21241   9.949   1.664   8.460  0.1478 -0.4851  0.1620
  919MOL0     C21242   9.816   1.699   8.452 -0.4055 -0.6118 -0.2885
  919MOL0     H21243   9.459   2.023   8.481  0.5057 -0.1863  0.3419
  919MOL0     H21244   9.243   2.119   8.437  1.1179 -0.6134  4.4546
  919MOL0     H21245   8.976   1.975   8.462  1.9706 -0.8308  0.2041
  919MOL0     H21246   8.924   1.877   8.317  1.3364 -0.7734  2.3997
  919MOL0     H21247   8.794   2.069   8.224  2.4731 -0.0663 -1.6625
  919MOL0     H21248   8.802   2.160   8.375  1.1560 -0.9962  1.4770
  919MOL0     H21249   8.721   1.950   8.486 -2.3972 -2.6568 -0.6246
  919MOL0     H21250   8.704   1.887   8.327 -0.0517 -0.0349 -0.5990
  919MOL0     H21251   8.570   2.152   8.397 -1.1385  0.4536 -0.9859
  919MOL0     H21252   8.520   2.040   8.270 -2.1131  1.8767  0.4694
  919MOL0     H21253   8.522   1.972   8.563  4.7404  0.8535 -2.7646
  919MOL0     H21254   8.444   1.872   8.436 -1.1941  0.0252 -0.8155
  919MOL0     H21255   8.354   2.132   8.545  2.7647 -1.5170 -0.5872
  919MOL0     H21256   8.269   1.976   8.564  0.5029 -1.1960  0.3250
  919MOL0     H21257   8.305   2.143   8.308  2.2557  0.4522  0.5280
  919MOL0     H21258   8.218   1.982   8.325 -0.9531 -0.2498 -0.6513
  919MOL0     H21259   8.120   2.223   8.474  1.1681 -0.8290  1.2785
  919MOL0     H21260   8.045   2.060   8.465  1.4135 -0.9345 -0.1808
  919MOL0     H21261   7.828   2.091   8.352 -2.2583  1.9878  0.2164
  919MOL0     H21262   7.674   2.107   8.115 -1.5111 -0.1045 -2.9571
  919MOL0     H21263   7.712   2.208   7.990 -1.8515 -0.9493 -0.4298
  919MOL0     H21264   7.665   2.375   8.223 -1.1516 -0.4376  2.3505
  919MOL0     H21265   7.555   2.229   8.221  0.2825 -2.8627 -2.0558
  919MOL0     H21266   7.487   2.308   7.973  0.8833  0.7614 -0.7971
  919MOL0     H21267   7.455   2.426   8.107 -3.5035 -2.5729 -0.6438
  919MOL0     H21268   7.698   2.446   7.920 -0.0927  0.2050  1.0026
  919MOL0     H21269   7.655   2.543   8.059 -0.8746  1.4133  0.7007
  919MOL0     H21270   7.629   2.756   8.028  0.3889 -3.1539  0.2238
  919MOL0     H21271   7.504   2.964   8.103 -0.1507  0.6869 -2.4633
  919MOL0     H21272   6.969   3.001   8.241 -1.6099  0.6502  1.8783
  919MOL0     H21273   6.858   3.176   8.374  0.6438 -0.6991 -0.3399
  919MOL0     H21274   6.702   3.341   8.434 -2.7074 -1.2470 -1.1981
  919MOL0     H21275   6.646   3.414   8.278  2.3244 -1.8859 -2.5100
  919MOL0     H21276   6.669   3.640   8.400 -3.0961 -1.8823 -1.9735
  919MOL0     H21277   6.754   3.566   8.532  1.2675  0.6275 -0.4926
  919MOL0     H21278   6.540   3.405   8.551  1.5038  0.8238  1.5837
  919MOL0     H21279   6.455   3.519   8.440  1.1336 -0.2227 -2.1788
  919MOL0     H21280   6.414   3.565   8.679 -0.9751  0.3155  1.3184
  919MOL0     H21281   6.582   3.594   8.708  1.1301 -0.6310  0.1987
  919MOL0     H21282   6.388   3.760   8.540  0.1214  0.3039 -1.0074
  919MOL0     H21283   6.558   3.800   8.540  2.3626 -1.6106  2.4351
  919MOL0     H21284   6.574   3.833   8.781 -2.1687 -2.5885  1.2605
  919MOL0     H21285   6.399   3.798   8.789  0.6816  1.0565  3.6112
  919MOL0     H21286   6.452   4.065   8.776 -2.9342  0.5393  0.7622
  919MOL0     H21287   6.475   4.030   8.604 -0.3294 -0.3336 -0.7279
  919MOL0     H21288   6.226   4.003   8.769  0.7935  3.6925 -0.2639
  919MOL0     H21289   6.242   3.918   8.609  1.4911 -2.2985  0.1010
  919MOL0     H21290   6.992   3.460   8.074  0.2671  0.2215 -1.2200
  919MOL0     H21291   7.091   3.276   7.961  0.4644  1.2486  1.4193
  919MOL0     H21292   7.145   2.787   7.954 -0.9783  1.6985  4.2216
  919MOL0     H21293   7.267   2.597   7.877 -1.2843  2.9569 -1.8024
  919MOL0     H21294   9.137   1.775   8.205 -0.3759 -0.8694  0.0567
  919MOL0     H21295   9.352   1.677   8.240  3.4752  0.6353 -0.8544
  919MOL0     H21296   9.681   1.401   8.405 -1.0320  1.7126 -2.9789
  919MOL0     H21297   9.928   1.332   8.418  0.7083  0.0848  0.3710
  919MOL0     H21298  10.221   1.556   8.612  0.8064 -1.3316 -0.2691
  919MOL0     H21299  10.236   1.666   8.466 -0.2163 -0.0198 -0.1861
  919MOL0     H21300  10.429   1.521   8.510 -0.4011  1.0907 -1.9066
  919MOL0     H21301  10.338   1.375   8.484  1.2820 -1.9696 -2.4395
  919MOL0     H21302  10.365   1.594   8.278  0.8764 -0.2016  1.9443
  919MOL0     H21303  10.274   1.446   8.260  0.2219 -0.3551 -1.1666
  919MOL0     H21304  10.466   1.301   8.294 -2.4404  0.0322  0.2609
  919MOL0     H21305  10.470   1.405   8.142 -0.1718  1.8004  0.1267
  919MOL0     H21306  10.810   1.540   8.297  1.7012 -5.3235 -0.7774
  919MOL0     H21307  10.016   1.748   8.478  1.0839 -1.0613 -0.5677
  919MOL0     H21308   9.787   1.801   8.472 -1.2557 -0.4472 -2.1874
  920MOL0     O21309   5.477   4.594   7.288  0.4984 -0.5115  0.1148
  920MOL0     C21310   5.407   4.518   7.361  0.4433 -0.2889  0.2522
  920MOL0     O21311   5.455   4.416   7.435  0.6600  0.4709 -0.2889
  920MOL0     C21312   5.590   4.374   7.427  0.7542  0.2980  0.4099
  920MOL0     C21313   5.654   4.358   7.301 -0.0439  0.6513  1.0263
  920MOL0     C21314   5.790   4.329   7.280  1.4804 -0.4750  1.3973
  920MOL0     C21315   5.866   4.319   7.397 -0.2885  0.2554  0.4197
  920MOL0     O21316   5.999   4.294   7.366 -0.2408  0.2982  0.3337
  920MOL0     C21317   6.087   4.299   7.483  0.3470 -0.5207  0.2542
  920MOL0     C21318   6.102   4.440   7.536  0.7547  0.8027  0.6326
  920MOL0     C21319   6.131   4.541   7.421  0.2340  0.0602  0.3240
  920MOL0     C21320   6.139   4.680   7.496 -0.1305  0.2614  0.4979
  920MOL0     C21321   6.193   4.797   7.412 -0.8240  0.7676 -0.7251
  920MOL0     C21322   6.342   4.778   7.364 -0.1132 -0.3970 -0.5069
  920MOL0     C21323   6.450   4.778   7.489 -0.1182 -0.4830 -0.5635
  920MOL0     C21324   6.596   4.814   7.446  0.6143 -0.3816  0.4600
  920MOL0     N21325   6.653   4.706   7.367 -0.0039  0.6592  0.6390
  920MOL0     C21326   6.719   4.605   7.422 -0.4249 -0.7163 -0.0150
  920MOL0     C21327   6.768   4.529   7.315  0.1548  0.5639  0.0952
  920MOL0     C21328   6.866   4.414   7.343 -0.9285 -0.7391 -0.2945
  920MOL0     C21329   7.017   4.463   7.335 -0.3755 -0.2629  0.5142
  920MOL0     C21330   7.049   4.516   7.197 -0.1025 -0.9019 -0.0638
  920MOL0     C21331   7.042   4.405   7.088 -0.9950  0.2831 -1.6400
  920MOL0     O21332   7.144   4.310   7.110  0.1284 -0.2765  0.3116
  920MOL0     C21333   7.278   4.345   7.080  0.4893 -0.1983 -0.3656
  920MOL0     C21334   7.314   4.432   6.975 -0.2024  0.7511 -0.7715
  920MOL0     C21335   7.450   4.448   6.959 -0.1409 -0.0002 -0.1544
  920MOL0     C21336   7.550   4.398   7.047 -0.5004  0.0625  1.1969
  920MOL0     C21337   7.692   4.428   7.030  0.2162 -0.6136 -0.7554
  920MOL0     O21338   7.725   4.447   6.896  0.1604  0.0963 -0.1354
  920MOL0     C21339   7.845   4.503   6.865 -0.5294 -0.6130 -0.7424
  920MOL0     C21340   7.838   4.628   6.799  0.2264  0.5740  0.8567
  920MOL0     C21341   7.953   4.706   6.773  0.5924  0.3863  0.4155
  920MOL0     C21342   8.075   4.661   6.819  0.2183 -0.7190  0.4419
  920MOL0     O21343   8.180   4.738   6.792  0.1158 -0.1192  0.0386
  920MOL0     C21344   8.319   4.695   6.826  0.5707  0.1497 -0.5517
  920MOL0     C21345   8.428   4.798   6.811  0.4388 -1.2163 -0.3249
  920MOL0     C21346   8.445   4.854   6.670  0.0272 -0.3150 -0.2596
  920MOL0     C21347   8.535   4.974   6.643 -0.5374  0.5460  1.0118
  920MOL0     C21348   8.562   4.994   6.497  1.1330 -1.2301  0.3208
  920MOL0     C21349   8.621   5.133   6.467 -0.3202  0.6778 -0.6469
  920MOL0     C21350   8.749   5.155   6.552  0.0622  0.1278  0.6496
  920MOL0     C21351   8.824   5.291   6.518  0.1923  0.4003 -0.0934
  920MOL0    Cl21352   8.873   5.299   6.345 -0.2863  0.4732  0.3765
  920MOL0     C21353   8.082   4.537   6.888 -0.5041 -0.1229  0.3466
  920MOL0     C21354   7.969   4.458   6.905  0.4322  0.5820 -0.6275
  920MOL0     O21355   7.762   4.443   7.126 -0.1166 -0.1592 -0.4952
  920MOL0     C21356   7.507   4.309   7.144 -0.2358 -0.5701  0.4720
  920MOL0     C21357   7.371   4.281   7.153  0.1184 -0.1272 -0.6815
  920MOL0     N21358   6.714   4.574   7.200  0.0302 -0.1252 -0.4157
  920MOL0     N21359   6.653   4.689   7.225  0.3667 -0.6935  0.1049
  920MOL0     C21360   5.801   4.308   7.520 -0.2598  0.7349  0.1088
  920MOL0     C21361   5.667   4.345   7.541 -0.2178 -0.0563 -0.0804
  920MOL0     C21362   5.264   4.546   7.367 -0.2473 -0.1118  0.8080
  920MOL0     C21363   5.177   4.452   7.421 -1.0132 -0.3252  0.8756
  920MOL0     C21364   5.045   4.482   7.439 -0.4009 -0.2752 -0.4801
  920MOL0     C21365   4.988   4.589   7.384 -0.1273  0.1454 -0.9085
  920MOL0     O21366   4.850   4.618   7.384  0.2518 -0.4812  0.3450
  920MOL0     C21367   4.766   4.547   7.469 -0.3042  1.7819  0.3885
  920MOL0     C21368   4.624   4.601   7.444 -0.1835  0.8688  0.4456
  920MOL0     C21369   4.619   4.752   7.489  0.0242 -0.0261 -1.3091
  920MOL0     C21370   4.623   4.748   7.646  0.1666  0.4060 -1.5839
  920MOL0     C21371   4.553   4.861   7.710  0.3778  1.3718  0.5452
  920MOL0     C21372   4.483   4.934   7.775  0.6177 -0.3379  1.3119
  920MOL0     C21373   5.070   4.686   7.326 -0.1532  0.3779 -0.5470
  920MOL0     C21374   5.209   4.664   7.319  0.1974 -0.5747  0.3236
  920MOL0     H21375   5.596   4.370   7.209  2.7969  0.8923 -0.8601
  920MOL0     H21376   5.831   4.332   7.180  2.3882  1.3279  1.7774
  920MOL0     H21377   6.184   4.267   7.446  2.1296  2.6228  1.7160
  920MOL0     H21378   6.057   4.223   7.556 -1.9544 -0.6774 -0.7659
  920MOL0     H21379   6.181   4.443   7.612 -1.3870  1.8860  2.9628
  920MOL0     H21380   6.021   4.475   7.600  1.8923  1.7356  1.6193
  920MOL0     H21381   6.056   4.541   7.341  0.4477  0.1705  0.1226
  920MOL0     H21382   6.233   4.513   7.392  1.3434  0.5683  3.3608
  920MOL0     H21383   6.035   4.703   7.522 -1.1653 -0.6080 -2.3817
  920MOL0     H21384   6.198   4.667   7.586  1.7345 -0.9054 -0.8200
  920MOL0     H21385   6.193   4.883   7.479 -0.9710 -1.1739  1.9675
  920MOL0     H21386   6.127   4.816   7.327 -1.0545  2.4675 -0.1917
  920MOL0     H21387   6.358   4.855   7.288  1.6884 -1.2324 -1.0355
  920MOL0     H21388   6.354   4.680   7.317 -1.6574  0.1574 -2.1849
  920MOL0     H21389   6.415   4.847   7.567  2.6584 -0.7344  1.0530
  920MOL0     H21390   6.462   4.679   7.535  1.9250 -0.3178 -0.6524
  920MOL0     H21391   6.654   4.834   7.537 -0.0072 -2.3747  1.3631
  920MOL0     H21392   6.586   4.902   7.382 -1.9571 -0.8256  0.1514
  920MOL0     H21393   6.735   4.585   7.527  0.0422  2.6831  0.6781
  920MOL0     H21394   6.842   4.335   7.271 -0.7844 -0.6501 -0.4402
  920MOL0     H21395   6.848   4.377   7.445 -3.7545  1.5750  0.1863
  920MOL0     H21396   7.089   4.381   7.346 -1.8451 -1.6378  0.2301
  920MOL0     H21397   7.042   4.540   7.408 -1.3705 -0.4728  1.0950
  920MOL0     H21398   6.993   4.607   7.174 -0.7153 -1.0796  0.6792
  920MOL0     H21399   7.154   4.548   7.192  0.1665 -1.9135 -1.6313
  920MOL0     H21400   7.039   4.441   6.985 -2.1629 -0.1853 -1.7845
  920MOL0     H21401   6.950   4.347   7.103 -0.6805  0.0640 -0.4955
  920MOL0     H21402   7.231   4.469   6.916 -0.5356 -2.7699 -2.8100
  920MOL0     H21403   7.495   4.503   6.877  0.4910 -0.3085 -0.0211
  920MOL0     H21404   7.737   4.662   6.780  0.5284  1.6784  1.1545
  920MOL0     H21405   7.945   4.785   6.700 -0.9574 -1.8762 -2.0895
  920MOL0     H21406   8.341   4.618   6.751 -1.4829  0.0710 -1.1226
  920MOL0     H21407   8.322   4.645   6.923 -1.1814  1.8190  0.4379
  920MOL0     H21408   8.522   4.745   6.829  0.1889 -0.7359  3.1451
  920MOL0     H21409   8.436   4.874   6.889  2.4548 -2.5698  0.8756
  920MOL0     H21410   8.344   4.893   6.653  0.9182  1.8059 -0.9049
  920MOL0     H21411   8.477   4.779   6.597  2.4308  1.5834 -1.3047
  920MOL0     H21412   8.485   5.062   6.684  0.9485  3.2710 -2.4445
  920MOL0     H21413   8.627   4.950   6.696 -0.4852 -0.6188  0.4272
  920MOL0     H21414   8.463   5.005   6.453  1.3866 -0.8362 -0.1707
  920MOL0     H21415   8.629   4.918   6.456  1.4900  1.0507 -3.9645
  920MOL0     H21416   8.543   5.207   6.487 -1.5000 -0.7446  0.2096
  920MOL0     H21417   8.626   5.137   6.358  0.9145 -3.2237 -0.8829
  920MOL0     H21418   8.731   5.156   6.659  0.4189  2.7481  0.7493
  920MOL0     H21419   8.819   5.074   6.528  1.6311  1.5340  0.2823
  920MOL0     H21420   8.921   5.296   6.567 -0.2745  0.6556  0.8272
  920MOL0     H21421   8.760   5.375   6.546  0.0940 -0.8496  4.1426
  920MOL0     H21422   8.173   4.493   6.926 -0.8618 -1.7121 -0.5319
  920MOL0     H21423   7.980   4.364   6.957  2.0216  1.2301  0.3040
  920MOL0     H21424   7.580   4.259   7.206  1.6507  0.6818 -0.6179
  920MOL0     H21425   7.361   4.211   7.236  0.9300 -3.0596 -2.8978
  920MOL0     H21426   5.862   4.285   7.606  0.1168  0.2015 -0.3006
  920MOL0     H21427   5.641   4.342   7.646 -0.8997  0.5386 -0.2217
  920MOL0     H21428   5.212   4.359   7.464 -0.2274 -2.3907 -3.6449
  920MOL0     H21429   4.990   4.413   7.503  1.5845  1.6246  3.6737
  920MOL0     H21430   4.795   4.567   7.573  2.2723 -0.3213  0.2017
  920MOL0     H21431   4.777   4.438   7.464  3.6101  1.8769  2.5329
  920MOL0     H21432   4.602   4.588   7.338  1.6501 -0.1475  0.1448
  920MOL0     H21433   4.545   4.547   7.496 -0.0078 -1.3087 -1.4160
  920MOL0     H21434   4.528   4.791   7.444 -0.9356 -1.6772 -0.9146
  920MOL0     H21435   4.706   4.809   7.457 -0.6137  1.6363 -0.2248
  920MOL0     H21436   4.584   4.653   7.682  1.2193  0.5283 -0.0492
  920MOL0     H21437   4.727   4.733   7.678 -0.5954 -1.1692  0.3308
  920MOL0     H21438   4.422   4.991   7.842  0.8201  0.7749  0.5717
  920MOL0     H21439   5.020   4.775   7.289 -2.7242 -1.0821 -0.8089
  920MOL0     H21440   5.262   4.748   7.275 -0.0654 -1.4740 -1.8310
  921MOL0     O21441   9.798   4.792   1.072 -0.8704  0.5815 -0.5053
  921MOL0     C21442   9.787   4.907   1.016 -0.6016  0.6922 -0.3947
  921MOL0     O21443   9.694   4.944   0.926 -0.0581 -0.2727  0.2688
  921MOL0     C21444   9.581   4.874   0.892  0.3245 -0.4272  1.3562
  921MOL0     C21445   9.536   4.755   0.952  0.4480 -0.4366  0.1314
  921MOL0     C21446   9.424   4.693   0.901  0.2204 -0.3552  0.3920
  921MOL0     C21447   9.358   4.734   0.791 -0.2786  0.9449 -0.1230
  921MOL0     O21448   9.253   4.660   0.751  0.7817 -0.0405 -0.1285
  921MOL0     C21449   9.150   4.709   0.672 -0.8802 -0.0942  0.7190
  921MOL0     C21450   9.153   4.656   0.527  0.2057  0.3766  0.6320
  921MOL0     C21451   9.032   4.705   0.444 -0.2709 -0.2555 -0.2628
  921MOL0     C21452   8.926   4.596   0.428 -0.8290  0.3165  0.4057
  921MOL0     C21453   8.786   4.637   0.473 -0.5069 -0.2187 -0.9226
  921MOL0     C21454   8.704   4.504   0.497 -0.3695  0.9320 -0.0105
  921MOL0     C21455   8.684   4.417   0.368  0.8075  1.0352  0.1449
  921MOL0     C21456   8.630   4.276   0.388 -0.2780  0.5814  0.6211
  921MOL0     N21457   8.488   4.266   0.440  0.2596  0.4392 -0.8639
  921MOL0     C21458   8.455   4.187   0.548  1.4789  0.0467  0.8754
  921MOL0     C21459   8.327   4.204   0.564  0.5794  0.1487  0.1115
  921MOL0     C21460   8.249   4.165   0.684  0.0755 -0.4411  0.2825
  921MOL0     C21461   8.230   4.009   0.702  0.0677 -1.0637 -0.1763
  921MOL0     C21462   8.126   3.943   0.619 -0.1818 -0.1919 -0.6353
  921MOL0     C21463   7.998   4.031   0.595 -0.5155  0.5898 -0.0005
  921MOL0     O21464   7.900   3.938   0.548 -0.4168 -0.4063  0.3162
  921MOL0     C21465   7.806   3.883   0.639 -0.1150 -0.7899  0.6380
  921MOL0     C21466   7.697   3.809   0.581  0.2580 -0.4414  0.2672
  921MOL0     C21467   7.606   3.747   0.666  0.7675  0.2248  0.7248
  921MOL0     C21468   7.613   3.751   0.804  0.3109 -0.7382 -0.1487
  921MOL0     C21469   7.505   3.679   0.881  0.0460 -0.7941  1.0180
  921MOL0     O21470   7.384   3.652   0.817 -0.0629 -0.1703  0.5292
  921MOL0     C21471   7.269   3.605   0.878  0.3310 -0.1312  0.9928
  921MOL0     C21472   7.163   3.615   0.782  0.2878 -0.0332 -0.1160
  921MOL0     C21473   7.029   3.577   0.829 -0.4062 -0.8509  0.0417
  921MOL0     C21474   7.005   3.538   0.964  0.0426 -0.8971  0.3257
  921MOL0     O21475   6.878   3.498   0.994  0.3291  0.5300 -0.3366
  921MOL0     C21476   6.828   3.514   1.132 -0.3426  0.6358  0.3074
  921MOL0     C21477   6.677   3.536   1.133 -0.0672  0.1463  0.2171
  921MOL0     C21478   6.605   3.420   1.068  0.7829 -0.7679 -0.7127
  921MOL0     C21479   6.457   3.433   1.088  0.4700  0.0363 -0.4191
  921MOL0     C21480   6.354   3.336   1.029 -0.2861  0.3546 -0.2182
  921MOL0     C21481   6.340   3.344   0.876 -0.2030  0.4837  0.3069
  921MOL0     C21482   6.243   3.221   0.833  0.4993 -0.0215 -0.8590
  921MOL0     C21483   6.100   3.255   0.872  0.2554  0.2937  0.0274
  921MOL0    Cl21484   6.001   3.149   0.762  0.0948 -0.4554  0.0739
  921MOL0     C21485   7.110   3.535   1.053 -0.4930  0.6805  0.1005
  921MOL0     C21486   7.239   3.562   1.016  0.3499  0.5573  0.1891
  921MOL0     O21487   7.531   3.656   0.997  0.2140 -0.0662  0.2523
  921MOL0     C21488   7.719   3.830   0.858  0.7332  0.8545 -0.0109
  921MOL0     C21489   7.819   3.880   0.778 -0.6808 -0.6951  0.3894
  921MOL0     N21490   8.267   4.280   0.456  0.0659  0.8225  0.3276
  921MOL0     N21491   8.367   4.315   0.381 -0.3611  0.1012 -0.8901
  921MOL0     C21492   9.406   4.850   0.730 -0.0405  0.2246 -0.2153
  921MOL0     C21493   9.515   4.917   0.767  0.1789 -0.2710 -0.6097
  921MOL0     C21494   9.879   5.003   1.076  0.8996 -0.5346  0.0400
  921MOL0     C21495   9.864   5.145   1.049  0.3240  0.5400 -0.2077
  921MOL0     C21496   9.952   5.240   1.090 -0.2752  0.0579  0.0510
  921MOL0     C21497  10.066   5.198   1.166 -0.6291  0.9251  0.2659
  921MOL0     O21498  10.160   5.282   1.213 -0.0176  0.4083  0.2556
  921MOL0     C21499  10.114   5.406   1.261  0.2953  1.0591  0.5538
  921MOL0     C21500  10.037   5.391   1.390 -0.2749 -0.3331  0.1524
  921MOL0     C21501   9.949   5.516   1.418 -0.7717 -0.2208 -0.1427
  921MOL0     C21502   9.811   5.487   1.469 -0.2737  0.1285 -0.5677
  921MOL0     C21503   9.755   5.614   1.506 -0.7436 -0.5327 -0.2724
  921MOL0     C21504   9.697   5.719   1.557  0.4091 -0.3442  0.1403
  921MOL0     C21505  10.081   5.063   1.186 -0.4181 -0.7458 -0.2220
  921MOL0     C21506   9.992   4.962   1.152 -0.1574  0.0364  0.9902
  921MOL0     H21507   9.570   4.707   1.044  0.9676  1.6520  1.0848
  921MOL0     H21508   9.386   4.597   0.937 -0.4769  0.8167  3.0415
  921MOL0     H21509   9.148   4.818   0.671  1.2203  0.1772 -4.0604
  921MOL0     H21510   9.061   4.667   0.721  0.6606  0.9222  4.7543
  921MOL0     H21511   9.146   4.547   0.534 -1.0872  0.2995 -1.0515
  921MOL0     H21512   9.250   4.674   0.479 -0.4820 -1.6915 -1.8151
  921MOL0     H21513   9.054   4.750   0.347  0.2794  1.9632  0.8252
  921MOL0     H21514   8.987   4.792   0.495 -0.8986 -2.3596  3.0954
  921MOL0     H21515   8.928   4.569   0.322 -0.2747  0.0645  0.4737
  921MOL0     H21516   8.961   4.503   0.473 -1.6136 -0.5380 -0.7008
  921MOL0     H21517   8.739   4.699   0.396  1.0349 -0.5645 -2.1689
  921MOL0     H21518   8.795   4.690   0.569 -1.1176 -0.7804 -0.5421
  921MOL0     H21519   8.612   4.549   0.535 -1.4178  1.4068 -2.8814
  921MOL0     H21520   8.750   4.443   0.575 -2.7172 -1.9256 -0.6774
  921MOL0     H21521   8.612   4.476   0.311 -1.7941 -1.9600  0.0601
  921MOL0     H21522   8.786   4.400   0.331  0.3155 -1.8409 -0.1682
  921MOL0     H21523   8.697   4.216   0.450 -1.3140  0.7652  1.9743
  921MOL0     H21524   8.641   4.222   0.294  4.1138  1.7840  0.2400
  921MOL0     H21525   8.520   4.119   0.603 -1.0510 -2.9805  0.4569
  921MOL0     H21526   8.157   4.223   0.693  0.5684  0.0603  3.0164
  921MOL0     H21527   8.307   4.188   0.774  1.3526 -2.7441  0.1271
  921MOL0     H21528   8.205   4.006   0.808 -1.3495  0.8730 -0.3989
  921MOL0     H21529   8.321   3.951   0.685 -0.1482 -1.8064  1.0632
  921MOL0     H21530   8.161   3.910   0.521  0.1334  0.0097 -0.5929
  921MOL0     H21531   8.099   3.852   0.674  2.1138 -0.4941  0.0968
  921MOL0     H21532   8.023   4.103   0.517  0.6095 -0.7707 -0.9526
  921MOL0     H21533   7.981   4.088   0.687  1.3876 -0.3049  0.9750
  921MOL0     H21534   7.684   3.804   0.473  1.1367  2.3071 -0.0339
  921MOL0     H21535   7.530   3.687   0.617 -1.1750  1.1676  2.4234
  921MOL0     H21536   7.187   3.649   0.682  0.8606  1.3731  0.4683
  921MOL0     H21537   6.938   3.597   0.773  1.1778 -1.1964 -2.8407
  921MOL0     H21538   6.883   3.591   1.186  0.7685 -1.1848  1.9462
  921MOL0     H21539   6.835   3.421   1.189 -1.8032 -1.1571 -2.2316
  921MOL0     H21540   6.650   3.619   1.066 -2.3730 -0.0057  0.8545
  921MOL0     H21541   6.652   3.547   1.239 -1.3807 -3.5650  0.4439
  921MOL0     H21542   6.642   3.331   1.120  3.2226 -0.1736 -1.2748
  921MOL0     H21543   6.631   3.415   0.962  1.7029  0.6545 -0.5901
  921MOL0     H21544   6.440   3.421   1.196 -1.8182  0.6159 -0.6541
  921MOL0     H21545   6.420   3.530   1.054  0.7632 -0.3722 -1.9797
  921MOL0     H21546   6.259   3.363   1.076 -0.2742 -0.0327  0.0320
  921MOL0     H21547   6.388   3.237   1.062 -2.2402 -0.6823 -1.1318
  921MOL0     H21548   6.435   3.331   0.823  1.3501  2.0777  2.5659
  921MOL0     H21549   6.290   3.438   0.851 -1.4083 -0.5144 -1.2538
  921MOL0     H21550   6.246   3.216   0.723 -5.1693  0.4568 -1.3531
  921MOL0     H21551   6.278   3.128   0.878  1.2214  0.8578  0.4357
  921MOL0     H21552   6.075   3.360   0.854 -0.3898 -0.0951 -1.4354
  921MOL0     H21553   6.086   3.229   0.978  1.2560 -0.2593  0.0385
  921MOL0     H21554   7.099   3.511   1.159  1.0527  1.3519  0.4397
  921MOL0     H21555   7.326   3.556   1.080 -0.7462 -1.2342  1.6060
  921MOL0     H21556   7.719   3.863   0.961 -0.5163 -1.0896  0.6514
  921MOL0     H21557   7.896   3.943   0.822 -0.7267 -0.7577  0.5593
  921MOL0     H21558   9.340   4.886   0.652 -2.7644  3.4193  3.2176
  921MOL0     H21559   9.566   4.998   0.715 -0.0968  0.5408  0.3600
  921MOL0     H21560   9.780   5.182   0.991 -0.6654  1.8644  1.9656
  921MOL0     H21561   9.919   5.343   1.077  2.8950  1.0770 -0.9757
  921MOL0     H21562  10.045   5.451   1.188  0.4847  1.9586  0.9082
  921MOL0     H21563  10.198   5.472   1.284 -0.4873  1.3917  2.6962
  921MOL0     H21564   9.970   5.305   1.388 -4.5286  2.4521  3.1521
  921MOL0     H21565  10.121   5.376   1.459  0.1647 -4.0709 -1.0016
  921MOL0     H21566   9.932   5.572   1.326 -3.0901  2.3155  1.6616
  921MOL0     H21567   9.998   5.580   1.493 -0.4785 -1.7483  1.0260
  921MOL0     H21568   9.750   5.442   1.390  2.8937 -2.7076 -1.6019
  921MOL0     H21569   9.797   5.420   1.554 -0.1980 -0.1351 -0.7611
  921MOL0     H21570   9.645   5.806   1.592 -1.1244 -1.2813  0.2927
  921MOL0     H21571  10.178   5.043   1.231 -0.1427  0.3251 -0.3217
  921MOL0     H21572  10.026   4.862   1.179 -0.1317  0.1549  1.3923
  922MOL0     O21573   5.504   3.623   1.102 -0.8852  0.2636  0.0140
  922MOL0     C21574   5.561   3.583   1.205  0.1678  0.1301 -0.3996
  922MOL0     O21575   5.697   3.547   1.214  0.1415 -0.0355  0.8933
  922MOL0     C21576   5.786   3.584   1.131 -0.1047  0.7573 -0.8341
  922MOL0     C21577   5.780   3.576   0.987 -0.4343 -0.2316  1.2895
  922MOL0     C21578   5.886   3.609   0.901 -0.9695  0.2751  0.4913
  922MOL0     C21579   6.000   3.663   0.966 -0.1224  0.2036  1.2296
  922MOL0     O21580   6.102   3.719   0.893  0.4054  0.4262 -0.6413
  922MOL0     C21581   6.097   3.863   0.891 -0.0625  0.1033  0.2851
  922MOL0     C21582   6.241   3.904   0.862 -0.7136  0.3240  0.7286
  922MOL0     C21583   6.329   3.816   0.775  0.2789 -0.0262 -0.3974
  922MOL0     C21584   6.481   3.832   0.808 -0.7293  0.5791 -0.5101
  922MOL0     C21585   6.576   3.745   0.724  0.1982  0.1756 -0.4563
  922MOL0     C21586   6.687   3.816   0.648  0.3612 -0.0060 -0.4890
  922MOL0     C21587   6.783   3.887   0.739 -0.0884 -0.6739 -0.8225
  922MOL0     C21588   6.900   3.965   0.664 -0.3719 -1.5063 -0.8417
  922MOL0     N21589   6.975   4.033   0.777  0.2748 -0.3098  1.3186
  922MOL0     C21590   7.085   3.970   0.833 -0.0780  0.4553 -0.8009
  922MOL0     C21591   7.132   4.063   0.916  0.2302 -0.2318  0.8273
  922MOL0     C21592   7.248   4.047   1.010 -0.9455 -0.3214 -0.7807
  922MOL0     C21593   7.385   4.097   0.961 -0.1021  0.2166 -0.1760
  922MOL0     C21594   7.496   4.068   1.052  1.6183 -0.4566  0.3911
  922MOL0     C21595   7.630   4.130   1.000  0.2291 -0.0103 -0.8054
  922MOL0     O21596   7.733   4.068   1.071  0.4200 -0.1779 -0.6845
  922MOL0     C21597   7.859   4.115   1.072  0.0552  0.1578 -1.0854
  922MOL0     C21598   7.950   4.059   1.159 -0.0776 -0.3068 -0.1962
  922MOL0     C21599   8.080   4.104   1.167  0.1653  0.5166 -0.3018
  922MOL0     C21600   8.130   4.193   1.073 -0.1951  0.5700  0.5982
  922MOL0     C21601   8.273   4.226   1.072  0.3526  0.1473 -0.6359
  922MOL0     O21602   8.300   4.327   0.978  0.2241  0.1679 -0.2388
  922MOL0     C21603   8.425   4.389   0.977 -0.2629  0.2605  0.2817
  922MOL0     C21604   8.485   4.436   0.859  0.5361  0.3582 -0.6488
  922MOL0     C21605   8.618   4.490   0.864 -0.2216 -0.3010 -0.1483
  922MOL0     C21606   8.677   4.526   0.991  0.0234 -0.6497  0.2606
  922MOL0     O21607   8.803   4.589   0.989  0.6705  0.0883 -0.2114
  922MOL0     C21608   8.831   4.685   1.092 -0.2413  0.1568 -0.0856
  922MOL0     C21609   8.974   4.746   1.061 -0.2337  0.4465 -0.4825
  922MOL0     C21610   9.007   4.857   1.158  0.3007  0.8581 -0.2301
  922MOL0     C21611   9.146   4.912   1.135  0.7803 -0.1600  0.1345
  922MOL0     C21612   9.180   4.993   1.254 -0.0392 -0.7283  0.0564
  922MOL0     C21613   9.338   5.020   1.261  0.7605  0.1208 -0.2895
  922MOL0     C21614   9.385   5.100   1.139  0.2874  0.7407 -0.9380
  922MOL0     C21615   9.537   5.132   1.145 -0.1607 -0.4232  0.2750
  922MOL0    Cl21616   9.564   5.240   1.278 -0.0987  0.1523  0.0366
  922MOL0     C21617   8.596   4.507   1.103  0.2814 -0.0977 -0.5502
  922MOL0     C21618   8.482   4.428   1.098 -0.4507 -0.1939  0.9131
  922MOL0     O21619   8.350   4.178   1.151  0.1302  0.3843 -0.0795
  922MOL0     C21620   8.040   4.249   0.990 -0.0168  0.2308  1.4051
  922MOL0     C21621   7.900   4.208   0.979 -0.1889 -0.3756 -0.5536
  922MOL0     N21622   7.045   4.175   0.905 -0.6722  0.0132 -0.6746
  922MOL0     N21623   6.960   4.162   0.817  0.8798 -0.1026  0.7313
  922MOL0     C21624   6.011   3.675   1.105 -0.0695 -0.0379  0.3816
  922MOL0     C21625   5.907   3.621   1.188 -0.3559 -0.3504  0.9954
  922MOL0     C21626   5.477   3.540   1.314 -0.8972  0.0751 -0.5448
  922MOL0     C21627   5.343   3.568   1.317  0.2640  0.7522 -0.3441
  922MOL0     C21628   5.261   3.509   1.414  0.3042  0.0119 -0.0681
  922MOL0     C21629   5.311   3.442   1.525  0.8583  0.2783 -0.0984
  922MOL0     O21630   5.238   3.374   1.619 -0.4618  0.4547  0.2218
  922MOL0     C21631   5.108   3.425   1.644 -0.0592 -0.6906  0.2200
  922MOL0     C21632   5.116   3.567   1.711 -0.0590 -0.3682  0.2994
  922MOL0     C21633   5.218   3.572   1.833  0.4282 -0.2204  0.3204
  922MOL0     C21634   5.234   3.713   1.883 -0.1366  0.3553 -0.2340
  922MOL0     C21635   5.108   3.761   1.948 -0.6811  0.2033  0.9190
  922MOL0     C21636   5.012   3.792   2.016 -0.6495  1.0333 -0.7975
  922MOL0     C21637   5.449   3.417   1.530  0.5213 -0.3919  0.7639
  922MOL0     C21638   5.530   3.466   1.428  1.0341 -0.6661 -0.3406
  922MOL0     H21639   5.681   3.554   0.951 -0.0540  0.6300 -0.3856
  922MOL0     H21640   5.886   3.613   0.793 -1.8581  0.3011  0.4837
  922MOL0     H21641   6.061   3.904   0.986 -0.0577 -3.9322  2.2519
  922MOL0     H21642   6.029   3.895   0.811 -1.1455  0.6667  1.3992
  922MOL0     H21643   6.288   3.903   0.961 -0.0146  1.2400  0.4190
  922MOL0     H21644   6.245   4.003   0.817  0.1210 -1.1641 -2.7835
  922MOL0     H21645   6.300   3.844   0.673 -0.7241 -4.2090 -1.4242
  922MOL0     H21646   6.307   3.710   0.790  0.5542  0.0429  0.5545
  922MOL0     H21647   6.526   3.930   0.787  0.2388  0.5576  1.2665
  922MOL0     H21648   6.497   3.817   0.915  0.3619  3.7962 -0.1044
  922MOL0     H21649   6.521   3.690   0.647 -0.4680 -0.9105  0.7527
  922MOL0     H21650   6.617   3.667   0.790  2.1684  1.4289 -0.1085
  922MOL0     H21651   6.646   3.880   0.568  2.9190  3.5770  0.8324
  922MOL0     H21652   6.744   3.735   0.601  2.1901  0.9741 -0.0201
  922MOL0     H21653   6.727   3.961   0.797  0.3437 -1.0217  0.0522
  922MOL0     H21654   6.831   3.817   0.807  0.8290 -0.8584 -1.6370
  922MOL0     H21655   6.864   4.044   0.597 -0.9803 -0.1643  0.9765
  922MOL0     H21656   6.964   3.902   0.601  2.0150  1.4769 -1.6784
  922MOL0     H21657   7.130   3.875   0.804  0.1418  0.8280 -1.7186
  922MOL0     H21658   7.254   3.940   1.029  0.7594  0.2701  2.8141
  922MOL0     H21659   7.221   4.095   1.104  2.1053  0.8071 -0.3627
  922MOL0     H21660   7.373   4.205   0.947  1.7168  0.2011 -2.5518
  922MOL0     H21661   7.408   4.055   0.863  0.4307 -1.4683  0.6283
  922MOL0     H21662   7.469   4.111   1.150  0.0226 -0.2193 -0.1124
  922MOL0     H21663   7.514   3.963   1.072  3.8476 -0.5388 -1.6824
  922MOL0     H21664   7.625   4.236   1.027  2.1642 -0.3662  1.2580
  922MOL0     H21665   7.661   4.131   0.895  2.3113  2.1467 -0.2664
  922MOL0     H21666   7.921   3.980   1.228 -0.2348 -1.2076 -1.2609
  922MOL0     H21667   8.147   4.051   1.235  0.9212  0.8987 -0.7273
  922MOL0     H21668   8.438   4.429   0.762 -1.6743  0.7872  0.3217
  922MOL0     H21669   8.678   4.507   0.775  1.6450  0.2359  1.1502
  922MOL0     H21670   8.824   4.632   1.188 -1.7265  0.2628 -0.1064
  922MOL0     H21671   8.760   4.768   1.105 -1.5146 -0.9604  0.2852
  922MOL0     H21672   8.979   4.783   0.958  1.8271 -1.3349 -1.0804
  922MOL0     H21673   9.038   4.658   1.071 -0.2054  0.6432  1.5175
  922MOL0     H21674   9.002   4.805   1.254 -0.5675  0.0700 -0.6923
  922MOL0     H21675   8.927   4.931   1.171 -1.4181 -1.0954  1.0710
  922MOL0     H21676   9.215   4.828   1.123  2.0851  0.8329  0.4079
  922MOL0     H21677   9.152   4.962   1.038  2.2397  0.6478  0.6002
  922MOL0     H21678   9.144   4.939   1.341  0.7554 -2.0390 -0.3948
  922MOL0     H21679   9.143   5.095   1.239 -0.1820 -0.8249 -0.2626
  922MOL0     H21680   9.396   4.928   1.267 -1.5274 -1.4091 -0.1132
  922MOL0     H21681   9.358   5.080   1.351 -2.4082  0.0686  0.5746
  922MOL0     H21682   9.371   5.038   1.050  2.7011  0.3444 -1.1048
  922MOL0     H21683   9.331   5.194   1.129 -1.3093 -0.0242  0.0778
  922MOL0     H21684   9.569   5.163   1.045  2.3039  1.2812  1.4848
  922MOL0     H21685   9.591   5.041   1.175  0.9338  0.3231  0.6640
  922MOL0     H21686   8.630   4.538   1.201 -2.2523  0.5225  0.1909
  922MOL0     H21687   8.438   4.406   1.194  0.5653 -0.1121  1.4077
  922MOL0     H21688   8.069   4.328   0.920  0.8196 -2.0983 -1.0553
  922MOL0     H21689   7.845   4.257   0.899  4.4015  1.9481 -2.6842
  922MOL0     H21690   6.103   3.703   1.155 -1.8936  0.6462  3.6159
  922MOL0     H21691   5.902   3.620   1.297  1.0475 -2.8005  1.0963
  922MOL0     H21692   5.303   3.638   1.244 -2.2003  1.0592  1.1741
  922MOL0     H21693   5.156   3.537   1.407  0.2086 -0.3747 -0.2053
  922MOL0     H21694   5.073   3.359   1.724 -2.7334  0.2691 -0.0644
  922MOL0     H21695   5.031   3.430   1.567  0.6396 -1.6131 -0.5543
  922MOL0     H21696   5.144   3.654   1.650 -0.2797  0.3919  1.2632
  922MOL0     H21697   5.018   3.589   1.753  0.6128  0.3823  1.5261
  922MOL0     H21698   5.317   3.533   1.812  0.4013 -1.9486  3.0689
  922MOL0     H21699   5.183   3.504   1.910  2.0642 -3.3953 -1.5426
  922MOL0     H21700   5.325   3.718   1.943 -0.6066  0.3700  0.4902
  922MOL0     H21701   5.252   3.790   1.807  1.4819  2.8970  2.5246
  922MOL0     H21702   4.940   3.825   2.089 -1.4148  1.6001 -1.7722
  922MOL0     H21703   5.490   3.361   1.613 -0.2241 -1.4022  0.4686
  922MOL0     H21704   5.637   3.450   1.425  0.9594 -1.1775 -3.1466
  923MOL0     O21705   4.607  11.068   1.161 -0.9890  0.7174  0.4005
  923MOL0     C21706   4.643  10.965   1.212  0.4593 -0.6430  0.2285
  923MOL0     O21707   4.665  10.845   1.147  0.0420  0.0478 -0.1348
  923MOL0     C21708   4.638  10.835   1.014 -1.2887 -0.8668  0.6809
  923MOL0     C21709   4.523  10.767   0.956 -0.3349  0.2268  0.2103
  923MOL0     C21710   4.503  10.761   0.823  0.2268  0.2582  0.0960
  923MOL0     C21711   4.590  10.833   0.728  0.2575 -0.0505  0.6637
  923MOL0     O21712   4.573  10.814   0.594 -0.1263  0.0903  0.4756
  923MOL0     C21713   4.455  10.745   0.543  0.3900 -0.6437 -0.0007
  923MOL0     C21714   4.450  10.795   0.399 -0.2794 -0.2794 -0.5334
  923MOL0     C21715   4.338  10.726   0.324 -0.4722 -0.4683 -0.0638
  923MOL0     C21716   4.307  10.789   0.183 -1.1490 -0.2188  0.7591
  923MOL0     C21717   4.198  10.701   0.108  0.7340  0.1627 -0.3422
  923MOL0     C21718   4.203  10.728  -0.044  0.4151 -0.1385 -0.2672
  923MOL0     C21719   4.128  10.629  -0.132 -0.0559  0.1979 -0.4471
  923MOL0     C21720   3.988  10.672  -0.149 -0.4505 -0.6673 -0.5995
  923MOL0     N21721   3.928  10.588  -0.259 -0.9540 -0.4070 -0.8560
  923MOL0     C21722   3.843  10.636  -0.350  0.7523  0.4695 -0.6635
  923MOL0     C21723   3.816  10.526  -0.429  0.2492 -0.1479 -0.7887
  923MOL0     C21724   3.733  10.543  -0.549  0.1702  0.6449  0.4093
  923MOL0     C21725   3.584  10.595  -0.498 -0.3972  0.2869  0.5249
  923MOL0     C21726   3.479  10.587  -0.607 -0.6757 -0.7156 -0.0558
  923MOL0     C21727   3.346  10.653  -0.543 -0.5033  1.3044  0.1122
  923MOL0     O21728   3.250  10.692  -0.643  0.1604 -0.0793 -0.0372
  923MOL0     C21729   3.257  10.804  -0.719  0.4421  0.6227  0.0899
  923MOL0     C21730   3.361  10.902  -0.724  0.2751 -0.1062 -0.4684
  923MOL0     C21731   3.358  11.009  -0.818  0.8297  0.8268 -0.6853
  923MOL0     C21732   3.246  11.026  -0.904 -0.5557 -0.0848 -0.1929
  923MOL0     C21733   3.238  11.123  -1.004 -0.5596 -0.4791 -0.0826
  923MOL0     O21734   3.253  11.250  -0.946 -0.7037 -0.1443 -0.7145
  923MOL0     C21735   3.218  11.360  -1.025  0.2120  0.3403 -0.7135
  923MOL0     C21736   3.272  11.396  -1.148  0.3639 -1.1961  0.9753
  923MOL0     C21737   3.242  11.523  -1.217  0.1616 -0.7857  0.3877
  923MOL0     C21738   3.164  11.612  -1.148  0.0123 -1.1384 -0.5356
  923MOL0     O21739   3.110  11.737  -1.182  0.5030  0.1756 -0.2358
  923MOL0     C21740   3.179  11.808  -1.291 -0.7651  0.7070  0.0674
  923MOL0     C21741   3.091  11.782  -1.414 -0.3458 -0.2933  0.8052
  923MOL0     C21742   3.165  11.817  -1.540 -0.0210 -0.9100  1.2279
  923MOL0     C21743   3.078  11.808  -1.668 -0.2385  0.0232 -0.0376
  923MOL0     C21744   3.135  11.865  -1.797  0.0503 -0.2458 -1.1138
  923MOL0     C21745   3.270  11.810  -1.847 -0.0522 -0.1826  1.2745
  923MOL0     C21746   3.391  11.908  -1.822 -0.8494  0.2401  0.0738
  923MOL0     C21747   3.516  11.843  -1.876 -0.5802 -0.3469  0.0266
  923MOL0    Cl21748   3.668  11.927  -1.814  0.2748  0.2610 -0.0876
  923MOL0     C21749   3.116  11.578  -1.017 -0.6396  0.3153 -0.3123
  923MOL0     C21750   3.132  11.452  -0.960  0.5147 -1.2548  0.0444
  923MOL0     O21751   3.205  11.092  -1.122  0.6130  0.1176  0.3241
  923MOL0     C21752   3.143  10.931  -0.887  0.1340  0.1539  0.5958
  923MOL0     C21753   3.144  10.824  -0.791 -0.0333 -0.2586  0.5973
  923MOL0     N21754   3.890  10.422  -0.381 -0.0828  0.4705  0.0483
  923MOL0     N21755   3.964  10.458  -0.281 -0.3491  0.3505 -0.0927
  923MOL0     C21756   4.697  10.908   0.782  0.2458  0.1302  0.2283
  923MOL0     C21757   4.722  10.900   0.918  0.1326  0.3841 -0.4788
  923MOL0     C21758   4.694  10.984   1.350  0.2597  0.7512  0.7880
  923MOL0     C21759   4.796  10.893   1.389  0.0306  0.1467 -0.4659
  923MOL0     C21760   4.856  10.910   1.517  0.3997  0.0021  0.6838
  923MOL0     C21761   4.814  11.013   1.600  0.2878  0.2856  0.5390
  923MOL0     O21762   4.865  11.016   1.730  0.4292 -0.1322 -0.0405
  923MOL0     C21763   4.842  11.131   1.819 -0.2505  0.2774 -0.1139
  923MOL0     C21764   4.928  11.249   1.783 -0.4172 -0.1493 -0.1271
  923MOL0     C21765   4.892  11.361   1.880 -0.0580 -0.3921 -0.5998
  923MOL0     C21766   4.978  11.480   1.847 -0.3958  0.0263  0.2471
  923MOL0     C21767   5.117  11.448   1.879  0.1593  0.6053 -0.7216
  923MOL0     C21768   5.230  11.415   1.899  0.0543  0.3768  1.2384
  923MOL0     C21769   4.707  11.096   1.555 -0.5772 -0.1255  0.0045
  923MOL0     C21770   4.653  11.085   1.428 -0.0064 -0.5387 -0.0436
  923MOL0     H21771   4.453  10.729   1.029  0.3456 -2.7472 -0.5295
  923MOL0     H21772   4.416  10.704   0.792  1.1265 -1.5575  0.7505
  923MOL0     H21773   4.365  10.788   0.588  0.3777  1.3227 -1.7505
  923MOL0     H21774   4.474  10.638   0.555  0.3949 -0.9732 -2.4639
  923MOL0     H21775   4.544  10.770   0.349 -2.2980  0.0150 -4.9540
  923MOL0     H21776   4.429  10.902   0.392 -4.0669 -0.5760  2.5088
  923MOL0     H21777   4.242  10.744   0.373 -2.5596  1.0368 -4.1649
  923MOL0     H21778   4.366  10.621   0.308 -0.4685 -0.2958 -1.3084
  923MOL0     H21779   4.274  10.892   0.204  0.7546  0.5755  0.0720
  923MOL0     H21780   4.396  10.791   0.120 -3.6324  0.3973 -3.0854
  923MOL0     H21781   4.098  10.722   0.147  0.2481  0.5639 -1.7640
  923MOL0     H21782   4.212  10.594   0.126 -2.4648  0.0111  2.0584
  923MOL0     H21783   4.307  10.708  -0.073  0.5399 -1.5693  1.0223
  923MOL0     H21784   4.188  10.835  -0.058  0.2665 -0.1538 -0.2369
  923MOL0     H21785   4.179  10.634  -0.229  1.1851 -0.2854  0.1557
  923MOL0     H21786   4.138  10.526  -0.097 -0.6509  0.4461  0.4760
  923MOL0     H21787   3.988  10.776  -0.181  1.7800 -0.5752 -0.4704
  923MOL0     H21788   3.936  10.654  -0.054 -2.9729  0.6832 -1.6297
  923MOL0     H21789   3.795  10.734  -0.352  0.1826  0.1853 -1.4113
  923MOL0     H21790   3.720  10.444  -0.593 -1.2898  1.4079 -0.9754
  923MOL0     H21791   3.768  10.606  -0.631  3.6107  0.8186  1.8304
  923MOL0     H21792   3.588  10.696  -0.455 -0.2041  0.1342  0.8654
  923MOL0     H21793   3.549  10.546  -0.407 -0.1911 -1.1233 -0.1344
  923MOL0     H21794   3.521  10.640  -0.693  1.4071  0.8208  1.7834
  923MOL0     H21795   3.449  10.484  -0.626 -1.1849 -0.3143 -1.5978
  923MOL0     H21796   3.366  10.722  -0.461  2.2974 -0.6329  1.1957
  923MOL0     H21797   3.304  10.561  -0.503 -0.2578  0.3727 -1.6811
  923MOL0     H21798   3.440  10.872  -0.655 -0.1124 -1.8044 -0.7020
  923MOL0     H21799   3.444  11.075  -0.823  1.9386 -0.4214  0.9013
  923MOL0     H21800   3.338  11.332  -1.206 -0.8427  1.0616 -3.3229
  923MOL0     H21801   3.281  11.531  -1.318 -1.1582 -2.7763 -0.3519
  923MOL0     H21802   3.280  11.769  -1.310 -1.2027 -1.9380  2.3844
  923MOL0     H21803   3.175  11.913  -1.261  0.7758  0.1110  2.6956
  923MOL0     H21804   3.009  11.853  -1.401 -0.5266 -0.6713  1.8448
  923MOL0     H21805   3.067  11.676  -1.412 -1.4476 -0.1883 -2.2564
  923MOL0     H21806   3.251  11.750  -1.537 -0.7845 -1.9540  0.3752
  923MOL0     H21807   3.209  11.916  -1.526 -0.4492 -0.8446  2.1675
  923MOL0     H21808   3.089  11.700  -1.682  0.9970  0.1568 -0.2888
  923MOL0     H21809   2.976  11.842  -1.650  0.8220  3.1127  0.8359
  923MOL0     H21810   3.160  11.971  -1.781  2.3076 -0.7891 -0.6037
  923MOL0     H21811   3.071  11.859  -1.885 -3.0410  1.7207  0.8109
  923MOL0     H21812   3.248  11.795  -1.953 -1.9305 -0.7662  1.7029
  923MOL0     H21813   3.291  11.710  -1.806 -2.7877 -0.5084  2.0883
  923MOL0     H21814   3.376  12.001  -1.876  1.3600  1.1163  0.8741
  923MOL0     H21815   3.401  11.935  -1.716  0.8191  0.8083 -0.1953
  923MOL0     H21816   3.519  11.855  -1.985 -1.8131  1.0159  0.1078
  923MOL0     H21817   3.528  11.738  -1.846 -0.5915 -0.4544 -0.3338
  923MOL0     H21818   3.054  11.643  -0.955  1.6474 -0.6060  3.2336
  923MOL0     H21819   3.084  11.439  -0.864  2.2605 -1.6143  0.9134
  923MOL0     H21820   3.050  10.953  -0.938  0.6716  2.3832  0.4396
  923MOL0     H21821   3.054  10.763  -0.782  0.1583 -0.6614 -0.0717
  923MOL0     H21822   4.765  10.969   0.724 -2.0379  1.5809 -1.0587
  923MOL0     H21823   4.803  10.961   0.955  0.4082 -1.0988  1.5313
  923MOL0     H21824   4.835  10.820   1.317  1.3339  0.5427 -0.1896
  923MOL0     H21825   4.932  10.842   1.552  0.9071  0.9520  1.4716
  923MOL0     H21826   4.877  11.107   1.920  0.0023  2.2046  0.2924
  923MOL0     H21827   4.735  11.150   1.828 -0.1983 -0.3060  2.7557
  923MOL0     H21828   5.033  11.218   1.775  0.3768  1.8253  1.7253
  923MOL0     H21829   4.885  11.283   1.689  0.2000  3.6419  0.8136
  923MOL0     H21830   4.904  11.334   1.985  5.3321  2.7369 -0.0015
  923MOL0     H21831   4.786  11.381   1.865 -0.2180  0.0925  0.9814
  923MOL0     H21832   4.965  11.512   1.743 -2.0587 -0.0258  0.4037
  923MOL0     H21833   4.943  11.567   1.903  2.5740  0.5337  1.5149
  923MOL0     H21834   5.331  11.387   1.923 -0.7004 -2.2572  1.5585
  923MOL0     H21835   4.666  11.174   1.618  2.2437 -0.4118  2.4207
  923MOL0     H21836   4.574  11.152   1.395 -0.6933 -1.3312 -0.0489
  924MOL0     O21837   6.883   2.445   9.673  0.2847 -0.6605 -0.0154
  924MOL0     C21838   6.898   2.452   9.793 -0.3558 -0.3010 -0.1365
  924MOL0     O21839   6.801   2.479   9.887  0.5102  0.0154  0.6689
  924MOL0     C21840   6.668   2.497   9.846  0.4783 -0.6241  0.2893
  924MOL0     C21841   6.584   2.480   9.954 -0.4531  0.3410  0.4697
  924MOL0     C21842   6.445   2.498   9.936  0.6789 -0.9082 -2.0852
  924MOL0     C21843   6.385   2.535   9.824 -0.6998  0.1469 -0.1366
  924MOL0     O21844   6.251   2.556   9.802  0.1809  0.3207 -0.3176
  924MOL0     C21845   6.191   2.663   9.878  0.5297  0.4613 -0.2034
  924MOL0     C21846   6.072   2.716   9.791  0.3620 -0.6195  0.6731
  924MOL0     C21847   5.984   2.817   9.866  0.7371 -0.4379  0.1383
  924MOL0     C21848   5.938   2.770  10.000  0.6399 -0.6477 -0.2349
  924MOL0     C21849   5.864   2.876  10.081  0.1674 -1.3739  0.4038
  924MOL0     C21850   5.756   2.821  10.167 -0.2115 -0.3066  0.3245
  924MOL0     C21851   5.829   2.740  10.277  0.6678 -0.9025 -0.8829
  924MOL0     C21852   5.726   2.715  10.400 -0.3215 -0.8639  1.0757
  924MOL0     N21853   5.769   2.609  10.498  0.9638 -0.4755  0.1456
  924MOL0     C21854   5.841   2.645  10.605  0.3229 -0.2061 -0.3229
  924MOL0     C21855   5.885   2.522  10.666  0.2273  0.6828  0.4564
  924MOL0     C21856   5.958   2.513  10.796 -1.0611  0.8380  0.5590
  924MOL0     C21857   6.121   2.538  10.783  0.6569  0.1499  0.2617
  924MOL0     C21858   6.203   2.456  10.883  0.4195 -0.2173  0.4643
  924MOL0     C21859   6.344   2.489  10.874  0.2124  0.1984 -0.9854
  924MOL0     O21860   6.426   2.429  10.978 -0.2197  0.0280  0.0654
  924MOL0     C21861   6.564   2.439  10.967 -0.4399  1.6378 -0.6658
  924MOL0     C21862   6.628   2.521  10.872  0.4411 -1.4441 -0.4037
  924MOL0     C21863   6.765   2.537  10.869 -0.6540 -0.1163  0.2751
  924MOL0     C21864   6.852   2.469  10.961 -0.3848  0.6712 -0.5653
  924MOL0     C21865   6.996   2.499  10.956 -0.5485  0.4289 -0.1087
  924MOL0     O21866   7.067   2.433  11.057  0.1110  0.2650 -0.0148
  924MOL0     C21867   7.203   2.438  11.059  0.3732 -0.1531 -0.2617
  924MOL0     C21868   7.272   2.323  11.015  0.1359  0.3602  0.4913
  924MOL0     C21869   7.411   2.333  10.998  0.3358 -0.5429  0.6176
  924MOL0     C21870   7.476   2.456  11.017 -0.1655  0.9688 -0.0872
  924MOL0     O21871   7.612   2.469  10.986  0.4803  0.8545  0.1230
  924MOL0     C21872   7.628   2.505  10.846  0.2648 -0.2831  0.0072
  924MOL0     C21873   7.680   2.389  10.772  0.9541  0.2329  1.3248
  924MOL0     C21874   7.786   2.290  10.841  0.0806 -0.2378  0.3200
  924MOL0     C21875   7.819   2.178  10.748  0.5852 -0.1403 -0.4909
  924MOL0     C21876   7.914   2.067  10.812  0.2623 -0.4466  0.6481
  924MOL0     C21877   8.049   2.124  10.844  0.1170  0.9782  0.0323
  924MOL0     C21878   8.158   2.012  10.850  0.1080  0.7977  0.5471
  924MOL0     C21879   8.282   2.086  10.902  0.5795  0.0961  0.1536
  924MOL0    Cl21880   8.414   1.975  10.860 -0.0481 -0.4014 -0.0629
  924MOL0     C21881   7.406   2.560  11.080  0.2937 -0.2656 -0.4990
  924MOL0     C21882   7.267   2.552  11.094  0.3759  1.0390  0.2552
  924MOL0     O21883   7.037   2.588  10.888 -0.5375 -0.0296 -0.2826
  924MOL0     C21884   6.789   2.377  11.045 -0.6655  0.2266 -0.0925
  924MOL0     C21885   6.644   2.362  11.054 -0.7559 -0.0095 -0.6961
  924MOL0     N21886   5.839   2.415  10.579  0.5782  0.3506 -0.1181
  924MOL0     N21887   5.762   2.470  10.488 -0.5714  0.1329  0.2254
  924MOL0     C21888   6.470   2.553   9.713  0.1210 -0.1597  0.3905
  924MOL0     C21889   6.607   2.540   9.724  1.3609 -0.4635 -0.2346
  924MOL0     C21890   7.046   2.450   9.839  0.2536 -0.0425 -0.0012
  924MOL0     C21891   7.081   2.475   9.966  0.4636 -0.2881  0.4208
  924MOL0     C21892   7.210   2.504  10.003 -0.0725 -0.9801  0.5445
  924MOL0     C21893   7.320   2.489   9.909 -0.3786 -0.3840  0.2234
  924MOL0     O21894   7.450   2.500   9.959  0.1235 -0.6337  0.0448
  924MOL0     C21895   7.468   2.509  10.100  0.0573  0.0627 -0.7237
  924MOL0     C21896   7.612   2.509  10.150 -0.0442 -0.5585 -0.2483
  924MOL0     C21897   7.692   2.378  10.120 -0.1573  0.5112 -0.7883
  924MOL0     C21898   7.847   2.385  10.139  0.1514 -0.1624  0.2272
  924MOL0     C21899   7.881   2.426  10.274  0.2684  0.8024  0.6010
  924MOL0     C21900   7.886   2.431  10.398 -0.0654  0.0572  0.4689
  924MOL0     C21901   7.281   2.436   9.785 -0.8721 -0.4524 -0.1207
  924MOL0     C21902   7.148   2.417   9.747 -0.0933  0.4946  0.3413
  924MOL0     H21903   6.634   2.458  10.048  4.9447 -2.2070 -2.5041
  924MOL0     H21904   6.389   2.479  10.027  0.9249  1.3373 -1.4295
  924MOL0     H21905   6.260   2.743   9.906  0.2774  0.0568  1.7199
  924MOL0     H21906   6.153   2.614   9.968  1.8410 -0.9885 -0.3854
  924MOL0     H21907   6.003   2.636   9.764 -0.5467  0.8772 -1.7744
  924MOL0     H21908   6.111   2.755   9.696 -0.7658 -0.7542  0.1444
  924MOL0     H21909   5.901   2.857   9.807  0.1397  0.9759  1.8488
  924MOL0     H21910   6.044   2.909   9.877  2.6492 -1.7527  1.2473
  924MOL0     H21911   5.866   2.689   9.988 -0.2455 -0.0442  0.7812
  924MOL0     H21912   6.018   2.733  10.065  0.2509  1.9434  1.8838
  924MOL0     H21913   5.834   2.960  10.017  1.7531  1.0969  2.6995
  924MOL0     H21914   5.932   2.936  10.141 -1.5009  1.6526 -0.5170
  924MOL0     H21915   5.688   2.749  10.122  1.8584 -2.4090  0.3893
  924MOL0     H21916   5.702   2.910  10.201 -0.4140  0.1060 -1.0079
  924MOL0     H21917   5.859   2.645  10.231  1.6881 -0.6601 -0.7429
  924MOL0     H21918   5.917   2.791  10.317  0.1561 -0.2730 -0.5373
  924MOL0     H21919   5.631   2.681  10.358 -0.7935 -0.6795  1.9499
  924MOL0     H21920   5.710   2.811  10.451  2.4742  0.5193 -0.4662
  924MOL0     H21921   5.871   2.741  10.647  0.6351 -0.5406  0.2371
  924MOL0     H21922   5.941   2.409  10.826  1.1139  0.4837  0.7309
  924MOL0     H21923   5.914   2.572  10.877 -0.6404 -0.4767  1.7910
  924MOL0     H21924   6.140   2.644  10.802  1.0651  0.2389 -0.6050
  924MOL0     H21925   6.152   2.516  10.681 -0.7902  3.1109 -0.9212
  924MOL0     H21926   6.168   2.486  10.982  2.8489  3.1393  0.4499
  924MOL0     H21927   6.188   2.349  10.866  2.6996 -0.4677 -0.3462
  924MOL0     H21928   6.356   2.598  10.885  2.5508 -0.2611  4.5150
  924MOL0     H21929   6.375   2.454  10.775  0.3076 -2.9294  0.0664
  924MOL0     H21930   6.579   2.579  10.795  0.4660 -0.7273  0.1025
  924MOL0     H21931   6.802   2.619  10.810 -0.2927  0.2732  1.0253
  924MOL0     H21932   7.227   2.226  10.995  3.0310 -0.7295 -1.6121
  924MOL0     H21933   7.480   2.252  10.976  3.5068  1.7872  1.3002
  924MOL0     H21934   7.700   2.586  10.831 -1.9223  2.5598  3.2816
  924MOL0     H21935   7.534   2.540  10.801  1.5363  3.3448 -0.1897
  924MOL0     H21936   7.726   2.417  10.677 -3.4762  2.1140 -0.5513
  924MOL0     H21937   7.585   2.337  10.754  1.5037 -0.8271  1.4123
  924MOL0     H21938   7.735   2.240  10.924 -1.8108 -1.4385 -1.4428
  924MOL0     H21939   7.877   2.344  10.867 -0.5538  2.1901 -2.0613
  924MOL0     H21940   7.722   2.144  10.711  0.5670  0.4964 -1.0342
  924MOL0     H21941   7.863   2.220  10.657  4.7975  1.1289  1.8619
  924MOL0     H21942   7.914   1.981  10.745 -1.4210 -1.0771  1.4010
  924MOL0     H21943   7.885   2.021  10.906 -1.8180  0.7845  0.6644
  924MOL0     H21944   8.043   2.157  10.948 -0.1543 -3.3875  1.6108
  924MOL0     H21945   8.067   2.196  10.764  1.3543  1.0793  0.3819
  924MOL0     H21946   8.119   1.933  10.914 -1.2099  1.4061  0.5354
  924MOL0     H21947   8.170   1.955  10.757 -1.8876 -1.0108  1.3141
  924MOL0     H21948   8.281   2.093  11.011 -0.1207 -1.0451  0.2355
  924MOL0     H21949   8.296   2.186  10.859 -0.7410  0.7289  1.1303
  924MOL0     H21950   7.469   2.646  11.101  1.0363 -0.4293 -1.9487
  924MOL0     H21951   7.208   2.640  11.118 -4.7325 -1.0231 -3.0004
  924MOL0     H21952   6.858   2.312  11.097 -0.3327  0.8130  0.2149
  924MOL0     H21953   6.617   2.297  11.137 -0.2664  1.0018  0.2753
  924MOL0     H21954   6.427   2.611   9.632 -0.0195  0.6287  1.0100
  924MOL0     H21955   6.664   2.567   9.636  0.0999  0.6045 -0.7357
  924MOL0     H21956   7.008   2.489  10.045 -0.9820  1.2492 -1.0947
  924MOL0     H21957   7.225   2.543  10.103 -0.9852 -2.0892  1.1433
  924MOL0     H21958   7.422   2.415  10.135  0.7691 -1.0070 -2.5117
  924MOL0     H21959   7.420   2.586  10.161  0.8631 -1.3815  1.8968
  924MOL0     H21960   7.665   2.588  10.096 -1.4050  0.6315  0.0662
  924MOL0     H21961   7.604   2.514  10.259 -0.6936 -1.8721 -0.2172
  924MOL0     H21962   7.667   2.341  10.020  0.3687 -2.0811 -0.0066
  924MOL0     H21963   7.663   2.297  10.187  1.5082  0.1710 -0.4345
  924MOL0     H21964   7.885   2.284  10.123  0.1941 -0.0858 -0.1733
  924MOL0     H21965   7.899   2.450  10.067  0.2770 -0.2441  0.2434
  924MOL0     H21966   7.874   2.420  10.504 -0.9384  1.3638  0.5339
  924MOL0     H21967   7.360   2.426   9.711  1.4552  1.2058  1.9669
  924MOL0     H21968   7.122   2.379   9.649 -1.1887  3.5768 -0.7000
  925MOL0     O21969   1.840   1.032   0.998 -0.4142 -0.2249 -0.0581
  925MOL0     C21970   1.889   0.942   0.926  0.1373 -0.5159  1.0736
  925MOL0     O21971   1.821   0.878   0.838  0.2567  1.1306  0.4962
  925MOL0     C21972   1.685   0.877   0.847  0.0926  1.0258 -0.4761
  925MOL0     C21973   1.613   0.993   0.800 -0.4565 -0.4137 -0.4557
  925MOL0     C21974   1.478   0.991   0.787 -0.5169 -0.3809 -0.1261
  925MOL0     C21975   1.412   0.871   0.821  1.2447  0.1191  0.2864
  925MOL0     O21976   1.270   0.875   0.788 -0.6288 -0.3127 -0.0170
  925MOL0     C21977   1.182   0.781   0.854  0.5932  0.4481 -0.2375
  925MOL0     C21978   1.034   0.819   0.837 -1.2654 -0.3121 -0.3591
  925MOL0     C21979   0.921   0.736   0.910 -0.9725 -0.9198  0.0815
  925MOL0     C21980   0.785   0.778   0.865  0.3426  0.1267  0.3673
  925MOL0     C21981   0.679   0.698   0.947  0.4234 -0.2912 -0.0862
  925MOL0     C21982   0.555   0.676   0.860 -0.6670  1.4825 -0.2432
  925MOL0     C21983   0.490   0.806   0.796 -0.1647  0.8053  0.0327
  925MOL0     C21984   0.442   0.898   0.902 -0.7355  1.1522  0.2925
  925MOL0     N21985   0.369   0.832   1.011  0.3946 -0.8863 -0.9697
  925MOL0     C21986   0.389   0.803   1.143 -0.3821 -0.5507 -0.5448
  925MOL0     C21987   0.289   0.719   1.186 -0.6988 -0.2303  0.4659
  925MOL0     C21988   0.282   0.676   1.331 -0.1275  0.8156 -0.8315
  925MOL0     C21989   0.215   0.792   1.414  0.7878  0.7094 -0.8586
  925MOL0     C21990   0.183   0.752   1.555  0.1271 -0.3869 -0.2945
  925MOL0     C21991   0.038   0.704   1.562  0.2874  0.5186  0.4151
  925MOL0     O21992   0.012   0.677   1.694  0.4768  0.1600 -0.0572
  925MOL0     C21993  -0.107   0.720   1.762  0.2076 -0.5401 -0.5094
  925MOL0     C21994  -0.229   0.760   1.707  0.0455  0.1440 -0.6279
  925MOL0     C21995  -0.343   0.802   1.772  0.0332 -0.5510 -0.0775
  925MOL0     C21996  -0.337   0.817   1.918 -0.4087 -0.5906  0.4233
  925MOL0     C21997  -0.442   0.886   1.996  0.0555  0.0163  0.5563
  925MOL0     O21998  -0.402   0.924   2.124 -0.5539 -0.4561  0.2110
  925MOL0     C21999  -0.488   1.019   2.194 -0.2346 -0.5647  0.6779
  925MOL0     C22000  -0.482   1.152   2.153 -0.7034  0.1991  0.0879
  925MOL0     C22001  -0.564   1.246   2.215  0.1589  0.1422 -0.0606
  925MOL0     C22002  -0.645   1.202   2.324 -0.0747 -0.8482  0.9195
  925MOL0     O22003  -0.708   1.310   2.381  0.3177  0.4150 -0.6599
  925MOL0     C22004  -0.836   1.289   2.441 -0.1103 -0.5179  0.3790
  925MOL0     C22005  -0.884   1.431   2.458 -0.5617  0.6028 -0.5691
  925MOL0     C22006  -1.010   1.429   2.553  0.6151 -0.4810  0.1728
  925MOL0     C22007  -0.970   1.407   2.695  0.1471  0.0507 -0.2405
  925MOL0     C22008  -1.088   1.442   2.790  0.8876  1.0737 -0.1041
  925MOL0     C22009  -1.229   1.377   2.750  0.3930 -0.0767 -0.3270
  925MOL0     C22010  -1.344   1.466   2.796  0.4656  0.6666  0.3773
  925MOL0     C22011  -1.472   1.381   2.768 -0.3124 -0.7044 -0.3335
  925MOL0    Cl22012  -1.552   1.421   2.610  0.0531 -0.2234 -0.2094
  925MOL0     C22013  -0.658   1.071   2.361 -0.3590  0.8386  0.4906
  925MOL0     C22014  -0.577   0.975   2.295  0.4573  0.7809 -0.0891
  925MOL0     O22015  -0.557   0.901   1.953 -0.2266 -0.8794 -0.3496
  925MOL0     C22016  -0.211   0.772   1.977  0.2168 -0.6162 -0.0197
  925MOL0     C22017  -0.104   0.728   1.904 -0.3870  0.3704 -0.1413
  925MOL0     N22018   0.205   0.698   1.079  0.7865 -1.4245  0.4665
  925MOL0     N22019   0.253   0.763   0.990  0.6922 -0.1289  0.3519
  925MOL0     C22020   1.480   0.758   0.875 -1.1123  0.2515 -0.3043
  925MOL0     C22021   1.621   0.760   0.890 -0.0964 -0.5600 -0.1375
  925MOL0     C22022   2.032   0.910   0.944  0.4677 -0.6672 -0.8449
  925MOL0     C22023   2.075   0.796   0.878  0.9889  0.1998 -0.2943
  925MOL0     C22024   2.214   0.753   0.900 -0.8816 -0.4766  0.3613
  925MOL0     C22025   2.294   0.824   0.990  0.1597  0.7448 -0.7836
  925MOL0     O22026   2.416   0.766   1.013  0.7861 -0.8872 -0.2652
  925MOL0     C22027   2.480   0.800   1.135 -0.0209 -0.0398  0.4305
  925MOL0     C22028   2.593   0.691   1.165 -0.3337  0.1260 -0.2787
  925MOL0     C22029   2.709   0.708   1.068 -0.1328  0.3249  0.1384
  925MOL0     C22030   2.826   0.648   1.131  0.6659  0.4737 -0.0088
  925MOL0     C22031   2.844   0.508   1.095 -0.4084  0.4264 -0.3994
  925MOL0     C22032   2.848   0.402   1.044 -0.6569  0.0229 -0.4017
  925MOL0     C22033   2.240   0.928   1.067 -0.0798  0.2286  0.7293
  925MOL0     C22034   2.115   0.972   1.044  0.8626 -0.4155 -0.1326
  925MOL0     H22035   1.668   1.081   0.768 -2.4267  1.3525  0.7404
  925MOL0     H22036   1.433   1.075   0.735 -1.8978 -0.9913  0.0503
  925MOL0     H22037   1.209   0.785   0.960  0.9945 -0.9238 -0.2692
  925MOL0     H22038   1.193   0.678   0.821  3.2889 -0.1179  2.0115
  925MOL0     H22039   1.024   0.810   0.728 -0.6862  0.4373 -0.4741
  925MOL0     H22040   1.021   0.925   0.859  1.5225  0.3768 -1.6252
  925MOL0     H22041   0.938   0.753   1.017 -0.5208  0.9342 -0.2463
  925MOL0     H22042   0.935   0.630   0.886  0.3536 -0.4571 -1.2863
  925MOL0     H22043   0.755   0.883   0.861 -1.0973 -0.2998 -1.8768
  925MOL0     H22044   0.778   0.734   0.765 -0.1059  0.0097  0.4469
  925MOL0     H22045   0.646   0.764   1.028  0.4043  2.3373 -2.1047
  925MOL0     H22046   0.718   0.607   0.993  1.8830 -0.7110 -2.0391
  925MOL0     H22047   0.471   0.620   0.904  1.9440 -1.5167  1.3190
  925MOL0     H22048   0.593   0.603   0.788 -1.2386  0.6880  0.2336
  925MOL0     H22049   0.549   0.860   0.722  0.5698  0.7005  0.5319
  925MOL0     H22050   0.400   0.785   0.738  0.2375  1.3746 -0.8273
  925MOL0     H22051   0.381   0.970   0.847 -1.6605 -1.0832 -1.8301
  925MOL0     H22052   0.533   0.942   0.943 -0.1530 -1.4084  2.0036
  925MOL0     H22053   0.480   0.830   1.196 -1.6841  1.0972  0.9879
  925MOL0     H22054   0.384   0.654   1.364 -0.8683 -1.9328 -0.1397
  925MOL0     H22055   0.230   0.580   1.337  3.6713 -1.5189 -1.5978
  925MOL0     H22056   0.130   0.830   1.357 -0.2578 -0.7299 -0.3225
  925MOL0     H22057   0.286   0.875   1.406  0.0913  1.3549 -0.5272
  925MOL0     H22058   0.250   0.672   1.589 -1.2326 -1.4602 -0.0096
  925MOL0     H22059   0.207   0.836   1.619  0.2040  0.6364 -1.6208
  925MOL0     H22060   0.009   0.623   1.494  0.4717  2.1339 -1.7176
  925MOL0     H22061  -0.022   0.782   1.513 -1.5527 -1.3889 -0.5501
  925MOL0     H22062  -0.237   0.742   1.600  0.5175 -0.3229 -0.5827
  925MOL0     H22063  -0.431   0.822   1.713  2.3020 -0.7850 -3.8771
  925MOL0     H22064  -0.413   1.164   2.070 -0.6033  0.4784  0.2100
  925MOL0     H22065  -0.576   1.351   2.189  0.4069  0.2986  0.4411
  925MOL0     H22066  -0.833   1.232   2.534 -2.4675  0.0855  0.8783
  925MOL0     H22067  -0.890   1.239   2.361  1.3475 -1.2956 -0.1465
  925MOL0     H22068  -0.908   1.464   2.356  3.5983 -0.3755 -2.0940
  925MOL0     H22069  -0.804   1.496   2.496  1.2669 -0.2933 -2.6477
  925MOL0     H22070  -1.072   1.347   2.517  0.8660 -0.5570 -0.0866
  925MOL0     H22071  -1.059   1.525   2.535  2.3057  0.4584  0.3592
  925MOL0     H22072  -0.954   1.298   2.700 -1.8819 -0.2325  0.9719
  925MOL0     H22073  -0.881   1.453   2.739 -1.5259  1.6292  1.7059
  925MOL0     H22074  -1.108   1.549   2.801 -0.2644  0.6999  1.8761
  925MOL0     H22075  -1.073   1.411   2.894  0.5662 -4.7998 -1.4445
  925MOL0     H22076  -1.230   1.280   2.801 -3.3630 -0.4577 -0.8401
  925MOL0     H22077  -1.243   1.342   2.647 -3.5151 -2.1650  0.7032
  925MOL0     H22078  -1.331   1.480   2.904 -3.4153 -1.3251  1.2871
  925MOL0     H22079  -1.340   1.547   2.722  0.6265 -1.3205 -1.9182
  925MOL0     H22080  -1.540   1.393   2.853  0.2086 -0.9123  0.1192
  925MOL0     H22081  -1.452   1.274   2.767 -0.3637 -0.8918  3.3919
  925MOL0     H22082  -0.728   1.045   2.440  0.7213  0.8247  1.4681
  925MOL0     H22083  -0.587   0.868   2.308  0.6412  0.6449 -1.0266
  925MOL0     H22084  -0.198   0.795   2.082  0.9604 -0.2306 -0.1908
  925MOL0     H22085  -0.021   0.696   1.966 -0.4169 -1.7807 -1.1249
  925MOL0     H22086   1.421   0.670   0.900  1.1625 -2.3566 -3.4350
  925MOL0     H22087   1.660   0.670   0.937  2.4694 -0.8798 -2.6707
  925MOL0     H22088   2.012   0.754   0.800 -0.7387  1.2068  0.5052
  925MOL0     H22089   2.254   0.660   0.860  1.1069  1.3202 -2.1059
  925MOL0     H22090   2.407   0.795   1.217  0.5972 -3.5833  0.9157
  925MOL0     H22091   2.506   0.905   1.119 -0.9049  0.0278 -0.7262
  925MOL0     H22092   2.612   0.702   1.272  0.3804  0.4431 -0.4351
  925MOL0     H22093   2.548   0.592   1.153 -0.2636 -0.0171  0.5874
  925MOL0     H22094   2.723   0.815   1.049 -1.4810  0.3195 -1.0329
  925MOL0     H22095   2.680   0.682   0.966  1.3821  0.8929 -0.4750
  925MOL0     H22096   2.917   0.696   1.095  2.9639 -5.3921 -3.4719
  925MOL0     H22097   2.818   0.656   1.240 -2.0519  0.2610 -0.1168
  925MOL0     H22098   2.836   0.305   1.001  1.6229 -0.4467 -0.1067
  925MOL0     H22099   2.302   0.983   1.137 -0.5994  1.6120  0.1388
  925MOL0     H22100   2.069   1.054   1.099  1.3786 -1.2853  1.7003
  926MOL0     O22101   8.745   8.391   6.167 -0.3516 -0.1585  0.2701
  926MOL0     C22102   8.685   8.441   6.261  1.1599  0.2580  0.7583
  926MOL0     O22103   8.745   8.515   6.358  0.6145  0.6009 -0.4594
  926MOL0     C22104   8.876   8.560   6.346  0.9044  0.3382 -0.7638
  926MOL0     C22105   8.904   8.696   6.348  0.5045 -0.2864 -0.9540
  926MOL0     C22106   9.034   8.744   6.360  1.3728  0.3428 -0.7511
  926MOL0     C22107   9.139   8.652   6.371 -0.4292  0.4516  1.0202
  926MOL0     O22108   9.272   8.691   6.380 -0.9569  0.6940  0.5634
  926MOL0     C22109   9.341   8.673   6.257 -0.4077 -0.0391 -0.4585
  926MOL0     C22110   9.288   8.759   6.143  1.1612  0.5049 -0.6444
  926MOL0     C22111   9.312   8.914   6.166 -0.1116  0.2368  0.4592
  926MOL0     C22112   9.286   8.991   6.035 -0.9447  0.1672 -0.3227
  926MOL0     C22113   9.255   9.136   6.047 -0.5040  0.3705  0.2857
  926MOL0     C22114   9.259   9.190   5.911 -0.5979 -0.1323  0.5810
  926MOL0     C22115   9.244   9.343   5.897  0.9013  0.3390 -0.5034
  926MOL0     C22116   9.243   9.389   5.752  0.5905  0.4841 -0.3298
  926MOL0     N22117   9.365   9.447   5.708 -0.5451  0.5337 -0.2710
  926MOL0     C22118   9.416   9.566   5.744  0.6305  0.5722 -0.1029
  926MOL0     C22119   9.547   9.577   5.698 -0.1811 -0.9355 -0.7941
  926MOL0     C22120   9.632   9.696   5.712 -0.4331 -0.1175 -0.8317
  926MOL0     C22121   9.627   9.791   5.591  0.0540  0.3520 -0.2201
  926MOL0     C22122   9.702   9.745   5.463 -0.1618  0.4645  0.8225
  926MOL0     C22123   9.650   9.795   5.329 -1.1869  0.5208  0.0161
  926MOL0     O22124   9.723   9.735   5.218 -0.3210 -0.3213  0.0831
  926MOL0     C22125   9.839   9.794   5.167 -0.4026 -0.7547 -1.0655
  926MOL0     C22126   9.920   9.725   5.080 -0.0684  0.2233 -0.3597
  926MOL0     C22127  10.035   9.778   5.018 -0.0308 -0.6069 -0.2034
  926MOL0     C22128  10.082   9.903   5.052 -0.9030  0.4707  0.0426
  926MOL0     C22129  10.183   9.967   4.966  0.6550 -0.7772 -0.4361
  926MOL0     O22130  10.233   9.900   4.859  1.2114  0.2386 -0.0935
  926MOL0     C22131  10.330   9.973   4.793  0.9342  0.5914 -0.2738
  926MOL0     C22132  10.464   9.984   4.840  1.1740  0.2801 -0.1450
  926MOL0     C22133  10.570  10.031   4.758  0.4035  0.1217 -0.5319
  926MOL0     C22134  10.543  10.086   4.634  0.2051 -0.8888 -0.4245
  926MOL0     O22135  10.653  10.138   4.561 -0.0597 -0.5398 -0.0228
  926MOL0     C22136  10.630  10.216   4.442 -0.0513  0.2427 -0.7129
  926MOL0     C22137  10.776  10.228   4.381 -0.0299 -0.1143 -0.5553
  926MOL0     C22138  10.794  10.128   4.261 -0.7608  0.8110 -0.3058
  926MOL0     C22139  10.938  10.098   4.213  0.6823  0.7128 -0.5793
  926MOL0     C22140  10.955  10.132   4.069  0.1512  0.4709  0.5784
  926MOL0     C22141  11.109  10.139   4.033 -0.1764  0.3771 -0.2295
  926MOL0     C22142  11.178  10.006   4.040 -1.4310 -0.2706 -0.2046
  926MOL0     C22143  11.305  10.019   4.128 -0.2525  0.7256  0.3014
  926MOL0    Cl22144  11.376   9.858   4.103  0.0737  0.3166  0.4272
  926MOL0     C22145  10.406  10.085   4.593  0.1441 -0.3298 -0.3787
  926MOL0     C22146  10.304  10.025   4.666 -0.0149  0.2145  1.0542
  926MOL0     O22147  10.234  10.068   5.016 -0.0104  0.4581  0.2602
  926MOL0     C22148  10.010   9.971   5.153 -0.6833 -0.4205 -0.1876
  926MOL0     C22149   9.895   9.915   5.210  0.1807  0.3306 -0.7350
  926MOL0     N22150   9.576   9.461   5.634  0.6106  0.3178  0.5132
  926MOL0     N22151   9.465   9.387   5.637 -0.5838 -0.5652 -0.1891
  926MOL0     C22152   9.118   8.512   6.381  0.4149  0.7939 -0.5012
  926MOL0     C22153   8.980   8.464   6.364  0.3751 -1.0809  0.2825
  926MOL0     C22154   8.542   8.424   6.273  0.4261  0.5317 -0.0520
  926MOL0     C22155   8.445   8.508   6.335  0.0982 -0.5105  0.8476
  926MOL0     C22156   8.308   8.476   6.361 -0.1426  0.0233 -0.2824
  926MOL0     C22157   8.263   8.353   6.316 -0.7210  0.2387 -0.8390
  926MOL0     O22158   8.132   8.326   6.341  0.3592 -0.6414  0.4693
  926MOL0     C22159   8.073   8.223   6.257 -0.3136  0.8068 -0.6309
  926MOL0     C22160   7.926   8.245   6.272 -0.1929  0.4240 -0.2304
  926MOL0     C22161   7.861   8.386   6.263  0.5522  1.1964  0.4898
  926MOL0     C22162   7.860   8.451   6.121 -0.2241 -0.9716 -0.1382
  926MOL0     C22163   7.987   8.506   6.084 -0.0842  0.1023  0.2614
  926MOL0     C22164   8.088   8.555   6.039  0.3489 -0.2419 -0.6069
  926MOL0     C22165   8.357   8.273   6.254  0.1933 -0.1941  0.0862
  926MOL0     C22166   8.486   8.309   6.230 -0.0403 -0.1067 -0.0482
  926MOL0     H22167   8.814   8.749   6.317  1.0412  0.9491 -0.4583
  926MOL0     H22168   9.050   8.851   6.366 -3.0045  1.1015  2.5079
  926MOL0     H22169   9.331   8.567   6.229  0.4363 -0.8822  2.1471
  926MOL0     H22170   9.443   8.709   6.273 -0.3409 -0.6170  0.4725
  926MOL0     H22171   9.184   8.730   6.128  1.3298 -0.2612 -0.3986
  926MOL0     H22172   9.349   8.724   6.059 -0.1230 -3.3251 -0.1794
  926MOL0     H22173   9.406   8.940   6.214  0.4790 -1.0376  0.0359
  926MOL0     H22174   9.230   8.942   6.233  1.3476  1.7610  1.6716
  926MOL0     H22175   9.374   8.973   5.974  0.4990  0.8340  1.4734
  926MOL0     H22176   9.198   8.944   5.990 -0.7226 -2.0855  1.3872
  926MOL0     H22177   9.315   9.191   6.121 -3.1020  2.7881  0.7639
  926MOL0     H22178   9.152   9.144   6.082  0.0106 -0.5256  2.0764
  926MOL0     H22179   9.165   9.147   5.873  0.7825 -0.7457 -2.4696
  926MOL0     H22180   9.328   9.139   5.842 -1.3287  0.0583 -0.3196
  926MOL0     H22181   9.147   9.362   5.944  2.2424  2.7394  1.5153
  926MOL0     H22182   9.322   9.396   5.952  2.0221  0.2833 -1.9837
  926MOL0     H22183   9.172   9.472   5.750  0.5936  0.4742 -1.4158
  926MOL0     H22184   9.197   9.310   5.692  0.2582  1.1661 -0.9823
  926MOL0     H22185   9.360   9.640   5.800 -1.4245 -2.7014  2.5282
  926MOL0     H22186   9.735   9.663   5.721 -0.9976 -1.8401 -0.2960
  926MOL0     H22187   9.616   9.755   5.803 -0.3007 -1.2925 -0.0252
  926MOL0     H22188   9.644   9.893   5.628 -1.6994 -0.6061  3.7278
  926MOL0     H22189   9.520   9.783   5.570 -0.3271  1.3801  1.1699
  926MOL0     H22190   9.808   9.771   5.469 -0.3523  1.1504  1.3574
  926MOL0     H22191   9.694   9.636   5.459 -0.8717  0.5315  0.0075
  926MOL0     H22192   9.671   9.903   5.334  3.5223 -0.2078  0.7540
  926MOL0     H22193   9.544   9.793   5.305 -1.0370  2.3724 -1.0526
  926MOL0     H22194   9.886   9.625   5.053 -2.1353  0.4268  1.2531
  926MOL0     H22195  10.075   9.721   4.935 -1.8730  1.7298 -2.9101
  926MOL0     H22196  10.501   9.944   4.934 -1.0380 -3.6907 -0.7202
  926MOL0     H22197  10.663  10.010   4.810 -1.3202  1.2998  3.4220
  926MOL0     H22198  10.597  10.316   4.473  1.8671  0.8842 -0.5988
  926MOL0     H22199  10.557  10.171   4.374  1.0139 -2.8783  0.0435
  926MOL0     H22200  10.851  10.208   4.458  0.2562  1.6834 -0.3200
  926MOL0     H22201  10.789  10.328   4.339  1.8155  0.4461  1.1853
  926MOL0     H22202  10.728  10.159   4.180 -0.4110  2.8630  0.1361
  926MOL0     H22203  10.760  10.035   4.308  0.7075  0.6888  0.6034
  926MOL0     H22204  10.990  10.167   4.279 -2.2922  0.5097  2.2415
  926MOL0     H22205  10.976   9.998   4.235  0.5972  0.8961  0.4422
  926MOL0     H22206  10.904  10.223   4.036  0.9667  0.3050 -1.2732
  926MOL0     H22207  10.906  10.046   4.023 -1.2423  0.4784  1.9735
  926MOL0     H22208  11.166  10.210   4.093  3.1240 -0.9843 -1.5427
  926MOL0     H22209  11.123  10.164   3.927 -3.3521 -3.6242 -1.8858
  926MOL0     H22210  11.112   9.933   4.087 -0.8424  0.1890  1.3729
  926MOL0     H22211  11.214   9.968   3.944  0.1247 -1.7231  0.9096
  926MOL0     H22212  11.281  10.038   4.233 -0.1562 -2.1498  0.9281
  926MOL0     H22213  11.368  10.103   4.096  0.9658  0.8111  2.6706
  926MOL0     H22214  10.365  10.135   4.506 -1.4754  0.9243  1.0178
  926MOL0     H22215  10.206  10.018   4.620  0.2268 -1.1947  0.6822
  926MOL0     H22216  10.045  10.064   5.198  1.7678 -2.7545  3.2257
  926MOL0     H22217   9.859   9.983   5.287 -0.5366 -2.1871  1.2859
  926MOL0     H22218   9.204   8.448   6.396 -0.3089  0.1538  1.1750
  926MOL0     H22219   8.966   8.357   6.376  0.9182 -0.7929  5.8742
  926MOL0     H22220   8.470   8.601   6.385 -0.3635  0.1043 -0.0299
  926MOL0     H22221   8.249   8.549   6.415 -0.7136  0.4331 -1.4353
  926MOL0     H22222   8.101   8.128   6.301  1.8797  1.6889 -0.0227
  926MOL0     H22223   8.097   8.234   6.151  1.4379  1.0035 -0.2340
  926MOL0     H22224   7.876   8.181   6.199  0.5781  1.4481 -1.7223
  926MOL0     H22225   7.901   8.203   6.370 -0.7279  0.8792 -0.1640
  926MOL0     H22226   7.914   8.445   6.337  0.4224  2.2397 -0.2240
  926MOL0     H22227   7.756   8.377   6.291  0.4800  1.1025  0.1991
  926MOL0     H22228   7.817   8.390   6.041  0.8278  0.7412 -2.0963
  926MOL0     H22229   7.801   8.543   6.129 -2.4390 -2.3516  0.3672
  926MOL0     H22230   8.172   8.608   5.998 -0.4611  1.5760 -0.0211
  926MOL0     H22231   8.335   8.169   6.232  3.5757 -0.7714 -1.1049
  926MOL0     H22232   8.550   8.241   6.173  0.9302 -0.3508  1.2898
  927MOL0     O22233   2.769   3.520   0.049  0.3581  0.4809 -0.5794
  927MOL0     C22234   2.816   3.413   0.061 -0.7527  0.0404 -0.4893
  927MOL0     O22235   2.748   3.297   0.086 -0.0421  0.3093  0.1219
  927MOL0     C22236   2.608   3.284   0.087  0.0311  0.0999  0.3280
  927MOL0     C22237   2.560   3.167   0.031  0.1402 -0.3807  0.0635
  927MOL0     C22238   2.418   3.156   0.018 -1.9279 -0.4840  0.5800
  927MOL0     C22239   2.328   3.230   0.091  0.3129 -0.0202 -0.3865
  927MOL0     O22240   2.191   3.196   0.058 -1.5370 -0.0279  0.2667
  927MOL0     C22241   2.095   3.228   0.152  0.4208 -0.4944 -0.3252
  927MOL0     C22242   1.955   3.182   0.118  0.9225 -0.9085  0.4014
  927MOL0     C22243   1.840   3.238   0.195  0.0273  0.0531  0.1661
  927MOL0     C22244   1.710   3.167   0.166 -0.4609  0.2119  0.3156
  927MOL0     C22245   1.587   3.247   0.186 -0.3412 -0.3999  0.0742
  927MOL0     C22246   1.540   3.244   0.331 -0.1111  0.4725 -0.7023
  927MOL0     C22247   1.395   3.303   0.351 -0.2226 -0.2675  0.5501
  927MOL0     C22248   1.284   3.197   0.337  0.1969 -0.2548  0.1423
  927MOL0     N22249   1.154   3.257   0.353  0.5230 -1.0956  0.0216
  927MOL0     C22250   1.106   3.320   0.463  0.2340  0.5808 -0.0586
  927MOL0     C22251   0.981   3.371   0.436 -0.6082 -0.0752  0.2543
  927MOL0     C22252   0.879   3.453   0.505 -0.1412  1.1150 -0.7445
  927MOL0     C22253   0.741   3.387   0.474 -0.4808 -0.6957 -0.7180
  927MOL0     C22254   0.682   3.350   0.608  0.0923  0.1271 -0.4138
  927MOL0     C22255   0.541   3.283   0.593  0.3452 -0.3557 -0.6883
  927MOL0     O22256   0.458   3.342   0.482 -0.3110 -0.7601  0.0240
  927MOL0     C22257   0.329   3.298   0.443 -0.1557 -0.8011  0.2277
  927MOL0     C22258   0.250   3.370   0.345 -0.5683  0.4546  0.9181
  927MOL0     C22259   0.128   3.322   0.299 -0.5418 -0.0984  0.6134
  927MOL0     C22260   0.069   3.209   0.356 -0.0415 -1.0268 -0.5231
  927MOL0     C22261  -0.062   3.162   0.289 -0.8538 -0.7605 -0.3958
  927MOL0     O22262  -0.139   3.232   0.205 -0.3255  0.1611  0.4413
  927MOL0     C22263  -0.274   3.224   0.212  0.4545  0.2920  0.4570
  927MOL0     C22264  -0.362   3.114   0.186 -0.9052  0.1160 -0.0447
  927MOL0     C22265  -0.498   3.133   0.165  0.2286 -0.5988 -0.0563
  927MOL0     C22266  -0.556   3.260   0.183 -0.2629  0.9102 -0.1617
  927MOL0     O22267  -0.693   3.273   0.182 -0.2591  0.0801  0.3970
  927MOL0     C22268  -0.739   3.342   0.063  0.4170  0.2614 -0.0859
  927MOL0     C22269  -0.840   3.260  -0.019 -2.1569  0.7476 -0.3184
  927MOL0     C22270  -0.984   3.254   0.043  0.5974 -0.4767 -0.2022
  927MOL0     C22271  -1.090   3.200  -0.057 -0.0248 -0.2916  0.2061
  927MOL0     C22272  -1.231   3.206  -0.008 -0.3496  0.3486 -0.1805
  927MOL0     C22273  -1.263   3.124   0.115  0.5702 -1.1578 -0.3364
  927MOL0     C22274  -1.226   2.978   0.107  0.0580  0.3169 -0.2953
  927MOL0     C22275  -1.297   2.920  -0.014  0.0683  0.3446 -0.7260
  927MOL0    Cl22276  -1.286   2.742  -0.011  0.0148  0.2003 -0.2669
  927MOL0     C22277  -0.474   3.369   0.219  0.4449 -0.4312 -1.0835
  927MOL0     C22278  -0.337   3.354   0.232  0.0539  1.0263  0.8412
  927MOL0     O22279  -0.096   3.066   0.354 -0.1808  0.2199  0.6116
  927MOL0     C22280   0.139   3.145   0.465  0.8845 -0.2436  1.1155
  927MOL0     C22281   0.270   3.184   0.490  0.6348  0.0501 -1.3748
  927MOL0     N22282   0.971   3.363   0.296 -0.1077  0.3224  0.6424
  927MOL0     N22283   1.069   3.289   0.250  0.9646 -0.5811  0.1743
  927MOL0     C22284   2.377   3.343   0.167  0.1565 -0.9472  0.3840
  927MOL0     C22285   2.514   3.368   0.163 -0.2629 -0.1673  0.2928
  927MOL0     C22286   2.969   3.387   0.051  0.5872  0.0346 -0.1731
  927MOL0     C22287   3.069   3.472  -0.009 -0.3195 -0.7456  0.2571
  927MOL0     C22288   3.205   3.448  -0.013 -0.6879  0.3016 -0.1366
  927MOL0     C22289   3.263   3.337   0.053  1.0958  0.6895 -0.5559
  927MOL0     O22290   3.395   3.339   0.040  0.1115 -0.2894 -0.4445
  927MOL0     C22291   3.480   3.245   0.107 -0.0259  0.4862 -0.7459
  927MOL0     C22292   3.599   3.214   0.014  0.2883  0.4009  0.8606
  927MOL0     C22293   3.674   3.343  -0.015  1.5086  0.3745 -0.0791
  927MOL0     C22294   3.768   3.383   0.100  0.4614  0.1414  0.1603
  927MOL0     C22295   3.843   3.502   0.059 -0.6744  0.0102 -0.0115
  927MOL0     C22296   3.907   3.601   0.031  0.4400 -0.1136 -0.3238
  927MOL0     C22297   3.171   3.247   0.124 -0.3102 -0.2711  0.0442
  927MOL0     C22298   3.034   3.274   0.114  0.6978  0.1177 -0.4868
  927MOL0     H22299   2.629   3.100  -0.018 -0.1276  0.2379 -1.1900
  927MOL0     H22300   2.372   3.078  -0.041 -0.9837  1.4646 -3.0095
  927MOL0     H22301   2.092   3.336   0.165 -1.7623 -0.6914  1.3963
  927MOL0     H22302   2.118   3.170   0.242  0.3372 -0.4066 -0.2478
  927MOL0     H22303   1.948   3.074   0.102  2.1811 -0.8804 -0.4824
  927MOL0     H22304   1.952   3.224   0.017 -0.3526  2.0996  1.5733
  927MOL0     H22305   1.835   3.341   0.157  0.0492 -0.6835 -1.9945
  927MOL0     H22306   1.866   3.236   0.301  0.5369 -4.4231  0.1374
  927MOL0     H22307   1.715   3.140   0.061 -2.2696 -2.1579  0.7701
  927MOL0     H22308   1.699   3.073   0.221 -2.3052  0.7376  0.9366
  927MOL0     H22309   1.501   3.220   0.125 -1.1387  0.9157  0.5593
  927MOL0     H22310   1.601   3.351   0.153  1.1971 -0.1475  1.3550
  927MOL0     H22311   1.612   3.302   0.389  0.5438 -0.7731 -0.2418
  927MOL0     H22312   1.538   3.140   0.363 -1.1425  0.4245 -0.8637
  927MOL0     H22313   1.396   3.341   0.454  3.5372  3.0291 -0.4783
  927MOL0     H22314   1.378   3.381   0.277  0.9439 -3.8899 -4.0367
  927MOL0     H22315   1.304   3.128   0.420  1.2131  0.5732  0.6090
  927MOL0     H22316   1.283   3.151   0.238 -0.4336  0.2310 -0.0756
  927MOL0     H22317   1.151   3.307   0.561  3.0852  0.2305 -1.3375
  927MOL0     H22318   0.890   3.561   0.491 -1.2983  1.9619  3.3727
  927MOL0     H22319   0.903   3.451   0.612 -0.4400  0.0398 -0.6787
  927MOL0     H22320   0.747   3.295   0.416  1.8397 -0.2210 -1.3540
  927MOL0     H22321   0.679   3.460   0.422 -2.1278 -1.5602 -0.0308
  927MOL0     H22322   0.744   3.279   0.664 -1.3098  0.4168  1.6498
  927MOL0     H22323   0.681   3.434   0.678  0.3479 -0.5752  0.4546
  927MOL0     H22324   0.490   3.277   0.689 -1.0197 -0.6965 -1.4006
  927MOL0     H22325   0.538   3.181   0.551  0.8723 -1.2292  1.2869
  927MOL0     H22326   0.317   3.439   0.295 -1.7659  1.0808  0.1166
  927MOL0     H22327   0.089   3.376   0.213  2.1076 -1.0822 -1.3504
  927MOL0     H22328  -0.322   3.013   0.176 -2.5837 -0.3565 -2.9076
  927MOL0     H22329  -0.563   3.048   0.145 -2.9656  1.9051 -1.0039
  927MOL0     H22330  -0.659   3.361  -0.009  1.7056 -3.5795  0.1105
  927MOL0     H22331  -0.787   3.431   0.106  0.5003 -0.9511  2.7618
  927MOL0     H22332  -0.794   3.161  -0.031 -2.6272  0.5909 -0.8715
  927MOL0     H22333  -0.847   3.298  -0.121 -1.1476  0.5893 -0.4575
  927MOL0     H22334  -1.001   3.359   0.068 -0.3103 -0.5468 -0.4731
  927MOL0     H22335  -0.981   3.198   0.137  1.0841 -1.4823 -0.8042
  927MOL0     H22336  -1.081   3.258  -0.149  1.9187 -1.9176 -0.7093
  927MOL0     H22337  -1.067   3.098  -0.089  1.6397  0.6860 -1.9485
  927MOL0     H22338  -1.296   3.167  -0.087  1.6019 -0.8952 -1.2399
  927MOL0     H22339  -1.255   3.311   0.015  2.5303  1.0606 -0.1164
  927MOL0     H22340  -1.369   3.145   0.127  1.4380  5.1593 -0.3642
  927MOL0     H22341  -1.220   3.187   0.194 -0.8470  0.6921 -0.9792
  927MOL0     H22342  -1.119   2.964   0.092 -0.1619 -4.1136  0.9441
  927MOL0     H22343  -1.252   2.938   0.206 -0.2424  2.9359  0.7589
  927MOL0     H22344  -1.256   2.963  -0.107  1.0606  2.6944  0.6940
  927MOL0     H22345  -1.402   2.945  -0.002 -0.1786 -0.1016 -1.8028
  927MOL0     H22346  -0.516   3.467   0.237 -0.6358 -0.7584 -1.7431
  927MOL0     H22347  -0.261   3.426   0.261  0.6428  0.5338  0.5544
  927MOL0     H22348   0.082   3.070   0.519 -1.4500 -3.7582 -5.0828
  927MOL0     H22349   0.308   3.114   0.564  1.4862 -1.5616 -3.2297
  927MOL0     H22350   2.307   3.415   0.207 -2.2569 -3.0635  0.2172
  927MOL0     H22351   2.562   3.456   0.203  2.3945 -0.9657 -0.9365
  927MOL0     H22352   3.019   3.562  -0.044 -0.4972  0.5047  3.3906
  927MOL0     H22353   3.269   3.525  -0.055 -3.3627  2.2041 -1.0104
  927MOL0     H22354   3.425   3.157   0.141  0.2668  0.6144  0.0723
  927MOL0     H22355   3.523   3.288   0.197 -3.6408  3.5919 -0.2285
  927MOL0     H22356   3.668   3.150   0.069  0.0569 -0.9213 -0.3114
  927MOL0     H22357   3.551   3.171  -0.075 -1.9528 -5.4403  4.3035
  927MOL0     H22358   3.603   3.419  -0.047 -4.3489 -3.4454  2.3104
  927MOL0     H22359   3.745   3.324  -0.096  1.8047  1.1971 -0.0286
  927MOL0     H22360   3.720   3.403   0.196 -1.3895 -0.4506 -0.6119
  927MOL0     H22361   3.834   3.300   0.128  1.3697  1.4259  2.0482
  927MOL0     H22362   3.948   3.696   0.004  0.1304  0.0350 -0.2742
  927MOL0     H22363   3.201   3.156   0.175 -0.8402 -1.3469 -1.4855
  927MOL0     H22364   2.961   3.209   0.159 -1.6000  0.9278 -2.7987
  928MOL0     O22365   0.056   2.301   5.187 -0.0801  0.1116  0.2578
  928MOL0     C22366   0.087   2.419   5.157  0.3262  0.6148  0.3532
  928MOL0     O22367   0.212   2.472   5.152 -0.0481  0.4791  0.4013
  928MOL0     C22368   0.314   2.381   5.182  0.2401  1.5976  0.8986
  928MOL0     C22369   0.417   2.358   5.091  0.6825  0.9370  0.6615
  928MOL0     C22370   0.525   2.281   5.127 -0.2315 -0.3666 -0.3814
  928MOL0     C22371   0.532   2.215   5.248 -0.0589  0.0207  1.1035
  928MOL0     O22372   0.650   2.149   5.292 -0.0083 -0.0251 -0.3478
  928MOL0     C22373   0.776   2.204   5.241  0.3147 -0.7586  0.3350
  928MOL0     C22374   0.804   2.345   5.304 -1.5681 -0.5981  0.8198
  928MOL0     C22375   0.954   2.366   5.319  0.0670  0.2226 -0.1132
  928MOL0     C22376   0.992   2.516   5.328  0.0164  0.6937  0.5605
  928MOL0     C22377   1.110   2.542   5.244 -0.4073  0.3256  0.5382
  928MOL0     C22378   1.234   2.456   5.270 -0.3022 -0.0120  0.5255
  928MOL0     C22379   1.295   2.498   5.405  0.5688 -0.1356 -0.0895
  928MOL0     C22380   1.379   2.379   5.467  0.8563  0.4010 -1.2922
  928MOL0     N22381   1.300   2.293   5.555  0.1528 -0.0996 -0.4647
  928MOL0     C22382   1.224   2.326   5.671 -0.9428  0.1021  0.2434
  928MOL0     C22383   1.179   2.205   5.704  1.1960 -0.2863 -0.0213
  928MOL0     C22384   1.079   2.190   5.820 -0.6800 -0.1858  0.2695
  928MOL0     C22385   0.939   2.150   5.770 -0.6605 -1.1900 -0.7860
  928MOL0     C22386   0.873   2.239   5.661  0.1487 -0.3946  0.2685
  928MOL0     C22387   0.730   2.264   5.701 -0.5305  0.2648 -0.0706
  928MOL0     O22388   0.703   2.403   5.656  0.1251  0.3080  0.1060
  928MOL0     C22389   0.573   2.451   5.634  0.6261 -0.3196 -0.2980
  928MOL0     C22390   0.527   2.531   5.533 -0.4173 -0.4339 -0.1976
  928MOL0     C22391   0.390   2.563   5.507  0.3009 -0.6671  0.1369
  928MOL0     C22392   0.282   2.506   5.582  0.4317 -0.1289 -0.5319
  928MOL0     C22393   0.140   2.543   5.560  0.4053 -0.5164  0.0212
  928MOL0     O22394   0.050   2.493   5.651  0.4638  0.8056  0.1612
  928MOL0     C22395  -0.079   2.529   5.621  1.0702  0.2099  0.6834
  928MOL0     C22396  -0.148   2.468   5.514  0.5690 -0.3402 -0.0849
  928MOL0     C22397  -0.281   2.490   5.489 -0.1520 -0.0965 -0.0402
  928MOL0     C22398  -0.359   2.573   5.577  0.5839  0.2742 -0.1652
  928MOL0     O22399  -0.488   2.591   5.565  0.1590  0.0481  0.1247
  928MOL0     C22400  -0.576   2.486   5.602  0.7253 -0.0115 -0.0384
  928MOL0     C22401  -0.726   2.511   5.559  0.1466 -0.3872  0.8295
  928MOL0     C22402  -0.822   2.388   5.555  0.0653 -0.4202  0.3353
  928MOL0     C22403  -0.879   2.351   5.694 -0.3899  0.4083  0.3751
  928MOL0     C22404  -0.961   2.218   5.706  0.6187  0.6546 -0.0719
  928MOL0     C22405  -0.900   2.101   5.623  0.3584  0.4364 -0.1201
  928MOL0     C22406  -0.766   2.047   5.674 -0.1733 -1.1741 -0.1929
  928MOL0     C22407  -0.694   1.957   5.578 -0.2055  0.8479  0.1790
  928MOL0    Cl22408  -0.776   1.800   5.548  0.1884 -0.0842 -0.0989
  928MOL0     C22409  -0.294   2.625   5.695  0.3418  0.2459  0.3901
  928MOL0     C22410  -0.153   2.611   5.707  0.0127 -0.0294  0.5130
  928MOL0     O22411   0.118   2.626   5.468 -0.1567 -0.3565  0.9058
  928MOL0     C22412   0.330   2.427   5.686 -0.4131  0.5525  0.4771
  928MOL0     C22413   0.467   2.393   5.707  0.0990  0.2470  0.0803
  928MOL0     N22414   1.213   2.106   5.617 -0.0010  0.2393  0.4524
  928MOL0     N22415   1.288   2.157   5.527  0.0414 -0.2628  0.6536
  928MOL0     C22416   0.425   2.218   5.334 -0.3054  0.8760 -0.1132
  928MOL0     C22417   0.321   2.310   5.301 -0.3513  0.3906  0.0677
  928MOL0     C22418  -0.025   2.502   5.148  0.0033  1.0169 -0.0361
  928MOL0     C22419  -0.133   2.448   5.078 -0.4018 -0.4909 -0.1714
  928MOL0     C22420  -0.263   2.514   5.095  0.1602 -0.1417 -0.4988
  928MOL0     C22421  -0.282   2.627   5.174 -0.7598  0.8344 -0.6622
  928MOL0     O22422  -0.409   2.669   5.181  0.1766 -0.5233 -0.7883
  928MOL0     C22423  -0.426   2.779   5.273  0.1936  0.1385  0.9838
  928MOL0     C22424  -0.566   2.833   5.243  0.3218  0.7792 -0.6901
  928MOL0     C22425  -0.608   2.930   5.350  0.5980  0.2212 -0.8183
  928MOL0     C22426  -0.762   2.939   5.344 -0.2167  0.4562 -0.3722
  928MOL0     C22427  -0.835   3.044   5.424  0.4344  0.3970 -0.4429
  928MOL0     C22428  -0.907   3.107   5.495  0.6037  0.8672  0.3778
  928MOL0     C22429  -0.160   2.686   5.223  0.5695  0.5694 -0.0774
  928MOL0     C22430  -0.032   2.623   5.217  1.1220 -0.0586 -0.2836
  928MOL0     H22431   0.423   2.391   4.988 -1.4849 -0.5801 -0.0400
  928MOL0     H22432   0.595   2.283   5.043  0.0318  3.8944 -0.2860
  928MOL0     H22433   0.766   2.196   5.132  0.5400  1.6040  0.0769
  928MOL0     H22434   0.864   2.145   5.267  2.0488  0.6641 -1.9194
  928MOL0     H22435   0.760   2.345   5.404  2.0783 -0.2956  2.5952
  928MOL0     H22436   0.757   2.421   5.240  1.9809 -1.7723 -3.7742
  928MOL0     H22437   1.004   2.315   5.235  0.7438  2.2991 -1.0402
  928MOL0     H22438   0.977   2.317   5.414 -0.0812 -1.3378 -0.8536
  928MOL0     H22439   0.909   2.577   5.290 -1.6540 -1.5368  0.4161
  928MOL0     H22440   1.004   2.542   5.433 -4.4040  1.7716  0.9847
  928MOL0     H22441   1.137   2.646   5.264  0.7036  0.2895 -0.6533
  928MOL0     H22442   1.075   2.522   5.143 -1.7476 -0.0154  1.0454
  928MOL0     H22443   1.312   2.462   5.194 -0.3486 -0.2472  0.4601
  928MOL0     H22444   1.209   2.350   5.272 -1.4762  0.1726 -1.3881
  928MOL0     H22445   1.361   2.582   5.387 -1.0416  1.4311  1.0233
  928MOL0     H22446   1.216   2.522   5.477  1.0847 -0.6965  0.6760
  928MOL0     H22447   1.461   2.415   5.529 -1.4840 -0.3701  2.5572
  928MOL0     H22448   1.417   2.317   5.385 -2.7579 -0.1168 -2.8196
  928MOL0     H22449   1.210   2.426   5.709  0.2985  0.7206 -0.8422
  928MOL0     H22450   1.082   2.279   5.883  1.0941 -1.0001  1.4202
  928MOL0     H22451   1.114   2.106   5.881 -1.1121 -2.9268 -2.9694
  928MOL0     H22452   0.885   2.156   5.865  0.4944  1.2146 -0.2190
  928MOL0     H22453   0.942   2.047   5.734 -0.2608 -2.0593  1.5478
  928MOL0     H22454   0.916   2.338   5.645  1.7131 -1.3013 -1.6968
  928MOL0     H22455   0.857   2.185   5.567 -0.6814  1.0969 -0.4771
  928MOL0     H22456   0.705   2.244   5.806 -0.9382 -0.3944 -0.2875
  928MOL0     H22457   0.659   2.196   5.653  0.4327 -1.5370  0.9714
  928MOL0     H22458   0.609   2.565   5.470  0.6873  1.0323  1.8884
  928MOL0     H22459   0.361   2.642   5.439  0.0672 -0.0567  0.9394
  928MOL0     H22460  -0.090   2.416   5.439  2.2245  0.7202  0.3777
  928MOL0     H22461  -0.342   2.441   5.414 -2.9478 -4.7878  4.5822
  928MOL0     H22462  -0.577   2.478   5.711  0.7194 -0.4113 -0.0697
  928MOL0     H22463  -0.550   2.387   5.566  0.0129  0.3939 -1.7640
  928MOL0     H22464  -0.715   2.549   5.457 -2.4278  0.8652  0.9535
  928MOL0     H22465  -0.783   2.587   5.612 -1.9039 -0.1556 -1.5388
  928MOL0     H22466  -0.771   2.305   5.505  2.4776  0.3629  1.3475
  928MOL0     H22467  -0.907   2.412   5.491  0.4542 -1.6737 -0.6894
  928MOL0     H22468  -0.802   2.339   5.771 -0.7800 -2.4647  0.4170
  928MOL0     H22469  -0.937   2.436   5.732  2.1316  1.5616  1.9331
  928MOL0     H22470  -1.060   2.229   5.662  0.8342 -2.0951 -1.4539
  928MOL0     H22471  -0.969   2.182   5.809 -1.5260 -0.8981 -0.7256
  928MOL0     H22472  -0.911   2.127   5.517 -1.4074 -0.5028 -0.2044
  928MOL0     H22473  -0.965   2.014   5.620  2.4108 -1.2907  1.6694
  928MOL0     H22474  -0.707   2.139   5.680  0.8067 -1.8258  0.6801
  928MOL0     H22475  -0.770   2.007   5.776 -1.9928 -0.5431  0.0144
  928MOL0     H22476  -0.590   1.942   5.609  0.3799  1.3046 -1.4180
  928MOL0     H22477  -0.695   2.009   5.481  0.8299  3.1035  1.3056
  928MOL0     H22478  -0.344   2.691   5.765  0.6901  0.6114  0.2963
  928MOL0     H22479  -0.101   2.642   5.798 -0.8911  1.4358  0.5730
  928MOL0     H22480   0.261   2.379   5.756  1.4092 -0.8015  1.4314
  928MOL0     H22481   0.488   2.331   5.794 -1.4123 -0.5366 -0.0933
  928MOL0     H22482   0.445   2.174   5.432 -0.1924 -2.8716 -1.6601
  928MOL0     H22483   0.241   2.335   5.371 -2.9957 -0.2888 -2.5487
  928MOL0     H22484  -0.139   2.361   5.013 -2.3352 -0.6100  0.0991
  928MOL0     H22485  -0.354   2.463   5.065  0.9242 -2.5139  0.9736
  928MOL0     H22486  -0.354   2.860   5.261 -0.4539  0.6241  0.2494
  928MOL0     H22487  -0.435   2.739   5.374  3.0397 -0.5868  1.0303
  928MOL0     H22488  -0.565   2.876   5.142  0.4210  2.3652 -0.0489
  928MOL0     H22489  -0.624   2.741   5.227  1.9112 -0.2515 -0.7345
  928MOL0     H22490  -0.567   3.029   5.325  1.4456  0.1692  0.3288
  928MOL0     H22491  -0.576   2.895   5.448 -0.2274  2.0511  0.1571
  928MOL0     H22492  -0.793   2.943   5.240 -0.5432 -4.2996 -0.7112
  928MOL0     H22493  -0.790   2.836   5.368  1.2594 -0.1151 -0.9955
  928MOL0     H22494  -0.984   3.148   5.557 -0.4090  0.3463 -0.5027
  928MOL0     H22495  -0.145   2.779   5.276 -0.0143  1.1335 -0.8756
  928MOL0     H22496   0.061   2.672   5.245  1.0738  0.5394 -1.1320
  929MOL0     O22497   6.357   9.052  10.402  0.0695 -0.2920 -0.4851
  929MOL0     C22498   6.398   9.040  10.285  0.3578 -0.2857 -0.2685
  929MOL0     O22499   6.422   8.924  10.219  0.1018 -0.3510 -0.2155
  929MOL0     C22500   6.410   8.799  10.272  0.8997  0.6129  0.6555
  929MOL0     C22501   6.376   8.697  10.179  0.5289 -0.8592  0.3239
  929MOL0     C22502   6.373   8.572  10.222 -0.3606 -0.2790  0.2476
  929MOL0     C22503   6.392   8.531  10.354 -0.0279 -0.5293 -0.5310
  929MOL0     O22504   6.382   8.401  10.399 -0.8440 -0.0656 -0.8163
  929MOL0     C22505   6.323   8.309  10.308  0.3832 -0.5700 -0.1182
  929MOL0     C22506   6.326   8.174  10.370 -0.1452  0.0623  0.1917
  929MOL0     C22507   6.273   8.070  10.262 -0.7101  0.1230 -0.4011
  929MOL0     C22508   6.387   8.015  10.178  0.0167  0.1221 -0.1516
  929MOL0     C22509   6.315   7.950  10.063 -1.4799 -0.7375 -1.1210
  929MOL0     C22510   6.402   7.856   9.977  0.1303  0.8481 -0.7192
  929MOL0     C22511   6.435   7.718  10.043  0.0298 -0.9481  0.2836
  929MOL0     C22512   6.481   7.602   9.948 -0.3334  0.1937 -0.6867
  929MOL0     N22513   6.512   7.477  10.021 -0.3019 -0.4257 -0.9247
  929MOL0     C22514   6.641   7.426  10.033 -0.3094  0.1386  1.1844
  929MOL0     C22515   6.618   7.301  10.091 -0.3989 -1.4367 -0.6116
  929MOL0     C22516   6.720   7.202  10.132  0.9204  0.1826 -0.4995
  929MOL0     C22517   6.679   7.050  10.103  0.2006  0.1212  0.4145
  929MOL0     C22518   6.804   6.959  10.132  0.1320  0.6195  0.4283
  929MOL0     C22519   6.762   6.815  10.111 -0.6769 -0.5995  0.5294
  929MOL0     O22520   6.874   6.722  10.121 -0.0421 -0.5530 -0.0489
  929MOL0     C22521   6.855   6.585  10.095 -0.4638 -1.2668  0.3812
  929MOL0     C22522   6.967   6.509  10.091 -0.7492 -0.5456  1.1888
  929MOL0     C22523   6.947   6.374  10.069  0.6219  0.4622  0.9724
  929MOL0     C22524   6.823   6.308  10.052 -0.8383 -0.4169  0.1273
  929MOL0     C22525   6.819   6.164  10.026 -0.2135 -0.3287  1.3099
  929MOL0     O22526   6.923   6.101   9.964  0.6816  0.0889  0.2923
  929MOL0     C22527   6.923   5.967   9.974 -0.7709 -0.2046  0.0097
  929MOL0     C22528   6.904   5.883   9.869 -0.1671  0.2119 -0.0091
  929MOL0     C22529   6.940   5.742   9.865 -0.3593  0.0617  0.2770
  929MOL0     C22530   6.998   5.686   9.982  0.9985  0.2675  0.1005
  929MOL0     O22531   7.049   5.558  10.005  0.5650 -0.1018  0.1094
  929MOL0     C22532   7.016   5.451   9.910 -0.3042 -0.1340  0.2798
  929MOL0     C22533   7.126   5.347   9.880 -0.5026 -0.0279  1.2677
  929MOL0     C22534   7.213   5.281   9.996 -0.1375 -0.3750 -0.4479
  929MOL0     C22535   7.345   5.230   9.948  0.0657 -0.6687  0.7921
  929MOL0     C22536   7.415   5.173  10.069 -0.0130  0.4581 -0.5552
  929MOL0     C22537   7.544   5.103  10.042 -0.3621  0.0998 -0.3240
  929MOL0     C22538   7.621   5.082  10.174 -0.4040  0.4245 -0.6365
  929MOL0     C22539   7.742   4.984  10.151 -0.4276  0.9949 -0.4037
  929MOL0    Cl22540   7.850   5.045  10.024 -0.2493  0.0717  0.6623
  929MOL0     C22541   7.007   5.771  10.092 -0.5140  0.0123 -0.1085
  929MOL0     C22542   6.958   5.902  10.094 -0.1255  0.3839  0.3692
  929MOL0     O22543   6.735   6.107  10.097  0.9637  0.1034  0.0712
  929MOL0     C22544   6.711   6.391  10.065 -0.1437  0.2902 -0.2960
  929MOL0     C22545   6.726   6.532  10.083 -0.7063  0.7198 -0.0332
  929MOL0     N22546   6.480   7.298  10.118 -0.2795  0.3618  0.2868
  929MOL0     N22547   6.416   7.396  10.083  0.2792  0.1535  0.1711
  929MOL0     C22548   6.425   8.627  10.446  0.0530 -0.4988  0.0785
  929MOL0     C22549   6.440   8.768  10.400  0.2076 -0.8345  0.2508
  929MOL0     C22550   6.426   9.163  10.208 -0.2700 -0.8307 -0.2150
  929MOL0     C22551   6.444   9.293  10.274  0.7655  0.2201 -0.4096
  929MOL0     C22552   6.461   9.403  10.201  0.0492 -0.5764 -0.3241
  929MOL0     C22553   6.457   9.391  10.063  0.2036 -0.4511  0.3081
  929MOL0     O22554   6.464   9.505   9.977 -0.5595 -0.1310 -0.3268
  929MOL0     C22555   6.455   9.636  10.035 -0.1225 -0.0995  0.2390
  929MOL0     C22556   6.426   9.744   9.931 -0.3085  0.8968 -0.1683
  929MOL0     C22557   6.540   9.841   9.915  0.2162  0.2553  0.0422
  929MOL0     C22558   6.529   9.927   9.786 -0.4070  0.2546  0.1346
  929MOL0     C22559   6.430  10.040   9.792 -1.2919  0.5655  0.9599
  929MOL0     C22560   6.379  10.145   9.798  0.5357 -0.3112 -0.0627
  929MOL0     C22561   6.455   9.277   9.992  0.1389  0.0712 -0.9690
  929MOL0     C22562   6.435   9.156  10.067  0.2914  0.4241  1.1322
  929MOL0     H22563   6.358   8.717  10.074  1.6076 -1.0498  0.0927
  929MOL0     H22564   6.331   8.515  10.140 -3.5714  1.7380  0.2682
  929MOL0     H22565   6.364   8.324  10.208  0.2660  3.4018  0.2438
  929MOL0     H22566   6.217   8.333  10.296  0.4564 -1.4022 -3.1310
  929MOL0     H22567   6.256   8.183  10.453 -2.5647  1.6493 -1.8443
  929MOL0     H22568   6.427   8.148  10.402 -0.3359  2.1583  2.7523
  929MOL0     H22569   6.199   8.118  10.198  1.9396  3.0696 -1.4651
  929MOL0     H22570   6.222   7.983  10.307 -1.8997  1.0290  0.0513
  929MOL0     H22571   6.442   8.102  10.139  0.1370  0.0956 -0.0397
  929MOL0     H22572   6.458   7.951  10.230  1.1003 -0.3811 -2.1279
  929MOL0     H22573   6.268   8.025   9.999 -1.0020  1.3893  0.8945
  929MOL0     H22574   6.243   7.886  10.115 -2.4532 -0.1545 -1.7043
  929MOL0     H22575   6.496   7.903   9.948  0.9108 -0.3324 -0.1729
  929MOL0     H22576   6.339   7.841   9.890  1.8525  2.5536 -2.3583
  929MOL0     H22577   6.505   7.733  10.125 -0.1125 -1.8470  0.5705
  929MOL0     H22578   6.351   7.676  10.098  0.0848 -0.9677  0.3527
  929MOL0     H22579   6.581   7.624   9.911  1.2164 -2.8276  1.2720
  929MOL0     H22580   6.412   7.596   9.863  2.6072 -0.2478 -3.1814
  929MOL0     H22581   6.737   7.470  10.006 -0.2976  0.2879  1.4688
  929MOL0     H22582   6.753   7.222  10.235 -0.8792  0.8828 -0.0162
  929MOL0     H22583   6.810   7.216  10.072  2.4084 -1.1229  1.3132
  929MOL0     H22584   6.635   7.038  10.003 -1.4499 -2.1189  1.3269
  929MOL0     H22585   6.601   7.023  10.174 -3.7651  0.1909 -3.4697
  929MOL0     H22586   6.889   6.981  10.067 -1.4177 -1.7461 -2.6961
  929MOL0     H22587   6.842   6.974  10.234  4.7125  2.7474 -1.3365
  929MOL0     H22588   6.721   6.791  10.012 -4.0831  1.4851  1.2730
  929MOL0     H22589   6.678   6.794  10.179  0.6791 -0.0717  2.4496
  929MOL0     H22590   7.060   6.561  10.112 -0.7101 -1.4385  3.5389
  929MOL0     H22591   7.043   6.323  10.077  0.6189  0.6522  2.4233
  929MOL0     H22592   6.860   5.908   9.773  0.8292 -1.5083 -0.9783
  929MOL0     H22593   6.932   5.703   9.764  1.0714  2.0689 -0.6988
  929MOL0     H22594   6.978   5.479   9.811  3.6489  1.4000 -0.9828
  929MOL0     H22595   6.934   5.394   9.957 -0.5236  0.5338  0.7252
  929MOL0     H22596   7.190   5.412   9.819  0.1066 -2.1246 -0.4628
  929MOL0     H22597   7.079   5.270   9.818 -0.3430  0.7909  0.0729
  929MOL0     H22598   7.151   5.202  10.038  2.2820 -1.3731  1.4715
  929MOL0     H22599   7.231   5.359  10.070  0.5130 -0.1596 -0.8238
  929MOL0     H22600   7.342   5.143   9.882  0.9959  0.4894 -0.8484
  929MOL0     H22601   7.396   5.307   9.889 -2.4209  0.6693  0.2302
  929MOL0     H22602   7.347   5.097  10.107  0.1071  0.1234 -1.0043
  929MOL0     H22603   7.441   5.256  10.135  1.0129 -0.4498  0.2068
  929MOL0     H22604   7.610   5.156   9.973  0.1491 -0.1904 -0.0706
  929MOL0     H22605   7.538   5.006   9.993  0.5596 -0.4630  0.6227
  929MOL0     H22606   7.655   5.173  10.224 -1.7722  1.5059 -1.6072
  929MOL0     H22607   7.548   5.044  10.246  1.6100  0.4361  1.5100
  929MOL0     H22608   7.686   4.898  10.111 -2.2989  2.0338 -0.1504
  929MOL0     H22609   7.802   4.954  10.237 -1.5791 -2.1532 -0.5407
  929MOL0     H22610   7.046   5.730  10.185  2.3235  0.3726 -1.0524
  929MOL0     H22611   6.962   5.961  10.186 -4.0360  1.0130  0.3170
  929MOL0     H22612   6.610   6.350  10.059  0.3904 -1.0061 -0.8321
  929MOL0     H22613   6.649   6.607  10.096  2.0570  3.7256  0.3439
  929MOL0     H22614   6.436   8.598  10.550 -0.8987  2.0261  0.9803
  929MOL0     H22615   6.468   8.846  10.470  0.6052  1.3861 -2.2121
  929MOL0     H22616   6.437   9.294  10.383 -0.0661  2.1216 -0.4363
  929MOL0     H22617   6.491   9.492  10.256  1.3661 -1.9145  1.2168
  929MOL0     H22618   6.546   9.660  10.091  1.0766 -2.6934 -0.4387
  929MOL0     H22619   6.367   9.639  10.100  1.2820 -0.3671  2.2519
  929MOL0     H22620   6.405   9.696   9.835  1.0324 -1.3997  0.6122
  929MOL0     H22621   6.345   9.808   9.968  1.1572  0.8731  3.4370
  929MOL0     H22622   6.633   9.783   9.914  0.0167 -0.0590 -0.6630
  929MOL0     H22623   6.548   9.901  10.006 -0.4384 -2.3145  1.9012
  929MOL0     H22624   6.621   9.979   9.759 -1.7449  1.3715 -2.6568
  929MOL0     H22625   6.496   9.860   9.705  0.5630  0.0115 -0.0670
  929MOL0     H22626   6.323  10.235   9.811 -3.1290 -2.3041 -0.7708
  929MOL0     H22627   6.476   9.269   9.886  1.7440  0.4102 -0.6974
  929MOL0     H22628   6.446   9.062  10.013  4.8837 -0.3496  2.9068
  930MOL0     O22629   4.204   4.161   3.306 -0.9229  0.0393 -0.8006
  930MOL0     C22630   4.275   4.171   3.405  0.1180 -0.1521 -0.6678
  930MOL0     O22631   4.239   4.212   3.537 -1.1968 -0.0465 -0.0179
  930MOL0     C22632   4.127   4.279   3.569  0.1143  0.3319  0.3892
  930MOL0     C22633   4.079   4.251   3.695  0.6363 -0.2876  0.0013
  930MOL0     C22634   3.961   4.313   3.735  0.0065  1.0156  0.6053
  930MOL0     C22635   3.900   4.416   3.659 -0.6405 -0.1640  0.9907
  930MOL0     O22636   3.786   4.473   3.714  0.1672  1.1045 -0.6101
  930MOL0     C22637   3.725   4.593   3.651  0.8939 -0.6344  0.0912
  930MOL0     C22638   3.698   4.671   3.774  0.6475 -0.5938  0.5288
  930MOL0     C22639   3.824   4.694   3.851  0.1628  0.4682 -0.1367
  930MOL0     C22640   3.795   4.760   3.988 -0.0191  1.1233  0.5480
  930MOL0     C22641   3.917   4.823   4.048 -0.2504  0.8240 -0.2309
  930MOL0     C22642   3.879   4.906   4.169  0.5466  0.0759  0.5477
  930MOL0     C22643   3.998   4.976   4.233 -0.4408 -0.3369  0.3018
  930MOL0     C22644   4.058   5.088   4.142  0.2566 -0.3061 -0.5667
  930MOL0     N22645   4.179   5.142   4.204  0.3673  0.8535 -0.1181
  930MOL0     C22646   4.189   5.276   4.253  0.6668  0.3283 -0.3392
  930MOL0     C22647   4.312   5.278   4.298  0.3494  0.1831  0.7266
  930MOL0     C22648   4.388   5.394   4.354 -0.2975 -1.3296  0.4052
  930MOL0     C22649   4.315   5.434   4.489 -0.7677 -0.8690  0.8462
  930MOL0     C22650   4.356   5.563   4.561  1.3719 -0.9233  0.6915
  930MOL0     C22651   4.233   5.661   4.558  0.2737  0.2107 -0.5601
  930MOL0     O22652   4.178   5.667   4.432  0.5885 -0.9167  0.0066
  930MOL0     C22653   4.047   5.691   4.409  0.6875 -0.3022 -0.2791
  930MOL0     C22654   3.974   5.772   4.493 -1.0977  0.0238 -0.6449
  930MOL0     C22655   3.841   5.800   4.462  0.2447  0.1076 -0.3843
  930MOL0     C22656   3.770   5.736   4.360  0.0475 -0.4722  0.4758
  930MOL0     C22657   3.623   5.761   4.330 -0.4875 -0.3403  0.5840
  930MOL0     O22658   3.561   5.869   4.384  0.6491 -0.1731 -0.3696
  930MOL0     C22659   3.417   5.867   4.394 -0.0683 -0.1867 -0.8494
  930MOL0     C22660   3.353   5.999   4.387 -0.0322 -0.2332  0.2811
  930MOL0     C22661   3.218   6.009   4.383 -0.3872  0.4525 -0.1730
  930MOL0     C22662   3.143   5.894   4.406  0.0809 -0.0955 -0.0393
  930MOL0     O22663   3.003   5.895   4.409 -0.3688  0.1935 -0.8197
  930MOL0     C22664   2.950   6.000   4.490  0.7773 -0.2317 -0.0076
  930MOL0     C22665   2.847   5.941   4.587  0.7065  0.0073 -0.0055
  930MOL0     C22666   2.908   5.833   4.684  0.5038  0.1051 -0.4648
  930MOL0     C22667   2.799   5.782   4.770  0.0005  0.4315  0.4256
  930MOL0     C22668   2.763   5.870   4.888 -0.0234  0.6202  0.0291
  930MOL0     C22669   2.627   5.825   4.961  0.8487  0.4547 -0.2028
  930MOL0     C22670   2.521   5.904   4.902  0.4244  0.0259  1.0066
  930MOL0     C22671   2.508   6.046   4.954 -0.1629  1.0907  1.1731
  930MOL0    Cl22672   2.360   6.127   4.888 -0.1510 -0.2031 -0.0587
  930MOL0     C22673   3.203   5.767   4.423  0.5744 -0.1894  1.1075
  930MOL0     C22674   3.342   5.751   4.410 -0.4544  0.7106  0.1223
  930MOL0     O22675   3.570   5.690   4.240 -0.0746 -0.5130  0.2751
  930MOL0     C22676   3.846   5.646   4.279  0.7324  0.2027  0.6316
  930MOL0     C22677   3.985   5.627   4.302 -0.5787  0.2090 -0.4060
  930MOL0     N22678   4.373   5.155   4.292 -0.3721 -0.0774  0.0192
  930MOL0     N22679   4.295   5.072   4.231 -0.9018 -0.0915  0.5761
  930MOL0     C22680   3.951   4.446   3.530  0.0932 -0.3802  0.4387
  930MOL0     C22681   4.063   4.378   3.484  0.1869  0.2038 -0.0379
  930MOL0     C22682   4.416   4.143   3.379  0.1415 -0.0070  1.4686
  930MOL0     C22683   4.503   4.149   3.478 -0.6163  0.5219 -1.8159
  930MOL0     C22684   4.641   4.123   3.455  0.7006 -0.6426  0.6105
  930MOL0     C22685   4.681   4.065   3.330 -0.8116 -1.5614  0.1779
  930MOL0     O22686   4.811   4.039   3.299  0.1707  0.0316  0.0415
  930MOL0     C22687   4.908   4.043   3.405  0.1365 -0.1961  1.2003
  930MOL0     C22688   5.052   4.006   3.345 -0.1483  0.4525  0.7746
  930MOL0     C22689   5.075   3.857   3.309  0.0527  0.7399  0.0247
  930MOL0     C22690   5.219   3.838   3.263  0.1360  0.2798  0.1531
  930MOL0     C22691   5.240   3.712   3.193 -0.0344 -1.0727  0.5829
  930MOL0     C22692   5.265   3.613   3.133  0.1806 -0.0018 -0.4222
  930MOL0     C22693   4.591   4.056   3.231 -0.1524  0.8394 -0.3716
  930MOL0     C22694   4.456   4.094   3.252 -0.4497  0.2464  0.0853
  930MOL0     H22695   4.138   4.184   3.757  2.7955  0.0072 -1.6301
  930MOL0     H22696   3.923   4.291   3.834  0.7126 -3.2664  0.1437
  930MOL0     H22697   3.630   4.579   3.599  1.6169  3.0322 -2.6528
  930MOL0     H22698   3.786   4.647   3.578  1.4961  0.3615  1.2868
  930MOL0     H22699   3.623   4.623   3.838 -1.4997  2.3698  0.4332
  930MOL0     H22700   3.657   4.768   3.745  0.0271 -0.1874  2.6290
  930MOL0     H22701   3.878   4.778   3.806  0.6122  2.5645  3.8410
  930MOL0     H22702   3.896   4.613   3.862  0.1506  0.1425 -2.0720
  930MOL0     H22703   3.722   4.841   3.978  1.4179  2.6333  1.6030
  930MOL0     H22704   3.747   4.684   4.051  0.4176  1.4641  1.3001
  930MOL0     H22705   3.963   4.885   3.970  1.2000 -0.6064 -0.5743
  930MOL0     H22706   3.984   4.743   4.081  0.4451  0.3819 -2.5100
  930MOL0     H22707   3.827   4.841   4.240 -1.0890  1.5300  0.7476
  930MOL0     H22708   3.809   4.986   4.145 -0.2507 -0.0924  2.1517
  930MOL0     H22709   3.963   5.045   4.310  1.3924  1.0566 -0.0331
  930MOL0     H22710   4.071   4.903   4.268 -1.1250 -0.0832  2.3696
  930MOL0     H22711   3.980   5.162   4.124  1.1044  0.7930  0.1476
  930MOL0     H22712   4.093   5.040   4.049 -0.8546 -3.4193  0.5019
  930MOL0     H22713   4.114   5.354   4.245 -0.0817  0.0238  2.5870
  930MOL0     H22714   4.374   5.473   4.280 -0.9046 -0.6171  1.2662
  930MOL0     H22715   4.496   5.387   4.368  0.0263  0.7073 -0.6563
  930MOL0     H22716   4.345   5.350   4.552 -3.1673 -3.4463 -1.1265
  930MOL0     H22717   4.207   5.416   4.477 -0.3848 -1.9229 -1.7210
  930MOL0     H22718   4.364   5.541   4.668 -1.7681  4.3895  2.4107
  930MOL0     H22719   4.443   5.611   4.515 -1.7611  2.3260 -2.4864
  930MOL0     H22720   4.252   5.761   4.597 -2.1498  1.5692 -2.5793
  930MOL0     H22721   4.154   5.602   4.607 -1.2261  1.5775 -1.2333
  930MOL0     H22722   4.027   5.819   4.575 -0.0222 -1.5557 -0.3966
  930MOL0     H22723   3.806   5.872   4.534  1.4874 -0.3915  0.7612
  930MOL0     H22724   3.417   6.086   4.380 -1.2979  0.6199 -1.9586
  930MOL0     H22725   3.171   6.107   4.375 -2.2208 -0.4664 -1.5154
  930MOL0     H22726   2.898   6.079   4.434  2.9136  0.4413 -1.1539
  930MOL0     H22727   3.027   6.054   4.546 -0.4428  0.1746  1.3357
  930MOL0     H22728   2.766   5.896   4.529  0.4219  2.1465 -1.3445
  930MOL0     H22729   2.787   6.014   4.642 -3.0096 -4.0118  1.8854
  930MOL0     H22730   2.992   5.868   4.745  0.0913  0.3955 -0.0687
  930MOL0     H22731   2.953   5.751   4.626 -0.8214 -1.6203  0.8616
  930MOL0     H22732   2.708   5.774   4.709 -0.5362  1.8107  1.0019
  930MOL0     H22733   2.823   5.682   4.806  1.2927 -1.0160 -3.8302
  930MOL0     H22734   2.757   5.979   4.876 -0.4363  0.6765  0.6816
  930MOL0     H22735   2.847   5.858   4.957  0.3287  0.9865 -0.3293
  930MOL0     H22736   2.636   5.863   5.063 -0.5698  0.5088 -0.0765
  930MOL0     H22737   2.600   5.720   4.968 -3.0107  1.3983  1.7593
  930MOL0     H22738   2.532   5.906   4.794  1.0203 -0.2432  1.0591
  930MOL0     H22739   2.426   5.854   4.928  0.9205 -1.2890  0.3552
  930MOL0     H22740   2.593   6.110   4.932  2.2405 -0.7122  4.4334
  930MOL0     H22741   2.481   6.043   5.060 -0.4304  1.1036  1.1081
  930MOL0     H22742   3.138   5.683   4.446  0.1948 -0.5994 -1.1879
  930MOL0     H22743   3.393   5.657   4.426  0.1205  1.2711  1.7371
  930MOL0     H22744   3.790   5.600   4.198 -1.0507  1.9189  0.8171
  930MOL0     H22745   4.034   5.562   4.230  0.4928  1.3285 -0.7309
  930MOL0     H22746   3.899   4.521   3.471 -0.0401 -0.4018  0.5288
  930MOL0     H22747   4.111   4.411   3.393  0.7142  1.2860  0.6051
  930MOL0     H22748   4.470   4.176   3.578  3.3270 -0.4293 -0.0331
  930MOL0     H22749   4.712   4.146   3.534 -0.9490  2.6897  1.2874
  930MOL0     H22750   4.883   3.993   3.499 -2.7172 -0.0532  0.6106
  930MOL0     H22751   4.919   4.151   3.417 -1.4456  0.4826 -2.3700
  930MOL0     H22752   5.078   4.066   3.257  3.6741 -2.7306 -0.6355
  930MOL0     H22753   5.123   4.021   3.426  2.0274 -1.5806 -0.5947
  930MOL0     H22754   5.007   3.826   3.228  1.6830  0.5564 -1.3194
  930MOL0     H22755   5.044   3.793   3.392 -1.6798 -0.2097 -1.2855
  930MOL0     H22756   5.258   3.914   3.194  0.0611  0.6443  0.5092
  930MOL0     H22757   5.271   3.849   3.359  1.4029  2.0218 -0.6653
  930MOL0     H22758   5.289   3.526   3.076  1.9365  0.3864 -0.3429
  930MOL0     H22759   4.619   4.014   3.135  0.3442 -0.5036  0.3386
  930MOL0     H22760   4.386   4.111   3.170 -0.9335  2.1546  0.8433
  931MOL0     O22761   4.745  10.457   6.890 -0.0018  0.3768  0.2361
  931MOL0     C22762   4.707  10.396   6.790  0.6503  0.5503  0.8042
  931MOL0     O22763   4.583  10.367   6.758 -0.6478  0.2617 -0.6640
  931MOL0     C22764   4.496  10.456   6.821  0.3144 -0.0526 -0.6906
  931MOL0     C22765   4.417  10.406   6.926  0.3891  0.2812  0.4519
  931MOL0     C22766   4.341  10.490   7.015 -0.1883 -0.2021  0.5080
  931MOL0     C22767   4.339  10.630   6.988 -0.6767  0.2742 -0.1425
  931MOL0     O22768   4.271  10.701   7.081  0.9328  0.2296  0.7149
  931MOL0     C22769   4.152  10.765   7.018  0.0268 -1.0528 -0.2194
  931MOL0     C22770   4.039  10.812   7.126  0.2105 -0.4378 -0.0179
  931MOL0     C22771   3.988  10.709   7.230 -0.3109 -0.1059  0.1626
  931MOL0     C22772   3.888  10.783   7.320 -0.2447  0.0481 -0.3953
  931MOL0     C22773   3.795  10.687   7.402  0.2370  0.4316 -0.0513
  931MOL0     C22774   3.719  10.573   7.322 -0.2010  0.9792 -0.7071
  931MOL0     C22775   3.590  10.518   7.395  0.6006 -0.4381  0.3415
  931MOL0     C22776   3.475  10.625   7.408 -0.2321 -0.1645  0.9731
  931MOL0     N22777   3.355  10.557   7.450  0.0304 -0.0866 -0.5346
  931MOL0     C22778   3.352  10.510   7.582  0.1999 -0.1164  0.3680
  931MOL0     C22779   3.218  10.472   7.590 -0.0107 -0.8154  0.1968
  931MOL0     C22780   3.148  10.415   7.711  0.1735 -0.7946 -0.5144
  931MOL0     C22781   3.051  10.524   7.772  0.4796 -1.2570 -0.2595
  931MOL0     C22782   3.003  10.485   7.913  0.4639  0.3129 -0.2942
  931MOL0     C22783   2.891  10.579   7.950  0.5320 -0.3927 -0.3447
  931MOL0     O22784   2.880  10.596   8.088 -0.5854 -0.5028 -0.1735
  931MOL0     C22785   2.778  10.676   8.136 -0.3101  0.5809  0.3262
  931MOL0     C22786   2.767  10.686   8.272 -0.0934  0.4176 -0.8713
  931MOL0     C22787   2.660  10.756   8.337 -0.9538  0.2723  0.8016
  931MOL0     C22788   2.556  10.818   8.263 -0.9391  0.2194 -0.0408
  931MOL0     C22789   2.433  10.888   8.317 -1.0115  1.0601  0.0759
  931MOL0     O22790   2.311  10.871   8.255 -0.2883  0.8945 -0.3945
  931MOL0     C22791   2.210  10.944   8.305 -0.2529  0.0972 -0.7329
  931MOL0     C22792   2.197  11.075   8.292 -1.3086  0.7523  0.7406
  931MOL0     C22793   2.083  11.150   8.320  0.7949  0.4200 -0.3268
  931MOL0     C22794   1.967  11.089   8.368  0.0958  0.0818 -0.0020
  931MOL0     O22795   1.857  11.153   8.402 -0.3688 -0.1815  0.2426
  931MOL0     C22796   1.866  11.295   8.423 -0.1501  0.2374 -0.3877
  931MOL0     C22797   1.731  11.349   8.484 -0.4297  0.3003  0.2742
  931MOL0     C22798   1.757  11.484   8.552  0.7504 -0.0130  0.1080
  931MOL0     C22799   1.639  11.524   8.646 -0.5878  0.2220  0.1876
  931MOL0     C22800   1.653  11.454   8.782 -0.5344 -1.1545 -0.0384
  931MOL0     C22801   1.578  11.535   8.887 -0.0192  0.4315  0.7923
  931MOL0     C22802   1.430  11.570   8.849  0.0297 -0.3516  0.7658
  931MOL0     C22803   1.366  11.654   8.953  0.1992  0.4652  0.4276
  931MOL0    Cl22804   1.201  11.710   8.907 -0.2223  0.0705  0.1161
  931MOL0     C22805   1.971  10.949   8.380 -0.0197  0.1691  0.0125
  931MOL0     C22806   2.091  10.876   8.347  0.1532  0.0099 -0.6261
  931MOL0     O22807   2.446  10.940   8.426 -0.6390  0.9496  0.1546
  931MOL0     C22808   2.565  10.801   8.127 -0.1245 -0.2360 -0.2881
  931MOL0     C22809   2.671  10.733   8.064  0.4071 -0.2315  0.1401
  931MOL0     N22810   3.148  10.522   7.477 -0.5824  0.1611  0.0961
  931MOL0     N22811   3.235  10.569   7.393  0.9230  1.2396 -0.5948
  931MOL0     C22812   4.407  10.679   6.876  0.2636  0.2013  0.3257
  931MOL0     C22813   4.494  10.594   6.794  0.1560 -0.1520 -0.4651
  931MOL0     C22814   4.809  10.353   6.701  0.6640  0.0703 -1.3565
  931MOL0     C22815   4.775  10.290   6.585 -0.0048 -0.0056  0.0065
  931MOL0     C22816   4.868  10.255   6.482  0.0807  0.0466 -0.9793
  931MOL0     C22817   5.006  10.276   6.511  0.0297 -0.2293  0.6172
  931MOL0     O22818   5.107  10.233   6.427 -0.1375 -0.6080 -0.3333
  931MOL0     C22819   5.082  10.238   6.280  0.1572  0.3406  0.6511
  931MOL0     C22820   5.173  10.137   6.215  0.0278  0.4148 -0.5692
  931MOL0     C22821   5.163  10.133   6.064  0.5721 -0.5853  0.2712
  931MOL0     C22822   5.279  10.062   5.989 -1.1457  0.2757 -0.3986
  931MOL0     C22823   5.400  10.149   5.993 -0.8426 -0.9004 -0.3446
  931MOL0     C22824   5.495  10.220   6.006  0.6625 -0.9730  0.0569
  931MOL0     C22825   5.047  10.345   6.628  0.0086 -0.6342  0.5449
  931MOL0     C22826   4.943  10.389   6.714 -0.4755 -0.3517  0.5363
  931MOL0     H22827   4.409  10.299   6.940  2.7469 -0.5374 -3.0832
  931MOL0     H22828   4.280  10.449   7.095 -0.9004  0.8072  0.4972
  931MOL0     H22829   4.105  10.692   6.951 -3.5918 -2.2184  3.1937
  931MOL0     H22830   4.181  10.856   6.966 -3.8162  0.3563 -0.1342
  931MOL0     H22831   3.962  10.846   7.056  0.7699 -0.1769 -0.5237
  931MOL0     H22832   4.078  10.898   7.181  2.5383 -0.4664 -1.4726
  931MOL0     H22833   4.071  10.657   7.279 -1.7689 -1.8520  0.9172
  931MOL0     H22834   3.929  10.643   7.166 -4.4603  3.5684 -0.3435
  931MOL0     H22835   3.942  10.848   7.390  0.0368 -1.3688  0.7608
  931MOL0     H22836   3.824  10.851   7.263 -1.9613  1.0848  2.5525
  931MOL0     H22837   3.708  10.744   7.435  1.5705  2.3117  0.3942
  931MOL0     H22838   3.840  10.648   7.494 -0.8012  1.5618  0.9810
  931MOL0     H22839   3.791  10.493   7.302  0.5367  1.1674  1.0277
  931MOL0     H22840   3.681  10.612   7.227 -0.9176  0.3753 -0.6751
  931MOL0     H22841   3.553  10.436   7.334  2.2368 -1.5806  0.8011
  931MOL0     H22842   3.618  10.479   7.494 -2.7293 -1.1719  1.1406
  931MOL0     H22843   3.449  10.670   7.312 -0.7129 -0.1746  1.1001
  931MOL0     H22844   3.521  10.699   7.474  2.4202 -1.0699  0.2976
  931MOL0     H22845   3.428  10.519   7.659 -1.5429  2.0147  1.9796
  931MOL0     H22846   3.213  10.390   7.795 -0.7185 -2.1382 -0.1868
  931MOL0     H22847   3.098  10.326   7.672 -1.1557 -1.2055  1.9304
  931MOL0     H22848   2.970  10.556   7.706  1.9332 -0.3121 -1.6871
  931MOL0     H22849   3.115  10.612   7.778 -0.1491 -0.8458  0.5112
  931MOL0     H22850   2.975  10.379   7.922 -0.1115  0.3833 -1.1298
  931MOL0     H22851   3.089  10.498   7.979  1.9622 -1.4066 -1.7757
  931MOL0     H22852   2.798  10.546   7.903 -0.0613  0.1991  0.3809
  931MOL0     H22853   2.922  10.673   7.904 -0.0111 -0.9756 -1.9679
  931MOL0     H22854   2.837  10.633   8.336  0.8854 -1.0772 -3.0672
  931MOL0     H22855   2.656  10.756   8.446 -1.3613  2.3221  0.8244
  931MOL0     H22856   2.288  11.122   8.256 -1.7378 -0.5011 -2.2982
  931MOL0     H22857   2.093  11.257   8.309  0.8065  0.1891 -3.2424
  931MOL0     H22858   1.879  11.351   8.330  0.7642 -0.6845 -0.8300
  931MOL0     H22859   1.943  11.326   8.493 -1.4099  1.0972  0.6707
  931MOL0     H22860   1.718  11.286   8.572 -1.7708  2.2864  1.5735
  931MOL0     H22861   1.655  11.340   8.406 -0.2490  0.7506  0.0396
  931MOL0     H22862   1.762  11.558   8.471 -0.6462 -2.5501 -2.4704
  931MOL0     H22863   1.849  11.474   8.609  0.5889  0.4408  0.4554
  931MOL0     H22864   1.649  11.632   8.659 -0.0947  0.2263 -0.1978
  931MOL0     H22865   1.540  11.509   8.600 -1.2882 -1.7968  2.1466
  931MOL0     H22866   1.757  11.453   8.814 -0.1812 -0.3628 -1.0893
  931MOL0     H22867   1.612  11.354   8.765 -1.9078 -1.0580  2.1999
  931MOL0     H22868   1.631  11.624   8.921 -1.3930 -0.0957  4.9368
  931MOL0     H22869   1.572  11.477   8.980 -1.3143 -2.3254 -0.8864
  931MOL0     H22870   1.420  11.611   8.748 -0.1526 -2.1568  0.0055
  931MOL0     H22871   1.366  11.481   8.852 -2.3989  1.3369  1.9439
  931MOL0     H22872   1.421  11.746   8.975  1.3274 -0.4331  1.5153
  931MOL0     H22873   1.357  11.597   9.046  1.7256  0.7300  0.7763
  931MOL0     H22874   1.884  10.891   8.410  0.4314 -0.7086 -0.3207
  931MOL0     H22875   2.085  10.768   8.359  0.9722 -0.1011 -1.1577
  931MOL0     H22876   2.476  10.827   8.070 -1.1459 -1.7650  0.5364
  931MOL0     H22877   2.667  10.711   7.958  2.3750  0.8274 -0.2103
  931MOL0     H22878   4.413  10.786   6.860  1.1937 -0.0428 -1.1400
  931MOL0     H22879   4.560  10.634   6.718  1.5654  0.1079  0.8549
  931MOL0     H22880   4.681  10.240   6.566 -0.5296  0.0520  2.2526
  931MOL0     H22881   4.842  10.196   6.395 -0.8006 -2.0316  0.5711
  931MOL0     H22882   5.109  10.338   6.246  0.1168  0.1219 -0.0591
  931MOL0     H22883   4.981  10.205   6.251 -0.1925  1.9054  0.0221
  931MOL0     H22884   5.273  10.174   6.241  0.6992 -0.1303 -2.2236
  931MOL0     H22885   5.165  10.040   6.265  2.1794  1.6719  2.5047
  931MOL0     H22886   5.142  10.234   6.025 -2.0116  0.1682  3.1422
  931MOL0     H22887   5.071  10.080   6.039 -0.0280  1.0510 -1.2088
  931MOL0     H22888   5.300   9.962   6.029  2.1802  0.2909 -1.7249
  931MOL0     H22889   5.258  10.059   5.882  2.4466  0.5105 -1.2271
  931MOL0     H22890   5.583  10.281   6.004  0.3435 -0.3841  1.7890
  931MOL0     H22891   5.148  10.385   6.624 -0.2967  0.0586 -1.3096
  931MOL0     H22892   4.967  10.450   6.800  0.4800 -2.4819  1.8642
  932MOL0     O22893   2.856   9.449   9.942 -0.7228 -0.3138 -0.1541
  932MOL0     C22894   2.924   9.554   9.932  1.0977  0.3135 -0.0894
  932MOL0     O22895   2.880   9.691   9.935 -0.3720  0.6200  0.3521
  932MOL0     C22896   2.755   9.735   9.971  0.1389  0.3605 -1.9832
  932MOL0     C22897   2.743   9.874   9.996 -0.3245  1.3216  0.3936
  932MOL0     C22898   2.623   9.940  10.026 -0.4075  1.1586 -0.7183
  932MOL0     C22899   2.515   9.862  10.064 -0.3022  0.1088 -0.4424
  932MOL0     O22900   2.396   9.920  10.098  0.6964  0.4536 -0.3389
  932MOL0     C22901   2.397  10.038  10.177  0.4172  0.2259 -0.9580
  932MOL0     C22902   2.260  10.047  10.254 -0.3676  0.0825 -0.5244
  932MOL0     C22903   2.255   9.959  10.387  0.2228  0.1257  0.3698
  932MOL0     C22904   2.116   9.944  10.435  0.1831  0.8707  0.4624
  932MOL0     C22905   2.030   9.845  10.361  0.1386 -0.0687 -0.1486
  932MOL0     C22906   1.928   9.776  10.447  0.7993  0.3652 -0.2022
  932MOL0     C22907   1.795   9.846  10.480 -0.9477  0.4362 -1.1028
  932MOL0     C22908   1.799   9.979  10.552 -0.0409 -0.2100  0.7200
  932MOL0     N22909   1.664  10.021  10.595 -0.2160 -0.1521  0.5673
  932MOL0     C22910   1.596  10.116  10.530  0.3467 -0.3537 -0.3726
  932MOL0     C22911   1.497  10.145  10.621 -0.0028  0.0465 -0.6263
  932MOL0     C22912   1.367  10.224  10.595  0.3112  0.5840 -1.1551
  932MOL0     C22913   1.288  10.141  10.498 -0.0686  0.1270 -0.4339
  932MOL0     C22914   1.279  10.207  10.362  0.5745  0.3341 -0.0790
  932MOL0     C22915   1.228  10.092  10.275 -0.2003 -0.1703  0.1625
  932MOL0     O22916   1.220  10.144  10.146  0.3548 -0.5604  0.4975
  932MOL0     C22917   1.185  10.060  10.046  0.0121  1.2324  0.9503
  932MOL0     C22918   1.148  10.124   9.932  0.2549 -0.0144 -0.8537
  932MOL0     C22919   1.102  10.057   9.817  0.9250 -0.0471  0.5023
  932MOL0     C22920   1.098   9.920   9.813  0.6193 -0.3009  0.7576
  932MOL0     C22921   1.063   9.847   9.688  0.1919  0.2931  0.6917
  932MOL0     O22922   1.120   9.721   9.676  0.2832 -0.7002 -0.5127
  932MOL0     C22923   1.059   9.630   9.591  0.1550  0.4712 -0.3398
  932MOL0     C22924   0.930   9.585   9.619 -0.0175  0.7802 -0.6427
  932MOL0     C22925   0.884   9.466   9.553  0.0031 -0.1910 -0.9111
  932MOL0     C22926   0.962   9.402   9.459 -0.2166  1.6147  0.4103
  932MOL0     O22927   0.908   9.306   9.377  0.1101 -0.1211 -0.5010
  932MOL0     C22928   0.765   9.321   9.350  0.3968  0.7478  0.3229
  932MOL0     C22929   0.709   9.225   9.247 -0.4090 -0.2998  0.1040
  932MOL0     C22930   0.555   9.223   9.234 -0.8021  0.0128  0.8325
  932MOL0     C22931   0.505   9.091   9.170  0.3748 -1.6321 -0.1955
  932MOL0     C22932   0.358   9.098   9.125  0.2219  0.4018  0.0088
  932MOL0     C22933   0.321   8.999   8.998 -0.2636 -0.2506  0.7294
  932MOL0     C22934   0.178   9.019   8.952  0.4849  0.1835 -0.3223
  932MOL0     C22935   0.156   8.952   8.821 -0.1826  0.0682  0.0324
  932MOL0    Cl22936  -0.013   8.930   8.772 -0.1081 -0.0548  0.4173
  932MOL0     C22937   1.100   9.439   9.446  0.6042 -0.5553 -0.2041
  932MOL0     C22938   1.148   9.552   9.518 -0.5430  0.1782 -0.1477
  932MOL0     O22939   0.987   9.897   9.609 -0.3108 -0.3594  0.0459
  932MOL0     C22940   1.141   9.850   9.930  1.1900 -0.0370  1.1439
  932MOL0     C22941   1.195   9.916  10.046  0.0630 -0.6583  0.0758
  932MOL0     N22942   1.499  10.052  10.728 -0.0969  0.7313  1.0876
  932MOL0     N22943   1.601   9.974  10.707  0.2127 -0.0635  0.3142
  932MOL0     C22944   2.520   9.720  10.043 -0.1751 -0.4952 -0.0246
  932MOL0     C22945   2.637   9.663   9.989 -0.4724  0.1029 -0.2433
  932MOL0     C22946   3.059   9.530   9.894 -0.4872  0.1275  0.1063
  932MOL0     C22947   3.153   9.634   9.906  1.2805 -0.4326 -0.2188
  932MOL0     C22948   3.282   9.618   9.871 -0.6349  1.0086  0.6215
  932MOL0     C22949   3.336   9.488   9.844  0.5444  0.3657 -1.1172
  932MOL0     O22950   3.469   9.470   9.830 -0.3505  0.5014 -0.2799
  932MOL0     C22951   3.522   9.344   9.892 -1.8924  0.6321 -0.3772
  932MOL0     C22952   3.643   9.375   9.984 -0.7081  0.1101  0.8601
  932MOL0     C22953   3.752   9.472   9.917 -0.6539 -0.6398 -0.6600
  932MOL0     C22954   3.823   9.418   9.795  0.4378 -0.2887 -0.0789
  932MOL0     C22955   3.909   9.302   9.828  0.0982 -0.0457 -0.3779
  932MOL0     C22956   3.979   9.207   9.855 -0.0004  0.0686  0.2165
  932MOL0     C22957   3.244   9.381   9.833 -0.0827 -0.8105 -0.4497
  932MOL0     C22958   3.109   9.407   9.858  1.3567 -0.2871  0.3140
  932MOL0     H22959   2.825   9.942   9.974 -0.8003  2.1032  0.9780
  932MOL0     H22960   2.640  10.047  10.020 -1.4519  1.2734 -5.2904
  932MOL0     H22961   2.395  10.123  10.107  1.7911 -1.0255 -2.5926
  932MOL0     H22962   2.486  10.052  10.239 -0.0181  4.0363 -0.9081
  932MOL0     H22963   2.193  10.011  10.176  1.5269  0.1965 -2.2908
  932MOL0     H22964   2.223  10.148  10.275 -2.9700 -0.7827 -0.6388
  932MOL0     H22965   2.302  10.008  10.473 -0.9501 -1.8681  2.2490
  932MOL0     H22966   2.298   9.860  10.372  0.7563  0.4851 -0.5792
  932MOL0     H22967   2.114   9.913  10.540 -0.2529 -0.2459  0.1441
  932MOL0     H22968   2.061  10.038  10.433 -2.1107 -0.3921 -0.5762
  932MOL0     H22969   2.079   9.763  10.307 -1.4518 -0.2968 -1.3262
  932MOL0     H22970   1.971   9.905  10.292 -1.4118  1.0667  2.0649
  932MOL0     H22971   1.979   9.723  10.527  0.6335 -1.4090 -1.2186
  932MOL0     H22972   1.893   9.684  10.397  1.0044  0.6735 -0.9328
  932MOL0     H22973   1.736   9.865  10.390 -5.0464  0.4267  1.3088
  932MOL0     H22974   1.737   9.768  10.531  1.6512 -0.2236  1.0504
  932MOL0     H22975   1.826  10.061  10.484  2.6134 -1.2639  0.3879
  932MOL0     H22976   1.867   9.972  10.638 -0.9716 -1.0549  1.4179
  932MOL0     H22977   1.621  10.174  10.442 -1.3115  0.2069 -0.5172
  932MOL0     H22978   1.397  10.324  10.564  2.6482  0.1426 -0.5658
  932MOL0     H22979   1.304  10.236  10.684  1.6885  0.2748 -0.0957
  932MOL0     H22980   1.188  10.130  10.541 -0.4727  1.0214 -1.0989
  932MOL0     H22981   1.328  10.041  10.480 -1.5583 -0.2733 -1.7126
  932MOL0     H22982   1.213  10.295  10.364  1.6076  1.2674 -2.7563
  932MOL0     H22983   1.379  10.238  10.331  1.2031 -1.0661  0.4798
  932MOL0     H22984   1.128  10.059  10.304 -0.8707 -1.5930 -3.2405
  932MOL0     H22985   1.297  10.007  10.279 -1.3484 -1.3240 -2.2235
  932MOL0     H22986   1.154  10.233   9.932  2.0655 -0.0690  0.6855
  932MOL0     H22987   1.074  10.109   9.726  0.0569 -2.6585 -0.8366
  932MOL0     H22988   0.861   9.642   9.680  0.6282  1.0541 -0.1611
  932MOL0     H22989   0.781   9.440   9.570  0.1351  1.2386  2.8863
  932MOL0     H22990   0.755   9.417   9.299  0.5276  0.2768 -0.6108
  932MOL0     H22991   0.714   9.306   9.445  1.0237 -0.3198  0.5087
  932MOL0     H22992   0.730   9.123   9.282 -0.8394 -0.2738  0.4396
  932MOL0     H22993   0.752   9.229   9.146 -3.4574  2.0880 -1.2610
  932MOL0     H22994   0.513   9.308   9.178 -0.2810 -0.2496  0.0187
  932MOL0     H22995   0.514   9.235   9.335  2.3449  3.4950  1.9413
  932MOL0     H22996   0.560   9.080   9.076 -0.3248  0.0387 -0.8300
  932MOL0     H22997   0.531   9.008   9.237 -0.3104 -3.1054 -1.6782
  932MOL0     H22998   0.342   9.199   9.086 -0.7643  0.1699 -0.2285
  932MOL0     H22999   0.292   9.064   9.206 -0.8035 -0.8917 -1.3072
  932MOL0     H23000   0.338   8.893   9.020 -1.4706 -0.9791 -1.4910
  932MOL0     H23001   0.371   9.032   8.906 -2.0088  2.8408  0.7604
  932MOL0     H23002   0.110   8.974   9.025  1.7719 -1.2050  0.0647
  932MOL0     H23003   0.151   9.125   8.948  1.0786  0.4282  1.5120
  932MOL0     H23004   0.213   8.858   8.820  0.8419  0.6667 -1.5956
  932MOL0     H23005   0.195   9.021   8.746 -1.7121  0.0112 -0.8556
  932MOL0     H23006   1.158   9.382   9.375  2.9306 -0.5170  1.5281
  932MOL0     H23007   1.251   9.586   9.507 -1.5715  3.2789 -1.4211
  932MOL0     H23008   1.150   9.742   9.924  0.6734 -0.0304  0.1817
  932MOL0     H23009   1.231   9.853  10.126  1.2222  0.6742  0.6356
  932MOL0     H23010   2.422   9.674  10.042 -1.0636  1.3138 -1.5954
  932MOL0     H23011   2.645   9.561   9.952  3.1845 -0.1828  0.9491
  932MOL0     H23012   3.128   9.736   9.931 -0.2978 -1.5096  3.1858
  932MOL0     H23013   3.363   9.689   9.885  2.4495 -1.6763 -1.9307
  932MOL0     H23014   3.554   9.278   9.810 -2.2937  0.5295 -0.4493
  932MOL0     H23015   3.464   9.293   9.968  0.0085  1.3646  1.6785
  932MOL0     H23016   3.604   9.424  10.073 -3.7352 -0.0879 -0.2517
  932MOL0     H23017   3.690   9.279  10.009 -2.4872 -1.1866 -0.5135
  932MOL0     H23018   3.825   9.476   9.998 -1.4518 -2.0771  0.1818
  932MOL0     H23019   3.714   9.571   9.890 -0.3140 -0.9530 -2.4076
  932MOL0     H23020   3.751   9.384   9.720 -0.4629 -3.4520  2.0178
  932MOL0     H23021   3.892   9.496   9.762 -2.2670  2.7748  0.9626
  932MOL0     H23022   4.030   9.117   9.883  1.1746  0.0043 -1.8962
  932MOL0     H23023   3.285   9.284   9.805  0.8033 -0.0317 -1.9769
  932MOL0     H23024   3.043   9.323   9.843 -0.0159  1.0086 -1.3430
  933MOL0     O23025   4.177   2.393   9.441  0.0086 -0.3852 -0.7130
  933MOL0     C23026   4.158   2.292   9.505 -0.4872  1.0493  0.1846
  933MOL0     O23027   4.230   2.184   9.484  0.0627 -0.0368  0.7913
  933MOL0     C23028   4.344   2.182   9.407 -0.2611  0.5655 -0.2349
  933MOL0     C23029   4.343   2.212   9.275 -0.5999  0.4579  0.5718
  933MOL0     C23030   4.464   2.207   9.206  0.9866 -0.4167  0.6223
  933MOL0     C23031   4.588   2.172   9.267  0.6423  0.7727 -1.1196
  933MOL0     O23032   4.712   2.156   9.207 -0.5270 -0.2284 -0.3584
  933MOL0     C23033   4.716   2.231   9.082 -0.2212 -0.6325 -1.0265
  933MOL0     C23034   4.670   2.151   8.959  0.2280  0.3376 -0.2025
  933MOL0     C23035   4.780   2.054   8.919 -1.0532 -0.3348 -0.6551
  933MOL0     C23036   4.751   1.948   8.811 -0.2382 -0.5280  0.3802
  933MOL0     C23037   4.666   1.834   8.859 -0.6447 -0.3716 -0.6451
  933MOL0     C23038   4.741   1.724   8.931 -0.1105  0.1684  0.8992
  933MOL0     C23039   4.644   1.605   8.954 -0.9105  0.7375 -1.0437
  933MOL0     C23040   4.715   1.479   8.981  0.1565 -1.1686 -0.9184
  933MOL0     N23041   4.640   1.368   9.016  0.0305  0.4207 -0.2628
  933MOL0     C23042   4.529   1.349   9.099  0.2043  0.1194  0.7521
  933MOL0     C23043   4.492   1.213   9.105  0.4006 -0.1487  0.0040
  933MOL0     C23044   4.376   1.138   9.184  0.2261  0.2700  0.0834
  933MOL0     C23045   4.245   1.095   9.109  0.1641  0.1825 -0.6329
  933MOL0     C23046   4.191   1.219   9.040  0.4027  0.5302 -0.1760
  933MOL0     C23047   4.051   1.197   8.994 -0.3152  0.8300 -0.7692
  933MOL0     O23048   3.970   1.178   9.111  1.2672  0.2808 -0.1370
  933MOL0     C23049   3.835   1.198   9.103  0.0278 -0.4340 -1.1193
  933MOL0     C23050   3.772   1.209   9.227  0.2187  0.3136 -0.4660
  933MOL0     C23051   3.636   1.251   9.234 -0.2818  0.9221  0.4265
  933MOL0     C23052   3.559   1.234   9.113  0.3614 -0.3348 -0.1371
  933MOL0     C23053   3.408   1.259   9.128 -0.0083  0.1120  0.0469
  933MOL0     O23054   3.367   1.311   9.250 -0.3374 -0.3268  0.3014
  933MOL0     C23055   3.234   1.310   9.281 -0.1599 -0.6395  0.4178
  933MOL0     C23056   3.184   1.247   9.406 -0.6025  0.2375 -0.6364
  933MOL0     C23057   3.051   1.261   9.453 -1.0662 -0.6750 -0.0634
  933MOL0     C23058   2.961   1.342   9.379  0.1066  0.4143 -0.7168
  933MOL0     O23059   2.835   1.366   9.424 -0.9126  0.2650  0.0296
  933MOL0     C23060   2.791   1.508   9.410 -0.5485  0.2185  0.1332
  933MOL0     C23061   2.688   1.566   9.500  0.4637 -0.2786 -1.1198
  933MOL0     C23062   2.632   1.702   9.453 -0.0586 -0.2833  0.5627
  933MOL0     C23063   2.727   1.816   9.430 -0.3468 -0.3155  0.1033
  933MOL0     C23064   2.751   1.905   9.548 -0.2901 -0.7061 -0.0990
  933MOL0     C23065   2.827   1.841   9.661  0.2650 -0.6390  0.6120
  933MOL0     C23066   2.888   1.928   9.769 -0.0278 -0.3916  0.5573
  933MOL0     C23067   2.764   1.976   9.864 -0.5733  0.4555  1.4556
  933MOL0    Cl23068   2.816   2.106   9.955 -0.2833 -0.1459 -0.2336
  933MOL0     C23069   3.004   1.394   9.260 -0.6559 -0.6499 -0.1012
  933MOL0     C23070   3.135   1.383   9.208  0.3637  0.9430 -0.3257
  933MOL0     O23071   3.329   1.217   9.042 -0.9692 -0.1332  0.5091
  933MOL0     C23072   3.616   1.213   8.989 -0.2382  1.3178 -0.8269
  933MOL0     C23073   3.754   1.196   8.983 -0.7339 -0.1612  0.3120
  933MOL0     N23074   4.570   1.165   9.002  0.4405 -0.0346 -0.9019
  933MOL0     N23075   4.656   1.255   8.944  0.3672  1.0261 -0.1940
  933MOL0     C23076   4.580   2.139   9.399 -0.5399 -0.4491  0.1012
  933MOL0     C23077   4.457   2.140   9.476 -0.1129  0.9270 -0.4127
  933MOL0     C23078   4.054   2.296   9.621 -0.7521 -0.0724  0.1274
  933MOL0     C23079   3.984   2.410   9.653  0.3559 -0.3009  1.1528
  933MOL0     C23080   3.878   2.424   9.747  0.6911 -0.2000  0.2848
  933MOL0     C23081   3.844   2.312   9.825  1.2859 -0.3357 -0.0299
  933MOL0     O23082   3.751   2.303   9.919 -0.0490 -0.0273 -0.2585
  933MOL0     C23083   3.673   2.414   9.961 -0.2021  0.3181 -0.1316
  933MOL0     C23084   3.535   2.367  10.021 -0.2693  0.3358  0.9185
  933MOL0     C23085   3.440   2.302   9.916 -0.9550 -0.7054 -0.8754
  933MOL0     C23086   3.301   2.270   9.963 -0.3599 -0.6907 -0.0140
  933MOL0     C23087   3.213   2.257   9.845 -0.1206 -0.3486 -0.0627
  933MOL0     C23088   3.133   2.251   9.755 -0.2616  0.5903 -0.2690
  933MOL0     C23089   3.917   2.197   9.801  0.2180 -0.5631 -0.5841
  933MOL0     C23090   4.021   2.188   9.705 -0.4634  0.0452  0.2276
  933MOL0     H23091   4.259   2.245   9.216  0.7942  0.6121 -1.3976
  933MOL0     H23092   4.469   2.229   9.100 -1.4472 -2.4645 -0.0137
  933MOL0     H23093   4.820   2.258   9.059  0.4519 -3.3653 -1.5141
  933MOL0     H23094   4.669   2.329   9.089  1.9236  0.3497  3.5300
  933MOL0     H23095   4.657   2.215   8.872 -0.0390 -1.7818 -1.7908
  933MOL0     H23096   4.571   2.110   8.978 -1.7684  3.4857 -2.7863
  933MOL0     H23097   4.809   2.016   9.017 -0.7773  0.6149 -0.3505
  933MOL0     H23098   4.877   2.099   8.895  0.8210 -2.1392  2.8650
  933MOL0     H23099   4.691   1.993   8.730 -1.4732  1.4617  2.2719
  933MOL0     H23100   4.842   1.920   8.758  0.1471  0.8336  0.2681
  933MOL0     H23101   4.608   1.795   8.774  1.2044 -3.4077 -0.6539
  933MOL0     H23102   4.590   1.876   8.925 -0.5591  0.9629 -1.3620
  933MOL0     H23103   4.774   1.764   9.027 -4.0742  1.0215  2.1267
  933MOL0     H23104   4.826   1.681   8.878 -0.6155 -0.4029  0.5323
  933MOL0     H23105   4.573   1.621   9.036  0.6454 -0.4112  0.6299
  933MOL0     H23106   4.579   1.586   8.869 -2.0545  1.2622 -0.3105
  933MOL0     H23107   4.784   1.494   9.064 -1.8434  4.1941  0.1767
  933MOL0     H23108   4.764   1.480   8.883 -0.2596  1.4753 -1.1736
  933MOL0     H23109   4.488   1.433   9.155  1.8625  1.8658 -0.5072
  933MOL0     H23110   4.358   1.192   9.278  2.0435  0.9507  0.0951
  933MOL0     H23111   4.427   1.044   9.210  1.2743  1.3900  2.4137
  933MOL0     H23112   4.184   1.058   9.191  0.5507 -1.4815 -1.0424
  933MOL0     H23113   4.268   1.007   9.047 -1.8790 -0.3611 -0.6929
  933MOL0     H23114   4.193   1.296   9.118  0.4602  0.4874 -0.1360
  933MOL0     H23115   4.258   1.237   8.955 -0.6204 -0.1972 -1.1731
  933MOL0     H23116   4.050   1.110   8.927 -1.9860  1.9075 -2.2721
  933MOL0     H23117   4.023   1.278   8.926 -0.3128  2.0142  0.5984
  933MOL0     H23118   3.828   1.199   9.319 -0.7136  0.9118  0.1816
  933MOL0     H23119   3.600   1.257   9.336  2.2775 -1.9263  1.6514
  933MOL0     H23120   3.270   1.202   9.455  0.4028  2.3266 -0.3706
  933MOL0     H23121   3.032   1.221   9.552  2.1535 -0.8854  0.5912
  933MOL0     H23122   2.753   1.507   9.308 -0.9820 -0.9467  0.2903
  933MOL0     H23123   2.880   1.572   9.411  2.3556 -3.4741 -0.5835
  933MOL0     H23124   2.734   1.563   9.600  0.3280  2.2078 -0.8974
  933MOL0     H23125   2.596   1.510   9.513 -0.9739  2.4096  1.9071
  933MOL0     H23126   2.554   1.737   9.522 -3.1425 -0.5398 -2.4941
  933MOL0     H23127   2.597   1.684   9.351  0.2785 -0.5358  0.4905
  933MOL0     H23128   2.816   1.770   9.388 -0.0039  0.3099  0.1298
  933MOL0     H23129   2.681   1.884   9.357  0.9687 -0.3589 -0.8035
  933MOL0     H23130   2.661   1.955   9.584  0.8703  1.1507  0.4041
  933MOL0     H23131   2.817   1.987   9.516 -1.2165  1.2399  2.5837
  933MOL0     H23132   2.918   1.792   9.626 -1.0192 -2.2123 -0.7154
  933MOL0     H23133   2.761   1.763   9.700  0.7076 -1.7233 -0.7041
  933MOL0     H23134   2.957   1.874   9.834  3.1681  0.9339 -1.5177
  933MOL0     H23135   2.951   2.008   9.729  2.0050 -2.6608 -1.0443
  933MOL0     H23136   2.745   1.906   9.945 -0.6854  1.4333  2.3017
  933MOL0     H23137   2.677   2.006   9.805  1.3269 -0.2495 -1.9529
  933MOL0     H23138   2.935   1.448   9.196  0.0452 -0.8504 -1.0319
  933MOL0     H23139   3.174   1.422   9.114  0.2616 -0.3838 -0.9329
  933MOL0     H23140   3.569   1.212   8.891  1.7000  0.7444 -1.8010
  933MOL0     H23141   3.792   1.170   8.885 -0.0776  1.4572  0.1020
  933MOL0     H23142   4.668   2.102   9.451 -0.2953 -0.7871 -0.5331
  933MOL0     H23143   4.450   2.113   9.580 -1.2460  0.4446 -0.6058
  933MOL0     H23144   4.001   2.492   9.584 -1.3743 -1.0757 -0.2644
  933MOL0     H23145   3.812   2.508   9.733 -2.7029 -2.2203  2.7795
  933MOL0     H23146   3.644   2.479   9.878  1.6301  1.0171 -0.2648
  933MOL0     H23147   3.736   2.475  10.026  3.0994 -1.3831 -1.4819
  933MOL0     H23148   3.570   2.292  10.092  2.8703  0.4857 -0.3287
  933MOL0     H23149   3.482   2.451  10.068 -2.2785 -0.6467  0.5370
  933MOL0     H23150   3.479   2.203   9.892  0.3709 -0.5430  0.4584
  933MOL0     H23151   3.435   2.367   9.828  0.9221  0.2078 -0.3477
  933MOL0     H23152   3.298   2.181  10.027  1.2815  0.2983  1.5220
  933MOL0     H23153   3.277   2.357  10.024  0.2932 -0.9899  0.6923
  933MOL0     H23154   3.063   2.243   9.674 -0.9850  3.1969 -0.0172
  933MOL0     H23155   3.889   2.108   9.856 -0.0793 -1.3429 -1.9473
  933MOL0     H23156   4.079   2.097   9.691  0.7782  0.4552  2.2832
  934MOL0     O23157   6.380   2.085  10.009  0.4602  0.9820 -0.1904
  934MOL0     C23158   6.307   2.081   9.915 -0.9412  0.3198 -0.7595
  934MOL0     O23159   6.333   2.029   9.797  0.1866 -0.2438  0.4306
  934MOL0     C23160   6.456   2.026   9.744  1.0146  0.6089  0.5605
  934MOL0     C23161   6.509   1.904   9.684 -0.2970 -0.5734 -0.9164
  934MOL0     C23162   6.643   1.889   9.648  0.5905 -0.2168 -0.5848
  934MOL0     C23163   6.728   2.003   9.655 -0.6744  0.8921  0.5843
  934MOL0     O23164   6.855   1.982   9.596  0.2045 -1.3751 -0.0974
  934MOL0     C23165   6.962   2.072   9.646 -0.3604  0.3177  0.5180
  934MOL0     C23166   7.099   2.007   9.603  0.8580  0.2301  0.6270
  934MOL0     C23167   7.205   2.049   9.704 -0.5531 -0.1061 -1.0512
  934MOL0     C23168   7.346   2.031   9.661  0.7300 -0.3741 -0.7320
  934MOL0     C23169   7.447   2.067   9.776 -0.4450 -1.0025 -0.3791
  934MOL0     C23170   7.449   1.977   9.903  0.1475 -0.4229  0.2788
  934MOL0     C23171   7.539   2.037  10.013 -0.1185  0.0473 -0.6238
  934MOL0     C23172   7.688   2.018   9.991 -0.8481 -0.2156 -0.5314
  934MOL0     N23173   7.733   1.884  10.011 -0.3990 -0.2901  0.2954
  934MOL0     C23174   7.685   1.797  10.108 -0.0156 -0.5868  0.3455
  934MOL0     C23175   7.773   1.690  10.107  0.5816  1.1102 -0.3702
  934MOL0     C23176   7.758   1.588  10.218 -0.1855  0.1321  0.7715
  934MOL0     C23177   7.758   1.443  10.163 -0.3193  0.3279 -0.7203
  934MOL0     C23178   7.620   1.415  10.117 -0.0348 -0.0499  0.4272
  934MOL0     C23179   7.593   1.270  10.075 -0.9145 -0.3262 -0.0540
  934MOL0     O23180   7.623   1.257   9.943 -0.1176 -0.3236 -0.0290
  934MOL0     C23181   7.742   1.200   9.897  0.0985 -0.0227 -0.3608
  934MOL0     C23182   7.855   1.173   9.980  0.4592 -0.7488  0.9078
  934MOL0     C23183   7.970   1.126   9.919  1.3947 -0.1578 -0.6806
  934MOL0     C23184   7.977   1.090   9.781  1.1132  0.4663  0.4128
  934MOL0     C23185   8.093   1.033   9.728 -0.3527  1.0070  0.2511
  934MOL0     O23186   8.085   0.999   9.595 -0.6976  0.7470  0.0675
  934MOL0     C23187   8.205   0.944   9.549  0.3902 -0.1507 -1.3801
  934MOL0     C23188   8.243   0.812   9.581  0.6033 -0.2872 -0.1299
  934MOL0     C23189   8.367   0.748   9.527 -0.5239  0.2030  0.7534
  934MOL0     C23190   8.436   0.812   9.431  0.1372 -1.6373 -0.3710
  934MOL0     O23191   8.540   0.739   9.389  0.9526  0.2095 -0.2512
  934MOL0     C23192   8.599   0.788   9.266 -0.5491  0.5769 -0.0136
  934MOL0     C23193   8.699   0.677   9.222 -0.4185 -0.3057  0.1269
  934MOL0     C23194   8.789   0.620   9.333  0.0874 -0.2176 -0.0177
  934MOL0     C23195   8.888   0.500   9.272  0.0459 -0.5243  0.1053
  934MOL0     C23196   8.869   0.362   9.330 -0.2359  0.1413  0.0444
  934MOL0     C23197   8.988   0.263   9.299  0.2747 -0.1911  0.8525
  934MOL0     C23198   8.960   0.120   9.346 -0.4081 -0.7419 -0.0910
  934MOL0     C23199   9.063   0.020   9.302 -0.1130 -0.8289 -1.0944
  934MOL0    Cl23200   9.037   0.005   9.133  0.3785  0.1151  0.1681
  934MOL0     C23201   8.393   0.941   9.400 -2.0086  0.4629  0.1216
  934MOL0     C23202   8.282   1.006   9.458 -0.3651  0.3307  0.4526
  934MOL0     O23203   8.177   0.993   9.804  0.0541  0.0566  0.7013
  934MOL0     C23204   7.862   1.109   9.708  0.4148  0.5811  0.0360
  934MOL0     C23205   7.750   1.172   9.761 -0.3910  0.2333 -0.2915
  934MOL0     N23206   7.878   1.716  10.020 -0.3125  0.5927 -1.0756
  934MOL0     N23207   7.856   1.828   9.964  0.1997 -0.2047  0.4009
  934MOL0     C23208   6.678   2.123   9.700  0.0262 -0.5662 -0.7202
  934MOL0     C23209   6.549   2.132   9.757 -0.8565 -0.1915  0.0620
  934MOL0     C23210   6.184   2.159   9.933  0.0103  0.3708  0.1541
  934MOL0     C23211   6.096   2.128  10.035  0.1406 -1.0477  0.3683
  934MOL0     C23212   5.983   2.208  10.053 -0.0454  0.6004  1.1119
  934MOL0     C23213   5.957   2.318   9.963 -0.2765 -0.3337 -0.7373
  934MOL0     O23214   5.859   2.410   9.986  0.1653  0.6263  0.5735
  934MOL0     C23215   5.742   2.370  10.047 -0.0811  0.6171  0.1586
  934MOL0     C23216   5.610   2.427   9.991 -0.0850 -0.0396 -0.2457
  934MOL0     C23217   5.593   2.397   9.848 -0.2299  0.3174  0.1659
  934MOL0     C23218   5.454   2.454   9.811  0.4840  1.2478 -0.9666
  934MOL0     C23219   5.425   2.400   9.681  0.0532 -0.0306  0.5589
  934MOL0     C23220   5.384   2.381   9.572 -0.1499 -0.3498  0.0107
  934MOL0     C23221   6.041   2.332   9.852 -0.6096 -0.0006  0.4694
  934MOL0     C23222   6.152   2.257   9.841 -0.3361 -0.0423  0.4575
  934MOL0     H23223   6.446   1.816   9.673 -1.1193  0.0553 -1.3718
  934MOL0     H23224   6.694   1.798   9.621  0.9055 -0.2555  0.1169
  934MOL0     H23225   6.964   2.086   9.755  0.8639 -1.9156  0.8410
  934MOL0     H23226   6.938   2.165   9.593  1.6541  0.9524  0.6496
  934MOL0     H23227   7.125   2.032   9.500 -1.8478  0.7999 -0.0067
  934MOL0     H23228   7.093   1.898   9.595  0.3023  0.3528 -1.1219
  934MOL0     H23229   7.182   2.010   9.803  0.8658  1.2576 -0.1418
  934MOL0     H23230   7.198   2.158   9.714  5.3896  0.6843 -1.7536
  934MOL0     H23231   7.364   1.937   9.608  0.2373 -0.8430 -0.0834
  934MOL0     H23232   7.367   2.106   9.584  0.3001 -2.4789 -3.0260
  934MOL0     H23233   7.435   2.171   9.807 -0.4314 -1.4362  1.1723
  934MOL0     H23234   7.545   2.065   9.727 -0.0119 -0.2093  0.4150
  934MOL0     H23235   7.493   1.878   9.888  0.5263  0.0739 -2.3886
  934MOL0     H23236   7.345   1.968   9.937 -0.0806  0.3958 -0.1708
  934MOL0     H23237   7.520   2.142  10.034 -0.4609 -0.3883  1.4483
  934MOL0     H23238   7.500   1.992  10.104  0.0563  1.4275  0.1552
  934MOL0     H23239   7.743   2.082  10.060  0.2237 -0.5685 -1.0376
  934MOL0     H23240   7.720   2.053   9.892  0.9664 -1.0913 -0.2848
  934MOL0     H23241   7.587   1.794  10.154 -1.8262  0.6039 -3.0622
  934MOL0     H23242   7.668   1.615  10.275 -1.1391 -2.2072  0.4685
  934MOL0     H23243   7.832   1.598  10.298 -3.1384  1.9008  3.5760
  934MOL0     H23244   7.792   1.378  10.245  1.3221  2.3162  0.2392
  934MOL0     H23245   7.822   1.427  10.076  0.6997  2.3112 -0.3723
  934MOL0     H23246   7.558   1.425  10.206  0.5939  1.0738  0.7568
  934MOL0     H23247   7.583   1.490  10.046 -3.7673 -0.4127  1.7673
  934MOL0     H23248   7.487   1.247  10.088 -0.3281 -3.7834 -0.2939
  934MOL0     H23249   7.645   1.192  10.132 -0.1101 -0.2366 -0.6585
  934MOL0     H23250   7.868   1.196  10.085  0.4747  1.8481  0.4081
  934MOL0     H23251   8.050   1.092   9.984 -2.0249 -1.0670  3.5103
  934MOL0     H23252   8.187   0.751   9.652 -2.4101  2.0978 -0.2721
  934MOL0     H23253   8.392   0.645   9.550  1.8242  0.1681 -1.4807
  934MOL0     H23254   8.641   0.889   9.281 -0.8102  1.0789 -2.2657
  934MOL0     H23255   8.524   0.799   9.187 -0.3860  1.8922 -0.0158
  934MOL0     H23256   8.751   0.713   9.132  1.4477 -3.3706 -0.1450
  934MOL0     H23257   8.627   0.604   9.184  0.6126  0.0344 -2.7370
  934MOL0     H23258   8.724   0.576   9.409  0.9524 -0.0518  0.8509
  934MOL0     H23259   8.839   0.700   9.389 -1.6247 -0.8317  2.5597
  934MOL0     H23260   8.891   0.503   9.163  0.3105  1.1730  0.1294
  934MOL0     H23261   8.989   0.533   9.298 -0.2176 -0.7335  1.5056
  934MOL0     H23262   8.779   0.314   9.290 -0.2006  0.6657 -0.6862
  934MOL0     H23263   8.857   0.360   9.439 -1.0964 -3.3404  0.0215
  934MOL0     H23264   9.080   0.297   9.348  2.0163 -1.2296 -1.4958
  934MOL0     H23265   9.006   0.263   9.191 -1.1379 -0.9250  0.5997
  934MOL0     H23266   8.970   0.131   9.454  1.6147 -0.1145 -0.2890
  934MOL0     H23267   8.860   0.084   9.321 -0.2313 -1.0947 -0.2989
  934MOL0     H23268   9.070  -0.075   9.356  4.0026 -0.2641 -0.3225
  934MOL0     H23269   9.164   0.059   9.316  0.3925 -3.1826  3.3841
  934MOL0     H23270   8.456   0.997   9.332  1.4483 -2.4392  0.6665
  934MOL0     H23271   8.254   1.107   9.430 -0.1752  1.0475  2.6878
  934MOL0     H23272   7.858   1.076   9.605  1.0986 -3.6596  1.1913
  934MOL0     H23273   7.671   1.198   9.691 -3.1948 -0.7377  2.3211
  934MOL0     H23274   6.740   2.212   9.692 -0.9896  0.5118  1.8860
  934MOL0     H23275   6.518   2.222   9.809 -1.9257 -0.4404 -0.1148
  934MOL0     H23276   6.109   2.042  10.100  3.2131  1.3372  3.2480
  934MOL0     H23277   5.920   2.182  10.138  0.3988 -1.7129  0.7773
  934MOL0     H23278   5.764   2.395  10.152  3.4024 -1.1402  0.0187
  934MOL0     H23279   5.722   2.264  10.034  0.2852  0.6025 -0.2929
  934MOL0     H23280   5.530   2.379  10.047 -0.7725 -1.2194 -2.1164
  934MOL0     H23281   5.609   2.535  10.006 -1.2277  0.0252 -0.6899
  934MOL0     H23282   5.597   2.288   9.834 -0.4046  0.2456  0.6689
  934MOL0     H23283   5.678   2.431   9.787  0.5675 -1.9634 -0.1059
  934MOL0     H23284   5.375   2.420   9.879  1.3189 -0.0066 -0.6044
  934MOL0     H23285   5.465   2.563   9.805  1.4351  1.1919 -0.3789
  934MOL0     H23286   5.346   2.379   9.472 -1.8065  0.4280  0.5857
  934MOL0     H23287   6.026   2.404   9.772 -0.1211 -2.3238 -1.8554
  934MOL0     H23288   6.212   2.268   9.752  2.9688  0.3448  2.5491
  935MOL0     O23289   1.949   1.756   8.971 -0.5673 -0.0029  0.2304
  935MOL0     C23290   1.979   1.645   8.942 -0.3403  0.1864 -0.3836
  935MOL0     O23291   1.886   1.545   8.930  0.2318 -0.0794 -0.5713
  935MOL0     C23292   1.756   1.569   8.893 -0.0701  2.4800  0.0349
  935MOL0     C23293   1.673   1.452   8.883 -0.2962 -0.9898 -0.3497
  935MOL0     C23294   1.543   1.462   8.843  0.2910 -0.6918  0.0552
  935MOL0     C23295   1.476   1.583   8.807  1.2105  0.4606  0.5829
  935MOL0     O23296   1.346   1.587   8.766 -0.0919  0.7283  0.2280
  935MOL0     C23297   1.259   1.532   8.865  0.0350 -0.2998 -0.4396
  935MOL0     C23298   1.121   1.493   8.815 -0.1752 -0.2240 -0.3898
  935MOL0     C23299   1.052   1.572   8.697  0.7801  0.2614 -0.0225
  935MOL0     C23300   0.922   1.511   8.659  0.3028 -0.4455 -0.9523
  935MOL0     C23301   0.856   1.566   8.535  0.1410  0.3973  0.5934
  935MOL0     C23302   0.703   1.567   8.557 -0.1341  0.0374  0.0085
  935MOL0     C23303   0.634   1.582   8.426  0.5201  0.6888 -0.1347
  935MOL0     C23304   0.484   1.590   8.447  0.3096 -0.6440 -0.0495
  935MOL0     N23305   0.418   1.617   8.314  0.6357  0.0048 -0.0149
  935MOL0     C23306   0.375   1.737   8.268  0.2312 -0.6520 -0.2901
  935MOL0     C23307   0.332   1.706   8.138  0.7822 -0.8664 -0.0057
  935MOL0     C23308   0.284   1.793   8.025 -0.4016  1.4978  0.3842
  935MOL0     C23309   0.273   1.938   8.051  0.3607 -0.1599 -0.0024
  935MOL0     C23310   0.213   2.015   7.937 -0.1140 -0.0971  0.4683
  935MOL0     C23311   0.182   2.160   7.975  0.2667 -0.6461 -0.5496
  935MOL0     O23312   0.052   2.162   8.035 -0.0824 -0.2892  0.3462
  935MOL0     C23313  -0.052   2.175   7.948  0.4111 -0.0331  0.2272
  935MOL0     C23314  -0.169   2.157   8.016 -1.0920  0.1649 -0.2237
  935MOL0     C23315  -0.291   2.146   7.951 -0.0775 -0.7843 -0.6926
  935MOL0     C23316  -0.300   2.179   7.812 -0.6840  0.1010  1.0931
  935MOL0     C23317  -0.425   2.166   7.738 -0.0845 -0.0373 -0.0004
  935MOL0     O23318  -0.419   2.197   7.605  0.2472 -0.3814  0.3735
  935MOL0     C23319  -0.537   2.173   7.530  0.3463 -0.9865 -0.1810
  935MOL0     C23320  -0.617   2.061   7.522 -0.9977  0.3636 -0.5398
  935MOL0     C23321  -0.729   2.062   7.436 -0.2852 -0.6232 -0.2720
  935MOL0     C23322  -0.758   2.169   7.352  0.2616 -0.2685 -0.0040
  935MOL0     O23323  -0.857   2.148   7.264 -0.1778  0.3763 -0.1212
  935MOL0     C23324  -0.920   2.266   7.206 -0.2665  0.0941  0.1760
  935MOL0     C23325  -1.050   2.241   7.138 -0.4509  0.6573  0.3007
  935MOL0     C23326  -1.163   2.181   7.220  0.6844  0.0275  0.2499
  935MOL0     C23327  -1.291   2.162   7.134 -1.1059  0.4417  0.1862
  935MOL0     C23328  -1.406   2.079   7.196  0.0108  0.1282 -0.5513
  935MOL0     C23329  -1.432   2.109   7.344 -0.4349  0.1744  0.2963
  935MOL0     C23330  -1.571   2.045   7.378  0.0035 -0.6008 -0.4288
  935MOL0     C23331  -1.682   2.128   7.335  0.8924 -0.2168  0.5692
  935MOL0    Cl23332  -1.844   2.058   7.398 -0.3977 -0.3254 -0.4858
  935MOL0     C23333  -0.667   2.277   7.343 -0.2312 -0.2193  0.2024
  935MOL0     C23334  -0.553   2.269   7.422  0.2450  0.0714 -0.5051
  935MOL0     O23335  -0.525   2.137   7.804 -0.3804  0.5102  0.5131
  935MOL0     C23336  -0.181   2.214   7.745 -0.8998  0.2783  0.1953
  935MOL0     C23337  -0.055   2.204   7.811  0.0171 -0.1669 -0.1350
  935MOL0     N23338   0.330   1.570   8.133  0.0675  0.0906  0.2118
  935MOL0     N23339   0.369   1.510   8.237  0.8195  0.7711  0.1844
  935MOL0     C23340   1.552   1.695   8.827 -0.1604 -0.2542 -0.1406
  935MOL0     C23341   1.690   1.689   8.866  0.4893  0.3302  0.4535
  935MOL0     C23342   2.123   1.598   8.974  0.3950 -0.2540 -0.9601
  935MOL0     C23343   2.224   1.687   9.007  0.5038 -0.2704 -0.0164
  935MOL0     C23344   2.351   1.646   9.061  0.3953 -0.4437  0.5609
  935MOL0     C23345   2.371   1.506   9.080  0.0473  0.0763 -1.0776
  935MOL0     O23346   2.486   1.457   9.133 -0.2535 -0.6599  0.5082
  935MOL0     C23347   2.487   1.345   9.218  0.2112  0.1581  0.3552
  935MOL0     C23348   2.389   1.353   9.334 -0.2982 -0.5226 -0.0560
  935MOL0     C23349   2.415   1.244   9.438  0.0371  0.2366  0.3742
  935MOL0     C23350   2.302   1.231   9.554  0.5955  0.6191  0.4263
  935MOL0     C23351   2.356   1.166   9.675  0.4401 -0.6880 -0.5768
  935MOL0     C23352   2.408   1.130   9.776  0.7001  0.7585 -0.0835
  935MOL0     C23353   2.274   1.418   9.030  0.1493  0.2553  1.2014
  935MOL0     C23354   2.149   1.460   8.983  0.2977  0.0606  0.3450
  935MOL0     H23355   1.701   1.353   8.917  1.7926  0.5582  2.9455
  935MOL0     H23356   1.500   1.363   8.846  3.2173 -2.0973 -0.7039
  935MOL0     H23357   1.236   1.602   8.946 -1.7249  1.2384 -2.1758
  935MOL0     H23358   1.293   1.441   8.915  0.8828  1.3285  2.1457
  935MOL0     H23359   1.061   1.494   8.907  0.6820  1.3317  0.2060
  935MOL0     H23360   1.116   1.388   8.787  1.4949 -0.1406 -1.1543
  935MOL0     H23361   1.112   1.576   8.605 -0.0849  1.8862 -0.5505
  935MOL0     H23362   1.037   1.675   8.731  1.0597  0.4629 -0.5060
  935MOL0     H23363   0.933   1.402   8.653  0.7351 -0.3988 -1.0163
  935MOL0     H23364   0.854   1.522   8.744 -0.9532  1.9780 -2.1728
  935MOL0     H23365   0.880   1.505   8.447 -1.6692  0.4225  0.0445
  935MOL0     H23366   0.882   1.664   8.494 -0.0704 -0.6369 -2.2345
  935MOL0     H23367   0.684   1.647   8.629 -1.0303 -1.6714  1.7693
  935MOL0     H23368   0.660   1.474   8.596  1.6032 -0.3154  1.1956
  935MOL0     H23369   0.670   1.673   8.376  2.6772  0.0681  0.2107
  935MOL0     H23370   0.642   1.499   8.355 -0.1283  1.6212 -1.3563
  935MOL0     H23371   0.456   1.653   8.532 -1.3682  0.2120 -1.1823
  935MOL0     H23372   0.447   1.492   8.477  2.3597 -1.9373 -1.4940
  935MOL0     H23373   0.364   1.838   8.306  0.3584 -0.7867  0.1096
  935MOL0     H23374   0.184   1.760   7.993  0.2819 -0.5759  0.2353
  935MOL0     H23375   0.349   1.787   7.937 -0.7318  0.2779  0.2040
  935MOL0     H23376   0.366   1.976   8.094  0.5230  2.1647 -2.1730
  935MOL0     H23377   0.207   1.942   8.139  3.4995  5.0001  2.5807
  935MOL0     H23378   0.299   2.021   7.870 -0.2371  0.7042  0.3668
  935MOL0     H23379   0.126   1.968   7.892 -1.5583  1.0132  1.9495
  935MOL0     H23380   0.193   2.231   7.893 -1.0863 -1.4438 -1.4708
  935MOL0     H23381   0.252   2.184   8.054 -1.2092  1.2128  0.2733
  935MOL0     H23382  -0.175   2.135   8.122  0.9086 -2.6439 -0.5764
  935MOL0     H23383  -0.382   2.119   8.005  0.9139  0.2316  1.6475
  935MOL0     H23384  -0.609   1.971   7.583  1.4452 -0.6936 -2.2844
  935MOL0     H23385  -0.789   1.971   7.434  3.0273 -2.9613 -0.4326
  935MOL0     H23386  -0.857   2.320   7.134  0.1706 -0.9891 -0.2707
  935MOL0     H23387  -0.951   2.337   7.284 -1.1937  2.2025 -1.9682
  935MOL0     H23388  -1.027   2.163   7.065 -2.4937  0.7624 -0.5360
  935MOL0     H23389  -1.094   2.335   7.102 -2.1850  0.3203  1.4091
  935MOL0     H23390  -1.179   2.254   7.299 -2.2166  1.7186 -1.7038
  935MOL0     H23391  -1.149   2.080   7.261 -3.5067 -0.7098  0.3496
  935MOL0     H23392  -1.336   2.261   7.125 -0.9815  0.5679  0.9353
  935MOL0     H23393  -1.257   2.132   7.034  2.9995  1.3071  1.1122
  935MOL0     H23394  -1.412   1.971   7.184 -2.8500  0.4202 -3.0147
  935MOL0     H23395  -1.488   2.107   7.129  0.7423  1.8884 -0.7869
  935MOL0     H23396  -1.441   2.214   7.372 -1.9743 -0.1774  1.2348
  935MOL0     H23397  -1.351   2.071   7.407  0.8743  4.1613  1.2886
  935MOL0     H23398  -1.577   1.947   7.328  1.9288  0.2534 -2.5272
  935MOL0     H23399  -1.580   2.024   7.485 -2.3734  2.1966  0.0422
  935MOL0     H23400  -1.671   2.127   7.226 -1.6060 -1.7279  0.2542
  935MOL0     H23401  -1.670   2.230   7.373 -0.3622  0.9673 -1.9841
  935MOL0     H23402  -0.680   2.365   7.282 -0.0943  3.2293  4.6225
  935MOL0     H23403  -0.484   2.353   7.413 -0.0234  0.2300 -1.1962
  935MOL0     H23404  -0.181   2.240   7.640 -0.0443  1.2621  0.4269
  935MOL0     H23405   0.034   2.228   7.754 -0.0921  1.4957  0.3442
  935MOL0     H23406   1.505   1.793   8.826 -0.5776 -0.3589  2.4252
  935MOL0     H23407   1.744   1.780   8.891 -0.8980  1.1202  0.6612
  935MOL0     H23408   2.192   1.790   9.015 -1.8043 -1.0552  2.3248
  935MOL0     H23409   2.410   1.733   9.087 -0.1769 -0.7307  3.1212
  935MOL0     H23410   2.588   1.341   9.258  0.6730  0.2925 -0.7713
  935MOL0     H23411   2.473   1.255   9.158  2.6908 -0.5833  0.7746
  935MOL0     H23412   2.408   1.450   9.381 -1.0112  0.1742 -1.1795
  935MOL0     H23413   2.285   1.344   9.301 -1.5761 -2.0117  3.7721
  935MOL0     H23414   2.509   1.270   9.488  1.4756 -1.6541 -1.1873
  935MOL0     H23415   2.442   1.146   9.398  0.5333  0.5687 -0.1141
  935MOL0     H23416   2.268   1.331   9.582 -0.9325 -0.5444  3.1061
  935MOL0     H23417   2.213   1.189   9.507  0.0187  2.2207  0.0322
  935MOL0     H23418   2.466   1.090   9.858  0.4913 -2.5361 -1.3847
  935MOL0     H23419   2.301   1.312   9.035  1.9826  0.6133 -0.0164
  935MOL0     H23420   2.070   1.388   8.965  1.2391 -0.9762  0.2360
  936MOL0     O23421   9.183   1.259   0.386 -0.1853 -0.5868 -0.1488
  936MOL0     C23422   9.255   1.176   0.446 -0.0160  0.4137  1.1011
  936MOL0     O23423   9.218   1.067   0.518  0.3254  0.4194 -0.8350
  936MOL0     C23424   9.087   1.042   0.506  0.7028 -0.4201 -0.2048
  936MOL0     C23425   9.044   0.932   0.436 -0.6867 -0.4281  0.3252
  936MOL0     C23426   8.907   0.911   0.418  0.8031  0.4391  0.0194
  936MOL0     C23427   8.813   0.989   0.494 -0.7146 -0.1755 -0.3058
  936MOL0     O23428   8.688   0.949   0.488 -0.7319 -0.4373  0.0494
  936MOL0     C23429   8.588   0.999   0.576 -0.2347  0.7127 -0.3273
  936MOL0     C23430   8.552   0.882   0.667 -0.4569  0.0360 -0.9809
  936MOL0     C23431   8.509   0.752   0.591 -0.8026 -0.6075  1.2146
  936MOL0     C23432   8.365   0.768   0.519 -0.1408  0.9763 -0.6967
  936MOL0     C23433   8.350   0.634   0.445  0.7157 -0.1675 -0.3645
  936MOL0     C23434   8.201   0.629   0.378  0.0701  0.2812 -0.3693
  936MOL0     C23435   8.179   0.499   0.303 -0.8789 -0.5210  0.2337
  936MOL0     C23436   8.065   0.501   0.201 -0.8463  0.1729 -0.3451
  936MOL0     N23437   8.097   0.590   0.089 -0.1557 -0.0940  0.3366
  936MOL0     C23438   8.193   0.580  -0.010 -0.4436 -0.4913  0.2698
  936MOL0     C23439   8.171   0.682  -0.091 -1.3981  0.1048  0.0477
  936MOL0     C23440   8.241   0.699  -0.226 -0.5112 -0.5227 -0.4866
  936MOL0     C23441   8.164   0.633  -0.337  0.3418 -0.1498  1.3275
  936MOL0     C23442   8.245   0.642  -0.472  0.0921 -0.5030  0.1934
  936MOL0     C23443   8.199   0.525  -0.561  0.4361 -0.2994  0.5652
  936MOL0     O23444   8.054   0.523  -0.563  0.2807  0.5891 -0.2962
  936MOL0     C23445   8.005   0.388  -0.573 -0.1967 -1.1299 -0.5718
  936MOL0     C23446   7.922   0.340  -0.473  0.7533 -0.1764  0.5354
  936MOL0     C23447   7.854   0.216  -0.499 -0.5852 -0.0309 -0.3022
  936MOL0     C23448   7.880   0.142  -0.616 -0.4666 -1.0811 -0.0476
  936MOL0     C23449   7.792   0.031  -0.648  0.3226  0.2333  0.7288
  936MOL0     O23450   7.666   0.030  -0.607  0.2465 -0.1172 -0.6902
  936MOL0     C23451   7.597  -0.073  -0.665  0.4444 -1.1420 -0.5571
  936MOL0     C23452   7.578  -0.185  -0.596  0.1000 -0.4032 -0.2508
  936MOL0     C23453   7.493  -0.284  -0.645  0.0514  0.3008 -0.1869
  936MOL0     C23454   7.424  -0.268  -0.756  0.8303 -0.2739 -0.4704
  936MOL0     O23455   7.349  -0.370  -0.803  0.0178  0.3599 -0.0295
  936MOL0     C23456   7.219  -0.338  -0.852  0.3042 -0.0951  0.6319
  936MOL0     C23457   7.130  -0.298  -0.740 -0.1226  0.3560 -0.4722
  936MOL0     C23458   6.985  -0.271  -0.792 -0.0587 -0.0938 -0.6015
  936MOL0     C23459   6.893  -0.280  -0.676 -0.1768 -0.2134  0.3726
  936MOL0     C23460   6.761  -0.256  -0.755  0.4355 -0.0035  0.0603
  936MOL0     C23461   6.649  -0.278  -0.668  0.0691  0.0264 -0.1906
  936MOL0     C23462   6.523  -0.298  -0.756  0.1132 -0.9986  0.9019
  936MOL0     C23463   6.399  -0.287  -0.667 -0.9664  0.6090 -0.1465
  936MOL0    Cl23464   6.402  -0.434  -0.557  0.7197  0.1474 -0.1970
  936MOL0     C23465   7.444  -0.147  -0.828 -0.2879  0.2006  0.5976
  936MOL0     C23466   7.530  -0.055  -0.782  0.2812 -0.2824  0.1964
  936MOL0     O23467   7.846  -0.060  -0.716 -0.2364  0.7312  0.4062
  936MOL0     C23468   7.981   0.176  -0.699  0.5200 -0.3482  0.3859
  936MOL0     C23469   8.047   0.299  -0.672  0.0049  0.0722  0.2451
  936MOL0     N23470   8.066   0.760  -0.041 -0.3007  0.0895  0.2662
  936MOL0     N23471   8.034   0.705   0.067  0.6747  0.2545 -0.7673
  936MOL0     C23472   8.864   1.089   0.582 -0.6049  0.3236  0.1071
  936MOL0     C23473   8.999   1.112   0.577 -0.3509  0.5452 -0.8332
  936MOL0     C23474   9.402   1.185   0.427 -0.5613  0.5923 -1.5862
  936MOL0     C23475   9.461   1.301   0.380  0.6788  0.9682 -0.6369
  936MOL0     C23476   9.593   1.302   0.358 -0.1107 -1.0874 -0.7843
  936MOL0     C23477   9.683   1.196   0.391  1.2218  0.3416 -0.7706
  936MOL0     O23478   9.810   1.195   0.367  0.0604 -0.1391  0.1531
  936MOL0     C23479   9.872   1.308   0.307 -0.2431 -0.7585  0.9663
  936MOL0     C23480  10.011   1.272   0.275 -1.0812  0.1042 -0.2860
  936MOL0     C23481  10.015   1.160   0.174 -1.0158  0.5013 -0.4675
  936MOL0     C23482  10.157   1.167   0.109 -1.0388 -0.9411 -0.6417
  936MOL0     C23483  10.173   1.046   0.028 -0.0357  0.7558  0.2401
  936MOL0     C23484  10.198   0.952  -0.045  1.0330 -0.1006  0.1417
  936MOL0     C23485   9.620   1.090   0.455 -0.1691 -0.4834 -0.1150
  936MOL0     C23486   9.485   1.072   0.463  0.3123  0.0074  0.4693
  936MOL0     H23487   9.117   0.865   0.394  0.6529  1.0503  0.1867
  936MOL0     H23488   8.872   0.844   0.340 -1.7940  1.0407  0.5734
  936MOL0     H23489   8.506   1.039   0.516 -0.4110  0.3614 -0.3201
  936MOL0     H23490   8.625   1.084   0.634 -2.5376  0.4948  1.5838
  936MOL0     H23491   8.474   0.907   0.740  0.1864 -0.3765 -0.1352
  936MOL0     H23492   8.645   0.868   0.723 -0.0910 -0.9358 -1.8017
  936MOL0     H23493   8.500   0.677   0.669  1.6044 -0.7794  1.3762
  936MOL0     H23494   8.581   0.728   0.512  0.6751  0.8150  2.0809
  936MOL0     H23495   8.293   0.788   0.599  1.0618 -1.8889  1.2896
  936MOL0     H23496   8.368   0.857   0.456 -0.8966  3.0580  2.0034
  936MOL0     H23497   8.370   0.546   0.507  1.0915 -2.2787 -3.2746
  936MOL0     H23498   8.425   0.619   0.367  1.3065  3.2634 -0.6120
  936MOL0     H23499   8.189   0.706   0.302  1.3349 -0.9012 -1.8183
  936MOL0     H23500   8.127   0.656   0.455  1.5979  1.1420  0.8719
  936MOL0     H23501   8.272   0.479   0.249 -1.2810  2.0134 -1.6374
  936MOL0     H23502   8.154   0.430   0.383 -2.7316  0.6043  0.6931
  936MOL0     H23503   7.969   0.519   0.250  0.4733 -0.0696  2.5241
  936MOL0     H23504   8.063   0.399   0.160 -0.8831  0.5768 -1.3801
  936MOL0     H23505   8.251   0.495  -0.042 -1.2525 -1.0815  0.3377
  936MOL0     H23506   8.343   0.659  -0.216 -1.7196 -3.4629  1.3007
  936MOL0     H23507   8.246   0.806  -0.247  1.6806 -0.7507 -1.3988
  936MOL0     H23508   8.066   0.677  -0.361  0.3135 -1.4845 -1.3017
  936MOL0     H23509   8.136   0.530  -0.316  1.5892 -1.0468 -1.0699
  936MOL0     H23510   8.233   0.741  -0.516  0.2092 -0.3242  0.5538
  936MOL0     H23511   8.350   0.619  -0.452 -0.6970 -3.9994  1.1004
  936MOL0     H23512   8.240   0.430  -0.525 -1.8811 -2.3512 -1.8412
  936MOL0     H23513   8.230   0.540  -0.664  0.0060  1.0051  0.6066
  936MOL0     H23514   7.903   0.411  -0.394  0.8190  0.9175 -0.3988
  936MOL0     H23515   7.775   0.184  -0.432  0.5503  1.2793  1.7419
  936MOL0     H23516   7.625  -0.196  -0.499  0.4513 -2.0195 -0.5741
  936MOL0     H23517   7.491  -0.370  -0.579  1.2818  0.8380  0.5955
  936MOL0     H23518   7.184  -0.424  -0.910  0.3721 -0.3257  0.9306
  936MOL0     H23519   7.216  -0.253  -0.921  0.0358  1.1786  2.1421
  936MOL0     H23520   7.165  -0.205  -0.695 -3.1387 -0.2371  3.7758
  936MOL0     H23521   7.132  -0.375  -0.662  2.3132  0.9888  0.1676
  936MOL0     H23522   6.961  -0.352  -0.861  1.0654 -1.6958  0.8038
  936MOL0     H23523   6.977  -0.172  -0.837 -3.1413  0.9436  1.8370
  936MOL0     H23524   6.906  -0.384  -0.644  2.4368 -0.0288  0.1698
  936MOL0     H23525   6.912  -0.214  -0.591  1.0225 -1.0067  0.7389
  936MOL0     H23526   6.755  -0.331  -0.834 -2.7942  1.7589 -1.5614
  936MOL0     H23527   6.745  -0.158  -0.802 -1.3809  0.2232  1.0727
  936MOL0     H23528   6.641  -0.198  -0.594 -0.4457 -1.2486  1.2044
  936MOL0     H23529   6.668  -0.370  -0.611 -2.0521 -1.0357 -1.1094
  936MOL0     H23530   6.513  -0.232  -0.842  2.5813 -0.6636  0.8269
  936MOL0     H23531   6.528  -0.396  -0.805  1.3664 -1.3708  1.7127
  936MOL0     H23532   6.313  -0.285  -0.735 -0.1982 -0.9389 -1.2406
  936MOL0     H23533   6.417  -0.198  -0.607  2.5303  1.3981 -2.0927
  936MOL0     H23534   7.395  -0.117  -0.920 -0.8624  3.2958  1.7870
  936MOL0     H23535   7.536   0.040  -0.833 -0.2139 -0.8525 -0.9653
  936MOL0     H23536   8.008   0.123  -0.790  0.1955 -0.1351  0.1605
  936MOL0     H23537   8.113   0.336  -0.749 -0.6227 -0.8437 -0.7609
  936MOL0     H23538   8.804   1.157   0.642  0.1057  0.4548  0.6821
  936MOL0     H23539   9.034   1.196   0.636  2.0226 -1.8283  1.4398
  936MOL0     H23540   9.402   1.391   0.370 -1.2030 -0.4973 -4.5466
  936MOL0     H23541   9.629   1.398   0.321  0.1694 -0.4878  0.9359
  936MOL0     H23542   9.860   1.389   0.380  1.2055 -0.9715  1.4585
  936MOL0     H23543   9.818   1.340   0.216  1.7279  2.9535  0.8915
  936MOL0     H23544  10.058   1.362   0.233 -0.4636 -1.2702 -2.7717
  936MOL0     H23545  10.065   1.248   0.367  2.6285 -1.3803 -2.6352
  936MOL0     H23546   9.948   1.179   0.090 -1.2935  1.5723 -0.0245
  936MOL0     H23547   9.997   1.060   0.213  0.0886 -0.5294 -2.4069
  936MOL0     H23548  10.168   1.258   0.050  2.1662 -0.4182  0.5338
  936MOL0     H23549  10.237   1.172   0.184 -0.8257 -0.7548 -0.8803
  936MOL0     H23550  10.220   0.881  -0.122 -2.0653  0.6640 -1.6516
  936MOL0     H23551   9.684   1.012   0.495  1.1865 -0.5836 -2.3125
  936MOL0     H23552   9.446   0.980   0.507  0.9028  0.2359  1.5116
  937MOL0     O23553   2.391   2.744   7.813 -0.2486  0.0525  0.1366
  937MOL0     C23554   2.455   2.794   7.720  0.0051 -0.0589 -0.6191
  937MOL0     O23555   2.416   2.797   7.592  0.7410 -0.0599  0.4293
  937MOL0     C23556   2.291   2.742   7.576 -0.6519 -0.3941 -0.1657
  937MOL0     C23557   2.263   2.604   7.583 -0.2873  0.5293 -0.4103
  937MOL0     C23558   2.137   2.560   7.566 -0.3851 -0.3401  0.0331
  937MOL0     C23559   2.026   2.646   7.534 -0.7127 -0.8859 -0.3183
  937MOL0     O23560   1.911   2.587   7.516 -0.0144 -1.1104  0.3728
  937MOL0     C23561   1.798   2.666   7.555  0.2833 -0.1686  0.7526
  937MOL0     C23562   1.681   2.559   7.562 -0.3328  0.3184 -0.8666
  937MOL0     C23563   1.561   2.609   7.655 -0.8446  0.0672  0.1004
  937MOL0     C23564   1.463   2.487   7.657  0.2097  0.5674  0.2991
  937MOL0     C23565   1.367   2.494   7.775 -0.2240  0.2060 -0.1171
  937MOL0     C23566   1.259   2.597   7.777 -0.5927 -0.1824  0.0797
  937MOL0     C23567   1.129   2.574   7.694 -0.1428 -0.1800 -0.0241
  937MOL0     C23568   1.038   2.696   7.709 -0.9784 -0.8198 -0.1691
  937MOL0     N23569   0.911   2.674   7.635 -0.6803 -0.3641 -0.0231
  937MOL0     C23570   0.891   2.693   7.502  0.9377  0.3089  0.4016
  937MOL0     C23571   0.757   2.666   7.486  0.0897 -0.2768  0.3471
  937MOL0     C23572   0.695   2.691   7.351 -0.5131  0.4531 -0.3628
  937MOL0     C23573   0.591   2.570   7.321 -1.0463 -0.2998  0.8628
  937MOL0     C23574   0.533   2.587   7.183 -0.1198  0.6911 -0.7254
  937MOL0     C23575   0.488   2.729   7.156  0.4559 -1.0243 -0.2734
  937MOL0     O23576   0.400   2.784   7.260 -0.2562  0.3068  1.1442
  937MOL0     C23577   0.267   2.770   7.248  0.4548 -0.7909 -0.1558
  937MOL0     C23578   0.190   2.710   7.142 -0.7838  0.2531  0.2930
  937MOL0     C23579   0.056   2.706   7.151 -0.0809  0.2780 -0.4730
  937MOL0     C23580  -0.014   2.767   7.259 -0.6063  0.1259  0.5823
  937MOL0     C23581  -0.158   2.779   7.264  0.3348 -0.2184 -0.5588
  937MOL0     O23582  -0.217   2.869   7.349  0.6945 -0.0934  0.1441
  937MOL0     C23583  -0.337   2.923   7.321  0.9616 -0.2008  0.3124
  937MOL0     C23584  -0.421   2.912   7.203 -0.0904 -0.4733  0.3699
  937MOL0     C23585  -0.546   2.972   7.200 -0.4822 -0.8104 -1.3508
  937MOL0     C23586  -0.593   3.043   7.316 -0.2061  0.1416 -0.2515
  937MOL0     O23587  -0.721   3.092   7.299 -0.3399  0.0061 -0.5239
  937MOL0     C23588  -0.815   3.018   7.380 -0.1861 -0.1638  0.4257
  937MOL0     C23589  -0.957   3.054   7.344 -0.0626  0.2410 -0.4555
  937MOL0     C23590  -1.033   2.929   7.299  0.1801  0.4843  0.5964
  937MOL0     C23591  -1.173   2.960   7.275 -0.4229 -1.2636  0.4089
  937MOL0     C23592  -1.272   2.846   7.266  0.2178  0.0404 -0.1187
  937MOL0     C23593  -1.286   2.748   7.385 -0.4174 -0.1788  0.5997
  937MOL0     C23594  -1.396   2.645   7.365  0.0766  0.0506 -0.6637
  937MOL0     C23595  -1.366   2.511   7.299 -0.3335 -0.2982 -0.4289
  937MOL0    Cl23596  -1.379   2.528   7.130  0.6400  0.3882 -0.2342
  937MOL0     C23597  -0.519   3.042   7.433  0.5287 -0.6737  0.2098
  937MOL0     C23598  -0.394   2.984   7.430  0.0472  0.4848  0.5974
  937MOL0     O23599  -0.221   2.697   7.203 -0.0012 -0.5104  0.0864
  937MOL0     C23600   0.060   2.834   7.358  0.7525  0.0892 -0.5737
  937MOL0     C23601   0.200   2.826   7.353 -0.2766  0.3251 -1.1148
  937MOL0     N23602   0.706   2.638   7.608  0.6737 -0.2687 -0.4100
  937MOL0     N23603   0.791   2.631   7.697 -0.8148  0.3489 -0.0336
  937MOL0     C23604   2.058   2.781   7.504  0.5181 -0.5943 -0.3126
  937MOL0     C23605   2.194   2.828   7.525  0.1898 -0.1834  0.4285
  937MOL0     C23606   2.588   2.849   7.763  0.5354 -0.3466 -0.1714
  937MOL0     C23607   2.670   2.902   7.663  0.5198 -0.3291 -0.2316
  937MOL0     C23608   2.799   2.933   7.715  0.8216  0.9404  1.0766
  937MOL0     C23609   2.833   2.944   7.851  0.5204 -0.1903 -0.1297
  937MOL0     O23610   2.954   3.000   7.871  0.4110 -0.4691 -0.2829
  937MOL0     C23611   3.006   3.023   8.011  0.5896 -0.7168  0.2301
  937MOL0     C23612   3.099   3.141   8.002 -0.2355 -0.2301  0.2983
  937MOL0     C23613   3.033   3.273   7.953  0.8708 -0.5275  0.6533
  937MOL0     C23614   3.130   3.391   7.966 -0.6859  0.0066  0.2770
  937MOL0     C23615   3.234   3.391   7.859 -0.6066  0.1988  0.4544
  937MOL0     C23616   3.316   3.396   7.761  0.4777 -0.8480  0.3529
  937MOL0     C23617   2.739   2.895   7.946 -0.7999  0.6291  0.1046
  937MOL0     C23618   2.621   2.843   7.903  0.2703 -0.2738  0.3480
  937MOL0     H23619   2.338   2.527   7.597 -2.4379 -2.0060 -1.8709
  937MOL0     H23620   2.126   2.452   7.571 -0.7004 -0.2505  3.1398
  937MOL0     H23621   1.774   2.749   7.489  2.1673 -0.0816  0.1110
  937MOL0     H23622   1.800   2.706   7.657 -4.4235 -0.8138  1.3392
  937MOL0     H23623   1.728   2.471   7.606  1.1654  0.7541 -1.5023
  937MOL0     H23624   1.644   2.528   7.464 -1.0195 -2.4594  0.1719
  937MOL0     H23625   1.511   2.689   7.599 -0.5634 -0.5993 -1.1445
  937MOL0     H23626   1.590   2.648   7.752 -1.2413 -0.4299  0.4256
  937MOL0     H23627   1.416   2.471   7.560  0.4387  2.0694 -0.0957
  937MOL0     H23628   1.531   2.405   7.680 -2.2732 -2.2447 -1.6907
  937MOL0     H23629   1.416   2.505   7.872  0.6102  0.3925 -0.5568
  937MOL0     H23630   1.310   2.401   7.786 -0.7529  0.6694  1.2309
  937MOL0     H23631   1.311   2.689   7.751 -1.6387 -0.0627 -1.7849
  937MOL0     H23632   1.232   2.595   7.883  2.2294 -0.7706  0.8763
  937MOL0     H23633   1.167   2.559   7.593  1.9705  0.1444  0.6863
  937MOL0     H23634   1.075   2.482   7.716 -2.9969  1.4482  0.4040
  937MOL0     H23635   1.093   2.788   7.686  0.1845 -1.4985 -0.1695
  937MOL0     H23636   1.013   2.701   7.816  3.1527  2.0141  0.8783
  937MOL0     H23637   0.960   2.730   7.428  1.2812 -0.2162  0.4578
  937MOL0     H23638   0.781   2.675   7.285 -0.0808  3.2239 -0.5972
  937MOL0     H23639   0.654   2.792   7.355 -1.0649  0.1982  3.3425
  937MOL0     H23640   0.510   2.575   7.394 -2.0032  2.5290 -0.2477
  937MOL0     H23641   0.653   2.480   7.318 -1.2717 -0.4667 -2.2065
  937MOL0     H23642   0.607   2.556   7.108  0.5466  0.5700 -0.0235
  937MOL0     H23643   0.438   2.536   7.163  0.3274  0.5193 -2.6014
  937MOL0     H23644   0.439   2.744   7.060 -0.3171  3.3030  0.6049
  937MOL0     H23645   0.574   2.792   7.131  1.0360 -1.2432  1.0866
  937MOL0     H23646   0.234   2.682   7.047 -1.4390 -1.3800  0.4477
  937MOL0     H23647  -0.006   2.656   7.078 -0.3289 -2.7110  1.5742
  937MOL0     H23648  -0.394   2.875   7.105  0.8451 -1.5115  1.0018
  937MOL0     H23649  -0.614   2.977   7.115 -2.9365  0.3364  0.5229
  937MOL0     H23650  -0.795   3.045   7.484  0.6828  1.7570 -0.1872
  937MOL0     H23651  -0.808   2.909   7.373 -1.0845 -0.5409  3.6436
  937MOL0     H23652  -0.947   3.126   7.262  2.1989  0.7949  0.2298
  937MOL0     H23653  -1.007   3.108   7.425  0.8656  2.2040 -1.1206
  937MOL0     H23654  -1.013   2.836   7.352  1.2093 -1.2516 -2.5533
  937MOL0     H23655  -1.000   2.894   7.201 -2.5761  0.9032 -0.5562
  937MOL0     H23656  -1.207   3.012   7.365 -1.8407 -1.5673  0.0860
  937MOL0     H23657  -1.181   3.030   7.191 -3.1947 -1.4583  0.3929
  937MOL0     H23658  -1.232   2.785   7.185  0.5243  0.3709 -0.2180
  937MOL0     H23659  -1.369   2.882   7.231  0.1174  1.0916  1.1563
  937MOL0     H23660  -1.308   2.814   7.470 -0.4157 -0.0529  0.5019
  937MOL0     H23661  -1.192   2.696   7.406  1.1899  2.2561 -0.0967
  937MOL0     H23662  -1.431   2.623   7.466  0.9960 -2.6990 -0.8592
  937MOL0     H23663  -1.493   2.677   7.325  0.3251  1.1665 -0.4273
  937MOL0     H23664  -1.445   2.443   7.334 -0.9530  0.8700  0.5208
  937MOL0     H23665  -1.269   2.471   7.329 -0.3508  0.4118  0.6125
  937MOL0     H23666  -0.558   3.091   7.521  3.7609 -2.7876  3.0469
  937MOL0     H23667  -0.328   2.982   7.516 -1.4766  0.6784  1.8382
  937MOL0     H23668   0.006   2.889   7.433  1.3007 -0.6040  0.3491
  937MOL0     H23669   0.248   2.876   7.437 -3.4107  0.2034  0.9304
  937MOL0     H23670   1.983   2.848   7.463 -0.3519 -1.1846  0.2955
  937MOL0     H23671   2.226   2.929   7.502 -0.3345  0.2989  1.6754
  937MOL0     H23672   2.634   2.908   7.561  2.8508 -0.3191 -1.1350
  937MOL0     H23673   2.883   2.969   7.657  0.6539  3.4375  2.2386
  937MOL0     H23674   3.058   2.937   8.055 -0.9468 -0.0990  3.5944
  937MOL0     H23675   2.924   3.045   8.080  1.7345  0.5101  1.2870
  937MOL0     H23676   3.169   3.155   8.085  1.4918 -1.7478 -0.7999
  937MOL0     H23677   3.164   3.118   7.917  0.0868  3.9022 -0.7851
  937MOL0     H23678   2.945   3.291   8.016  0.5080 -1.1574  0.3424
  937MOL0     H23679   3.003   3.272   7.847  1.0452  2.3364  0.4978
  937MOL0     H23680   3.071   3.483   7.962  0.1328  0.9807  4.7989
  937MOL0     H23681   3.172   3.390   8.067 -0.8061 -0.2324  0.3271
  937MOL0     H23682   3.378   3.391   7.674  0.1525 -0.3420  0.0871
  937MOL0     H23683   2.776   2.899   8.048  0.9076  3.0440 -0.5150
  937MOL0     H23684   2.558   2.808   7.984  3.2112 -0.5008  2.6782
  938MOL0     O23685   0.003   6.828   6.897 -0.0679 -0.3742  0.0690
  938MOL0     C23686   0.113   6.884   6.912 -0.5880  0.4636 -0.2590
  938MOL0     O23687   0.236   6.822   6.942  0.2241 -0.4315 -0.4798
  938MOL0     C23688   0.243   6.681   6.946  0.2491  0.3732 -0.0344
  938MOL0     C23689   0.333   6.626   6.856 -0.2221 -0.8455  0.7410
  938MOL0     C23690   0.356   6.493   6.836 -0.0941  0.4258  0.3213
  938MOL0     C23691   0.283   6.401   6.919  0.3375 -0.7314  0.2701
  938MOL0     O23692   0.288   6.264   6.919  0.2361  0.2442  0.5523
  938MOL0     C23693   0.343   6.209   6.801  0.2144 -0.5803 -0.6481
  938MOL0     C23694   0.338   6.054   6.806  0.8804  0.4480  0.1984
  938MOL0     C23695   0.375   5.999   6.945  0.3780  0.0482  0.1045
  938MOL0     C23696   0.422   5.849   6.934 -0.5116 -0.4474  0.3189
  938MOL0     C23697   0.446   5.781   7.069 -0.2990 -0.8142 -0.5253
  938MOL0     C23698   0.576   5.822   7.135  0.3566  0.1780 -0.4234
  938MOL0     C23699   0.698   5.795   7.045 -0.4582 -0.2545  0.4470
  938MOL0     C23700   0.809   5.709   7.119  0.0218 -0.3755  0.0721
  938MOL0     N23701   0.898   5.640   7.024 -0.5314 -0.0620 -0.4608
  938MOL0     C23702   1.027   5.688   6.979  0.4250 -0.2018  0.5729
  938MOL0     C23703   1.064   5.589   6.891  0.2379 -0.5239 -0.0348
  938MOL0     C23704   1.192   5.586   6.814  0.0473  0.5289  0.1387
  938MOL0     C23705   1.309   5.557   6.902  0.4015  0.0609  0.3336
  938MOL0     C23706   1.440   5.613   6.834  0.8252 -0.5778 -0.3622
  938MOL0     C23707   1.559   5.545   6.900  0.6377 -0.2344 -0.0085
  938MOL0     O23708   1.677   5.626   6.878 -0.4772  0.5195 -0.2727
  938MOL0     C23709   1.757   5.629   6.765  0.5124  0.2232  0.2057
  938MOL0     C23710   1.865   5.718   6.776 -0.9526 -0.4688  0.6412
  938MOL0     C23711   1.949   5.736   6.664 -0.1047 -0.6748  0.1387
  938MOL0     C23712   1.932   5.666   6.547 -0.0855 -0.9140 -0.1082
  938MOL0     C23713   2.021   5.692   6.434  0.3300 -0.7517 -0.2949
  938MOL0     O23714   2.067   5.823   6.421 -0.2186 -0.8574  0.2681
  938MOL0     C23715   2.124   5.873   6.309  0.3237 -0.4820 -0.1596
  938MOL0     C23716   2.220   5.976   6.318  0.4948 -1.1335  0.0159
  938MOL0     C23717   2.282   6.037   6.207 -0.7321  0.0963 -0.3106
  938MOL0     C23718   2.233   6.002   6.078 -0.9788  0.5860  0.7827
  938MOL0     O23719   2.290   6.073   5.967  0.4473 -0.1720  0.8342
  938MOL0     C23720   2.249   6.049   5.835  0.4569  0.2724 -0.4007
  938MOL0     C23721   2.134   6.125   5.774  0.2082  0.1119 -0.4826
  938MOL0     C23722   2.133   6.269   5.833 -0.7337  0.2495  1.0652
  938MOL0     C23723   2.037   6.350   5.741  0.3008  0.0741  0.1368
  938MOL0     C23724   2.038   6.497   5.787  0.2818  0.1962  0.4681
  938MOL0     C23725   2.152   6.569   5.740  0.2562  0.3338  1.0617
  938MOL0     C23726   2.143   6.715   5.769  0.7734 -0.2190 -0.9020
  938MOL0     C23727   2.231   6.808   5.687  0.4590 -0.2780  0.8215
  938MOL0    Cl23728   2.164   6.971   5.721  0.3501 -0.5796  0.4059
  938MOL0     C23729   2.140   5.901   6.071 -0.0579 -0.6082  0.3258
  938MOL0     C23730   2.085   5.835   6.180 -0.2595  0.2309 -1.0044
  938MOL0     O23731   2.042   5.605   6.347  0.7934 -0.0726 -0.2994
  938MOL0     C23732   1.826   5.574   6.535 -0.4461 -0.8127 -1.4810
  938MOL0     C23733   1.735   5.556   6.644 -0.0161  1.3401  0.8035
  938MOL0     N23734   0.971   5.493   6.881 -0.1175  0.4784  0.3381
  938MOL0     N23735   0.870   5.527   6.961  0.5189 -0.2201  0.7916
  938MOL0     C23736   0.198   6.452   7.024  0.3205 -0.0358  0.5025
  938MOL0     C23737   0.176   6.593   7.033  0.0803  1.6176  0.3284
  938MOL0     C23738   0.119   7.032   6.875  0.6432  1.0568  0.8322
  938MOL0     C23739  -0.004   7.094   6.859  0.0119 -0.6955 -0.9097
  938MOL0     C23740  -0.003   7.232   6.825  0.2534  0.7540 -0.4886
  938MOL0     C23741   0.121   7.303   6.798  0.8330  0.1706 -0.8090
  938MOL0     O23742   0.135   7.431   6.757  0.2794  0.6414  0.7510
  938MOL0     C23743   0.019   7.513   6.723 -0.0389  0.3771  0.4336
  938MOL0     C23744   0.048   7.662   6.726 -0.1057 -0.5880  0.9939
  938MOL0     C23745   0.147   7.711   6.611 -0.1759  0.0705  0.1607
  938MOL0     C23746   0.080   7.690   6.470 -0.6275  0.6088  0.0345
  938MOL0     C23747  -0.038   7.775   6.470 -0.0587 -0.1243 -0.0003
  938MOL0     C23748  -0.143   7.836   6.473  0.2993  0.0491 -0.5468
  938MOL0     C23749   0.235   7.221   6.810  0.3299 -1.1787  0.6728
  938MOL0     C23750   0.240   7.086   6.837  0.3321  0.1093  0.4729
  938MOL0     H23751   0.374   6.695   6.784 -0.8641 -0.7858  0.4230
  938MOL0     H23752   0.418   6.466   6.752 -1.5488  0.5490 -0.8425
  938MOL0     H23753   0.447   6.241   6.784 -0.2036 -0.0388 -2.3383
  938MOL0     H23754   0.281   6.231   6.714  1.0693  0.0119 -1.1257
  938MOL0     H23755   0.399   6.016   6.724  0.2824  0.6366 -0.3387
  938MOL0     H23756   0.236   6.016   6.798  2.0685 -3.1399  0.4059
  938MOL0     H23757   0.281   5.999   7.000 -0.3204 -2.4954 -0.9499
  938MOL0     H23758   0.449   6.059   7.000  3.4580 -0.5569 -3.0201
  938MOL0     H23759   0.355   5.795   6.866 -1.7852  0.2114  1.0141
  938MOL0     H23760   0.513   5.856   6.874 -0.0834  1.2691  1.1107
  938MOL0     H23761   0.442   5.672   7.060 -1.1962 -0.7547 -0.9823
  938MOL0     H23762   0.364   5.821   7.130  0.8302  1.1418 -0.1715
  938MOL0     H23763   0.592   5.759   7.223 -2.4800 -1.0578 -0.7043
  938MOL0     H23764   0.574   5.927   7.164  2.3965  0.5364 -1.3422
  938MOL0     H23765   0.678   5.753   6.946 -0.8661  0.2703  0.3035
  938MOL0     H23766   0.727   5.898   7.024 -3.7099  1.2394  2.5438
  938MOL0     H23767   0.751   5.631   7.168 -2.6742  1.4761  0.0512
  938MOL0     H23768   0.875   5.767   7.184 -0.6180  2.4385 -1.6250
  938MOL0     H23769   1.090   5.776   6.987  1.8008 -0.9454 -1.3017
  938MOL0     H23770   1.194   5.673   6.748 -1.7978 -1.6940 -3.1009
  938MOL0     H23771   1.178   5.501   6.746 -1.5295  0.8259  0.0677
  938MOL0     H23772   1.307   5.448   6.911 -1.5350 -0.0159 -0.5306
  938MOL0     H23773   1.301   5.603   7.001  0.2225 -0.6178  0.6402
  938MOL0     H23774   1.436   5.576   6.731 -0.6197 -1.7714  0.0827
  938MOL0     H23775   1.432   5.721   6.851  0.8089 -0.9660  2.5626
  938MOL0     H23776   1.565   5.447   6.853  4.3233  0.5897 -1.6185
  938MOL0     H23777   1.538   5.541   7.007 -1.0661  0.8012 -0.2576
  938MOL0     H23778   1.871   5.791   6.855  1.3218 -0.3887  0.4608
  938MOL0     H23779   2.027   5.808   6.685  0.2343 -0.3634 -2.0205
  938MOL0     H23780   2.238   5.999   6.423  2.3100 -3.7560  0.3948
  938MOL0     H23781   2.346   6.122   6.227 -1.1071  0.9019 -2.2330
  938MOL0     H23782   2.237   5.945   5.803 -2.3609  0.2618  0.4067
  938MOL0     H23783   2.342   6.085   5.790  0.6562  1.3983  0.8426
  938MOL0     H23784   2.036   6.081   5.795  0.3400 -0.1378 -0.3963
  938MOL0     H23785   2.145   6.131   5.665 -4.2635  0.5181 -1.1121
  938MOL0     H23786   2.235   6.309   5.835 -0.6178 -0.0679  2.1529
  938MOL0     H23787   2.109   6.271   5.939  1.1937  0.0189  1.5389
  938MOL0     H23788   2.062   6.325   5.638 -0.0215 -4.5291  0.9982
  938MOL0     H23789   1.937   6.310   5.756  0.5581 -0.9244 -0.6826
  938MOL0     H23790   2.025   6.496   5.896 -3.1667 -1.1379  0.1729
  938MOL0     H23791   1.945   6.540   5.748 -0.4728 -0.1807  1.7755
  938MOL0     H23792   2.151   6.558   5.631 -2.9222 -4.1599  1.2664
  938MOL0     H23793   2.243   6.520   5.776  1.0563 -0.7135 -1.9935
  938MOL0     H23794   2.039   6.749   5.759  0.0826 -2.0782 -0.4037
  938MOL0     H23795   2.165   6.735   5.875 -1.1992  1.8660 -0.8127
  938MOL0     H23796   2.215   6.787   5.581  2.9958 -0.3001  0.3849
  938MOL0     H23797   2.336   6.795   5.713  1.1874 -2.7549 -2.6413
  938MOL0     H23798   2.088   5.889   5.977  1.6058 -1.8390 -0.4899
  938MOL0     H23799   2.020   5.749   6.162  2.0608 -1.1817 -3.3375
  938MOL0     H23800   1.827   5.521   6.440  0.3117 -0.5579 -1.6223
  938MOL0     H23801   1.657   5.483   6.625  3.2067 -2.7403  1.6933
  938MOL0     H23802   0.133   6.381   7.075  0.7117 -1.0537 -0.3910
  938MOL0     H23803   0.101   6.626   7.103 -0.3432 -0.7328  1.0843
  938MOL0     H23804  -0.090   7.037   6.893  1.1206 -1.6248  0.4371
  938MOL0     H23805  -0.100   7.277   6.806 -0.3418 -1.1343 -2.2507
  938MOL0     H23806  -0.061   7.502   6.796 -0.9603 -1.0635 -0.7250
  938MOL0     H23807  -0.021   7.485   6.625 -2.9114  1.0573  1.3397
  938MOL0     H23808  -0.038   7.729   6.733 -1.1141 -1.7264 -0.1333
  938MOL0     H23809   0.095   7.692   6.820 -1.3526  0.9168  1.1763
  938MOL0     H23810   0.237   7.649   6.624  0.5382  1.4020  2.1078
  938MOL0     H23811   0.172   7.815   6.634 -1.4552  0.1877  1.1262
  938MOL0     H23812   0.146   7.729   6.392  1.1079 -0.9287  0.6482
  938MOL0     H23813   0.058   7.586   6.446  1.5229 -0.3044  1.6410
  938MOL0     H23814  -0.241   7.879   6.483  0.8800  1.3183 -0.1607
  938MOL0     H23815   0.332   7.268   6.802 -0.7152  0.7652 -3.7880
  938MOL0     H23816   0.334   7.037   6.858 -0.9469 -2.0220  1.5441
  939MOL0     O23817   0.593   4.704   8.784  0.1438 -0.8167 -0.0825
  939MOL0     C23818   0.657   4.810   8.768  0.3320 -0.6211  0.4782
  939MOL0     O23819   0.603   4.937   8.788 -0.2403 -0.2578  0.5187
  939MOL0     C23820   0.460   4.948   8.817 -0.4471  0.1902  0.0046
  939MOL0     C23821   0.357   4.866   8.779  0.8729 -0.7018  0.1767
  939MOL0     C23822   0.217   4.909   8.798 -0.1307  0.0679  0.0834
  939MOL0     C23823   0.187   5.029   8.858 -0.4467  0.0100 -1.0693
  939MOL0     O23824   0.059   5.075   8.856  0.0042 -0.0131  0.4776
  939MOL0     C23825   0.029   5.179   8.945  0.1954  0.4212  0.3267
  939MOL0     C23826  -0.124   5.189   8.987  0.1183 -0.1314 -0.9199
  939MOL0     C23827  -0.228   5.219   8.879  0.6101 -0.8499  0.4965
  939MOL0     C23828  -0.208   5.369   8.833  0.5173  0.5664 -0.5566
  939MOL0     C23829  -0.277   5.420   8.707 -0.0051  0.0666 -0.1291
  939MOL0     C23830  -0.421   5.374   8.680 -0.1081 -0.0358 -0.2582
  939MOL0     C23831  -0.516   5.420   8.780  0.8454  0.3841  0.7132
  939MOL0     C23832  -0.669   5.372   8.764 -0.0819  0.3497  0.1830
  939MOL0     N23833  -0.715   5.450   8.656  0.6832 -0.7765  0.4620
  939MOL0     C23834  -0.743   5.406   8.527  0.4720  1.0656 -0.9793
  939MOL0     C23835  -0.826   5.500   8.480 -1.1461 -0.2555  0.6256
  939MOL0     C23836  -0.891   5.514   8.349  0.3075  0.1360  1.0517
  939MOL0     C23837  -0.988   5.631   8.339 -0.6049  0.5712 -0.3647
  939MOL0     C23838  -1.042   5.652   8.196 -0.1158 -0.4525  0.5108
  939MOL0     C23839  -1.176   5.589   8.171 -0.0971 -0.4611  0.3036
  939MOL0     O23840  -1.159   5.450   8.131 -0.0563  0.8324  0.2316
  939MOL0     C23841  -1.271   5.372   8.120  0.7666 -0.6992  0.6472
  939MOL0     C23842  -1.402   5.392   8.178 -0.6987  0.0928 -0.0690
  939MOL0     C23843  -1.508   5.305   8.163  0.6878  0.1435  1.1017
  939MOL0     C23844  -1.499   5.208   8.057 -0.6179  0.4609 -0.5538
  939MOL0     C23845  -1.626   5.128   8.037  0.0328  0.7918  0.5253
  939MOL0     O23846  -1.749   5.167   8.094 -1.1225 -0.5458  0.4368
  939MOL0     C23847  -1.853   5.077   8.108  0.2422  0.1072 -0.1641
  939MOL0     C23848  -1.855   4.941   8.100 -0.3333 -0.6161 -0.8158
  939MOL0     C23849  -1.973   4.876   8.094  0.0265  0.1476 -0.5952
  939MOL0     C23850  -2.092   4.935   8.101  0.3803 -0.4714 -0.2796
  939MOL0     O23851  -2.205   4.857   8.086 -0.5105 -0.0821 -0.5973
  939MOL0     C23852  -2.330   4.916   8.127 -0.0789 -0.2576  0.0239
  939MOL0     C23853  -2.444   4.802   8.102 -0.3423 -0.4624  0.2406
  939MOL0     C23854  -2.577   4.862   8.158 -0.1882 -0.6102  1.1758
  939MOL0     C23855  -2.607   4.822   8.309 -0.1368  0.1990  0.6530
  939MOL0     C23856  -2.753   4.781   8.322  0.1388  0.6789  0.4254
  939MOL0     C23857  -2.852   4.884   8.297 -0.2117  0.4605  0.1291
  939MOL0     C23858  -2.996   4.830   8.309 -0.4754  0.3773  0.2185
  939MOL0     C23859  -3.101   4.938   8.278 -1.2703 -0.9693  0.8146
  939MOL0    Cl23860  -3.262   4.858   8.275  0.0573  0.2442  0.0911
  939MOL0     C23861  -2.091   5.074   8.123 -0.0318  0.0600  0.0179
  939MOL0     C23862  -1.971   5.143   8.129  0.9860  0.1793  0.2494
  939MOL0     O23863  -1.614   5.039   7.946  0.2228  0.4235 -0.2082
  939MOL0     C23864  -1.376   5.182   8.001  0.3288 -0.7756  0.8020
  939MOL0     C23865  -1.264   5.259   8.040 -0.5083  0.3036 -1.1303
  939MOL0     N23866  -0.830   5.607   8.572 -0.1864  0.1772  0.3181
  939MOL0     N23867  -0.766   5.572   8.677  0.4325 -0.1196 -0.3736
  939MOL0     C23868   0.301   5.109   8.910  0.2847 -0.5148 -0.4779
  939MOL0     C23869   0.435   5.067   8.876 -0.3539 -0.1875 -0.4406
  939MOL0     C23870   0.788   4.804   8.697 -0.8168  0.5953 -0.3979
  939MOL0     C23871   0.861   4.687   8.694 -0.8623  0.0752 -0.3704
  939MOL0     C23872   0.977   4.666   8.610 -0.1675 -0.4173 -1.4302
  939MOL0     C23873   1.020   4.774   8.527 -0.8611 -0.0791 -0.3904
  939MOL0     O23874   1.128   4.748   8.443 -0.4368 -0.4307 -0.6745
  939MOL0     C23875   1.169   4.856   8.345 -0.4601 -0.2238 -0.7706
  939MOL0     C23876   1.282   4.812   8.248 -0.1113 -0.2953 -0.3418
  939MOL0     C23877   1.413   4.780   8.316 -0.2345 -0.1189  0.0622
  939MOL0     C23878   1.521   4.762   8.208 -0.1008  0.4567  0.4242
  939MOL0     C23879   1.658   4.745   8.247 -0.3234 -0.3251 -0.0318
  939MOL0     C23880   1.784   4.737   8.265  0.1563 -0.2524  0.2842
  939MOL0     C23881   0.951   4.902   8.535  0.2198  0.5015  0.3182
  939MOL0     C23882   0.838   4.914   8.623  0.3940  0.0283  0.8349
  939MOL0     H23883   0.371   4.771   8.729  0.3135 -0.5447 -0.2906
  939MOL0     H23884   0.144   4.833   8.773  2.0479 -1.7752 -0.9917
  939MOL0     H23885   0.047   5.263   8.878 -0.7703  2.0739  2.0458
  939MOL0     H23886   0.096   5.182   9.032 -1.6567  1.7302  1.8109
  939MOL0     H23887  -0.133   5.273   9.056 -2.0519 -0.7253 -0.3799
  939MOL0     H23888  -0.151   5.095   9.036  2.1746  0.3589  1.3086
  939MOL0     H23889  -0.331   5.199   8.909 -0.5105 -1.6047 -3.2640
  939MOL0     H23890  -0.209   5.154   8.793 -0.4194  1.0115 -1.2301
  939MOL0     H23891  -0.253   5.426   8.914 -3.0240 -2.1766 -0.3297
  939MOL0     H23892  -0.105   5.406   8.829 -0.8605  4.8511 -1.5904
  939MOL0     H23893  -0.210   5.383   8.629 -1.4140 -1.2992 -0.7394
  939MOL0     H23894  -0.277   5.530   8.708 -1.0545  0.0838 -0.8375
  939MOL0     H23895  -0.423   5.265   8.677 -0.7123 -0.0368  0.0159
  939MOL0     H23896  -0.439   5.431   8.588 -3.9494  0.1138  0.4254
  939MOL0     H23897  -0.491   5.387   8.881  1.5341  0.3024  0.5239
  939MOL0     H23898  -0.519   5.529   8.774 -2.1174  0.3204 -1.0580
  939MOL0     H23899  -0.741   5.399   8.842 -0.0758  2.8812 -0.6317
  939MOL0     H23900  -0.659   5.263   8.754 -0.9028  0.2855 -0.0022
  939MOL0     H23901  -0.702   5.314   8.486 -1.9833  0.8324 -3.1439
  939MOL0     H23902  -0.940   5.420   8.323  1.9343 -0.2344 -0.9108
  939MOL0     H23903  -0.818   5.525   8.269  0.1060  0.5480  0.9251
  939MOL0     H23904  -0.936   5.723   8.367 -0.0666  0.1749 -0.0437
  939MOL0     H23905  -1.071   5.622   8.410  0.8687 -0.2961  1.3490
  939MOL0     H23906  -1.049   5.761   8.183 -0.1709 -0.4148  0.8517
  939MOL0     H23907  -0.967   5.634   8.119  0.4148 -1.4372  1.2404
  939MOL0     H23908  -1.225   5.644   8.090 -4.0597  0.9546  3.3487
  939MOL0     H23909  -1.236   5.596   8.262 -1.5320 -0.8570 -0.5729
  939MOL0     H23910  -1.433   5.476   8.240 -2.5425 -0.3189 -0.3680
  939MOL0     H23911  -1.607   5.318   8.204 -1.3597  2.1836 -3.6864
  939MOL0     H23912  -1.760   4.889   8.105  1.5037  2.4641 -0.9730
  939MOL0     H23913  -1.984   4.768   8.089 -2.7409  0.3192  0.1928
  939MOL0     H23914  -2.353   5.005   8.068  0.1087 -0.9168 -1.0721
  939MOL0     H23915  -2.316   4.946   8.231  0.8984  0.5231 -0.3235
  939MOL0     H23916  -2.421   4.709   8.155  1.4234  0.7596  1.7713
  939MOL0     H23917  -2.466   4.790   7.996 -1.2667 -0.4085  0.4247
  939MOL0     H23918  -2.652   4.816   8.093  0.0231  0.8352 -0.1641
  939MOL0     H23919  -2.583   4.971   8.152 -0.1881 -0.6646 -0.1304
  939MOL0     H23920  -2.541   4.739   8.337  3.1526  1.6552 -1.9658
  939MOL0     H23921  -2.570   4.907   8.367 -0.4076 -0.5144  1.9064
  939MOL0     H23922  -2.774   4.740   8.421 -1.3432 -4.0922 -1.5896
  939MOL0     H23923  -2.772   4.690   8.264  2.3504  1.0039 -0.9733
  939MOL0     H23924  -2.830   4.928   8.199 -1.7021  1.2877  0.1282
  939MOL0     H23925  -2.838   4.959   8.375  0.6274 -0.3501  0.7761
  939MOL0     H23926  -2.992   4.749   8.235  5.4185  1.5061 -1.2267
  939MOL0     H23927  -3.017   4.793   8.410 -4.0819 -2.4557 -1.3572
  939MOL0     H23928  -3.084   4.989   8.183 -2.8632 -0.1238  0.9479
  939MOL0     H23929  -3.103   5.016   8.354 -2.7565  1.5446 -1.6340
  939MOL0     H23930  -2.184   5.129   8.126  1.3778  2.5283  1.8497
  939MOL0     H23931  -1.965   5.248   8.156 -1.0999  0.0969  1.2122
  939MOL0     H23932  -1.372   5.105   7.924  1.2180 -1.5258  1.5662
  939MOL0     H23933  -1.160   5.235   8.019  0.2632  1.7571  0.7295
  939MOL0     H23934   0.279   5.203   8.958  1.7631 -2.1645  3.9775
  939MOL0     H23935   0.505   5.148   8.895 -0.0795  0.5188 -3.8132
  939MOL0     H23936   0.837   4.601   8.756  1.6703 -1.1926 -0.9809
  939MOL0     H23937   1.042   4.580   8.606  1.2202  0.5063  0.0681
  939MOL0     H23938   1.220   4.939   8.395 -0.2572  1.1869 -3.1693
  939MOL0     H23939   1.084   4.891   8.285 -1.0344  4.4368  2.2250
  939MOL0     H23940   1.252   4.725   8.189  3.0411 -1.3880 -0.5590
  939MOL0     H23941   1.302   4.901   8.187  2.5874  1.3422  2.6209
  939MOL0     H23942   1.409   4.694   8.384 -0.1669 -0.1459  0.0323
  939MOL0     H23943   1.437   4.871   8.373  2.9367 -1.7844  1.6612
  939MOL0     H23944   1.503   4.680   8.138 -0.8675  0.9752 -0.0064
  939MOL0     H23945   1.537   4.856   8.154  1.2800  2.1608  3.5190
  939MOL0     H23946   1.887   4.750   8.241 -0.7616  5.1049 -2.2516
  939MOL0     H23947   0.985   4.989   8.479 -1.2531  1.5269  0.9473
  939MOL0     H23948   0.791   5.012   8.627  0.4563  0.1510 -0.8279
  940MOL0     O23949   1.529   8.871  10.470 -0.2288  0.7899  0.0444
  940MOL0     C23950   1.608   8.892  10.380 -0.6784  0.0545  0.3646
  940MOL0     O23951   1.633   8.810  10.267  0.3942 -0.2123 -0.5918
  940MOL0     C23952   1.550   8.722  10.217  0.0243 -0.0134  0.1390
  940MOL0     C23953   1.411   8.741  10.218  0.3786 -0.9871 -0.0911
  940MOL0     C23954   1.327   8.644  10.159  0.6328 -0.0295 -1.1938
  940MOL0     C23955   1.381   8.542  10.084  0.8247  0.3749  0.7668
  940MOL0     O23956   1.307   8.441  10.035 -0.6709 -0.1299 -0.4148
  940MOL0     C23957   1.159   8.428  10.048 -0.3524 -0.6674 -0.3860
  940MOL0     C23958   1.114   8.291   9.986  0.2207  0.0280 -0.0244
  940MOL0     C23959   0.976   8.301   9.918  0.1870 -0.2450  0.2301
  940MOL0     C23960   0.945   8.175   9.845 -0.1254 -0.6100  0.1620
  940MOL0     C23961   0.821   8.185   9.756  0.1153  0.3433 -0.2318
  940MOL0     C23962   0.787   8.045   9.695  0.5595  1.0081 -0.0140
  940MOL0     C23963   0.697   8.051   9.570  0.7941 -0.1135  0.5772
  940MOL0     C23964   0.778   8.074   9.445 -0.8313 -0.4343 -0.5712
  940MOL0     N23965   0.714   8.114   9.319  0.1217 -0.3412  0.1724
  940MOL0     C23966   0.650   8.026   9.240  0.1020  0.1450  0.2514
  940MOL0     C23967   0.581   8.102   9.153 -0.2562 -0.5212  0.3221
  940MOL0     C23968   0.492   8.043   9.049 -0.2387 -1.3372  0.3241
  940MOL0     C23969   0.353   8.076   9.090  0.1198  0.5339 -0.2649
  940MOL0     C23970   0.306   8.212   9.045  0.2905  0.8577 -0.1941
  940MOL0     C23971   0.152   8.216   9.048  0.3709 -0.2756  0.1368
  940MOL0     O23972   0.108   8.111   8.966 -0.1495  0.4521  0.7796
  940MOL0     C23973  -0.032   8.098   8.941 -0.1293 -0.8633 -0.2073
  940MOL0     C23974  -0.082   7.971   8.934  0.5633 -0.3477 -0.5869
  940MOL0     C23975  -0.224   7.958   8.920 -0.8952 -0.5614  0.9838
  940MOL0     C23976  -0.302   8.076   8.903 -0.2677 -0.0937  0.1969
  940MOL0     C23977  -0.444   8.068   8.883  0.2253 -0.4069  0.0193
  940MOL0     O23978  -0.506   8.176   8.822  1.0475 -0.1303 -0.1902
  940MOL0     C23979  -0.628   8.146   8.770  0.1339  0.0370 -0.6568
  940MOL0     C23980  -0.745   8.156   8.848 -0.5343  0.3921  0.0032
  940MOL0     C23981  -0.874   8.134   8.788 -0.3710  0.8882  0.5177
  940MOL0     C23982  -0.888   8.086   8.660 -0.3534 -0.1475  0.4903
  940MOL0     O23983  -1.014   8.047   8.605  0.4591 -0.4443 -0.5856
  940MOL0     C23984  -1.024   7.915   8.546  0.0545 -0.6953 -0.3985
  940MOL0     C23985  -1.171   7.875   8.536 -0.2538 -1.2799 -0.6540
  940MOL0     C23986  -1.197   7.736   8.490 -0.8580 -0.0796 -0.2073
  940MOL0     C23987  -1.343   7.709   8.494 -0.3427  0.2107  0.0663
  940MOL0     C23988  -1.383   7.556   8.484 -0.3343 -0.9562  0.6800
  940MOL0     C23989  -1.375   7.518   8.329  0.5246 -0.6868 -0.3672
  940MOL0     C23990  -1.420   7.375   8.308  0.7278 -0.4809 -0.1518
  940MOL0     C23991  -1.303   7.284   8.297 -0.5076 -0.4938 -0.0003
  940MOL0    Cl23992  -1.218   7.312   8.126 -0.4570  0.6707  0.0260
  940MOL0     C23993  -0.766   8.054   8.594 -0.1791 -0.0007  0.5773
  940MOL0     C23994  -0.639   8.096   8.636  1.1125  0.0160 -0.4710
  940MOL0     O23995  -0.499   7.966   8.906 -0.2695  0.4849 -0.2628
  940MOL0     C23996  -0.250   8.209   8.907 -0.4343 -0.1935 -0.0946
  940MOL0     C23997  -0.117   8.216   8.935  0.2930  0.1134  0.3274
  940MOL0     N23998   0.596   8.238   9.182 -0.1995  0.4204  0.6087
  940MOL0     N23999   0.676   8.235   9.280 -0.4695 -0.0315  0.3160
  940MOL0     C24000   1.518   8.529  10.073 -0.0529  0.1743 -0.3857
  940MOL0     C24001   1.603   8.621  10.141  0.1483  0.3775 -0.2337
  940MOL0     C24002   1.689   9.023  10.387 -0.0152 -0.1074  0.1406
  940MOL0     C24003   1.780   9.061  10.287  0.2914 -0.2600  0.3452
  940MOL0     C24004   1.874   9.157  10.310  1.4516  0.5087 -0.0484
  940MOL0     C24005   1.882   9.241  10.420  1.0628  0.4128  0.0107
  940MOL0     O24006   1.974   9.338  10.411 -1.2047  0.0629 -0.4304
  940MOL0     C24007   2.077   9.365  10.514  0.8150  1.1154 -0.2042
  940MOL0     C24008   2.167   9.479  10.463  0.1545  0.2724  0.7438
  940MOL0     C24009   2.255   9.441  10.340 -0.4261 -0.8032  0.1876
  940MOL0     C24010   2.355   9.329  10.368  0.2420  0.2764 -0.0842
  940MOL0     C24011   2.458   9.333  10.260  0.0739  0.1717 -0.2747
  940MOL0     C24012   2.522   9.333  10.155 -0.2145 -0.7192  0.0452
  940MOL0     C24013   1.793   9.211  10.525  0.1851  0.5897 -0.1389
  940MOL0     C24014   1.702   9.102  10.509  0.4241 -0.3345 -0.9423
  940MOL0     H24015   1.367   8.825  10.271  0.0639 -0.8271 -0.6025
  940MOL0     H24016   1.219   8.639  10.173  0.0117 -0.0973 -4.8892
  940MOL0     H24017   1.119   8.512   9.990  1.3587  0.6296  0.2046
  940MOL0     H24018   1.115   8.436  10.148 -1.9360 -1.4363 -0.9937
  940MOL0     H24019   1.111   8.219  10.068 -0.4006  0.3947  0.2797
  940MOL0     H24020   1.192   8.254   9.918  2.0219 -0.7646  2.3556
  940MOL0     H24021   0.969   8.381   9.843  3.1077 -1.9064 -2.0131
  940MOL0     H24022   0.894   8.324   9.987  0.8886 -1.9307  1.6967
  940MOL0     H24023   1.021   8.148   9.771 -1.1285 -1.4500 -0.6034
  940MOL0     H24024   0.916   8.100   9.920  1.4593 -0.5040  0.9157
  940MOL0     H24025   0.853   8.256   9.679  2.0437  0.7898  0.9187
  940MOL0     H24026   0.740   8.212   9.824  0.3197 -2.2165  1.1216
  940MOL0     H24027   0.731   7.989   9.770 -0.7398  1.1363 -0.8509
  940MOL0     H24028   0.878   7.985   9.681  0.0242 -0.3601  1.9170
  940MOL0     H24029   0.640   7.960   9.553 -0.3641  0.0687  3.1110
  940MOL0     H24030   0.631   8.136   9.587  1.3647  1.0447 -2.4653
  940MOL0     H24031   0.845   7.989   9.428  2.8210  1.8658  1.0460
  940MOL0     H24032   0.834   8.163   9.477 -0.0571 -1.6110  1.5229
  940MOL0     H24033   0.636   7.920   9.256  0.3673  0.4202  2.6386
  940MOL0     H24034   0.492   7.935   9.065 -1.0100 -2.0522 -3.5281
  940MOL0     H24035   0.527   8.062   8.947  0.7936  0.1481  0.9179
  940MOL0     H24036   0.342   8.073   9.199 -0.1453 -0.3086 -0.3000
  940MOL0     H24037   0.293   8.000   9.038  0.6903 -1.2876  1.6143
  940MOL0     H24038   0.338   8.279   9.125 -1.5551  3.8896 -1.8278
  940MOL0     H24039   0.342   8.233   8.944  0.0062 -1.3987 -0.8207
  940MOL0     H24040   0.124   8.311   9.003 -4.2408 -1.9735 -1.0647
  940MOL0     H24041   0.108   8.203   9.147 -4.3167  0.4600 -1.6187
  940MOL0     H24042  -0.019   7.884   8.946 -1.0613 -1.3838  0.9067
  940MOL0     H24043  -0.267   7.858   8.916  0.1392 -1.0324  1.1731
  940MOL0     H24044  -0.743   8.174   8.955  2.3778 -0.4717  0.1809
  940MOL0     H24045  -0.961   8.147   8.852 -0.7695  0.9807 -0.0361
  940MOL0     H24046  -0.975   7.832   8.598 -1.1498 -0.9596  0.3568
  940MOL0     H24047  -0.983   7.913   8.445 -1.1003  0.6071 -0.9300
  940MOL0     H24048  -1.227   7.952   8.482 -2.4534 -2.7291 -0.5907
  940MOL0     H24049  -1.208   7.872   8.639 -1.1021  0.4848 -0.8698
  940MOL0     H24050  -1.155   7.659   8.555 -0.1689 -0.4955 -1.1299
  940MOL0     H24051  -1.150   7.714   8.394  1.4045  1.9857  0.3389
  940MOL0     H24052  -1.376   7.723   8.597 -0.8321 -0.7829  0.0575
  940MOL0     H24053  -1.401   7.774   8.428 -1.8948 -0.3129  0.8571
  940MOL0     H24054  -1.487   7.547   8.518 -0.5461 -0.9616  0.0505
  940MOL0     H24055  -1.321   7.486   8.541 -1.7984 -2.8259  0.0863
  940MOL0     H24056  -1.277   7.534   8.285 -0.0234 -3.8199 -3.0927
  940MOL0     H24057  -1.447   7.585   8.281 -0.1693 -2.1179 -1.3597
  940MOL0     H24058  -1.477   7.339   8.394  2.7022  3.2506  3.0643
  940MOL0     H24059  -1.495   7.366   8.230 -0.6260  1.9923  0.7707
  940MOL0     H24060  -1.342   7.182   8.297 -1.5696 -0.0988 -0.2187
  940MOL0     H24061  -1.231   7.293   8.379  3.0301 -0.5278 -2.8836
  940MOL0     H24062  -0.774   8.013   8.494  0.6359  1.3525 -0.0611
  940MOL0     H24063  -0.548   8.099   8.577 -1.2500  2.6239 -4.4433
  940MOL0     H24064  -0.301   8.305   8.901  1.8462  1.1048  0.2068
  940MOL0     H24065  -0.067   8.311   8.951  1.4024  0.1720 -2.8304
  940MOL0     H24066   1.580   8.444  10.045  0.6654  0.2560  0.8949
  940MOL0     H24067   1.710   8.604  10.135  0.3640  1.7438 -0.6081
  940MOL0     H24068   1.783   9.000  10.197  1.8523 -3.6145  2.4987
  940MOL0     H24069   1.954   9.178  10.239  2.3042 -0.9427  0.4415
  940MOL0     H24070   2.129   9.271  10.535 -0.0468  0.1714 -2.0365
  940MOL0     H24071   2.042   9.411  10.607  1.1303  1.5929 -0.3162
  940MOL0     H24072   2.110   9.568  10.435  0.7949  0.6544  0.6464
  940MOL0     H24073   2.236   9.501  10.544 -0.8176 -1.1387  2.0076
  940MOL0     H24074   2.315   9.527  10.309  3.2390 -2.5797  1.6713
  940MOL0     H24075   2.195   9.417  10.252 -0.7691 -0.1541  0.2404
  940MOL0     H24076   2.398   9.333  10.469 -1.3821 -1.9259  0.7839
  940MOL0     H24077   2.307   9.231  10.362 -2.0334  1.4118 -3.9950
  940MOL0     H24078   2.561   9.334  10.055 -2.2790  0.7871 -0.8309
  940MOL0     H24079   1.793   9.268  10.618  0.8320 -1.0729  0.9368
  940MOL0     H24080   1.640   9.081  10.596 -0.3541  1.1519 -1.1022
  941MOL0     O24081   6.914   7.731   4.086  0.2700 -0.9718 -0.2079
  941MOL0     C24082   6.963   7.677   4.183 -0.6089  0.6503 -1.4235
  941MOL0     O24083   6.901   7.616   4.281  0.0259  0.0100 -0.5626
  941MOL0     C24084   6.765   7.596   4.271 -0.1977  0.5546  0.1464
  941MOL0     C24085   6.693   7.606   4.386 -0.5476 -0.3715  0.0342
  941MOL0     C24086   6.561   7.577   4.390 -0.3709  0.3482  0.1804
  941MOL0     C24087   6.497   7.519   4.277  0.6454  0.8243  0.3976
  941MOL0     O24088   6.366   7.484   4.281  0.3026  0.5016 -0.5000
  941MOL0     C24089   6.306   7.413   4.164 -0.0410 -0.0516 -0.3162
  941MOL0     C24090   6.153   7.379   4.186 -0.5633  0.5619 -1.3505
  941MOL0     C24091   6.104   7.340   4.051 -0.2880  0.8628 -0.0041
  941MOL0     C24092   5.953   7.304   4.048 -0.1535 -0.4798 -0.3783
  941MOL0     C24093   5.881   7.294   3.913 -0.6076 -0.0778  0.8051
  941MOL0     C24094   5.741   7.244   3.922 -0.1513  0.0269 -0.1698
  941MOL0     C24095   5.651   7.342   4.012  0.3438  0.5078 -0.2641
  941MOL0     C24096   5.506   7.307   3.976 -0.0179 -0.0284  0.7249
  941MOL0     N24097   5.413   7.421   4.004 -0.5924 -0.2475  0.4708
  941MOL0     C24098   5.294   7.410   4.064 -0.0898 -0.1384  0.0178
  941MOL0     C24099   5.223   7.526   4.028 -0.2445 -0.6675 -0.0846
  941MOL0     C24100   5.079   7.556   4.058  0.1160 -0.5106  0.0645
  941MOL0     C24101   5.001   7.448   3.980  0.8149  0.3166 -0.6702
  941MOL0     C24102   4.849   7.463   4.002  0.9483 -0.3310 -0.1249
  941MOL0     C24103   4.798   7.584   3.927 -0.0351  0.9269 -0.0482
  941MOL0     O24104   4.817   7.697   4.013  0.3166  0.1409  0.0184
  941MOL0     C24105   4.765   7.823   3.967  0.6358  0.3085 -0.8281
  941MOL0     C24106   4.654   7.842   3.884 -0.4385  0.9164 -0.0538
  941MOL0     C24107   4.611   7.966   3.850  0.9725  0.9123 -0.4284
  941MOL0     C24108   4.669   8.077   3.912  0.1223  0.2328  1.5334
  941MOL0     C24109   4.625   8.212   3.873 -0.0583  0.0517 -0.2903
  941MOL0     O24110   4.549   8.223   3.754 -0.3832  0.2861  0.1647
  941MOL0     C24111   4.509   8.335   3.695  0.4819 -1.1028  0.1363
  941MOL0     C24112   4.504   8.356   3.550 -0.0943  1.0222 -0.3696
  941MOL0     C24113   4.438   8.459   3.496  0.2069 -0.0495  0.4005
  941MOL0     C24114   4.373   8.552   3.573  0.5210  1.1316 -0.3140
  941MOL0     O24115   4.316   8.664   3.514  0.4408 -0.2973 -0.1430
  941MOL0     C24116   4.314   8.696   3.370  0.2778 -0.1445  0.8535
  941MOL0     C24117   4.203   8.637   3.281  0.4964  0.8798 -0.6369
  941MOL0     C24118   4.061   8.659   3.348  0.8295  0.3111 -0.0525
  941MOL0     C24119   4.016   8.804   3.348 -0.4321  0.8574  0.3953
  941MOL0     C24120   3.922   8.849   3.462  0.9249 -0.1426  0.1305
  941MOL0     C24121   3.920   9.002   3.490  0.0214 -0.1166  0.0362
  941MOL0     C24122   3.868   9.038   3.626 -0.3566  0.0501 -0.1080
  941MOL0     C24123   3.877   9.193   3.638 -0.5892 -0.3881 -0.4189
  941MOL0    Cl24124   4.033   9.234   3.724  0.1195  0.0336 -0.1610
  941MOL0     C24125   4.381   8.544   3.711  0.2348 -0.5856  0.7378
  941MOL0     C24126   4.445   8.438   3.768  0.3520  0.4205  0.3440
  941MOL0     O24127   4.662   8.311   3.936  0.0814  0.0688 -0.0631
  941MOL0     C24128   4.777   8.063   4.007  0.5084 -0.1091  0.8568
  941MOL0     C24129   4.818   7.929   4.032 -0.0466  0.5606 -0.3278
  941MOL0     N24130   5.319   7.607   3.965 -0.4579 -0.5908 -0.9381
  941MOL0     N24131   5.426   7.548   3.950 -0.6699  0.3671  0.4127
  941MOL0     C24132   6.572   7.501   4.165  0.1241 -0.2311  0.5853
  941MOL0     C24133   6.708   7.541   4.156  0.5563 -0.2893 -0.0611
  941MOL0     C24134   7.111   7.663   4.185  0.5986  0.5490 -0.3889
  941MOL0     C24135   7.195   7.723   4.090  0.5788 -0.0607 -0.5393
  941MOL0     C24136   7.334   7.706   4.095  0.4871  0.2782 -0.0728
  941MOL0     C24137   7.392   7.626   4.196  0.0901  0.6058 -0.0101
  941MOL0     O24138   7.525   7.594   4.188 -1.0508 -0.2245  0.0915
  941MOL0     C24139   7.602   7.548   4.306  0.3572  0.5384  0.2747
  941MOL0     C24140   7.729   7.626   4.300  0.2719  0.6722 -0.0643
  941MOL0     C24141   7.839   7.589   4.399  0.0784  0.1282  0.3577
  941MOL0     C24142   7.970   7.670   4.381 -0.4951  0.5812  0.4419
  941MOL0     C24143   8.058   7.615   4.278  0.9295 -0.6745  0.6454
  941MOL0     C24144   8.141   7.590   4.190 -0.0495  0.0270  0.3156
  941MOL0     C24145   7.307   7.567   4.290  0.4882  0.1915  0.0693
  941MOL0     C24146   7.171   7.588   4.286  0.2731 -0.2028  0.5827
  941MOL0     H24147   6.741   7.628   4.481 -1.4235  0.2741  0.3420
  941MOL0     H24148   6.498   7.601   4.475  1.2321 -2.7017  2.4597
  941MOL0     H24149   6.354   7.317   4.146 -0.9537 -0.9750  1.8139
  941MOL0     H24150   6.311   7.474   4.073 -0.3473  4.4821  2.3673
  941MOL0     H24151   6.108   7.468   4.231  0.1042 -0.5955  1.9494
  941MOL0     H24152   6.137   7.300   4.261  0.1783  1.9025  0.2774
  941MOL0     H24153   6.145   7.251   4.003 -1.5762  0.4298 -0.3249
  941MOL0     H24154   6.118   7.425   3.984  2.2214 -1.4084 -2.6574
  941MOL0     H24155   5.934   7.214   4.107  0.4213  1.1358  2.4906
  941MOL0     H24156   5.898   7.380   4.105  2.4613  0.4255  1.0913
  941MOL0     H24157   5.942   7.220   3.860 -1.1947  0.5799 -0.8714
  941MOL0     H24158   5.880   7.380   3.845 -2.4346 -0.4252  0.3425
  941MOL0     H24159   5.740   7.149   3.975  2.2066 -0.2826 -0.5748
  941MOL0     H24160   5.707   7.247   3.818 -0.2136  2.7088 -0.1484
  941MOL0     H24161   5.666   7.328   4.120 -2.0847 -1.8773 -0.1182
  941MOL0     H24162   5.659   7.449   3.991  1.1000  0.8139  1.4492
  941MOL0     H24163   5.483   7.217   4.034 -0.9068  0.6101  1.3719
  941MOL0     H24164   5.503   7.285   3.869  3.0118 -1.2343  0.7677
  941MOL0     H24165   5.247   7.331   4.122  2.2381 -0.6324  1.3584
  941MOL0     H24166   5.051   7.659   4.033  0.9611 -0.1172  0.6578
  941MOL0     H24167   5.070   7.547   4.167  1.9777 -0.8848  0.2258
  941MOL0     H24168   5.024   7.348   4.019  1.3590  0.6858 -0.0138
  941MOL0     H24169   5.031   7.453   3.875  2.3823 -4.4279 -0.7258
  941MOL0     H24170   4.801   7.377   3.954 -0.7245  0.8243 -0.6178
  941MOL0     H24171   4.824   7.457   4.108 -1.6505 -0.8825 -0.6872
  941MOL0     H24172   4.691   7.571   3.908  0.2811 -0.3828 -1.1340
  941MOL0     H24173   4.844   7.602   3.830 -1.6394  1.5672 -0.7212
  941MOL0     H24174   4.601   7.763   3.832 -0.6186  1.2252 -0.3510
  941MOL0     H24175   4.519   7.970   3.793 -1.0694 -2.3765  2.2809
  941MOL0     H24176   4.545   8.278   3.486 -2.7435 -0.4356 -0.4183
  941MOL0     H24177   4.422   8.454   3.388 -0.6483  0.9406  0.4618
  941MOL0     H24178   4.414   8.672   3.332  0.9474  2.0241  1.1338
  941MOL0     H24179   4.305   8.805   3.367 -0.7925 -0.2315 -1.9824
  941MOL0     H24180   4.211   8.530   3.262  0.5580  0.9486 -0.9961
  941MOL0     H24181   4.205   8.676   3.179  1.7344 -2.3579 -1.9939
  941MOL0     H24182   4.065   8.619   3.450  0.8271  1.6703  0.5071
  941MOL0     H24183   3.979   8.608   3.296  0.3595 -0.7664  1.6508
  941MOL0     H24184   4.111   8.859   3.352 -0.0010  0.1579 -0.1191
  941MOL0     H24185   3.976   8.835   3.252  0.9546  0.4473 -0.3452
  941MOL0     H24186   3.959   8.800   3.553  1.1806  0.6272  0.4522
  941MOL0     H24187   3.817   8.819   3.453 -0.2270  2.5262  2.7961
  941MOL0     H24188   3.862   9.045   3.408 -1.4587 -0.6042  0.7849
  941MOL0     H24189   4.026   9.031   3.494 -0.8144  3.2548  3.2066
  941MOL0     H24190   3.765   9.002   3.636  1.0441 -3.8351  2.2538
  941MOL0     H24191   3.924   8.977   3.697 -1.0472 -1.5398 -0.8835
  941MOL0     H24192   3.788   9.232   3.687 -0.0545  0.8882 -0.4406
  941MOL0     H24193   3.885   9.241   3.540 -2.4651  1.8066  0.4288
  941MOL0     H24194   4.333   8.618   3.774 -1.4833 -2.4150  1.7121
  941MOL0     H24195   4.453   8.435   3.876 -0.7403  2.9397  0.5803
  941MOL0     H24196   4.817   8.146   4.064  1.5680  0.1792 -0.2729
  941MOL0     H24197   4.901   7.923   4.102 -0.9565  0.8268  0.8046
  941MOL0     H24198   6.535   7.458   4.072  0.3737 -0.9445  0.8103
  941MOL0     H24199   6.778   7.533   4.073  3.6856 -0.0289  2.3433
  941MOL0     H24200   7.154   7.795   4.021 -1.2875 -0.5589 -0.0199
  941MOL0     H24201   7.403   7.755   4.027  2.0426  0.7315  1.7536
  941MOL0     H24202   7.625   7.443   4.289  2.5790  0.7345  1.5962
  941MOL0     H24203   7.561   7.547   4.407  0.8022 -0.1675  0.4555
  941MOL0     H24204   7.757   7.624   4.194 -0.7677 -0.2501 -0.3432
  941MOL0     H24205   7.716   7.732   4.323 -1.8545  0.8503 -1.7506
  941MOL0     H24206   7.857   7.486   4.368  0.1283 -0.4786  2.2750
  941MOL0     H24207   7.804   7.585   4.503  1.2369  0.0066  0.7541
  941MOL0     H24208   7.947   7.776   4.361 -1.8674  1.1462  4.2133
  941MOL0     H24209   8.027   7.659   4.474  1.4811 -0.1961 -0.7965
  941MOL0     H24210   8.213   7.569   4.113  1.1410  2.5631  0.6395
  941MOL0     H24211   7.334   7.503   4.374 -1.8658  0.6391  1.2698
  941MOL0     H24212   7.109   7.559   4.370 -1.1182  0.2096 -0.2699
  942MOL0     O24213   6.267   9.637   0.069 -0.3591  0.0648 -0.3621
  942MOL0     C24214   6.384   9.601   0.057 -0.5470 -0.3329 -0.0962
  942MOL0     O24215   6.456   9.520   0.147 -0.1568 -0.4918 -0.3087
  942MOL0     C24216   6.428   9.500   0.284 -0.0436 -1.3668  0.0982
  942MOL0     C24217   6.335   9.580   0.360  0.6725  0.1290 -0.7455
  942MOL0     C24218   6.304   9.557   0.490 -0.7199  0.9328  0.0271
  942MOL0     C24219   6.363   9.458   0.555 -0.1626 -0.6739 -0.5194
  942MOL0     O24220   6.326   9.444   0.689  0.0108  0.0292 -0.1115
  942MOL0     C24221   6.425   9.400   0.784 -0.5179 -0.3768 -0.2408
  942MOL0     C24222   6.541   9.503   0.796 -0.4804 -0.7285 -0.7586
  942MOL0     C24223   6.488   9.645   0.817 -0.5165 -1.0162 -0.3399
  942MOL0     C24224   6.608   9.744   0.850 -0.3817  0.3362  0.6721
  942MOL0     C24225   6.579   9.888   0.854 -1.0505  0.4095  1.2977
  942MOL0     C24226   6.695   9.972   0.908 -0.5136  1.1560 -0.6301
  942MOL0     C24227   6.665  10.123   0.896 -0.1880 -0.4276 -0.5348
  942MOL0     C24228   6.563  10.153   1.007 -0.6237  0.3416 -0.0526
  942MOL0     N24229   6.508  10.286   0.998 -0.5228  0.2394  0.2692
  942MOL0     C24230   6.411  10.344   0.904 -0.5834  0.1697 -0.9248
  942MOL0     C24231   6.403  10.477   0.944 -0.3940  0.6477 -0.4648
  942MOL0     C24232   6.326  10.578   0.868  0.4268 -1.1730 -0.0499
  942MOL0     C24233   6.178  10.534   0.841 -0.3859 -0.3319 -0.4787
  942MOL0     C24234   6.095  10.510   0.964 -0.0800 -0.7677  0.0742
  942MOL0     C24235   5.953  10.461   0.922 -0.0061  0.6568 -0.3250
  942MOL0     O24236   5.870  10.401   1.019  0.5249 -0.3364 -0.3742
  942MOL0     C24237   5.739  10.392   0.995  1.1161 -0.5196  0.0388
  942MOL0     C24238   5.683  10.376   0.871  0.5822  0.4129 -0.2819
  942MOL0     C24239   5.548  10.351   0.856 -0.4598  0.1403 -0.0646
  942MOL0     C24240   5.473  10.337   0.980 -0.2715 -0.2715  1.2501
  942MOL0     C24241   5.337  10.290   0.960  0.0445 -0.6602  0.1335
  942MOL0     O24242   5.250  10.309   1.069 -0.3834 -0.0690 -0.2871
  942MOL0     C24243   5.130  10.241   1.061 -0.0439 -0.7136  0.1691
  942MOL0     C24244   5.043  10.246   0.949  0.9076 -0.1993 -0.0919
  942MOL0     C24245   4.930  10.157   0.950  0.0736  0.1208 -0.1709
  942MOL0     C24246   4.895  10.073   1.057  0.5763 -0.4978 -0.0321
  942MOL0     O24247   4.783   9.991   1.045 -0.4094 -0.8909 -0.0865
  942MOL0     C24248   4.774   9.875   1.138  0.2986 -0.8398  0.6474
  942MOL0     C24249   4.630   9.858   1.177 -0.3042 -0.3317  0.8309
  942MOL0     C24250   4.581   9.992   1.247 -1.2712  0.7851  0.4819
  942MOL0     C24251   4.437   9.978   1.304 -1.4391  0.0666 -0.5709
  942MOL0     C24252   4.389  10.114   1.346 -0.4547 -0.4926 -0.3648
  942MOL0     C24253   4.241  10.111   1.388  1.0337  0.1155  0.1452
  942MOL0     C24254   4.189  10.258   1.431 -0.4440  0.6618 -0.1039
  942MOL0     C24255   4.054  10.257   1.494  0.2131  0.0226  0.1702
  942MOL0    Cl24256   4.032  10.175   1.652 -0.1845 -0.1708 -0.3048
  942MOL0     C24257   4.986  10.076   1.169  0.9104  0.3891  1.3261
  942MOL0     C24258   5.096  10.160   1.172 -0.4667 -0.6846  0.4133
  942MOL0     O24259   5.313  10.219   0.860  0.0865 -0.5051  0.4825
  942MOL0     C24260   5.527  10.343   1.102 -0.6772 -0.6847  0.3391
  942MOL0     C24261   5.658  10.378   1.107 -0.3921  0.9101 -0.0488
  942MOL0     N24262   6.478  10.490   1.055 -0.1706  0.5223  0.1977
  942MOL0     N24263   6.543  10.386   1.085  0.2719  0.5949  0.0752
  942MOL0     C24264   6.473   9.384   0.488 -1.1940  0.1016 -0.1903
  942MOL0     C24265   6.499   9.406   0.351  0.4188  0.7614  0.5396
  942MOL0     C24266   6.443   9.638  -0.068  0.0981  0.0613  0.7943
  942MOL0     C24267   6.552   9.572  -0.125  0.0227  0.3056  0.9222
  942MOL0     C24268   6.609   9.596  -0.248  0.0118 -0.6134 -0.0005
  942MOL0     C24269   6.559   9.691  -0.328  0.5666  0.7087 -0.2546
  942MOL0     O24270   6.610   9.693  -0.454 -0.6621 -0.4343 -0.2908
  942MOL0     C24271   6.560   9.794  -0.540  0.5050 -0.2350 -0.7142
  942MOL0     C24272   6.607   9.781  -0.677  0.2125  0.1438 -0.4512
  942MOL0     C24273   6.585   9.647  -0.739 -0.0830 -0.0452 -0.2066
  942MOL0     C24274   6.703   9.555  -0.722 -0.3818  0.4903  0.5388
  942MOL0     C24275   6.676   9.413  -0.744  0.6910 -0.1933  0.7550
  942MOL0     C24276   6.634   9.296  -0.740  0.7721 -0.3346 -0.2057
  942MOL0     C24277   6.455   9.768  -0.271 -1.1006  0.4051 -0.9731
  942MOL0     C24278   6.390   9.737  -0.149  0.5623  0.3697 -0.4887
  942MOL0     H24279   6.276   9.660   0.317  1.4390  1.0594 -0.0944
  942MOL0     H24280   6.223   9.605   0.545 -0.7063  0.5441  0.3965
  942MOL0     H24281   6.471   9.311   0.742 -0.0293 -0.2204 -0.0403
  942MOL0     H24282   6.383   9.373   0.881 -1.7067  0.8109 -0.3798
  942MOL0     H24283   6.606   9.499   0.708  2.0585 -2.9933  1.0755
  942MOL0     H24284   6.608   9.479   0.879 -0.2133  0.2610 -0.6776
  942MOL0     H24285   6.415   9.654   0.897 -0.8913  2.0648 -0.9190
  942MOL0     H24286   6.437   9.685   0.729  0.4242  1.6698  0.2615
  942MOL0     H24287   6.652   9.707   0.943  1.2135 -0.6760 -0.4208
  942MOL0     H24288   6.697   9.728   0.787 -0.9095 -1.9758  0.4235
  942MOL0     H24289   6.491   9.908   0.916 -1.4288  0.1941  0.8407
  942MOL0     H24290   6.561   9.926   0.753  3.3525  0.0135  0.1608
  942MOL0     H24291   6.789   9.949   0.857 -1.5465 -2.7374 -1.1410
  942MOL0     H24292   6.724   9.945   1.010  5.4898  0.7977 -2.0692
  942MOL0     H24293   6.758  10.178   0.911 -0.0778 -0.9788  1.0240
  942MOL0     H24294   6.624  10.142   0.796 -0.7839  0.9816 -0.0420
  942MOL0     H24295   6.620  10.157   1.100 -0.8381  1.9243  0.0272
  942MOL0     H24296   6.484  10.078   1.023  0.4110 -1.6790 -3.3484
  942MOL0     H24297   6.366  10.303   0.814  0.9189  0.9463 -2.0736
  942MOL0     H24298   6.363  10.600   0.768  0.7674 -3.1738 -0.4073
  942MOL0     H24299   6.322  10.669   0.929  1.3561  0.2543 -2.0175
  942MOL0     H24300   6.170  10.448   0.774 -3.1233 -1.2299  0.8640
  942MOL0     H24301   6.137  10.624   0.794  0.9360 -0.2214 -1.4854
  942MOL0     H24302   6.143  10.435   1.028  0.3791 -0.7885 -0.2889
  942MOL0     H24303   6.078  10.610   1.005 -2.6645 -0.7064 -0.9479
  942MOL0     H24304   5.970  10.381   0.849 -1.6902  2.0215 -2.3699
  942MOL0     H24305   5.907  10.545   0.869  0.9756  2.0817  1.0022
  942MOL0     H24306   5.751  10.385   0.787  3.3208 -0.4283  1.7106
  942MOL0     H24307   5.510  10.355   0.755 -0.5677 -0.4136 -0.0484
  942MOL0     H24308   5.068  10.317   0.871  0.9176  0.2997  0.3562
  942MOL0     H24309   4.870  10.164   0.859 -0.8944  1.0575  0.5147
  942MOL0     H24310   4.816   9.889   1.238 -2.1485 -2.7197  2.0306
  942MOL0     H24311   4.818   9.785   1.096 -0.7607 -1.3850  0.6663
  942MOL0     H24312   4.610   9.770   1.240  2.7307 -1.6080  0.1827
  942MOL0     H24313   4.580   9.847   1.080  1.4658 -1.3230 -0.0158
  942MOL0     H24314   4.579  10.083   1.187 -0.4926  0.1529 -0.5275
  942MOL0     H24315   4.659  10.012   1.321 -2.2637  0.3879  1.6729
  942MOL0     H24316   4.385   9.937   1.217  2.2588  2.6671 -4.4021
  942MOL0     H24317   4.438   9.912   1.391 -0.0096  1.2910  0.3971
  942MOL0     H24318   4.416  10.184   1.266  0.5335 -1.8176 -1.2181
  942MOL0     H24319   4.446  10.154   1.429  0.5480  1.5814 -1.9545
  942MOL0     H24320   4.230  10.048   1.477  0.0512 -1.2737 -0.9192
  942MOL0     H24321   4.177  10.064   1.313  2.7330  1.9194 -2.6033
  942MOL0     H24322   4.260  10.308   1.498  3.0463 -3.1960 -0.5379
  942MOL0     H24323   4.195  10.316   1.338  1.3224  2.1512  0.8471
  942MOL0     H24324   3.991  10.214   1.415  0.4455 -3.5400  1.7556
  942MOL0     H24325   4.027  10.362   1.507 -0.7590 -0.3503  1.3903
  942MOL0     H24326   4.978  10.005   1.250  1.5745 -0.6670  0.5069
  942MOL0     H24327   5.162  10.173   1.257  1.2812  1.8446 -1.1714
  942MOL0     H24328   5.469  10.325   1.192  2.1727  2.5119  3.1186
  942MOL0     H24329   5.704  10.374   1.206 -0.6988 -0.5415  0.0518
  942MOL0     H24330   6.516   9.303   0.545 -0.0600  2.0968  1.9618
  942MOL0     H24331   6.568   9.356   0.284  0.2647 -1.3978  1.8886
  942MOL0     H24332   6.600   9.495  -0.065  1.4420 -2.7479 -3.6506
  942MOL0     H24333   6.704   9.548  -0.270  1.1408  1.3380  0.4038
  942MOL0     H24334   6.573   9.895  -0.499  2.4063 -0.8557  0.3659
  942MOL0     H24335   6.454   9.769  -0.533 -0.3895  3.4199  1.0325
  942MOL0     H24336   6.560   9.855  -0.742  0.6472 -0.2968 -1.2780
  942MOL0     H24337   6.713   9.811  -0.672  0.3394 -0.4610  1.1520
  942MOL0     H24338   6.552   9.656  -0.843  0.8804  0.8359 -0.4583
  942MOL0     H24339   6.495   9.604  -0.696 -1.8283  0.6702 -2.9191
  942MOL0     H24340   6.777   9.588  -0.795  1.7149 -1.9895  1.4085
  942MOL0     H24341   6.740   9.572  -0.620  1.3380  1.8457 -0.2795
  942MOL0     H24342   6.581   9.203  -0.741  1.6730 -0.8664  0.1650
  942MOL0     H24343   6.400   9.847  -0.321 -2.0034  0.1663 -0.3853
  942MOL0     H24344   6.297   9.791  -0.135  1.1553  1.1502  0.6834
  943MOL0     O24345  10.473  10.101   3.907  0.0509  0.2080 -0.5860
  943MOL0     C24346  10.484  10.202   3.837  0.4795 -0.2764 -0.3201
  943MOL0     O24347  10.379  10.269   3.776 -0.2775 -0.4855 -0.2208
  943MOL0     C24348  10.253  10.213   3.768  0.0445  0.1756  0.0542
  943MOL0     C24349  10.139  10.289   3.790 -0.0838 -0.0064 -0.2073
  943MOL0     C24350  10.009  10.236   3.799 -0.9552 -0.9930 -0.4459
  943MOL0     C24351   9.990  10.097   3.806  1.1006 -0.1132 -0.5528
  943MOL0     O24352   9.866  10.045   3.838 -0.5991  0.1707  1.0620
  943MOL0     C24353   9.800  10.074   3.964 -0.2243 -0.8276  0.5453
  943MOL0     C24354   9.658  10.117   3.924  0.5745  0.8570 -0.9610
  943MOL0     C24355   9.570  10.136   4.049  1.3902 -0.5191  0.3231
  943MOL0     C24356   9.441  10.224   4.019 -0.3287  0.6165 -0.1018
  943MOL0     C24357   9.351  10.245   4.133  0.2935  0.4520 -0.3126
  943MOL0     C24358   9.220  10.317   4.087  0.2684  0.6064  1.0570
  943MOL0     C24359   9.139  10.382   4.204 -0.4174  1.0805  0.0097
  943MOL0     C24360   9.079  10.287   4.296  0.6515  0.3508  0.9134
  943MOL0     N24361   8.981  10.208   4.213  0.4376  1.0498  0.6524
  943MOL0     C24362   8.864  10.232   4.148  0.3530 -0.0354  0.1803
  943MOL0     C24363   8.825  10.108   4.104 -0.0169 -0.4122 -0.2513
  943MOL0     C24364   8.692  10.085   4.033 -0.2418  0.5452 -0.1517
  943MOL0     C24365   8.613   9.975   4.104  0.2924 -0.2900 -0.9549
  943MOL0     C24366   8.467   9.967   4.038 -0.8538 -0.8587 -0.3039
  943MOL0     C24367   8.406   9.835   4.070 -0.7847 -0.3060 -1.0173
  943MOL0     O24368   8.380   9.819   4.208 -0.5763 -0.5319 -0.4052
  943MOL0     C24369   8.247   9.838   4.238  0.1743 -0.1921 -0.3677
  943MOL0     C24370   8.167   9.940   4.189  0.2801 -0.7029 -0.3863
  943MOL0     C24371   8.035   9.955   4.217 -1.7866 -0.0760 -0.2168
  943MOL0     C24372   7.977   9.849   4.284 -0.5202  0.0970 -0.2420
  943MOL0     C24373   7.826   9.863   4.297  0.3944 -0.3546 -0.7753
  943MOL0     O24374   7.775   9.986   4.301  0.7023  0.1060 -0.2373
  943MOL0     C24375   7.645  10.020   4.338 -0.3798  0.7891 -0.1720
  943MOL0     C24376   7.553   9.936   4.406 -0.9195 -0.1036  0.3177
  943MOL0     C24377   7.430   9.992   4.444  0.5957  0.7746 -0.1759
  943MOL0     C24378   7.386  10.117   4.407  0.5600 -0.9874 -0.4715
  943MOL0     O24379   7.251  10.155   4.447 -0.8683 -0.0297 -0.6358
  943MOL0     C24380   7.193  10.263   4.385 -0.1087  0.5236  0.2999
  943MOL0     C24381   7.048  10.215   4.369  0.9459 -0.6597  0.4293
  943MOL0     C24382   7.033  10.125   4.249  0.1385  0.2468  0.0764
  943MOL0     C24383   6.962  10.190   4.134 -0.5939 -0.1002  0.5758
  943MOL0     C24384   6.938  10.081   4.027 -1.2395 -0.4375 -0.4683
  943MOL0     C24385   6.853  10.142   3.917 -0.4733 -0.3532  0.0901
  943MOL0     C24386   6.836  10.041   3.804 -0.1023  0.9706  0.0445
  943MOL0     C24387   6.710  10.074   3.735 -0.4016 -0.4163  0.3316
  943MOL0    Cl24388   6.689   9.938   3.628 -0.0273 -0.3558 -0.3722
  943MOL0     C24389   7.472  10.193   4.322  0.0168 -0.2158 -0.2972
  943MOL0     C24390   7.605  10.148   4.302  0.5855 -0.6648  1.5340
  943MOL0     O24391   7.763   9.756   4.319  0.1731  0.8192 -0.8641
  943MOL0     C24392   8.049   9.743   4.346 -0.4607 -0.6597  0.1953
  943MOL0     C24393   8.188   9.745   4.321  0.3003  0.6504  0.4243
  943MOL0     N24394   8.922  10.006   4.131 -1.1128  0.5357  0.3651
  943MOL0     N24395   9.004  10.067   4.207  0.5748 -0.2247 -0.5308
  943MOL0     C24396  10.094  10.017   3.792 -0.4519 -0.5070  0.5613
  943MOL0     C24397  10.226  10.076   3.765  0.2434 -0.2688  1.1458
  943MOL0     C24398  10.623  10.238   3.794 -0.4052  0.9951  0.5387
  943MOL0     C24399  10.661  10.359   3.761 -0.5343 -0.5602  0.1282
  943MOL0     C24400  10.782  10.377   3.698 -0.3028 -0.1718 -0.1343
  943MOL0     C24401  10.872  10.267   3.677 -0.0724 -0.7863  0.5141
  943MOL0     O24402  10.988  10.301   3.610  0.6102 -0.7394  0.2069
  943MOL0     C24403  11.094  10.201   3.611  0.6883 -0.0428 -0.7134
  943MOL0     C24404  11.215  10.235   3.521  0.0216  0.0473  0.2364
  943MOL0     C24405  11.175  10.250   3.369  0.6668 -0.5915  0.1272
  943MOL0     C24406  11.286  10.335   3.293  0.5118 -0.4823 -0.6398
  943MOL0     C24407  11.230  10.408   3.178 -0.9455 -0.0707  0.2643
  943MOL0     C24408  11.175  10.470   3.092  0.0801 -0.1588  1.3904
  943MOL0     C24409  10.835  10.144   3.722 -0.4772 -0.0845 -0.1154
  943MOL0     C24410  10.713  10.116   3.769  0.6439 -0.1854 -0.4460
  943MOL0     H24411  10.158  10.396   3.795 -2.7924  0.5889 -0.9702
  943MOL0     H24412   9.939  10.318   3.813  0.8392  0.2347  1.9655
  943MOL0     H24413   9.840  10.156   4.024 -3.6321  1.6100 -0.1527
  943MOL0     H24414   9.791   9.987   4.029 -1.0608 -0.9634  0.2647
  943MOL0     H24415   9.611  10.035   3.869  3.1778 -1.1458 -0.4072
  943MOL0     H24416   9.652  10.210   3.868  1.1703  0.5860 -1.4856
  943MOL0     H24417   9.624  10.178   4.133  2.2761 -0.2783 -0.3593
  943MOL0     H24418   9.534  10.034   4.067  2.0906 -1.1086 -1.3900
  943MOL0     H24419   9.472  10.320   3.977 -3.9516  1.6213 -0.8337
  943MOL0     H24420   9.375  10.173   3.947  1.8521 -2.1506 -0.3188
  943MOL0     H24421   9.403  10.309   4.205 -0.7650 -0.2105  1.0861
  943MOL0     H24422   9.341  10.155   4.195  3.0977  1.0746  1.2105
  943MOL0     H24423   9.164  10.237   4.038  1.1673  2.1224 -2.7909
  943MOL0     H24424   9.232  10.402   4.019 -2.8014  0.1573 -0.1846
  943MOL0     H24425   9.196  10.454   4.264 -1.9129  1.2917  1.2381
  943MOL0     H24426   9.062  10.441   4.153  0.1353  1.4747 -0.3929
  943MOL0     H24427   9.021  10.335   4.375 -0.9423 -1.4854  0.9194
  943MOL0     H24428   9.152  10.224   4.347 -2.7775  0.4266  6.8565
  943MOL0     H24429   8.803  10.321   4.140 -0.6709 -0.8499 -2.0006
  943MOL0     H24430   8.718  10.058   3.930 -0.0502  1.6462 -0.4021
  943MOL0     H24431   8.631  10.175   4.043  0.1098  0.7527  0.1542
  943MOL0     H24432   8.596  10.007   4.207 -0.0920  1.0327 -1.4119
  943MOL0     H24433   8.675   9.885   4.103  2.6454  1.2372 -2.4590
  943MOL0     H24434   8.402  10.053   4.061 -1.4260 -0.5503 -2.7774
  943MOL0     H24435   8.479   9.955   3.930  0.0092  2.5206 -0.7176
  943MOL0     H24436   8.466   9.748   4.044  0.0304  0.1239 -0.6071
  943MOL0     H24437   8.314   9.831   4.011 -1.4660  1.5310 -0.1955
  943MOL0     H24438   8.201  10.019   4.123 -3.7198  0.2196 -1.6519
  943MOL0     H24439   7.978  10.030   4.164 -1.1002  0.1701 -0.6177
  943MOL0     H24440   7.570   9.832   4.432  1.3559  0.5801  1.8281
  943MOL0     H24441   7.371   9.929   4.510 -2.0319  2.3534 -0.8972
  943MOL0     H24442   7.231  10.297   4.288  0.5839  3.7258  1.5715
  943MOL0     H24443   7.205  10.352   4.448 -0.5333  1.8616 -1.4362
  943MOL0     H24444   6.982  10.302   4.372  2.7602  0.8101 -0.0839
  943MOL0     H24445   7.014  10.148   4.449  2.0702 -1.9908 -0.1718
  943MOL0     H24446   6.980  10.034   4.277  2.4778 -1.2455 -0.0881
  943MOL0     H24447   7.133  10.088   4.225 -0.3189 -0.3460 -0.9775
  943MOL0     H24448   6.865  10.230   4.166 -1.7901 -1.1229 -1.5345
  943MOL0     H24449   7.023  10.269   4.090 -1.2140  0.0771  0.0068
  943MOL0     H24450   6.881  10.000   4.073  0.4580 -1.9530 -0.9483
  943MOL0     H24451   7.037  10.041   4.005 -0.7463  2.5438 -5.4571
  943MOL0     H24452   6.897  10.232   3.874  1.6898 -1.3296  0.1046
  943MOL0     H24453   6.761  10.158   3.975 -0.9489 -0.3766 -0.6473
  943MOL0     H24454   6.920  10.035   3.734 -0.2239  1.2167 -0.1227
  943MOL0     H24455   6.824   9.941   3.847  0.2655 -0.7011 -3.3919
  943MOL0     H24456   6.713  10.170   3.684 -0.2013 -0.1012  0.9247
  943MOL0     H24457   6.631  10.085   3.810  0.4135 -1.3121  1.3607
  943MOL0     H24458   7.442  10.292   4.287 -0.7279 -0.3637 -0.0965
  943MOL0     H24459   7.675  10.217   4.256 -1.2584 -0.7318 -1.7177
  943MOL0     H24460   7.997   9.668   4.403  0.2588  0.7168  2.8360
  943MOL0     H24461   8.253   9.671   4.367 -0.1527 -0.8744 -1.2500
  943MOL0     H24462  10.084   9.909   3.803  0.5961 -0.7609 -0.6002
  943MOL0     H24463  10.307  10.007   3.745  1.4023  0.5477  2.7718
  943MOL0     H24464  10.592  10.442   3.769 -0.9523 -1.1041  4.0659
  943MOL0     H24465  10.816  10.473   3.661  0.3052  0.6587  2.3760
  943MOL0     H24466  11.059  10.103   3.579  1.1595 -0.6923  0.6644
  943MOL0     H24467  11.119  10.192   3.718 -0.4260 -4.2311 -0.6464
  943MOL0     H24468  11.257  10.331   3.551 -0.3245  0.7135 -1.3370
  943MOL0     H24469  11.290  10.155   3.523  0.2198 -0.0633 -3.7561
  943MOL0     H24470  11.080  10.304   3.375 -1.3437 -3.8662  0.1654
  943MOL0     H24471  11.150  10.159   3.315 -0.3187 -0.1994 -0.0840
  943MOL0     H24472  11.314  10.416   3.361 -0.3767  0.9848 -1.9815
  943MOL0     H24473  11.371  10.277   3.256 -0.1883 -1.2668 -1.0669
  943MOL0     H24474  11.121  10.530   3.021  0.7523  0.9349  1.7717
  943MOL0     H24475  10.912  10.068   3.724  0.7615  1.1088  2.0037
  943MOL0     H24476  10.680  10.018   3.800  0.2040  0.2737  0.5802
  944MOL0     O24477   2.641   4.570   9.088 -0.0831  0.1897  0.7192
  944MOL0     C24478   2.663   4.570   8.965 -0.2777  0.0216  0.6151
  944MOL0     O24479   2.578   4.544   8.870  0.3780  0.9158  0.5203
  944MOL0     C24480   2.439   4.552   8.897  0.6839  0.6992 -0.3092
  944MOL0     C24481   2.355   4.607   8.799  0.1668  1.0937 -0.1907
  944MOL0     C24482   2.209   4.613   8.816 -0.1641  0.0568 -0.0069
  944MOL0     C24483   2.161   4.561   8.932 -0.4000 -0.0067  0.3384
  944MOL0     O24484   2.029   4.559   8.966  0.1715 -0.4169  0.1834
  944MOL0     C24485   1.939   4.666   8.909 -0.7756 -0.2910  0.4404
  944MOL0     C24486   1.800   4.655   8.960  0.2297  0.6030  0.2949
  944MOL0     C24487   1.733   4.518   8.919  0.1796  0.6459  0.0177
  944MOL0     C24488   1.577   4.540   8.932  0.1588 -0.1344 -0.4048
  944MOL0     C24489   1.502   4.406   8.910  0.1327 -0.2971 -0.2147
  944MOL0     C24490   1.368   4.413   8.841  0.1004 -0.2033  0.2561
  944MOL0     C24491   1.267   4.454   8.937  0.2762 -0.2926  0.2789
  944MOL0     C24492   1.130   4.484   8.851  0.2704 -0.6243  0.9476
  944MOL0     N24493   1.005   4.481   8.934 -0.1139 -0.0288 -0.1522
  944MOL0     C24494   0.986   4.558   9.044 -0.5200 -0.8875  1.0383
  944MOL0     C24495   0.866   4.523   9.081  0.3720 -0.3688 -0.1727
  944MOL0     C24496   0.801   4.592   9.201 -0.3163 -0.5254  0.5733
  944MOL0     C24497   0.770   4.491   9.315 -0.2555  0.3572  0.7930
  944MOL0     C24498   0.701   4.547   9.437 -0.4149  1.1401 -0.0391
  944MOL0     C24499   0.615   4.437   9.507 -0.3929 -0.4967 -0.4332
  944MOL0     O24500   0.560   4.492   9.631  0.3733  0.6108  0.6180
  944MOL0     C24501   0.462   4.590   9.620  0.4093 -0.1686  0.6082
  944MOL0     C24502   0.342   4.581   9.557  0.4372  0.8891 -0.4957
  944MOL0     C24503   0.251   4.688   9.557  0.7995 -0.1027 -1.1375
  944MOL0     C24504   0.279   4.819   9.616  0.0669  0.2478  0.8445
  944MOL0     C24505   0.189   4.927   9.610 -0.2801 -0.2637  0.8433
  944MOL0     O24506   0.216   5.023   9.705 -0.1462  0.2742 -0.3993
  944MOL0     C24507   0.126   5.125   9.725 -0.2965 -0.6521  0.0712
  944MOL0     C24508  -0.006   5.095   9.754  0.0929  0.2030  0.0621
  944MOL0     C24509  -0.099   5.198   9.757 -0.0495  0.2110  0.8252
  944MOL0     C24510  -0.063   5.339   9.735 -0.8805  0.1999  0.4681
  944MOL0     O24511  -0.150   5.443   9.722 -0.0443 -0.3421 -0.6488
  944MOL0     C24512  -0.291   5.409   9.704 -0.3217 -0.1468  0.6849
  944MOL0     C24513  -0.376   5.544   9.712  0.1472  0.0953 -0.2833
  944MOL0     C24514  -0.523   5.503   9.705  0.1829 -0.4634 -1.9534
  944MOL0     C24515  -0.578   5.450   9.574  0.3327 -0.4253 -0.0844
  944MOL0     C24516  -0.714   5.386   9.593  0.3235 -0.3921 -0.2471
  944MOL0     C24517  -0.839   5.467   9.648 -0.3514 -0.2478  0.2116
  944MOL0     C24518  -0.954   5.369   9.669  0.8283 -0.4271 -0.0122
  944MOL0     C24519  -1.086   5.440   9.673 -0.3114  0.2665  0.2136
  944MOL0    Cl24520  -1.092   5.556   9.807 -0.2988  0.1368 -0.4826
  944MOL0     C24521   0.075   5.360   9.724  0.1206 -0.2116  0.1056
  944MOL0     C24522   0.172   5.260   9.726 -0.1801 -0.6505 -0.4675
  944MOL0     O24523   0.104   4.938   9.525  0.0249 -0.6570  0.7039
  944MOL0     C24524   0.413   4.820   9.686 -0.0987 -0.3944  0.3888
  944MOL0     C24525   0.499   4.705   9.678  0.4844  0.1018 -0.3594
  944MOL0     N24526   0.816   4.409   9.020 -0.5400 -0.5840  0.2787
  944MOL0     N24527   0.902   4.400   8.921  0.7808  0.1045  0.0428
  944MOL0     C24528   2.249   4.502   9.027  0.5271  0.1677 -0.7495
  944MOL0     C24529   2.387   4.482   9.007  0.2134 -0.7249 -0.0315
  944MOL0     C24530   2.809   4.597   8.929 -0.2605 -0.2318 -0.6068
  944MOL0     C24531   2.911   4.563   9.019  1.1460 -0.1706 -1.3149
  944MOL0     C24532   3.044   4.579   8.989  0.3297 -0.5694 -0.4861
  944MOL0     C24533   3.085   4.652   8.877 -0.8852 -0.4580  0.1017
  944MOL0     O24534   3.219   4.668   8.854  0.2023  1.1423 -0.0974
  944MOL0     C24535   3.326   4.615   8.937  0.1642  0.4811  0.9804
  944MOL0     C24536   3.463   4.660   8.887 -1.2987  0.5325 -0.1475
  944MOL0     C24537   3.515   4.576   8.764 -0.3192  0.5227  0.1790
  944MOL0     C24538   3.650   4.625   8.715  0.0839 -0.4923 -0.1811
  944MOL0     C24539   3.751   4.654   8.822  0.1365 -0.4188  1.0368
  944MOL0     C24540   3.840   4.691   8.897  0.3629  0.3342 -0.4630
  944MOL0     C24541   2.991   4.692   8.782  0.1730  0.3061  0.2269
  944MOL0     C24542   2.852   4.654   8.806 -0.6214  0.1799 -0.7630
  944MOL0     H24543   2.403   4.646   8.710  3.6161  0.0004  1.0047
  944MOL0     H24544   2.142   4.664   8.748  0.3826  0.1052 -0.5176
  944MOL0     H24545   1.931   4.648   8.801  1.2669  0.8516  0.0439
  944MOL0     H24546   1.978   4.763   8.940 -2.1889 -0.3921  2.7663
  944MOL0     H24547   1.738   4.736   8.920  1.8711  1.5527 -0.4204
  944MOL0     H24548   1.787   4.665   9.068 -0.2095  0.6472  0.2427
  944MOL0     H24549   1.775   4.444   8.987  2.1133  0.3004 -1.4594
  944MOL0     H24550   1.751   4.483   8.817 -1.8750  1.5218 -0.7085
  944MOL0     H24551   1.563   4.590   9.028  3.6260  1.6809 -0.7050
  944MOL0     H24552   1.543   4.615   8.860 -2.3673 -2.3862 -1.7649
  944MOL0     H24553   1.496   4.355   9.006  1.2357  0.7118  0.4212
  944MOL0     H24554   1.562   4.337   8.850 -0.4300 -2.1067  1.2459
  944MOL0     H24555   1.342   4.309   8.822 -0.6725  0.0751 -0.2139
  944MOL0     H24556   1.371   4.486   8.760 -3.3242  1.8498  1.7241
  944MOL0     H24557   1.254   4.377   9.014  0.9825 -0.6538  0.0455
  944MOL0     H24558   1.304   4.540   8.993  0.5132  1.0877 -1.8972
  944MOL0     H24559   1.109   4.415   8.768 -0.2025  1.7397 -0.9947
  944MOL0     H24560   1.139   4.578   8.796 -1.5009 -2.8341 -3.6482
  944MOL0     H24561   1.052   4.640   9.074 -0.0848 -0.3416 -1.2440
  944MOL0     H24562   0.709   4.638   9.163 -1.3855 -0.7221  2.7729
  944MOL0     H24563   0.861   4.676   9.240 -2.8938  0.9334  1.6707
  944MOL0     H24564   0.859   4.442   9.358  0.4444  0.1823 -0.7905
  944MOL0     H24565   0.710   4.409   9.276  1.1703 -1.0206  1.3517
  944MOL0     H24566   0.779   4.582   9.504  2.3382 -2.5981 -0.9794
  944MOL0     H24567   0.635   4.624   9.395  1.1472  1.1495 -2.7014
  944MOL0     H24568   0.681   4.350   9.520  0.4789 -0.0911 -1.8490
  944MOL0     H24569   0.531   4.403   9.446 -0.4242  1.3310 -1.4562
  944MOL0     H24570   0.317   4.487   9.508  4.3394 -0.0736 -0.9295
  944MOL0     H24571   0.166   4.678   9.491  1.1983  3.0997 -2.2822
  944MOL0     H24572  -0.048   4.997   9.775 -1.3173  0.3651 -1.7924
  944MOL0     H24573  -0.202   5.169   9.774  0.2441 -1.5349 -0.1062
  944MOL0     H24574  -0.329   5.344   9.783  2.4673 -1.0218  1.4109
  944MOL0     H24575  -0.300   5.358   9.608  0.3865 -1.7655  1.4388
  944MOL0     H24576  -0.361   5.618   9.633 -0.6556 -0.0452 -0.5714
  944MOL0     H24577  -0.342   5.595   9.803  3.1495 -2.2513  0.0680
  944MOL0     H24578  -0.578   5.594   9.731  3.0974  0.1967  3.5742
  944MOL0     H24579  -0.541   5.425   9.780  2.3144  0.2837 -0.5510
  944MOL0     H24580  -0.589   5.532   9.503  0.8202 -0.5638 -0.3222
  944MOL0     H24581  -0.506   5.380   9.531 -1.1855 -2.0080 -0.1398
  944MOL0     H24582  -0.714   5.299   9.658  0.7995 -2.2223 -2.5703
  944MOL0     H24583  -0.744   5.351   9.494  0.9085  0.6766 -0.8261
  944MOL0     H24584  -0.875   5.540   9.574  0.0534  0.3657  0.6118
  944MOL0     H24585  -0.830   5.511   9.747 -0.6321 -2.8119  1.4460
  944MOL0     H24586  -0.962   5.308   9.578 -0.0865 -0.1628 -0.1186
  944MOL0     H24587  -0.938   5.298   9.750  0.0885 -0.8587 -0.2272
  944MOL0     H24588  -1.169   5.370   9.680 -1.1524  1.0258 -1.5216
  944MOL0     H24589  -1.098   5.497   9.580  0.3910 -3.3039 -2.2758
  944MOL0     H24590   0.117   5.459   9.708  0.3990 -0.0825  1.4984
  944MOL0     H24591   0.276   5.290   9.721  0.1573 -1.6742  0.0190
  944MOL0     H24592   0.436   4.910   9.742  1.6032  1.5235 -3.1047
  944MOL0     H24593   0.597   4.711   9.725  0.7489  0.3859 -0.9400
  944MOL0     H24594   2.205   4.467   9.120 -0.3346 -2.1732 -1.9650
  944MOL0     H24595   2.451   4.424   9.072  1.5956 -0.8935 -1.4797
  944MOL0     H24596   2.895   4.521   9.118  1.3067  4.6607  1.0781
  944MOL0     H24597   3.107   4.561   9.075 -2.4124  0.0916  1.8311
  944MOL0     H24598   3.320   4.506   8.945  1.3414  0.4500  1.8360
  944MOL0     H24599   3.312   4.659   9.036 -2.9277 -1.6563  1.6275
  944MOL0     H24600   3.465   4.769   8.873  0.3967  0.4800 -0.5208
  944MOL0     H24601   3.519   4.642   8.978 -1.0307  1.8303 -0.0338
  944MOL0     H24602   3.440   4.585   8.684  2.2014 -0.4966 -2.4789
  944MOL0     H24603   3.527   4.471   8.793  0.6830  1.1992  2.4403
  944MOL0     H24604   3.697   4.543   8.661  1.3501 -0.6044  1.0274
  944MOL0     H24605   3.629   4.702   8.640  0.4358 -0.4263 -0.2180
  944MOL0     H24606   3.919   4.732   8.958 -0.2112 -0.8878  1.1748
  944MOL0     H24607   3.026   4.746   8.695 -0.6530  2.5791  1.2316
  944MOL0     H24608   2.770   4.686   8.744 -3.1593 -2.0905  1.2120
  945MOL0     O24609   9.590   9.345   7.373 -0.6983  0.6379 -0.0696
  945MOL0     C24610   9.610   9.392   7.492  0.4340 -0.0465  0.3279
  945MOL0     O24611   9.710   9.348   7.581 -0.3776 -0.0151  0.4808
  945MOL0     C24612   9.804   9.250   7.542  0.2145 -0.1815 -0.4945
  945MOL0     C24613   9.765   9.112   7.531 -0.1677 -0.0518  0.7593
  945MOL0     C24614   9.854   9.008   7.492  0.3513 -0.1714 -0.5287
  945MOL0     C24615   9.987   9.041   7.468 -0.5915  0.1434 -0.1300
  945MOL0     O24616  10.077   8.948   7.424  0.4925  0.9671  0.4681
  945MOL0     C24617  10.048   8.832   7.334  0.0800 -0.6043 -0.8413
  945MOL0     C24618  10.177   8.746   7.333 -0.1438 -0.4354 -0.6960
  945MOL0     C24619  10.143   8.641   7.230 -0.3082  0.2627  0.0629
  945MOL0     C24620  10.245   8.531   7.251 -0.5724 -0.8566  1.3754
  945MOL0     C24621  10.269   8.438   7.135 -1.1801 -0.1351 -0.3100
  945MOL0     C24622  10.309   8.511   7.015  0.8690 -0.0415  0.0857
  945MOL0     C24623  10.356   8.405   6.909  1.0168 -0.2605  0.6891
  945MOL0     C24624  10.455   8.471   6.816 -0.2757 -0.2295 -0.2725
  945MOL0     N24625  10.416   8.586   6.734 -0.2110  0.5933 -1.0529
  945MOL0     C24626  10.305   8.577   6.650 -0.5602  0.6717 -0.0631
  945MOL0     C24627  10.295   8.709   6.603 -0.0189  1.3029 -0.3798
  945MOL0     C24628  10.203   8.772   6.504  0.5342  0.4485 -0.2876
  945MOL0     C24629  10.215   8.703   6.370  0.4514 -0.0320 -0.2249
  945MOL0     C24630  10.165   8.556   6.355 -0.1513  0.2503  0.3826
  945MOL0     C24631  10.021   8.538   6.399  0.2335 -0.0994  0.1267
  945MOL0     O24632  10.028   8.511   6.544 -0.9192  0.1540  0.8493
  945MOL0     C24633   9.920   8.460   6.606  0.3264 -0.3145  0.7718
  945MOL0     C24634   9.809   8.405   6.541  0.3058  0.6038 -0.4808
  945MOL0     C24635   9.710   8.332   6.619  0.8889  0.5131 -0.7685
  945MOL0     C24636   9.711   8.332   6.764  0.1626 -1.2144  0.1632
  945MOL0     C24637   9.596   8.276   6.838  0.1776 -1.2778 -0.1837
  945MOL0     O24638   9.501   8.224   6.763 -0.2571 -0.5977 -0.4058
  945MOL0     C24639   9.401   8.134   6.797  0.2407  0.4795  0.0707
  945MOL0     C24640   9.410   8.043   6.900 -0.5161 -0.5207  0.1162
  945MOL0     C24641   9.317   7.942   6.931 -0.4779 -0.0320  0.6582
  945MOL0     C24642   9.211   7.929   6.841  0.5865  0.6870  0.6430
  945MOL0     O24643   9.120   7.828   6.872  0.5034  0.0887  0.3533
  945MOL0     C24644   9.006   7.809   6.788  0.8171  1.2668 -0.3089
  945MOL0     C24645   8.917   7.698   6.838 -0.5288  0.0873  0.8170
  945MOL0     C24646   8.791   7.693   6.749 -0.8384 -0.1030 -0.4064
  945MOL0     C24647   8.678   7.804   6.757 -0.6931 -0.7980  0.4792
  945MOL0     C24648   8.542   7.764   6.692 -1.1493 -0.7083  0.1365
  945MOL0     C24649   8.423   7.862   6.722  0.0643  0.3668  0.8086
  945MOL0     C24650   8.301   7.778   6.699  0.5196  0.2189  0.0150
  945MOL0     C24651   8.190   7.871   6.637  0.2373 -0.0755  0.0141
  945MOL0    Cl24652   8.153   8.014   6.744 -0.9659  0.0023  0.5092
  945MOL0     C24653   9.207   8.009   6.727 -0.4320 -0.6321 -0.3730
  945MOL0     C24654   9.294   8.113   6.703  0.0662 -1.0489 -0.6727
  945MOL0     O24655   9.597   8.287   6.965  0.1058  0.1758  0.0570
  945MOL0     C24656   9.824   8.388   6.825  0.0277 -0.1521  0.1115
  945MOL0     C24657   9.927   8.452   6.747 -0.0843  0.5356  0.1252
  945MOL0     N24658  10.402   8.787   6.644  0.2579 -0.4438 -0.2475
  945MOL0     N24659  10.465   8.717   6.731 -0.3274  0.0918 -0.5392
  945MOL0     C24660  10.025   9.179   7.463  0.1893  0.5602  0.1870
  945MOL0     C24661   9.936   9.284   7.501 -0.0123  0.3151 -0.5903
  945MOL0     C24662   9.536   9.521   7.527  0.0582 -0.2546 -1.0246
  945MOL0     C24663   9.510   9.555   7.661  0.3643  0.7169 -0.4398
  945MOL0     C24664   9.432   9.668   7.698  0.2615 -0.3259  0.4959
  945MOL0     C24665   9.412   9.768   7.610  0.9674 -0.1845  0.0824
  945MOL0     O24666   9.346   9.885   7.649 -0.5372  0.1050  0.3322
  945MOL0     C24667   9.419  10.008   7.628 -0.0488 -0.4061  0.9683
  945MOL0     C24668   9.524  10.028   7.753 -0.4251  0.3642 -0.3247
  945MOL0     C24669   9.464  10.058   7.891 -0.1952  0.4783 -0.1610
  945MOL0     C24670   9.385  10.194   7.881 -0.2629  0.1105 -0.8523
  945MOL0     C24671   9.463  10.310   7.850 -0.5303 -0.1660 -0.9918
  945MOL0     C24672   9.523  10.410   7.824 -1.5822 -0.1706  0.2728
  945MOL0     C24673   9.433   9.734   7.474 -0.5091 -1.0144  0.2065
  945MOL0     C24674   9.493   9.611   7.432  0.2180 -0.0517  0.6540
  945MOL0     H24675   9.660   9.093   7.555 -0.7625  1.0136 -0.8602
  945MOL0     H24676   9.818   8.907   7.477  1.3164 -0.2100 -2.9374
  945MOL0     H24677  10.012   8.872   7.239 -1.2738 -0.8437 -0.4645
  945MOL0     H24678   9.961   8.775   7.369 -1.5445  2.7557  1.1345
  945MOL0     H24679  10.196   8.705   7.433  2.4133 -0.0829 -0.9806
  945MOL0     H24680  10.257   8.815   7.306 -2.3755  2.3934 -0.4689
  945MOL0     H24681  10.137   8.688   7.131 -0.1121  0.5016  0.1647
  945MOL0     H24682  10.041   8.601   7.241 -0.4090  0.7191  0.8528
  945MOL0     H24683  10.340   8.583   7.269 -1.1925  0.8796 -0.0910
  945MOL0     H24684  10.228   8.467   7.338  1.4716 -3.4352  0.0286
  945MOL0     H24685  10.180   8.382   7.104  0.4022 -1.9119 -1.9207
  945MOL0     H24686  10.343   8.363   7.163  0.2557  1.3169 -0.0857
  945MOL0     H24687  10.392   8.580   7.034  1.3641 -0.3086 -1.0409
  945MOL0     H24688  10.227   8.574   6.980  0.4305 -0.0776  1.0205
  945MOL0     H24689  10.406   8.320   6.956 -0.2955 -1.8684 -0.7030
  945MOL0     H24690  10.262   8.379   6.861 -0.3246  0.4376  2.7700
  945MOL0     H24691  10.488   8.392   6.749  0.3824 -1.9814  1.9808
  945MOL0     H24692  10.532   8.501   6.887 -0.3213 -0.1663 -0.2493
  945MOL0     H24693  10.237   8.497   6.621  2.5315 -1.6722 -1.3365
  945MOL0     H24694  10.225   8.878   6.496 -0.6525  0.5992 -2.2072
  945MOL0     H24695  10.103   8.760   6.546  0.9647 -1.4391  0.2998
  945MOL0     H24696  10.316   8.732   6.340  1.7702 -2.0123  1.9049
  945MOL0     H24697  10.150   8.751   6.296  0.6148 -1.0429 -1.0458
  945MOL0     H24698  10.161   8.525   6.250 -2.7327 -2.7500  1.2126
  945MOL0     H24699  10.236   8.490   6.405  1.2830 -0.0757 -1.8973
  945MOL0     H24700   9.986   8.455   6.337  2.1180 -0.4082 -0.5789
  945MOL0     H24701   9.952   8.621   6.378  1.8969  1.3674  0.1873
  945MOL0     H24702   9.796   8.398   6.433 -2.8925 -1.5467 -0.0812
  945MOL0     H24703   9.628   8.298   6.557  1.6239 -0.3618 -1.2721
  945MOL0     H24704   9.496   8.037   6.966 -1.0960 -1.9728  0.7938
  945MOL0     H24705   9.327   7.874   7.015  0.5191  1.6188  1.9377
  945MOL0     H24706   9.040   7.780   6.688  0.3240  0.3924 -0.2318
  945MOL0     H24707   8.941   7.896   6.774  1.0903  1.4449 -0.4746
  945MOL0     H24708   8.888   7.729   6.939 -0.7857  1.9727  0.1876
  945MOL0     H24709   8.953   7.596   6.820  0.4768  0.7328 -1.0208
  945MOL0     H24710   8.746   7.596   6.772  3.0953 -2.1482 -0.5668
  945MOL0     H24711   8.819   7.684   6.644 -2.1417  0.3061 -0.8056
  945MOL0     H24712   8.657   7.837   6.859 -3.7294 -0.6197 -0.1222
  945MOL0     H24713   8.717   7.887   6.698 -1.5265 -0.4849  0.3560
  945MOL0     H24714   8.512   7.672   6.744 -0.0089 -1.3481 -0.3041
  945MOL0     H24715   8.555   7.747   6.585 -1.5304 -1.1726  0.1605
  945MOL0     H24716   8.429   7.942   6.647  1.1056 -2.4257 -2.3674
  945MOL0     H24717   8.435   7.900   6.823  0.3521  0.5693  0.6992
  945MOL0     H24718   8.326   7.706   6.621  0.3941 -0.8854  0.9661
  945MOL0     H24719   8.273   7.731   6.793 -0.7219  1.0502  0.0861
  945MOL0     H24720   8.105   7.804   6.620  1.7960 -1.8143 -1.3804
  945MOL0     H24721   8.214   7.895   6.533 -0.9389 -1.5386 -0.6334
  945MOL0     H24722   9.131   7.996   6.650 -1.1307  0.3266  0.1354
  945MOL0     H24723   9.296   8.177   6.615  2.6609 -0.1249 -0.0403
  945MOL0     H24724   9.828   8.383   6.933 -0.1836 -4.2054  0.1087
  945MOL0     H24725  10.007   8.495   6.807 -1.9694  1.0187  2.4495
  945MOL0     H24726  10.129   9.194   7.436  0.6911 -0.5692  1.4195
  945MOL0     H24727   9.967   9.388   7.506 -1.1454  0.9584 -4.1532
  945MOL0     H24728   9.536   9.481   7.736  0.8084  0.7142 -0.5989
  945MOL0     H24729   9.430   9.679   7.806 -0.0065 -1.1441  0.5808
  945MOL0     H24730   9.362  10.100   7.612  1.9300  0.4903 -1.6755
  945MOL0     H24731   9.486  10.005   7.541  2.7263 -1.3433  2.9844
  945MOL0     H24732   9.588   9.940   7.760  0.8843  1.3487  0.4934
  945MOL0     H24733   9.592  10.112   7.735 -0.5141  1.4274  3.4592
  945MOL0     H24734   9.554  10.071   7.952 -1.0419 -1.0722  1.4922
  945MOL0     H24735   9.405   9.976   7.932 -0.0525  0.7467  0.5864
  945MOL0     H24736   9.297  10.182   7.817 -0.9636  1.1161 -0.0991
  945MOL0     H24737   9.353  10.206   7.985  1.1935 -2.6543  0.0284
  945MOL0     H24738   9.605  10.478   7.805 -3.3054  1.6814 -0.9699
  945MOL0     H24739   9.385   9.793   7.397 -3.4046 -0.4922  2.2494
  945MOL0     H24740   9.498   9.576   7.330  1.3403  1.3944  0.1756
  946MOL0     O24741   7.787   9.155   6.779  1.0132 -0.6134 -0.1766
  946MOL0     C24742   7.866   9.065   6.760 -0.8102  0.2827  0.5746
  946MOL0     O24743   7.863   8.933   6.802 -0.5587 -0.5325 -0.8852
  946MOL0     C24744   7.752   8.905   6.881 -0.1222 -0.5949 -0.8401
  946MOL0     C24745   7.663   8.806   6.841  0.5998  0.0480 -0.3561
  946MOL0     C24746   7.562   8.764   6.926 -1.2959  0.9442  0.4679
  946MOL0     C24747   7.531   8.825   7.049  0.5854  0.3332  0.2788
  946MOL0     O24748   7.449   8.774   7.139  0.1623  0.1544 -0.7084
  946MOL0     C24749   7.465   8.640   7.175  0.1348 -0.0838  0.6317
  946MOL0     C24750   7.385   8.604   7.302  0.1441 -0.9756 -0.9769
  946MOL0     C24751   7.420   8.462   7.346 -0.4278 -0.0138 -0.1932
  946MOL0     C24752   7.347   8.436   7.481  0.5310  0.4409 -0.3896
  946MOL0     C24753   7.393   8.308   7.536 -0.5018 -0.5399 -0.1759
  946MOL0     C24754   7.295   8.265   7.647 -0.1545  0.1982  0.6129
  946MOL0     C24755   7.343   8.130   7.687  0.4812  1.1025  0.1541
  946MOL0     C24756   7.270   8.072   7.817  1.0484 -0.9801 -0.0611
  946MOL0     N24757   7.125   8.032   7.824 -0.8483 -0.2313 -0.0328
  946MOL0     C24758   7.067   7.962   7.934 -0.1928 -0.4103 -0.6127
  946MOL0     C24759   6.942   7.943   7.898  0.2562  0.6103 -0.0181
  946MOL0     C24760   6.829   7.873   7.966 -0.8999  0.0033 -0.4259
  946MOL0     C24761   6.716   7.817   7.885 -0.4329 -0.4822  1.2849
  946MOL0     C24762   6.638   7.934   7.823  0.2130 -0.4595  0.0260
  946MOL0     C24763   6.496   7.891   7.786  0.4524 -0.1283 -0.8081
  946MOL0     O24764   6.449   7.977   7.688 -0.8475 -0.5879  0.1931
  946MOL0     C24765   6.494   7.978   7.556  1.7361 -0.2212 -0.1150
  946MOL0     C24766   6.597   7.891   7.505  0.2003 -0.8772 -0.4075
  946MOL0     C24767   6.638   7.898   7.375  1.3651 -0.0696  0.4360
  946MOL0     C24768   6.592   7.998   7.294  0.1379 -0.2735  0.2206
  946MOL0     C24769   6.632   8.007   7.150  0.7924  0.4626  0.6676
  946MOL0     O24770   6.677   7.901   7.081  0.1866 -0.0896  1.3444
  946MOL0     C24771   6.699   7.910   6.948 -0.2321  0.2728  1.0606
  946MOL0     C24772   6.634   7.984   6.842 -1.0258 -0.6329  0.2517
  946MOL0     C24773   6.664   7.965   6.702  0.5890 -0.5327 -0.3489
  946MOL0     C24774   6.733   7.852   6.662 -0.1667  0.5155  0.8238
  946MOL0     O24775   6.766   7.825   6.532  0.0373 -0.2194  0.1514
  946MOL0     C24776   6.768   7.929   6.436 -0.3433  0.5055 -0.4764
  946MOL0     C24777   6.812   7.867   6.299 -0.1174  0.8563 -1.8642
  946MOL0     C24778   6.959   7.826   6.292 -0.2600  0.2438  0.1885
  946MOL0     C24779   7.025   7.821   6.155 -0.5754  0.4886  0.5779
  946MOL0     C24780   7.158   7.743   6.163 -0.4999 -0.1956  0.6370
  946MOL0     C24781   7.145   7.599   6.126 -0.1022 -0.2986  0.6293
  946MOL0     C24782   7.278   7.533   6.121 -0.5409  1.0156 -0.7595
  946MOL0     C24783   7.314   7.439   6.234 -0.5593 -0.4314  0.0378
  946MOL0    Cl24784   7.310   7.525   6.375 -0.2524 -0.2987  0.5835
  946MOL0     C24785   6.791   7.768   6.760 -0.2606  0.0451  0.6048
  946MOL0     C24786   6.786   7.800   6.901 -0.3208 -0.7086 -0.1064
  946MOL0     O24787   6.627   8.117   7.105 -0.6234 -0.4892 -0.6403
  946MOL0     C24788   6.482   8.082   7.339 -0.4632 -0.2277 -0.0460
  946MOL0     C24789   6.441   8.072   7.478 -0.0002 -0.5458  0.3195
  946MOL0     N24790   6.940   7.973   7.767 -0.2449 -0.0476  1.2830
  946MOL0     N24791   7.047   8.024   7.717  0.4168  0.1949  0.2421
  946MOL0     C24792   7.611   8.931   7.089  0.6702  0.0082  0.4159
  946MOL0     C24793   7.718   8.971   7.001 -0.2042 -0.8550 -0.6609
  946MOL0     C24794   7.973   9.102   6.670  0.1324 -0.0385  0.3654
  946MOL0     C24795   8.041   9.009   6.587 -0.3707 -0.1719 -0.0048
  946MOL0     C24796   8.143   9.047   6.496 -0.5900  0.6241 -0.3416
  946MOL0     C24797   8.196   9.178   6.501 -0.2267 -0.1993 -0.4222
  946MOL0     O24798   8.322   9.215   6.448 -0.9649  0.0966  0.6091
  946MOL0     C24799   8.394   9.130   6.351 -0.5201 -0.4471 -0.5672
  946MOL0     C24800   8.354   9.151   6.208  0.1907 -0.5655  0.3165
  946MOL0     C24801   8.317   9.300   6.161  0.3809  0.6554  0.0263
  946MOL0     C24802   8.426   9.358   6.077  0.2620 -0.7056 -0.1533
  946MOL0     C24803   8.443   9.294   5.951  0.2596  0.7998 -0.0815
  946MOL0     C24804   8.462   9.250   5.836  0.7895  0.9784  0.1255
  946MOL0     C24805   8.122   9.270   6.576 -0.8765  0.4978  0.1120
  946MOL0     C24806   8.010   9.234   6.653 -0.0647 -0.1403  0.1324
  946MOL0     H24807   7.688   8.756   6.748  1.3139  0.5329 -0.4351
  946MOL0     H24808   7.507   8.674   6.899  1.1680 -0.2222 -1.1295
  946MOL0     H24809   7.572   8.624   7.194  0.1785  1.6692  2.2562
  946MOL0     H24810   7.429   8.578   7.093 -0.8252  1.6443 -0.2969
  946MOL0     H24811   7.277   8.610   7.289 -0.0686  1.1736  1.1650
  946MOL0     H24812   7.405   8.681   7.377  1.3316  1.9972 -4.0438
  946MOL0     H24813   7.527   8.443   7.355 -0.4871  0.0613  0.8749
  946MOL0     H24814   7.370   8.399   7.273  0.7918  0.1293 -1.1698
  946MOL0     H24815   7.364   8.517   7.553  3.2088  0.1918 -0.6079
  946MOL0     H24816   7.240   8.434   7.464  0.5875 -0.9031 -0.7280
  946MOL0     H24817   7.499   8.313   7.560  0.3008  0.3641 -3.4022
  946MOL0     H24818   7.382   8.242   7.449  0.8997  2.2008 -2.5660
  946MOL0     H24819   7.190   8.253   7.619  0.3664 -1.7680 -0.6978
  946MOL0     H24820   7.303   8.338   7.729  4.4743  0.0495  0.5749
  946MOL0     H24821   7.326   8.061   7.604  0.8265 -0.6075  1.4572
  946MOL0     H24822   7.450   8.131   7.707  0.0385  1.3142  3.0021
  946MOL0     H24823   7.288   8.146   7.895  0.9877 -1.1360  0.0988
  946MOL0     H24824   7.332   7.992   7.857 -3.6000 -4.0700  1.8521
  946MOL0     H24825   7.108   7.933   8.029 -2.3539 -4.3823 -0.6926
  946MOL0     H24826   6.781   7.938   8.040  0.1429 -1.1605  1.3498
  946MOL0     H24827   6.875   7.788   8.018 -3.0675 -0.3066  1.1357
  946MOL0     H24828   6.641   7.767   7.948 -2.8438  0.3343 -0.7669
  946MOL0     H24829   6.746   7.759   7.797  3.1018  2.6226  0.2138
  946MOL0     H24830   6.619   8.011   7.899  2.9794  0.0941  0.2720
  946MOL0     H24831   6.686   7.983   7.738 -1.0080 -0.1796 -0.5318
  946MOL0     H24832   6.435   7.913   7.874  0.6098  0.2228 -0.7843
  946MOL0     H24833   6.476   7.787   7.760 -0.7469 -1.0746  3.2212
  946MOL0     H24834   6.635   7.812   7.568 -2.0883  0.9898  3.7552
  946MOL0     H24835   6.680   7.808   7.329 -0.1777 -0.0547 -1.1204
  946MOL0     H24836   6.568   8.068   6.862 -1.0265 -0.7571  0.8033
  946MOL0     H24837   6.626   8.043   6.638 -1.9054 -1.6750 -0.3596
  946MOL0     H24838   6.839   8.001   6.479  1.6049 -2.6165  1.9602
  946MOL0     H24839   6.674   7.983   6.422  1.2555  3.5727 -0.3415
  946MOL0     H24840   6.809   7.942   6.220  0.4474  0.8728 -1.8737
  946MOL0     H24841   6.741   7.789   6.269  1.6489 -1.3587 -0.6396
  946MOL0     H24842   6.973   7.726   6.335  0.6405  0.6839  0.9420
  946MOL0     H24843   7.019   7.895   6.352 -1.8830  1.3728  0.5743
  946MOL0     H24844   6.952   7.775   6.088 -1.9848  0.9542  1.7294
  946MOL0     H24845   7.040   7.918   6.108  1.8856  0.0833  0.3888
  946MOL0     H24846   7.196   7.738   6.266  0.8104 -0.4190  0.1611
  946MOL0     H24847   7.236   7.788   6.101 -1.0423 -1.8079 -1.3164
  946MOL0     H24848   7.094   7.586   6.030  1.7238 -2.9908 -0.0874
  946MOL0     H24849   7.085   7.546   6.201  2.0299 -2.6663  0.7968
  946MOL0     H24850   7.280   7.467   6.034 -1.0227 -1.2112  0.8097
  946MOL0     H24851   7.353   7.612   6.114 -0.3404  1.0958  1.5919
  946MOL0     H24852   7.417   7.408   6.214 -0.4806 -2.1984  2.6995
  946MOL0     H24853   7.257   7.346   6.239 -1.6699  0.2700  1.1530
  946MOL0     H24854   6.836   7.674   6.727 -0.9923 -1.8980  4.5062
  946MOL0     H24855   6.831   7.737   6.977  2.1165 -0.9714 -1.6383
  946MOL0     H24856   6.434   8.148   7.268  0.7668  1.6398  0.7715
  946MOL0     H24857   6.364   8.133   7.522 -0.3399 -1.5088  1.1040
  946MOL0     H24858   7.598   8.975   7.187 -2.4209  0.0649  0.1069
  946MOL0     H24859   7.775   9.063   7.011  0.5038 -1.0286 -2.5978
  946MOL0     H24860   8.027   8.903   6.603  0.1036 -0.1510  0.5614
  946MOL0     H24861   8.183   8.958   6.449  0.1945  0.0745  1.2701
  946MOL0     H24862   8.372   9.026   6.373 -2.9365  0.0659 -0.3040
  946MOL0     H24863   8.501   9.150   6.364 -0.4689 -0.8476 -0.3655
  946MOL0     H24864   8.432   9.111   6.143  0.1814  1.2024 -0.8431
  946MOL0     H24865   8.262   9.094   6.188 -1.4482  2.7958 -2.8746
  946MOL0     H24866   8.304   9.376   6.239  0.8930  0.1347  0.6277
  946MOL0     H24867   8.221   9.302   6.108  1.2358 -1.9170 -1.8302
  946MOL0     H24868   8.414   9.466   6.070 -1.6423 -0.7719  1.1959
  946MOL0     H24869   8.523   9.362   6.128 -0.3011 -0.4354  0.9340
  946MOL0     H24870   8.475   9.209   5.738  0.8295 -0.3507  0.6540
  946MOL0     H24871   8.159   9.372   6.584 -0.8896  0.5313 -0.2480
  946MOL0     H24872   7.967   9.310   6.717  1.0449 -0.5783  1.4546
  947MOL0     O24873   0.885   2.438   9.886 -0.1289 -0.3587 -0.1171
  947MOL0     C24874   0.891   2.340   9.960 -0.4114 -0.9619 -1.0377
  947MOL0     O24875   1.005   2.270  10.002  0.1481 -0.0236 -0.8284
  947MOL0     C24876   1.122   2.301   9.948 -0.2235 -0.2357  0.4494
  947MOL0     C24877   1.232   2.254  10.023 -0.1995 -0.5196  0.0369
  947MOL0     C24878   1.367   2.262   9.977 -0.2796  0.2346  0.1810
  947MOL0     C24879   1.395   2.314   9.847 -0.3553 -1.1558 -0.5747
  947MOL0     O24880   1.524   2.307   9.811 -0.0611 -0.1609  0.9711
  947MOL0     C24881   1.557   2.335   9.674 -0.1939 -0.0046 -1.2783
  947MOL0     C24882   1.706   2.315   9.665 -0.3433 -0.0195  1.6330
  947MOL0     C24883   1.757   2.171   9.684  0.2849 -0.1781  0.1854
  947MOL0     C24884   1.906   2.168   9.701  0.8188  0.2462  0.1974
  947MOL0     C24885   1.963   2.022   9.695  0.3716 -0.0324 -0.8472
  947MOL0     C24886   2.109   2.021   9.731  0.6165 -0.4836 -0.2265
  947MOL0     C24887   2.173   1.884   9.736 -0.4272  0.2163  0.9223
  947MOL0     C24888   2.324   1.900   9.728  0.6013 -0.2543  0.1775
  947MOL0     N24889   2.383   1.799   9.811 -0.3887 -0.1174 -0.1841
  947MOL0     C24890   2.372   1.664   9.781  0.4192 -0.3734  1.2805
  947MOL0     C24891   2.473   1.600   9.855 -0.2900  0.4823 -0.4129
  947MOL0     C24892   2.530   1.468   9.839 -0.1900  0.1517  0.6296
  947MOL0     C24893   2.687   1.450   9.880  0.2720  0.9246 -0.2002
  947MOL0     C24894   2.745   1.312   9.828  0.5350 -0.3593 -0.7473
  947MOL0     C24895   2.897   1.296   9.877  0.5911  0.3988  0.0619
  947MOL0     O24896   2.984   1.351   9.778 -0.3135  0.3640  0.3125
  947MOL0     C24897   3.114   1.399   9.819  0.2039 -0.1950  0.3805
  947MOL0     C24898   3.191   1.450   9.716 -0.2148  0.0737  0.1463
  947MOL0     C24899   3.323   1.477   9.726 -0.3785 -0.3134  0.7325
  947MOL0     C24900   3.391   1.468   9.846  0.1188  0.8476  0.5964
  947MOL0     C24901   3.543   1.475   9.838 -0.1145  0.2973  0.0129
  947MOL0     O24902   3.609   1.476   9.962 -0.3927 -0.0025 -0.2112
  947MOL0     C24903   3.748   1.483   9.964 -0.8359 -0.7489 -0.4718
  947MOL0     C24904   3.828   1.574   9.893 -0.2577 -0.1972 -0.3800
  947MOL0     C24905   3.965   1.572   9.895 -0.2630 -0.2574 -0.1212
  947MOL0     C24906   4.027   1.478   9.981  1.1074 -0.0468  0.1878
  947MOL0     O24907   4.161   1.450   9.986 -0.0198 -0.0207 -0.5505
  947MOL0     C24908   4.253   1.541   9.923 -0.5397  0.0179 -0.0448
  947MOL0     C24909   4.398   1.509   9.977  0.6065 -0.4864 -0.1627
  947MOL0     C24910   4.430   1.360   9.939 -0.2157 -0.5508  0.3291
  947MOL0     C24911   4.553   1.307  10.001 -0.1274 -0.6341  0.7929
  947MOL0     C24912   4.604   1.182   9.934 -0.2714 -1.2171  0.4255
  947MOL0     C24913   4.746   1.148   9.974 -0.3418  0.8725  0.6201
  947MOL0     C24914   4.865   1.183   9.883  0.5174  0.2906 -0.3400
  947MOL0     C24915   4.872   1.342   9.853  0.5868 -0.2685  0.5500
  947MOL0    Cl24916   5.041   1.385   9.801 -0.2169 -0.1567  0.0717
  947MOL0     C24917   3.946   1.391  10.063  0.6167 -0.2971 -0.1181
  947MOL0     C24918   3.809   1.398  10.055 -0.4164 -0.4889 -0.2581
  947MOL0     O24919   3.600   1.478   9.731  0.4465  0.2962  0.3800
  947MOL0     C24920   3.313   1.420   9.952  0.8989  0.7422 -0.8242
  947MOL0     C24921   3.178   1.380   9.940  0.0682  0.0832  0.2032
  947MOL0     N24922   2.540   1.704   9.928 -0.2212  0.0001  0.1907
  947MOL0     N24923   2.490   1.820   9.896  0.4625  0.4232 -0.1372
  947MOL0     C24924   1.284   2.363   9.772 -0.3650  0.4284 -0.2410
  947MOL0     C24925   1.151   2.367   9.824  0.1861  1.1458  0.4759
  947MOL0     C24926   0.770   2.278  10.010 -0.0858  0.2763 -0.8460
  947MOL0     C24927   0.640   2.316   9.958 -0.9232  0.8915 -0.7839
  947MOL0     C24928   0.518   2.262  10.001 -0.3231  0.2624 -0.0345
  947MOL0     C24929   0.520   2.175  10.113 -1.1282  0.3421  0.1553
  947MOL0     O24930   0.403   2.122  10.153 -0.6858 -0.2963 -0.6597
  947MOL0     C24931   0.406   2.042  10.277  0.0703 -0.9043 -0.3926
  947MOL0     C24932   0.254   2.010  10.321 -0.8818  0.5815 -0.5172
  947MOL0     C24933   0.254   1.937  10.466 -0.4263 -0.1653 -0.7017
  947MOL0     C24934   0.305   2.022  10.585  0.3027  0.1024  1.0125
  947MOL0     C24935   0.287   1.959  10.712  0.6616  0.0243  0.5644
  947MOL0     C24936   0.274   1.905  10.824 -0.5119 -0.5770 -0.1063
  947MOL0     C24937   0.648   2.134  10.158  0.4900  0.4746 -0.3653
  947MOL0     C24938   0.769   2.183  10.116 -0.2317 -0.9891  0.7633
  947MOL0     H24939   1.217   2.213  10.123  1.0492  0.9526  0.8866
  947MOL0     H24940   1.450   2.222  10.035 -0.1263  0.6582  0.2628
  947MOL0     H24941   1.534   2.438   9.645  0.3394  0.0993 -1.3591
  947MOL0     H24942   1.499   2.269   9.609 -0.0351  1.4853 -3.0318
  947MOL0     H24943   1.761   2.369   9.743  0.6975  0.2009  0.7729
  947MOL0     H24944   1.746   2.356   9.572 -1.6541  0.4962  1.2850
  947MOL0     H24945   1.726   2.116   9.595 -0.1473 -1.6726  1.2345
  947MOL0     H24946   1.714   2.124   9.773 -1.9036  2.3020  0.5559
  947MOL0     H24947   1.956   2.227   9.623 -0.7461  0.0237 -1.0241
  947MOL0     H24948   1.929   2.212   9.799  0.8944  0.5615  0.0387
  947MOL0     H24949   1.955   1.978   9.596 -2.2237 -2.8586  0.4602
  947MOL0     H24950   1.917   1.961   9.774  1.7140 -2.3354 -1.7271
  947MOL0     H24951   2.123   2.079   9.823 -1.2933  1.0344 -0.8203
  947MOL0     H24952   2.163   2.072   9.651  0.1294 -1.3733 -1.1420
  947MOL0     H24953   2.149   1.821   9.823  0.0431  0.2171  1.0560
  947MOL0     H24954   2.133   1.837   9.646  2.1150 -0.4440  0.0730
  947MOL0     H24955   2.343   1.997   9.776  1.4015 -1.9812  3.6488
  947MOL0     H24956   2.339   1.888   9.621 -2.8451 -2.5122 -0.2301
  947MOL0     H24957   2.310   1.623   9.702  0.4596 -1.7300  1.9164
  947MOL0     H24958   2.513   1.427   9.738  2.5248 -3.4912  1.4194
  947MOL0     H24959   2.454   1.411   9.894 -0.6601  0.5579  0.4167
  947MOL0     H24960   2.688   1.454   9.989  0.7979 -2.5558  0.0456
  947MOL0     H24961   2.735   1.541   9.843  2.0665  0.4899  0.9326
  947MOL0     H24962   2.692   1.234   9.882  4.3908 -3.8609 -1.4569
  947MOL0     H24963   2.731   1.292   9.721  0.0707  0.9846 -0.9609
  947MOL0     H24964   2.913   1.188   9.871 -2.6396 -0.3403  2.1264
  947MOL0     H24965   2.916   1.330   9.979  0.3965  0.0516  0.2139
  947MOL0     H24966   3.140   1.470   9.623  2.1075 -1.0944 -1.4629
  947MOL0     H24967   3.381   1.516   9.642  0.1910 -1.1197  0.7411
  947MOL0     H24968   3.784   1.657   9.840 -3.3206 -2.8631 -2.4266
  947MOL0     H24969   4.027   1.637   9.835  1.0759 -2.6559 -1.5293
  947MOL0     H24970   4.221   1.641   9.954 -1.2452 -0.0378 -0.5534
  947MOL0     H24971   4.244   1.542   9.814 -0.0078  1.5583 -0.1077
  947MOL0     H24972   4.396   1.526  10.085  2.0174 -0.0820 -0.1828
  947MOL0     H24973   4.473   1.575   9.931 -2.4680  1.5625 -2.6405
  947MOL0     H24974   4.441   1.356   9.830  0.8423  1.4156  0.3184
  947MOL0     H24975   4.341   1.301   9.960  0.1534 -0.3783  2.6100
  947MOL0     H24976   4.627   1.387   9.995 -0.0322 -0.8122 -1.9794
  947MOL0     H24977   4.536   1.274  10.104 -0.2795  1.5330  1.4959
  947MOL0     H24978   4.605   1.198   9.826  1.5496  0.4192  0.6248
  947MOL0     H24979   4.531   1.104   9.956 -1.9141 -0.2709 -1.4054
  947MOL0     H24980   4.745   1.039   9.969 -3.3532  0.8703 -1.5793
  947MOL0     H24981   4.774   1.183  10.074  0.9356  1.9753 -0.0849
  947MOL0     H24982   4.957   1.151   9.932 -0.7737 -0.5301  1.6805
  947MOL0     H24983   4.862   1.132   9.786  1.0012 -0.0261 -0.1911
  947MOL0     H24984   4.855   1.406   9.940 -1.0535  0.0193  0.0460
  947MOL0     H24985   4.801   1.362   9.772  1.8132 -0.8982 -0.7267
  947MOL0     H24986   3.996   1.333  10.140 -0.6947 -1.2897  0.0098
  947MOL0     H24987   3.744   1.347  10.124  0.1286  1.3971  1.7714
  947MOL0     H24988   3.368   1.399  10.044  0.0887 -0.2375 -0.5499
  947MOL0     H24989   3.122   1.329  10.018 -1.2858  1.1385 -0.0378
  947MOL0     H24990   1.308   2.399   9.672 -1.5356 -0.9183 -1.0486
  947MOL0     H24991   1.084   2.410   9.751  0.2159 -1.8557 -1.5149
  947MOL0     H24992   0.635   2.398   9.888  1.4994  0.2760 -1.8149
  947MOL0     H24993   0.426   2.303   9.961 -0.8779  1.5414  2.3969
  947MOL0     H24994   0.456   2.094  10.359 -1.6696 -0.3735  0.3841
  947MOL0     H24995   0.468   1.953  10.264  1.6699  0.3779 -2.0787
  947MOL0     H24996   0.195   2.101  10.324 -0.3331  0.9937 -1.6167
  947MOL0     H24997   0.203   1.944  10.250 -0.1655 -3.2362  2.1831
  947MOL0     H24998   0.320   1.849  10.463  0.4623  0.0393  4.5008
  947MOL0     H24999   0.152   1.902  10.484 -0.8078  0.9581 -0.5939
  947MOL0     H25000   0.413   2.028  10.573  0.3154  0.9293  1.4072
  947MOL0     H25001   0.256   2.121  10.585  1.2033  0.7116 -2.9590
  947MOL0     H25002   0.276   1.886  10.929 -2.9993  1.4629  0.4320
  947MOL0     H25003   0.656   2.062  10.239 -2.0032  0.1807 -0.3226
  947MOL0     H25004   0.857   2.152  10.171  0.1434 -0.2861  0.5681
  948MOL0     O25005   4.516   8.593   8.704 -0.2506  0.0591  1.1048
  948MOL0     C25006   4.551   8.693   8.644 -1.0794 -0.5313 -0.4960
  948MOL0     O25007   4.491   8.820   8.663  0.3019  0.0378 -0.2482
  948MOL0     C25008   4.396   8.836   8.764  0.2961 -0.9629  0.6908
  948MOL0     C25009   4.389   8.963   8.819  0.0480 -0.8416  0.3893
  948MOL0     C25010   4.291   8.992   8.917 -1.1400  0.7002 -0.2984
  948MOL0     C25011   4.206   8.886   8.954 -0.1532  0.0911 -0.5208
  948MOL0     O25012   4.110   8.914   9.058  0.2792 -0.2067  0.0095
  948MOL0     C25013   3.975   8.883   9.025  0.1550  0.1778  0.3670
  948MOL0     C25014   3.892   8.976   9.104 -0.2060 -0.6806  0.4765
  948MOL0     C25015   3.753   8.929   9.133 -0.0360 -0.8482 -0.1356
  948MOL0     C25016   3.670   9.006   9.232 -0.1946 -0.7820  0.4023
  948MOL0     C25017   3.673   9.159   9.204 -0.1000  0.2559 -0.0343
  948MOL0     C25018   3.599   9.194   9.079  0.8446  0.6442 -0.0349
  948MOL0     C25019   3.638   9.327   9.019  0.2501  0.1440 -0.3846
  948MOL0     C25020   3.620   9.328   8.875  0.5902 -0.0587  0.2324
  948MOL0     N25021   3.636   9.458   8.808  0.4107  0.2079 -0.5361
  948MOL0     C25022   3.739   9.521   8.757  0.3925 -0.2333  0.4119
  948MOL0     C25023   3.702   9.645   8.734 -0.0089  0.0269 -0.5254
  948MOL0     C25024   3.811   9.734   8.699  0.3982  0.5032  0.2741
  948MOL0     C25025   3.763   9.872   8.635 -0.8334 -0.3542  0.0529
  948MOL0     C25026   3.881   9.971   8.614 -0.0124 -0.0940  0.6794
  948MOL0     C25027   3.835  10.117   8.615  0.8879 -0.0903  0.9871
  948MOL0     O25028   3.844  10.172   8.751  0.3445  0.6341 -0.1291
  948MOL0     C25029   3.791  10.296   8.777  0.1625  0.3142  0.3483
  948MOL0     C25030   3.749  10.382   8.676 -0.4708 -0.3503 -0.6031
  948MOL0     C25031   3.677  10.495   8.716 -0.4783 -1.0808  0.4660
  948MOL0     C25032   3.663  10.536   8.849 -0.4417  0.6526  0.3000
  948MOL0     C25033   3.579  10.645   8.901 -0.2795  0.7370  0.3408
  948MOL0     O25034   3.607  10.688   9.022  0.6290  0.1990  0.2890
  948MOL0     C25035   3.514  10.764   9.085  0.5540 -0.1669 -0.2749
  948MOL0     C25036   3.375  10.732   9.089 -0.0479  0.0989 -0.1573
  948MOL0     C25037   3.289  10.809   9.166 -0.0785 -0.0952  0.6020
  948MOL0     C25038   3.334  10.905   9.256 -0.4286 -0.3774 -0.5827
  948MOL0     O25039   3.243  10.977   9.330 -0.5873 -0.0887  0.6419
  948MOL0     C25040   3.239  11.120   9.315 -0.3169  0.0154 -0.1656
  948MOL0     C25041   3.122  11.180   9.395  0.2187 -0.2698 -0.8811
  948MOL0     C25042   3.100  11.328   9.359  0.1299 -0.4064 -0.0612
  948MOL0     C25043   2.974  11.389   9.424  0.2714  0.2998 -0.0228
  948MOL0     C25044   2.979  11.542   9.394 -0.4521  0.0237  0.0005
  948MOL0     C25045   2.842  11.615   9.417 -0.8264  0.6384 -0.7000
  948MOL0     C25046   2.787  11.601   9.560  0.2427  0.0204 -1.0426
  948MOL0     C25047   2.669  11.695   9.575 -1.1794  0.8365  0.1749
  948MOL0    Cl25048   2.615  11.696   9.751 -0.1967 -0.0034 -0.0979
  948MOL0     C25049   3.475  10.920   9.267 -0.8879 -0.1501  0.0261
  948MOL0     C25050   3.563  10.849   9.191 -0.0156  0.0373  0.2776
  948MOL0     O25051   3.487  10.678   8.825 -0.4986  0.9224 -0.0673
  948MOL0     C25052   3.728  10.453   8.951  1.2807  0.5324  0.0767
  948MOL0     C25053   3.775  10.325   8.915 -0.8482  0.1481 -0.5104
  948MOL0     N25054   3.572   9.665   8.770  0.7391 -0.2392 -0.7450
  948MOL0     N25055   3.532   9.549   8.813  0.0020  0.1750  0.5793
  948MOL0     C25056   4.208   8.764   8.900 -0.0796  0.4008  0.9112
  948MOL0     C25057   4.300   8.737   8.800 -0.0055 -0.3688 -0.1805
  948MOL0     C25058   4.640   8.684   8.527 -0.0898 -0.2248 -0.2591
  948MOL0     C25059   4.685   8.567   8.469 -0.2798 -0.5973  0.2417
  948MOL0     C25060   4.768   8.567   8.358 -0.1189  0.2010 -0.2895
  948MOL0     C25061   4.803   8.681   8.294 -0.4372 -0.0121  0.5990
  948MOL0     O25062   4.888   8.659   8.188  0.1997  0.5589  0.5094
  948MOL0     C25063   4.915   8.770   8.106  0.0035 -0.1139 -0.0900
  948MOL0     C25064   4.940   8.717   7.966  0.4849  2.0668 -0.1668
  948MOL0     C25065   4.989   8.824   7.871 -0.2138 -0.8027 -0.0170
  948MOL0     C25066   5.020   8.763   7.732  0.5951 -0.2484 -0.4711
  948MOL0     C25067   5.107   8.856   7.671 -0.3826 -0.1542 -0.1894
  948MOL0     C25068   5.183   8.935   7.629  0.2693  0.8306  0.5080
  948MOL0     C25069   4.761   8.804   8.350 -0.4317  0.6730  0.2647
  948MOL0     C25070   4.694   8.802   8.464  0.2833 -0.6707 -0.0448
  948MOL0     H25071   4.450   9.041   8.775  0.7032 -1.9462 -0.7103
  948MOL0     H25072   4.291   9.084   8.974 -1.0467  2.7871 -3.4333
  948MOL0     H25073   3.972   8.776   9.047  1.6651  0.0518  0.1101
  948MOL0     H25074   3.956   8.897   8.918  3.7842  1.3099 -0.2730
  948MOL0     H25075   3.882   9.062   9.037  0.4281 -0.6115  0.4609
  948MOL0     H25076   3.949   8.999   9.195 -0.3545 -3.3227  1.3217
  948MOL0     H25077   3.765   8.824   9.161  1.1353 -0.5551  0.5143
  948MOL0     H25078   3.697   8.931   9.039 -0.0641 -0.3994 -0.1128
  948MOL0     H25079   3.569   8.965   9.223 -2.5786  4.2809  0.8728
  948MOL0     H25080   3.713   8.983   9.330  0.2489 -0.8324  0.1962
  948MOL0     H25081   3.777   9.192   9.205 -0.0812  0.1856  0.4178
  948MOL0     H25082   3.628   9.210   9.290  0.3259 -2.5992  1.9906
  948MOL0     H25083   3.492   9.206   9.096  0.3796  4.3737 -3.9381
  948MOL0     H25084   3.607   9.110   9.010 -1.6599  0.9176 -0.7541
  948MOL0     H25085   3.579   9.402   9.074 -0.7721 -0.7133 -0.2829
  948MOL0     H25086   3.745   9.340   9.039 -0.0155 -0.3926  1.6098
  948MOL0     H25087   3.522   9.284   8.854  1.1606 -2.2975  1.8583
  948MOL0     H25088   3.688   9.259   8.824  1.3317  1.7892 -1.4490
  948MOL0     H25089   3.839   9.484   8.737  1.0642  0.5927  1.9887
  948MOL0     H25090   3.868   9.695   8.614  0.5449 -0.5906  0.8583
  948MOL0     H25091   3.872   9.756   8.786 -0.3561  0.3833  0.8459
  948MOL0     H25092   3.702   9.924   8.709  2.0195  1.5009  1.2739
  948MOL0     H25093   3.702   9.847   8.547 -2.9954 -2.4558  2.0003
  948MOL0     H25094   3.954   9.976   8.695  1.9800 -0.2857 -1.0217
  948MOL0     H25095   3.938   9.947   8.524 -0.6151  1.2024 -0.0789
  948MOL0     H25096   3.731  10.131   8.583  1.3378  0.8531 -0.0787
  948MOL0     H25097   3.895  10.182   8.552 -1.4666  0.7595 -0.5202
  948MOL0     H25098   3.747  10.360   8.569 -0.9355 -1.8505 -0.3143
  948MOL0     H25099   3.630  10.559   8.642  1.4656  0.4585  0.4946
  948MOL0     H25100   3.338  10.651   9.027  0.9502 -0.4746 -0.0309
  948MOL0     H25101   3.184  10.789   9.154  0.5191 -2.8621 -0.8640
  948MOL0     H25102   3.235  11.136   9.207  2.7655  3.7430  0.0550
  948MOL0     H25103   3.340  11.159   9.332  1.1210 -1.9317 -3.2100
  948MOL0     H25104   3.152  11.165   9.499  0.1797 -3.6029 -1.2367
  948MOL0     H25105   3.037  11.111   9.383  0.4342 -0.9720  1.1985
  948MOL0     H25106   3.085  11.332   9.250  1.7405 -2.0040 -0.3824
  948MOL0     H25107   3.191  11.380   9.389  1.2432 -1.9147 -0.6849
  948MOL0     H25108   2.882  11.340   9.391 -0.6061  3.2516 -2.5366
  948MOL0     H25109   2.983  11.372   9.531  1.8668 -0.1326 -0.2015
  948MOL0     H25110   3.006  11.547   9.288  2.3964  1.6115  0.7106
  948MOL0     H25111   3.066  11.584   9.445 -0.2084 -0.1197 -0.2946
  948MOL0     H25112   2.764  11.595   9.342 -0.1531 -0.9693 -1.0003
  948MOL0     H25113   2.882  11.716   9.401  3.4306 -1.0522 -2.1413
  948MOL0     H25114   2.750  11.500   9.579  2.3261 -0.2896  1.9760
  948MOL0     H25115   2.862  11.621   9.637 -0.4396 -1.6675  0.1188
  948MOL0     H25116   2.584  11.660   9.515 -1.8562 -2.5240  2.7853
  948MOL0     H25117   2.689  11.795   9.535 -0.9157  0.8781  0.4141
  948MOL0     H25118   3.524  10.987   9.336 -0.7866  1.8420 -1.8850
  948MOL0     H25119   3.670  10.861   9.210 -0.3616  1.9038  1.1908
  948MOL0     H25120   3.715  10.456   9.059  3.5512 -1.6400  0.5189
  948MOL0     H25121   3.821  10.268   8.995  3.2524  0.7796 -2.1384
  948MOL0     H25122   4.151   8.675   8.928 -3.3734  0.8157 -3.4655
  948MOL0     H25123   4.281   8.647   8.743 -0.7516  0.3645 -1.1138
  948MOL0     H25124   4.646   8.469   8.493  0.5575 -0.1640  3.9959
  948MOL0     H25125   4.816   8.474   8.330 -0.7122 -0.3611  0.5284
  948MOL0     H25126   5.002   8.829   8.136  2.3157 -3.0229 -0.6392
  948MOL0     H25127   4.830   8.833   8.079 -1.3022 -3.0228 -3.5390
  948MOL0     H25128   5.026   8.651   7.983 -1.3349  0.0885  2.1574
  948MOL0     H25129   4.861   8.655   7.921  3.1707  0.2455 -2.7557
  948MOL0     H25130   5.076   8.879   7.909 -0.9972  0.9123 -0.6137
  948MOL0     H25131   4.907   8.896   7.861 -2.5727 -3.2149  0.9946
  948MOL0     H25132   5.078   8.672   7.748  0.7576  0.3346  2.7916
  948MOL0     H25133   4.934   8.743   7.666  0.9534 -1.0686 -0.7006
  948MOL0     H25134   5.267   8.990   7.590  0.5378  0.5282  0.6580
  948MOL0     H25135   4.789   8.898   8.303  0.8666 -0.6488 -1.8125
  948MOL0     H25136   4.682   8.895   8.519 -3.3862 -0.8092 -0.3545
  949MOL0     O25137  10.877   0.123   5.508  0.2670  0.2917 -0.3524
  949MOL0     C25138  10.915   0.023   5.566 -0.2752  0.7028  0.1526
  949MOL0     O25139  10.843  -0.066   5.638 -0.1910 -0.9670 -0.2315
  949MOL0     C25140  10.706  -0.057   5.642 -0.2256  0.8404 -0.1817
  949MOL0     C25141  10.641  -0.100   5.758 -0.3715 -0.1843  0.5178
  949MOL0     C25142  10.506  -0.107   5.767  0.5642 -0.3099  0.0291
  949MOL0     C25143  10.426  -0.070   5.653 -0.5609  0.3337 -0.8118
  949MOL0     O25144  10.294  -0.091   5.674  1.2032 -0.1753  0.4445
  949MOL0     C25145  10.201  -0.075   5.568  1.1438 -0.1016  0.8030
  949MOL0     C25146  10.129   0.053   5.560 -1.1486 -0.0135  0.2489
  949MOL0     C25147  10.144   0.130   5.691  0.0004 -0.5011 -0.4410
  949MOL0     C25148  10.085   0.278   5.684 -1.2954 -0.9316  0.2031
  949MOL0     C25149   9.947   0.311   5.624  0.0192  1.0900  0.1393
  949MOL0     C25150   9.843   0.228   5.696  0.4294  0.1156 -1.0827
  949MOL0     C25151   9.703   0.298   5.690 -0.7342 -0.2527  0.2992
  949MOL0     C25152   9.594   0.212   5.744  0.3171  0.4761 -0.4734
  949MOL0     N25153   9.565   0.098   5.660  0.7766  0.1184 -1.1410
  949MOL0     C25154   9.464   0.098   5.564 -0.1217  0.6289 -0.4951
  949MOL0     C25155   9.464  -0.035   5.517  0.5774  1.0045 -0.0729
  949MOL0     C25156   9.363  -0.079   5.412 -0.2089 -0.8659  0.4370
  949MOL0     C25157   9.238  -0.144   5.473  0.3439  0.1189 -0.1547
  949MOL0     C25158   9.143  -0.039   5.532 -0.1696 -0.4987 -0.4934
  949MOL0     C25159   9.023  -0.100   5.588  0.5088  0.4219  0.2025
  949MOL0     O25160   8.985  -0.020   5.703  0.3450  0.1057 -0.2671
  949MOL0     C25161   8.854  -0.061   5.754 -1.2664  0.1392  0.1019
  949MOL0     C25162   8.804   0.005   5.869 -0.3161 -0.8507  0.4984
  949MOL0     C25163   8.698  -0.046   5.935 -0.3194 -0.0355  0.0137
  949MOL0     C25164   8.613  -0.140   5.879  0.3979  0.1061  0.4527
  949MOL0     C25165   8.476  -0.169   5.934 -0.1143 -0.5493  0.0052
  949MOL0     O25166   8.433  -0.074   6.021 -0.0536  0.7800  0.7748
  949MOL0     C25167   8.296  -0.088   6.068 -0.5871  0.9279  0.0739
  949MOL0     C25168   8.264  -0.200   6.150  0.1032  0.0305  0.4357
  949MOL0     C25169   8.145  -0.210   6.223  0.1200 -0.1043 -0.3101
  949MOL0     C25170   8.042  -0.121   6.185 -0.3001  0.1432 -0.0440
  949MOL0     O25171   7.907  -0.134   6.217 -0.5708 -0.0434 -0.3973
  949MOL0     C25172   7.876  -0.183   6.348  0.0170 -0.7890 -0.1556
  949MOL0     C25173   7.723  -0.195   6.355  0.0482  0.3835  0.3581
  949MOL0     C25174   7.669  -0.282   6.471  0.2418  0.2174 -0.1108
  949MOL0     C25175   7.529  -0.344   6.441 -0.2201 -0.2455  0.5107
  949MOL0     C25176   7.513  -0.479   6.513 -0.1210 -0.4386 -0.9681
  949MOL0     C25177   7.374  -0.526   6.506 -0.3791 -0.4836  0.2039
  949MOL0     C25178   7.349  -0.576   6.365  0.5972 -0.0448 -0.3584
  949MOL0     C25179   7.239  -0.674   6.355 -0.7096 -0.0063 -0.0726
  949MOL0    Cl25180   7.171  -0.714   6.191 -0.3648  0.0165  0.7171
  949MOL0     C25181   8.070  -0.016   6.094 -0.9738  0.1465 -0.1625
  949MOL0     C25182   8.194   0.004   6.030  0.7402 -0.4900  0.2616
  949MOL0     O25183   8.417  -0.272   5.909  0.0638 -0.9396  0.7765
  949MOL0     C25184   8.658  -0.204   5.767  0.1554  0.8333 -1.2160
  949MOL0     C25185   8.774  -0.166   5.707  0.2866  0.1853 -0.2013
  949MOL0     N25186   9.551  -0.115   5.588  0.4973 -0.2209  0.4230
  949MOL0     N25187   9.613  -0.028   5.666  0.3917  0.5304  0.3279
  949MOL0     C25188  10.491  -0.036   5.527 -0.1253  0.1690  0.0256
  949MOL0     C25189  10.632  -0.031   5.524 -0.4040 -0.4443 -0.7494
  949MOL0     C25190  11.062  -0.006   5.553  0.5610  1.0296 -0.1902
  949MOL0     C25191  11.147   0.077   5.488 -0.3738 -0.5969 -0.6820
  949MOL0     C25192  11.285   0.037   5.476 -0.7388 -0.2859 -0.0561
  949MOL0     C25193  11.335  -0.092   5.515  0.4963 -0.6152 -0.0887
  949MOL0     O25194  11.469  -0.118   5.481  0.3243  1.6134 -0.1628
  949MOL0     C25195  11.523  -0.252   5.517  0.6880 -0.2171  0.5394
  949MOL0     C25196  11.676  -0.254   5.525 -0.0805  0.1352  0.7168
  949MOL0     C25197  11.723  -0.399   5.515  0.1962 -0.5579  0.8826
  949MOL0     C25198  11.873  -0.422   5.528 -0.1914 -0.1571 -0.0545
  949MOL0     C25199  11.915  -0.422   5.670  0.0085 -0.4887  0.0980
  949MOL0     C25200  11.948  -0.439   5.783 -0.2635  0.5380 -0.0996
  949MOL0     C25201  11.238  -0.181   5.568  0.2808  0.5684  0.9595
  949MOL0     C25202  11.107  -0.142   5.590 -0.2119 -0.2508 -0.0091
  949MOL0     H25203  10.711  -0.127   5.837 -0.2577  1.6119  1.0982
  949MOL0     H25204  10.461  -0.125   5.864  0.4023  2.7372  0.5951
  949MOL0     H25205  10.132  -0.159   5.557 -1.8887  2.5357 -2.1719
  949MOL0     H25206  10.254  -0.068   5.473 -3.7128  3.4836 -2.1203
  949MOL0     H25207  10.027   0.040   5.524 -0.8852 -0.2474 -0.4265
  949MOL0     H25208  10.176   0.117   5.485 -2.1669  2.2086  1.4054
  949MOL0     H25209  10.250   0.151   5.708 -0.5231  0.8722  1.3474
  949MOL0     H25210  10.097   0.081   5.777 -0.2702  0.7237  0.1231
  949MOL0     H25211  10.089   0.322   5.785 -2.4661  0.0149 -0.1352
  949MOL0     H25212  10.144   0.341   5.617 -1.5831  0.2066  0.9857
  949MOL0     H25213   9.940   0.292   5.516  2.5136 -2.2722  0.4278
  949MOL0     H25214   9.936   0.417   5.650 -0.2483  1.2253 -0.4919
  949MOL0     H25215   9.878   0.213   5.798 -0.5914 -1.9701 -0.9822
  949MOL0     H25216   9.838   0.131   5.645 -0.5396  0.0648 -0.9190
  949MOL0     H25217   9.707   0.389   5.750 -0.0612 -0.5615  0.7404
  949MOL0     H25218   9.683   0.321   5.585  1.7239  0.8047  0.0006
  949MOL0     H25219   9.504   0.273   5.738  1.5919  2.3334 -2.0557
  949MOL0     H25220   9.625   0.179   5.844 -4.9359 -3.3951  0.3104
  949MOL0     H25221   9.405   0.180   5.525 -2.8161 -0.6885  0.5509
  949MOL0     H25222   9.417  -0.155   5.354 -1.1226  0.2551 -2.0528
  949MOL0     H25223   9.351  -0.008   5.330  1.4994 -3.4264 -2.2806
  949MOL0     H25224   9.274  -0.210   5.553  1.1540 -0.6452 -1.1237
  949MOL0     H25225   9.189  -0.206   5.397 -0.4573  0.6120 -0.0518
  949MOL0     H25226   9.190   0.024   5.608 -0.3193 -0.2247 -0.6234
  949MOL0     H25227   9.110   0.020   5.446  1.0538 -0.9043 -1.2636
  949MOL0     H25228   9.049  -0.198   5.630  4.1132  1.3622  0.5075
  949MOL0     H25229   8.946  -0.126   5.515  0.6149 -1.3681  0.6756
  949MOL0     H25230   8.857   0.085   5.920  0.8528 -0.3233 -1.3994
  949MOL0     H25231   8.680  -0.024   6.040  0.2575 -0.1968  0.1517
  949MOL0     H25232   8.335  -0.279   6.170 -0.4657 -0.3803  0.8840
  949MOL0     H25233   8.126  -0.295   6.288  1.9966  0.3367  0.9081
  949MOL0     H25234   7.906  -0.122   6.434  0.3245 -1.1620  0.0053
  949MOL0     H25235   7.912  -0.286   6.353  1.3506 -0.3713 -0.8983
  949MOL0     H25236   7.686  -0.236   6.260  1.4675 -0.8759  0.3171
  949MOL0     H25237   7.702  -0.089   6.370  5.0927  1.4640  1.6510
  949MOL0     H25238   7.651  -0.218   6.558 -1.1875 -1.0789  0.6031
  949MOL0     H25239   7.743  -0.352   6.511  1.6368  1.9088  0.4167
  949MOL0     H25240   7.440  -0.284   6.457 -1.3786 -1.9435  0.7454
  949MOL0     H25241   7.534  -0.381   6.338  0.8926  0.1134  0.4184
  949MOL0     H25242   7.537  -0.466   6.619  2.8831  1.2882 -1.7313
  949MOL0     H25243   7.584  -0.555   6.477 -1.8565 -2.6665  0.1010
  949MOL0     H25244   7.310  -0.447   6.546 -1.9502 -2.1074  1.0620
  949MOL0     H25245   7.371  -0.608   6.578 -1.7852 -1.1126 -0.5464
  949MOL0     H25246   7.316  -0.493   6.302 -1.8130 -0.8948 -0.3421
  949MOL0     H25247   7.437  -0.624   6.322  0.9483 -0.8308  1.1771
  949MOL0     H25248   7.161  -0.639   6.423 -0.9016  0.2600 -0.4240
  949MOL0     H25249   7.276  -0.768   6.396 -0.6958 -0.7985 -1.7951
  949MOL0     H25250   7.992   0.057   6.072 -0.7592  0.4587  0.1187
  949MOL0     H25251   8.214   0.078   5.953  0.7795 -4.1033 -3.5731
  949MOL0     H25252   8.590  -0.284   5.736  0.2847 -0.0183  0.5822
  949MOL0     H25253   8.795  -0.232   5.623 -1.1799 -0.1234 -0.3562
  949MOL0     H25254  10.446  -0.016   5.430  0.3223  0.7429 -0.0722
  949MOL0     H25255  10.684  -0.008   5.431  0.6135  0.7038  0.0830
  949MOL0     H25256  11.117   0.177   5.459 -0.3426 -0.0994  0.8734
  949MOL0     H25257  11.356   0.110   5.440  1.0005 -0.2096  3.1080
  949MOL0     H25258  11.489  -0.329   5.447 -1.3365  0.3730  0.8119
  949MOL0     H25259  11.486  -0.290   5.613 -0.4930 -2.2496 -0.6471
  949MOL0     H25260  11.704  -0.215   5.426 -1.3891  1.5007  0.8375
  949MOL0     H25261  11.727  -0.193   5.601 -2.2757  1.5664  1.1575
  949MOL0     H25262  11.681  -0.418   5.416 -1.0707  0.5427  1.1865
  949MOL0     H25263  11.674  -0.466   5.586  1.8129 -1.5446  1.1243
  949MOL0     H25264  11.912  -0.507   5.472 -0.0358  0.5875 -1.1095
  949MOL0     H25265  11.934  -0.342   5.484  1.1867 -1.5017 -0.6685
  949MOL0     H25266  11.954  -0.469   5.886  0.1068  0.3518 -0.1727
  949MOL0     H25267  11.270  -0.280   5.599 -0.7694  0.0513  0.4482
  949MOL0     H25268  11.042  -0.215   5.636  3.2345 -3.6103  0.0100
  950MOL0     O25269   8.195   0.681   2.940 -0.6483 -0.3436  0.0420
  950MOL0     C25270   8.215   0.786   2.882 -0.2542  0.0943 -1.5160
  950MOL0     O25271   8.118   0.871   2.838  0.5384  0.6461 -1.2545
  950MOL0     C25272   7.990   0.824   2.844 -0.7398 -0.3903  0.8103
  950MOL0     C25273   7.928   0.782   2.734 -0.3868  0.1482  0.8455
  950MOL0     C25274   7.791   0.744   2.745 -0.1550 -1.1574 -0.2161
  950MOL0     C25275   7.719   0.756   2.862 -0.3270 -0.1261  0.8141
  950MOL0     O25276   7.590   0.708   2.864 -0.1406  0.2729 -0.5533
  950MOL0     C25277   7.548   0.593   2.786  0.6918 -0.3686  0.3495
  950MOL0     C25278   7.404   0.543   2.826 -0.2084 -0.0936  0.2865
  950MOL0     C25279   7.293   0.652   2.822  0.4182 -0.1177 -0.5892
  950MOL0     C25280   7.159   0.581   2.852  1.2986  0.8792 -0.5485
  950MOL0     C25281   7.091   0.658   2.971 -0.2606 -0.7902 -0.9331
  950MOL0     C25282   6.930   0.635   2.973 -0.3862 -0.8773  0.1709
  950MOL0     C25283   6.857   0.692   3.105  0.2247 -0.0427  0.1799
  950MOL0     C25284   6.844   0.846   3.115 -0.5707 -0.3340 -0.2474
  950MOL0     N25285   6.764   0.904   3.006 -0.0498 -0.1537 -0.1434
  950MOL0     C25286   6.628   0.907   3.008 -0.0557 -0.6149  0.2266
  950MOL0     C25287   6.578   0.971   2.897 -0.2913  1.0426 -0.1233
  950MOL0     C25288   6.437   1.014   2.858 -0.4637 -0.3634 -0.1124
  950MOL0     C25289   6.347   0.892   2.830 -0.0397 -0.9691  0.3649
  950MOL0     C25290   6.322   0.800   2.949 -0.3072  0.3247 -0.3121
  950MOL0     C25291   6.319   0.650   2.904  0.6697  0.6830  0.9108
  950MOL0     O25292   6.288   0.557   3.012 -0.1403  0.1580  0.3377
  950MOL0     C25293   6.165   0.502   2.997 -0.0717 -0.3065  0.2834
  950MOL0     C25294   6.039   0.566   2.988  0.2419 -0.1037 -0.5847
  950MOL0     C25295   5.921   0.491   2.982 -1.1050  0.2840  0.2714
  950MOL0     C25296   5.933   0.351   2.993 -0.3081 -1.2468 -0.4471
  950MOL0     C25297   5.808   0.279   2.971 -0.6591 -1.4921 -0.0900
  950MOL0     O25298   5.809   0.133   2.967  0.3049  0.4677 -0.6456
  950MOL0     C25299   5.685   0.069   2.991  0.2370  0.2376  0.2160
  950MOL0     C25300   5.602   0.023   2.887  0.5895  1.1233  0.2651
  950MOL0     C25301   5.481  -0.046   2.926  0.3793 -0.0910 -1.0063
  950MOL0     C25302   5.449  -0.052   3.064  0.9571 -1.0460 -0.9663
  950MOL0     O25303   5.329  -0.114   3.100 -0.7632 -0.4870 -0.1956
  950MOL0     C25304   5.296  -0.154   3.233 -0.1652 -0.1221 -0.1260
  950MOL0     C25305   5.161  -0.227   3.217  0.0958  0.5257  0.1532
  950MOL0     C25306   5.115  -0.320   3.329 -0.3423  1.0453  0.0164
  950MOL0     C25307   5.223  -0.440   3.344 -0.4195 -0.1908  0.1112
  950MOL0     C25308   5.160  -0.550   3.433  1.0766 -0.4417 -0.5054
  950MOL0     C25309   5.262  -0.657   3.479  0.1183  0.4735  0.8404
  950MOL0     C25310   5.349  -0.591   3.585 -0.5037  0.1861 -0.1201
  950MOL0     C25311   5.416  -0.681   3.689 -0.8091  0.6621  0.7986
  950MOL0    Cl25312   5.295  -0.779   3.769  0.3346  0.2442 -0.3374
  950MOL0     C25313   5.539  -0.010   3.158  0.9316  0.1895 -0.0922
  950MOL0     C25314   5.659   0.051   3.121  0.3125  0.9670 -0.2333
  950MOL0     O25315   5.702   0.347   2.971 -0.0879 -0.3451  0.6998
  950MOL0     C25316   6.057   0.288   3.022  1.4886 -0.6363 -0.3039
  950MOL0     C25317   6.170   0.365   3.015 -0.0341  0.2739  0.3989
  950MOL0     N25318   6.691   1.017   2.835 -0.2457 -0.8833 -0.1449
  950MOL0     N25319   6.804   0.982   2.905  0.5616  0.3424  0.1559
  950MOL0     C25320   7.785   0.788   2.974 -0.0446  0.6356  0.3160
  950MOL0     C25321   7.916   0.826   2.962 -0.9293  0.2579  0.0711
  950MOL0     C25322   8.350   0.819   2.861  0.0241 -0.9626  1.0699
  950MOL0     C25323   8.392   0.957   2.810  0.5474  1.0161 -0.1591
  950MOL0     C25324   8.526   0.996   2.795  0.3472  0.5429 -0.0346
  950MOL0     C25325   8.623   0.896   2.832 -0.5257 -0.0437 -1.4499
  950MOL0     O25326   8.758   0.919   2.825  0.0266 -0.0694  0.4291
  950MOL0     C25327   8.802   1.032   2.754 -0.6885  0.0391  0.5502
  950MOL0     C25328   8.943   0.999   2.723  0.8462  0.6555  0.4422
  950MOL0     C25329   8.952   0.911   2.595 -0.5909 -0.3317 -0.7993
  950MOL0     C25330   8.888   0.967   2.473  0.1543 -0.4275 -0.2025
  950MOL0     C25331   8.937   1.107   2.454 -0.6589  0.5697  0.1758
  950MOL0     C25332   8.989   1.217   2.435 -0.4636  0.0767  0.2419
  950MOL0     C25333   8.591   0.776   2.895 -0.1592 -0.1665  0.1657
  950MOL0     C25334   8.460   0.732   2.897  0.2754 -0.3260 -0.0683
  950MOL0     H25335   7.982   0.775   2.640 -0.8103  1.4040  0.4968
  950MOL0     H25336   7.738   0.732   2.650 -0.1558  1.8771 -0.7046
  950MOL0     H25337   7.619   0.517   2.821  1.3648  0.8506  1.7442
  950MOL0     H25338   7.557   0.616   2.680 -1.3869 -0.1307  0.1813
  950MOL0     H25339   7.394   0.501   2.927  1.5737 -1.7099 -0.1381
  950MOL0     H25340   7.379   0.467   2.752 -0.3005  1.0362 -0.8846
  950MOL0     H25341   7.304   0.701   2.725 -2.5636 -1.2974 -1.6547
  950MOL0     H25342   7.311   0.729   2.897  1.3700  0.0481 -0.9825
  950MOL0     H25343   7.096   0.582   2.763  1.6568 -2.2539 -0.9530
  950MOL0     H25344   7.177   0.477   2.880 -0.7373  0.9360  1.2305
  950MOL0     H25345   7.111   0.765   2.963  0.9168 -1.1012 -3.0620
  950MOL0     H25346   7.137   0.630   3.066 -1.1099 -1.0493 -0.5894
  950MOL0     H25347   6.912   0.528   2.963  1.4820 -1.1419 -0.8787
  950MOL0     H25348   6.880   0.682   2.888 -1.2660 -1.1995  0.4972
  950MOL0     H25349   6.759   0.645   3.107 -0.0270  0.2890 -1.7549
  950MOL0     H25350   6.917   0.655   3.189 -0.7002  0.9304  1.3000
  950MOL0     H25351   6.942   0.892   3.125  0.2575 -1.9243 -0.6694
  950MOL0     H25352   6.797   0.862   3.212  1.6281 -0.2458  0.8574
  950MOL0     H25353   6.582   0.851   3.088  1.3454 -4.1888 -1.2444
  950MOL0     H25354   6.436   1.061   2.759 -1.8584  1.0863  0.5322
  950MOL0     H25355   6.401   1.093   2.926 -1.2009 -0.0509 -0.8466
  950MOL0     H25356   6.407   0.844   2.752 -0.8007  0.3853 -1.1327
  950MOL0     H25357   6.254   0.923   2.781 -0.8627 -3.5147  0.1969
  950MOL0     H25358   6.391   0.821   3.031 -1.7950 -1.0265  1.3696
  950MOL0     H25359   6.230   0.826   3.002 -1.2120 -4.2140  0.7478
  950MOL0     H25360   6.415   0.626   2.857 -0.2474 -2.2612  0.3699
  950MOL0     H25361   6.248   0.640   2.821  2.0061  0.9905 -0.3174
  950MOL0     H25362   6.027   0.674   2.993  0.9735  0.0098 -1.1204
  950MOL0     H25363   5.829   0.541   2.954 -0.8361  2.4637  2.7948
  950MOL0     H25364   5.639   0.010   2.786  0.1251 -4.1817  0.4997
  950MOL0     H25365   5.410  -0.090   2.856  0.2463 -1.1020 -0.2688
  950MOL0     H25366   5.288  -0.076   3.308  2.3958 -1.9783  2.2791
  950MOL0     H25367   5.360  -0.240   3.255 -2.0350 -1.8567 -1.1034
  950MOL0     H25368   5.161  -0.283   3.123  0.1999  0.4928  0.1717
  950MOL0     H25369   5.086  -0.148   3.218  0.4469  1.0882  4.9818
  950MOL0     H25370   5.017  -0.360   3.299 -0.3852  0.3469  1.0454
  950MOL0     H25371   5.107  -0.271   3.426 -0.5269  1.6071 -0.2786
  950MOL0     H25372   5.272  -0.478   3.254 -0.5450  1.9933 -0.9355
  950MOL0     H25373   5.314  -0.409   3.396 -0.2409  1.4649 -1.0838
  950MOL0     H25374   5.091  -0.606   3.369  0.2289 -3.0254  2.4374
  950MOL0     H25375   5.117  -0.501   3.521  1.4606  0.0672 -0.5975
  950MOL0     H25376   5.328  -0.696   3.401  1.5482  0.1271  2.1721
  950MOL0     H25377   5.207  -0.744   3.517  0.3407 -0.6674 -1.2904
  950MOL0     H25378   5.428  -0.530   3.541  2.0317 -2.6835  0.1508
  950MOL0     H25379   5.284  -0.535   3.652 -1.9172 -2.7956  1.1863
  950MOL0     H25380   5.456  -0.618   3.769  0.7690 -1.5545  1.8418
  950MOL0     H25381   5.493  -0.742   3.640  0.3597  3.3242 -0.9449
  950MOL0     H25382   5.511  -0.025   3.261 -0.7421 -1.3380 -0.7311
  950MOL0     H25383   5.723   0.086   3.202 -0.0230 -0.1666  0.5494
  950MOL0     H25384   6.060   0.180   3.029 -2.0778 -0.8134  0.9379
  950MOL0     H25385   6.265   0.315   3.036  0.8808  0.7965 -2.1312
  950MOL0     H25386   7.723   0.793   3.063 -1.7827  0.1198 -0.8050
  950MOL0     H25387   7.967   0.873   3.046 -0.7308  3.9306 -1.9028
  950MOL0     H25388   8.318   1.031   2.781  3.1756  1.7914 -6.4252
  950MOL0     H25389   8.556   1.089   2.748 -0.7454  1.2376  0.5861
  950MOL0     H25390   8.807   1.116   2.824  0.5241  0.1943  0.2917
  950MOL0     H25391   8.740   1.051   2.666  0.3620 -0.4415 -0.3121
  950MOL0     H25392   8.991   1.096   2.705 -2.1926  2.2093  0.1641
  950MOL0     H25393   8.980   0.952   2.814 -0.2858 -0.2189  0.4743
  950MOL0     H25394   8.908   0.811   2.607  0.9775 -0.8391  1.5179
  950MOL0     H25395   9.058   0.896   2.571 -0.7087 -0.2943 -1.3543
  950MOL0     H25396   8.929   0.897   2.401  0.0129 -1.4540  0.6797
  950MOL0     H25397   8.779   0.956   2.473  0.1086 -0.0263 -0.6300
  950MOL0     H25398   9.034   1.310   2.408  1.8843 -1.4987 -1.6141
  950MOL0     H25399   8.674   0.714   2.926  1.4341  1.9931  0.4774
  950MOL0     H25400   8.442   0.631   2.932  1.2781 -1.2216 -1.9954
  951MOL0     O25401   5.648   4.518   4.997 -0.0881  0.4642  0.0579
  951MOL0     C25402   5.675   4.452   4.896 -0.8340 -1.3076  0.4593
  951MOL0     O25403   5.599   4.375   4.818  0.1147 -0.5179 -0.1328
  951MOL0     C25404   5.455   4.399   4.835  0.0651  0.3767 -0.2473
  951MOL0     C25405   5.401   4.518   4.798  0.5663 -0.4770 -0.5202
  951MOL0     C25406   5.268   4.550   4.835 -0.3667  0.1762  0.0820
  951MOL0     C25407   5.185   4.461   4.898  0.2540 -0.0251 -0.1721
  951MOL0     O25408   5.055   4.489   4.939 -0.5297 -0.3629  0.5427
  951MOL0     C25409   5.019   4.617   4.978  0.4182 -0.4843 -0.0857
  951MOL0     C25410   4.867   4.617   4.944 -0.7591  0.1480  0.1109
  951MOL0     C25411   4.802   4.728   5.016  0.2221  0.7223 -0.1683
  951MOL0     C25412   4.654   4.735   5.013 -0.3048 -0.3638 -0.0448
  951MOL0     C25413   4.617   4.876   5.067  1.6650  0.3991 -0.2062
  951MOL0     C25414   4.463   4.883   5.075 -0.3285  0.6243 -0.0311
  951MOL0     C25415   4.421   5.020   5.131  0.6473 -0.1206  0.5870
  951MOL0     C25416   4.266   5.034   5.143  0.4373 -0.5629  0.4907
  951MOL0     N25417   4.216   4.934   5.237 -0.0345  0.6531  0.1398
  951MOL0     C25418   4.207   4.959   5.375  0.1008 -0.0435  0.0207
  951MOL0     C25419   4.127   4.860   5.426 -0.3845 -0.5722  0.4144
  951MOL0     C25420   4.083   4.847   5.569  0.6474  0.5891 -0.8509
  951MOL0     C25421   4.206   4.830   5.663  0.0269  0.6464 -0.6179
  951MOL0     C25422   4.155   4.760   5.794 -0.2819  0.3074 -0.3442
  951MOL0     C25423   4.267   4.762   5.897  0.5178 -0.6977 -0.2592
  951MOL0     O25424   4.370   4.686   5.837 -1.1790 -0.4786  0.3515
  951MOL0     C25425   4.495   4.748   5.827  0.5077 -0.8259 -0.3588
  951MOL0     C25426   4.535   4.876   5.861 -0.5985 -1.4257  0.1742
  951MOL0     C25427   4.673   4.927   5.849  0.2139 -0.1005 -0.9709
  951MOL0     C25428   4.773   4.834   5.811  0.2034  0.4680 -0.0683
  951MOL0     C25429   4.915   4.875   5.801  0.3081  0.4993 -0.9682
  951MOL0     O25430   4.998   4.767   5.811  0.5286 -0.2732  0.5550
  951MOL0     C25431   5.133   4.789   5.806  0.2602  0.1020 -0.6239
  951MOL0     C25432   5.211   4.741   5.911  0.1029  0.7003  0.7591
  951MOL0     C25433   5.353   4.763   5.910  0.2340  0.2158 -0.0595
  951MOL0     C25434   5.414   4.820   5.802  0.0683  1.1881 -0.4727
  951MOL0     O25435   5.550   4.839   5.789  0.6441  1.2024 -0.3018
  951MOL0     C25436   5.633   4.820   5.897 -0.9970  0.9680 -0.4422
  951MOL0     C25437   5.775   4.812   5.851 -0.3263 -0.1087  0.3956
  951MOL0     C25438   5.871   4.817   5.967  0.3227  0.1373 -0.2188
  951MOL0     C25439   6.011   4.872   5.944  0.8435  0.1481 -0.2503
  951MOL0     C25440   6.078   4.808   5.823 -0.2987 -0.0576  0.3781
  951MOL0     C25441   6.228   4.835   5.822  0.5222 -0.5462 -0.0188
  951MOL0     C25442   6.283   4.786   5.694 -0.1618 -0.7734  0.2884
  951MOL0     C25443   6.427   4.836   5.666  0.8937  0.3731  0.3781
  951MOL0    Cl25444   6.475   4.791   5.499 -0.0469 -0.3312  0.4323
  951MOL0     C25445   5.334   4.853   5.683 -0.3595  1.1324 -0.4564
  951MOL0     C25446   5.195   4.847   5.685 -0.0107 -0.5238 -0.4551
  951MOL0     O25447   4.954   4.988   5.786 -0.2381  0.0487  0.4462
  951MOL0     C25448   4.732   4.698   5.785  0.8060  0.3116  0.4577
  951MOL0     C25449   4.595   4.660   5.785  0.2261  0.5300 -0.1330
  951MOL0     N25450   4.114   4.764   5.323  0.4527 -0.1294 -0.1696
  951MOL0     N25451   4.145   4.823   5.213 -0.1629  0.1668 -0.0654
  951MOL0     C25452   5.241   4.339   4.929  0.0150  0.6497  1.0987
  951MOL0     C25453   5.378   4.304   4.899  0.6915  0.4815  0.0900
  951MOL0     C25454   5.823   4.442   4.884 -0.7890  0.5462  0.8820
  951MOL0     C25455   5.916   4.504   4.970 -0.2432 -0.6466 -0.3351
  951MOL0     C25456   6.047   4.485   4.958 -1.2644  0.0701 -0.2204
  951MOL0     C25457   6.105   4.395   4.862  0.6565  0.6534  0.6441
  951MOL0     O25458   6.238   4.355   4.873  0.4992 -0.0315 -0.2153
  951MOL0     C25459   6.289   4.253   4.784  0.9014 -0.3165  0.0815
  951MOL0     C25460   6.346   4.308   4.661 -0.8991  0.2508  0.5240
  951MOL0     C25461   6.374   4.187   4.571 -0.2513 -0.2656 -0.1329
  951MOL0     C25462   6.468   4.240   4.451 -0.4171 -0.2529  0.8016
  951MOL0     C25463   6.596   4.292   4.481  0.0646  0.4676 -0.5425
  951MOL0     C25464   6.715   4.322   4.510 -0.0166 -0.7961 -0.7903
  951MOL0     C25465   6.016   4.350   4.763  0.4191 -0.1818  0.2888
  951MOL0     C25466   5.878   4.369   4.774 -0.2311  0.1542 -0.8406
  951MOL0     H25467   5.461   4.599   4.757  0.9756 -0.8696 -0.7015
  951MOL0     H25468   5.239   4.648   4.800  1.4180  0.8611  0.4138
  951MOL0     H25469   5.047   4.691   4.902 -0.0930  2.0116  1.9946
  951MOL0     H25470   5.033   4.648   5.082 -0.2028  3.5325 -1.0418
  951MOL0     H25471   4.816   4.522   4.966  0.5053 -1.1864 -2.2959
  951MOL0     H25472   4.858   4.623   4.835 -1.3557 -5.0050 -0.4199
  951MOL0     H25473   4.847   4.820   4.976  0.7817  0.9244  0.9009
  951MOL0     H25474   4.825   4.722   5.123 -0.3173  1.9594  0.0253
  951MOL0     H25475   4.624   4.717   4.909 -0.4628 -1.8149  0.2365
  951MOL0     H25476   4.607   4.657   5.074 -0.9748  0.3302  0.3444
  951MOL0     H25477   4.654   4.960   5.008 -1.3209  2.8287  1.0771
  951MOL0     H25478   4.659   4.893   5.167  4.7885  0.1640 -1.3695
  951MOL0     H25479   4.432   4.806   5.146  0.6783  3.1959  3.5317
  951MOL0     H25480   4.426   4.874   4.973  0.4537  0.9738 -0.3549
  951MOL0     H25481   4.473   5.014   5.227  1.0462 -3.3386  0.2959
  951MOL0     H25482   4.465   5.097   5.069  0.7508  0.3271  1.2063
  951MOL0     H25483   4.232   5.030   5.039  1.8063  1.4017 -0.1009
  951MOL0     H25484   4.243   5.137   5.175  1.5308  0.8437 -2.7915
  951MOL0     H25485   4.257   5.041   5.426 -0.0628  1.1871 -1.6722
  951MOL0     H25486   4.014   4.762   5.570  3.2327 -1.6552 -0.4782
  951MOL0     H25487   4.036   4.940   5.601  1.6796  0.1161  2.3781
  951MOL0     H25488   4.252   4.928   5.676  0.0131  0.3661  1.9103
  951MOL0     H25489   4.290   4.768   5.629  0.7313 -0.5375  2.8523
  951MOL0     H25490   4.079   4.822   5.842  0.2544  0.6469  0.0727
  951MOL0     H25491   4.114   4.660   5.775 -1.4846  0.5055  1.0427
  951MOL0     H25492   4.222   4.706   5.979  0.3367  2.4102  1.9391
  951MOL0     H25493   4.292   4.863   5.933  1.5787 -0.7352 -0.8534
  951MOL0     H25494   4.464   4.953   5.889  1.6036  1.6459 -2.0525
  951MOL0     H25495   4.708   5.026   5.876 -1.2966  0.5558 -1.3245
  951MOL0     H25496   5.163   4.689   5.993  2.3336 -2.4706  0.2384
  951MOL0     H25497   5.418   4.710   5.979 -0.1156 -1.7323 -1.1507
  951MOL0     H25498   5.617   4.722   5.941  0.7634 -0.0152 -1.8484
  951MOL0     H25499   5.624   4.893   5.979  1.1120  1.7349 -0.8049
  951MOL0     H25500   5.803   4.899   5.791  4.1911 -1.5551  0.0367
  951MOL0     H25501   5.787   4.725   5.785  0.8531  2.3672 -2.9310
  951MOL0     H25502   5.886   4.718   6.011  4.4727  1.3346  1.5523
  951MOL0     H25503   5.821   4.880   6.041 -1.5864 -2.2145  0.6239
  951MOL0     H25504   6.014   4.981   5.942 -2.0778  0.3085 -1.4392
  951MOL0     H25505   6.066   4.838   6.031  1.2552  1.2253 -0.0782
  951MOL0     H25506   6.030   4.845   5.732 -2.0040 -0.7551  0.9431
  951MOL0     H25507   6.063   4.700   5.814  2.2789 -0.4824  0.4164
  951MOL0     H25508   6.278   4.783   5.904  0.9174 -2.1034 -1.2058
  951MOL0     H25509   6.240   4.943   5.838  2.7092 -0.3151 -2.5207
  951MOL0     H25510   6.286   4.677   5.690 -0.9150 -0.7588 -1.4787
  951MOL0     H25511   6.222   4.830   5.615  2.3294  0.4351 -1.0778
  951MOL0     H25512   6.505   4.784   5.724  1.7118  0.4895 -0.5847
  951MOL0     H25513   6.433   4.945   5.664  0.5021  0.3945  0.4550
  951MOL0     H25514   5.386   4.891   5.596  1.6255 -0.3254  0.0317
  951MOL0     H25515   5.133   4.858   5.596  0.0387  1.1311 -0.3039
  951MOL0     H25516   4.800   4.620   5.753 -1.0573 -1.0088 -0.4281
  951MOL0     H25517   4.558   4.560   5.764  2.2412  0.1225 -2.1765
  951MOL0     H25518   5.181   4.264   4.980  1.5932  0.1489  2.3082
  951MOL0     H25519   5.420   4.205   4.914 -1.0603 -0.5188 -1.2093
  951MOL0     H25520   5.881   4.567   5.051  0.6188 -0.3769 -0.1629
  951MOL0     H25521   6.110   4.528   5.034 -0.5384  0.4790 -1.0304
  951MOL0     H25522   6.213   4.177   4.762  0.2649 -0.0217  1.1895
  951MOL0     H25523   6.366   4.206   4.847 -0.8515 -2.0310  1.0464
  951MOL0     H25524   6.279   4.385   4.622  0.2187  0.9311 -0.1166
  951MOL0     H25525   6.438   4.360   4.691 -0.9395 -0.3575  1.7847
  951MOL0     H25526   6.281   4.133   4.549 -1.6459  1.8243  0.3250
  951MOL0     H25527   6.436   4.111   4.619 -0.2987 -1.4327 -1.8157
  951MOL0     H25528   6.488   4.165   4.374 -0.0456  1.4757 -0.8562
  951MOL0     H25529   6.414   4.319   4.398  1.2228  0.8266  0.6623
  951MOL0     H25530   6.815   4.356   4.524 -0.1582 -0.7725  0.2670
  951MOL0     H25531   6.060   4.300   4.677 -0.2653  1.0458 -0.8021
  951MOL0     H25532   5.821   4.326   4.692 -0.2248  0.4003 -0.9724
  952MOL0     O25533   0.594   3.991   0.090  0.0812  0.1953  0.0786
  952MOL0     C25534   0.605   4.004  -0.029 -0.1329 -0.8658  0.3068
  952MOL0     O25535   0.711   3.974  -0.104 -0.6193  0.6078 -0.3425
  952MOL0     C25536   0.817   3.898  -0.057 -0.5278  0.3732  0.2741
  952MOL0     C25537   0.830   3.813   0.065 -0.6212  0.2621 -0.1339
  952MOL0     C25538   0.954   3.749   0.090  0.1324  0.1743  0.9104
  952MOL0     C25539   1.061   3.751   0.005  0.3848  0.5356 -1.1135
  952MOL0     O25540   1.180   3.695   0.051 -0.1144 -0.0870  0.1500
  952MOL0     C25541   1.296   3.716  -0.035  0.1525  0.8622 -0.3992
  952MOL0     C25542   1.421   3.634   0.017 -0.4308 -0.4517 -0.0612
  952MOL0     C25543   1.465   3.682   0.161 -0.4452  0.7144 -0.9622
  952MOL0     C25544   1.576   3.798   0.166  0.0067  0.1755 -0.9991
  952MOL0     C25545   1.593   3.836   0.318 -0.5600 -0.3360  0.1690
  952MOL0     C25546   1.704   3.945   0.340  0.1768 -0.1235  0.8065
  952MOL0     C25547   1.850   3.892   0.318  0.1712  0.2140  0.9061
  952MOL0     C25548   1.914   3.844   0.453  0.8683 -1.1076  0.5780
  952MOL0     N25549   1.960   3.963   0.527 -0.4882  1.2653  0.7768
  952MOL0     C25550   2.011   4.079   0.480 -0.0972  0.1225 -0.9133
  952MOL0     C25551   2.075   4.131   0.579 -0.5216 -0.0995 -0.9736
  952MOL0     C25552   2.179   4.249   0.579 -0.6809  0.6891  0.2538
  952MOL0     C25553   2.307   4.230   0.679  0.0464 -0.0423  0.2638
  952MOL0     C25554   2.426   4.132   0.635 -0.9088 -0.8849 -0.5414
  952MOL0     C25555   2.564   4.195   0.653 -0.2861 -0.2819  0.2694
  952MOL0     O25556   2.584   4.205   0.792  0.2714 -0.0210 -0.5463
  952MOL0     C25557   2.693   4.264   0.842 -0.0980  0.1723  0.2490
  952MOL0     C25558   2.805   4.297   0.767  0.1629 -0.2060 -0.1163
  952MOL0     C25559   2.919   4.353   0.819 -0.1526 -0.0296 -0.4197
  952MOL0     C25560   2.933   4.368   0.958  0.1269 -0.8214  0.2104
  952MOL0     C25561   3.055   4.417   1.013  0.3217 -0.5102  0.1497
  952MOL0     O25562   3.147   4.444   0.919  0.1159  0.2372 -0.9997
  952MOL0     C25563   3.252   4.524   0.945 -0.0967  0.3779  0.7819
  952MOL0     C25564   3.379   4.464   0.964 -0.7745  0.2688 -0.2876
  952MOL0     C25565   3.475   4.560   0.988 -0.5412 -0.1938 -0.4497
  952MOL0     C25566   3.459   4.693   1.006 -0.1494 -0.0105  0.6116
  952MOL0     O25567   3.567   4.770   1.038 -0.5095  0.2406  0.4385
  952MOL0     C25568   3.535   4.868   1.136 -0.8032 -0.1019  2.0981
  952MOL0     C25569   3.668   4.910   1.202 -0.3701  0.0861  0.2558
  952MOL0     C25570   3.643   5.035   1.287  0.1230  0.5386  0.2128
  952MOL0     C25571   3.751   5.139   1.275 -0.2224  0.1325  0.1435
  952MOL0     C25572   3.893   5.073   1.315 -0.6068  0.2637 -0.6663
  952MOL0     C25573   3.995   5.186   1.322  0.7717 -1.0532 -0.0476
  952MOL0     C25574   4.137   5.149   1.316 -1.2353 -0.1790 -0.0057
  952MOL0     C25575   4.260   5.247   1.310 -0.0746  0.0691 -0.0080
  952MOL0    Cl25576   4.234   5.329   1.154  0.1112  0.8375 -0.3627
  952MOL0     C25577   3.335   4.747   0.990  0.7537  0.2370  0.1411
  952MOL0     C25578   3.234   4.656   0.956 -0.5039  0.1835  0.4007
  952MOL0     O25579   3.071   4.420   1.133  0.3409  0.3685  0.8341
  952MOL0     C25580   2.822   4.335   1.040 -0.6206 -0.6141  0.0985
  952MOL0     C25581   2.709   4.275   0.977 -0.6219 -0.3492 -0.4753
  952MOL0     N25582   2.050   4.060   0.692  0.5338  0.0173  0.6564
  952MOL0     N25583   1.977   3.965   0.657  0.5179  0.4519  0.1816
  952MOL0     C25584   1.048   3.836  -0.106  0.3889  0.6909 -0.0223
  952MOL0     C25585   0.927   3.897  -0.142  0.8232  0.2198  0.1006
  952MOL0     C25586   0.506   4.087  -0.101 -0.4173  0.1725  0.9015
  952MOL0     C25587   0.386   4.146  -0.050 -0.6290  0.1427 -0.0678
  952MOL0     C25588   0.294   4.214  -0.129  0.2168 -0.6724 -0.2230
  952MOL0     C25589   0.296   4.214  -0.259 -1.1777 -0.4128 -0.1130
  952MOL0     O25590   0.189   4.236  -0.329 -0.1160 -0.8454 -0.1893
  952MOL0     C25591   0.191   4.233  -0.472 -0.0902 -0.8758  0.6903
  952MOL0     C25592   0.041   4.246  -0.526  0.1011 -0.1465 -0.0806
  952MOL0     C25593  -0.033   4.363  -0.469 -0.0080  0.0919  0.8296
  952MOL0     C25594  -0.172   4.365  -0.521 -0.6418  0.3208  0.9102
  952MOL0     C25595  -0.267   4.435  -0.435  0.3727  0.2308 -0.7480
  952MOL0     C25596  -0.335   4.503  -0.368  0.4400 -0.7003 -1.2379
  952MOL0     C25597   0.422   4.175  -0.317 -0.1991  0.0695  0.4323
  952MOL0     C25598   0.518   4.115  -0.238 -0.1812  0.1835 -0.3117
  952MOL0     H25599   0.753   3.805   0.141  0.3002 -0.3729  0.7729
  952MOL0     H25600   0.963   3.693   0.182  0.9850 -0.8591  0.2334
  952MOL0     H25601   1.313   3.823  -0.046  0.4311  0.6450 -2.4248
  952MOL0     H25602   1.279   3.669  -0.132 -0.0933  0.2346 -0.0580
  952MOL0     H25603   1.502   3.650  -0.055 -1.0902  0.6602 -0.5826
  952MOL0     H25604   1.396   3.528   0.029 -1.0158 -0.2151  0.9620
  952MOL0     H25605   1.503   3.590   0.206 -2.2527  0.8352  0.9566
  952MOL0     H25606   1.381   3.718   0.221  2.5907  6.5622  0.5517
  952MOL0     H25607   1.675   3.772   0.128  0.3654 -1.6752  0.9969
  952MOL0     H25608   1.536   3.877   0.102  2.2522  0.6951 -1.8433
  952MOL0     H25609   1.611   3.747   0.379  0.3559 -0.6033 -0.4563
  952MOL0     H25610   1.500   3.879   0.355 -0.8530 -1.3526  0.6573
  952MOL0     H25611   1.696   3.998   0.436 -2.0605 -0.5486  0.8974
  952MOL0     H25612   1.684   4.012   0.256 -2.1442 -2.4902 -0.6816
  952MOL0     H25613   1.845   3.802   0.257 -0.3653  0.0462  1.1875
  952MOL0     H25614   1.911   3.962   0.261  0.3489 -0.8397 -0.2395
  952MOL0     H25615   1.996   3.777   0.425  0.8515 -1.4527  1.3094
  952MOL0     H25616   1.853   3.784   0.522  0.9252  0.9661  2.5745
  952MOL0     H25617   2.029   4.118   0.380  5.1180  0.5132 -0.0944
  952MOL0     H25618   2.142   4.352   0.578 -3.4626 -0.2235 -1.8941
  952MOL0     H25619   2.223   4.244   0.479 -1.3587 -0.8425  0.0156
  952MOL0     H25620   2.275   4.209   0.781  0.0126  1.3889  0.5723
  952MOL0     H25621   2.353   4.330   0.681 -0.5946  0.3421 -1.6695
  952MOL0     H25622   2.421   4.042   0.698 -0.8269  1.1453  2.5733
  952MOL0     H25623   2.415   4.106   0.529 -0.3892 -4.1298  0.0972
  952MOL0     H25624   2.576   4.293   0.607 -3.1463 -0.0119 -0.1139
  952MOL0     H25625   2.644   4.133   0.613  0.6087  0.5364  0.7325
  952MOL0     H25626   2.811   4.289   0.659 -2.7183  4.6990 -0.9440
  952MOL0     H25627   2.989   4.391   0.744  1.0155 -3.6254 -1.3383
  952MOL0     H25628   3.397   4.358   0.949 -2.2721  0.0789 -0.9920
  952MOL0     H25629   3.580   4.532   0.997 -0.6674 -0.0883  1.8807
  952MOL0     H25630   3.476   4.840   1.225  1.7095  1.1295  4.2795
  952MOL0     H25631   3.481   4.952   1.092  0.7652 -1.7006 -3.6754
  952MOL0     H25632   3.735   4.925   1.117  3.4830 -2.5315  2.5415
  952MOL0     H25633   3.703   4.826   1.262 -0.4977  0.8968  1.5167
  952MOL0     H25634   3.617   4.998   1.387  0.4083  0.3792  0.2285
  952MOL0     H25635   3.551   5.085   1.256 -1.4899 -1.0158  2.1365
  952MOL0     H25636   3.767   5.173   1.172 -1.5283  1.3933  0.3280
  952MOL0     H25637   3.722   5.219   1.344 -2.4379  0.1682 -0.7670
  952MOL0     H25638   3.920   5.004   1.235 -2.4120  0.4110 -1.4334
  952MOL0     H25639   3.886   5.010   1.405  0.4620 -1.7528 -1.9032
  952MOL0     H25640   3.982   5.245   1.414 -0.2558  0.5017 -1.1380
  952MOL0     H25641   3.964   5.259   1.247  0.2449  1.2001  2.1958
  952MOL0     H25642   4.146   5.094   1.411  1.3357  0.0359 -0.0557
  952MOL0     H25643   4.156   5.078   1.236 -3.2030  2.1763 -2.7658
  952MOL0     H25644   4.350   5.191   1.281  0.2598 -0.2186  1.4999
  952MOL0     H25645   4.285   5.310   1.396 -2.2039 -0.0128  0.7218
  952MOL0     H25646   3.300   4.850   0.993 -0.3469  0.0331 -2.8832
  952MOL0     H25647   3.146   4.716   0.934  0.7247  1.3563 -1.6545
  952MOL0     H25648   2.822   4.337   1.148 -0.3474 -1.8140  0.1416
  952MOL0     H25649   2.622   4.249   1.035 -3.1949  2.2857 -2.8224
  952MOL0     H25650   1.127   3.845  -0.179  0.8826 -0.9840  0.2606
  952MOL0     H25651   0.919   3.952  -0.235  0.7576 -1.6973 -1.0915
  952MOL0     H25652   0.368   4.145   0.057  0.4651 -0.6944  0.1285
  952MOL0     H25653   0.201   4.254  -0.090 -0.0219 -0.6783 -0.7758
  952MOL0     H25654   0.241   4.146  -0.515  1.3416 -0.1397  0.8314
  952MOL0     H25655   0.250   4.317  -0.507  1.8225 -1.6709  1.8639
  952MOL0     H25656   0.058   4.253  -0.633 -1.2236 -0.1797 -0.3005
  952MOL0     H25657  -0.012   4.151  -0.511  0.7595 -0.7002 -1.1455
  952MOL0     H25658   0.008   4.458  -0.503  0.3119 -0.4571 -0.3590
  952MOL0     H25659  -0.030   4.352  -0.360  3.0650 -0.9417  0.7554
  952MOL0     H25660  -0.169   4.421  -0.615  1.6701  0.3761  0.9724
  952MOL0     H25661  -0.205   4.261  -0.535 -2.8854  0.8562  1.8297
  952MOL0     H25662  -0.399   4.577  -0.322 -0.3551 -2.5910  0.8604
  952MOL0     H25663   0.439   4.175  -0.424 -0.9372 -0.5976  0.3089
  952MOL0     H25664   0.613   4.088  -0.285 -0.8226 -1.7598 -0.5849
  953MOL0     O25665   9.082   7.119   6.445 -0.7127 -0.9581 -0.2880
  953MOL0     C25666   8.995   7.055   6.492 -1.1473  1.2372  0.2134
  953MOL0     O25667   8.959   7.054   6.629  0.4697  0.3061  0.4001
  953MOL0     C25668   9.051   7.096   6.727  0.1788 -1.0998  0.1568
  953MOL0     C25669   9.010   7.178   6.832 -0.4520 -0.4951 -0.5090
  953MOL0     C25670   9.097   7.217   6.931 -0.1020 -0.5175  0.2128
  953MOL0     C25671   9.233   7.200   6.923 -0.1991  0.5432 -0.0479
  953MOL0     O25672   9.323   7.251   7.020  0.1812  0.3352  0.2754
  953MOL0     C25673   9.295   7.202   7.152 -0.0168  0.8820  0.1140
  953MOL0     C25674   9.411   7.220   7.250  0.6299 -1.2242  0.0858
  953MOL0     C25675   9.540   7.146   7.202  0.3516 -0.2896 -0.0925
  953MOL0     C25676   9.642   7.156   7.315 -0.9083 -0.2645 -0.3588
  953MOL0     C25677   9.747   7.041   7.310  0.2007 -0.6237 -0.0422
  953MOL0     C25678   9.714   6.903   7.363  1.1039 -0.1271 -0.0116
  953MOL0     C25679   9.818   6.787   7.325  0.3053 -0.7750 -0.8168
  953MOL0     C25680   9.823   6.757   7.177  0.0851 -0.4061 -0.0232
  953MOL0     N25681   9.694   6.733   7.120 -0.1795  0.1232 -0.5489
  953MOL0     C25682   9.660   6.746   6.987 -0.5374  0.1475  0.7099
  953MOL0     C25683   9.566   6.647   6.972 -0.5837  0.2800  0.6612
  953MOL0     C25684   9.503   6.591   6.851 -0.0308 -0.8425 -0.5708
  953MOL0     C25685   9.575   6.459   6.841 -0.2444 -0.1722  0.1508
  953MOL0     C25686   9.715   6.468   6.792 -0.3364  0.0843 -0.4547
  953MOL0     C25687   9.777   6.332   6.795 -0.1536  0.2872  0.2679
  953MOL0     O25688   9.751   6.264   6.913 -0.2170  0.4042 -0.8786
  953MOL0     C25689   9.856   6.240   7.000  0.1308  0.3457  0.0981
  953MOL0     C25690   9.917   6.120   6.978  0.5126 -0.3026 -0.0750
  953MOL0     C25691  10.029   6.075   7.052  1.1834  1.0722 -0.9024
  953MOL0     C25692  10.087   6.166   7.137 -0.4263  0.7118 -0.9200
  953MOL0     C25693  10.218   6.130   7.207 -0.2747  0.7310 -0.1394
  953MOL0     O25694  10.273   6.202   7.293  0.0202 -0.7758  0.1554
  953MOL0     C25695  10.399   6.185   7.358 -0.1704 -0.1931 -0.2041
  953MOL0     C25696  10.401   6.220   7.494 -0.1436 -0.2587 -0.1507
  953MOL0     C25697  10.514   6.207   7.577  0.4878  0.2881 -0.5840
  953MOL0     C25698  10.634   6.172   7.525 -0.0388 -0.1494 -0.1818
  953MOL0     O25699  10.756   6.186   7.589 -0.0083 -0.6756 -0.1504
  953MOL0     C25700  10.759   6.261   7.721 -0.0502 -0.6703 -0.5170
  953MOL0     C25701  10.901   6.289   7.758  0.0211  0.2819 -0.3188
  953MOL0     C25702  10.995   6.173   7.758  0.2561 -0.1956  0.4306
  953MOL0     C25703  11.126   6.207   7.824  0.0675  0.0642  0.0056
  953MOL0     C25704  11.223   6.096   7.780 -1.0154 -0.3563  0.8293
  953MOL0     C25705  11.338   6.080   7.875  0.9211 -0.4108 -0.5607
  953MOL0     C25706  11.459   6.014   7.830 -0.5418 -0.2916  0.5504
  953MOL0     C25707  11.429   5.871   7.804 -0.2949 -0.6487 -0.2993
  953MOL0    Cl25708  11.564   5.774   7.738  0.0626 -0.3320  0.1770
  953MOL0     C25709  10.636   6.138   7.388  0.2296 -0.4652  0.7353
  953MOL0     C25710  10.524   6.151   7.301 -0.6122  1.0596 -1.5829
  953MOL0     O25711  10.264   6.021   7.172  0.1270 -0.8810  0.4470
  953MOL0     C25712  10.021   6.288   7.172  0.0604  0.3967 -0.7120
  953MOL0     C25713   9.902   6.324   7.104  0.1207 -0.2037 -0.4739
  953MOL0     N25714   9.533   6.607   7.101 -0.8976 -0.4500 -0.0337
  953MOL0     N25715   9.608   6.668   7.184  0.1260  0.4708 -0.5341
  953MOL0     C25716   9.277   7.117   6.821  0.2512 -0.4080  0.2980
  953MOL0     C25717   9.186   7.063   6.720  0.3600 -1.3166  0.1731
  953MOL0     C25718   8.933   6.968   6.396 -0.8451  0.2907  0.6762
  953MOL0     C25719   8.935   6.997   6.258  0.5730 -0.1035 -0.1241
  953MOL0     C25720   8.876   6.901   6.166 -0.4013 -0.5698 -0.0126
  953MOL0     C25721   8.825   6.779   6.206 -0.8908 -0.4967  0.7112
  953MOL0     O25722   8.780   6.682   6.121 -0.8532 -0.3473 -0.2444
  953MOL0     C25723   8.832   6.689   5.983  0.9551 -0.6018 -0.9772
  953MOL0     C25724   8.815   6.554   5.912  0.8392  0.7942  0.6821
  953MOL0     C25725   8.688   6.467   5.958 -0.0516  0.3179  1.0649
  953MOL0     C25726   8.679   6.324   5.896  0.6806 -0.8494  1.0486
  953MOL0     C25727   8.687   6.333   5.746  0.8415 -0.7591  0.7932
  953MOL0     C25728   8.695   6.343   5.630  0.1057 -0.1616 -0.3084
  953MOL0     C25729   8.812   6.759   6.344  0.3635 -0.0644  0.4612
  953MOL0     C25730   8.865   6.849   6.435 -0.9853  0.2489 -0.2385
  953MOL0     H25731   8.904   7.195   6.846 -0.5231 -1.4557  0.2173
  953MOL0     H25732   9.053   7.267   7.016  1.2994  2.1543 -0.5370
  953MOL0     H25733   9.285   7.094   7.140  1.4282  0.8781 -1.5006
  953MOL0     H25734   9.206   7.245   7.197 -1.2126 -1.6068  0.2856
  953MOL0     H25735   9.377   7.182   7.346  0.9122  0.9741  1.1130
  953MOL0     H25736   9.424   7.328   7.262 -1.8826 -0.7206 -0.9627
  953MOL0     H25737   9.584   7.180   7.107 -0.2553 -1.3223 -0.7617
  953MOL0     H25738   9.516   7.040   7.190 -0.0895 -0.1688 -0.2912
  953MOL0     H25739   9.706   7.244   7.302  0.0748 -1.4465 -6.2596
  953MOL0     H25740   9.585   7.153   7.408 -2.9939  1.3037 -1.5068
  953MOL0     H25741   9.837   7.075   7.361  0.9006 -0.6165 -1.2538
  953MOL0     H25742   9.792   7.028   7.212  2.9768 -1.3263  1.2181
  953MOL0     H25743   9.609   6.892   7.335 -0.2581  5.2822  1.6216
  953MOL0     H25744   9.706   6.907   7.472  2.3625 -0.7520  0.1179
  953MOL0     H25745   9.917   6.804   7.368  1.2137  2.7370 -3.8298
  953MOL0     H25746   9.782   6.700   7.382 -1.6104  1.3609  1.4349
  953MOL0     H25747   9.894   6.677   7.156 -0.6683 -0.5803 -2.2821
  953MOL0     H25748   9.859   6.847   7.126  0.7565 -0.1428  0.8954
  953MOL0     H25749   9.704   6.803   6.907 -0.1061  0.0549  0.8782
  953MOL0     H25750   9.517   6.657   6.765  1.3824  1.5917  1.3785
  953MOL0     H25751   9.394   6.601   6.862 -0.1666 -0.8627 -1.7806
  953MOL0     H25752   9.512   6.402   6.771 -0.2534  0.5237 -0.4146
  953MOL0     H25753   9.579   6.412   6.940 -1.6398  1.9809  1.3023
  953MOL0     H25754   9.716   6.508   6.690 -0.8614 -2.0390 -1.3448
  953MOL0     H25755   9.780   6.536   6.848  0.7901  0.9770 -2.7327
  953MOL0     H25756   9.882   6.357   6.776 -0.1987  1.8704  1.8958
  953MOL0     H25757   9.752   6.274   6.706  1.2252  0.5446 -0.3210
  953MOL0     H25758   9.882   6.047   6.906 -0.3696  2.3308 -2.5340
  953MOL0     H25759  10.078   5.981   7.029  0.7909  0.5724  0.2200
  953MOL0     H25760  10.311   6.268   7.532  0.4196  0.6597  0.0669
  953MOL0     H25761  10.516   6.243   7.680  2.2846 -0.5951 -0.2723
  953MOL0     H25762  10.697   6.201   7.788  1.1732 -2.4919 -0.9323
  953MOL0     H25763  10.712   6.357   7.701  2.2949  1.4377  2.9346
  953MOL0     H25764  10.895   6.326   7.861  2.3824  2.5049 -0.8691
  953MOL0     H25765  10.948   6.369   7.700  1.0762 -0.6515 -0.7889
  953MOL0     H25766  11.004   6.149   7.652 -0.8033  0.0728  0.2665
  953MOL0     H25767  10.931   6.096   7.803 -1.1454  0.5100 -0.3018
  953MOL0     H25768  11.154   6.312   7.807 -0.0988  0.0685 -0.2460
  953MOL0     H25769  11.106   6.192   7.930  1.0205 -0.7049  0.0853
  953MOL0     H25770  11.258   6.132   7.683 -2.4810  3.6989  1.6058
  953MOL0     H25771  11.171   6.000   7.773 -1.5384  0.0703 -2.4374
  953MOL0     H25772  11.291   6.028   7.959 -1.4722 -1.4934 -2.4346
  953MOL0     H25773  11.370   6.177   7.914 -1.8014 -0.0803  1.1704
  953MOL0     H25774  11.496   6.062   7.739  0.3248 -0.1047  0.9886
  953MOL0     H25775  11.536   6.026   7.906 -0.8958  0.9487  0.7235
  953MOL0     H25776  11.347   5.858   7.732  1.1566  0.8893 -2.3715
  953MOL0     H25777  11.408   5.836   7.905 -2.4021  0.3986 -0.3030
  953MOL0     H25778  10.726   6.112   7.333  0.1450 -0.7535  0.7300
  953MOL0     H25779  10.530   6.150   7.193 -0.8230  1.4340 -1.6019
  953MOL0     H25780  10.061   6.363   7.240  0.3452  0.9549 -1.4757
  953MOL0     H25781   9.844   6.416   7.114 -1.4548 -1.2259  0.1080
  953MOL0     H25782   9.384   7.097   6.818  0.4726  0.5957  0.8824
  953MOL0     H25783   9.223   7.001   6.639  0.4306  0.5913 -1.3342
  953MOL0     H25784   8.977   7.089   6.220 -2.3557  0.6746 -1.7380
  953MOL0     H25785   8.879   6.926   6.060 -1.2490  1.0515  0.3116
  953MOL0     H25786   8.935   6.726   5.981  0.8214  0.1586  1.6211
  953MOL0     H25787   8.779   6.767   5.927 -0.0607 -1.1507 -0.8027
  953MOL0     H25788   8.804   6.572   5.805  1.6823  3.5385  0.9770
  953MOL0     H25789   8.904   6.491   5.924  0.6706  0.3176 -0.4580
  953MOL0     H25790   8.598   6.522   5.930 -0.0415  0.3240  1.0451
  953MOL0     H25791   8.703   6.445   6.065 -1.2391  3.2413  1.9200
  953MOL0     H25792   8.756   6.258   5.936  1.3102  0.3468  1.8897
  953MOL0     H25793   8.585   6.273   5.920  1.5958 -3.2674 -0.1173
  953MOL0     H25794   8.716   6.368   5.528  0.7169 -0.5952 -0.2952
  953MOL0     H25795   8.766   6.666   6.376 -2.9452  0.3054 -2.6087
  953MOL0     H25796   8.875   6.820   6.539  0.6823  0.5116 -0.3014
  954MOL0     O25797   6.427   6.033   5.756  0.4112  0.0047  0.1231
  954MOL0     C25798   6.407   6.100   5.859  0.2009  0.4822  0.0449
  954MOL0     O25799   6.445   6.063   5.983 -0.1189  0.1366 -0.4981
  954MOL0     C25800   6.496   5.941   5.987 -0.5237 -0.1735 -0.5614
  954MOL0     C25801   6.612   5.897   5.923  0.9591 -0.4620  0.3129
  954MOL0     C25802   6.657   5.759   5.929  0.3441  0.6113 -0.2205
  954MOL0     C25803   6.602   5.674   6.029  0.2964  1.4265  0.9465
  954MOL0     O25804   6.649   5.545   6.046 -0.7503 -0.7401 -0.1814
  954MOL0     C25805   6.793   5.528   6.074 -1.1279  0.9672  0.2038
  954MOL0     C25806   6.819   5.411   6.173 -0.4932  0.8609 -0.2936
  954MOL0     C25807   6.731   5.458   6.294 -0.1414 -0.6199 -0.1906
  954MOL0     C25808   6.777   5.381   6.402 -0.3139 -0.5902  0.1747
  954MOL0     C25809   6.915   5.419   6.470  0.2990 -0.0499  0.3821
  954MOL0     C25810   6.917   5.378   6.614  0.1943  0.4438 -0.6241
  954MOL0     C25811   7.047   5.411   6.686  0.2424  0.0406  0.5474
  954MOL0     C25812   7.158   5.323   6.644  0.6175 -0.2479 -0.3538
  954MOL0     N25813   7.111   5.185   6.668  0.9775 -0.7112 -0.4119
  954MOL0     C25814   7.068   5.144   6.792 -0.2328 -0.5610 -0.1232
  954MOL0     C25815   7.063   5.013   6.784  1.0315 -0.7806 -0.5850
  954MOL0     C25816   7.052   4.908   6.890 -0.3312  1.3122 -0.8994
  954MOL0     C25817   7.171   4.812   6.893  0.1154  0.7260  0.4623
  954MOL0     C25818   7.293   4.887   6.949 -0.4985  0.0724  0.0429
  954MOL0     C25819   7.393   4.774   6.958 -0.9995 -0.5289 -0.5643
  954MOL0     O25820   7.519   4.832   6.997  0.4693 -0.9515 -0.0966
  954MOL0     C25821   7.595   4.912   6.910 -0.4517 -0.1745 -0.1308
  954MOL0     C25822   7.589   4.922   6.770 -0.2773  0.4541  0.0822
  954MOL0     C25823   7.680   5.002   6.706 -0.1567 -0.3924 -0.6506
  954MOL0     C25824   7.782   5.070   6.771 -0.3368  0.6346 -0.3759
  954MOL0     C25825   7.886   5.155   6.705 -0.7382  0.3856  0.4037
  954MOL0     O25826   7.985   5.190   6.784 -0.4370 -0.3776  0.1478
  954MOL0     C25827   8.072   5.290   6.742 -0.0852  0.1355 -0.8394
  954MOL0     C25828   8.208   5.261   6.721  0.5200  0.2028  0.5540
  954MOL0     C25829   8.304   5.367   6.702  0.0907  0.8139 -1.0429
  954MOL0     C25830   8.257   5.495   6.697 -0.4409 -0.1337 -0.2949
  954MOL0     O25831   8.351   5.596   6.680  0.3741  0.2597 -0.2234
  954MOL0     C25832   8.316   5.726   6.701 -0.6652  0.1464 -1.0215
  954MOL0     C25833   8.440   5.817   6.680 -1.2468  1.1271 -0.1252
  954MOL0     C25834   8.400   5.964   6.678 -0.4318 -0.3706  0.1427
  954MOL0     C25835   8.535   6.042   6.656  0.9097 -0.5223  0.2979
  954MOL0     C25836   8.507   6.187   6.626 -0.3947 -0.1098  0.6516
  954MOL0     C25837   8.405   6.261   6.720  0.2359 -0.6803  0.7636
  954MOL0     C25838   8.420   6.416   6.705  0.4060 -0.6373  0.1676
  954MOL0     C25839   8.567   6.474   6.728  0.0884 -0.0970  0.5293
  954MOL0    Cl25840   8.578   6.647   6.743  0.4133  0.1488 -0.3964
  954MOL0     C25841   8.124   5.520   6.713  0.3667  0.2526 -0.3334
  954MOL0     C25842   8.028   5.431   6.741 -0.0101 -0.8155  0.0798
  954MOL0     O25843   7.873   5.185   6.586 -0.0271  0.2572  0.5173
  954MOL0     C25844   7.784   5.056   6.911 -0.3255  0.0569  0.3665
  954MOL0     C25845   7.692   4.983   6.971  0.5279 -0.4761  0.5686
  954MOL0     N25846   7.083   4.977   6.654 -0.3382 -0.1871 -0.0931
  954MOL0     N25847   7.113   5.083   6.586 -0.4110  0.8721  0.1744
  954MOL0     C25848   6.492   5.722   6.106 -0.6930 -0.7880  0.2187
  954MOL0     C25849   6.441   5.855   6.087 -0.8169 -0.1595 -0.4816
  954MOL0     C25850   6.330   6.230   5.853 -0.4931 -0.2153 -0.1139
  954MOL0     C25851   6.304   6.306   5.972 -0.1920 -1.1590 -0.5374
  954MOL0     C25852   6.243   6.428   5.952 -0.1296 -0.3266 -0.0930
  954MOL0     C25853   6.198   6.477   5.831 -1.1868 -0.0383  0.0771
  954MOL0     O25854   6.127   6.593   5.801  0.8132  0.0094  0.2248
  954MOL0     C25855   6.028   6.639   5.897  1.3720  0.2577 -0.8031
  954MOL0     C25856   6.063   6.779   5.936 -0.3628 -0.2867  0.6996
  954MOL0     C25857   5.960   6.845   6.019  0.6741  0.9011  0.5056
  954MOL0     C25858   5.813   6.827   5.982  0.0992  0.2154 -0.4617
  954MOL0     C25859   5.727   6.887   6.081 -0.1188 -0.2047 -0.1359
  954MOL0     C25860   5.669   6.953   6.164 -0.6472 -0.5418 -0.3706
  954MOL0     C25861   6.237   6.405   5.722 -0.5181  0.8132  0.4851
  954MOL0     C25862   6.298   6.281   5.725 -0.0014 -0.4876  0.3575
  954MOL0     H25863   6.675   5.960   5.861  0.7504 -0.4866  0.0704
  954MOL0     H25864   6.744   5.720   5.878  0.1599  0.1139 -0.1655
  954MOL0     H25865   6.830   5.621   6.118  0.5777 -0.1317  1.2094
  954MOL0     H25866   6.855   5.507   5.986  0.9632  3.0859  1.0684
  954MOL0     H25867   6.927   5.423   6.185 -0.3880  2.1239 -2.0839
  954MOL0     H25868   6.794   5.313   6.131  5.1475 -2.1612  2.1959
  954MOL0     H25869   6.624   5.449   6.273 -1.4310  1.0986  4.3836
  954MOL0     H25870   6.737   5.565   6.315 -1.1027 -0.9211  1.8751
  954MOL0     H25871   6.715   5.385   6.492 -1.3248  1.2543 -0.5584
  954MOL0     H25872   6.771   5.276   6.371 -0.1327 -1.0892  1.7128
  954MOL0     H25873   6.932   5.526   6.463 -2.8841  0.4662 -0.8696
  954MOL0     H25874   6.993   5.364   6.415 -1.2780 -1.0262 -0.9727
  954MOL0     H25875   6.896   5.271   6.619  1.3012  0.0994 -2.4187
  954MOL0     H25876   6.843   5.442   6.665 -1.2864 -0.6070 -1.3666
  954MOL0     H25877   7.076   5.512   6.655 -0.8255  1.1644  2.9636
  954MOL0     H25878   7.040   5.423   6.794  0.5271  3.0626  0.3355
  954MOL0     H25879   7.243   5.341   6.711 -0.5763  0.8561  0.9402
  954MOL0     H25880   7.188   5.339   6.540  0.5881 -0.5133 -0.4054
  954MOL0     H25881   7.064   5.211   6.877 -3.0681  1.0324 -1.3831
  954MOL0     H25882   6.963   4.849   6.866 -1.0867  1.8668  0.4780
  954MOL0     H25883   7.037   4.954   6.988 -0.0750  1.9905 -1.1700
  954MOL0     H25884   7.203   4.782   6.793 -1.2487  0.9058 -0.0422
  954MOL0     H25885   7.164   4.727   6.962 -0.4178 -0.0801 -0.5683
  954MOL0     H25886   7.322   4.969   6.882  2.2347  0.2735  1.3457
  954MOL0     H25887   7.271   4.933   7.046  0.2703  0.1626  0.1810
  954MOL0     H25888   7.416   4.727   6.862 -0.1775 -2.4402  0.5005
  954MOL0     H25889   7.354   4.707   7.035 -1.2038  0.1597 -0.0545
  954MOL0     H25890   7.507   4.873   6.717  1.4979 -0.8728 -1.6116
  954MOL0     H25891   7.651   5.035   6.607 -1.5499  0.2218 -0.0714
  954MOL0     H25892   8.240   5.158   6.735  0.2243  0.2368  1.4914
  954MOL0     H25893   8.404   5.338   6.671  0.1117  1.0336 -1.1815
  954MOL0     H25894   8.272   5.734   6.801  0.4289 -0.1804 -0.5011
  954MOL0     H25895   8.239   5.764   6.633 -0.0926  0.9650 -1.2375
  954MOL0     H25896   8.491   5.794   6.586  1.1506 -2.8438  1.8523
  954MOL0     H25897   8.502   5.787   6.766 -2.9236 -2.7820 -0.0622
  954MOL0     H25898   8.364   5.975   6.781  0.4682 -4.7638  1.1063
  954MOL0     H25899   8.325   5.999   6.607 -0.2606  1.2592  0.7151
  954MOL0     H25900   8.585   6.024   6.751  2.0265 -0.2377 -0.2161
  954MOL0     H25901   8.584   6.003   6.566 -1.0334  0.2459 -1.1773
  954MOL0     H25902   8.487   6.188   6.518  4.6314 -1.2550 -0.5648
  954MOL0     H25903   8.606   6.234   6.629 -0.2182  0.2205 -3.7904
  954MOL0     H25904   8.416   6.226   6.823 -3.9086 -4.2887  0.2665
  954MOL0     H25905   8.304   6.231   6.690  0.7185  1.1285 -3.3487
  954MOL0     H25906   8.392   6.453   6.605 -0.2527  3.0822  1.5577
  954MOL0     H25907   8.346   6.455   6.777  2.5047  1.4362  1.3451
  954MOL0     H25908   8.633   6.443   6.647  0.8062 -1.0055  1.4327
  954MOL0     H25909   8.599   6.423   6.820 -1.0310 -1.2228  0.3323
  954MOL0     H25910   8.094   5.624   6.697  0.6206  0.7614  2.0940
  954MOL0     H25911   7.928   5.466   6.764 -0.1338  1.1896 -2.9170
  954MOL0     H25912   7.864   5.106   6.964 -0.0043  1.4930 -1.3732
  954MOL0     H25913   7.696   4.987   7.080  0.1707 -2.7458  0.7110
  954MOL0     H25914   6.463   5.653   6.185 -0.4682  0.7770  1.7408
  954MOL0     H25915   6.363   5.886   6.155  0.4602  0.4523  0.7704
  954MOL0     H25916   6.348   6.274   6.067  3.6815 -0.3202 -1.8424
  954MOL0     H25917   6.226   6.491   6.039  0.5821 -1.7222  1.0995
  954MOL0     H25918   6.019   6.573   5.984  0.7979  1.2412 -0.1020
  954MOL0     H25919   5.925   6.636   5.860 -0.4718  1.7399  3.6298
  954MOL0     H25920   6.151   6.782   6.002  0.5853 -1.3173 -0.4537
  954MOL0     H25921   6.090   6.835   5.846 -1.2767  1.1965  1.3224
  954MOL0     H25922   5.977   6.953   6.024  1.5371  0.7766  0.3663
  954MOL0     H25923   5.966   6.808   6.122 -1.1786 -0.1789  0.2656
  954MOL0     H25924   5.787   6.868   5.884  1.0523 -1.6881 -1.5705
  954MOL0     H25925   5.795   6.720   5.991  1.0206 -0.0459 -1.4472
  954MOL0     H25926   5.611   7.008   6.235 -0.5912  0.0577 -0.7814
  954MOL0     H25927   6.209   6.447   5.626  1.4426 -0.7460 -0.8671
  954MOL0     H25928   6.315   6.233   5.629  2.0883 -1.1223  0.9839
  955MOL0     O25929   8.555   4.823   4.057  0.0220  0.0932  0.7052
  955MOL0     C25930   8.482   4.860   4.140 -0.1632 -0.8993 -0.1320
  955MOL0     O25931   8.520   4.893   4.274 -1.1871 -0.7970  0.3662
  955MOL0     C25932   8.655   4.898   4.305 -0.2145  0.5989 -0.7639
  955MOL0     C25933   8.732   4.789   4.324 -0.8800  0.2277  1.1782
  955MOL0     C25934   8.863   4.816   4.375  0.4915  0.2932  0.3397
  955MOL0     C25935   8.914   4.939   4.402 -0.3194  0.1575 -0.1592
  955MOL0     O25936   9.046   4.967   4.440  0.5775  0.8774 -0.5324
  955MOL0     C25937   9.141   4.872   4.489 -0.7149  0.1431 -0.5167
  955MOL0     C25938   9.252   4.947   4.566  0.4312  0.6966 -0.2699
  955MOL0     C25939   9.344   5.016   4.470 -0.3906  0.5748 -1.0246
  955MOL0     C25940   9.455   5.072   4.548 -0.7623  0.1746 -0.9963
  955MOL0     C25941   9.550   5.174   4.476 -0.3232 -0.0495  0.1642
  955MOL0     C25942   9.693   5.167   4.531  0.1821  0.1110  0.0956
  955MOL0     C25943   9.713   5.224   4.675  0.4425 -0.0729 -0.4687
  955MOL0     C25944   9.854   5.269   4.705 -0.6800  0.1157  0.1306
  955MOL0     N25945   9.851   5.336   4.839 -0.5693  0.5838  0.7849
  955MOL0     C25946   9.775   5.442   4.861 -0.4341  0.1275  0.4352
  955MOL0     C25947   9.767   5.458   4.995 -0.1763 -0.2400  0.4486
  955MOL0     C25948   9.709   5.579   5.068  0.3009  0.2225 -0.3456
  955MOL0     C25949   9.553   5.581   5.056  0.5040  0.0815  0.1582
  955MOL0     C25950   9.470   5.694   5.127  0.3911 -0.1976  0.3462
  955MOL0     C25951   9.324   5.635   5.136 -0.5207 -0.0966 -0.3131
  955MOL0     O25952   9.241   5.729   5.188 -0.4307  0.2153 -0.7129
  955MOL0     C25953   9.216   5.828   5.098  0.3364 -0.4378 -0.1050
  955MOL0     C25954   9.125   5.805   4.994  0.6175  0.1640 -0.9019
  955MOL0     C25955   9.091   5.909   4.906 -0.0309  0.0976  0.2504
  955MOL0     C25956   9.139   6.042   4.923  0.2643  0.5175  0.1935
  955MOL0     C25957   9.091   6.155   4.839 -0.0788 -0.0481  0.4627
  955MOL0     O25958   9.168   6.268   4.832  0.7124 -0.5120 -0.3481
  955MOL0     C25959   9.124   6.369   4.751 -0.3579 -0.1724 -0.9314
  955MOL0     C25960   9.100   6.353   4.623 -0.2420 -0.0575 -0.6013
  955MOL0     C25961   9.082   6.459   4.533 -0.4862  0.1294 -0.4116
  955MOL0     C25962   9.086   6.593   4.583  0.3491 -0.2422 -0.4021
  955MOL0     O25963   9.075   6.710   4.500 -0.8979 -0.3472 -0.0946
  955MOL0     C25964   9.022   6.705   4.370 -0.9645 -0.2968 -0.7505
  955MOL0     C25965   8.972   6.846   4.331 -0.5225 -0.9829 -1.6924
  955MOL0     C25966   8.848   6.887   4.412  1.1200  0.3175  0.2237
  955MOL0     C25967   8.761   6.999   4.348  0.8606 -0.5960  0.2505
  955MOL0     C25968   8.656   7.055   4.440  0.2002 -0.0952  0.4145
  955MOL0     C25969   8.572   6.933   4.491  0.2159 -0.1428  0.4094
  955MOL0     C25970   8.461   6.984   4.582 -0.8092 -1.0617 -0.0520
  955MOL0     C25971   8.398   6.864   4.644  0.0595  0.1683  0.8485
  955MOL0    Cl25972   8.339   6.751   4.525  0.3273 -0.4637  0.0480
  955MOL0     C25973   9.108   6.609   4.723  0.2643 -0.8104  1.2397
  955MOL0     C25974   9.122   6.498   4.807 -0.8878  0.2677 -0.2180
  955MOL0     O25975   8.980   6.140   4.780  0.4411  0.1534 -0.2819
  955MOL0     C25976   9.225   6.064   5.034 -0.0776  0.6522 -0.1752
  955MOL0     C25977   9.271   5.955   5.113 -0.4135 -0.7601 -0.4724
  955MOL0     N25978   9.827   5.351   5.051 -0.8084 -0.1588 -0.4082
  955MOL0     N25979   9.879   5.276   4.957  0.4675  0.0417  0.1758
  955MOL0     C25980   8.833   5.050   4.378 -0.6631 -0.6703 -0.1736
  955MOL0     C25981   8.702   5.027   4.334  0.5543  0.2749  0.2401
  955MOL0     C25982   8.338   4.869   4.116 -0.0089  0.3335  0.2735
  955MOL0     C25983   8.282   4.867   3.982 -0.5100  0.0481 -0.1217
  955MOL0     C25984   8.143   4.894   3.970  0.8908  0.0359  0.2673
  955MOL0     C25985   8.052   4.906   4.076 -0.1384  0.9704  0.6857
  955MOL0     O25986   7.914   4.922   4.075 -0.1347  0.7503 -0.4259
  955MOL0     C25987   7.851   4.970   3.956 -0.2904  0.0707  0.4918
  955MOL0     C25988   7.709   5.004   3.980 -0.1850  0.1490  0.3374
  955MOL0     C25989   7.638   5.046   3.847 -0.2656  0.6758 -0.2914
  955MOL0     C25990   7.495   5.077   3.865 -1.4509  0.7955  0.8785
  955MOL0     C25991   7.450   5.123   3.734  0.1162 -0.2796 -0.1010
  955MOL0     C25992   7.418   5.163   3.616  0.4591 -0.1565 -0.6327
  955MOL0     C25993   8.111   4.892   4.200  0.4293 -0.6632 -0.4990
  955MOL0     C25994   8.250   4.877   4.223  0.3212 -0.7383  0.2679
  955MOL0     H25995   8.685   4.692   4.311 -3.2653  1.5170 -0.6647
  955MOL0     H25996   8.909   4.718   4.371  0.1693  0.1888 -1.9046
  955MOL0     H25997   9.191   4.820   4.407  0.2844  2.2739 -1.3199
  955MOL0     H25998   9.098   4.804   4.563  0.4813  0.0784  0.1530
  955MOL0     H25999   9.296   4.875   4.636 -1.9205  2.5820  3.4795
  955MOL0     H26000   9.199   5.016   4.632 -3.8694 -2.7646  0.3702
  955MOL0     H26001   9.284   5.088   4.414 -3.7412 -0.7592  0.5791
  955MOL0     H26002   9.391   4.947   4.398  1.2638  1.0791 -0.4700
  955MOL0     H26003   9.410   5.131   4.628 -0.8757 -0.0184 -0.9173
  955MOL0     H26004   9.523   5.000   4.595 -0.9709  0.6834  0.1150
  955MOL0     H26005   9.504   5.272   4.483  1.8831  1.0531  0.0977
  955MOL0     H26006   9.571   5.150   4.371  1.6904 -1.1423  0.7446
  955MOL0     H26007   9.751   5.227   4.460 -0.1454 -0.1867 -0.4330
  955MOL0     H26008   9.733   5.066   4.517 -1.6294 -0.9100  1.8157
  955MOL0     H26009   9.638   5.302   4.694  0.1487 -0.9627  2.4343
  955MOL0     H26010   9.685   5.145   4.744 -2.3869 -0.2336 -1.6530
  955MOL0     H26011   9.875   5.337   4.622 -4.1753 -0.8975 -1.7845
  955MOL0     H26012   9.922   5.183   4.706 -1.2504 -0.3436  1.2645
  955MOL0     H26013   9.736   5.510   4.785 -3.6037 -0.0399  1.7423
  955MOL0     H26014   9.745   5.676   5.031 -1.5696  1.7227  1.4883
  955MOL0     H26015   9.742   5.567   5.172  0.6173  2.0094 -0.2061
  955MOL0     H26016   9.517   5.485   5.094  2.7223 -1.6565 -1.8411
  955MOL0     H26017   9.530   5.572   4.950 -0.0909  1.2018  0.1792
  955MOL0     H26018   9.494   5.703   5.233  0.4856 -1.3756  0.4352
  955MOL0     H26019   9.484   5.786   5.068 -0.2438  0.8145  1.7256
  955MOL0     H26020   9.335   5.550   5.205  3.9016 -0.9946 -1.7693
  955MOL0     H26021   9.278   5.588   5.049 -0.4697  0.2183 -0.5126
  955MOL0     H26022   9.089   5.703   4.990  0.3286 -0.2239  4.1457
  955MOL0     H26023   9.025   5.902   4.820  0.9296  1.3276 -0.6100
  955MOL0     H26024   9.090   6.261   4.566  2.7962 -1.0420  0.2906
  955MOL0     H26025   9.066   6.442   4.427 -2.9063  0.3848 -0.1531
  955MOL0     H26026   8.938   6.635   4.363 -2.2673  0.6122  3.1824
  955MOL0     H26027   9.107   6.673   4.310  0.5077  1.7487  0.1274
  955MOL0     H26028   8.938   6.851   4.227  0.9565  3.8569 -2.1981
  955MOL0     H26029   9.056   6.915   4.340 -0.9805 -0.1189 -3.6354
  955MOL0     H26030   8.883   6.915   4.512  1.6065  1.5051 -0.2612
  955MOL0     H26031   8.786   6.797   4.408 -1.7137  2.1348  0.8488
  955MOL0     H26032   8.811   7.090   4.315 -1.0307  0.6056  0.5329
  955MOL0     H26033   8.714   6.941   4.268 -0.0057 -0.7777  0.8749
  955MOL0     H26034   8.604   7.137   4.388  0.8928  0.4032  0.4887
  955MOL0     H26035   8.710   7.088   4.529 -2.5897  1.2089  1.7392
  955MOL0     H26036   8.636   6.872   4.557  1.2096 -0.6309 -0.9502
  955MOL0     H26037   8.550   6.869   4.405  1.0266  0.4566 -0.2520
  955MOL0     H26038   8.497   7.045   4.665  1.0756 -0.1887 -1.4411
  955MOL0     H26039   8.382   7.032   4.523 -0.0462 -0.0051 -0.2296
  955MOL0     H26040   8.313   6.883   4.711 -0.7729  0.4696 -0.2545
  955MOL0     H26041   8.476   6.819   4.704  5.0153  4.2880 -1.7109
  955MOL0     H26042   9.124   6.709   4.761  1.7244  0.2747 -1.8812
  955MOL0     H26043   9.147   6.504   4.912  0.2456 -3.9130 -0.0852
  955MOL0     H26044   9.264   6.162   5.057  0.0295  0.0124  2.7578
  955MOL0     H26045   9.341   5.979   5.192 -0.7422 -0.0816 -0.3769
  955MOL0     H26046   8.867   5.151   4.397  0.7643 -0.8137 -1.7660
  955MOL0     H26047   8.638   5.112   4.310 -1.0102 -0.0977  2.7522
  955MOL0     H26048   8.345   4.866   3.893  0.0766  2.1483  0.2123
  955MOL0     H26049   8.098   4.899   3.871 -2.3535 -0.7752  1.5522
  955MOL0     H26050   7.851   4.898   3.873 -2.7313  0.1059  0.3665
  955MOL0     H26051   7.899   5.061   3.919  1.8951 -1.2126 -0.0149
  955MOL0     H26052   7.654   4.921   4.026 -0.2749 -0.8399 -1.4943
  955MOL0     H26053   7.703   5.086   4.053  0.4373  0.7315 -0.2426
  955MOL0     H26054   7.643   4.955   3.787 -0.0704  0.0980  0.6016
  955MOL0     H26055   7.691   5.132   3.804  1.2311  0.2314  0.6099
  955MOL0     H26056   7.443   4.982   3.883  1.7699 -1.3915 -0.5299
  955MOL0     H26057   7.478   5.157   3.938 -0.2463 -1.0880  3.3620
  955MOL0     H26058   7.375   5.199   3.524 -0.0494  0.9904  0.0269
  955MOL0     H26059   8.051   4.891   4.290 -0.2509  0.8052 -0.9075
  955MOL0     H26060   8.292   4.863   4.322  5.2841  0.7093 -1.3036
  956MOL0     O26061   0.377  10.895   4.890  0.2263  0.2298  0.2657
  956MOL0     C26062   0.382  10.894   4.766  0.2083 -1.1230 -0.8599
  956MOL0     O26063   0.279  10.860   4.687  0.7330  0.0502 -0.3303
  956MOL0     C26064   0.162  10.803   4.743 -0.3140  0.0715 -0.0951
  956MOL0     C26065   0.094  10.701   4.675  0.0622 -0.0304  0.1050
  956MOL0     C26066  -0.024  10.640   4.725 -0.7574 -0.3222  0.1007
  956MOL0     C26067  -0.090  10.701   4.832  0.0902 -0.3536 -0.2909
  956MOL0     O26068  -0.215  10.650   4.860 -0.5386  0.8562 -0.2886
  956MOL0     C26069  -0.295  10.706   4.965  0.1515 -0.2129 -0.2573
  956MOL0     C26070  -0.427  10.643   4.975 -0.1039 -0.6109  0.1496
  956MOL0     C26071  -0.491  10.654   5.107  0.6306  0.5106 -0.4284
  956MOL0     C26072  -0.600  10.544   5.133  0.4915 -0.6681  1.1867
  956MOL0     C26073  -0.650  10.537   5.278 -0.1138  0.2158  0.5935
  956MOL0     C26074  -0.750  10.421   5.282 -0.5245 -0.2640  0.8191
  956MOL0     C26075  -0.834  10.397   5.412 -0.3196  0.5745  0.2554
  956MOL0     C26076  -0.928  10.516   5.446 -0.2553  0.0688 -0.7828
  956MOL0     N26077  -1.021  10.476   5.548  0.3883  0.6861  0.7225
  956MOL0     C26078  -1.031  10.502   5.683  0.0152 -0.4408 -0.0074
  956MOL0     C26079  -1.152  10.467   5.721 -0.1378  0.2138 -0.5682
  956MOL0     C26080  -1.215  10.505   5.854  0.5636 -0.0988  0.0697
  956MOL0     C26081  -1.366  10.469   5.862  0.2136  0.5017 -0.3541
  956MOL0     C26082  -1.461  10.583   5.826 -0.8670  0.2283  0.9741
  956MOL0     C26083  -1.472  10.598   5.668  0.1712  0.2257  0.0794
  956MOL0     O26084  -1.543  10.718   5.641  0.2007  0.0338  0.6601
  956MOL0     C26085  -1.679  10.727   5.650 -0.7237 -0.3375 -0.4347
  956MOL0     C26086  -1.773  10.620   5.650 -0.6012  0.5194  1.1490
  956MOL0     C26087  -1.908  10.641   5.650  0.7519 -0.1463 -0.0134
  956MOL0     C26088  -1.962  10.770   5.648  0.5101 -0.0782  0.3417
  956MOL0     C26089  -2.110  10.810   5.669  0.9641  0.7737  0.6766
  956MOL0     O26090  -2.214  10.712   5.670 -0.2074  0.4644 -0.4393
  956MOL0     C26091  -2.346  10.746   5.702 -0.5282  0.2487 -0.1902
  956MOL0     C26092  -2.449  10.687   5.624  0.0503  0.2819 -0.1302
  956MOL0     C26093  -2.584  10.711   5.655  0.3489 -0.0376  0.5969
  956MOL0     C26094  -2.618  10.789   5.765  0.6517  0.0041 -0.4258
  956MOL0     O26095  -2.759  10.815   5.776 -0.2697  0.4921  0.2130
  956MOL0     C26096  -2.803  10.801   5.910  0.3716 -0.0122  0.4042
  956MOL0     C26097  -2.951  10.780   5.882 -0.2437  0.0933  0.1387
  956MOL0     C26098  -3.033  10.766   6.012  0.6424  0.0330 -0.2999
  956MOL0     C26099  -3.189  10.792   5.999 -0.9243 -0.3617 -0.5688
  956MOL0     C26100  -3.264  10.731   6.115 -0.5240  0.4384  0.5552
  956MOL0     C26101  -3.412  10.761   6.092  0.6859 -0.2645  0.2580
  956MOL0     C26102  -3.489  10.716   6.211 -0.3805  0.8904 -0.5320
  956MOL0     C26103  -3.636  10.691   6.177  1.2356 -0.5620 -1.0600
  956MOL0    Cl26104  -3.727  10.834   6.137 -0.0334  0.6708  0.1299
  956MOL0     C26105  -2.521  10.862   5.832 -0.6059 -0.1195 -0.8866
  956MOL0     C26106  -2.383  10.838   5.803  0.8858 -1.4055 -0.1777
  956MOL0     O26107  -2.139  10.930   5.676 -0.1808 -0.5856 -0.3648
  956MOL0     C26108  -1.864  10.880   5.648 -1.8987 -0.0982  0.7033
  956MOL0     C26109  -1.729  10.852   5.645  0.5839  0.4446  0.4225
  956MOL0     N26110  -1.224  10.423   5.615  0.2071  0.5410  0.6152
  956MOL0     N26111  -1.141  10.431   5.507 -0.5737  0.0653 -0.6444
  956MOL0     C26112  -0.033  10.815   4.889 -0.1152 -0.1341  0.1597
  956MOL0     C26113   0.091  10.858   4.849 -0.5939 -0.5535 -0.0649
  956MOL0     C26114   0.502  10.940   4.692 -0.2193 -0.4029  0.7783
  956MOL0     C26115   0.490  10.947   4.553 -0.6110 -0.4987 -0.0888
  956MOL0     C26116   0.595  10.997   4.473 -0.6447  0.1160 -0.2525
  956MOL0     C26117   0.717  11.038   4.529  0.5337 -0.8410 -0.1059
  956MOL0     O26118   0.829  11.078   4.463 -0.2017  0.6287 -0.3688
  956MOL0     C26119   0.813  11.090   4.316 -0.0070 -0.1396 -0.9286
  956MOL0     C26120   0.926  11.135   4.231 -0.9703 -0.0240 -0.4394
  956MOL0     C26121   0.877  11.163   4.090 -0.0185  0.2103 -0.3671
  956MOL0     C26122   1.002  11.232   4.016 -0.1862  0.5919 -0.0331
  956MOL0     C26123   0.963  11.254   3.878  0.1454  0.0341 -0.8159
  956MOL0     C26124   0.915  11.264   3.765  0.2215 -0.0120  0.5090
  956MOL0     C26125   0.725  11.032   4.667 -0.9853 -0.3846  1.1424
  956MOL0     C26126   0.627  10.977   4.744  0.8058 -0.2947 -0.1687
  956MOL0     H26127   0.134  10.652   4.587 -0.8091 -0.4044 -0.0946
  956MOL0     H26128  -0.078  10.553   4.688 -1.1716 -1.3494  2.8599
  956MOL0     H26129  -0.314  10.813   4.953 -0.0581  0.1228  2.5787
  956MOL0     H26130  -0.239  10.687   5.056 -1.4196 -0.8335  0.6254
  956MOL0     H26131  -0.407  10.536   4.968 -0.0536 -0.6031  0.1637
  956MOL0     H26132  -0.490  10.665   4.889 -0.7529 -0.5672  0.6340
  956MOL0     H26133  -0.544  10.747   5.127  1.3749  0.8521 -0.0123
  956MOL0     H26134  -0.415  10.637   5.183 -0.1636  0.2865  0.3290
  956MOL0     H26135  -0.687  10.573   5.074 -1.3081 -2.1532  2.9510
  956MOL0     H26136  -0.560  10.444   5.111 -0.7921 -2.1817  4.9057
  956MOL0     H26137  -0.707  10.628   5.300  0.6595  0.2191  2.8002
  956MOL0     H26138  -0.572  10.530   5.354 -1.6527  0.4441  2.2505
  956MOL0     H26139  -0.695  10.327   5.274 -0.4170 -0.1137 -0.3204
  956MOL0     H26140  -0.824  10.439   5.204  1.5074 -0.0704 -1.1632
  956MOL0     H26141  -0.894  10.307   5.395  1.3860 -0.1009 -3.1057
  956MOL0     H26142  -0.765  10.388   5.496 -0.8319 -0.9373  0.5522
  956MOL0     H26143  -0.992  10.527   5.357 -0.7329  0.7996 -0.3593
  956MOL0     H26144  -0.872  10.608   5.463 -0.5683 -0.0027  0.7051
  956MOL0     H26145  -0.954  10.551   5.741  2.9999 -1.0421 -3.1756
  956MOL0     H26146  -1.192  10.607   5.887  2.9616  0.2134 -2.2242
  956MOL0     H26147  -1.160  10.450   5.931  2.1289  0.5593 -0.5310
  956MOL0     H26148  -1.391  10.443   5.965 -0.5713  1.2503 -0.3407
  956MOL0     H26149  -1.392  10.378   5.806  3.6314 -0.9229  0.1810
  956MOL0     H26150  -1.563  10.563   5.863 -0.1882 -0.9921  2.3027
  956MOL0     H26151  -1.424  10.677   5.868  2.8141 -0.8001  0.3782
  956MOL0     H26152  -1.508  10.518   5.604 -0.4144  1.3666 -1.0744
  956MOL0     H26153  -1.372  10.629   5.636 -1.0188  2.6122 -1.6836
  956MOL0     H26154  -1.739  10.517   5.661 -0.3268  0.6092  1.1457
  956MOL0     H26155  -1.969  10.552   5.659  0.8906 -0.3605 -1.1275
  956MOL0     H26156  -2.426  10.625   5.538 -2.3649  2.8089 -2.7925
  956MOL0     H26157  -2.671  10.685   5.596  0.7743 -1.7305  0.6409
  956MOL0     H26158  -2.773  10.895   5.958  0.1950 -0.4336  1.3744
  956MOL0     H26159  -2.755  10.714   5.955  0.2238  0.7460  2.1131
  956MOL0     H26160  -2.972  10.693   5.819 -4.5232  1.6143 -0.9042
  956MOL0     H26161  -2.986  10.871   5.832 -2.2739 -0.0247  1.2446
  956MOL0     H26162  -2.987  10.827   6.090  2.9859 -1.8578 -0.0733
  956MOL0     H26163  -3.017  10.665   6.051  2.4826  0.9921  1.6247
  956MOL0     H26164  -3.218  10.897   5.992  1.7418  0.4762 -0.0711
  956MOL0     H26165  -3.222  10.749   5.904  3.3208 -3.2281 -1.0367
  956MOL0     H26166  -3.241  10.774   6.213  0.4273  0.2610  0.4220
  956MOL0     H26167  -3.247  10.624   6.133  1.4955  0.7981  1.0991
  956MOL0     H26168  -3.451  10.705   6.006 -1.8709  2.8790 -0.8667
  956MOL0     H26169  -3.429  10.866   6.064 -0.9545 -1.2037 -2.7708
  956MOL0     H26170  -3.444  10.630   6.260 -1.3069 -1.7345 -3.9304
  956MOL0     H26171  -3.493  10.798   6.284  1.0309  2.3031 -1.9683
  956MOL0     H26172  -3.682  10.639   6.261  1.5598  1.3531  0.3676
  956MOL0     H26173  -3.663  10.619   6.099  1.3423  0.0011 -1.6324
  956MOL0     H26174  -2.555  10.941   5.899 -3.0549  0.8014 -3.0410
  956MOL0     H26175  -2.303  10.877   5.865  0.7302 -1.5247  0.1026
  956MOL0     H26176  -1.896  10.983   5.642 -0.8774  0.1866 -4.0329
  956MOL0     H26177  -1.661  10.936   5.653 -3.3764  3.8344  2.1916
  956MOL0     H26178  -0.074  10.857   4.980 -0.1240 -2.4560  1.3102
  956MOL0     H26179   0.144  10.939   4.899 -2.1650 -0.1023  0.9689
  956MOL0     H26180   0.392  10.933   4.508 -0.5401 -1.9507  0.1423
  956MOL0     H26181   0.570  11.015   4.369  0.7465  0.1703 -0.5904
  956MOL0     H26182   0.744  11.173   4.303  1.7057  1.4106 -0.4662
  956MOL0     H26183   0.784  10.992   4.277  1.2092 -0.3263 -1.4250
  956MOL0     H26184   0.956  11.231   4.275 -1.4013  0.2783 -0.7924
  956MOL0     H26185   1.002  11.059   4.249 -2.4235 -1.4418 -0.1029
  956MOL0     H26186   0.785  11.220   4.079 -0.7296 -0.8468  0.0124
  956MOL0     H26187   0.854  11.071   4.035 -2.2642  1.0349 -0.8905
  956MOL0     H26188   1.021  11.331   4.057  2.2860  0.0090  0.3407
  956MOL0     H26189   1.095  11.176   4.015 -1.0283 -0.8979 -1.8797
  956MOL0     H26190   0.883  11.281   3.665 -0.4952 -2.0792  0.3364
  956MOL0     H26191   0.815  11.061   4.720 -2.2672  4.0404  1.3181
  956MOL0     H26192   0.650  10.980   4.850 -1.0090  0.9864  0.2174
  957MOL0     O26193   3.196   2.337   8.611  0.1663  0.2945 -0.1012
  957MOL0     C26194   3.118   2.411   8.681 -0.3882  1.4443 -0.1728
  957MOL0     O26195   3.113   2.403   8.816 -0.3103  0.2743  0.1158
  957MOL0     C26196   3.210   2.332   8.886  0.2506 -0.1289  0.1328
  957MOL0     C26197   3.177   2.238   8.985  0.2976  0.1040  0.3878
  957MOL0     C26198   3.279   2.191   9.070 -0.0335  0.1679  0.7144
  957MOL0     C26199   3.411   2.237   9.053 -0.0376 -0.6191 -0.8973
  957MOL0     O26200   3.506   2.190   9.132 -0.6894 -0.3327 -0.7379
  957MOL0     C26201   3.518   2.049   9.114 -0.2215  0.9243  0.7053
  957MOL0     C26202   3.660   2.021   9.130 -0.4191 -0.8254 -0.7169
  957MOL0     C26203   3.738   2.078   9.012 -0.2071  1.0079 -1.0105
  957MOL0     C26204   3.884   2.059   9.028  0.7610 -0.3950  0.0689
  957MOL0     C26205   3.947   2.088   8.889  0.1536 -0.8042 -0.6709
  957MOL0     C26206   4.098   2.086   8.885 -0.0736  0.9456  0.7348
  957MOL0     C26207   4.141   1.940   8.916  0.7425  0.1430 -0.0982
  957MOL0     C26208   4.294   1.922   8.902  0.3817  0.2336 -0.4516
  957MOL0     N26209   4.359   1.976   8.776  0.8916  0.6143  0.2846
  957MOL0     C26210   4.394   2.105   8.758 -0.0434  0.6636 -0.0812
  957MOL0     C26211   4.452   2.112   8.635 -0.8536 -0.6483  0.6960
  957MOL0     C26212   4.489   2.238   8.563 -0.8332 -0.3919  0.5365
  957MOL0     C26213   4.446   2.238   8.410  0.2179 -0.1722  0.4217
  957MOL0     C26214   4.486   2.363   8.341 -0.2502 -0.7312  0.2098
  957MOL0     C26215   4.416   2.388   8.211  0.0493  0.1070  0.0602
  957MOL0     O26216   4.280   2.415   8.243  0.8434  0.4780  0.5437
  957MOL0     C26217   4.197   2.444   8.135  0.2510  1.2291 -0.5581
  957MOL0     C26218   4.061   2.452   8.167 -0.2187 -1.4835  0.1822
  957MOL0     C26219   3.974   2.479   8.062 -0.2862  0.9199  0.4817
  957MOL0     C26220   4.014   2.464   7.930  0.8586  0.2510  0.2301
  957MOL0     C26221   3.915   2.469   7.813 -0.7477 -0.4456 -0.0959
  957MOL0     O26222   3.781   2.495   7.846  0.0689 -0.2119 -0.3682
  957MOL0     C26223   3.699   2.494   7.733  0.5399  0.0399  0.8898
  957MOL0     C26224   3.696   2.376   7.655 -0.0779  0.8599  0.3989
  957MOL0     C26225   3.639   2.372   7.525 -0.0147  0.5888  1.1728
  957MOL0     C26226   3.569   2.481   7.484  1.1457 -0.0983 -0.0727
  957MOL0     O26227   3.515   2.473   7.360 -0.7290 -0.3600 -0.1244
  957MOL0     C26228   3.593   2.531   7.245  0.1377 -0.3685 -0.5858
  957MOL0     C26229   3.728   2.450   7.220  0.0418  0.0978  0.2030
  957MOL0     C26230   3.712   2.323   7.152 -0.1642  0.2220 -0.6099
  957MOL0     C26231   3.836   2.227   7.160 -0.0482 -0.5891  0.1591
  957MOL0     C26232   3.805   2.085   7.109 -0.2703 -0.0393 -0.3074
  957MOL0     C26233   3.906   1.981   7.147 -0.1922 -0.2345 -0.2927
  957MOL0     C26234   3.886   1.844   7.068 -0.3738  0.0364 -0.4565
  957MOL0     C26235   3.951   1.725   7.130 -0.6876 -0.1205  0.5459
  957MOL0    Cl26236   3.876   1.677   7.297  0.0608  0.7667 -0.0295
  957MOL0     C26237   3.555   2.596   7.568  1.1529 -0.5616  0.2692
  957MOL0     C26238   3.626   2.603   7.691 -0.3726 -0.2919 -0.4303
  957MOL0     O26239   3.967   2.456   7.699 -0.2980 -0.1084 -0.0915
  957MOL0     C26240   4.151   2.459   7.900 -0.5457 -0.1790  0.0458
  957MOL0     C26241   4.241   2.443   8.005  0.8827 -0.4538  0.1737
  957MOL0     N26242   4.468   1.979   8.584 -0.1087 -0.3399 -0.3334
  957MOL0     N26243   4.402   1.904   8.666  0.3072 -0.2871  0.6479
  957MOL0     C26244   3.444   2.341   8.963 -0.1772 -0.6572 -0.2284
  957MOL0     C26245   3.341   2.379   8.880  0.0204 -0.3388 -0.0689
  957MOL0     C26246   3.049   2.527   8.620  1.4872  0.9477  0.1159
  957MOL0     C26247   2.922   2.552   8.670 -0.4179 -0.1555 -0.0082
  957MOL0     C26248   2.863   2.671   8.622  0.0259  0.3173  0.3317
  957MOL0     C26249   2.909   2.748   8.518  0.0449 -0.0600  1.0850
  957MOL0     O26250   2.843   2.846   8.456  0.4388  0.2756 -0.1391
  957MOL0     C26251   2.703   2.870   8.486  0.9723  0.7029  0.0251
  957MOL0     C26252   2.645   2.914   8.355  0.2959  0.1627  0.5814
  957MOL0     C26253   2.536   3.022   8.369  0.4716  0.3780  0.4281
  957MOL0     C26254   2.488   3.095   8.243  0.2096  0.0671  1.0637
  957MOL0     C26255   2.603   3.165   8.180  0.3446 -0.0808 -0.0829
  957MOL0     C26256   2.676   3.249   8.121 -0.5860 -0.0253 -0.4714
  957MOL0     C26257   3.035   2.711   8.461  0.7807 -0.0031 -0.7178
  957MOL0     C26258   3.106   2.606   8.519  0.8922  0.3083  0.1467
  957MOL0     H26259   3.073   2.205   8.992  0.2883  0.4637  3.2277
  957MOL0     H26260   3.260   2.118   9.148  1.3932 -3.4908 -2.0822
  957MOL0     H26261   3.473   2.008   9.023 -0.1873  1.6193  0.3702
  957MOL0     H26262   3.481   1.991   9.199  2.4231  1.3847  2.2897
  957MOL0     H26263   3.685   1.914   9.131 -4.0936 -1.8014  0.1920
  957MOL0     H26264   3.703   2.063   9.221  0.3783 -2.3331 -0.3442
  957MOL0     H26265   3.715   2.185   9.003  0.7453  1.4309  0.8853
  957MOL0     H26266   3.721   2.019   8.922 -4.5011  1.7423 -0.8885
  957MOL0     H26267   3.928   2.129   9.100  0.0510  1.3370 -1.1076
  957MOL0     H26268   3.921   1.966   9.073  2.3544 -0.1083 -0.5717
  957MOL0     H26269   3.922   2.187   8.851  2.5328 -0.2346 -0.8979
  957MOL0     H26270   3.922   2.015   8.812  1.8565 -1.5706 -0.5373
  957MOL0     H26271   4.139   2.149   8.964 -1.2902  1.5918  0.8709
  957MOL0     H26272   4.131   2.131   8.791  0.6088 -2.4945 -0.8156
  957MOL0     H26273   4.102   1.898   9.009 -1.2917  2.3617  0.1500
  957MOL0     H26274   4.100   1.879   8.835  2.7787 -2.0489  0.4072
  957MOL0     H26275   4.311   1.815   8.912  1.1871  0.5683  3.2813
  957MOL0     H26276   4.350   1.953   8.990  0.2378 -1.7998  0.4070
  957MOL0     H26277   4.387   2.189   8.826  4.0589 -2.2994  4.6738
  957MOL0     H26278   4.598   2.253   8.563 -1.2580  4.4394 -1.2073
  957MOL0     H26279   4.445   2.327   8.608 -2.4100 -0.5323 -0.6667
  957MOL0     H26280   4.341   2.218   8.386 -0.3608  3.4520 -0.6375
  957MOL0     H26281   4.498   2.153   8.364  2.2064  0.3863  1.5067
  957MOL0     H26282   4.476   2.453   8.403 -1.3268  2.0427 -3.6102
  957MOL0     H26283   4.593   2.357   8.319  0.2043  2.0244  1.2506
  957MOL0     H26284   4.431   2.304   8.142 -2.7622 -0.9514  0.6049
  957MOL0     H26285   4.453   2.476   8.157 -0.6684  0.6155  0.3868
  957MOL0     H26286   4.017   2.437   8.265  1.0517  0.6184  1.1497
  957MOL0     H26287   3.869   2.500   8.083  0.0634  1.7285  1.4860
  957MOL0     H26288   3.742   2.285   7.693  0.9420  1.2985  0.2461
  957MOL0     H26289   3.646   2.282   7.465 -1.1173  1.1770  0.1189
  957MOL0     H26290   3.611   2.635   7.274 -1.9507 -0.3827  0.9218
  957MOL0     H26291   3.528   2.532   7.158 -0.8550 -0.1672  0.1458
  957MOL0     H26292   3.777   2.439   7.317 -2.1210  2.1167  1.6417
  957MOL0     H26293   3.779   2.502   7.138  2.6672 -4.4973 -1.4641
  957MOL0     H26294   3.670   2.324   7.051 -1.5391 -2.6003 -0.1745
  957MOL0     H26295   3.636   2.266   7.207  2.3824 -0.2689  2.6956
  957MOL0     H26296   3.929   2.267   7.117 -0.1967 -0.6514 -0.2203
  957MOL0     H26297   3.855   2.205   7.265 -1.4344 -0.5831  0.4264
  957MOL0     H26298   3.792   2.088   7.000 -2.9389 -1.7218 -0.1400
  957MOL0     H26299   3.707   2.060   7.151 -0.3397  0.5826 -0.0870
  957MOL0     H26300   3.903   1.963   7.255 -0.1746  1.4702  0.0234
  957MOL0     H26301   4.006   2.015   7.120  0.1012 -2.0489 -1.6356
  957MOL0     H26302   3.778   1.832   7.050 -0.1948  0.2214 -1.7711
  957MOL0     H26303   3.933   1.861   6.971  1.2361 -2.8203 -0.2818
  957MOL0     H26304   4.054   1.752   7.153  0.1712 -0.5683 -2.4180
  957MOL0     H26305   3.940   1.643   7.059  2.1097  1.1361 -1.4811
  957MOL0     H26306   3.483   2.670   7.534  1.8612 -0.5329 -1.2718
  957MOL0     H26307   3.631   2.692   7.752 -1.9266 -0.0806 -0.5883
  957MOL0     H26308   4.182   2.449   7.796 -0.3162 -0.5246  0.1460
  957MOL0     H26309   4.341   2.426   7.965  0.7323  1.9133 -1.4455
  957MOL0     H26310   3.544   2.384   8.956  0.8464 -3.0793 -1.9393
  957MOL0     H26311   3.372   2.454   8.808  0.1565 -2.3339 -2.2124
  957MOL0     H26312   2.867   2.493   8.742 -1.1208 -0.8440 -1.0836
  957MOL0     H26313   2.772   2.704   8.673 -0.7156  1.8158 -1.8475
  957MOL0     H26314   2.701   2.946   8.565 -0.8442  1.4287 -0.6527
  957MOL0     H26315   2.632   2.797   8.526  0.6864  2.2275  2.4987
  957MOL0     H26316   2.726   2.959   8.296 -1.2267  1.4807 -0.6326
  957MOL0     H26317   2.600   2.830   8.302  2.5678 -1.3045  0.8688
  957MOL0     H26318   2.577   3.093   8.442 -0.4417  1.0941  0.2608
  957MOL0     H26319   2.451   2.976   8.419  1.6104 -1.7624  0.4960
  957MOL0     H26320   2.438   3.022   8.179  0.2968  1.1422 -0.2677
  957MOL0     H26321   2.414   3.168   8.276 -0.5399  0.4291 -1.2161
  957MOL0     H26322   2.745   3.312   8.069  0.0906  1.1681  1.7337
  957MOL0     H26323   3.060   2.758   8.367 -1.0422 -0.3918 -1.4340
  957MOL0     H26324   3.199   2.574   8.473  1.9772  1.2293  1.6143
  958MOL0     O26325   7.898   7.517   2.325 -0.1218 -0.1254 -0.9959
  958MOL0     C26326   7.990   7.479   2.396  0.2468  0.0428  0.2403
  958MOL0     O26327   7.976   7.437   2.529  0.1345  0.1261 -0.0389
  958MOL0     C26328   7.855   7.415   2.582  0.6383  0.1480 -0.0010
  958MOL0     C26329   7.770   7.521   2.635 -0.0113 -0.4789  0.6439
  958MOL0     C26330   7.643   7.491   2.680  0.7363  0.1001 -0.2576
  958MOL0     C26331   7.587   7.364   2.666  0.3325  0.8405 -0.0692
  958MOL0     O26332   7.466   7.344   2.722 -0.3199 -0.0593 -0.0337
  958MOL0     C26333   7.387   7.234   2.692 -0.3421  0.8088  0.4144
  958MOL0     C26334   7.365   7.218   2.541 -0.4443 -0.6163  0.3962
  958MOL0     C26335   7.267   7.105   2.497 -0.4956 -0.2013  0.2151
  958MOL0     C26336   7.126   7.105   2.547 -0.5991 -0.6692 -0.4298
  958MOL0     C26337   7.040   6.981   2.525  0.5973  0.0504 -0.3178
  958MOL0     C26338   6.989   6.968   2.380  0.6965 -0.0988  0.0991
  958MOL0     C26339   6.845   6.898   2.365  0.3661  0.2257  0.0566
  958MOL0     C26340   6.786   6.906   2.223 -0.6155  0.0414 -1.2252
  958MOL0     N26341   6.793   6.776   2.148  0.3026  0.6405  0.3345
  958MOL0     C26342   6.691   6.731   2.072  0.1941 -0.4804  0.0004
  958MOL0     C26343   6.744   6.631   2.005 -0.8165 -0.0638  0.0844
  958MOL0     C26344   6.677   6.547   1.899 -0.5906  0.1606 -0.3964
  958MOL0     C26345   6.745   6.422   1.873  0.2125 -0.3084 -0.7987
  958MOL0     C26346   6.714   6.369   1.729 -0.0505 -0.8203  0.7991
  958MOL0     C26347   6.575   6.309   1.713  0.2503  0.3415 -0.3478
  958MOL0     O26348   6.470   6.410   1.699 -0.5150  0.2124  0.4357
  958MOL0     C26349   6.339   6.375   1.673  0.4139  0.0419 -0.4979
  958MOL0     C26350   6.296   6.249   1.664  0.8101 -0.8769  0.4112
  958MOL0     C26351   6.161   6.225   1.631  0.0418 -0.1008  0.3990
  958MOL0     C26352   6.064   6.327   1.605 -0.9788  0.8736  0.2321
  958MOL0     C26353   5.921   6.291   1.565 -0.2603  0.2377 -0.3733
  958MOL0     O26354   5.887   6.154   1.561 -0.2966 -0.9064 -0.9144
  958MOL0     C26355   5.757   6.121   1.541 -1.1697  0.4351 -1.2734
  958MOL0     C26356   5.667   6.181   1.452 -0.4406 -0.2001 -0.2928
  958MOL0     C26357   5.532   6.135   1.442  0.2053  0.4886  0.1590
  958MOL0     C26358   5.482   6.041   1.540  0.5459  0.3066  0.1198
  958MOL0     O26359   5.351   6.009   1.562 -0.0736 -0.1379  0.4957
  958MOL0     C26360   5.250   6.060   1.468 -0.8261 -0.5833  0.2375
  958MOL0     C26361   5.118   6.071   1.541  0.6388  0.4168  0.4276
  958MOL0     C26362   5.030   5.950   1.525  1.1219  0.5983 -0.2652
  958MOL0     C26363   4.946   5.969   1.396 -0.8475  0.1893  0.2405
  958MOL0     C26364   4.801   5.910   1.420  0.8254  0.0842 -1.2068
  958MOL0     C26365   4.695   5.968   1.323 -0.3280 -0.4880  0.0991
  958MOL0     C26366   4.566   5.880   1.316  0.2414 -0.7397  0.0431
  958MOL0     C26367   4.462   5.906   1.439  0.3686  0.4700  0.4803
  958MOL0    Cl26368   4.315   5.818   1.430 -0.6294  0.3435 -0.1315
  958MOL0     C26369   5.568   5.985   1.619 -1.3947 -0.5188 -0.0930
  958MOL0     C26370   5.709   6.017   1.617  0.5054  0.6882  0.7365
  958MOL0     O26371   5.845   6.387   1.559 -0.1026 -0.4398  0.5420
  958MOL0     C26372   6.112   6.458   1.618 -0.7250 -0.6402 -0.8054
  958MOL0     C26373   6.242   6.480   1.656  0.0324 -0.3471 -0.5849
  958MOL0     N26374   6.874   6.606   2.053  0.8746 -0.4032 -0.5249
  958MOL0     N26375   6.903   6.691   2.145 -0.1473 -0.8704  0.2984
  958MOL0     C26376   7.677   7.261   2.629 -0.2190 -0.7060  0.0985
  958MOL0     C26377   7.810   7.286   2.593 -0.0108 -0.5345 -0.1617
  958MOL0     C26378   8.123   7.477   2.334  0.5934 -1.0239  1.2342
  958MOL0     C26379   8.147   7.511   2.204 -0.0876 -0.5552  0.1721
  958MOL0     C26380   8.276   7.510   2.149 -0.2645 -0.3962  0.0993
  958MOL0     C26381   8.395   7.474   2.225  0.7342 -0.0136  0.1617
  958MOL0     O26382   8.509   7.495   2.164  0.3267  0.4254 -0.0833
  958MOL0     C26383   8.621   7.423   2.221  0.3714 -0.3129  0.2184
  958MOL0     C26384   8.748   7.455   2.139  0.1128  0.5053 -0.1733
  958MOL0     C26385   8.772   7.354   2.019  0.8959 -0.7184 -0.4771
  958MOL0     C26386   8.888   7.416   1.939 -0.8709  0.4903  0.1372
  958MOL0     C26387   9.005   7.398   2.022 -0.3637 -0.4386 -0.8443
  958MOL0     C26388   9.104   7.365   2.089  0.0661  0.2069 -0.0947
  958MOL0     C26389   8.363   7.419   2.353 -0.0410  0.1400  0.3168
  958MOL0     C26390   8.233   7.426   2.405 -0.3960  0.2592  0.5567
  958MOL0     H26391   7.822   7.617   2.632 -1.8689  0.5543 -1.2241
  958MOL0     H26392   7.586   7.569   2.731  2.8970  0.2809  2.0674
  958MOL0     H26393   7.295   7.258   2.746 -0.2526  3.5626 -0.4780
  958MOL0     H26394   7.432   7.143   2.732  3.1037  1.4832 -1.5346
  958MOL0     H26395   7.465   7.198   2.501  0.7440  0.1302  2.7819
  958MOL0     H26396   7.333   7.317   2.505  0.3947 -0.3114  0.4660
  958MOL0     H26397   7.309   7.009   2.526  0.9568  0.0836 -0.8333
  958MOL0     H26398   7.256   7.101   2.388 -1.7463 -4.1178  0.3439
  958MOL0     H26399   7.125   7.122   2.656  1.0124  0.0662 -0.4938
  958MOL0     H26400   7.075   7.193   2.506  1.0687  2.3715  3.3122
  958MOL0     H26401   6.956   6.981   2.595  2.6616 -1.7310  2.3524
  958MOL0     H26402   7.094   6.892   2.559 -0.3096 -0.2332  0.4237
  958MOL0     H26403   7.054   6.902   2.322 -1.7008 -0.8002 -1.9973
  958MOL0     H26404   6.983   7.064   2.327 -0.7399  0.1856  0.7180
  958MOL0     H26405   6.863   6.793   2.388  1.4292 -0.0083 -1.6966
  958MOL0     H26406   6.777   6.945   2.437  0.4336 -0.8126  0.8185
  958MOL0     H26407   6.850   6.978   2.172  2.1425  0.2472  2.1481
  958MOL0     H26408   6.681   6.934   2.232 -0.7864 -1.2056  2.3504
  958MOL0     H26409   6.593   6.777   2.074 -0.2252 -1.0778 -2.6245
  958MOL0     H26410   6.684   6.597   1.803 -1.4492  1.5289  0.2160
  958MOL0     H26411   6.570   6.529   1.913 -0.4338  0.0170  0.7692
  958MOL0     H26412   6.713   6.344   1.944  0.5544  3.1414  3.5336
  958MOL0     H26413   6.854   6.430   1.876  0.0677  3.0961  2.3104
  958MOL0     H26414   6.720   6.438   1.644 -1.9795 -2.0225 -0.3774
  958MOL0     H26415   6.786   6.292   1.701  1.1020  1.0367 -1.7780
  958MOL0     H26416   6.542   6.249   1.799 -0.5455  0.4932 -0.5354
  958MOL0     H26417   6.578   6.244   1.625 -0.1342  0.4227 -0.4237
  958MOL0     H26418   6.354   6.161   1.690 -0.8687 -2.0417  0.3710
  958MOL0     H26419   6.131   6.122   1.620  0.7755 -0.2101 -0.8106
  958MOL0     H26420   5.703   6.260   1.386  0.6555  0.1963  0.7564
  958MOL0     H26421   5.464   6.183   1.372  2.2010  0.5706 -1.8356
  958MOL0     H26422   5.236   5.997   1.379  3.6485  0.5043 -1.5125
  958MOL0     H26423   5.276   6.161   1.437 -1.9547  0.4270  2.3598
  958MOL0     H26424   5.065   6.163   1.512 -3.0332 -1.3822  0.8167
  958MOL0     H26425   5.130   6.087   1.649  0.2857  0.1525  0.5073
  958MOL0     H26426   4.967   5.940   1.614  1.9982 -0.9836  0.2049
  958MOL0     H26427   5.084   5.855   1.525  0.4828  0.2259 -0.9950
  958MOL0     H26428   4.946   6.074   1.366  1.3482 -0.2123 -1.4361
  958MOL0     H26429   4.988   5.910   1.313 -1.1527 -0.2071  0.3609
  958MOL0     H26430   4.782   5.926   1.527  0.8905 -1.4481 -0.9513
  958MOL0     H26431   4.783   5.804   1.400 -0.6639 -0.1635  1.0122
  958MOL0     H26432   4.737   5.973   1.222 -2.6900 -4.3989 -1.2720
  958MOL0     H26433   4.684   6.071   1.359 -0.8861 -0.1116 -1.1241
  958MOL0     H26434   4.528   5.914   1.219  0.2921 -3.1856 -0.8896
  958MOL0     H26435   4.581   5.772   1.309 -1.1250 -1.1327  2.2075
  958MOL0     H26436   4.434   6.011   1.446 -1.8589 -0.1255  1.1477
  958MOL0     H26437   4.519   5.891   1.531 -1.4064 -0.8895  1.4255
  958MOL0     H26438   5.539   5.904   1.685 -1.4528 -2.0184 -1.8689
  958MOL0     H26439   5.782   5.969   1.681 -2.7810 -2.7695  2.2648
  958MOL0     H26440   6.050   6.546   1.607 -1.5623 -0.4305  3.6498
  958MOL0     H26441   6.277   6.583   1.658 -1.7926  0.4134 -2.8519
  958MOL0     H26442   7.654   7.155   2.633  0.9178 -1.0817 -1.8464
  958MOL0     H26443   7.879   7.211   2.555 -0.0445 -0.5926 -0.1073
  958MOL0     H26444   8.067   7.565   2.154 -0.2548 -1.9214 -1.1409
  958MOL0     H26445   8.285   7.545   2.046 -1.0803  1.4270  0.6144
  958MOL0     H26446   8.600   7.317   2.202 -1.4146 -0.2895  1.7351
  958MOL0     H26447   8.642   7.452   2.324  1.9111  2.3848 -0.7761
  958MOL0     H26448   8.743   7.562   2.114 -3.0886  1.4406  3.4782
  958MOL0     H26449   8.825   7.439   2.215  0.9525 -0.3572 -1.1943
  958MOL0     H26450   8.684   7.329   1.959  0.3545 -2.8800  1.0909
  958MOL0     H26451   8.813   7.259   2.054 -0.9048 -2.2038 -2.1451
  958MOL0     H26452   8.904   7.355   1.850  1.3577  1.1577  0.0261
  958MOL0     H26453   8.879   7.521   1.912 -1.5181  0.5847  0.6883
  958MOL0     H26454   9.190   7.331   2.144  0.9019  0.4109 -1.2400
  958MOL0     H26455   8.446   7.384   2.412 -0.4825  1.5017  1.8074
  958MOL0     H26456   8.222   7.390   2.507  1.5405  1.7126  1.3350
  959MOL0     O26457   7.397   6.356   5.871 -0.5713  0.7225 -0.6536
  959MOL0     C26458   7.378   6.242   5.919 -0.1881  0.1345  0.2674
  959MOL0     O26459   7.327   6.202   6.039 -0.2207 -0.1300 -0.3218
  959MOL0     C26460   7.338   6.287   6.149 -0.0998  1.1107  1.1754
  959MOL0     C26461   7.320   6.424   6.157 -0.0480  0.1539  0.4542
  959MOL0     C26462   7.338   6.486   6.276  0.5218  0.5106 -0.9170
  959MOL0     C26463   7.358   6.405   6.395  1.6402 -0.3040  0.2958
  959MOL0     O26464   7.379   6.454   6.517 -0.0464  0.4633 -0.0892
  959MOL0     C26465   7.304   6.569   6.561  0.3758 -0.7135 -0.1878
  959MOL0     C26466   7.388   6.695   6.575 -0.2898 -1.1157 -0.0159
  959MOL0     C26467   7.511   6.668   6.662 -0.5926 -0.5955 -0.6327
  959MOL0     C26468   7.588   6.791   6.718 -0.1783 -0.7401  0.2550
  959MOL0     C26469   7.721   6.745   6.780 -1.3129 -0.5011  0.3669
  959MOL0     C26470   7.812   6.875   6.802 -0.3455  1.3568 -0.2272
  959MOL0     C26471   7.782   6.925   6.947 -1.3429  0.1997 -0.2521
  959MOL0     C26472   7.657   7.011   6.960  0.2320 -0.4977 -0.4753
  959MOL0     N26473   7.657   7.100   7.080  0.3849  0.1571 -0.3620
  959MOL0     C26474   7.557   7.110   7.169 -0.0629 -0.2459 -1.3612
  959MOL0     C26475   7.594   7.216   7.254  0.0748  0.6593  0.6943
  959MOL0     C26476   7.518   7.269   7.378 -0.7504 -0.5405 -0.8014
  959MOL0     C26477   7.499   7.159   7.481 -0.8366  0.2473 -0.6605
  959MOL0     C26478   7.399   7.203   7.586 -0.7484  0.4055  0.2991
  959MOL0     C26479   7.444   7.136   7.716  0.5875 -0.2374  0.9262
  959MOL0     O26480   7.329   7.144   7.796 -0.2074 -0.2321  0.0593
  959MOL0     C26481   7.332   7.075   7.909  0.0021  0.2160  0.0764
  959MOL0     C26482   7.225   7.094   7.997  0.0569 -0.2352  0.1743
  959MOL0     C26483   7.234   7.059   8.131 -0.0931  0.8304  0.7973
  959MOL0     C26484   7.342   6.996   8.183 -0.2760 -0.0345 -0.4176
  959MOL0     C26485   7.356   6.962   8.331 -1.1343 -1.3781 -0.2664
  959MOL0     O26486   7.486   6.941   8.385  0.4507 -0.5608  0.4809
  959MOL0     C26487   7.512   6.908   8.513 -0.0566 -1.0274  0.3410
  959MOL0     C26488   7.442   6.805   8.582 -0.0997 -0.6743 -0.1485
  959MOL0     C26489   7.484   6.774   8.708  0.6298 -0.6655  0.7319
  959MOL0     C26490   7.580   6.836   8.777 -0.5249 -0.5257  0.0633
  959MOL0     O26491   7.618   6.810   8.909 -0.2311 -0.0355  0.1702
  959MOL0     C26492   7.627   6.673   8.942 -0.5669 -0.7239 -0.0358
  959MOL0     C26493   7.689   6.659   9.075 -0.4726 -0.1055  0.8112
  959MOL0     C26494   7.827   6.738   9.072  0.2873  0.0013  0.2383
  959MOL0     C26495   7.954   6.693   8.989 -0.3290 -0.4668 -0.2241
  959MOL0     C26496   8.036   6.572   9.046  0.1482 -1.2167  0.8731
  959MOL0     C26497   8.152   6.514   8.968  0.3748 -0.2743  0.0466
  959MOL0     C26498   8.259   6.605   8.907  1.9020 -0.6939 -0.3975
  959MOL0     C26499   8.287   6.576   8.757 -0.1619  0.3714 -0.1730
  959MOL0    Cl26500   8.158   6.631   8.648  0.3837 -0.1018 -0.6856
  959MOL0     C26501   7.638   6.949   8.714  0.1819 -0.0372  0.1477
  959MOL0     C26502   7.611   6.982   8.582  0.1767  0.6095 -0.0927
  959MOL0     O26503   7.254   6.960   8.395  0.7980 -0.1663 -0.0233
  959MOL0     C26504   7.448   6.981   8.099 -0.7980  0.0011  0.3324
  959MOL0     C26505   7.447   7.017   7.965 -0.5823 -0.0277  0.2640
  959MOL0     N26506   7.711   7.263   7.210 -0.5953  0.7690 -0.7378
  959MOL0     N26507   7.754   7.190   7.110 -0.1046 -0.5707 -0.6031
  959MOL0     C26508   7.355   6.269   6.387 -0.1622 -0.3342 -0.9767
  959MOL0     C26509   7.361   6.210   6.263  0.5019 -0.5346 -0.6010
  959MOL0     C26510   7.386   6.133   5.833 -0.2966  0.2543  0.5315
  959MOL0     C26511   7.405   6.145   5.694  0.2048 -0.2984 -0.5991
  959MOL0     C26512   7.428   6.035   5.610 -0.2713 -0.1405  0.9968
  959MOL0     C26513   7.447   5.906   5.659 -0.3114  0.7806 -0.4704
  959MOL0     O26514   7.451   5.801   5.569 -0.8380  1.2644  0.4891
  959MOL0     C26515   7.494   5.673   5.619  0.1449  1.2711  0.2325
  959MOL0     C26516   7.512   5.585   5.497  0.7186 -0.2576 -0.7705
  959MOL0     C26517   7.564   5.449   5.545  0.7192  0.8788  0.3530
  959MOL0     C26518   7.526   5.337   5.457 -0.4903 -0.1990  0.1237
  959MOL0     C26519   7.390   5.293   5.481  0.5888 -0.5988 -0.6724
  959MOL0     C26520   7.281   5.242   5.496 -0.0219  0.1730  0.2069
  959MOL0     C26521   7.439   5.885   5.791  0.0659  0.2853  1.2064
  959MOL0     C26522   7.408   5.995   5.877  0.5397 -0.1612  0.9492
  959MOL0     H26523   7.299   6.487   6.070  1.3109 -0.5235 -0.4042
  959MOL0     H26524   7.341   6.593   6.294 -0.6105  0.1273  2.1748
  959MOL0     H26525   7.260   6.537   6.656  2.1880 -1.6662  0.3734
  959MOL0     H26526   7.217   6.597   6.500  0.2773  0.4991  0.4657
  959MOL0     H26527   7.322   6.767   6.623  0.6324 -0.9467  1.0385
  959MOL0     H26528   7.415   6.744   6.480 -1.8422  1.9964  0.9892
  959MOL0     H26529   7.579   6.609   6.599  2.3576 -0.7893  2.4721
  959MOL0     H26530   7.484   6.603   6.745 -0.2104 -1.3902 -1.1190
  959MOL0     H26531   7.609   6.866   6.641 -1.4518 -2.3556 -1.7637
  959MOL0     H26532   7.533   6.841   6.798  0.3681 -0.0615  0.2156
  959MOL0     H26533   7.776   6.692   6.702 -0.5337  2.4554 -1.2401
  959MOL0     H26534   7.702   6.680   6.866  3.1898  1.8973  3.6328
  959MOL0     H26535   7.788   6.952   6.727 -0.1829  2.7189  1.0701
  959MOL0     H26536   7.914   6.840   6.784 -1.4385 -1.3694 -1.7370
  959MOL0     H26537   7.778   6.845   7.022  0.0083  1.2921  1.0464
  959MOL0     H26538   7.874   6.980   6.969 -0.3084 -1.8033  0.6689
  959MOL0     H26539   7.561   6.960   6.956 -0.3767  0.5335  0.4362
  959MOL0     H26540   7.656   7.073   6.869 -0.7877  1.3052  0.7028
  959MOL0     H26541   7.465   7.054   7.181  0.1396 -0.3638 -0.2315
  959MOL0     H26542   7.424   7.308   7.336 -0.5703 -2.2036 -2.9296
  959MOL0     H26543   7.578   7.349   7.422 -0.6794 -1.0410  0.0179
  959MOL0     H26544   7.599   7.143   7.521 -0.3134  1.3012 -1.4898
  959MOL0     H26545   7.446   7.075   7.434 -1.1478 -0.9327  1.6872
  959MOL0     H26546   7.408   7.310   7.605  0.2485  0.7393 -1.8344
  959MOL0     H26547   7.296   7.178   7.558 -0.8451  0.0676  0.9328
  959MOL0     H26548   7.532   7.190   7.753 -0.0704  1.4721  0.0923
  959MOL0     H26549   7.474   7.033   7.697 -0.8376 -0.1081 -2.8145
  959MOL0     H26550   7.132   7.147   7.976 -0.0808 -0.1630  0.9229
  959MOL0     H26551   7.148   7.095   8.186 -1.0082  1.1571 -0.7941
  959MOL0     H26552   7.361   6.748   8.538 -1.4129  0.5825  0.5613
  959MOL0     H26553   7.423   6.705   8.766  0.2310 -0.5547  0.4495
  959MOL0     H26554   7.700   6.628   8.874  2.3560  1.8029  1.1972
  959MOL0     H26555   7.529   6.626   8.935 -0.3235 -1.2098 -0.2328
  959MOL0     H26556   7.708   6.557   9.109  2.0145 -0.3663 -1.0740
  959MOL0     H26557   7.630   6.702   9.157 -1.3438  0.3861 -0.0543
  959MOL0     H26558   7.853   6.728   9.178 -1.2871 -1.7010  0.5132
  959MOL0     H26559   7.814   6.842   9.041  1.2516  0.1073  0.1430
  959MOL0     H26560   7.913   6.657   8.894  2.5907 -1.4691 -1.2100
  959MOL0     H26561   8.015   6.783   8.973 -2.7350  1.5332  1.1981
  959MOL0     H26562   7.959   6.497   9.066 -0.0203 -1.2203  0.2565
  959MOL0     H26563   8.080   6.603   9.141 -0.6837  1.6752  0.4023
  959MOL0     H26564   8.117   6.448   8.888 -1.2969  1.2979 -0.5952
  959MOL0     H26565   8.219   6.451   9.026  1.8661  1.2038 -0.0087
  959MOL0     H26566   8.232   6.711   8.917 -2.5923 -1.7379  0.4324
  959MOL0     H26567   8.352   6.595   8.965  1.2961  0.3735  0.8140
  959MOL0     H26568   8.310   6.469   8.748  0.7536  0.4114  1.3150
  959MOL0     H26569   8.379   6.632   8.740 -1.0272  2.4523  1.6400
  959MOL0     H26570   7.715   7.006   8.766  1.7595 -1.6520 -0.2799
  959MOL0     H26571   7.656   7.069   8.535  2.0547 -0.6058 -0.6533
  959MOL0     H26572   7.537   6.927   8.131  0.9369  2.3798 -0.1956
  959MOL0     H26573   7.540   7.002   7.911  0.7883 -1.3430  2.7680
  959MOL0     H26574   7.366   6.200   6.470 -3.5064  2.0056  1.7002
  959MOL0     H26575   7.372   6.102   6.258  0.9289 -0.5208 -0.1194
  959MOL0     H26576   7.408   6.249   5.663  1.9315  0.7402  2.5624
  959MOL0     H26577   7.437   6.046   5.502 -3.6204  2.1237  0.7958
  959MOL0     H26578   7.427   5.626   5.692 -1.2869  1.5818 -0.8352
  959MOL0     H26579   7.594   5.688   5.660  0.2787  1.3089 -0.0982
  959MOL0     H26580   7.409   5.572   5.462 -0.7241  0.3156  2.8152
  959MOL0     H26581   7.579   5.630   5.424 -0.7536 -0.9465 -2.6242
  959MOL0     H26582   7.549   5.426   5.650 -1.2053  1.3319  0.2190
  959MOL0     H26583   7.672   5.455   5.555  0.6824  1.6268  0.4148
  959MOL0     H26584   7.551   5.355   5.351  2.4170  1.6234  0.9884
  959MOL0     H26585   7.579   5.254   5.504  0.1390  0.8738  1.3842
  959MOL0     H26586   7.199   5.173   5.504  1.0786 -2.2466 -4.9764
  959MOL0     H26587   7.448   5.788   5.837 -1.7607 -2.3805 -3.3744
  959MOL0     H26588   7.396   5.964   5.980  0.3984 -1.2382  0.6224
  960MOL0     O26589   0.942   7.009   3.583 -0.1050 -0.2414  0.0059
  960MOL0     C26590   0.998   6.901   3.576  0.6777 -0.4235  0.4031
  960MOL0     O26591   0.934   6.793   3.517 -0.3873 -0.6166 -0.4092
  960MOL0     C26592   0.800   6.769   3.489  0.3710  0.1775  0.5278
  960MOL0     C26593   0.694   6.854   3.507 -0.3971  0.3966  0.4279
  960MOL0     C26594   0.564   6.815   3.461  0.2275  0.4869  1.3281
  960MOL0     C26595   0.541   6.683   3.397 -0.9210 -1.1223  0.1071
  960MOL0     O26596   0.427   6.626   3.351  0.9953 -0.2282 -0.3292
  960MOL0     C26597   0.297   6.683   3.381 -0.1624 -0.1459 -0.4733
  960MOL0     C26598   0.189   6.633   3.293  0.4870 -0.0688 -0.5125
  960MOL0     C26599   0.081   6.736   3.298 -0.2632  0.4595  0.8946
  960MOL0     C26600  -0.048   6.680   3.231  0.2885 -0.4013  0.1807
  960MOL0     C26601  -0.146   6.795   3.208 -0.3882 -0.0626  0.0759
  960MOL0     C26602  -0.207   6.857   3.328  0.9723 -0.5979 -0.5151
  960MOL0     C26603  -0.305   6.761   3.394 -0.3461 -0.4417  0.0891
  960MOL0     C26604  -0.410   6.828   3.479  0.9094  0.2781  0.3744
  960MOL0     N26605  -0.350   6.896   3.588 -0.1980  0.1800 -0.2848
  960MOL0     C26606  -0.297   6.839   3.706  0.5531  0.0808 -0.1337
  960MOL0     C26607  -0.233   6.940   3.773  0.0519  1.2321  1.0640
  960MOL0     C26608  -0.176   6.949   3.915 -0.3684 -0.8081 -0.4171
  960MOL0     C26609  -0.026   6.979   3.912  0.4959  0.1778 -1.1608
  960MOL0     C26610   0.017   7.004   4.060 -0.1702 -0.3576  1.2830
  960MOL0     C26611   0.166   7.044   4.064 -0.3686 -0.3564  0.6980
  960MOL0     O26612   0.212   7.103   4.185 -0.2650 -0.5882 -0.0236
  960MOL0     C26613   0.352   7.098   4.224 -0.2812 -0.1332 -0.3486
  960MOL0     C26614   0.378   7.138   4.355  0.5017  0.8941  1.4037
  960MOL0     C26615   0.510   7.137   4.411  0.1005  0.2764  0.2980
  960MOL0     C26616   0.618   7.096   4.324  0.8171 -0.1271  0.3845
  960MOL0     C26617   0.756   7.102   4.378  0.1121  0.0543  0.5727
  960MOL0     O26618   0.777   7.120   4.515 -0.3659 -0.1295  0.6329
  960MOL0     C26619   0.910   7.133   4.550 -0.3775  0.4789 -0.3126
  960MOL0     C26620   0.973   7.026   4.627  0.4005 -0.1631 -0.2825
  960MOL0     C26621   1.112   7.023   4.649  0.1943 -0.0831  1.4051
  960MOL0     C26622   1.185   7.135   4.622 -0.0013 -0.2962 -0.1055
  960MOL0     O26623   1.310   7.129   4.670 -0.2030  0.1455  0.2246
  960MOL0     C26624   1.396   7.242   4.663 -0.8160  1.1428  0.4865
  960MOL0     C26625   1.526   7.238   4.754 -0.0398  0.3376  0.8641
  960MOL0     C26626   1.640   7.135   4.709  0.8563  0.3044 -0.3492
  960MOL0     C26627   1.715   7.179   4.582  0.3117  0.1284  0.2515
  960MOL0     C26628   1.808   7.072   4.525 -0.2563  0.7840 -0.4086
  960MOL0     C26629   1.923   7.122   4.448 -0.0413 -0.1646  0.0139
  960MOL0     C26630   1.987   7.003   4.384  0.5331 -1.1423  1.3836
  960MOL0     C26631   2.111   7.058   4.313  0.7482  0.6684 -0.7453
  960MOL0    Cl26632   2.258   7.083   4.427 -0.4296 -0.2973  0.0768
  960MOL0     C26633   1.117   7.255   4.577 -0.3311  0.3704  0.2019
  960MOL0     C26634   0.983   7.249   4.541 -0.7176  0.2835 -0.6474
  960MOL0     O26635   0.842   7.075   4.291  0.3724  0.3179  0.1767
  960MOL0     C26636   0.588   7.076   4.186 -0.3692 -0.1681 -0.2048
  960MOL0     C26637   0.461   7.076   4.139  0.4990  0.3419  0.1655
  960MOL0     N26638  -0.244   7.044   3.682 -0.2666  0.1560  1.1371
  960MOL0     N26639  -0.313   7.024   3.577 -0.0352 -0.1030  1.6236
  960MOL0     C26640   0.662   6.619   3.365 -1.1740  0.2878  1.1038
  960MOL0     C26641   0.787   6.655   3.416 -0.3098  1.1159 -0.3086
  960MOL0     C26642   1.149   6.894   3.592  0.6441  0.7564 -0.0020
  960MOL0     C26643   1.224   7.006   3.617 -0.1063 -0.4268 -0.3695
  960MOL0     C26644   1.361   6.997   3.645 -0.3008 -0.0143 -1.0840
  960MOL0     C26645   1.432   6.876   3.628  0.6005  0.8545 -0.3181
  960MOL0     O26646   1.564   6.855   3.641 -0.6362 -0.0640  0.5949
  960MOL0     C26647   1.634   6.960   3.702 -0.6715  0.2511 -0.1433
  960MOL0     C26648   1.786   6.933   3.726 -0.0367 -0.1260  0.3043
  960MOL0     C26649   1.835   7.048   3.818 -0.3446 -0.2375 -0.4881
  960MOL0     C26650   1.985   7.051   3.823 -1.2056  0.7285 -0.1998
  960MOL0     C26651   2.041   7.144   3.725 -1.1241  0.1710 -0.5635
  960MOL0     C26652   2.084   7.218   3.640  0.0205  0.1688  0.8393
  960MOL0     C26653   1.351   6.766   3.601  0.2479  0.6354 -0.6765
  960MOL0     C26654   1.214   6.774   3.580  0.3420  0.2639 -0.2375
  960MOL0     H26655   0.704   6.956   3.543  0.1886  0.1316  1.0258
  960MOL0     H26656   0.486   6.890   3.468  0.0579  0.4996 -0.2633
  960MOL0     H26657   0.302   6.792   3.374 -0.0123 -0.1302 -0.1382
  960MOL0     H26658   0.274   6.650   3.483  2.0087 -1.0233 -0.2172
  960MOL0     H26659   0.135   6.545   3.326  0.4682  0.7841  1.9396
  960MOL0     H26660   0.222   6.624   3.189 -0.4388 -0.5165 -0.7728
  960MOL0     H26661   0.096   6.827   3.239 -0.5449 -0.2413 -0.2815
  960MOL0     H26662   0.063   6.763   3.403 -1.1814  1.6922  0.4511
  960MOL0     H26663  -0.032   6.645   3.129  0.3265  2.8505 -1.0719
  960MOL0     H26664  -0.095   6.595   3.280  0.7931 -2.6382 -2.8915
  960MOL0     H26665  -0.232   6.780   3.142  1.3444 -0.0085 -2.3087
  960MOL0     H26666  -0.086   6.875   3.164 -3.1030  2.1236  0.0455
  960MOL0     H26667  -0.263   6.945   3.293 -2.7831 -1.9253  1.5571
  960MOL0     H26668  -0.135   6.889   3.404 -0.3435 -0.0673  0.5474
  960MOL0     H26669  -0.350   6.702   3.314  1.0083  0.2308 -1.2133
  960MOL0     H26670  -0.238   6.704   3.460  1.2315  0.5714 -0.5774
  960MOL0     H26671  -0.485   6.758   3.517  1.2158  0.3278  1.0840
  960MOL0     H26672  -0.467   6.899   3.418  1.4402 -0.8952 -1.5794
  960MOL0     H26673  -0.322   6.744   3.751 -0.9161  0.1676 -0.7036
  960MOL0     H26674  -0.194   6.859   3.973  4.2964 -1.6336  0.1781
  960MOL0     H26675  -0.218   7.033   3.971 -1.1791 -1.4743 -0.0073
  960MOL0     H26676   0.003   7.057   3.842  0.7643  1.9269  0.8130
  960MOL0     H26677   0.021   6.889   3.871  0.5528  0.4739 -1.7404
  960MOL0     H26678  -0.040   7.094   4.085  2.1738  1.3404  0.8868
  960MOL0     H26679  -0.005   6.925   4.131  2.4130 -1.1032  1.3627
  960MOL0     H26680   0.189   7.107   3.978 -0.9483 -2.7617 -1.3575
  960MOL0     H26681   0.216   6.949   4.043 -2.3211 -0.7896 -2.6054
  960MOL0     H26682   0.298   7.174   4.419  0.4768  0.0079  1.8963
  960MOL0     H26683   0.528   7.165   4.514  0.5832  0.6679  0.1138
  960MOL0     H26684   0.909   6.940   4.642 -2.8073  1.6272 -2.4260
  960MOL0     H26685   1.150   6.935   4.699 -1.4859 -1.7663 -0.1120
  960MOL0     H26686   1.334   7.327   4.693 -2.4918  0.8396 -1.8960
  960MOL0     H26687   1.428   7.269   4.562 -3.7947  1.3998 -0.4744
  960MOL0     H26688   1.500   7.206   4.856  0.9647 -1.7536  0.5081
  960MOL0     H26689   1.582   7.332   4.765 -1.8353  1.7388 -1.1025
  960MOL0     H26690   1.602   7.033   4.707 -1.0020  0.9409 -0.0110
  960MOL0     H26691   1.710   7.139   4.792  1.1932 -4.3068 -0.1697
  960MOL0     H26692   1.647   7.216   4.505  1.1233  2.4422  0.5575
  960MOL0     H26693   1.771   7.264   4.622  0.0868 -0.3042  1.5350
  960MOL0     H26694   1.745   7.015   4.456  0.5105  0.6330 -0.9935
  960MOL0     H26695   1.844   7.015   4.611 -2.5215 -0.6151 -0.3050
  960MOL0     H26696   1.995   7.160   4.521  0.3844 -0.0311 -0.4692
  960MOL0     H26697   1.879   7.186   4.372 -4.4968 -1.6045  1.0942
  960MOL0     H26698   2.010   6.924   4.455 -1.6404 -0.9269  2.4065
  960MOL0     H26699   1.938   6.956   4.298  0.9423  0.8387 -0.0077
  960MOL0     H26700   2.091   7.151   4.260 -2.3403  2.0663  2.5244
  960MOL0     H26701   2.148   6.977   4.248  1.0613 -0.2172  0.4888
  960MOL0     H26702   1.179   7.342   4.555 -1.5104  1.2717  0.3343
  960MOL0     H26703   0.955   7.336   4.483 -0.1940  2.5505  2.2717
  960MOL0     H26704   0.663   7.048   4.113 -0.8372  0.6291 -1.0147
  960MOL0     H26705   0.449   7.060   4.032  0.0433 -0.6942  0.3655
  960MOL0     H26706   0.645   6.519   3.324  0.6875  0.4337 -0.1880
  960MOL0     H26707   0.875   6.594   3.401 -0.7436  0.6523 -1.1066
  960MOL0     H26708   1.169   7.097   3.638 -1.8138 -1.0616 -1.7773
  960MOL0     H26709   1.410   7.090   3.671  1.0606 -0.5564 -1.6359
  960MOL0     H26710   1.586   7.001   3.792 -2.0289  0.4316 -0.9256
  960MOL0     H26711   1.631   7.045   3.635  2.3343  1.2743  0.8591
  960MOL0     H26712   1.806   6.838   3.777 -1.4944 -0.6782 -0.0935
  960MOL0     H26713   1.833   6.937   3.627 -1.5184 -1.4341 -0.5167
  960MOL0     H26714   1.789   7.048   3.917  0.0813  0.9772 -0.2765
  960MOL0     H26715   1.809   7.147   3.781  4.5018  1.2864 -0.5092
  960MOL0     H26716   2.020   7.094   3.918  1.7245 -0.6443 -0.5361
  960MOL0     H26717   2.020   6.950   3.801  1.0948  1.6597 -1.1320
  960MOL0     H26718   2.121   7.303   3.586 -0.4925  0.2229  0.5671
  960MOL0     H26719   1.407   6.674   3.588 -1.2391  0.0175 -3.6854
  960MOL0     H26720   1.157   6.682   3.579  0.1662  0.3380 -2.6958
  961MOL0     O26721   3.031   6.768   8.985 -0.1792 -0.0708 -0.5480
  961MOL0     C26722   3.146   6.738   9.017  0.8031  1.5126  0.8637
  961MOL0     O26723   3.198   6.731   9.138  0.6879 -0.9574 -0.1370
  961MOL0     C26724   3.122   6.730   9.247  0.9008 -1.0793  0.3061
  961MOL0     C26725   3.005   6.654   9.256 -0.2799 -0.0865 -0.8620
  961MOL0     C26726   2.922   6.669   9.361  0.0141 -0.0437 -0.9169
  961MOL0     C26727   2.944   6.768   9.468 -0.1146 -0.3784 -0.5428
  961MOL0     O26728   2.861   6.796   9.576  0.0691  1.0013 -0.6310
  961MOL0     C26729   2.751   6.702   9.601  0.0105  0.1194  0.0883
  961MOL0     C26730   2.619   6.753   9.551  0.6113  1.1125  0.3822
  961MOL0     C26731   2.573   6.889   9.611  0.5929 -0.3976  0.1412
  961MOL0     C26732   2.424   6.910   9.608  0.3068  0.0144 -0.1317
  961MOL0     C26733   2.349   6.818   9.705 -0.3210 -0.7019 -0.0636
  961MOL0     C26734   2.203   6.863   9.737  1.5771 -0.6533  0.3745
  961MOL0     C26735   2.113   6.881   9.605 -0.6394 -0.1142  0.6368
  961MOL0     C26736   1.976   6.927   9.644 -0.5180 -0.1481 -0.3600
  961MOL0     N26737   1.959   7.059   9.711 -0.4937 -0.0499  0.3851
  961MOL0     C26738   2.055   7.156   9.711  0.2517  0.3142 -0.3095
  961MOL0     C26739   1.987   7.265   9.774 -0.0276 -0.7228 -0.2322
  961MOL0     C26740   2.014   7.406   9.766 -0.2287 -0.1153 -0.1424
  961MOL0     C26741   2.143   7.443   9.698 -0.5350 -0.1244  0.6831
  961MOL0     C26742   2.127   7.449   9.550 -0.9621 -0.4767 -0.3138
  961MOL0     C26743   2.259   7.488   9.480  0.5801  0.5998  0.9044
  961MOL0     O26744   2.352   7.380   9.478  0.1581 -0.4119 -1.1540
  961MOL0     C26745   2.476   7.403   9.428  0.1200 -0.1253  0.5215
  961MOL0     C26746   2.550   7.523   9.420  0.4393 -0.9009  0.7096
  961MOL0     C26747   2.684   7.528   9.358 -0.1366  0.2625  0.5894
  961MOL0     C26748   2.732   7.409   9.300  0.6461 -0.2771  0.2660
  961MOL0     C26749   2.862   7.402   9.231  0.5291  0.4456  0.1397
  961MOL0     O26750   2.923   7.279   9.197 -0.0767  0.3510  0.8877
  961MOL0     C26751   3.032   7.267   9.117 -0.4104  0.3259 -0.1709
  961MOL0     C26752   3.097   7.147   9.129  0.0780 -0.3037 -0.3748
  961MOL0     C26753   3.212   7.108   9.045  0.5348  0.1332  0.2736
  961MOL0     C26754   3.240   7.190   8.935 -0.3493 -0.6059  0.2411
  961MOL0     O26755   3.351   7.174   8.850 -0.3319 -0.1444  0.3746
  961MOL0     C26756   3.451   7.093   8.911 -0.5414  0.0288  0.1005
  961MOL0     C26757   3.580   7.102   8.828 -0.4005 -1.0119 -0.9772
  961MOL0     C26758   3.649   7.245   8.834 -0.9897 -0.0161  0.0679
  961MOL0     C26759   3.802   7.243   8.802 -1.0641  0.9556  0.5047
  961MOL0     C26760   3.826   7.237   8.650 -0.1337  0.1247  0.7164
  961MOL0     C26761   3.962   7.161   8.616  0.2233 -0.7422 -0.5912
  961MOL0     C26762   4.083   7.223   8.692  0.4282  0.1681  0.1317
  961MOL0     C26763   4.110   7.369   8.668 -0.3373 -1.0289 -0.1647
  961MOL0    Cl26764   4.173   7.403   8.501  0.1370  0.2373 -0.1711
  961MOL0     C26765   3.166   7.314   8.915 -0.8613 -0.7766 -0.2128
  961MOL0     C26766   3.065   7.355   9.004 -0.2869  0.5036 -0.8695
  961MOL0     O26767   2.909   7.508   9.210 -0.8525 -0.1657 -0.0772
  961MOL0     C26768   2.659   7.290   9.322 -0.0946  0.4600  0.0099
  961MOL0     C26769   2.535   7.287   9.380 -0.5492 -0.3116  0.2649
  961MOL0     N26770   1.864   7.217   9.815 -0.1960  0.7416 -0.6862
  961MOL0     N26771   1.858   7.093   9.781  0.0878  0.0434 -0.3374
  961MOL0     C26772   3.075   6.823   9.464 -1.1770 -0.4118  0.1326
  961MOL0     C26773   3.151   6.815   9.347  1.4266 -0.2922 -0.0229
  961MOL0     C26774   3.241   6.737   8.902 -0.1874  1.2855 -0.0359
  961MOL0     C26775   3.189   6.751   8.766 -0.0605 -0.3045 -0.0361
  961MOL0     C26776   3.278   6.754   8.658  0.2070 -0.3146 -0.0720
  961MOL0     C26777   3.416   6.752   8.683 -0.0105  0.0662 -0.3847
  961MOL0     O26778   3.512   6.758   8.589  0.2001  0.5126  0.6946
  961MOL0     C26779   3.463   6.770   8.455  0.6324 -0.6493 -0.3337
  961MOL0     C26780   3.576   6.767   8.347  0.8632  0.7653  0.9174
  961MOL0     C26781   3.639   6.634   8.339 -0.0353  1.0562  0.7772
  961MOL0     C26782   3.779   6.628   8.277  0.0510  0.5035  0.7754
  961MOL0     C26783   3.793   6.516   8.187  0.6547  0.3184  0.8920
  961MOL0     C26784   3.781   6.438   8.094  0.7210  0.5864  0.5144
  961MOL0     C26785   3.462   6.726   8.809 -0.7702 -0.6029  0.4326
  961MOL0     C26786   3.376   6.710   8.919  0.2894 -0.5621  0.2198
  961MOL0     H26787   2.994   6.576   9.180  1.7898 -0.5543 -0.7163
  961MOL0     H26788   2.835   6.605   9.347  0.2376 -0.3301 -0.9856
  961MOL0     H26789   2.749   6.698   9.710 -0.6550 -0.4237  0.0605
  961MOL0     H26790   2.775   6.601   9.568 -0.6852 -0.3274  0.9101
  961MOL0     H26791   2.550   6.670   9.569  0.8294  0.8430 -0.0129
  961MOL0     H26792   2.630   6.759   9.443  1.4690 -0.7668  0.3261
  961MOL0     H26793   2.615   6.962   9.542  0.1761  0.0948  0.4018
  961MOL0     H26794   2.609   6.911   9.712 -1.8981  2.3607  0.5516
  961MOL0     H26795   2.398   7.014   9.626 -0.6381 -0.6819  3.1061
  961MOL0     H26796   2.379   6.886   9.511 -2.5638  0.9720  0.8681
  961MOL0     H26797   2.392   6.810   9.805 -0.8198  0.6551  0.2721
  961MOL0     H26798   2.340   6.717   9.664 -0.6952 -0.4686 -0.5586
  961MOL0     H26799   2.205   6.948   9.805 -2.0618 -2.4657  3.0796
  961MOL0     H26800   2.146   6.794   9.800 -1.5001  0.7579 -0.6480
  961MOL0     H26801   2.162   6.953   9.538 -1.2241 -1.2951 -1.1508
  961MOL0     H26802   2.108   6.786   9.551  2.2138 -0.6859  1.1833
  961MOL0     H26803   1.934   6.862   9.720 -2.6255  0.5090 -0.8852
  961MOL0     H26804   1.921   6.924   9.549  1.4688  2.5657 -1.7278
  961MOL0     H26805   2.149   7.154   9.656 -0.9204 -2.3344 -2.4465
  961MOL0     H26806   2.017   7.448   9.866  0.3728  1.2947 -0.7264
  961MOL0     H26807   1.931   7.443   9.706  2.3554  4.5332 -1.3224
  961MOL0     H26808   2.221   7.372   9.727 -0.5546 -0.9802 -1.1827
  961MOL0     H26809   2.166   7.543   9.737 -0.0795 -1.0929  3.0809
  961MOL0     H26810   2.091   7.352   9.516 -0.6009 -0.4037 -0.9268
  961MOL0     H26811   2.054   7.528   9.533 -1.2147  0.1666  3.0781
  961MOL0     H26812   2.306   7.572   9.532  5.4766 -0.1935 -1.6400
  961MOL0     H26813   2.243   7.519   9.377  2.7981  1.5368  0.7699
  961MOL0     H26814   2.494   7.612   9.447 -2.5842 -2.0607 -1.2598
  961MOL0     H26815   2.745   7.617   9.348 -1.3231  1.0776  0.4420
  961MOL0     H26816   3.077   7.069   9.201 -2.4981  0.1436 -0.5190
  961MOL0     H26817   3.267   7.019   9.076 -0.5211 -0.3603  0.8048
  961MOL0     H26818   3.422   6.988   8.918 -2.7037  0.3616 -2.3724
  961MOL0     H26819   3.470   7.125   9.014  1.8787  1.4873 -0.7250
  961MOL0     H26820   3.575   7.061   8.726  0.2761  0.3167 -1.5581
  961MOL0     H26821   3.656   7.038   8.874 -1.0171  1.3142  3.9480
  961MOL0     H26822   3.626   7.283   8.934 -2.3299  0.2035 -0.3129
  961MOL0     H26823   3.599   7.308   8.760 -0.6852 -0.7035 -0.7418
  961MOL0     H26824   3.846   7.336   8.839 -2.8886  1.4868  1.4569
  961MOL0     H26825   3.841   7.153   8.850 -2.9238 -1.7359 -2.5973
  961MOL0     H26826   3.820   7.337   8.606 -0.8451  1.4526  3.6046
  961MOL0     H26827   3.743   7.182   8.605  1.1507 -0.4820 -1.0228
  961MOL0     H26828   3.983   7.161   8.509  2.3781 -3.0751 -0.2453
  961MOL0     H26829   3.950   7.057   8.646 -0.3484 -0.7661 -0.8838
  961MOL0     H26830   4.064   7.212   8.799  1.1662 -0.0230  0.2448
  961MOL0     H26831   4.178   7.174   8.669  1.4324  2.1030 -0.0438
  961MOL0     H26832   4.191   7.394   8.737 -0.4361 -2.4018  0.4791
  961MOL0     H26833   4.025   7.429   8.702  0.4502  0.7360 -1.1849
  961MOL0     H26834   3.190   7.386   8.838  2.2766 -2.3892 -0.9238
  961MOL0     H26835   3.022   7.454   8.996 -1.4464  0.0506 -0.5051
  961MOL0     H26836   2.698   7.192   9.298 -1.1639 -0.9294  3.3690
  961MOL0     H26837   2.485   7.193   9.404 -1.0663 -0.0437  0.2543
  961MOL0     H26838   3.110   6.886   9.545 -1.9949 -1.4256  1.3076
  961MOL0     H26839   3.241   6.874   9.345  0.7428  0.8155  0.7883
  961MOL0     H26840   3.084   6.763   8.740  1.1145  2.3875 -4.5616
  961MOL0     H26841   3.239   6.773   8.558 -0.7395 -1.0110  0.1586
  961MOL0     H26842   3.429   6.874   8.449  0.5000 -0.4163  2.7224
  961MOL0     H26843   3.394   6.688   8.434 -0.5357  0.2918 -0.2520
  961MOL0     H26844   3.522   6.790   8.254  2.6371 -1.5721 -0.7996
  961MOL0     H26845   3.645   6.850   8.362  0.5500  0.7880  2.4130
  961MOL0     H26846   3.570   6.589   8.267 -1.0936  2.8003  0.6482
  961MOL0     H26847   3.627   6.584   8.436 -2.7237 -0.8502 -0.4139
  961MOL0     H26848   3.793   6.720   8.220 -1.8668  0.0698 -0.4498
  961MOL0     H26849   3.850   6.623   8.361 -0.2340 -3.2998  0.9310
  961MOL0     H26850   3.767   6.366   8.016 -0.6093  1.1989  0.1720
  961MOL0     H26851   3.569   6.719   8.823 -0.7194  0.0698  0.4150
  961MOL0     H26852   3.413   6.685   9.018 -1.4291 -0.0318  1.0385
  962MOL0     O26853   4.748  10.505   9.168  1.2137 -0.5035 -0.0309
  962MOL0     C26854   4.742  10.395   9.118 -0.6553 -0.3343 -0.6725
  962MOL0     O26855   4.631  10.330   9.089  0.2432  0.7835  1.3249
  962MOL0     C26856   4.510  10.384   9.062 -0.1049 -0.7656  0.9171
  962MOL0     C26857   4.496  10.520   9.019 -0.8607  0.0110  0.4816
  962MOL0     C26858   4.372  10.569   8.982 -0.3132  0.2848  0.7979
  962MOL0     C26859   4.255  10.492   8.996  0.2141 -0.5408  0.9011
  962MOL0     O26860   4.134  10.549   8.981 -0.0305  1.2182  0.1187
  962MOL0     C26861   4.113  10.631   9.101  0.0695  0.8752  0.0659
  962MOL0     C26862   3.971  10.702   9.099  0.0570  0.4452 -0.1913
  962MOL0     C26863   3.965  10.809   8.993  0.0080  0.1824 -0.2033
  962MOL0     C26864   3.934  10.759   8.854 -0.2435 -0.4647 -0.0642
  962MOL0     C26865   4.002  10.851   8.744 -0.1983  0.0080  0.0544
  962MOL0     C26866   3.911  10.862   8.615 -0.7434 -0.1559 -0.1969
  962MOL0     C26867   3.994  10.931   8.497 -0.5644 -1.0532  0.7108
  962MOL0     C26868   3.966  10.878   8.350 -0.3469  0.2515  0.1092
  962MOL0     N26869   3.818  10.867   8.328 -0.5163 -0.5099  0.8092
  962MOL0     C26870   3.719  10.953   8.374 -0.0984 -0.6290 -0.1724
  962MOL0     C26871   3.595  10.892   8.365 -0.1625  0.6260 -0.0125
  962MOL0     C26872   3.468  10.940   8.417  0.2734  0.2739 -2.1905
  962MOL0     C26873   3.482  10.971   8.569  0.2217  1.2737  0.9155
  962MOL0     C26874   3.361  10.979   8.663 -0.2008 -0.4454  0.7217
  962MOL0     C26875   3.393  10.989   8.809  0.2414 -0.3249  0.1450
  962MOL0     O26876   3.268  10.960   8.873  0.0152 -0.4151 -0.0824
  962MOL0     C26877   3.173  11.056   8.889  0.8534  0.1982  0.0844
  962MOL0     C26878   3.067  11.018   8.967  0.8038 -0.0745 -0.1243
  962MOL0     C26879   2.965  11.104   9.003  0.3461 -0.8046  0.0452
  962MOL0     C26880   2.967  11.239   8.955 -0.1993  0.3679 -1.0975
  962MOL0     C26881   2.857  11.329   9.004  0.7487 -1.2059 -0.0631
  962MOL0     O26882   2.742  11.271   9.059 -0.4230  0.6091 -0.1020
  962MOL0     C26883   2.647  11.349   9.119  0.9354 -0.7552  0.5224
  962MOL0     C26884   2.594  11.465   9.063 -0.0572  0.2125 -0.3474
  962MOL0     C26885   2.507  11.544   9.141  0.0491  0.4570 -0.2297
  962MOL0     C26886   2.456  11.494   9.258 -0.0343  1.1380  0.6932
  962MOL0     O26887   2.337  11.550   9.300 -0.5819 -0.5532 -0.0790
  962MOL0     C26888   2.266  11.488   9.411 -0.0531  0.1854 -0.6366
  962MOL0     C26889   2.146  11.567   9.437 -0.2320 -0.3080  1.6889
  962MOL0     C26890   2.046  11.537   9.542  0.4585 -0.8098 -0.6892
  962MOL0     C26891   1.951  11.655   9.554 -0.6367 -0.2075 -0.0632
  962MOL0     C26892   1.848  11.643   9.654 -0.2912 -0.2156  0.6025
  962MOL0     C26893   1.779  11.773   9.685  0.6292 -0.4135 -0.4570
  962MOL0     C26894   1.671  11.744   9.792  0.4570 -0.0697 -0.3006
  962MOL0     C26895   1.731  11.758   9.934 -0.6591  0.3205  0.9161
  962MOL0    Cl26896   1.760  11.931   9.977  0.4904  0.5193 -0.4131
  962MOL0     C26897   2.508  11.377   9.316 -0.2688 -1.9031 -0.2888
  962MOL0     C26898   2.598  11.306   9.239 -0.1632  0.3178  0.1667
  962MOL0     O26899   2.859  11.445   8.958  0.0648  0.0408  0.4247
  962MOL0     C26900   3.077  11.286   8.879  1.1986 -0.1174  0.6513
  962MOL0     C26901   3.176  11.189   8.849 -0.3650 -0.4721  0.2601
  962MOL0     N26902   3.622  10.763   8.316  0.8579 -0.4727 -0.1002
  962MOL0     N26903   3.751  10.747   8.307  1.0937  0.1244 -0.0662
  962MOL0     C26904   4.268  10.364   9.041  0.3860 -0.3589  0.4236
  962MOL0     C26905   4.390  10.308   9.067 -0.3516 -0.9529  1.0852
  962MOL0     C26906   4.873  10.320   9.098 -0.6873  0.4136 -0.8392
  962MOL0     C26907   4.884  10.242   8.986  0.2510 -0.0534  0.0758
  962MOL0     C26908   5.012  10.175   8.964  0.3703 -0.6505 -0.3577
  962MOL0     C26909   5.120  10.176   9.061  0.5442  0.3064 -0.8978
  962MOL0     O26910   5.237  10.105   9.049  0.3087 -1.0436 -0.5771
  962MOL0     C26911   5.267  10.031   8.925 -0.1152  0.0678  0.4223
  962MOL0     C26912   5.381   9.930   8.948 -0.2157  0.3978  0.3928
  962MOL0     C26913   5.509   9.945   8.864 -0.0914 -0.5864  0.6365
  962MOL0     C26914   5.600  10.073   8.895  0.7430  0.1786  0.8162
  962MOL0     C26915   5.698  10.106   8.783  0.3140  0.7577 -0.5191
  962MOL0     C26916   5.774  10.106   8.689 -0.7519 -1.3375 -0.2441
  962MOL0     C26917   5.095  10.251   9.180 -0.5803  0.3545 -0.3744
  962MOL0     C26918   4.974  10.327   9.198  0.5374  0.3827 -0.3154
  962MOL0     H26919   4.586  10.579   9.002 -1.1467  0.5456  0.8011
  962MOL0     H26920   4.363  10.665   8.933 -1.5228 -0.3655 -0.3265
  962MOL0     H26921   4.187  10.709   9.120  2.9820 -1.3933 -1.1735
  962MOL0     H26922   4.103  10.575   9.195  0.7578  2.6864  1.2917
  962MOL0     H26923   3.945  10.749   9.195 -1.3865 -3.3336  1.4472
  962MOL0     H26924   3.893  10.628   9.085 -0.0231  0.8224 -1.8697
  962MOL0     H26925   4.058  10.867   8.991  0.5312 -0.6035  0.2825
  962MOL0     H26926   3.880  10.873   9.012 -3.4048 -1.9375 -5.7309
  962MOL0     H26927   3.960  10.654   8.839 -2.1989 -0.9965 -0.0767
  962MOL0     H26928   3.826  10.774   8.845 -0.3254 -2.1106 -3.3314
  962MOL0     H26929   4.103  10.816   8.723  0.2937  1.7007 -0.5574
  962MOL0     H26930   4.010  10.953   8.784  1.0530  0.4622 -1.2776
  962MOL0     H26931   3.817  10.914   8.637 -1.5875 -1.8537  0.3625
  962MOL0     H26932   3.909  10.759   8.579 -0.3795 -0.4217  0.5358
  962MOL0     H26933   3.967  11.035   8.516  1.6820 -0.4605  0.9349
  962MOL0     H26934   4.101  10.931   8.518 -0.3671 -0.4583 -0.2427
  962MOL0     H26935   4.013  10.780   8.338  1.1380  0.7251  1.6718
  962MOL0     H26936   4.016  10.936   8.272  1.2245  0.4576  1.2282
  962MOL0     H26937   3.732  11.055   8.409  2.4026 -0.0781 -2.3851
  962MOL0     H26938   3.396  10.859   8.400 -0.0823  0.1029 -0.0702
  962MOL0     H26939   3.442  11.036   8.370 -1.4804  0.7467 -0.3767
  962MOL0     H26940   3.523  11.072   8.566  0.1619  1.2889 -1.0492
  962MOL0     H26941   3.556  10.909   8.619  0.4507  0.6623 -0.1481
  962MOL0     H26942   3.294  11.058   8.628  1.4141  0.7318  0.1796
  962MOL0     H26943   3.304  10.886   8.668  1.7147 -1.7460 -0.3027
  962MOL0     H26944   3.436  11.088   8.826 -1.1110  0.6625 -1.8182
  962MOL0     H26945   3.469  10.917   8.840  0.9561  0.7820  1.0497
  962MOL0     H26946   3.064  10.921   9.015  1.6150  1.7380  4.0267
  962MOL0     H26947   2.886  11.080   9.074 -0.2801  0.1845 -0.2980
  962MOL0     H26948   2.623  11.508   8.968 -0.0100  2.3151  0.5582
  962MOL0     H26949   2.464  11.638   9.107 -3.5525 -1.1628 -0.5675
  962MOL0     H26950   2.328  11.479   9.500  2.5118 -0.3395 -2.3760
  962MOL0     H26951   2.224  11.389   9.389  0.7382 -0.4007  0.4032
  962MOL0     H26952   2.094  11.572   9.341  0.9533  1.9809  1.0959
  962MOL0     H26953   2.183  11.669   9.457 -0.1193 -0.1315  0.6238
  962MOL0     H26954   2.092  11.521   9.640 -1.3153 -0.3967  0.2352
  962MOL0     H26955   1.991  11.445   9.522  1.6732 -1.6874 -0.1081
  962MOL0     H26956   1.995  11.755   9.564 -4.1889  1.6421 -1.1008
  962MOL0     H26957   1.905  11.667   9.456 -0.3421  2.5788  0.0591
  962MOL0     H26958   1.889  11.612   9.750 -0.1999  2.5082  1.5173
  962MOL0     H26959   1.772  11.569   9.626 -0.5108 -1.2809  3.6697
  962MOL0     H26960   1.751  11.825   9.592  1.2554 -1.5911 -1.3314
  962MOL0     H26961   1.845  11.852   9.724 -2.8939  3.1917 -1.1055
  962MOL0     H26962   1.596  11.824   9.782  2.9423  2.3036 -1.2025
  962MOL0     H26963   1.622  11.648   9.776 -2.6400  1.1779  0.7833
  962MOL0     H26964   1.828  11.708   9.939  0.6356  1.9230 -3.4791
  962MOL0     H26965   1.659  11.708   9.999 -3.7512  2.7136 -0.4272
  962MOL0     H26966   2.489  11.326   9.409  1.2813  1.1956  1.9322
  962MOL0     H26967   2.641  11.211   9.267  1.0708  0.1371 -2.0752
  962MOL0     H26968   3.090  11.392   8.862 -0.7096  0.5596  2.7524
  962MOL0     H26969   3.256  11.231   8.789 -1.7801  2.5803  0.3488
  962MOL0     H26970   4.182  10.299   9.053 -0.5678  0.4590 -1.4721
  962MOL0     H26971   4.400  10.202   9.089 -0.1029 -1.2755 -0.5187
  962MOL0     H26972   4.803  10.235   8.915  0.5484  1.3362 -0.4386
  962MOL0     H26973   5.037  10.132   8.867  4.0236  1.8313 -0.7010
  962MOL0     H26974   5.302  10.101   8.848 -1.1549  1.3680  1.0956
  962MOL0     H26975   5.179   9.982   8.883  0.5429 -0.8726  0.0909
  962MOL0     H26976   5.409   9.939   9.053 -2.0723  0.5440  0.9197
  962MOL0     H26977   5.332   9.833   8.931  0.6316  0.1274 -0.6398
  962MOL0     H26978   5.469   9.943   8.762  0.7539 -2.8584  0.2979
  962MOL0     H26979   5.555   9.849   8.888 -0.9283 -0.4796  2.9622
  962MOL0     H26980   5.541  10.164   8.913  0.4160  0.0974  0.1790
  962MOL0     H26981   5.653  10.056   8.990  1.0749  0.4631  0.6831
  962MOL0     H26982   5.852  10.103   8.616  2.8410  1.6530  3.0567
  962MOL0     H26983   5.182  10.265   9.244  1.7313 -2.8680 -2.4898
  962MOL0     H26984   4.954  10.398   9.278 -3.1364 -2.0495  1.1784
  963MOL0     O26985   4.825   2.637   1.344  0.4188  1.2018 -0.2845
  963MOL0     C26986   4.846   2.754   1.313  0.3517 -0.2054  0.7279
  963MOL0     O26987   4.753   2.842   1.268  1.0616 -0.7475 -0.4246
  963MOL0     C26988   4.625   2.795   1.265  0.1453 -0.1441 -0.7626
  963MOL0     C26989   4.555   2.781   1.384  0.6663  0.5125  0.2857
  963MOL0     C26990   4.420   2.771   1.386 -0.1186 -0.2283 -0.8332
  963MOL0     C26991   4.341   2.790   1.272  0.3238  0.3056  0.5569
  963MOL0     O26992   4.203   2.790   1.273 -0.3286 -1.3081 -0.7629
  963MOL0     C26993   4.135   2.915   1.317 -0.8582  0.0517 -1.4841
  963MOL0     C26994   3.983   2.919   1.327 -0.9053  0.5314  0.4842
  963MOL0     C26995   3.942   2.833   1.439  0.9312 -0.3616  0.2187
  963MOL0     C26996   3.796   2.843   1.485  0.5849  0.6976 -0.0522
  963MOL0     C26997   3.742   2.748   1.589  0.8700 -0.3178 -0.2885
  963MOL0     C26998   3.598   2.788   1.624  0.0091 -0.5018  0.1842
  963MOL0     C26999   3.537   2.706   1.740  0.1198  0.1135 -0.2120
  963MOL0     C27000   3.404   2.774   1.768 -0.4583 -0.0226 -0.6829
  963MOL0     N27001   3.336   2.703   1.868  0.2176  0.2367  0.1830
  963MOL0     C27002   3.392   2.671   1.987 -1.1058  0.9830 -0.0964
  963MOL0     C27003   3.302   2.598   2.052  0.2167  0.6657 -0.4640
  963MOL0     C27004   3.308   2.541   2.181  0.3565  0.5113 -0.0203
  963MOL0     C27005   3.163   2.519   2.256 -0.5930 -0.2516 -0.1845
  963MOL0     C27006   3.120   2.652   2.318 -0.3910 -0.6662  1.0219
  963MOL0     C27007   2.982   2.669   2.377 -0.1646  0.5577  0.0310
  963MOL0     O27008   2.930   2.542   2.433  0.0953 -0.9241  0.1203
  963MOL0     C27009   2.808   2.546   2.500  1.4579 -0.1230 -0.2627
  963MOL0     C27010   2.758   2.423   2.551 -0.3567 -0.3348  0.4899
  963MOL0     C27011   2.646   2.425   2.632 -0.1163  0.0241  0.0332
  963MOL0     C27012   2.571   2.537   2.659  0.0616 -1.0286 -0.6218
  963MOL0     C27013   2.445   2.532   2.749  0.4897  0.0659  0.2931
  963MOL0     O27014   2.393   2.640   2.812 -0.4425  0.4917 -0.2717
  963MOL0     C27015   2.280   2.616   2.894  0.7315 -0.5920 -0.0971
  963MOL0     C27016   2.161   2.678   2.854  0.7210  0.2155  0.3282
  963MOL0     C27017   2.054   2.675   2.943  1.1011  0.2034 -0.1631
  963MOL0     C27018   2.063   2.615   3.072 -0.6500  0.2840  1.0122
  963MOL0     O27019   1.953   2.632   3.149  0.6427  0.5361  0.1258
  963MOL0     C27020   1.986   2.667   3.287 -0.1908  0.0477  0.6164
  963MOL0     C27021   2.041   2.814   3.299  0.0931  0.5091  0.0142
  963MOL0     C27022   2.021   2.868   3.437  0.1390 -0.3075 -0.6998
  963MOL0     C27023   2.032   3.017   3.438  0.0465 -0.4601  0.4163
  963MOL0     C27024   1.989   3.066   3.581  0.5507  0.2021  1.0060
  963MOL0     C27025   1.992   3.222   3.597 -0.3453 -0.6076  0.0900
  963MOL0     C27026   1.984   3.263   3.742  0.2516  0.0232  0.1408
  963MOL0     C27027   1.836   3.265   3.779  0.4014 -0.6895 -0.3744
  963MOL0    Cl27028   1.765   3.390   3.676  0.3834  0.5647  0.6593
  963MOL0     C27029   2.179   2.546   3.106  0.3522 -0.0935  0.3987
  963MOL0     C27030   2.290   2.536   3.012  0.3121 -0.4538 -0.0248
  963MOL0     O27031   2.404   2.419   2.753  0.7105 -1.2254  0.0937
  963MOL0     C27032   2.619   2.651   2.603 -0.4748 -0.1826 -0.4096
  963MOL0     C27033   2.731   2.658   2.533 -0.5812 -0.6364  0.6255
  963MOL0     N27034   3.188   2.587   1.971 -0.0290 -0.4061 -0.0614
  963MOL0     N27035   3.214   2.649   1.859  0.9052  1.2107 -0.4277
  963MOL0     C27036   4.415   2.812   1.151  1.0436 -0.6752 -0.5785
  963MOL0     C27037   4.552   2.804   1.143  0.4865  0.3232 -1.2104
  963MOL0     C27038   4.979   2.804   1.341 -0.7406  0.4006  0.5789
  963MOL0     C27039   5.010   2.942   1.338 -0.6943 -0.2168  0.3789
  963MOL0     C27040   5.140   2.980   1.370  0.8643  0.0465 -1.1278
  963MOL0     C27041   5.244   2.888   1.390 -0.6320  0.3381  0.0915
  963MOL0     O27042   5.365   2.940   1.430 -0.3398  0.0159 -0.0697
  963MOL0     C27043   5.468   2.845   1.439 -0.1412 -0.1630  0.2493
  963MOL0     C27044   5.582   2.936   1.477  0.2076  0.1009  0.0525
  963MOL0     C27045   5.617   3.066   1.404  0.4584  0.1432  0.0015
  963MOL0     C27046   5.681   3.036   1.275 -0.3394  0.4536  0.8954
  963MOL0     C27047   5.753   3.147   1.209 -0.6672 -0.7850  0.3868
  963MOL0     C27048   5.817   3.219   1.130 -0.0944 -0.2498 -0.5416
  963MOL0     C27049   5.215   2.753   1.387  0.6374  0.1873  0.1001
  963MOL0     C27050   5.087   2.712   1.366 -0.2876 -0.3015 -0.5030
  963MOL0     H27051   4.607   2.778   1.480  1.2039 -1.5073 -0.0285
  963MOL0     H27052   4.370   2.758   1.482  4.3396  1.4859  2.0570
  963MOL0     H27053   4.174   2.997   1.257 -1.7933  0.2699 -1.7959
  963MOL0     H27054   4.171   2.925   1.420 -1.9630  0.6365 -1.1392
  963MOL0     H27055   3.935   2.886   1.234 -0.2706  3.1183 -0.8636
  963MOL0     H27056   3.953   3.024   1.333 -0.5148  0.7100 -0.4679
  963MOL0     H27057   3.989   2.864   1.533 -0.5029  2.6528  0.0671
  963MOL0     H27058   3.951   2.726   1.420 -0.2404 -0.9238  2.5192
  963MOL0     H27059   3.777   2.949   1.499  3.2891  1.5938 -2.2712
  963MOL0     H27060   3.730   2.803   1.407  0.1712 -1.7479  1.4222
  963MOL0     H27061   3.801   2.758   1.680 -1.0293  2.4392  0.7692
  963MOL0     H27062   3.762   2.647   1.552  1.3466 -0.1299 -0.5603
  963MOL0     H27063   3.538   2.784   1.533  0.6004  1.5164 -0.3524
  963MOL0     H27064   3.605   2.887   1.669 -1.0046 -1.7937  3.4869
  963MOL0     H27065   3.532   2.598   1.720 -0.3425  0.3732 -1.6236
  963MOL0     H27066   3.602   2.725   1.826 -2.5174  0.8603  1.7319
  963MOL0     H27067   3.340   2.764   1.679 -3.2001  0.2351  1.1679
  963MOL0     H27068   3.414   2.880   1.790  1.6422 -0.4645  0.8503
  963MOL0     H27069   3.494   2.693   2.017 -0.8598 -0.5396  0.3063
  963MOL0     H27070   3.371   2.601   2.248  5.0235  0.0752 -3.4869
  963MOL0     H27071   3.357   2.444   2.175 -1.0911 -0.4305  2.1742
  963MOL0     H27072   3.167   2.438   2.329  1.6414 -0.0794 -0.0446
  963MOL0     H27073   3.081   2.500   2.186  0.9611  0.1603 -2.2048
  963MOL0     H27074   3.191   2.681   2.396 -1.8508  1.4195  1.6445
  963MOL0     H27075   3.120   2.725   2.237  4.0076  0.0256  1.3797
  963MOL0     H27076   2.920   2.710   2.296  0.5329 -2.5338 -2.2525
  963MOL0     H27077   3.004   2.741   2.457 -0.8342 -1.1109  1.7719
  963MOL0     H27078   2.801   2.327   2.524 -1.0409 -0.9519  1.5567
  963MOL0     H27079   2.618   2.323   2.656  4.7214 -2.0330 -1.7919
  963MOL0     H27080   2.160   2.740   2.765 -2.3666 -1.0668 -0.6696
  963MOL0     H27081   1.960   2.720   2.912  0.5768 -1.4239 -1.0785
  963MOL0     H27082   2.052   2.590   3.328  1.4991  0.9632 -0.3129
  963MOL0     H27083   1.898   2.658   3.352 -1.5072  0.1096 -1.0607
  963MOL0     H27084   2.004   2.868   3.212 -0.0039  0.9131  0.3045
  963MOL0     H27085   2.150   2.823   3.290  0.1636  0.6052  0.8561
  963MOL0     H27086   2.086   2.832   3.517 -1.6500 -3.1876 -0.3779
  963MOL0     H27087   1.917   2.854   3.468  0.9818  0.5492  2.9878
  963MOL0     H27088   2.137   3.044   3.426  0.0846  0.4544  2.4666
  963MOL0     H27089   1.962   3.050   3.360 -0.6626 -0.1689  1.1684
  963MOL0     H27090   2.059   3.018   3.651 -0.8086 -1.7543  1.1129
  963MOL0     H27091   1.890   3.026   3.604  1.1445 -0.0828  3.3268
  963MOL0     H27092   1.922   3.275   3.531  0.0558 -0.0420  0.1085
  963MOL0     H27093   2.091   3.248   3.557 -0.6873 -0.3621 -0.6128
  963MOL0     H27094   2.043   3.194   3.803 -1.1384 -0.0323  1.4936
  963MOL0     H27095   2.034   3.359   3.757  0.4915  0.2408 -1.7874
  963MOL0     H27096   1.832   3.285   3.886  1.4448  2.9208 -0.8638
  963MOL0     H27097   1.785   3.168   3.768 -2.3067  0.8395 -2.7095
  963MOL0     H27098   2.188   2.492   3.200 -1.9241  1.9065  1.8941
  963MOL0     H27099   2.378   2.475   3.030  0.1489 -0.5668  0.4227
  963MOL0     H27100   2.562   2.744   2.605 -3.2468 -1.7926  1.0430
  963MOL0     H27101   2.769   2.754   2.500 -0.0590 -0.9269  0.3843
  963MOL0     H27102   4.356   2.830   1.062 -0.2446  4.1298  0.9534
  963MOL0     H27103   4.607   2.808   1.050  0.2123 -0.5607 -1.4247
  963MOL0     H27104   4.941   3.021   1.310 -0.4138  0.0155  0.3335
  963MOL0     H27105   5.170   3.083   1.388 -1.4398  0.3477  1.8763
  963MOL0     H27106   5.499   2.795   1.347  1.7059  0.0135  0.7280
  963MOL0     H27107   5.445   2.769   1.514  0.4546  0.4812  1.1054
  963MOL0     H27108   5.564   2.966   1.580 -0.5054 -3.3540  1.0708
  963MOL0     H27109   5.669   2.871   1.492  0.3014 -0.0645 -1.1295
  963MOL0     H27110   5.673   3.131   1.472 -1.2764  2.2214 -0.4631
  963MOL0     H27111   5.528   3.124   1.380 -0.4983 -0.6141  1.5328
  963MOL0     H27112   5.748   2.951   1.293 -1.8662 -0.6392  1.6017
  963MOL0     H27113   5.604   3.002   1.205 -0.7323  0.3741  1.3691
  963MOL0     H27114   5.877   3.290   1.077 -0.0107  0.2868  0.2509
  963MOL0     H27115   5.288   2.675   1.398 -1.0097 -1.4095  0.1827
  963MOL0     H27116   5.062   2.607   1.360 -1.1852 -0.0127 -3.7117
  964MOL0     O27117   7.720   8.346   8.894  0.1451  0.0895  0.3143
  964MOL0     C27118   7.607   8.298   8.881  0.2501 -0.2588 -0.0749
  964MOL0     O27119   7.514   8.354   8.799 -0.6546  0.4434 -0.1253
  964MOL0     C27120   7.556   8.448   8.706 -0.4068  0.8767  0.3745
  964MOL0     C27121   7.496   8.581   8.715  0.0969  0.1358 -0.0622
  964MOL0     C27122   7.522   8.677   8.623 -0.2042  0.0931  0.4051
  964MOL0     C27123   7.617   8.644   8.519  0.1503 -0.1846  0.3640
  964MOL0     O27124   7.649   8.746   8.439 -0.0132 -0.6361 -1.1491
  964MOL0     C27125   7.566   8.747   8.319 -0.8389  1.3101 -0.4424
  964MOL0     C27126   7.548   8.898   8.279 -0.1621  0.0331  0.1647
  964MOL0     C27127   7.517   8.924   8.128  0.1538 -0.2781 -0.2655
  964MOL0     C27128   7.515   9.075   8.104 -0.2041 -0.3768 -0.7506
  964MOL0     C27129   7.523   9.112   7.960  0.6830 -0.8272 -0.4510
  964MOL0     C27130   7.520   9.269   7.951 -1.0666  0.7710 -0.2387
  964MOL0     C27131   7.385   9.339   7.967 -0.2358  0.9221  0.7721
  964MOL0     C27132   7.396   9.493   7.990  0.3692  0.2639  0.3114
  964MOL0     N27133   7.486   9.528   8.105  0.1606 -0.6060  1.0124
  964MOL0     C27134   7.582   9.619   8.099 -0.4557 -0.4671 -0.0802
  964MOL0     C27135   7.626   9.633   8.221  0.0434  0.4960  0.1294
  964MOL0     C27136   7.726   9.735   8.275 -0.5560  0.4901 -0.2680
  964MOL0     C27137   7.675   9.876   8.234 -0.1669  0.1322 -0.3937
  964MOL0     C27138   7.757   9.987   8.294  0.7253 -0.0693  0.5394
  964MOL0     C27139   7.677  10.114   8.319  0.2551 -0.4266 -0.1042
  964MOL0     O27140   7.628  10.157   8.185  0.1079 -0.4794 -0.2015
  964MOL0     C27141   7.588  10.298   8.189 -0.0615  0.9834  0.7882
  964MOL0     C27142   7.562  10.379   8.305 -0.4649  0.2700 -0.4363
  964MOL0     C27143   7.528  10.511   8.287 -0.5893 -0.1537  0.1624
  964MOL0     C27144   7.522  10.571   8.168 -0.3051  0.2095  0.0240
  964MOL0     C27145   7.481  10.718   8.160 -0.3265 -0.5267 -0.9390
  964MOL0     O27146   7.483  10.783   8.283  0.5031 -0.2204 -0.3978
  964MOL0     C27147   7.407  10.890   8.308  0.0875  0.8655  0.2198
  964MOL0     C27148   7.416  11.006   8.225 -0.1654 -0.2126  0.4295
  964MOL0     C27149   7.330  11.113   8.250  0.2885 -1.2787  0.2483
  964MOL0     C27150   7.218  11.108   8.329  0.2477  0.1069  0.0740
  964MOL0     O27151   7.157  11.223   8.342 -0.3475 -0.6072 -0.1156
  964MOL0     C27152   7.009  11.227   8.362 -0.4738 -0.8270  0.1698
  964MOL0     C27153   6.933  11.192   8.238 -0.3192 -0.2409 -0.3067
  964MOL0     C27154   6.794  11.263   8.248 -0.4852 -0.1959 -0.1920
  964MOL0     C27155   6.790  11.416   8.247  1.1070 -0.5427  1.0416
  964MOL0     C27156   6.679  11.474   8.340 -0.9669  0.3872  0.3242
  964MOL0     C27157   6.723  11.471   8.494 -0.0349 -0.3882 -0.0720
  964MOL0     C27158   6.830  11.573   8.530  0.2002 -0.2469  0.6224
  964MOL0     C27159   6.866  11.582   8.685 -0.5826  0.6930  0.0228
  964MOL0    Cl27160   6.733  11.633   8.779 -0.0299  0.2325  0.1015
  964MOL0     C27161   7.199  10.985   8.398 -0.2701 -0.2268 -0.1935
  964MOL0     C27162   7.291  10.878   8.385 -0.2414 -0.6369  0.4986
  964MOL0     O27163   7.438  10.762   8.050 -0.3747 -0.4253 -0.4763
  964MOL0     C27164   7.552  10.491   8.052 -0.1963  0.6695 -0.3921
  964MOL0     C27165   7.585  10.357   8.062  0.2353  0.0241 -0.1422
  964MOL0     N27166   7.566   9.539   8.302  0.8360  0.1565  0.2594
  964MOL0     N27167   7.479   9.483   8.232  0.0464  1.1626  0.2012
  964MOL0     C27168   7.677   8.521   8.516 -0.6889 -0.4718  0.1888
  964MOL0     C27169   7.640   8.418   8.603 -0.4104 -0.6216 -0.6133
  964MOL0     C27170   7.560   8.186   8.959 -0.9081 -0.3646  0.2232
  964MOL0     C27171   7.424   8.144   8.943  0.3717 -0.0363  0.7632
  964MOL0     C27172   7.378   8.026   8.990 -0.6770  1.5079 -0.8221
  964MOL0     C27173   7.465   7.954   9.091 -0.8269  0.2509 -0.5027
  964MOL0     O27174   7.421   7.838   9.150  0.1531 -0.0040 -0.7201
  964MOL0     C27175   7.341   7.846   9.263  0.3920  0.2428 -0.3654
  964MOL0     C27176   7.216   7.760   9.258 -0.3988 -0.1172 -0.5442
  964MOL0     C27177   7.251   7.613   9.224  0.1808  0.4644  0.2807
  964MOL0     C27178   7.248   7.594   9.072  0.2789  0.8751 -0.0165
  964MOL0     C27179   7.114   7.542   9.028  0.8404 -0.2992 -1.1037
  964MOL0     C27180   7.005   7.495   9.016  0.5467 -0.3369 -0.6119
  964MOL0     C27181   7.592   8.004   9.124  0.7620 -0.2314  0.0108
  964MOL0     C27182   7.639   8.119   9.055  0.4698  0.3356  0.5336
  964MOL0     H27183   7.430   8.595   8.801 -0.7110 -1.4116 -0.3855
  964MOL0     H27184   7.464   8.766   8.604 -0.1767 -0.2775 -1.6256
  964MOL0     H27185   7.467   8.701   8.329  0.2529 -1.8957 -2.7508
  964MOL0     H27186   7.627   8.696   8.245  1.7055  0.0906  2.2875
  964MOL0     H27187   7.647   8.942   8.291  0.0028 -0.7654  2.0094
  964MOL0     H27188   7.476   8.947   8.345 -2.2816 -2.7108  0.0561
  964MOL0     H27189   7.421   8.879   8.100  0.6848 -0.7220 -1.4080
  964MOL0     H27190   7.586   8.881   8.056 -0.2178 -1.8089  0.2505
  964MOL0     H27191   7.420   9.098   8.154  0.8105  0.4446  0.9142
  964MOL0     H27192   7.595   9.120   8.164  0.0377 -1.0855 -0.5302
  964MOL0     H27193   7.428   9.070   7.927  0.3685 -0.5124  0.0528
  964MOL0     H27194   7.606   9.067   7.904  2.6041  3.8718 -1.8514
  964MOL0     H27195   7.552   9.300   7.851 -1.8501 -0.0781 -0.7758
  964MOL0     H27196   7.589   9.303   8.028 -0.6991 -1.9621  0.7588
  964MOL0     H27197   7.339   9.324   7.869  0.6688  3.6574 -0.1717
  964MOL0     H27198   7.325   9.291   8.044 -2.6277  1.7266 -0.4987
  964MOL0     H27199   7.297   9.522   8.025  0.1018  0.9467 -0.9646
  964MOL0     H27200   7.420   9.546   7.897  2.7036 -0.0142  0.6779
  964MOL0     H27201   7.624   9.667   8.011  0.7765  1.2331  1.3758
  964MOL0     H27202   7.826   9.707   8.241 -0.3271 -1.0457  1.5148
  964MOL0     H27203   7.732   9.733   8.384  1.3758 -1.7752 -0.3339
  964MOL0     H27204   7.574   9.888   8.276  0.6691 -1.3906  2.2807
  964MOL0     H27205   7.663   9.884   8.126  0.4109  1.7302 -0.3593
  964MOL0     H27206   7.796   9.951   8.390  0.4111 -1.0198  0.3174
  964MOL0     H27207   7.838  10.004   8.223  2.8312 -0.7849  2.6201
  964MOL0     H27208   7.739  10.187   8.372  0.4108  2.0266 -3.4049
  964MOL0     H27209   7.590  10.097   8.384 -1.7691  1.0234 -2.2829
  964MOL0     H27210   7.571  10.344   8.407 -3.8059  3.7519  1.3273
  964MOL0     H27211   7.523  10.567   8.380  0.0346  0.0347  0.0867
  964MOL0     H27212   7.493  11.007   8.148  0.0571 -1.4459  0.6158
  964MOL0     H27213   7.359  11.207   8.203 -2.2838  1.3492  3.3889
  964MOL0     H27214   6.986  11.330   8.392  0.2834 -0.1196 -1.5177
  964MOL0     H27215   6.982  11.172   8.452  2.6701  0.9997  2.4629
  964MOL0     H27216   6.931  11.083   8.249 -2.1152 -0.1825  0.2822
  964MOL0     H27217   6.993  11.209   8.148  0.1456  0.1906  0.0830
  964MOL0     H27218   6.752  11.219   8.339 -0.7357 -3.9671 -1.9690
  964MOL0     H27219   6.723  11.222   8.175 -1.6892 -0.3398  1.0123
  964MOL0     H27220   6.887  11.459   8.276  0.6486  0.3169  1.3393
  964MOL0     H27221   6.781  11.450   8.143 -1.5058 -0.7247  1.1297
  964MOL0     H27222   6.576  11.440   8.326 -0.8313  0.4751 -1.0650
  964MOL0     H27223   6.667  11.579   8.311 -1.6704 -0.5702 -3.4392
  964MOL0     H27224   6.771  11.376   8.517  2.5470  0.3574 -1.9533
  964MOL0     H27225   6.644  11.498   8.565  1.5878  0.1866  1.6014
  964MOL0     H27226   6.917  11.548   8.469  0.5684 -0.3195  1.1743
  964MOL0     H27227   6.794  11.672   8.502 -1.3417 -0.6114  1.1913
  964MOL0     H27228   6.956  11.644   8.695 -0.8507  1.4937 -2.0665
  964MOL0     H27229   6.893  11.479   8.712  0.8352  0.6506 -1.4147
  964MOL0     H27230   7.110  10.973   8.460  2.3617  0.9478  4.2061
  964MOL0     H27231   7.260  10.783   8.428  2.1014 -0.7403  2.1080
  964MOL0     H27232   7.550  10.517   7.947  1.0739 -3.6738 -1.6831
  964MOL0     H27233   7.616  10.303   7.973 -2.5540  0.8406 -1.7250
  964MOL0     H27234   7.747   8.499   8.436 -0.0815  3.3644 -0.5474
  964MOL0     H27235   7.687   8.320   8.596  1.6599  0.3851 -1.4375
  964MOL0     H27236   7.361   8.206   8.881  0.8777 -0.3476 -0.0725
  964MOL0     H27237   7.273   7.999   8.976 -0.2401  0.1990 -1.7473
  964MOL0     H27238   7.301   7.946   9.284 -2.1854 -0.2729 -2.2783
  964MOL0     H27239   7.409   7.828   9.346 -0.8114 -0.1543  0.5563
  964MOL0     H27240   7.159   7.764   9.351 -1.4544  0.1065 -1.1882
  964MOL0     H27241   7.150   7.806   9.184 -1.7489  1.0851  1.3168
  964MOL0     H27242   7.179   7.541   9.265  0.4562 -0.9657 -1.5903
  964MOL0     H27243   7.347   7.592   9.272  0.2627 -0.1615 -0.1342
  964MOL0     H27244   7.247   7.693   9.026 -3.5621  1.2800  0.5960
  964MOL0     H27245   7.331   7.533   9.034  0.7086  0.4843  1.4888
  964MOL0     H27246   6.900   7.475   9.014 -0.5353  4.1865  0.0789
  964MOL0     H27247   7.647   7.942   9.195 -1.0344 -1.0631  0.7402
  964MOL0     H27248   7.739   8.159   9.069  0.3091  0.6116  0.8866
  965MOL0     O27249   3.123  11.234   0.778 -0.4269  0.3203 -0.5027
  965MOL0     C27250   3.026  11.309   0.752  0.6116  0.2213 -0.0361
  965MOL0     O27251   2.991  11.420   0.813  0.3188 -0.6928  0.1676
  965MOL0     C27252   3.077  11.474   0.907  1.0290  0.2473  0.5476
  965MOL0     C27253   3.136  11.406   1.005 -0.2381  0.2272 -0.3629
  965MOL0     C27254   3.225  11.474   1.093  1.2622 -0.1317 -0.4108
  965MOL0     C27255   3.253  11.608   1.067 -0.4481  0.4520 -0.7809
  965MOL0     O27256   3.366  11.672   1.114  1.0026  0.0377  0.3733
  965MOL0     C27257   3.496  11.617   1.103 -0.5990 -0.4540  0.1433
  965MOL0     C27258   3.589  11.733   1.040 -0.3944  0.4649  0.0901
  965MOL0     C27259   3.538  11.799   0.914  0.1086  0.0990 -0.9064
  965MOL0     C27260   3.648  11.885   0.853  0.4706  0.4175  0.4675
  965MOL0     C27261   3.626  12.036   0.884  0.4840 -0.3115  0.6455
  965MOL0     C27262   3.702  12.129   0.792  0.6038  0.0697 -1.2960
  965MOL0     C27263   3.845  12.159   0.836 -0.1431  1.3321  0.2448
  965MOL0     C27264   3.910  12.264   0.756  0.3094 -0.3460 -0.5900
  965MOL0     N27265   3.833  12.388   0.747  0.4569 -0.0134 -0.2494
  965MOL0     C27266   3.796  12.451   0.860 -0.4318  0.4023  0.3544
  965MOL0     C27267   3.732  12.563   0.822 -0.7252  0.1260  0.6479
  965MOL0     C27268   3.688  12.679   0.910  0.8338  0.4423  0.4505
  965MOL0     C27269   3.545  12.715   0.876 -0.3531  0.0078 -0.8530
  965MOL0     C27270   3.438  12.611   0.903  0.4206  0.5254  0.2164
  965MOL0     C27271   3.296  12.654   0.868 -0.0252  0.4563  0.3043
  965MOL0     O27272   3.240  12.747   0.966 -0.0551 -0.4323 -0.3310
  965MOL0     C27273   3.114  12.789   0.951 -0.8635  0.2608 -0.6098
  965MOL0     C27274   3.093  12.922   0.989 -0.0221 -0.8215  0.5193
  965MOL0     C27275   2.959  12.971   0.996 -0.6278 -1.0099  0.0580
  965MOL0     C27276   2.853  12.891   0.966  0.5359 -0.0250 -0.5618
  965MOL0     C27277   2.715  12.946   0.969  0.2302  0.8836 -1.0014
  965MOL0     O27278   2.625  12.906   0.873  0.1845  0.3477  0.1066
  965MOL0     C27279   2.495  12.937   0.856 -0.3608 -1.1648 -0.0172
  965MOL0     C27280   2.428  13.043   0.926 -0.7234  0.7692  0.5114
  965MOL0     C27281   2.296  13.065   0.903  0.3961  0.0645  0.1568
  965MOL0     C27282   2.220  13.001   0.802 -0.2777  0.3467  0.3380
  965MOL0     O27283   2.093  13.047   0.780 -0.2929  0.2170 -0.3249
  965MOL0     C27284   1.999  13.014   0.674  0.4178 -0.6836  0.3896
  965MOL0     C27285   1.920  12.877   0.695  0.2191 -0.2629  0.4753
  965MOL0     C27286   1.769  12.880   0.715  0.0625 -0.6996  0.5846
  965MOL0     C27287   1.694  12.769   0.787  0.4100  0.5031  0.2127
  965MOL0     C27288   1.566  12.819   0.854  0.6982 -0.0072  0.6358
  965MOL0     C27289   1.508  12.712   0.944 -0.0603 -0.1398  0.1407
  965MOL0     C27290   1.367  12.764   0.998 -0.3697 -0.2457 -0.1130
  965MOL0     C27291   1.317  12.681   1.120 -0.6555 -0.5620 -0.0726
  965MOL0    Cl27292   1.179  12.753   1.212  0.1191 -0.2905  0.0434
  965MOL0     C27293   2.287  12.897   0.731 -0.6819 -0.0864 -0.2209
  965MOL0     C27294   2.420  12.869   0.756  0.5793  0.3055  0.9541
  965MOL0     O27295   2.689  13.025   1.060  0.1833 -0.3414 -0.2528
  965MOL0     C27296   2.880  12.767   0.916 -0.2975 -0.3154  0.7841
  965MOL0     C27297   3.005  12.715   0.900 -0.9361 -0.1836  0.2174
  965MOL0     N27298   3.734  12.571   0.687 -0.6569  0.7152  0.6299
  965MOL0     N27299   3.801  12.470   0.638 -0.0515  0.4553 -0.0056
  965MOL0     C27300   3.182  11.674   0.974  0.6699  0.2385  0.3372
  965MOL0     C27301   3.087  11.614   0.893 -0.6937  0.6102 -0.8016
  965MOL0     C27302   2.944  11.271   0.648  0.3036  0.0002  0.9988
  965MOL0     C27303   2.814  11.310   0.642 -0.4396 -0.0637 -0.1228
  965MOL0     C27304   2.722  11.272   0.539 -1.5312 -0.0899 -0.2020
  965MOL0     C27305   2.766  11.204   0.432 -0.3086 -0.5374 -0.4987
  965MOL0     O27306   2.679  11.193   0.326 -0.6185  0.4734 -0.2056
  965MOL0     C27307   2.681  11.068   0.259  0.1147  0.3447  0.5580
  965MOL0     C27308   2.649  10.948   0.345  0.2602  0.5418  0.0433
  965MOL0     C27309   2.651  10.819   0.256  0.4674 -0.0449  0.0404
  965MOL0     C27310   2.720  10.699   0.322  0.6650 -0.4192 -0.1028
  965MOL0     C27311   2.736  10.588   0.233 -0.2328  0.7600 -0.2260
  965MOL0     C27312   2.766  10.496   0.159 -0.4148 -0.2478  0.3286
  965MOL0     C27313   2.902  11.169   0.434  0.0410  1.2602  0.0259
  965MOL0     C27314   2.991  11.196   0.540 -0.1747  0.7220  0.5443
  965MOL0     H27315   3.128  11.299   1.015 -0.1921  0.1570 -1.0252
  965MOL0     H27316   3.284  11.417   1.163 -0.4019  0.2982  1.4309
  965MOL0     H27317   3.497  11.526   1.043 -0.1379 -0.4311  0.1130
  965MOL0     H27318   3.543  11.583   1.196  1.9509 -2.0104 -1.6085
  965MOL0     H27319   3.694  11.701   1.035  0.0909  2.0303 -0.4760
  965MOL0     H27320   3.585  11.823   1.103 -1.4878  0.3290  0.2230
  965MOL0     H27321   3.444  11.854   0.925  0.0213 -0.5464  2.3345
  965MOL0     H27322   3.519  11.716   0.845  2.0030 -0.9457 -0.2725
  965MOL0     H27323   3.748  11.854   0.884  0.3829  0.6980  1.0492
  965MOL0     H27324   3.633  11.868   0.746  1.5248 -1.7337  0.6228
  965MOL0     H27325   3.658  12.056   0.987  1.2820 -0.6505  0.4708
  965MOL0     H27326   3.521  12.063   0.873  0.4129 -0.9572 -0.4126
  965MOL0     H27327   3.650  12.225   0.788  0.5196  0.0829 -0.1528
  965MOL0     H27328   3.708  12.082   0.694 -1.3750  0.3408 -1.5790
  965MOL0     H27329   3.837  12.190   0.941 -0.3839  0.2342  0.5541
  965MOL0     H27330   3.907  12.072   0.815  2.0724  3.2819 -1.9208
  965MOL0     H27331   3.936  12.230   0.656 -2.0932 -1.6365 -0.8412
  965MOL0     H27332   4.000  12.291   0.813 -0.5752  0.0085  0.6677
  965MOL0     H27333   3.828  12.424   0.960  0.8916 -0.4457 -0.2747
  965MOL0     H27334   3.745  12.772   0.898  0.5883  0.4532 -0.6732
  965MOL0     H27335   3.693  12.647   1.015  1.7265 -0.1975  0.2217
  965MOL0     H27336   3.549  12.747   0.771  0.1915 -1.1593 -1.2024
  965MOL0     H27337   3.522  12.801   0.938 -3.9230 -1.4888  0.1125
  965MOL0     H27338   3.459  12.518   0.849  0.5808 -0.1403  1.3968
  965MOL0     H27339   3.436  12.571   1.004  0.8180 -3.0673 -1.0578
  965MOL0     H27340   3.247  12.557   0.860  1.4963 -0.1758 -2.6353
  965MOL0     H27341   3.306  12.706   0.772 -0.9040  1.2999  0.6469
  965MOL0     H27342   3.170  12.986   1.030 -1.8127  0.8071  1.5543
  965MOL0     H27343   2.948  13.067   1.045  1.3695 -1.3312  1.2451
  965MOL0     H27344   2.463  13.101   1.011 -2.8691  0.2575  1.8217
  965MOL0     H27345   2.249  13.146   0.959 -0.0886 -1.1871  1.6499
  965MOL0     H27346   2.051  13.019   0.578  0.1003  0.0866  0.2516
  965MOL0     H27347   1.930  13.099   0.677  1.9380  0.5736  1.9370
  965MOL0     H27348   1.957  12.820   0.781 -2.8664 -1.3971  1.1940
  965MOL0     H27349   1.938  12.820   0.604  0.3670  2.1261 -1.0877
  965MOL0     H27350   1.722  12.896   0.618  0.0441 -0.7042  0.5926
  965MOL0     H27351   1.742  12.972   0.768 -1.6072 -1.6988  1.5686
  965MOL0     H27352   1.665  12.698   0.709  2.4958  0.2141 -0.3500
  965MOL0     H27353   1.747  12.716   0.866 -1.6979  2.4717  3.1667
  965MOL0     H27354   1.495  12.837   0.773 -1.3335 -1.5713  1.9548
  965MOL0     H27355   1.583  12.903   0.923  0.8944 -1.1775  2.0640
  965MOL0     H27356   1.581  12.688   1.022 -4.3564 -3.9403  3.5083
  965MOL0     H27357   1.482  12.621   0.889 -2.7741 -0.9686  2.5475
  965MOL0     H27358   1.384  12.867   1.031  2.3311 -1.5472  3.1312
  965MOL0     H27359   1.282  12.753   0.930 -1.2486 -1.6467  1.1698
  965MOL0     H27360   1.402  12.664   1.187  0.7135  3.3075 -0.5869
  965MOL0     H27361   1.286  12.582   1.086 -0.2098 -0.8014  0.2177
  965MOL0     H27362   2.246  12.838   0.649  1.5285 -0.0993 -1.4024
  965MOL0     H27363   2.473  12.801   0.690  0.4436 -0.3215  1.4857
  965MOL0     H27364   2.805  12.706   0.866 -0.2380  0.8609 -0.8208
  965MOL0     H27365   3.011  12.617   0.853  3.2514 -0.0551  0.1016
  965MOL0     H27366   3.211  11.776   0.952  3.0532 -0.5657 -0.5721
  965MOL0     H27367   3.038  11.673   0.816  0.5249  0.9282 -1.3561
  965MOL0     H27368   2.778  11.378   0.718  3.1854  1.1738  0.6698
  965MOL0     H27369   2.625  11.318   0.519 -0.5082  1.1921 -2.6275
  965MOL0     H27370   2.781  11.057   0.216  2.2529  0.5664  4.8726
  965MOL0     H27371   2.613  11.077   0.174  0.8290  1.3985  0.0730
  965MOL0     H27372   2.721  10.940   0.427  0.3520  0.1108 -0.0738
  965MOL0     H27373   2.545  10.958   0.379 -0.2728 -2.3566 -0.4318
  965MOL0     H27374   2.697  10.840   0.159 -0.8324  0.1169 -0.5649
  965MOL0     H27375   2.552  10.781   0.230  0.6941 -0.7763  0.2385
  965MOL0     H27376   2.819  10.734   0.353 -0.8508  3.5177  0.9904
  965MOL0     H27377   2.661  10.671   0.409  1.4900 -1.3911  0.1593
  965MOL0     H27378   2.804  10.413   0.103  1.8202  0.4806  0.6581
  965MOL0     H27379   2.954  11.116   0.355 -1.6420  0.9512 -0.9194
  965MOL0     H27380   3.094  11.164   0.528 -1.0142 -1.7616 -0.6934
  966MOL0     O27381   6.067   7.881   7.277  0.3017  0.5243  0.1483
  966MOL0     C27382   6.152   7.844   7.361  0.9026  0.7488  0.4001
  966MOL0     O27383   6.148   7.854   7.499  1.2997  0.4029 -1.1707
  966MOL0     C27384   6.049   7.929   7.554 -0.0637  0.4280  0.1830
  966MOL0     C27385   5.975   7.882   7.658  0.1338 -0.1007 -0.2247
  966MOL0     C27386   5.881   7.960   7.719 -0.1382  0.0428 -0.7932
  966MOL0     C27387   5.856   8.093   7.682 -0.5900  0.5263 -0.1204
  966MOL0     O27388   5.764   8.172   7.747 -0.6204  0.2573  0.1898
  966MOL0     C27389   5.625   8.125   7.750 -0.4987  0.2058  0.3572
  966MOL0     C27390   5.532   8.236   7.790 -0.4037 -0.1821  0.1504
  966MOL0     C27391   5.524   8.340   7.675 -1.4445  0.7648 -1.0739
  966MOL0     C27392   5.438   8.303   7.549 -0.4298  0.2071  0.0513
  966MOL0     C27393   5.302   8.253   7.586  1.0043  1.2583 -0.0888
  966MOL0     C27394   5.196   8.367   7.598  0.0661 -0.9564 -0.0084
  966MOL0     C27395   5.048   8.327   7.557 -0.3216  0.5051 -0.1674
  966MOL0     C27396   4.989   8.207   7.638 -0.7017  0.1399 -0.2153
  966MOL0     N27397   4.865   8.156   7.579 -0.0269  0.0202  1.1272
  966MOL0     C27398   4.738   8.199   7.605 -0.4272 -0.0789  0.0958
  966MOL0     C27399   4.660   8.092   7.566  0.1577 -0.6350  0.3781
  966MOL0     C27400   4.517   8.086   7.561 -0.2064 -0.4555 -0.5277
  966MOL0     C27401   4.448   8.046   7.697  1.0716  0.7678 -0.3486
  966MOL0     C27402   4.397   8.166   7.778 -0.6297 -0.0831 -0.4946
  966MOL0     C27403   4.342   8.123   7.925 -0.1287  0.3422  0.3293
  966MOL0     O27404   4.324   8.253   7.994  0.6681 -1.3670 -0.0634
  966MOL0     C27405   4.203   8.323   7.963 -1.2296  0.2348  0.9984
  966MOL0     C27406   4.095   8.267   7.896  0.1223 -0.0831 -0.4882
  966MOL0     C27407   3.993   8.343   7.856  0.0550 -0.0310 -0.3743
  966MOL0     C27408   3.986   8.477   7.894  0.4023  0.1072 -0.2200
  966MOL0     C27409   3.861   8.547   7.856 -0.0038  0.5672 -0.4367
  966MOL0     O27410   3.764   8.463   7.816  0.1318 -0.7243  1.3154
  966MOL0     C27411   3.632   8.499   7.814 -0.0184  0.7696  0.0981
  966MOL0     C27412   3.538   8.400   7.773  0.1349 -0.5459  0.0586
  966MOL0     C27413   3.404   8.430   7.756 -0.1680 -0.4245  1.2112
  966MOL0     C27414   3.357   8.553   7.798 -0.0703  0.2495 -0.1794
  966MOL0     O27415   3.219   8.580   7.788 -0.0572  0.2317 -0.2408
  966MOL0     C27416   3.143   8.511   7.692 -0.1298 -0.9943  0.0163
  966MOL0     C27417   3.025   8.599   7.684  0.3951 -0.4263  0.3207
  966MOL0     C27418   2.934   8.574   7.575 -0.5610  0.0507 -0.8403
  966MOL0     C27419   2.814   8.669   7.574 -0.8941  0.6613 -1.1503
  966MOL0     C27420   2.718   8.620   7.450  0.1110  0.0726 -1.1561
  966MOL0     C27421   2.659   8.749   7.380 -0.4679 -0.0168 -0.4005
  966MOL0     C27422   2.585   8.837   7.488 -0.5036  0.1272 -0.9916
  966MOL0     C27423   2.528   8.967   7.439 -0.6267 -0.2756 -0.7953
  966MOL0    Cl27424   2.427   8.953   7.294 -0.1131  0.3168 -0.0164
  966MOL0     C27425   3.441   8.652   7.860  0.0669  0.4372 -0.1508
  966MOL0     C27426   3.578   8.627   7.864  0.5302 -0.9791 -0.4504
  966MOL0     O27427   3.866   8.666   7.858  0.1609 -0.3620 -0.2065
  966MOL0     C27428   4.087   8.533   7.969  1.0934  0.2347  1.3201
  966MOL0     C27429   4.203   8.459   8.001  0.4223 -0.5972  0.2799
  966MOL0     N27430   4.738   7.989   7.514  0.0392  0.4239 -0.0106
  966MOL0     N27431   4.855   8.028   7.528  0.3319 -0.5833 -0.2857
  966MOL0     C27432   5.930   8.145   7.577  0.0989 -0.0923  0.3287
  966MOL0     C27433   6.020   8.058   7.513 -0.1300  0.8390 -0.0507
  966MOL0     C27434   6.270   7.779   7.298  0.5579  1.2283 -0.9387
  966MOL0     C27435   6.354   7.681   7.368  0.0010 -0.5752 -0.5015
  966MOL0     C27436   6.466   7.618   7.301 -0.4844  0.2021  0.4656
  966MOL0     C27437   6.490   7.641   7.167 -0.0019  0.4179  0.0788
  966MOL0     O27438   6.583   7.572   7.085 -0.3116  0.7835 -0.1898
  966MOL0     C27439   6.657   7.464   7.146 -0.2578  0.2271 -0.4006
  966MOL0     C27440   6.736   7.367   7.044  1.2650 -0.0955  0.7413
  966MOL0     C27441   6.815   7.453   6.951 -0.0897  0.0852 -0.1903
  966MOL0     C27442   6.890   7.361   6.862  0.7263 -0.4949  0.1751
  966MOL0     C27443   6.923   7.406   6.735  0.2763  0.5743  0.1419
  966MOL0     C27444   6.953   7.436   6.617 -0.0939 -0.0262 -0.7894
  966MOL0     C27445   6.414   7.737   7.105  0.4254  0.4534 -0.6925
  966MOL0     C27446   6.303   7.802   7.168  0.5224  0.6666 -0.9999
  966MOL0     H27447   6.000   7.793   7.714 -0.3000 -0.3856 -0.4826
  966MOL0     H27448   5.821   7.928   7.804 -0.0663  0.5533 -0.5490
  966MOL0     H27449   5.615   8.036   7.813  0.0110 -0.4763 -0.5042
  966MOL0     H27450   5.606   8.092   7.647 -0.8068  1.2006  0.0731
  966MOL0     H27451   5.566   8.289   7.879  0.9933  2.1488 -1.6559
  966MOL0     H27452   5.433   8.197   7.814  0.4006 -2.5253 -0.0811
  966MOL0     H27453   5.620   8.388   7.650 -0.6893  1.3840  2.5112
  966MOL0     H27454   5.470   8.417   7.731 -2.4762 -0.7924  0.1524
  966MOL0     H27455   5.433   8.391   7.485  4.3365 -0.1713 -1.2026
  966MOL0     H27456   5.495   8.223   7.501  0.1132 -0.1841  1.3181
  966MOL0     H27457   5.297   8.189   7.675  3.0105  0.7220 -0.3294
  966MOL0     H27458   5.268   8.199   7.497 -1.1739  0.7639  0.9655
  966MOL0     H27459   5.222   8.456   7.540 -3.8251 -0.7346 -1.7331
  966MOL0     H27460   5.184   8.410   7.698 -1.1577  3.0688 -1.6930
  966MOL0     H27461   4.979   8.411   7.574 -0.2440  0.5700 -0.1750
  966MOL0     H27462   5.046   8.306   7.449 -0.2655  0.8253 -0.2318
  966MOL0     H27463   4.980   8.238   7.742 -2.2129  1.3081 -0.6537
  966MOL0     H27464   5.061   8.125   7.638 -1.1785 -0.3068 -1.4079
  966MOL0     H27465   4.707   8.295   7.646 -1.6539 -0.7745  0.8644
  966MOL0     H27466   4.494   8.009   7.487 -1.9010 -1.0844  0.5934
  966MOL0     H27467   4.471   8.177   7.524  0.4383 -1.0478 -2.9898
  966MOL0     H27468   4.524   7.997   7.758  0.1415 -0.6706 -0.2971
  966MOL0     H27469   4.374   7.967   7.676  1.6920 -0.2443  1.1054
  966MOL0     H27470   4.481   8.235   7.793 -1.3839  0.5745  1.0152
  966MOL0     H27471   4.309   8.212   7.732 -2.8308 -1.6794  1.8313
  966MOL0     H27472   4.413   8.057   7.976 -0.4283 -1.0408 -0.9396
  966MOL0     H27473   4.245   8.074   7.909 -1.0992  2.6617 -1.4443
  966MOL0     H27474   4.091   8.170   7.849  3.1986  0.0804 -1.3439
  966MOL0     H27475   3.918   8.305   7.787  0.4767 -2.0270  0.1952
  966MOL0     H27476   3.577   8.303   7.742 -0.9055 -2.2007  3.3604
  966MOL0     H27477   3.339   8.351   7.721 -2.9570  2.5724 -1.0562
  966MOL0     H27478   3.121   8.415   7.739 -0.9465 -0.0980  1.5632
  966MOL0     H27479   3.193   8.493   7.597 -0.2830 -1.1656 -0.0338
  966MOL0     H27480   3.056   8.704   7.684 -0.6507 -0.0808  2.2444
  966MOL0     H27481   2.968   8.580   7.775 -3.2990  0.8312 -1.5142
  966MOL0     H27482   2.897   8.473   7.591 -2.4035  1.2679  4.8104
  966MOL0     H27483   2.990   8.592   7.482  5.5562  1.8880  2.6344
  966MOL0     H27484   2.750   8.658   7.662 -1.7246 -1.9617 -1.9657
  966MOL0     H27485   2.851   8.771   7.569  2.4529 -0.2615  1.6022
  966MOL0     H27486   2.629   8.568   7.487  0.6321  0.1525  0.2537
  966MOL0     H27487   2.774   8.564   7.374 -0.4884 -0.3811 -1.2710
  966MOL0     H27488   2.582   8.727   7.305 -1.8792  0.8673  0.7396
  966MOL0     H27489   2.740   8.805   7.333  1.5802 -0.2545  2.5241
  966MOL0     H27490   2.512   8.784   7.550 -1.5251  2.1257 -0.4078
  966MOL0     H27491   2.662   8.871   7.557  2.4605 -3.0578 -2.4239
  966MOL0     H27492   2.615   9.027   7.412  2.3492 -4.5775 -1.6189
  966MOL0     H27493   2.475   9.016   7.522  0.7696  2.0780 -1.1805
  966MOL0     H27494   3.388   8.739   7.899 -3.8877 -1.9442  0.4434
  966MOL0     H27495   3.644   8.702   7.906 -0.1683 -0.2507 -0.6281
  966MOL0     H27496   4.077   8.636   8.003  0.5128  1.5835 -2.4677
  966MOL0     H27497   4.282   8.511   8.054  0.1906 -2.0761  2.1879
  966MOL0     H27498   5.897   8.242   7.541  3.2452  1.1775  0.4703
  966MOL0     H27499   6.071   8.098   7.426  2.4683 -2.4345 -0.2354
  966MOL0     H27500   6.336   7.665   7.474  0.4634  2.0807  0.0359
  966MOL0     H27501   6.538   7.564   7.362 -0.2526  0.5329  0.4866
  966MOL0     H27502   6.597   7.396   7.207 -1.0073 -0.5204 -1.9064
  966MOL0     H27503   6.729   7.508   7.216  0.3001 -0.0686 -0.7811
  966MOL0     H27504   6.811   7.303   7.093  0.2677 -0.2617  2.1053
  966MOL0     H27505   6.655   7.314   6.993  1.6129  0.5286 -0.5022
  966MOL0     H27506   6.880   7.513   7.016 -0.5192  1.4169 -0.9442
  966MOL0     H27507   6.735   7.505   6.897 -2.4045 -1.8164  1.2457
  966MOL0     H27508   6.981   7.344   6.921  0.2223 -0.2400  1.0305
  966MOL0     H27509   6.845   7.266   6.833 -0.8326  0.9499 -2.5136
  966MOL0     H27510   6.994   7.457   6.521 -1.0844  1.6057 -0.8826
  966MOL0     H27511   6.434   7.782   7.008  1.1384  2.6506  0.4110
  966MOL0     H27512   6.246   7.872   7.108  0.7817 -0.0310 -2.0865
  967MOL0     O27513   0.028   6.038   0.331  0.2392  0.0001 -0.9120
  967MOL0     C27514   0.106   6.092   0.413  0.2360  0.1863  0.1380
  967MOL0     O27515   0.170   6.023   0.510  0.0546 -0.2693 -0.2720
  967MOL0     C27516   0.214   5.896   0.502  0.1565 -0.3438  0.0192
  967MOL0     C27517   0.250   5.830   0.388 -0.1168  0.2081 -0.8957
  967MOL0     C27518   0.295   5.702   0.394  0.3610 -0.0435 -0.7602
  967MOL0     C27519   0.320   5.633   0.512  0.5212  0.2179 -0.2065
  967MOL0     O27520   0.368   5.507   0.517  0.0153 -0.1428 -0.6163
  967MOL0     C27521   0.347   5.416   0.411 -0.2633  0.2244  1.0862
  967MOL0     C27522   0.447   5.306   0.426 -1.1397  0.2850  0.3918
  967MOL0     C27523   0.578   5.328   0.351  0.4423  0.5611  0.8063
  967MOL0     C27524   0.676   5.218   0.384 -0.3794 -0.1051 -0.3439
  967MOL0     C27525   0.812   5.227   0.318 -0.2682 -1.0077  0.0702
  967MOL0     C27526   0.894   5.108   0.363  0.2127 -0.0163  0.3463
  967MOL0     C27527   1.026   5.083   0.299 -0.8301  0.9290 -0.4356
  967MOL0     C27528   1.106   4.991   0.395  0.7016  0.0124 -0.0389
  967MOL0     N27529   1.249   4.992   0.356  0.5356  1.0989  0.8909
  967MOL0     C27530   1.317   4.895   0.284 -0.6496 -0.1960 -0.0917
  967MOL0     C27531   1.449   4.937   0.274 -0.0098  0.2375  0.0709
  967MOL0     C27532   1.561   4.868   0.213  0.7614 -0.6732  0.1312
  967MOL0     C27533   1.608   4.745   0.296 -0.2431 -0.9838  0.0260
  967MOL0     C27534   1.670   4.782   0.430 -0.5799  0.0038 -0.1396
  967MOL0     C27535   1.808   4.851   0.397 -0.4698 -0.2519 -0.6442
  967MOL0     O27536   1.898   4.847   0.509  0.4476  0.0826 -0.0511
  967MOL0     C27537   2.028   4.816   0.487  0.0124 -0.3808 -0.4415
  967MOL0     C27538   2.091   4.756   0.588  0.4309  0.2294 -0.5760
  967MOL0     C27539   2.224   4.717   0.577 -0.3066 -0.0795  0.5264
  967MOL0     C27540   2.302   4.756   0.460  1.1035 -0.3020 -0.7255
  967MOL0     C27541   2.443   4.723   0.463  0.5818  0.0851 -0.0035
  967MOL0     O27542   2.511   4.727   0.577 -0.4478 -0.0893  0.3239
  967MOL0     C27543   2.650   4.708   0.562  0.2713  0.7692 -0.2773
  967MOL0     C27544   2.735   4.814   0.594 -0.0064  0.1296 -0.4758
  967MOL0     C27545   2.872   4.802   0.594 -0.6149  1.1245 -0.3930
  967MOL0     C27546   2.945   4.685   0.563  0.6990 -0.4378  0.1795
  967MOL0     O27547   3.080   4.667   0.569  0.1626 -0.6902  0.2661
  967MOL0     C27548   3.132   4.546   0.508 -0.6772 -0.3742  0.3875
  967MOL0     C27549   3.286   4.532   0.539 -0.2185 -0.1834 -0.0570
  967MOL0     C27550   3.359   4.672   0.549 -0.0021  0.1685  0.0139
  967MOL0     C27551   3.509   4.644   0.551  1.5423  0.5212 -0.1459
  967MOL0     C27552   3.593   4.770   0.518 -0.6297  0.3623  0.6407
  967MOL0     C27553   3.598   4.879   0.620  1.1195 -0.1166  0.1056
  967MOL0     C27554   3.693   4.833   0.737  0.1619  0.2886  0.2534
  967MOL0     C27555   3.825   4.908   0.746 -0.6529 -0.1283 -0.4932
  967MOL0    Cl27556   3.814   5.073   0.825  0.0093  0.2817  0.1002
  967MOL0     C27557   2.858   4.574   0.533  0.8184  0.0705 -0.5500
  967MOL0     C27558   2.713   4.582   0.534  1.2167  0.4285  0.1525
  967MOL0     O27559   2.483   4.697   0.355  0.1717 -0.0164  0.1567
  967MOL0     C27560   2.235   4.822   0.357 -0.0097  0.1723  0.3105
  967MOL0     C27561   2.101   4.843   0.366  0.5563 -1.2325 -0.0570
  967MOL0     N27562   1.448   5.062   0.333  0.5726 -0.6380 -0.0745
  967MOL0     N27563   1.330   5.095   0.370 -0.1712 -0.1829 -0.0108
  967MOL0     C27564   0.291   5.699   0.628  0.1239  0.2530  0.8383
  967MOL0     C27565   0.234   5.828   0.624 -0.9016 -0.1315  0.9706
  967MOL0     C27566   0.108   6.232   0.425  0.9216  0.7281  0.2205
  967MOL0     C27567  -0.006   6.307   0.384 -0.1873 -0.1634  0.8748
  967MOL0     C27568  -0.009   6.444   0.385  0.4025  0.6601 -1.0325
  967MOL0     C27569   0.100   6.516   0.436  0.5969 -0.4765  0.0926
  967MOL0     O27570   0.082   6.646   0.438 -0.1439 -0.4022  0.5295
  967MOL0     C27571   0.120   6.708   0.564  0.4670  0.5187 -0.8773
  967MOL0     C27572   0.007   6.776   0.625 -0.1245 -0.5056  0.9029
  967MOL0     C27573  -0.064   6.878   0.523  0.0487 -0.2764 -0.3977
  967MOL0     C27574  -0.179   6.817   0.446  1.3174  1.3105 -0.3566
  967MOL0     C27575  -0.295   6.794   0.528  0.7845  0.9074  0.2590
  967MOL0     C27576  -0.389   6.774   0.612  0.2608  0.5542  0.4608
  967MOL0     C27577   0.217   6.444   0.473  0.4103 -0.2086  0.2499
  967MOL0     C27578   0.227   6.299   0.467  0.3617 -0.1742 -0.0189
  967MOL0     H27579   0.243   5.880   0.292  1.7905  0.4099 -0.9737
  967MOL0     H27580   0.292   5.662   0.293  0.9183 -0.3715 -0.6544
  967MOL0     H27581   0.348   5.459   0.310  2.8958  1.7659  1.6321
  967MOL0     H27582   0.248   5.370   0.413 -0.5328  0.7439  0.2524
  967MOL0     H27583   0.423   5.204   0.395  3.7307 -0.6480 -1.2657
  967MOL0     H27584   0.471   5.291   0.532 -0.5164 -1.3518  0.0416
  967MOL0     H27585   0.608   5.433   0.362  0.2556  0.8334 -0.9594
  967MOL0     H27586   0.552   5.315   0.245 -3.7032  0.5146  1.6431
  967MOL0     H27587   0.682   5.207   0.493 -2.0946 -0.5504 -0.2735
  967MOL0     H27588   0.639   5.120   0.353  1.7475 -1.4401  1.0647
  967MOL0     H27589   0.855   5.312   0.371  1.1466 -3.0457  2.3892
  967MOL0     H27590   0.816   5.242   0.210 -0.9393 -0.4585  0.1149
  967MOL0     H27591   0.828   5.020   0.363 -0.8262  0.7481  0.2285
  967MOL0     H27592   0.895   5.131   0.470 -4.7138 -2.1555  1.1370
  967MOL0     H27593   1.012   5.036   0.202 -1.7130 -1.7823  0.9018
  967MOL0     H27594   1.069   5.183   0.288  1.1585  0.2176  0.3530
  967MOL0     H27595   1.057   4.893   0.397  2.8496 -1.5079 -4.9617
  967MOL0     H27596   1.108   5.039   0.493  3.9069  0.7288 -0.3329
  967MOL0     H27597   1.270   4.803   0.254 -4.0114  1.2533  0.2797
  967MOL0     H27598   1.648   4.929   0.188  1.3877 -1.8364 -0.6005
  967MOL0     H27599   1.519   4.829   0.120 -2.4430  0.7662  0.8345
  967MOL0     H27600   1.682   4.704   0.227  0.7881  1.1367 -0.2124
  967MOL0     H27601   1.519   4.685   0.314 -0.2137 -0.4923  2.0978
  967MOL0     H27602   1.605   4.842   0.493  2.3294  1.9488  1.2514
  967MOL0     H27603   1.690   4.693   0.491 -3.0351  1.1466  2.5468
  967MOL0     H27604   1.798   4.954   0.361 -0.2496  0.0172  0.0595
  967MOL0     H27605   1.857   4.787   0.323  0.8801 -0.4942  0.4387
  967MOL0     H27606   2.029   4.745   0.676  2.3174  1.9674  1.0790
  967MOL0     H27607   2.267   4.693   0.673 -2.9336 -0.7441  1.6197
  967MOL0     H27608   2.705   4.917   0.612 -1.0672 -0.2359 -0.0704
  967MOL0     H27609   2.930   4.892   0.611 -1.9307  1.8008  0.7173
  967MOL0     H27610   3.116   4.561   0.401  1.0061 -1.3637 -0.0252
  967MOL0     H27611   3.096   4.447   0.540 -0.5011  0.0097  1.8303
  967MOL0     H27612   3.347   4.475   0.468  1.4901  0.2061  1.0447
  967MOL0     H27613   3.294   4.479   0.634  3.0123 -0.8770 -0.5751
  967MOL0     H27614   3.325   4.716   0.643 -2.6457  0.5912 -1.0715
  967MOL0     H27615   3.335   4.739   0.467  2.2069  3.1682  1.6035
  967MOL0     H27616   3.548   4.600   0.643  2.6677  2.3107  0.2806
  967MOL0     H27617   3.514   4.570   0.470 -1.5775 -0.0658  0.0669
  967MOL0     H27618   3.565   4.816   0.422  2.5604  1.5177  0.1343
  967MOL0     H27619   3.697   4.739   0.509 -0.2859  0.6514  3.0867
  967MOL0     H27620   3.496   4.889   0.659  0.7799 -2.3465 -0.0878
  967MOL0     H27621   3.608   4.975   0.568 -2.3399 -0.3701 -1.2644
  967MOL0     H27622   3.620   4.863   0.813 -1.3013  0.6896 -1.2522
  967MOL0     H27623   3.703   4.725   0.749  2.1234  0.5791  1.5599
  967MOL0     H27624   3.856   4.914   0.641 -3.4290 -0.7069 -1.4259
  967MOL0     H27625   3.907   4.850   0.790  0.6676  1.7063 -0.4041
  967MOL0     H27626   2.887   4.470   0.520  0.3823  0.0554 -1.4606
  967MOL0     H27627   2.639   4.502   0.531 -1.5761  2.7434  1.6566
  967MOL0     H27628   2.270   4.860   0.261 -2.0580  2.2654  0.3104
  967MOL0     H27629   2.051   4.893   0.284  1.6683 -2.4545 -1.5561
  967MOL0     H27630   0.305   5.653   0.726 -3.9084 -1.1948  0.9226
  967MOL0     H27631   0.208   5.885   0.713  2.2016  2.1078  0.5933
  967MOL0     H27632  -0.094   6.252   0.356 -0.9753  0.2989  2.3257
  967MOL0     H27633  -0.101   6.500   0.372 -0.6929 -0.6640  0.4814
  967MOL0     H27634   0.196   6.783   0.541  2.1249 -0.3053  1.5074
  967MOL0     H27635   0.162   6.638   0.637 -2.2941 -1.0092 -0.6195
  967MOL0     H27636  -0.055   6.704   0.680  0.4663  0.6900  3.2497
  967MOL0     H27637   0.049   6.835   0.707  2.8523 -0.6712 -0.3530
  967MOL0     H27638   0.010   6.918   0.453  0.2572 -1.2860 -0.7684
  967MOL0     H27639  -0.110   6.957   0.583  0.3679 -0.6628  0.3789
  967MOL0     H27640  -0.217   6.879   0.364 -0.2168  0.9839  0.0832
  967MOL0     H27641  -0.140   6.725   0.402 -0.5781  1.2118 -1.9751
  967MOL0     H27642  -0.470   6.754   0.679  1.3740 -0.0180  1.6768
  967MOL0     H27643   0.295   6.506   0.517 -0.5918  1.2804  0.0199
  967MOL0     H27644   0.315   6.248   0.505 -2.1972 -3.1115  2.6144
  968MOL0     O27645   4.369   4.753   8.588 -0.1453  0.2320 -0.0518
  968MOL0     C27646   4.379   4.870   8.622 -0.3977  0.5629  1.2886
  968MOL0     O27647   4.440   4.966   8.549 -0.3268 -0.5056 -0.5227
  968MOL0     C27648   4.503   4.930   8.432  0.4378 -0.4914  0.1792
  968MOL0     C27649   4.452   4.976   8.314 -0.6978 -0.1665 -0.8255
  968MOL0     C27650   4.515   4.950   8.193 -0.0989 -0.1846  0.3489
  968MOL0     C27651   4.628   4.873   8.190 -0.2461 -0.4661 -0.4839
  968MOL0     O27652   4.674   4.843   8.065 -0.0898 -0.2882  0.1559
  968MOL0     C27653   4.801   4.773   8.044  0.8938  0.2461 -0.0062
  968MOL0     C27654   4.924   4.855   8.029 -0.9594  0.5796  0.0305
  968MOL0     C27655   5.047   4.784   7.974 -0.1596 -0.4129  0.0070
  968MOL0     C27656   5.165   4.888   7.946 -0.0347 -0.3876  0.3044
  968MOL0     C27657   5.134   4.971   7.815 -0.9816  0.0663  0.1034
  968MOL0     C27658   5.243   5.072   7.805 -1.6065  0.2165  0.1591
  968MOL0     C27659   5.245   5.166   7.687 -0.1039 -0.8733 -0.2372
  968MOL0     C27660   5.303   5.119   7.559  0.3059  0.2519  0.8352
  968MOL0     N27661   5.436   5.062   7.563  0.2310 -0.2861  0.0374
  968MOL0     C27662   5.479   4.940   7.517 -0.3696  0.2542 -0.3630
  968MOL0     C27663   5.606   4.930   7.547  0.6979  0.6102  0.3683
  968MOL0     C27664   5.685   4.806   7.554  0.7819  0.3245 -0.6074
  968MOL0     C27665   5.687   4.743   7.699  0.2306 -1.7340  0.5784
  968MOL0     C27666   5.545   4.693   7.744  0.4265  0.4470 -0.0616
  968MOL0     C27667   5.543   4.601   7.869 -0.7697 -0.6742  0.8375
  968MOL0     O27668   5.519   4.684   7.985  0.2162 -0.2442 -0.3654
  968MOL0     C27669   5.516   4.614   8.104 -0.2525 -0.1909 -0.5977
  968MOL0     C27670   5.458   4.675   8.210  0.3660  0.4707 -0.1337
  968MOL0     C27671   5.434   4.609   8.328 -0.2990 -0.1237  0.1925
  968MOL0     C27672   5.467   4.476   8.346 -0.5103  0.6914  0.6261
  968MOL0     C27673   5.450   4.406   8.470 -0.5621  0.7867 -0.7519
  968MOL0     O27674   5.383   4.463   8.573  0.6161 -0.6329  0.1844
  968MOL0     C27675   5.396   4.421   8.705  0.7133  0.4437  0.3809
  968MOL0     C27676   5.296   4.334   8.751  0.8029 -0.3417  0.9585
  968MOL0     C27677   5.275   4.304   8.879  0.5551 -0.8592 -0.5197
  968MOL0     C27678   5.343   4.366   8.981  0.4610 -0.1636  0.2667
  968MOL0     O27679   5.314   4.339   9.114 -0.0033  0.0019 -0.3377
  968MOL0     C27680   5.253   4.214   9.146  0.6709 -0.5061 -0.6457
  968MOL0     C27681   5.233   4.208   9.293  0.5754 -0.2081 -0.2190
  968MOL0     C27682   5.193   4.071   9.339 -0.7788 -0.1519 -0.2661
  968MOL0     C27683   5.195   4.067   9.487 -0.6095  0.1995  0.1886
  968MOL0     C27684   5.172   3.930   9.551 -0.0280 -0.9931  0.4993
  968MOL0     C27685   5.199   3.927   9.704  0.6383  0.3871  0.2346
  968MOL0     C27686   5.140   4.036   9.792  0.3501  0.2051  0.0525
  968MOL0     C27687   5.198   4.007   9.933  1.4511  0.3045  0.2572
  968MOL0    Cl27688   5.104   3.870  10.004 -0.1689  0.3474 -0.0654
  968MOL0     C27689   5.453   4.452   8.935 -0.1724  0.1691 -0.0675
  968MOL0     C27690   5.476   4.471   8.801  0.5073 -0.4926 -0.0016
  968MOL0     O27691   5.477   4.285   8.470  0.4441  0.2827  0.5794
  968MOL0     C27692   5.532   4.412   8.236 -0.5328  0.5984 -0.0486
  968MOL0     C27693   5.550   4.480   8.120 -0.7853  0.0669  0.0858
  968MOL0     N27694   5.646   5.050   7.593 -0.9669 -0.1752  0.1029
  968MOL0     N27695   5.544   5.131   7.593  0.0407 -0.2104 -0.4502
  968MOL0     C27696   4.687   4.836   8.312  0.1055 -0.5728  0.5400
  968MOL0     C27697   4.628   4.871   8.439 -0.4002  0.1635  0.5252
  968MOL0     C27698   4.350   4.910   8.762  0.4738 -0.7106  0.0449
  968MOL0     C27699   4.370   5.039   8.805 -0.8058 -0.3764 -0.0118
  968MOL0     C27700   4.348   5.063   8.936 -0.3804  0.0822 -0.1780
  968MOL0     C27701   4.294   4.978   9.030  0.0970  0.4522  0.7561
  968MOL0     O27702   4.281   5.019   9.155  0.2456 -0.2314 -0.1500
  968MOL0     C27703   4.230   4.926   9.256  0.5517  0.0304  0.1438
  968MOL0     C27704   4.083   4.873   9.260  0.7247  0.4887 -0.2745
  968MOL0     C27705   4.047   4.809   9.398 -0.5307  0.8223  0.5509
  968MOL0     C27706   3.933   4.709   9.381  0.8155 -0.2341  0.0636
  968MOL0     C27707   3.817   4.764   9.311  0.6224 -0.0324  0.0086
  968MOL0     C27708   3.732   4.807   9.239 -0.1341  0.5630  0.6785
  968MOL0     C27709   4.272   4.846   8.984 -0.1588 -0.1791 -0.2944
  968MOL0     C27710   4.293   4.821   8.853  0.2139 -0.2745 -0.1029
  968MOL0     H27711   4.363   5.037   8.316 -0.1687  0.6252 -0.9943
  968MOL0     H27712   4.479   4.991   8.099  0.5784  0.5211  0.3911
  968MOL0     H27713   4.784   4.722   7.949 -1.9071 -0.8676  0.9955
  968MOL0     H27714   4.821   4.694   8.118  0.5382 -0.5902 -0.7863
  968MOL0     H27715   4.943   4.882   8.133 -1.1240 -0.4403  0.3369
  968MOL0     H27716   4.905   4.943   7.968 -0.3954  2.9730  3.0668
  968MOL0     H27717   5.016   4.723   7.890  0.0545 -0.3322 -0.1319
  968MOL0     H27718   5.094   4.715   8.045  2.2380 -0.5306 -1.5620
  968MOL0     H27719   5.190   4.951   8.032 -0.1000  0.3047 -0.1771
  968MOL0     H27720   5.248   4.820   7.931  0.3024 -0.2480  1.4537
  968MOL0     H27721   5.040   5.027   7.809  0.2348  2.1116 -1.4121
  968MOL0     H27722   5.146   4.898   7.735  1.7077 -1.2035  1.5216
  968MOL0     H27723   5.334   5.014   7.790 -1.5592  0.8037 -2.1917
  968MOL0     H27724   5.246   5.143   7.889  0.2772  3.2254 -2.2251
  968MOL0     H27725   5.147   5.214   7.684 -0.4283 -1.5748 -2.3362
  968MOL0     H27726   5.316   5.243   7.720 -2.9379  2.5207 -1.3793
  968MOL0     H27727   5.284   5.185   7.475 -3.3931  0.2156  1.4679
  968MOL0     H27728   5.251   5.031   7.521  2.0192  0.3960 -2.1488
  968MOL0     H27729   5.422   4.865   7.464 -0.6811 -0.5394  1.0409
  968MOL0     H27730   5.783   4.813   7.507  2.0269  3.3922  2.0434
  968MOL0     H27731   5.639   4.733   7.487  2.2684 -1.8232  0.5821
  968MOL0     H27732   5.707   4.823   7.771  0.8964 -1.3840  0.0240
  968MOL0     H27733   5.760   4.662   7.699 -0.5640 -2.5873 -2.1825
  968MOL0     H27734   5.487   4.784   7.760 -0.4418 -0.4497  2.3431
  968MOL0     H27735   5.494   4.632   7.668 -1.0128 -0.4544  1.5667
  968MOL0     H27736   5.636   4.545   7.868  0.0247  0.4889 -2.4214
  968MOL0     H27737   5.462   4.529   7.857 -0.7377 -0.5234 -0.3748
  968MOL0     H27738   5.426   4.778   8.202 -3.1411 -0.4658 -0.0559
  968MOL0     H27739   5.388   4.657   8.413 -2.7062 -1.2238 -0.3924
  968MOL0     H27740   5.246   4.270   8.679 -0.4729 -2.8249  3.8621
  968MOL0     H27741   5.197   4.231   8.899  3.6717 -4.5222 -0.5980
  968MOL0     H27742   5.317   4.131   9.114  1.2338 -0.6087  0.6582
  968MOL0     H27743   5.160   4.216   9.089  0.0099  2.3855  0.3855
  968MOL0     H27744   5.149   4.271   9.325  0.7243 -1.2011  2.3587
  968MOL0     H27745   5.321   4.250   9.343 -0.3737  1.0209  0.4783
  968MOL0     H27746   5.253   3.993   9.290 -1.7277 -0.0220 -1.6798
  968MOL0     H27747   5.092   4.041   9.310 -0.6852  0.1328 -0.9172
  968MOL0     H27748   5.291   4.097   9.528 -1.1917  1.5887  0.5833
  968MOL0     H27749   5.117   4.129   9.532 -1.1407 -1.8163  2.2674
  968MOL0     H27750   5.243   3.863   9.502  0.8577 -2.5033  3.5969
  968MOL0     H27751   5.074   3.888   9.526  0.8775 -3.0791  0.2809
  968MOL0     H27752   5.307   3.926   9.718  0.7018  2.1386  0.0619
  968MOL0     H27753   5.161   3.831   9.743  0.8971 -0.6199 -1.8831
  968MOL0     H27754   5.181   4.132   9.760 -0.7295  0.0576 -1.9470
  968MOL0     H27755   5.032   4.053   9.802  0.2213  0.3620 -1.4111
  968MOL0     H27756   5.184   4.097   9.993  1.6491  0.9066 -0.5825
  968MOL0     H27757   5.304   3.979   9.931  1.4532  0.2892  0.5171
  968MOL0     H27758   5.507   4.492   9.020 -0.0031 -2.8793  1.3718
  968MOL0     H27759   5.546   4.544   8.761  3.2817 -2.7896  0.4066
  968MOL0     H27760   5.550   4.305   8.242 -1.5759  0.3720 -0.7015
  968MOL0     H27761   5.591   4.423   8.037  0.0601  0.1806  0.4207
  968MOL0     H27762   4.782   4.784   8.311  0.9785  0.8600 -2.7360
  968MOL0     H27763   4.670   4.825   8.528  3.0356 -2.3581 -2.1181
  968MOL0     H27764   4.423   5.119   8.754  2.5374 -2.5326 -0.3062
  968MOL0     H27765   4.364   5.166   8.968  1.9961 -0.5532  0.9619
  968MOL0     H27766   4.242   4.964   9.358  1.6085  1.7980 -0.5999
  968MOL0     H27767   4.297   4.841   9.242 -0.4705 -0.3837 -3.2676
  968MOL0     H27768   4.016   4.953   9.228  0.1647 -0.1359 -0.6974
  968MOL0     H27769   4.070   4.802   9.178  1.3140  1.0131 -0.8286
  968MOL0     H27770   4.015   4.884   9.472  0.6429 -1.4704  3.6180
  968MOL0     H27771   4.134   4.759   9.442 -1.3343  1.2278  2.7777
  968MOL0     H27772   3.973   4.632   9.314  2.6098  0.8371 -0.1730
  968MOL0     H27773   3.908   4.668   9.479 -3.7590  3.4479  0.8412
  968MOL0     H27774   3.664   4.855   9.172 -0.8786  2.6052  2.7383
  968MOL0     H27775   4.233   4.753   9.026  2.3191 -0.5455  1.3956
  968MOL0     H27776   4.262   4.726   8.809 -1.1289 -0.0595  0.3463
  969MOL0     O27777   4.877   8.579   9.082  0.2418 -0.3906 -0.6892
  969MOL0     C27778   4.765   8.553   9.031 -0.2793 -0.5994 -0.5228
  969MOL0     O27779   4.752   8.508   8.903  0.9168 -0.2204  0.8680
  969MOL0     C27780   4.847   8.541   8.818 -0.6846 -0.2413 -1.3292
  969MOL0     C27781   4.928   8.438   8.760 -0.0743 -0.2077  0.1445
  969MOL0     C27782   5.045   8.473   8.681  0.7559  0.6655 -0.3267
  969MOL0     C27783   5.077   8.600   8.664  0.1485 -0.5404  0.1436
  969MOL0     O27784   5.185   8.616   8.577 -0.4691 -0.0557  0.7394
  969MOL0     C27785   5.208   8.744   8.523  0.5656  0.5189  0.4941
  969MOL0     C27786   5.247   8.726   8.370 -0.4544 -0.4004  0.3161
  969MOL0     C27787   5.243   8.859   8.285 -0.1759 -0.8439 -0.4745
  969MOL0     C27788   5.273   8.855   8.132 -0.2302  0.4020  0.0749
  969MOL0     C27789   5.417   8.841   8.104 -0.1481 -0.0772  0.4453
  969MOL0     C27790   5.438   8.818   7.953  0.0930 -0.1076 -0.4352
  969MOL0     C27791   5.577   8.749   7.935  0.3326 -0.4412  1.4009
  969MOL0     C27792   5.611   8.732   7.783 -0.2028 -0.0627 -0.7267
  969MOL0     N27793   5.615   8.870   7.718 -0.7904  0.3565  0.1189
  969MOL0     C27794   5.695   8.974   7.757  0.9044  0.0782  0.0346
  969MOL0     C27795   5.679   9.041   7.636 -0.0503 -0.6194  0.0305
  969MOL0     C27796   5.755   9.166   7.589 -0.7148  0.6743  0.5057
  969MOL0     C27797   5.699   9.302   7.614  0.1117  0.0070  0.7366
  969MOL0     C27798   5.572   9.349   7.542  0.3227 -0.3790  0.5847
  969MOL0     C27799   5.443   9.297   7.611 -0.4497  0.0556  0.4853
  969MOL0     O27800   5.430   9.333   7.745  0.1611 -0.3201 -1.2605
  969MOL0     C27801   5.315   9.285   7.802  0.7278  0.2491  0.2909
  969MOL0     C27802   5.190   9.263   7.730  0.1046 -0.0336  0.2970
  969MOL0     C27803   5.073   9.213   7.799 -1.3711  0.3900 -1.2163
  969MOL0     C27804   5.072   9.200   7.940 -0.1259 -0.5547  0.0180
  969MOL0     C27805   4.958   9.180   8.024 -0.4915  0.1207 -0.4152
  969MOL0     O27806   4.981   9.200   8.156 -0.3746 -0.5062 -0.2799
  969MOL0     C27807   4.888   9.230   8.252  0.1246  0.1244 -0.1765
  969MOL0     C27808   4.928   9.237   8.390 -0.2920  0.0211 -0.2163
  969MOL0     C27809   4.850   9.264   8.499 -0.1750 -1.3140  0.7165
  969MOL0     C27810   4.712   9.281   8.481 -0.8123  0.3638 -0.0867
  969MOL0     O27811   4.615   9.290   8.583 -0.2011 -0.5229  0.6668
  969MOL0     C27812   4.658   9.338   8.707 -0.5609  1.0275  1.2738
  969MOL0     C27813   4.545   9.421   8.782  0.1323  1.0469  0.7780
  969MOL0     C27814   4.537   9.400   8.926  0.5135 -0.5233 -0.6819
  969MOL0     C27815   4.430   9.479   9.003 -0.0575  0.1875  0.6778
  969MOL0     C27816   4.439   9.441   9.147 -0.3658 -0.6544 -0.8276
  969MOL0     C27817   4.373   9.552   9.242 -0.1639 -0.3037  0.9684
  969MOL0     C27818   4.404   9.521   9.389  0.3990 -0.6378 -0.4801
  969MOL0     C27819   4.318   9.614   9.476  0.2165  0.8399  0.2652
  969MOL0    Cl27820   4.244   9.506   9.599 -0.3553 -0.2096  0.1899
  969MOL0     C27821   4.669   9.282   8.349 -1.1160 -0.5203  0.0077
  969MOL0     C27822   4.757   9.267   8.237 -0.6800 -0.5561  0.3126
  969MOL0     O27823   4.846   9.160   7.978 -0.3331 -0.7411  0.1467
  969MOL0     C27824   5.205   9.210   7.995 -0.6130  1.0482  0.4189
  969MOL0     C27825   5.321   9.247   7.935  0.5426 -0.0902 -0.1730
  969MOL0     N27826   5.592   8.978   7.545  0.7756  0.3214 -0.2786
  969MOL0     N27827   5.547   8.877   7.600  0.0273  0.1627  0.4228
  969MOL0     C27828   5.000   8.700   8.716  0.4357  0.0912 -0.4374
  969MOL0     C27829   4.884   8.673   8.788 -0.5758 -0.4018 -0.3055
  969MOL0     C27830   4.644   8.585   9.113 -0.3318  0.3881  0.2538
  969MOL0     C27831   4.675   8.604   9.254 -0.2293 -0.2939  0.1150
  969MOL0     C27832   4.573   8.612   9.350 -0.0454 -0.1286  1.2286
  969MOL0     C27833   4.441   8.614   9.303 -0.3383 -0.0442  0.3339
  969MOL0     O27834   4.339   8.622   9.399 -0.3564 -0.1275 -0.5052
  969MOL0     C27835   4.202   8.629   9.372 -0.3218 -0.0890 -0.1395
  969MOL0     C27836   4.123   8.638   9.499  0.2578 -0.5080 -0.7655
  969MOL0     C27837   3.970   8.659   9.486  0.5262 -0.1367 -0.1047
  969MOL0     C27838   3.882   8.535   9.521  0.6071  0.2122 -0.8768
  969MOL0     C27839   3.737   8.582   9.512  0.3736 -0.6431 -0.4754
  969MOL0     C27840   3.614   8.591   9.493  0.1342 -0.0965  0.0650
  969MOL0     C27841   4.416   8.603   9.166  0.7064  0.5233  0.7687
  969MOL0     C27842   4.510   8.580   9.068 -0.0919 -1.1946 -0.0939
  969MOL0     H27843   4.901   8.333   8.771  0.7389 -0.3538  0.8856
  969MOL0     H27844   5.100   8.399   8.624 -2.0861 -0.2610 -2.0720
  969MOL0     H27845   5.286   8.784   8.589  0.5364  0.4173  0.5910
  969MOL0     H27846   5.111   8.793   8.514  0.2589 -0.3668 -1.7722
  969MOL0     H27847   5.173   8.664   8.318 -2.3445  0.6678  1.6180
  969MOL0     H27848   5.350   8.692   8.356 -0.1962  0.3875  0.2711
  969MOL0     H27849   5.322   8.926   8.321 -0.2892  0.1482 -1.9812
  969MOL0     H27850   5.141   8.897   8.295  0.0542  1.1959 -4.0243
  969MOL0     H27851   5.215   8.774   8.085 -1.2665  1.2528 -0.1742
  969MOL0     H27852   5.229   8.945   8.087 -0.5047 -0.2356 -0.9777
  969MOL0     H27853   5.457   8.755   8.160  0.2119  0.1236  0.4976
  969MOL0     H27854   5.468   8.932   8.139  1.6690 -1.6996  2.3486
  969MOL0     H27855   5.426   8.907   7.890  2.2544 -1.2848 -2.6823
  969MOL0     H27856   5.359   8.750   7.920  1.5521 -1.2786 -1.6380
  969MOL0     H27857   5.658   8.808   7.979  1.2669 -0.4380 -0.2293
  969MOL0     H27858   5.580   8.645   7.969  0.6180 -0.8811  0.0780
  969MOL0     H27859   5.534   8.667   7.740 -1.8609  1.4326 -0.1794
  969MOL0     H27860   5.709   8.686   7.768 -0.1863 -0.1135 -0.4769
  969MOL0     H27861   5.763   8.983   7.841  1.9556 -2.3701 -0.4628
  969MOL0     H27862   5.764   9.168   7.480 -0.3097 -1.0293  0.4883
  969MOL0     H27863   5.858   9.158   7.626 -0.2772  0.0742 -0.7541
  969MOL0     H27864   5.780   9.361   7.568  1.1004 -1.5780  0.3716
  969MOL0     H27865   5.702   9.330   7.719  0.5850  1.1681  0.4291
  969MOL0     H27866   5.569   9.458   7.541  0.5370 -0.3733  0.5060
  969MOL0     H27867   5.577   9.317   7.437  1.7630  0.5706  0.3321
  969MOL0     H27868   5.438   9.188   7.603  0.4320  0.0686 -0.5393
  969MOL0     H27869   5.363   9.342   7.552  1.2714  0.6638 -1.5351
  969MOL0     H27870   5.178   9.302   7.629 -1.3397  1.0105  0.8310
  969MOL0     H27871   4.978   9.205   7.747 -0.2344  1.4367 -3.5523
  969MOL0     H27872   5.032   9.224   8.417 -0.4247 -0.5455  0.0379
  969MOL0     H27873   4.886   9.251   8.600 -0.2702  0.6258  1.0393
  969MOL0     H27874   4.741   9.408   8.691 -0.7529  1.2126  1.0960
  969MOL0     H27875   4.696   9.250   8.759 -0.2175  0.1798 -0.3429
  969MOL0     H27876   4.444   9.395   8.747  0.5101  1.6727 -0.8407
  969MOL0     H27877   4.549   9.528   8.759 -1.1015  0.8099 -0.7668
  969MOL0     H27878   4.632   9.427   8.973 -0.6271 -1.0169  2.1159
  969MOL0     H27879   4.524   9.294   8.952  1.5028 -0.2943  0.8460
  969MOL0     H27880   4.457   9.584   8.991  2.4428 -0.4621 -0.1675
  969MOL0     H27881   4.331   9.460   8.962  0.5908 -0.4715 -0.6312
  969MOL0     H27882   4.542   9.434   9.183 -0.4045 -2.4652 -0.9867
  969MOL0     H27883   4.399   9.343   9.174 -3.8148  1.1262  1.1083
  969MOL0     H27884   4.268   9.561   9.214 -0.0521 -0.7042  0.3908
  969MOL0     H27885   4.425   9.647   9.226 -0.1853  0.3367  4.0904
  969MOL0     H27886   4.396   9.415   9.413  0.5935 -0.5613 -0.0617
  969MOL0     H27887   4.510   9.541   9.410  1.3447 -4.6295 -0.6698
  969MOL0     H27888   4.239   9.673   9.428  0.6219  0.4177 -0.9590
  969MOL0     H27889   4.377   9.678   9.543 -1.0245 -0.7392  3.0151
  969MOL0     H27890   4.564   9.299   8.330 -1.3850 -3.7306 -2.1370
  969MOL0     H27891   4.713   9.289   8.141  2.6103  0.1686 -1.1711
  969MOL0     H27892   5.227   9.187   8.099  3.3566  2.3627  0.0322
  969MOL0     H27893   5.419   9.268   7.977 -0.0228 -0.0883  1.1906
  969MOL0     H27894   5.037   8.802   8.708  0.4994 -0.0794 -2.9321
  969MOL0     H27895   4.825   8.749   8.838 -0.0566  0.9412 -1.6468
  969MOL0     H27896   4.779   8.600   9.283  0.1796 -1.2766 -1.3764
  969MOL0     H27897   4.601   8.627   9.454  1.4423  2.4011  0.5411
  969MOL0     H27898   4.182   8.533   9.322  2.3115 -0.3301 -0.8535
  969MOL0     H27899   4.189   8.712   9.302  2.0191 -1.1887 -2.0129
  969MOL0     H27900   4.131   8.543   9.553 -0.9775 -0.3548 -0.2715
  969MOL0     H27901   4.167   8.719   9.559 -1.5052  1.4021 -1.9355
  969MOL0     H27902   3.943   8.698   9.388  0.3034  0.2553  0.1119
  969MOL0     H27903   3.940   8.739   9.555  0.9855  0.2405 -0.3369
  969MOL0     H27904   3.908   8.455   9.451  0.3843  0.0957 -0.8266
  969MOL0     H27905   3.918   8.505   9.620 -1.5049  0.8544  0.1442
  969MOL0     H27906   3.512   8.614   9.470 -1.0763 -2.2246  2.6918
  969MOL0     H27907   4.311   8.602   9.139  0.9914  1.9216 -0.4764
  969MOL0     H27908   4.501   8.563   8.961 -1.8873  1.4853 -0.4656
  970MOL0     O27909   2.115   1.744  10.060 -1.0628  0.6487 -0.0789
  970MOL0     C27910   2.039   1.706  10.147 -0.6690 -1.3201 -0.4781
  970MOL0     O27911   2.070   1.625  10.247  0.6693 -0.0619  0.0279
  970MOL0     C27912   2.162   1.524  10.217 -0.2810 -0.5116 -0.5913
  970MOL0     C27913   2.116   1.393  10.218 -0.3841  0.8182  0.1717
  970MOL0     C27914   2.193   1.284  10.167  0.8006 -0.5465 -0.7146
  970MOL0     C27915   2.331   1.310  10.133 -0.1704  0.6196  0.1495
  970MOL0     O27916   2.411   1.207  10.107 -0.3955  0.4940 -0.5039
  970MOL0     C27917   2.542   1.222  10.151  0.8002 -0.0499  0.6457
  970MOL0     C27918   2.609   1.092  10.143 -0.1414  0.2631  0.1535
  970MOL0     C27919   2.745   1.099  10.200 -0.3435 -0.0272 -0.1864
  970MOL0     C27920   2.839   0.981  10.152 -0.2522  0.0995  0.3760
  970MOL0     C27921   2.985   0.989  10.210  0.0548  0.4721  0.3983
  970MOL0     C27922   3.062   0.859  10.178 -0.7225 -0.6761 -0.8168
  970MOL0     C27923   3.036   0.741  10.270  1.1033  0.7336  0.2141
  970MOL0     C27924   3.098   0.755  10.409 -0.0767 -0.2574 -0.6652
  970MOL0     N27925   3.230   0.696  10.421 -0.1352  0.4999 -0.1905
  970MOL0     C27926   3.254   0.567  10.444 -0.4679  0.6838  1.1947
  970MOL0     C27927   3.392   0.555  10.456 -0.2086 -1.1275  0.0143
  970MOL0     C27928   3.463   0.415  10.470 -0.0945  0.4721 -0.0093
  970MOL0     C27929   3.536   0.384  10.342  0.0830 -0.0622 -0.1109
  970MOL0     C27930   3.638   0.266  10.360  1.3361 -0.6297 -0.3167
  970MOL0     C27931   3.577   0.140  10.421  0.3499  0.2349 -0.2416
  970MOL0     O27932   3.664   0.022  10.414  0.2293  0.5435 -0.5500
  970MOL0     C27933   3.765  -0.002  10.504 -0.4865 -0.6531  0.6243
  970MOL0     C27934   3.817  -0.128  10.500 -1.1420 -0.1106  0.2935
  970MOL0     C27935   3.933  -0.162  10.590  0.8175 -0.2778  0.1028
  970MOL0     C27936   3.982  -0.057  10.673 -0.2381  0.6761 -0.4106
  970MOL0     C27937   4.100  -0.082  10.767  0.7335 -0.1239  0.8576
  970MOL0     O27938   4.131   0.017  10.856  0.4556  0.3693  0.2301
  970MOL0     C27939   4.243   0.014  10.928  0.0038 -1.0329 -0.0203
  970MOL0     C27940   4.374  -0.039  10.888 -0.4461  1.2301  0.1743
  970MOL0     C27941   4.492  -0.029  10.969  0.4638 -0.8947  0.5449
  970MOL0     C27942   4.489   0.042  11.091 -0.7933  0.1380 -0.1002
  970MOL0     O27943   4.598   0.056  11.178  1.0254 -0.4385  0.7957
  970MOL0     C27944   4.720   0.004  11.128 -0.2567  0.3648 -0.0715
  970MOL0     C27945   4.812  -0.007  11.251  0.6599 -1.0806  0.0980
  970MOL0     C27946   4.937  -0.089  11.213  1.1489  0.3508 -0.8604
  970MOL0     C27947   4.995  -0.155  11.335  0.4607 -0.0388 -0.4154
  970MOL0     C27948   5.126  -0.214  11.296  0.2281  0.3573  1.0192
  970MOL0     C27949   5.206  -0.274  11.417  0.0299  0.2229 -1.1657
  970MOL0     C27950   5.300  -0.395  11.374  0.4911 -0.9795 -0.2678
  970MOL0     C27951   5.234  -0.524  11.320  0.3843 -0.5141 -0.7369
  970MOL0    Cl27952   5.116  -0.600  11.443 -0.2403 -0.2496 -0.3626
  970MOL0     C27953   4.371   0.104  11.122  1.0578  0.4093 -0.1841
  970MOL0     C27954   4.250   0.093  11.050 -0.7788  0.0302  1.6627
  970MOL0     O27955   4.150  -0.195  10.757 -0.0191  0.6355 -0.4452
  970MOL0     C27956   3.918   0.072  10.672  0.4074 -0.4000 -0.0635
  970MOL0     C27957   3.820   0.102  10.579 -0.0873 -0.1036  0.8671
  970MOL0     N27958   3.450   0.682  10.433 -0.1572  0.4597 -0.3444
  970MOL0     N27959   3.351   0.768  10.412  0.3453  0.5288 -0.4139
  970MOL0     C27960   2.376   1.445  10.130  1.0176  0.6578  0.6767
  970MOL0     C27961   2.292   1.553  10.173  0.4722 -0.6447  0.5632
  970MOL0     C27962   1.928   1.796  10.179  0.4088  0.0330  0.0014
  970MOL0     C27963   1.819   1.757  10.264  0.2399  0.4521  0.0364
  970MOL0     C27964   1.719   1.840  10.306 -0.0940 -0.5135 -0.6742
  970MOL0     C27965   1.711   1.975  10.258  0.3659  0.5980 -0.1475
  970MOL0     O27966   1.623   2.073  10.297  0.4525  0.7721 -0.2620
  970MOL0     C27967   1.513   2.020  10.375 -0.5679 -0.5733 -0.3807
  970MOL0     C27968   1.414   2.134  10.383 -0.1310  0.8605 -1.3331
  970MOL0     C27969   1.445   2.228  10.496 -0.4732  0.6027 -0.0487
  970MOL0     C27970   1.566   2.321  10.459  0.3220 -1.1766  0.0577
  970MOL0     C27971   1.580   2.429  10.562 -0.6123  1.0522 -0.0467
  970MOL0     C27972   1.601   2.532  10.632  0.1885  0.5793  0.8812
  970MOL0     C27973   1.813   2.022  10.173 -1.1589  0.3206  0.5946
  970MOL0     C27974   1.928   1.932  10.145 -0.5091  0.3944 -0.1819
  970MOL0     H27975   2.010   1.377  10.233 -0.4483  0.4035 -0.6367
  970MOL0     H27976   2.145   1.187  10.161  1.2748 -1.0722  2.3049
  970MOL0     H27977   2.519   1.255  10.252 -1.9686  1.8160 -0.4585
  970MOL0     H27978   2.591   1.302  10.095  0.3662 -1.7025 -2.3391
  970MOL0     H27979   2.619   1.055  10.040  1.6704 -0.4597  0.5548
  970MOL0     H27980   2.558   1.008  10.191 -0.1270  0.7268  0.9911
  970MOL0     H27981   2.726   1.106  10.307  0.5143  1.4567 -0.0973
  970MOL0     H27982   2.787   1.195  10.170  2.3566 -0.5507  1.5783
  970MOL0     H27983   2.798   0.890  10.197 -1.3257  1.3101  1.9737
  970MOL0     H27984   2.852   0.987  10.043  0.8051  0.4324  0.5076
  970MOL0     H27985   2.982   1.009  10.317  3.9806 -1.7192  1.0880
  970MOL0     H27986   3.036   1.075  10.164  0.1382  0.6561  0.8362
  970MOL0     H27987   3.170   0.876  10.186 -1.1283  2.0969 -0.1863
  970MOL0     H27988   3.035   0.827  10.077  2.9977 -2.7332 -1.3555
  970MOL0     H27989   2.927   0.733  10.266  1.1157 -0.0572  1.3439
  970MOL0     H27990   3.073   0.651  10.220 -0.5178 -0.8372  1.6956
  970MOL0     H27991   3.043   0.703  10.489  3.5464  0.3022  2.5184
  970MOL0     H27992   3.115   0.859  10.437  0.2708 -0.4351 -0.1835
  970MOL0     H27993   3.190   0.482  10.463  2.3008 -2.2997 -1.5396
  970MOL0     H27994   3.388   0.337  10.487  1.7902 -1.5122 -0.4404
  970MOL0     H27995   3.533   0.430  10.552  1.0533  3.5126 -1.3827
  970MOL0     H27996   3.594   0.475  10.325  0.8992 -0.6440 -0.4891
  970MOL0     H27997   3.467   0.371  10.258 -0.8544 -2.5594  0.9751
  970MOL0     H27998   3.683   0.257  10.261  3.3819  0.9121  0.4058
  970MOL0     H27999   3.715   0.303  10.428 -0.2562  1.3567  0.5284
  970MOL0     H28000   3.482   0.115  10.372  2.1048 -2.7431 -2.5040
  970MOL0     H28001   3.550   0.161  10.525 -4.0798 -0.9175 -0.9414
  970MOL0     H28002   3.777  -0.204  10.433  0.4774 -0.7275 -0.0295
  970MOL0     H28003   3.972  -0.261  10.611 -2.2812 -1.6700 -0.1384
  970MOL0     H28004   4.387  -0.097  10.797  2.9833 -0.3260  1.4697
  970MOL0     H28005   4.581  -0.080  10.935  1.2119  0.8099 -0.2091
  970MOL0     H28006   4.772   0.073  11.062 -0.7042  0.2374 -0.5647
  970MOL0     H28007   4.703  -0.095  11.085 -0.7266 -0.5452  2.0639
  970MOL0     H28008   4.764  -0.057  11.335  3.6333 -1.0752  1.9373
  970MOL0     H28009   4.840   0.094  11.280  0.2511 -0.6540 -0.9347
  970MOL0     H28010   5.004  -0.020  11.160 -2.7309  3.7870 -1.8508
  970MOL0     H28011   4.907  -0.169  11.144  0.4863 -1.1662  1.0899
  970MOL0     H28012   5.005  -0.072  11.406 -2.7116 -1.3689  1.7957
  970MOL0     H28013   4.937  -0.236  11.380 -2.0149  2.4170  1.1332
  970MOL0     H28014   5.196  -0.143  11.251 -0.7645  0.0207 -1.2063
  970MOL0     H28015   5.106  -0.290  11.220 -0.5814 -0.7867  2.3343
  970MOL0     H28016   5.137  -0.322  11.487 -0.3701  3.3863  0.7827
  970MOL0     H28017   5.263  -0.194  11.465 -1.3144 -0.6088  2.1278
  970MOL0     H28018   5.369  -0.357  11.298 -0.4136 -0.5813 -0.9103
  970MOL0     H28019   5.362  -0.427  11.458 -1.9796 -2.4719  1.1135
  970MOL0     H28020   5.304  -0.592  11.271  2.8423  2.2138 -1.3146
  970MOL0     H28021   5.170  -0.492  11.237 -2.3482 -4.6552 -0.4971
  970MOL0     H28022   4.379   0.163  11.213  2.9287  2.2867 -1.4559
  970MOL0     H28023   4.156   0.130  11.088 -1.4171  2.3664 -1.7056
  970MOL0     H28024   3.957   0.153  10.733  2.4180 -2.0561  1.0125
  970MOL0     H28025   3.779   0.202  10.575  0.9863  0.4057  2.0135
  970MOL0     H28026   2.471   1.482  10.093 -0.7121  0.2263 -5.1753
  970MOL0     H28027   2.339   1.650  10.166  2.6205 -1.7066 -3.7179
  970MOL0     H28028   1.806   1.652  10.290 -1.1370  0.7849  0.7739
  970MOL0     H28029   1.652   1.806  10.385  0.2090  3.8056  1.7387
  970MOL0     H28030   1.540   1.978  10.473 -0.3704  0.9535  0.2425
  970MOL0     H28031   1.464   1.936  10.324 -2.2807 -0.2572  0.6560
  970MOL0     H28032   1.425   2.177  10.283 -1.5121  1.9386 -1.0493
  970MOL0     H28033   1.312   2.101  10.403  0.3623  0.7360  1.3302
  970MOL0     H28034   1.452   2.163  10.584 -2.4040  1.4590  0.8064
  970MOL0     H28035   1.352   2.282  10.514 -0.8072 -0.8068  3.0229
  970MOL0     H28036   1.659   2.263  10.465  1.7245  0.8836 -0.6236
  970MOL0     H28037   1.542   2.360  10.360 -0.8640 -0.1649  0.7163
  970MOL0     H28038   1.633   2.608  10.700  4.4785 -0.1512  0.0060
  970MOL0     H28039   1.817   2.123  10.134  0.8335 -0.4690 -1.4897
  970MOL0     H28040   2.004   1.983  10.087  1.1079 -0.9222  0.7056
  971MOL0     O28041   7.106   0.085   9.585  0.3167 -0.5029 -0.5482
  971MOL0     C28042   7.033   0.045   9.674  0.1482 -0.1141 -0.7498
  971MOL0     O28043   7.061  -0.054   9.757  0.5657 -0.1015 -0.1429
  971MOL0     C28044   7.173  -0.132   9.732  0.5774  0.1224  0.0879
  971MOL0     C28045   7.163  -0.264   9.682 -0.2950  0.1298  0.6825
  971MOL0     C28046   7.282  -0.338   9.660 -0.2301 -0.4247 -0.4915
  971MOL0     C28047   7.410  -0.278   9.682  0.7500 -0.0902 -0.2426
  971MOL0     O28048   7.513  -0.359   9.666  0.2899  0.4190 -0.9378
  971MOL0     C28049   7.636  -0.335   9.741 -0.7670 -0.2290 -0.0056
  971MOL0     C28050   7.727  -0.463   9.735 -1.3283 -0.8675 -0.4135
  971MOL0     C28051   7.868  -0.427   9.795  0.7765 -0.3829 -0.5322
  971MOL0     C28052   7.971  -0.543   9.774  0.5017  0.2696 -0.1968
  971MOL0     C28053   7.935  -0.668   9.852  0.0231  0.3675 -0.3470
  971MOL0     C28054   8.059  -0.756   9.882  0.6245 -1.5311  0.3056
  971MOL0     C28055   8.097  -0.853   9.768 -0.0437 -0.1310 -0.2073
  971MOL0     C28056   8.248  -0.852   9.750  0.8936 -0.4783 -0.3051
  971MOL0     N28057   8.286  -0.955   9.661 -0.2010 -0.1233 -0.0803
  971MOL0     C28058   8.250  -0.974   9.532  0.4166  0.4758 -0.5882
  971MOL0     C28059   8.326  -1.075   9.491 -0.4988  0.4667 -0.0731
  971MOL0     C28060   8.321  -1.128   9.349  0.3015  0.3278 -0.0965
  971MOL0     C28061   8.250  -1.268   9.342 -0.3681 -0.0709 -0.1262
  971MOL0     C28062   8.246  -1.312   9.198 -0.7588 -0.0841 -0.3198
  971MOL0     C28063   8.152  -1.434   9.181  1.3376  0.2245  0.1444
  971MOL0     O28064   8.013  -1.399   9.215 -0.1815 -0.0659  0.1372
  971MOL0     C28065   7.939  -1.313   9.129 -0.4176 -0.1218  0.5036
  971MOL0     C28066   7.988  -1.278   9.000  0.1913 -0.5088  0.5776
  971MOL0     C28067   7.913  -1.201   8.911  0.1764 -0.4102 -0.2644
  971MOL0     C28068   7.783  -1.155   8.952 -0.7160 -0.7358  0.6608
  971MOL0     C28069   7.711  -1.060   8.872 -0.4184  0.0427  0.0443
  971MOL0     O28070   7.610  -1.000   8.932 -0.3335  0.2236 -0.1809
  971MOL0     C28071   7.560  -0.872   8.892  0.5043  0.5047  0.2878
  971MOL0     C28072   7.645  -0.761   8.869  0.4017 -0.5136 -0.1598
  971MOL0     C28073   7.580  -0.639   8.844 -0.2528 -0.8855  0.2366
  971MOL0     C28074   7.443  -0.623   8.826  0.1688  0.1631  0.4353
  971MOL0     O28075   7.398  -0.495   8.802 -0.4198  0.6619  0.7422
  971MOL0     C28076   7.389  -0.413   8.916 -0.2471  0.1683  0.3823
  971MOL0     C28077   7.262  -0.320   8.894 -0.6933  0.7027  0.0002
  971MOL0     C28078   7.151  -0.380   8.813 -0.4107  0.2960 -0.4368
  971MOL0     C28079   7.034  -0.290   8.839  0.7558 -1.1899 -1.0388
  971MOL0     C28080   6.912  -0.343   8.775 -0.2249  0.0894 -0.0647
  971MOL0     C28081   6.794  -0.245   8.820 -0.7720 -0.6377 -0.0194
  971MOL0     C28082   6.679  -0.275   8.733  0.0650  0.1310 -0.4586
  971MOL0     C28083   6.561  -0.176   8.735  0.5480 -0.2760 -0.3483
  971MOL0    Cl28084   6.537  -0.118   8.907 -0.6313 -0.0899  0.2444
  971MOL0     C28085   7.366  -0.736   8.837  0.1827  0.5811 -0.6760
  971MOL0     C28086   7.422  -0.858   8.879 -0.1437 -0.0196  0.9015
  971MOL0     O28087   7.747  -1.042   8.754  0.0317  0.6931 -0.4472
  971MOL0     C28088   7.742  -1.180   9.089  0.1006 -1.5125  0.3678
  971MOL0     C28089   7.816  -1.266   9.173  0.2054 -0.3543  0.7908
  971MOL0     N28090   8.405  -1.128   9.599  0.3365  0.0195  0.3902
  971MOL0     N28091   8.371  -1.054   9.701  0.9239  0.3229 -0.1638
  971MOL0     C28092   7.415  -0.146   9.720  1.1300  0.6099  0.4039
  971MOL0     C28093   7.299  -0.071   9.741 -1.2059  0.0404 -0.4517
  971MOL0     C28094   6.901   0.112   9.691  0.4097 -0.8303 -0.3547
  971MOL0     C28095   6.827   0.076   9.800  0.4049  0.3014  0.2292
  971MOL0     C28096   6.693   0.117   9.817 -0.6500 -0.1579  0.5527
  971MOL0     C28097   6.640   0.202   9.721  0.1437  0.1239  0.2724
  971MOL0     O28098   6.517   0.258   9.742 -0.4326  0.0330 -0.0115
  971MOL0     C28099   6.443   0.300   9.632  0.1191  0.8597 -0.3615
  971MOL0     C28100   6.290   0.301   9.661  0.0166  0.0744  0.5239
  971MOL0     C28101   6.215   0.382   9.558  0.5646  0.3286  0.0321
  971MOL0     C28102   6.237   0.534   9.577  0.4020 -0.4794  0.0498
  971MOL0     C28103   6.138   0.610   9.508 -0.2460  0.7815  0.5825
  971MOL0     C28104   6.050   0.680   9.451  0.5332  0.3071 -0.1541
  971MOL0     C28105   6.722   0.246   9.613  1.4289 -0.1480  0.6520
  971MOL0     C28106   6.847   0.199   9.597 -0.5559  0.5064  0.0212
  971MOL0     H28107   7.065  -0.289   9.644 -1.3463  3.1839  1.0881
  971MOL0     H28108   7.284  -0.443   9.631  1.8061 -0.3644 -0.6605
  971MOL0     H28109   7.629  -0.310   9.848  3.2261  0.2312  0.2784
  971MOL0     H28110   7.686  -0.248   9.697 -2.4190  0.4078 -0.7031
  971MOL0     H28111   7.749  -0.484   9.630  2.4003  2.5880 -0.5857
  971MOL0     H28112   7.681  -0.548   9.788 -1.1049  0.5061  2.1643
  971MOL0     H28113   7.855  -0.408   9.902 -0.5198 -1.7266 -0.4206
  971MOL0     H28114   7.911  -0.336   9.751  0.6232 -0.1808 -0.2675
  971MOL0     H28115   7.991  -0.555   9.668 -0.2002  1.2183 -0.4491
  971MOL0     H28116   8.067  -0.508   9.812  0.8196 -0.1953 -0.5723
  971MOL0     H28117   7.857  -0.714   9.790  0.3138  0.6782 -0.9485
  971MOL0     H28118   7.878  -0.647   9.943  0.3179 -0.9548  0.1642
  971MOL0     H28119   8.011  -0.814   9.961 -0.0386 -0.8769  0.3870
  971MOL0     H28120   8.144  -0.700   9.924  0.5550  0.2389 -1.7361
  971MOL0     H28121   8.070  -0.954   9.803 -1.0377  0.7334  1.6993
  971MOL0     H28122   8.036  -0.835   9.679 -1.8722  0.7379  1.1580
  971MOL0     H28123   8.289  -0.858   9.851  0.5185  2.2711  0.0876
  971MOL0     H28124   8.279  -0.758   9.705 -0.2539 -0.0835 -0.2998
  971MOL0     H28125   8.184  -0.923   9.463 -0.3647 -2.9926 -2.6484
  971MOL0     H28126   8.422  -1.150   9.312  0.7266 -0.7369  1.5516
  971MOL0     H28127   8.267  -1.054   9.289  0.5975  2.0960  1.6861
  971MOL0     H28128   8.145  -1.264   9.371 -0.8384 -3.9556 -0.7172
  971MOL0     H28129   8.293  -1.352   9.397 -1.0485 -1.8995 -2.2217
  971MOL0     H28130   8.210  -1.236   9.128 -1.8879 -2.8440 -2.9717
  971MOL0     H28131   8.351  -1.332   9.172 -1.2236 -3.1882 -0.2080
  971MOL0     H28132   8.185  -1.514   9.249 -1.1942  0.4228  1.7422
  971MOL0     H28133   8.154  -1.470   9.078 -0.8525  0.3087  0.0203
  971MOL0     H28134   8.084  -1.320   8.973  0.8586  0.2470  1.6639
  971MOL0     H28135   7.948  -1.195   8.808 -1.8338  1.1077 -0.9399
  971MOL0     H28136   7.751  -0.778   8.881  0.7466  1.6909  0.2594
  971MOL0     H28137   7.648  -0.554   8.845 -0.9522 -0.2778 -1.2186
  971MOL0     H28138   7.482  -0.355   8.913  1.2030 -2.0454  0.6385
  971MOL0     H28139   7.380  -0.465   9.012 -3.2385  0.6142  0.4254
  971MOL0     H28140   7.293  -0.222   8.856 -0.8919  1.0362  0.6749
  971MOL0     H28141   7.221  -0.305   8.994  0.2414  0.6051  0.4115
  971MOL0     H28142   7.122  -0.482   8.839 -0.5362  0.4175 -0.0914
  971MOL0     H28143   7.171  -0.377   8.705  0.4847 -2.5225 -0.4381
  971MOL0     H28144   7.012  -0.278   8.945 -1.5042  2.0630 -1.7116
  971MOL0     H28145   7.058  -0.186   8.814 -0.9584  0.3293  2.8180
  971MOL0     H28146   6.895  -0.445   8.810  0.6314 -0.8922 -2.3318
  971MOL0     H28147   6.917  -0.350   8.666  0.7820 -0.2064 -0.0122
  971MOL0     H28148   6.819  -0.141   8.797 -0.3480 -0.8962 -0.7688
  971MOL0     H28149   6.764  -0.273   8.922 -1.6825 -0.4856 -0.2375
  971MOL0     H28150   6.709  -0.288   8.628 -1.5447 -1.1860 -0.8130
  971MOL0     H28151   6.655  -0.380   8.753 -0.9757 -0.2987 -3.4065
  971MOL0     H28152   6.470  -0.212   8.688 -2.0071 -0.3193  4.0679
  971MOL0     H28153   6.586  -0.084   8.681 -2.7270 -1.2912 -3.9978
  971MOL0     H28154   7.262  -0.721   8.810  0.1116 -1.0701 -1.4108
  971MOL0     H28155   7.359  -0.944   8.898 -1.1778 -0.0402 -2.1380
  971MOL0     H28156   7.654  -1.131   9.129  0.4732 -0.6570  0.1478
  971MOL0     H28157   7.787  -1.295   9.273  0.0737  0.0462  0.8714
  971MOL0     H28158   7.511  -0.098   9.734  0.0060  2.9394  0.5965
  971MOL0     H28159   7.314   0.025   9.789  4.5467 -0.3632 -0.7687
  971MOL0     H28160   6.856   0.016   9.886  1.3342 -1.6117 -1.3250
  971MOL0     H28161   6.634   0.098   9.906 -1.3508  0.0008  0.1267
  971MOL0     H28162   6.465   0.234   9.548 -1.6540 -0.7265  0.3442
  971MOL0     H28163   6.472   0.403   9.608  0.4790  0.8099 -0.1438
  971MOL0     H28164   6.253   0.198   9.651  1.4095 -0.5438  1.4128
  971MOL0     H28165   6.269   0.339   9.761  0.5942 -1.4357  1.2538
  971MOL0     H28166   6.110   0.372   9.589  0.2259  0.7318 -0.9379
  971MOL0     H28167   6.231   0.351   9.454  1.5540  0.6913  0.0646
  971MOL0     H28168   6.233   0.572   9.679 -0.8457  0.5991 -0.3719
  971MOL0     H28169   6.319   0.569   9.513  1.3647 -2.2590  0.2416
  971MOL0     H28170   5.963   0.730   9.414  0.2875 -0.1946 -0.2534
  971MOL0     H28171   6.686   0.326   9.548  1.2509 -0.2232  0.6579
  971MOL0     H28172   6.905   0.234   9.511  2.4492 -2.2303  0.7077
  972MOL0     O28173   9.985   6.459   9.126 -0.2258 -0.3265  0.3156
  972MOL0     C28174   9.938   6.487   9.236  0.6713  0.2881 -0.8379
  972MOL0     O28175  10.006   6.489   9.357  0.0422 -0.3547 -0.5502
  972MOL0     C28176  10.140   6.462   9.364  0.0756  0.3712  0.3183
  972MOL0     C28177  10.239   6.553   9.312  0.9503  0.2780 -0.5215
  972MOL0     C28178  10.371   6.520   9.333  0.0781 -0.6390  0.3226
  972MOL0     C28179  10.422   6.412   9.398  0.2688  0.1622 -0.7744
  972MOL0     O28180  10.561   6.400   9.414  0.6829 -0.3450 -0.2702
  972MOL0     C28181  10.601   6.403   9.555 -0.4711 -0.4690  0.1412
  972MOL0     C28182  10.732   6.471   9.566  0.1423  0.3223  0.2351
  972MOL0     C28183  10.727   6.622   9.584  0.2465  0.0352 -0.1732
  972MOL0     C28184  10.874   6.671   9.608  0.8719 -0.5514 -0.2077
  972MOL0     C28185  10.869   6.822   9.617  1.2271 -0.0977  0.9701
  972MOL0     C28186  11.007   6.906   9.637  0.2005  0.6766  0.6348
  972MOL0     C28187  11.067   6.875   9.773 -0.0953 -0.3940 -0.2229
  972MOL0     C28188  11.195   6.963   9.806 -0.5237  0.2132 -0.6077
  972MOL0     N28189  11.174   7.114   9.808 -0.1712  0.5387 -0.5449
  972MOL0     C28190  11.166   7.199   9.704  0.3788  0.1256  0.3152
  972MOL0     C28191  11.150   7.316   9.760  0.0929 -0.3945  0.2015
  972MOL0     C28192  11.132   7.443   9.680 -1.3375  0.0778  0.1564
  972MOL0     C28193  11.134   7.584   9.757 -0.0050  0.0912 -0.1466
  972MOL0     C28194  11.254   7.625   9.844 -0.0780 -0.0095 -0.6728
  972MOL0     C28195  11.246   7.769   9.896 -0.9553 -0.5458 -0.1095
  972MOL0     O28196  11.306   7.769  10.025  0.8026  0.9399 -0.9297
  972MOL0     C28197  11.365   7.880  10.082  0.2853  0.6468  0.6165
  972MOL0     C28198  11.373   8.009  10.032  0.5187  0.0013 -0.4144
  972MOL0     C28199  11.463   8.101  10.092  0.4751 -0.0193  0.2276
  972MOL0     C28200  11.529   8.069  10.212 -0.3946 -0.6664 -0.1128
  972MOL0     C28201  11.617   8.164  10.278  0.3409  0.2170 -0.2693
  972MOL0     O28202  11.672   8.125  10.389 -0.1389 -0.0625 -0.0053
  972MOL0     C28203  11.754   8.212  10.459 -0.5343  1.0059 -0.0959
  972MOL0     C28204  11.749   8.228  10.604 -0.0561  0.8909 -0.5493
  972MOL0     C28205  11.822   8.308  10.678 -0.1634 -0.5501 -0.1899
  972MOL0     C28206  11.915   8.388  10.614 -0.8645  0.2173  1.0293
  972MOL0     O28207  12.018   8.459  10.669  0.0508 -0.6118  0.1469
  972MOL0     C28208  12.008   8.491  10.806  0.0211  0.2443 -0.7587
  972MOL0     C28209  12.136   8.554  10.852  0.1822 -0.2012  0.1597
  972MOL0     C28210  12.206   8.653  10.753 -0.6012  0.7038  0.1353
  972MOL0     C28211  12.338   8.718  10.804  0.4953 -0.1783 -0.2318
  972MOL0     C28212  12.400   8.808  10.695  0.2211  0.2051  0.4354
  972MOL0     C28213  12.507   8.907  10.754 -0.4753 -0.2001  0.2514
  972MOL0     C28214  12.581   8.987  10.639  0.2852  0.2823  0.2925
  972MOL0     C28215  12.702   9.050  10.698  0.2896 -0.1410 -0.2119
  972MOL0    Cl28216  12.658   9.186  10.815 -0.4293  0.0231 -0.1697
  972MOL0     C28217  11.938   8.372  10.472 -0.0248 -0.2321  0.8126
  972MOL0     C28218  11.857   8.286  10.397  0.8306  0.1300 -0.3961
  972MOL0     O28219  11.619   8.281  10.234  0.1813  0.7195  0.1335
  972MOL0     C28220  11.516   7.938  10.262 -0.1141  0.6133  0.0499
  972MOL0     C28221  11.429   7.854  10.201  0.3877 -0.0851 -0.1818
  972MOL0     N28222  11.155   7.307   9.899 -0.1730  0.5386 -0.4848
  972MOL0     N28223  11.175   7.182   9.922  0.6785 -0.2796 -0.6007
  972MOL0     C28224  10.325   6.317   9.444 -0.2669 -0.4250  0.5835
  972MOL0     C28225  10.191   6.346   9.438  0.4326  0.2804 -0.0958
  972MOL0     C28226   9.797   6.519   9.237  1.1343 -0.2675 -0.0248
  972MOL0     C28227   9.729   6.564   9.355  0.3840 -0.4569  0.5625
  972MOL0     C28228   9.602   6.627   9.346  0.3782 -0.1844  0.8376
  972MOL0     C28229   9.533   6.624   9.228 -0.5064  1.0929  0.4190
  972MOL0     O28230   9.411   6.685   9.210 -0.4879 -0.8589  0.5540
  972MOL0     C28231   9.403   6.829   9.246  0.5805 -0.2736 -0.1354
  972MOL0     C28232   9.252   6.863   9.251  0.4254 -0.4514 -0.4356
  972MOL0     C28233   9.177   6.835   9.117 -0.6275 -0.2032  0.4206
  972MOL0     C28234   9.083   6.951   9.080 -0.3064  0.8708 -0.2522
  972MOL0     C28235   8.977   6.954   9.178  0.1030  0.9298 -0.3171
  972MOL0     C28236   8.882   6.943   9.246 -0.8643 -0.1024 -0.0421
  972MOL0     C28237   9.589   6.561   9.120 -0.2805 -1.1881 -0.3219
  972MOL0     C28238   9.719   6.512   9.123 -0.6239  0.4600  0.1351
  972MOL0     H28239  10.207   6.643   9.259  0.8781  1.9673  2.1717
  972MOL0     H28240  10.438   6.594   9.291  0.4890 -1.9132 -1.3514
  972MOL0     H28241  10.605   6.305   9.602  0.1717 -0.7436 -0.4606
  972MOL0     H28242  10.530   6.458   9.617  0.2485  2.3654 -1.3525
  972MOL0     H28243  10.791   6.445   9.477 -3.3110 -1.8266 -1.6507
  972MOL0     H28244  10.784   6.438   9.657 -2.1214  0.7058  1.7276
  972MOL0     H28245  10.668   6.650   9.672  2.1057 -1.0385  1.5020
  972MOL0     H28246  10.685   6.675   9.498 -3.6625 -1.4354  0.5820
  972MOL0     H28247  10.907   6.634   9.706 -0.9138  2.1320  1.5520
  972MOL0     H28248  10.940   6.653   9.523 -0.7258  0.7180 -1.7820
  972MOL0     H28249  10.804   6.853   9.699  1.6894  4.3587 -0.0512
  972MOL0     H28250  10.832   6.854   9.519  2.5000 -0.2330  0.4338
  972MOL0     H28251  10.990   7.014   9.636 -2.4905  0.3102 -0.1916
  972MOL0     H28252  11.083   6.873   9.565 -0.7889  0.1821 -0.2065
  972MOL0     H28253  10.981   6.913   9.829 -0.6288  1.1791 -1.9964
  972MOL0     H28254  11.091   6.770   9.789  0.1217  0.0283  2.6965
  972MOL0     H28255  11.284   6.938   9.748 -0.4709 -1.6562  0.2055
  972MOL0     H28256  11.212   6.941   9.911 -2.5659  0.8720 -0.0906
  972MOL0     H28257  11.162   7.178   9.598  1.6949  0.5735  0.1570
  972MOL0     H28258  11.038   7.447   9.625 -2.2809  2.1639  1.7713
  972MOL0     H28259  11.213   7.448   9.606 -0.9613 -0.7150  0.4963
  972MOL0     H28260  11.041   7.612   9.807  0.6221  2.9614 -0.4409
  972MOL0     H28261  11.126   7.657   9.676 -0.4857  0.8762  0.5954
  972MOL0     H28262  11.264   7.552   9.925  0.2756 -0.0766 -0.7728
  972MOL0     H28263  11.340   7.608   9.777  0.0311  0.9846 -0.8018
  972MOL0     H28264  11.138   7.781   9.893 -0.7717  1.2164 -1.5281
  972MOL0     H28265  11.285   7.840   9.822  0.4135 -0.0324  1.0464
  972MOL0     H28266  11.310   8.041   9.950 -1.8236 -0.4358  1.1105
  972MOL0     H28267  11.478   8.196  10.042 -3.0967  0.8320  0.5292
  972MOL0     H28268  11.682   8.164  10.660 -1.1292  0.1110 -2.5989
  972MOL0     H28269  11.827   8.291  10.785  2.6378 -0.6101 -0.2487
  972MOL0     H28270  12.006   8.398  10.864  4.6404  0.1538 -0.3756
  972MOL0     H28271  11.921   8.550  10.835  0.8981 -0.4795  4.2373
  972MOL0     H28272  12.204   8.472  10.873  0.7407 -0.0187 -0.8844
  972MOL0     H28273  12.114   8.609  10.944  1.5887 -0.8175  0.9011
  972MOL0     H28274  12.133   8.727  10.722 -0.2962  0.2336 -1.7976
  972MOL0     H28275  12.231   8.599  10.661 -2.2194  1.4537 -0.7823
  972MOL0     H28276  12.298   8.781  10.883  1.4256  0.4866 -0.2810
  972MOL0     H28277  12.404   8.642  10.846  0.4469  1.1378  2.4287
  972MOL0     H28278  12.321   8.871  10.653  0.3924  1.8620  2.4588
  972MOL0     H28279  12.433   8.742  10.615 -3.9042 -2.3483  0.5372
  972MOL0     H28280  12.589   8.855  10.802 -0.5480  0.5652  1.2374
  972MOL0     H28281  12.447   8.966  10.824 -2.6471 -1.1024 -0.7251
  972MOL0     H28282  12.609   8.914  10.562  1.0038 -1.4062  2.0578
  972MOL0     H28283  12.527   9.069  10.590 -1.5032 -0.3742  1.1027
  972MOL0     H28284  12.748   9.090  10.607 -2.6716  0.2093 -1.6754
  972MOL0     H28285  12.779   8.992  10.749  1.7031  2.6824  1.0841
  972MOL0     H28286  12.017   8.431  10.427 -2.4275  0.2914 -3.2281
  972MOL0     H28287  11.868   8.267  10.291 -2.4242 -4.7040 -0.2083
  972MOL0     H28288  11.577   7.919  10.350 -0.1791  0.1821  0.0029
  972MOL0     H28289  11.418   7.756  10.245  0.2504 -0.5347 -1.1899
  972MOL0     H28290  10.358   6.222   9.485 -2.2877 -1.5733 -0.3283
  972MOL0     H28291  10.118   6.272   9.469  1.9053 -1.2088 -0.0037
  972MOL0     H28292   9.773   6.568   9.454 -1.4878  1.7863  1.3968
  972MOL0     H28293   9.566   6.679   9.435 -0.5677  2.4589 -0.9787
  972MOL0     H28294   9.459   6.895   9.180 -1.2030 -1.6897 -3.3130
  972MOL0     H28295   9.442   6.844   9.347 -2.0803  2.0235  0.6936
  972MOL0     H28296   9.205   6.800   9.327 -0.9630 -0.1590 -1.0061
  972MOL0     H28297   9.232   6.969   9.268 -1.7709 -0.8132 -0.4882
  972MOL0     H28298   9.121   6.745   9.144 -1.9444  1.2219  2.6855
  972MOL0     H28299   9.245   6.813   9.034 -1.1136  0.2933 -0.1163
  972MOL0     H28300   9.142   7.042   9.075  1.8901 -0.4848 -0.3297
  972MOL0     H28301   9.046   6.928   8.980  0.6573 -0.4977 -0.3230
  972MOL0     H28302   8.790   6.945   9.301 -1.3815  1.7751 -0.8792
  972MOL0     H28303   9.544   6.562   9.022 -0.8888 -1.7113 -0.0577
  972MOL0     H28304   9.756   6.482   9.026 -0.7248 -2.5218  0.9058
  973MOL0     O28305   4.717   9.684   1.702 -0.1749 -0.5762  0.4023
  973MOL0     C28306   4.660   9.700   1.595  1.3396 -0.1899  0.0771
  973MOL0     O28307   4.711   9.706   1.474 -0.3850 -0.3007  0.5282
  973MOL0     C28308   4.846   9.733   1.456 -1.1773 -0.1405 -0.1437
  973MOL0     C28309   4.918   9.649   1.377 -0.1287 -0.0694  0.0368
  973MOL0     C28310   5.054   9.660   1.356 -0.1831  0.5506  0.3634
  973MOL0     C28311   5.126   9.761   1.412 -0.2576  0.3986  0.4015
  973MOL0     O28312   5.264   9.765   1.417 -0.2569  0.1738 -0.5693
  973MOL0     C28313   5.310   9.878   1.344  0.1273 -1.0408 -0.0888
  973MOL0     C28314   5.456   9.859   1.312 -0.9053 -0.3912  0.2503
  973MOL0     C28315   5.529   9.972   1.232 -0.3047  0.3914  0.2842
  973MOL0     C28316   5.677   9.937   1.216  0.2924  0.3264  0.6868
  973MOL0     C28317   5.738  10.039   1.124  1.1192  0.5616 -0.4405
  973MOL0     C28318   5.867   9.991   1.068 -0.2049 -0.0407  0.2044
  973MOL0     C28319   5.988   9.997   1.166  0.7174  0.1811 -0.1755
  973MOL0     C28320   6.052  10.146   1.182 -0.1324  0.4150 -0.2302
  973MOL0     N28321   6.189  10.164   1.248 -0.1253 -0.6019  0.2365
  973MOL0     C28322   6.240  10.270   1.319  0.3293 -0.5549 -0.1232
  973MOL0     C28323   6.376  10.246   1.333  1.0447  0.0919  0.4093
  973MOL0     C28324   6.477  10.332   1.404  0.5825  0.4343  0.2718
  973MOL0     C28325   6.454  10.356   1.553  0.2480  0.1342 -0.6012
  973MOL0     C28326   6.583  10.438   1.593  0.0628 -0.1994  0.4001
  973MOL0     C28327   6.570  10.514   1.718  0.5400  0.0259 -0.4304
  973MOL0     O28328   6.457  10.604   1.725 -0.0798 -0.7382 -0.3441
  973MOL0     C28329   6.466  10.730   1.676  0.3843 -0.3329  1.1215
  973MOL0     C28330   6.354  10.768   1.600 -0.7592 -0.4488  0.2012
  973MOL0     C28331   6.346  10.892   1.534 -0.6083 -0.1029 -0.8230
  973MOL0     C28332   6.456  10.979   1.554 -0.3562 -0.0586  0.0750
  973MOL0     C28333   6.454  11.121   1.512 -0.9267  1.0608  0.8756
  973MOL0     O28334   6.333  11.167   1.462 -0.4648 -0.5611 -0.4035
  973MOL0     C28335   6.336  11.292   1.424 -0.3505 -0.5947 -0.4731
  973MOL0     C28336   6.354  11.336   1.295  0.0806  0.5309  0.2575
  973MOL0     C28337   6.355  11.469   1.256  0.4466  0.9204 -0.2451
  973MOL0     C28338   6.332  11.575   1.344 -1.1666  0.3494 -0.2592
  973MOL0     O28339   6.335  11.708   1.313  0.2105  0.2186 -0.4621
  973MOL0     C28340   6.309  11.745   1.180  0.6016 -0.9289 -0.3036
  973MOL0     C28341   6.173  11.688   1.114 -0.5745 -0.4290 -0.0142
  973MOL0     C28342   6.055  11.756   1.189 -1.3121  0.3725  0.0353
  973MOL0     C28343   5.926  11.735   1.119  0.5616 -0.8751 -0.4924
  973MOL0     C28344   5.795  11.805   1.167  0.1839  0.1221  0.4890
  973MOL0     C28345   5.679  11.725   1.109  0.0894  0.3947 -0.2068
  973MOL0     C28346   5.538  11.791   1.156 -0.4108  0.1331  0.2696
  973MOL0     C28347   5.432  11.705   1.096 -0.0397  0.3152 -0.4687
  973MOL0    Cl28348   5.436  11.533   1.165 -0.2979  0.0153  0.1688
  973MOL0     C28349   6.325  11.527   1.473  0.7115  0.4735  0.3146
  973MOL0     C28350   6.318  11.394   1.515  0.6147  0.5055 -0.2956
  973MOL0     O28351   6.560  11.183   1.517 -0.3205 -0.2771  0.3120
  973MOL0     C28352   6.568  10.941   1.627 -0.3580  0.3528  0.0679
  973MOL0     C28353   6.581  10.813   1.680 -0.6735  0.2846  0.1008
  973MOL0     N28354   6.402  10.128   1.274 -0.2584 -0.3555 -0.7128
  973MOL0     N28355   6.299  10.082   1.214  0.6759  0.3997 -0.3333
  973MOL0     C28356   5.047   9.853   1.489  0.0171  0.3452  0.0871
  973MOL0     C28357   4.908   9.840   1.506 -0.2115 -0.7770 -1.3232
  973MOL0     C28358   4.513   9.665   1.606 -0.1812  0.1969  0.2183
  973MOL0     C28359   4.432   9.657   1.723 -0.0559 -0.1299 -0.1582
  973MOL0     C28360   4.303   9.613   1.722 -0.2161  1.0779 -0.3191
  973MOL0     C28361   4.242   9.564   1.602 -1.1481 -0.3258  0.0998
  973MOL0     O28362   4.119   9.506   1.602  0.3479 -0.1340 -0.8049
  973MOL0     C28363   4.029   9.506   1.495  0.8066  0.9970 -0.2604
  973MOL0     C28364   4.007   9.628   1.409 -0.2965  0.3209 -0.4982
  973MOL0     C28365   3.923   9.726   1.491 -0.5496  0.5459 -1.0143
  973MOL0     C28366   3.893   9.859   1.423 -0.4225 -0.8451  0.9363
  973MOL0     C28367   3.834   9.849   1.288 -0.1368 -0.2262  1.1923
  973MOL0     C28368   3.780   9.842   1.180 -0.0900 -0.0696  0.5130
  973MOL0     C28369   4.321   9.569   1.484 -0.1074  0.3764 -0.0553
  973MOL0     C28370   4.452   9.624   1.486  0.1411 -0.1504 -0.2001
  973MOL0     H28371   4.868   9.562   1.336  0.9810 -0.2419 -1.0157
  973MOL0     H28372   5.113   9.587   1.301  0.6247  0.2067  1.6488
  973MOL0     H28373   5.300   9.966   1.409  0.8117 -1.5171  0.6779
  973MOL0     H28374   5.262   9.886   1.246  1.8840 -4.0165 -1.3079
  973MOL0     H28375   5.460   9.768   1.253  1.7393 -1.1453  1.4155
  973MOL0     H28376   5.515   9.849   1.404  2.6566  3.5606 -1.2754
  973MOL0     H28377   5.529  10.065   1.290  2.8836  0.0654  1.0014
  973MOL0     H28378   5.477   9.988   1.137 -1.1090  1.3805  0.8778
  973MOL0     H28379   5.730   9.927   1.311 -1.1778 -2.3375  1.3395
  973MOL0     H28380   5.688   9.842   1.164  2.6669  1.5246 -1.1968
  973MOL0     H28381   5.761  10.128   1.184  1.7018  2.0177 -2.7199
  973MOL0     H28382   5.673  10.057   1.038  1.1914 -0.8674 -0.8169
  973MOL0     H28383   5.894  10.053   0.983 -1.4963  0.4300  0.1128
  973MOL0     H28384   5.853   9.894   1.018 -1.1434  0.8745 -1.3708
  973MOL0     H28385   5.969   9.945   1.261 -2.1787  1.1875 -0.1097
  973MOL0     H28386   6.068   9.936   1.123  0.7223 -0.5142  0.7739
  973MOL0     H28387   5.987  10.221   1.230 -1.3590 -0.1796 -0.9098
  973MOL0     H28388   6.060  10.186   1.080  0.9933 -0.4934 -0.5102
  973MOL0     H28389   6.184  10.357   1.351 -0.2152 -0.9296 -0.0435
  973MOL0     H28390   6.485  10.428   1.353  2.6564  0.7679  1.1373
  973MOL0     H28391   6.578  10.290   1.391  0.0973 -1.0398  1.0339
  973MOL0     H28392   6.459  10.253   1.590  0.6426 -0.0528 -1.1587
  973MOL0     H28393   6.359  10.401   1.582 -0.6932 -3.0027  1.6796
  973MOL0     H28394   6.669  10.371   1.594 -1.5923 -2.4365  1.7090
  973MOL0     H28395   6.589  10.516   1.516 -2.1744 -0.4167 -0.0766
  973MOL0     H28396   6.670  10.557   1.717  0.7135 -0.3840 -1.0598
  973MOL0     H28397   6.548  10.442   1.797 -1.2536 -0.8556 -1.6609
  973MOL0     H28398   6.272  10.698   1.600  0.0392 -1.4432 -1.3127
  973MOL0     H28399   6.249  10.922   1.493 -1.2962  0.3454  1.0307
  973MOL0     H28400   6.375  11.261   1.219 -0.7504  1.6852 -1.1811
  973MOL0     H28401   6.373  11.488   1.150  0.9967  2.0522  0.0376
  973MOL0     H28402   6.393  11.707   1.122  1.4352  0.7348 -0.2427
  973MOL0     H28403   6.300  11.854   1.182  1.0772 -0.7796 -2.7750
  973MOL0     H28404   6.166  11.579   1.126 -1.4929 -0.3492  0.2630
  973MOL0     H28405   6.159  11.713   1.009  0.5463 -1.1303 -0.3451
  973MOL0     H28406   6.089  11.857   1.167 -0.2323 -0.2831 -1.5558
  973MOL0     H28407   6.046  11.740   1.296 -0.8691 -0.9816 -0.1104
  973MOL0     H28408   5.938  11.751   1.011  1.0975 -2.2936 -0.6598
  973MOL0     H28409   5.901  11.629   1.129 -0.7680 -0.6360 -0.9911
  973MOL0     H28410   5.784  11.908   1.133 -2.8780 -0.9105 -2.0543
  973MOL0     H28411   5.801  11.800   1.276  2.3507  2.7730  0.6022
  973MOL0     H28412   5.694  11.622   1.143  1.4586  0.0661 -1.6694
  973MOL0     H28413   5.687  11.729   1.000 -0.4018 -2.0761 -0.3935
  973MOL0     H28414   5.532  11.800   1.265 -0.8532  2.1280  0.1201
  973MOL0     H28415   5.530  11.894   1.120  2.4046  2.3612  4.9529
  973MOL0     H28416   5.446  11.706   0.987  2.0584  2.2837 -0.2661
  973MOL0     H28417   5.335  11.754   1.104 -0.9842 -1.3607 -1.2818
  973MOL0     H28418   6.316  11.588   1.562 -0.0135 -1.3056  1.5075
  973MOL0     H28419   6.299  11.383   1.622  2.6624 -0.5215 -0.0007
  973MOL0     H28420   6.642  11.016   1.650 -3.4770  3.8168 -0.1312
  973MOL0     H28421   6.676  10.797   1.730  0.6303  2.7254 -1.4221
  973MOL0     H28422   5.095   9.921   1.559 -0.2408 -0.7112  1.3310
  973MOL0     H28423   4.859   9.917   1.565 -1.5094 -0.0723 -3.2001
  973MOL0     H28424   4.474   9.680   1.821 -0.5719 -0.1101  0.0628
  973MOL0     H28425   4.243   9.606   1.812  2.3531 -1.1938  1.3477
  973MOL0     H28426   3.930   9.471   1.524  0.4935 -0.1051 -2.5011
  973MOL0     H28427   4.062   9.427   1.426 -2.3124 -0.0036 -0.7674
  973MOL0     H28428   4.098   9.678   1.376  0.4585  0.1880  1.2763
  973MOL0     H28429   3.957   9.588   1.320 -2.0184  1.7080 -0.2211
  973MOL0     H28430   3.986   9.737   1.580  0.0458 -2.4092 -0.9792
  973MOL0     H28431   3.836   9.677   1.534  0.3503  0.3645  0.6920
  973MOL0     H28432   3.822   9.912   1.487  0.2664 -0.3913  1.3408
  973MOL0     H28433   3.981   9.924   1.419  1.3485 -3.1142  0.5642
  973MOL0     H28434   3.717   9.840   1.093 -0.5366  0.4516  0.8149
  973MOL0     H28435   4.279   9.517   1.399  0.5661 -0.1747 -0.0597
  973MOL0     H28436   4.487   9.622   1.383 -2.5152 -1.7235 -1.1849
  974MOL0     O28437   4.013   4.181   4.612  0.0963  0.8516 -0.6907
  974MOL0     C28438   4.028   4.071   4.672  0.1699 -0.8634 -0.2554
  974MOL0     O28439   4.133   3.976   4.655  0.3987  0.0517  0.1099
  974MOL0     C28440   4.237   4.018   4.581  0.4923  0.7416 -0.3783
  974MOL0     C28441   4.321   4.118   4.631  0.3190  0.4120  0.1828
  974MOL0     C28442   4.412   4.181   4.550  0.6007 -0.1860 -0.0009
  974MOL0     C28443   4.451   4.125   4.437  0.1718  0.0233  0.9135
  974MOL0     O28444   4.551   4.173   4.363  0.2988 -0.5064  0.0577
  974MOL0     C28445   4.686   4.176   4.414 -0.2430  0.4814  0.3979
  974MOL0     C28446   4.779   4.192   4.293  0.6514 -0.3065  0.1988
  974MOL0     C28447   4.917   4.131   4.325 -0.3841  0.3142  0.4698
  974MOL0     C28448   4.995   4.115   4.186  0.5666 -1.3181 -0.1264
  974MOL0     C28449   5.128   4.036   4.182  0.0821 -0.1086  0.3870
  974MOL0     C28450   5.213   4.044   4.062  0.0585 -0.2773  0.6495
  974MOL0     C28451   5.340   3.954   4.068 -0.1786 -0.0458 -0.1500
  974MOL0     C28452   5.456   4.025   4.125 -0.1016 -0.2017 -0.1381
  974MOL0     N28453   5.573   3.944   4.120  0.8033  0.2652 -0.4782
  974MOL0     C28454   5.594   3.831   4.190 -0.1850 -0.5919 -0.7501
  974MOL0     C28455   5.713   3.787   4.149 -0.1373 -0.2417  0.3059
  974MOL0     C28456   5.783   3.655   4.190 -0.3396 -0.2307 -0.0733
  974MOL0     C28457   5.782   3.555   4.074  0.2814 -0.1358 -0.5309
  974MOL0     C28458   5.780   3.401   4.105 -0.3056 -0.8126 -0.2648
  974MOL0     C28459   5.646   3.354   4.139  0.2115  0.0465  0.9470
  974MOL0     O28460   5.554   3.366   4.023 -0.1945  0.3395 -0.4579
  974MOL0     C28461   5.417   3.374   4.051  0.0335  1.0335 -0.2166
  974MOL0     C28462   5.347   3.484   3.988 -0.2121  0.4782  0.2261
  974MOL0     C28463   5.216   3.522   4.026 -0.1115 -0.2418  0.5991
  974MOL0     C28464   5.151   3.450   4.126  1.2171  0.2197 -1.0617
  974MOL0     C28465   5.009   3.482   4.168  0.1952  0.5457 -0.2187
  974MOL0     O28466   4.951   3.572   4.096  0.3027 -0.5831  0.0091
  974MOL0     C28467   4.820   3.616   4.118  1.2228 -0.4377 -0.1375
  974MOL0     C28468   4.728   3.597   4.025 -0.0587  0.7227  0.0882
  974MOL0     C28469   4.593   3.633   4.045 -0.5678  0.4036  0.5625
  974MOL0     C28470   4.554   3.688   4.163 -0.0890 -1.1666  0.8678
  974MOL0     O28471   4.420   3.706   4.183  0.0183 -1.1228 -0.3972
  974MOL0     C28472   4.315   3.693   4.078 -0.4556 -0.0130  0.0833
  974MOL0     C28473   4.175   3.735   4.140  0.5572  0.3335  0.0027
  974MOL0     C28474   4.124   3.622   4.233  0.1041 -0.5177 -0.0303
  974MOL0     C28475   4.006   3.669   4.315 -0.0878  0.6927 -0.6247
  974MOL0     C28476   3.884   3.690   4.243  0.1973 -0.0065 -0.4127
  974MOL0     C28477   3.765   3.713   4.337  1.0580 -0.5788 -0.3218
  974MOL0     C28478   3.779   3.818   4.453 -0.2079 -0.6755 -0.0237
  974MOL0     C28479   3.654   3.845   4.528 -0.4858 -0.1556 -0.2257
  974MOL0    Cl28480   3.605   3.697   4.614  0.4115 -0.0460 -0.0549
  974MOL0     C28481   4.653   3.720   4.259  0.5732 -0.1053  0.3983
  974MOL0     C28482   4.785   3.691   4.238 -0.2980 -0.9809 -0.0500
  974MOL0     O28483   4.956   3.422   4.257 -0.0373  0.7214 -0.5934
  974MOL0     C28484   5.218   3.337   4.182  0.0099  1.5547  0.0593
  974MOL0     C28485   5.342   3.303   4.149 -0.3524  0.2359  0.3712
  974MOL0     N28486   5.759   3.879   4.059 -0.8677 -0.7257  0.3207
  974MOL0     N28487   5.677   3.971   4.042 -0.8385  0.2208 -0.5229
  974MOL0     C28488   4.381   4.003   4.393  0.5457 -0.8442 -0.3471
  974MOL0     C28489   4.274   3.955   4.462  0.4488 -0.4675 -1.3160
  974MOL0     C28490   3.914   4.020   4.750 -0.7724  0.4233 -0.4208
  974MOL0     C28491   3.894   3.877   4.780 -0.1111  0.2340  0.3521
  974MOL0     C28492   3.798   3.839   4.872  0.2663  0.4792  0.8851
  974MOL0     C28493   3.722   3.937   4.934  0.5179 -0.5616 -0.7894
  974MOL0     O28494   3.619   3.904   5.016 -0.2291  0.4426  0.0283
  974MOL0     C28495   3.535   3.797   4.979  0.3795  0.3823 -0.1052
  974MOL0     C28496   3.387   3.814   5.022 -0.3433 -0.2740 -0.1365
  974MOL0     C28497   3.370   3.797   5.173  0.8652 -0.0137  0.6243
  974MOL0     C28498   3.228   3.759   5.204  0.1280 -0.2216  0.3280
  974MOL0     C28499   3.208   3.612   5.200 -0.6563  0.4534  0.9274
  974MOL0     C28500   3.201   3.490   5.188 -0.9215  0.4871  0.8534
  974MOL0     C28501   3.748   4.074   4.921 -0.0730  0.0133  0.2146
  974MOL0     C28502   3.834   4.123   4.821 -0.0975  0.2667  0.5355
  974MOL0     H28503   4.296   4.161   4.728 -5.5620 -0.6701 -0.5086
  974MOL0     H28504   4.456   4.275   4.584 -0.4534 -0.1434  1.3578
  974MOL0     H28505   4.696   4.072   4.448 -0.1272 -0.7304 -3.0128
  974MOL0     H28506   4.712   4.243   4.497  1.0211  0.2356  0.2222
  974MOL0     H28507   4.774   4.294   4.255 -1.8640 -0.2813  0.4133
  974MOL0     H28508   4.739   4.128   4.214 -0.7625 -0.4112  0.9600
  974MOL0     H28509   4.906   4.030   4.366  0.0271 -0.0397 -0.2768
  974MOL0     H28510   4.970   4.196   4.395  4.3035 -2.9674  0.3693
  974MOL0     H28511   4.927   4.060   4.120 -0.9531  0.8930 -0.5303
  974MOL0     H28512   5.009   4.215   4.144  1.8436 -0.8407  1.3627
  974MOL0     H28513   5.098   3.932   4.199  1.7326 -0.3824  1.8356
  974MOL0     H28514   5.187   4.079   4.263 -1.7285  0.3029  1.5598
  974MOL0     H28515   5.243   4.146   4.037  1.3506 -1.2244 -2.1746
  974MOL0     H28516   5.153   3.998   3.983 -0.7199 -1.7127  2.0173
  974MOL0     H28517   5.316   3.873   4.137  2.5195 -0.0755  0.8802
  974MOL0     H28518   5.362   3.929   3.964 -0.1237  2.3772 -0.7925
  974MOL0     H28519   5.432   4.058   4.226  3.0637  0.6402  0.4777
  974MOL0     H28520   5.479   4.118   4.071 -2.0080  0.7310  0.5790
  974MOL0     H28521   5.527   3.798   4.269 -0.8698  1.6807 -0.3110
  974MOL0     H28522   5.725   3.602   4.266  1.5843 -1.9285  0.2765
  974MOL0     H28523   5.886   3.677   4.219  0.0486  2.6520 -3.0359
  974MOL0     H28524   5.867   3.576   4.008  0.6832 -0.3912 -0.0995
  974MOL0     H28525   5.701   3.595   4.012  1.3344  0.2488 -1.7000
  974MOL0     H28526   5.822   3.342   4.023  0.3713 -1.6656  0.6565
  974MOL0     H28527   5.851   3.384   4.186 -1.1791  2.0952  1.2467
  974MOL0     H28528   5.601   3.404   4.225 -0.3798  0.4365  0.4287
  974MOL0     H28529   5.649   3.250   4.171 -0.5869 -0.5815 -0.8707
  974MOL0     H28530   5.385   3.533   3.900 -2.8006  1.2708 -0.5409
  974MOL0     H28531   5.165   3.596   3.964  2.0507  0.4064 -0.5152
  974MOL0     H28532   4.755   3.559   3.927 -2.3087 -0.3876 -0.1513
  974MOL0     H28533   4.517   3.598   3.976  0.1302 -0.1839  0.0718
  974MOL0     H28534   4.306   3.588   4.047 -0.1647 -0.2172  0.6898
  974MOL0     H28535   4.338   3.743   3.983  0.1031 -1.6376 -0.6675
  974MOL0     H28536   4.106   3.752   4.057 -0.7171  0.3546  1.0535
  974MOL0     H28537   4.179   3.826   4.199  0.5027 -0.1153  0.7111
  974MOL0     H28538   4.206   3.606   4.303 -0.0007  2.1461  0.8090
  974MOL0     H28539   4.107   3.525   4.184  0.8524  0.0969 -1.5573
  974MOL0     H28540   3.994   3.594   4.393  2.2894  1.0305  0.1431
  974MOL0     H28541   4.029   3.763   4.366  2.1306 -0.1433  0.0368
  974MOL0     H28542   3.856   3.592   4.205 -0.3217 -0.7314  1.6966
  974MOL0     H28543   3.899   3.766   4.166  2.8688  0.1778  0.1880
  974MOL0     H28544   3.743   3.616   4.382 -0.5281 -0.4341 -0.7351
  974MOL0     H28545   3.685   3.749   4.273  1.0634  3.9818  1.8904
  974MOL0     H28546   3.867   3.802   4.516 -0.8574  0.4981  1.2283
  974MOL0     H28547   3.793   3.918   4.410  0.9306  0.0681  1.9713
  974MOL0     H28548   3.572   3.873   4.462 -0.7546 -2.3710 -0.8894
  974MOL0     H28549   3.653   3.932   4.595  0.0104 -0.6449  0.4326
  974MOL0     H28550   4.626   3.754   4.359 -1.8357  1.0424 -0.5489
  974MOL0     H28551   4.872   3.722   4.295  0.5943  1.0651 -2.3759
  974MOL0     H28552   5.161   3.281   4.255  0.1045 -0.2987 -1.1931
  974MOL0     H28553   5.394   3.238   4.218  3.0091  0.1359 -2.0093
  974MOL0     H28554   4.398   3.948   4.301  0.0168  1.4515 -1.8977
  974MOL0     H28555   4.227   3.868   4.417  2.8691 -2.3293 -0.5039
  974MOL0     H28556   3.952   3.801   4.728 -1.7292 -0.4828 -0.4932
  974MOL0     H28557   3.768   3.735   4.880  0.0140  0.4240 -0.4871
  974MOL0     H28558   3.560   3.699   5.020 -0.6988  0.8641  1.8186
  974MOL0     H28559   3.537   3.795   4.869 -1.6009  2.2924 -0.2435
  974MOL0     H28560   3.352   3.914   4.992 -2.0973 -1.6512 -3.1957
  974MOL0     H28561   3.330   3.747   4.957 -0.2519  0.1445 -0.6538
  974MOL0     H28562   3.389   3.894   5.221  1.1321 -0.0310  0.5574
  974MOL0     H28563   3.434   3.727   5.227  1.9057 -1.5608 -2.4051
  974MOL0     H28564   3.207   3.786   5.308 -0.0675  2.6079 -0.3429
  974MOL0     H28565   3.156   3.806   5.136 -0.2686  0.4012  1.1556
  974MOL0     H28566   3.199   3.383   5.188 -1.8606  0.4319 -1.6440
  974MOL0     H28567   3.699   4.142   4.990  2.3258  1.6521  0.4105
  974MOL0     H28568   3.838   4.231   4.814  2.2927  0.1552 -0.4480
  975MOL0     O28569   7.738   3.902   5.761 -0.4329  0.7206  0.4305
  975MOL0     C28570   7.789   3.922   5.871 -0.0176 -0.7186  0.4831
  975MOL0     O28571   7.736   4.007   5.968 -0.6302 -0.1461 -1.0703
  975MOL0     C28572   7.622   4.073   5.938 -0.5528  0.2647 -0.7298
  975MOL0     C28573   7.519   4.013   6.014  0.8840 -1.5788  0.1700
  975MOL0     C28574   7.391   4.069   5.977 -0.2758  0.2401 -1.2576
  975MOL0     C28575   7.369   4.175   5.884 -0.0195  0.4897  0.0431
  975MOL0     O28576   7.237   4.212   5.862  0.0988 -0.8734  0.5554
  975MOL0     C28577   7.128   4.127   5.869  0.4446 -0.2076 -0.2556
  975MOL0     C28578   7.000   4.205   5.820  0.3134 -0.3328 -0.7944
  975MOL0     C28579   6.876   4.128   5.824  0.4473  1.1310 -0.3596
  975MOL0     C28580   6.747   4.207   5.763  0.4407  0.4506  0.0563
  975MOL0     C28581   6.615   4.123   5.761  0.2750 -0.3583 -1.2110
  975MOL0     C28582   6.555   4.087   5.897  0.1739  0.6556 -1.5704
  975MOL0     C28583   6.406   4.050   5.914  0.4695 -0.1922  0.3745
  975MOL0     C28584   6.365   3.994   6.044  0.1348 -0.4367  0.4412
  975MOL0     N28585   6.373   4.084   6.160  0.0769 -0.5704 -0.2618
  975MOL0     C28586   6.460   4.080   6.265  0.6133  0.5996  0.1042
  975MOL0     C28587   6.411   4.168   6.356  0.2325 -0.4937 -0.4122
  975MOL0     C28588   6.452   4.176   6.506  0.9960 -0.1097  0.2434
  975MOL0     C28589   6.411   4.044   6.573  0.1918 -0.1004 -0.8018
  975MOL0     C28590   6.518   3.929   6.590  0.5880 -0.2714  0.1869
  975MOL0     C28591   6.453   3.823   6.683 -0.1280 -0.1536 -0.0846
  975MOL0     O28592   6.471   3.860   6.822  0.1237  0.4532  0.3069
  975MOL0     C28593   6.460   3.761   6.911  0.6003  0.6903 -0.7857
  975MOL0     C28594   6.416   3.633   6.883 -0.8693  0.6594 -0.1722
  975MOL0     C28595   6.406   3.528   6.980 -1.2359 -1.0936  0.5613
  975MOL0     C28596   6.464   3.556   7.108 -0.2291 -1.5616 -0.6219
  975MOL0     C28597   6.466   3.456   7.214 -0.6886  0.5125 -0.1168
  975MOL0     O28598   6.571   3.461   7.299  0.6135 -0.2155  0.9892
  975MOL0     C28599   6.575   3.363   7.396 -0.7696 -0.5672  0.0487
  975MOL0     C28600   6.698   3.304   7.406  0.5455 -0.7014 -0.4823
  975MOL0     C28601   6.721   3.208   7.509 -0.1878  0.8210  0.2724
  975MOL0     C28602   6.608   3.165   7.587  0.1615  0.1198  1.0313
  975MOL0     O28603   6.616   3.077   7.692  0.3929 -0.6551  0.3240
  975MOL0     C28604   6.740   3.066   7.771  0.0444 -0.8684 -0.2639
  975MOL0     C28605   6.722   2.955   7.867 -0.1272 -0.4452  0.2614
  975MOL0     C28606   6.641   3.009   7.984 -0.1560 -0.3220  0.2228
  975MOL0     C28607   6.595   2.895   8.078  0.5095 -0.0051 -0.1091
  975MOL0     C28608   6.524   2.943   8.207 -0.1762  0.5939 -0.2083
  975MOL0     C28609   6.626   3.010   8.302 -0.1011  0.3288  0.4959
  975MOL0     C28610   6.565   3.008   8.439  0.1143  0.2528  0.5012
  975MOL0     C28611   6.652   3.056   8.554 -0.6811 -0.3102 -0.7026
  975MOL0    Cl28612   6.814   2.973   8.571 -0.3517  0.2732 -0.0212
  975MOL0     C28613   6.486   3.218   7.556 -0.1817 -0.0338  1.0703
  975MOL0     C28614   6.472   3.315   7.471 -0.2633  1.4847  0.0068
  975MOL0     O28615   6.368   3.371   7.217 -0.2171 -0.2870 -0.3403
  975MOL0     C28616   6.509   3.689   7.136 -0.3773  0.3115  0.3074
  975MOL0     C28617   6.501   3.784   7.037  0.2917  0.1451 -0.4124
  975MOL0     N28618   6.307   4.242   6.310 -0.3607  0.4428  0.2724
  975MOL0     N28619   6.282   4.185   6.192  0.5902 -0.0167 -0.0768
  975MOL0     C28620   7.483   4.221   5.820  0.4518 -0.5045 -0.7871
  975MOL0     C28621   7.614   4.173   5.851  0.4559  0.0660  0.1510
  975MOL0     C28622   7.923   3.863   5.893  0.7712 -0.2659  0.5062
  975MOL0     C28623   7.975   3.843   6.022  0.1432 -0.2749 -0.0212
  975MOL0     C28624   8.103   3.794   6.043 -0.1460  0.0937  0.4648
  975MOL0     C28625   8.183   3.766   5.935  0.3467 -0.3146 -0.6697
  975MOL0     O28626   8.305   3.702   5.960  0.2594 -0.2619  0.3896
  975MOL0     C28627   8.357   3.620   5.855  0.3674  0.9094  0.1588
  975MOL0     C28628   8.486   3.548   5.882  0.5006  0.0193  0.6670
  975MOL0     C28629   8.591   3.647   5.910  0.4766 -1.1229 -1.4693
  975MOL0     C28630   8.713   3.596   5.989  0.6950  0.5933 -0.7458
  975MOL0     C28631   8.850   3.629   5.950  0.5434  0.5273  0.2013
  975MOL0     C28632   8.972   3.647   5.924 -0.9511 -0.6498  0.6741
  975MOL0     C28633   8.140   3.800   5.811 -0.9229 -0.5939 -0.2526
  975MOL0     C28634   8.011   3.849   5.782  0.4822  0.8615 -1.3772
  975MOL0     H28635   7.553   3.931   6.076  3.5263 -0.5903  0.1453
  975MOL0     H28636   7.311   4.008   6.020 -1.5381  1.0706 -2.3405
  975MOL0     H28637   7.108   4.090   5.970  3.5725  1.0739  0.9593
  975MOL0     H28638   7.161   4.044   5.805  2.3664 -0.5338  1.0674
  975MOL0     H28639   7.008   4.244   5.718  0.8212  0.4737 -0.4613
  975MOL0     H28640   6.971   4.292   5.878 -0.7100 -1.4594  0.4323
  975MOL0     H28641   6.859   4.093   5.926  1.6961  1.6831  0.0685
  975MOL0     H28642   6.874   4.033   5.770 -3.6389  0.4709  0.5911
  975MOL0     H28643   6.736   4.293   5.828 -0.4763 -1.2074  2.2071
  975MOL0     H28644   6.762   4.228   5.656 -0.5732 -0.5822 -0.3167
  975MOL0     H28645   6.623   4.031   5.702  1.2630 -0.4377 -0.9592
  975MOL0     H28646   6.544   4.182   5.703 -0.7517  0.3673  0.6795
  975MOL0     H28647   6.571   4.173   5.963 -4.2440 -0.2504  1.0504
  975MOL0     H28648   6.619   4.006   5.933 -0.6453  0.6754  0.0145
  975MOL0     H28649   6.342   4.138   5.898 -2.4009 -2.5784 -2.7501
  975MOL0     H28650   6.378   3.980   5.835 -1.1664 -1.6796  2.2005
  975MOL0     H28651   6.430   3.909   6.066  1.5831  0.3425 -0.6704
  975MOL0     H28652   6.262   3.966   6.021  0.4534 -1.6727  0.4409
  975MOL0     H28653   6.534   4.002   6.285 -2.2089 -1.8810  1.6297
  975MOL0     H28654   6.395   4.259   6.547  2.5401 -0.8329  4.4160
  975MOL0     H28655   6.554   4.207   6.531  0.4118  0.8284  1.5620
  975MOL0     H28656   6.316   4.006   6.534  0.2181 -0.8575 -0.1523
  975MOL0     H28657   6.389   4.076   6.675  3.3079  0.3409 -0.1698
  975MOL0     H28658   6.550   3.886   6.495 -1.5741 -3.4929  0.7911
  975MOL0     H28659   6.604   3.978   6.637 -1.2706  1.8356  1.6054
  975MOL0     H28660   6.525   3.742   6.666  1.1505  0.3169  2.5173
  975MOL0     H28661   6.349   3.798   6.662  0.1407 -1.5868  0.1738
  975MOL0     H28662   6.400   3.602   6.781  0.6718 -0.5557 -0.0766
  975MOL0     H28663   6.375   3.426   6.962  0.9719 -1.6266 -0.6276
  975MOL0     H28664   6.782   3.325   7.341  1.4056 -3.1825 -0.2948
  975MOL0     H28665   6.822   3.169   7.510  0.3116  2.0187 -1.0240
  975MOL0     H28666   6.760   3.161   7.821  4.4460 -2.4149  1.3940
  975MOL0     H28667   6.823   3.041   7.705  0.2874  0.8972 -0.6665
  975MOL0     H28668   6.815   2.934   7.921 -0.4752  1.1440  1.5690
  975MOL0     H28669   6.692   2.859   7.824 -1.0284  0.0376 -0.2014
  975MOL0     H28670   6.552   3.057   7.942 -0.0396  0.3701  0.7580
  975MOL0     H28671   6.688   3.093   8.035 -2.5476  1.6723 -0.6828
  975MOL0     H28672   6.521   2.841   8.019 -1.3327  3.1775 -0.9531
  975MOL0     H28673   6.682   2.832   8.099  0.4931 -0.0420 -0.1510
  975MOL0     H28674   6.483   2.855   8.256 -0.7801  1.0976  0.2067
  975MOL0     H28675   6.433   2.995   8.174 -1.5803 -1.5735  0.0340
  975MOL0     H28676   6.643   3.106   8.252  1.3951 -1.8963 -3.7663
  975MOL0     H28677   6.723   2.960   8.305  0.2719  0.9703 -0.2072
  975MOL0     H28678   6.481   3.077   8.437 -0.4752 -0.3726  2.1724
  975MOL0     H28679   6.537   2.904   8.458  3.9683 -0.9836  0.3489
  975MOL0     H28680   6.609   3.045   8.654  0.9695 -0.4723  0.0063
  975MOL0     H28681   6.657   3.165   8.539 -4.4030 -0.0826 -1.2222
  975MOL0     H28682   6.404   3.174   7.611 -0.1511 -0.0872  1.0735
  975MOL0     H28683   6.373   3.358   7.462 -0.7430  0.3028 -0.5606
  975MOL0     H28684   6.534   3.720   7.237 -0.4156 -1.2276  0.8158
  975MOL0     H28685   6.532   3.885   7.061 -0.3191  0.3275 -0.3668
  975MOL0     H28686   7.466   4.302   5.750  0.3720  3.3988  3.3161
  975MOL0     H28687   7.709   4.208   5.811 -1.1243  2.3318 -1.8601
  975MOL0     H28688   7.911   3.850   6.109  2.0020  0.6014  1.3455
  975MOL0     H28689   8.139   3.763   6.141  0.1150  2.1273  1.0595
  975MOL0     H28690   8.379   3.679   5.766 -0.1243  1.3166  0.3028
  975MOL0     H28691   8.278   3.547   5.836  0.0732  1.4938 -0.9985
  975MOL0     H28692   8.477   3.471   5.959  2.9745 -1.4366 -0.3623
  975MOL0     H28693   8.509   3.490   5.792 -0.4300  1.0105 -0.2404
  975MOL0     H28694   8.548   3.734   5.962  3.7837  0.7185 -1.5420
  975MOL0     H28695   8.622   3.682   5.811 -0.6466 -2.2815 -2.2653
  975MOL0     H28696   8.704   3.609   6.098  0.3041  0.1869 -0.7239
  975MOL0     H28697   8.708   3.487   5.974 -0.8448  0.6664 -0.9465
  975MOL0     H28698   9.073   3.677   5.938 -1.5441  0.9796  1.7922
  975MOL0     H28699   8.202   3.807   5.722 -0.2072  1.3022  0.3454
  975MOL0     H28700   7.997   3.868   5.676 -0.9972  0.3371 -1.2967
  976MOL0     O28701   1.879   9.204   8.983  0.3664  0.3056 -0.2854
  976MOL0     C28702   1.936   9.285   8.915 -0.0695 -0.0848 -0.4022
  976MOL0     O28703   2.025   9.256   8.816  0.3659  0.1499  1.1000
  976MOL0     C28704   2.101   9.143   8.828  0.3271 -0.6344  0.8059
  976MOL0     C28705   2.100   9.033   8.923  0.2665 -0.6761 -0.2950
  976MOL0     C28706   2.191   8.928   8.920  1.1392 -0.4402 -0.2990
  976MOL0     C28707   2.292   8.918   8.827  0.6773  0.5041 -0.3853
  976MOL0     O28708   2.365   8.802   8.823  0.2726  0.1792 -0.2482
  976MOL0     C28709   2.507   8.819   8.803  0.8160  0.0348  0.2916
  976MOL0     C28710   2.568   8.690   8.841 -0.2536  0.0555  0.3030
  976MOL0     C28711   2.715   8.720   8.851  0.2405  0.3199 -0.1496
  976MOL0     C28712   2.791   8.601   8.915 -0.1026 -1.1721 -0.2228
  976MOL0     C28713   2.941   8.638   8.922  0.5748  0.4867  0.0384
  976MOL0     C28714   3.016   8.527   8.998 -0.9471  0.1669  0.0436
  976MOL0     C28715   3.167   8.579   8.988 -0.0495 -0.0409 -0.2334
  976MOL0     C28716   3.240   8.526   9.112  0.0936 -0.2472  0.4784
  976MOL0     N28717   3.381   8.563   9.108  0.1414  0.3326 -0.0125
  976MOL0     C28718   3.480   8.494   9.046  0.2945  0.3270  0.4622
  976MOL0     C28719   3.595   8.554   9.073  0.4002  0.4675  0.4684
  976MOL0     C28720   3.733   8.496   9.037 -0.4943  0.8507  0.6343
  976MOL0     C28721   3.828   8.572   8.934 -0.6566 -0.2868  0.0733
  976MOL0     C28722   3.808   8.526   8.786 -0.0343 -0.1423  0.7986
  976MOL0     C28723   3.666   8.545   8.749  0.6406 -0.6790 -0.2660
  976MOL0     O28724   3.640   8.520   8.611 -1.3020  0.0764  0.3797
  976MOL0     C28725   3.521   8.564   8.559  0.3410  0.1000 -0.8184
  976MOL0     C28726   3.406   8.599   8.623 -0.5401  0.3270  0.1155
  976MOL0     C28727   3.297   8.666   8.552  0.5829  0.3013 -0.4254
  976MOL0     C28728   3.295   8.666   8.411  0.1458  0.0538 -0.1121
  976MOL0     C28729   3.185   8.735   8.335  0.6850  0.0351  0.7373
  976MOL0     O28730   3.200   8.736   8.194  0.0903 -0.5683  0.0252
  976MOL0     C28731   3.093   8.784   8.125  0.4964  0.0395  0.1503
  976MOL0     C28732   2.976   8.724   8.130  0.1585  0.1283  0.1225
  976MOL0     C28733   2.861   8.773   8.058  0.6725  0.2237  0.2719
  976MOL0     C28734   2.880   8.877   7.975 -0.0029 -0.1265 -0.3897
  976MOL0     O28735   2.769   8.928   7.915 -0.5092  0.1500 -0.1098
  976MOL0     C28736   2.727   9.059   7.946  0.1313  0.2016 -0.9098
  976MOL0     C28737   2.611   9.103   7.862 -0.6253  0.3124  0.6876
  976MOL0     C28738   2.475   9.060   7.923 -0.7097  0.2481 -0.6728
  976MOL0     C28739   2.361   9.092   7.841  0.6653  0.0945  0.3685
  976MOL0     C28740   2.232   9.088   7.923  0.4121 -0.4332 -0.4855
  976MOL0     C28741   2.107   9.143   7.846 -0.5275 -0.0463 -0.3950
  976MOL0     C28742   1.973   9.108   7.923  0.0808 -0.2110  0.3443
  976MOL0     C28743   1.848   9.158   7.837 -0.4273 -0.3212  0.2919
  976MOL0    Cl28744   1.874   9.321   7.778 -0.5939  0.0481  0.2741
  976MOL0     C28745   3.007   8.922   7.942 -0.3330 -0.2216 -0.4392
  976MOL0     C28746   3.116   8.877   8.022  0.2377 -0.1205  0.6639
  976MOL0     O28747   3.097   8.792   8.394 -0.0999  0.2179 -0.0878
  976MOL0     C28748   3.413   8.620   8.349 -0.0887 -0.9162  0.1790
  976MOL0     C28749   3.521   8.563   8.417  0.1557 -0.5038  1.1527
  976MOL0     N28750   3.573   8.659   9.155  1.3881  0.2798 -0.6047
  976MOL0     N28751   3.440   8.667   9.175 -0.6774  0.5807 -0.0550
  976MOL0     C28752   2.282   9.017   8.719  0.3790 -0.7909 -0.1670
  976MOL0     C28753   2.193   9.128   8.720  0.0780  0.2850  0.2012
  976MOL0     C28754   1.874   9.416   8.904 -0.7693 -0.1614 -0.4493
  976MOL0     C28755   1.940   9.519   8.850 -1.1577  0.2501  0.6570
  976MOL0     C28756   1.892   9.651   8.867 -0.0017  0.2188  0.1890
  976MOL0     C28757   1.765   9.680   8.909 -0.3807  0.8414  0.3694
  976MOL0     O28758   1.724   9.808   8.934  0.3444  0.5767 -0.1744
  976MOL0     C28759   1.595   9.853   8.893 -0.4434  0.5789 -0.1193
  976MOL0     C28760   1.595  10.006   8.890  0.0297  0.2379 -1.0093
  976MOL0     C28761   1.702  10.072   8.797  0.5787 -0.9603  0.3033
  976MOL0     C28762   1.689  10.037   8.653  0.0061  0.2950  0.2263
  976MOL0     C28763   1.566  10.081   8.583 -0.0809 -0.0109 -0.2008
  976MOL0     C28764   1.460  10.119   8.546 -0.2938 -0.0078 -0.3303
  976MOL0     C28765   1.695   9.570   8.963  0.2712 -0.6564  0.8159
  976MOL0     C28766   1.739   9.435   8.957  0.3168 -1.1978  0.1096
  976MOL0     H28767   2.022   9.035   8.998 -1.5208  1.3518 -2.0597
  976MOL0     H28768   2.185   8.853   8.998 -0.4879  1.4729  1.5598
  976MOL0     H28769   2.541   8.897   8.871 -0.6898 -1.9112  3.4858
  976MOL0     H28770   2.531   8.856   8.703 -0.1222 -0.3081 -0.0714
  976MOL0     H28771   2.557   8.611   8.767 -0.2945 -1.8449  2.2622
  976MOL0     H28772   2.515   8.650   8.927 -2.5546 -1.0644 -1.5401
  976MOL0     H28773   2.728   8.803   8.922  1.0505  2.0489 -2.2028
  976MOL0     H28774   2.757   8.741   8.752 -0.0704  0.5418 -0.2360
  976MOL0     H28775   2.753   8.568   9.012 -0.5206 -2.5184 -0.8257
  976MOL0     H28776   2.786   8.514   8.849 -0.2014  0.9255 -3.1935
  976MOL0     H28777   2.949   8.739   8.963  0.2199  0.9298 -0.9528
  976MOL0     H28778   2.975   8.659   8.820 -0.9915  2.2366 -0.1830
  976MOL0     H28779   3.006   8.430   8.949  2.1909 -1.4302  2.2260
  976MOL0     H28780   2.979   8.500   9.098 -1.9124 -0.3865 -0.4535
  976MOL0     H28781   3.205   8.554   8.889 -1.6844 -1.3822 -0.5930
  976MOL0     H28782   3.171   8.688   8.985  2.6449 -0.1172 -2.0229
  976MOL0     H28783   3.238   8.417   9.122  1.6802 -0.2877  0.6248
  976MOL0     H28784   3.190   8.568   9.199  0.4463 -1.8331  1.4992
  976MOL0     H28785   3.471   8.392   9.009 -0.7776 -0.4095  2.5979
  976MOL0     H28786   3.732   8.389   9.014  2.1110  1.1708 -1.4112
  976MOL0     H28787   3.787   8.494   9.132  0.5748 -4.2590  0.2267
  976MOL0     H28788   3.929   8.549   8.969 -0.5270  0.0775 -0.0657
  976MOL0     H28789   3.812   8.677   8.957  0.7268 -0.4820  2.2109
  976MOL0     H28790   3.874   8.589   8.725 -0.2465  1.4495  2.1369
  976MOL0     H28791   3.834   8.420   8.780  2.9771  0.5759 -2.7854
  976MOL0     H28792   3.634   8.646   8.776 -2.5283 -1.3666 -1.0159
  976MOL0     H28793   3.600   8.472   8.796  0.1344 -0.0127  0.0824
  976MOL0     H28794   3.403   8.593   8.732  0.2085 -3.2347  0.0377
  976MOL0     H28795   3.213   8.699   8.612  1.5786 -1.0940  1.8517
  976MOL0     H28796   2.970   8.632   8.188  0.0425 -0.0416 -0.1604
  976MOL0     H28797   2.763   8.726   8.061 -0.5664  2.3344 -2.4457
  976MOL0     H28798   2.817   9.122   7.953  1.2271 -1.3945  0.1471
  976MOL0     H28799   2.697   9.062   8.051  1.8073  2.1194 -0.3984
  976MOL0     H28800   2.632   9.060   7.764  2.2582  0.9892  0.9065
  976MOL0     H28801   2.611   9.211   7.841 -1.2785  0.7265  2.5498
  976MOL0     H28802   2.468   9.110   8.020 -0.8142 -0.9985 -0.0056
  976MOL0     H28803   2.478   8.955   7.957  0.7274  1.1497  2.4139
  976MOL0     H28804   2.363   9.198   7.813  0.3339  0.9350  3.1773
  976MOL0     H28805   2.353   9.034   7.749  0.1572  2.6225 -1.2735
  976MOL0     H28806   2.246   9.145   8.016  1.1746  1.7028 -1.8409
  976MOL0     H28807   2.230   8.981   7.945 -2.1919 -0.3960 -0.2358
  976MOL0     H28808   2.104   9.103   7.744  1.9621  1.0933 -0.9804
  976MOL0     H28809   2.117   9.251   7.833  1.4003 -0.0236  0.9271
  976MOL0     H28810   1.981   8.999   7.931  1.0719 -0.2545 -1.0083
  976MOL0     H28811   1.979   9.147   8.025 -0.2163 -4.0212  2.0023
  976MOL0     H28812   1.763   9.130   7.900  0.7400  0.3655  2.2629
  976MOL0     H28813   1.828   9.095   7.750 -3.0228  1.6650 -0.6798
  976MOL0     H28814   3.028   9.007   7.878  3.7513  1.5922  2.8656
  976MOL0     H28815   3.213   8.922   8.001 -0.9252  1.0954 -2.9505
  976MOL0     H28816   3.425   8.639   8.242 -0.6744 -0.9059  0.1066
  976MOL0     H28817   3.613   8.531   8.369  1.8684  2.1884  2.3858
  976MOL0     H28818   2.348   9.023   8.633  0.4005  2.8777 -0.0749
  976MOL0     H28819   2.199   9.194   8.634 -2.2157  0.0034 -0.2330
  976MOL0     H28820   2.040   9.507   8.811 -1.3038  0.0787  0.3300
  976MOL0     H28821   1.958   9.732   8.840 -2.7717  1.0860 -5.2885
  976MOL0     H28822   1.520   9.805   8.957 -0.8818  0.4106 -0.7556
  976MOL0     H28823   1.568   9.801   8.801 -0.4498  0.5955 -0.1282
  976MOL0     H28824   1.492  10.036   8.866 -1.3321 -4.5680 -2.2955
  976MOL0     H28825   1.608  10.027   8.997 -0.8635 -1.1052 -0.6255
  976MOL0     H28826   1.804  10.052   8.832  0.4972  1.6181  2.3241
  976MOL0     H28827   1.679  10.179   8.802 -0.2669 -1.0942 -0.4681
  976MOL0     H28828   1.784  10.068   8.608 -0.8128  2.0378 -0.3876
  976MOL0     H28829   1.692   9.931   8.628 -0.9238  0.6969 -1.8359
  976MOL0     H28830   1.364  10.160   8.523  0.0295  1.9592  1.4714
  976MOL0     H28831   1.594   9.582   9.002  0.2705 -2.9822  1.6599
  976MOL0     H28832   1.677   9.352   8.991 -3.7398  1.4589 -0.0021
  977MOL0     O28833   7.730   4.099   1.577  0.0933 -0.6967 -0.5675
  977MOL0     C28834   7.626   4.139   1.629 -0.2906  0.2580  0.1461
  977MOL0     O28835   7.620   4.232   1.737  0.4643  0.0640  0.3322
  977MOL0     C28836   7.734   4.280   1.782 -0.1739 -0.3722  0.3105
  977MOL0     C28837   7.800   4.215   1.893  0.2546 -0.3584  0.2848
  977MOL0     C28838   7.926   4.261   1.938  0.2031  0.0115  1.0584
  977MOL0     C28839   7.985   4.368   1.870  0.7586 -0.4350 -0.1389
  977MOL0     O28840   8.110   4.427   1.905 -0.5597  0.3139 -0.0623
  977MOL0     C28841   8.142   4.423   2.050  0.0571 -0.2770 -0.3387
  977MOL0     C28842   8.084   4.541   2.129 -0.5390  0.2003 -0.0316
  977MOL0     C28843   7.926   4.544   2.109 -0.8442 -0.2632  0.6835
  977MOL0     C28844   7.879   4.662   2.190 -0.2915  0.7344 -0.9169
  977MOL0     C28845   7.735   4.642   2.236 -0.0504 -0.0590  0.3349
  977MOL0     C28846   7.719   4.749   2.338  0.1987  0.4860  0.0480
  977MOL0     C28847   7.578   4.744   2.394  0.2855 -1.2580  0.0339
  977MOL0     C28848   7.563   4.858   2.495 -0.3916  0.5514  0.7101
  977MOL0     N28849   7.418   4.880   2.515  0.9491 -0.1360 -0.2997
  977MOL0     C28850   7.340   4.947   2.419  0.0644  0.4241 -0.0264
  977MOL0     C28851   7.212   4.949   2.462 -0.0066 -0.5019 -0.2290
  977MOL0     C28852   7.085   4.984   2.396  0.3438 -0.4561  0.5485
  977MOL0     C28853   7.081   5.117   2.316 -0.8919 -0.1291  0.5409
  977MOL0     C28854   7.065   5.245   2.400 -0.4988  0.3803  0.1359
  977MOL0     C28855   6.924   5.271   2.459 -0.0272  0.5023 -0.3870
  977MOL0     O28856   6.829   5.283   2.346 -0.1718 -0.0413  0.1443
  977MOL0     C28857   6.706   5.214   2.363 -0.0536 -0.0256  0.1092
  977MOL0     C28858   6.637   5.239   2.477  1.3722  0.9482 -1.1703
  977MOL0     C28859   6.514   5.176   2.502  0.2380  1.3544 -0.0862
  977MOL0     C28860   6.459   5.085   2.411 -0.6536 -0.4776  0.5854
  977MOL0     C28861   6.339   5.009   2.445 -0.5008  0.1647  0.2859
  977MOL0     O28862   6.279   5.047   2.561 -0.6008  0.7673 -0.6459
  977MOL0     C28863   6.147   5.014   2.576  1.2279 -0.5112 -0.6236
  977MOL0     C28864   6.045   4.973   2.484  0.2243 -0.8311  0.4492
  977MOL0     C28865   5.915   4.952   2.520  0.5278 -0.2082 -1.3609
  977MOL0     C28866   5.874   4.992   2.650 -0.3239 -0.2508  0.9054
  977MOL0     O28867   5.742   4.964   2.673  1.0155  0.2598 -0.6410
  977MOL0     C28868   5.698   4.977   2.809  0.5563  0.8201 -0.3289
  977MOL0     C28869   5.546   4.942   2.820 -0.8511  0.0826  0.2996
  977MOL0     C28870   5.498   5.010   2.945  0.0251 -0.0592 -0.4796
  977MOL0     C28871   5.346   4.991   2.964  0.0706  0.0813 -0.0308
  977MOL0     C28872   5.317   4.860   3.040 -0.0622  0.5055  0.4738
  977MOL0     C28873   5.168   4.834   3.065 -0.7550 -0.3958  0.1933
  977MOL0     C28874   5.068   4.864   2.951 -0.6409  0.6783 -0.0463
  977MOL0     C28875   4.920   4.847   2.983 -1.0473 -0.3475  0.3138
  977MOL0    Cl28876   4.880   4.673   2.987 -0.1277  0.0646 -0.2150
  977MOL0     C28877   5.979   5.017   2.737  0.1241  0.2549 -0.0722
  977MOL0     C28878   6.107   5.034   2.702 -0.3171 -0.5340  0.2783
  977MOL0     O28879   6.311   4.913   2.380  0.0747  0.6448  0.0382
  977MOL0     C28880   6.514   5.079   2.284  0.7087  0.4393 -0.1669
  977MOL0     C28881   6.644   5.132   2.263 -1.0553 -0.0638 -1.2443
  977MOL0     N28882   7.210   4.887   2.582 -0.8870 -0.0282  0.0326
  977MOL0     N28883   7.334   4.849   2.615 -0.7444 -0.0144 -0.3497
  977MOL0     C28884   7.926   4.417   1.752 -0.1205  0.0936 -0.1276
  977MOL0     C28885   7.804   4.372   1.708  0.1732  0.0125 -0.1491
  977MOL0     C28886   7.504   4.079   1.579  0.7942 -0.5269 -0.4085
  977MOL0     C28887   7.506   3.966   1.492 -0.8031 -0.0618  0.1086
  977MOL0     C28888   7.386   3.927   1.437  1.2883 -0.8397 -0.2048
  977MOL0     C28889   7.267   4.005   1.443 -0.2880 -0.3011 -0.3003
  977MOL0     O28890   7.161   3.958   1.370  0.3143 -0.0045 -0.5378
  977MOL0     C28891   7.027   3.997   1.405  0.0080  0.6882 -0.3383
  977MOL0     C28892   6.964   3.992   1.270  0.2390 -1.2985  0.2992
  977MOL0     C28893   6.950   3.852   1.218 -0.1384 -0.0788 -1.1924
  977MOL0     C28894   6.865   3.857   1.086  0.1420 -0.0500 -0.1810
  977MOL0     C28895   6.728   3.914   1.104 -0.1516 -0.2375  0.0762
  977MOL0     C28896   6.617   3.960   1.122  0.6887  1.0185  0.4610
  977MOL0     C28897   7.268   4.122   1.525 -0.5432 -0.7797 -0.1095
  977MOL0     C28898   7.382   4.166   1.591 -0.2568 -0.6500  0.7065
  977MOL0     H28899   7.741   4.135   1.938 -0.5237 -0.6318 -1.1469
  977MOL0     H28900   7.971   4.204   2.018  1.6994  1.7250  1.4969
  977MOL0     H28901   8.249   4.426   2.073  0.6359  1.2268 -2.8466
  977MOL0     H28902   8.105   4.335   2.103  1.6955  0.2411  1.7890
  977MOL0     H28903   8.129   4.637   2.102  1.7286 -0.9312 -0.4814
  977MOL0     H28904   8.109   4.526   2.235  1.7364 -0.5283 -0.6222
  977MOL0     H28905   7.881   4.452   2.147 -1.7875 -0.2710 -0.3834
  977MOL0     H28906   7.898   4.558   2.004  2.5270 -0.7130 -0.3836
  977MOL0     H28907   7.936   4.677   2.281 -2.1326  3.0512 -0.0283
  977MOL0     H28908   7.891   4.757   2.137  0.9111  1.1106  0.0079
  977MOL0     H28909   7.724   4.547   2.289 -4.2144  0.7998  1.4547
  977MOL0     H28910   7.666   4.653   2.152  0.8103 -1.8401 -0.6342
  977MOL0     H28911   7.730   4.852   2.303  1.5866  0.3258 -0.0410
  977MOL0     H28912   7.790   4.732   2.420  2.2967 -0.7458 -1.9111
  977MOL0     H28913   7.503   4.758   2.315  1.1781 -3.0424 -1.1754
  977MOL0     H28914   7.559   4.649   2.445 -0.3095 -0.7439  0.8037
  977MOL0     H28915   7.603   4.954   2.462  1.2412 -0.8606 -1.6696
  977MOL0     H28916   7.603   4.824   2.591 -0.5440  0.1665  0.6407
  977MOL0     H28917   7.370   4.977   2.319  1.4995 -0.1390  0.2170
  977MOL0     H28918   7.014   4.993   2.478 -0.0553 -0.3862  0.2001
  977MOL0     H28919   7.056   4.900   2.331 -1.8426  0.1036  0.7247
  977MOL0     H28920   7.009   5.114   2.233 -0.9598  0.5874  0.5680
  977MOL0     H28921   7.180   5.129   2.270 -1.0506 -1.4562 -0.2189
  977MOL0     H28922   7.121   5.236   2.494 -0.4134  0.5415  0.1001
  977MOL0     H28923   7.098   5.333   2.344  0.1866  0.1777  0.2112
  977MOL0     H28924   6.924   5.355   2.529  0.1480 -0.6035  0.9746
  977MOL0     H28925   6.887   5.189   2.521  1.1924  0.1053 -0.1482
  977MOL0     H28926   6.674   5.309   2.551  0.4477  1.6024 -1.3013
  977MOL0     H28927   6.480   5.191   2.603 -0.3351  2.7925 -0.4613
  977MOL0     H28928   6.081   4.961   2.382  1.0640 -0.0291  0.6318
  977MOL0     H28929   5.837   4.925   2.450 -2.1242  0.3969  1.1818
  977MOL0     H28930   5.716   5.077   2.850 -0.4907 -0.3266  3.3331
  977MOL0     H28931   5.755   4.913   2.878  0.3555 -1.5469 -2.2173
  977MOL0     H28932   5.528   4.834   2.826  2.1018 -0.7641 -2.6519
  977MOL0     H28933   5.500   4.980   2.729 -1.3839 -2.1310 -0.4310
  977MOL0     H28934   5.518   5.117   2.943  1.2074 -0.2109  0.9367
  977MOL0     H28935   5.552   4.957   3.025  0.5118 -1.1384 -1.4995
  977MOL0     H28936   5.330   5.085   3.016  3.2609  0.5091  0.4179
  977MOL0     H28937   5.304   4.998   2.863  2.1822  0.1733 -0.9683
  977MOL0     H28938   5.375   4.857   3.133 -0.5532  2.3622  0.8935
  977MOL0     H28939   5.351   4.776   2.979 -1.2956 -0.3923  1.0101
  977MOL0     H28940   5.154   4.926   3.121  1.2095  1.3111 -1.8933
  977MOL0     H28941   5.144   4.748   3.128  0.2030 -1.1872 -0.4773
  977MOL0     H28942   5.074   4.965   2.910 -1.7131  1.5777  1.8929
  977MOL0     H28943   5.097   4.793   2.872  1.2081 -0.6848  1.7476
  977MOL0     H28944   4.855   4.884   2.903  1.0090 -2.6570 -2.6425
  977MOL0     H28945   4.908   4.888   3.083 -2.2426 -0.3112  0.1692
  977MOL0     H28946   5.959   5.018   2.844  2.7421 -0.5130  0.5068
  977MOL0     H28947   6.180   5.070   2.774  0.9671  0.3120 -1.4032
  977MOL0     H28948   6.477   5.029   2.195  1.9667 -0.3147 -0.3032
  977MOL0     H28949   6.704   5.118   2.174 -0.3781 -0.0005 -0.8050
  977MOL0     H28950   7.983   4.492   1.697  2.6854 -0.8212  1.3286
  977MOL0     H28951   7.759   4.401   1.613  0.1556 -0.8570 -0.4118
  977MOL0     H28952   7.598   3.922   1.454  1.0138  2.4127  1.2770
  977MOL0     H28953   7.392   3.838   1.375 -0.1559 -1.1464  0.0607
  977MOL0     H28954   7.033   4.104   1.427  1.7314  0.8295 -1.3514
  977MOL0     H28955   6.993   3.936   1.490  1.1281 -0.1780 -0.4998
  977MOL0     H28956   6.865   4.038   1.273  0.8116  0.1975 -1.4597
  977MOL0     H28957   7.031   4.045   1.201  2.9764 -0.2114  3.4841
  977MOL0     H28958   6.894   3.791   1.290 -0.6704  0.4775 -1.1262
  977MOL0     H28959   7.043   3.796   1.200  1.6738  1.1106  3.1659
  977MOL0     H28960   6.915   3.931   1.024  2.5026 -0.8750  0.6185
  977MOL0     H28961   6.859   3.758   1.039 -0.6516 -0.1608  0.1405
  977MOL0     H28962   6.522   3.991   1.160  0.2338 -0.7105  0.7854
  977MOL0     H28963   7.186   4.194   1.527 -0.1094 -0.3068  1.0158
  977MOL0     H28964   7.390   4.257   1.650  0.8214 -0.4932  0.3313
  978MOL0     O28965   1.007   0.057  10.923  0.7567 -0.9971  0.3252
  978MOL0     C28966   0.892   0.090  10.888 -0.0356  0.3163  0.4165
  978MOL0     O28967   0.866   0.186  10.786  0.2934 -0.4581  0.2138
  978MOL0     C28968   0.959   0.231  10.695  0.4033 -0.7906  0.4128
  978MOL0     C28969   0.936   0.361  10.638  0.4115  0.3601 -0.2058
  978MOL0     C28970   1.026   0.408  10.542  0.4175  0.5423  0.2186
  978MOL0     C28971   1.130   0.327  10.490 -0.2132 -0.4009 -0.0394
  978MOL0     O28972   1.224   0.366  10.395  0.6599  0.0330  0.4141
  978MOL0     C28973   1.187   0.490  10.331  0.0606 -0.1832 -0.0794
  978MOL0     C28974   1.286   0.532  10.222 -1.2250  0.5829 -0.4954
  978MOL0     C28975   1.225   0.588  10.089 -0.1860  0.8828  0.1171
  978MOL0     C28976   1.337   0.656  10.014 -0.6513 -0.0477  0.1529
  978MOL0     C28977   1.295   0.705   9.870  0.5262  0.0574  0.3238
  978MOL0     C28978   1.182   0.812   9.858 -0.3008 -0.2510 -0.8611
  978MOL0     C28979   1.203   0.930   9.949 -0.2856 -0.2214  0.7039
  978MOL0     C28980   1.126   1.050   9.905 -0.6744  1.0786  0.3825
  978MOL0     N28981   1.131   1.164  10.001  0.3098 -0.8195  0.0577
  978MOL0     C28982   1.233   1.231  10.043 -0.6146 -0.0649  0.4177
  978MOL0     C28983   1.183   1.338  10.106  1.1252  0.6101 -0.3479
  978MOL0     C28984   1.247   1.452  10.166  0.2352  0.1601 -0.4097
  978MOL0     C28985   1.393   1.416  10.226  0.4142  0.2022  0.9631
  978MOL0     C28986   1.454   1.543  10.286  0.2909 -0.3923 -0.9382
  978MOL0     C28987   1.585   1.510  10.369 -0.0437  0.3135  0.5364
  978MOL0     O28988   1.554   1.411  10.467 -0.0121  0.0286 -0.2317
  978MOL0     C28989   1.520   1.436  10.599  1.0362 -0.4832 -0.0224
  978MOL0     C28990   1.432   1.360  10.656 -0.5946  0.4634  0.1331
  978MOL0     C28991   1.394   1.378  10.786 -0.0216 -0.2408 -0.4445
  978MOL0     C28992   1.449   1.483  10.861  0.8738  0.6473  0.0638
  978MOL0     C28993   1.397   1.513  10.995 -0.6480  0.7384 -0.3183
  978MOL0     O28994   1.296   1.440  11.053  0.2402  0.0172  0.1114
  978MOL0     C28995   1.269   1.460  11.190 -0.2380  0.6753  0.0607
  978MOL0     C28996   1.140   1.498  11.235 -0.1043 -0.7579  0.2797
  978MOL0     C28997   1.117   1.508  11.377  0.3452 -0.4665  0.3284
  978MOL0     C28998   1.220   1.493  11.476 -0.5937 -0.0427 -0.0514
  978MOL0     O28999   1.179   1.530  11.599 -0.7043 -1.0192  0.3942
  978MOL0     C29000   1.241   1.467  11.714 -0.4730  0.0352 -0.6504
  978MOL0     C29001   1.211   1.314  11.712  0.4192  0.0799  1.4587
  978MOL0     C29002   1.232   1.234  11.846  0.1720  0.2732  0.5515
  978MOL0     C29003   1.204   1.088  11.837  0.1208  0.5500 -0.7931
  978MOL0     C29004   1.057   1.044  11.808  0.2775 -0.3893 -0.8507
  978MOL0     C29005   0.944   1.120  11.894 -0.5272  0.1181  0.2061
  978MOL0     C29006   0.807   1.090  11.822 -0.7964  0.0601 -0.9638
  978MOL0     C29007   0.749   0.946  11.822 -0.3274  0.8920 -0.1470
  978MOL0    Cl29008   0.582   0.945  11.752 -0.2321 -0.3749  0.1725
  978MOL0     C29009   1.352   1.463  11.434  0.2142  0.1777  1.0096
  978MOL0     C29010   1.371   1.441  11.288 -0.5588  0.2533  0.0397
  978MOL0     O29011   1.457   1.607  11.056  0.4266  0.7772 -0.0219
  978MOL0     C29012   1.542   1.571  10.796  0.0803 -0.2483  0.6235
  978MOL0     C29013   1.579   1.543  10.669 -0.6852 -0.5193 -1.0023
  978MOL0     N29014   1.041   1.334  10.093  0.9055  0.1789 -0.2400
  978MOL0     N29015   1.011   1.232  10.021 -0.3177 -0.2444 -0.3299
  978MOL0     C29016   1.143   0.199  10.528 -0.5503 -0.0303  0.4570
  978MOL0     C29017   1.063   0.149  10.639 -0.9171  0.0342  0.0443
  978MOL0     C29018   0.772   0.020  10.949  0.3267  0.0065  0.2259
  978MOL0     C29019   0.779  -0.069  11.054  1.0149 -0.1923  0.1890
  978MOL0     C29020   0.658  -0.115  11.122 -0.3234  0.5357 -0.0463
  978MOL0     C29021   0.531  -0.065  11.073  0.9321  0.2820  0.3044
  978MOL0     O29022   0.421  -0.123  11.127  0.9023 -0.3835 -0.4754
  978MOL0     C29023   0.298  -0.042  11.124  0.5283 -0.1314 -0.1147
  978MOL0     C29024   0.197  -0.079  11.241 -0.3305  0.1609 -0.6413
  978MOL0     C29025   0.055  -0.031  11.212 -1.3173  0.0797  0.0992
  978MOL0     C29026  -0.050  -0.056  11.329  0.5305  0.0076  0.0197
  978MOL0     C29027  -0.091  -0.196  11.358  0.0467  0.6200  0.2746
  978MOL0     C29028  -0.142  -0.306  11.364 -0.7308  0.1595 -0.0944
  978MOL0     C29029   0.534   0.029  10.973  0.3413  0.1335 -0.5506
  978MOL0     C29030   0.651   0.061  10.908 -0.5356 -0.0435  0.0899
  978MOL0     H29031   0.865   0.430  10.681 -0.4057  1.2006 -2.7508
  978MOL0     H29032   1.002   0.504  10.498  1.0529  1.1872  1.2563
  978MOL0     H29033   1.184   0.574  10.401  0.5322 -1.6270  1.7473
  978MOL0     H29034   1.085   0.482  10.292 -1.0608  2.7099  1.9093
  978MOL0     H29035   1.337   0.441  10.191 -0.5640  1.5186 -2.3732
  978MOL0     H29036   1.364   0.599  10.260  0.9168 -1.4516 -1.0422
  978MOL0     H29037   1.147   0.661  10.112 -2.3976 -1.0446 -0.8551
  978MOL0     H29038   1.186   0.509  10.024  1.7354 -0.8042  0.9352
  978MOL0     H29039   1.375   0.739  10.073 -0.1023  0.0798 -0.3807
  978MOL0     H29040   1.411   0.576  10.004 -1.5118 -0.8012 -0.4459
  978MOL0     H29041   1.267   0.620   9.808 -2.2052  0.5239  0.7853
  978MOL0     H29042   1.380   0.753   9.822  0.3592 -0.4404 -0.4905
  978MOL0     H29043   1.089   0.759   9.881 -0.7712  0.9543  0.0866
  978MOL0     H29044   1.187   0.854   9.757  0.8715 -1.1488 -1.1987
  978MOL0     H29045   1.170   0.893  10.047  1.6268 -0.9154  1.1125
  978MOL0     H29046   1.308   0.947   9.975  0.2790  1.9829 -2.4663
  978MOL0     H29047   1.026   1.006   9.893  0.3658 -1.5259  0.4896
  978MOL0     H29048   1.148   1.104   9.813 -0.6667  1.0014  0.3399
  978MOL0     H29049   1.338   1.209  10.028 -0.5230  0.6648 -0.0855
  978MOL0     H29050   1.183   1.487  10.247  0.0494 -0.4604 -0.2863
  978MOL0     H29051   1.262   1.538  10.099  0.0468 -1.1428 -2.1910
  978MOL0     H29052   1.463   1.372  10.154  1.7617  2.3872  0.8298
  978MOL0     H29053   1.391   1.340  10.305 -0.2929  1.1042  1.8327
  978MOL0     H29054   1.494   1.603  10.203 -0.5824 -1.4016 -2.1408
  978MOL0     H29055   1.379   1.600  10.342  2.5943  0.0722  1.9214
  978MOL0     H29056   1.621   1.594  10.428 -1.6379  0.9812  0.6026
  978MOL0     H29057   1.658   1.474  10.295  0.5932 -0.0626  1.3364
  978MOL0     H29058   1.385   1.279  10.602 -1.9240 -1.1440  3.4142
  978MOL0     H29059   1.328   1.308  10.837  2.6003 -2.9150 -0.4396
  978MOL0     H29060   1.071   1.525  11.155  0.6956 -1.7783 -0.7791
  978MOL0     H29061   1.018   1.532  11.412  0.2032 -0.5403 -0.0165
  978MOL0     H29062   1.189   1.515  11.797 -0.1925  1.7259 -1.4279
  978MOL0     H29063   1.348   1.487  11.704  0.1610 -1.4197  2.0677
  978MOL0     H29064   1.287   1.270  11.647 -0.9066  0.5089 -0.4712
  978MOL0     H29065   1.112   1.297  11.669  0.3535 -0.7963  1.9205
  978MOL0     H29066   1.168   1.297  11.909 -1.5708  0.1454 -1.0111
  978MOL0     H29067   1.333   1.239  11.887 -1.0628 -2.4069  4.5652
  978MOL0     H29068   1.265   1.058  11.750 -0.0163  1.0023 -1.0490
  978MOL0     H29069   1.243   1.040  11.927  0.0056 -1.1122 -1.5951
  978MOL0     H29070   1.052   0.936  11.823  3.9454 -0.3216  2.2406
  978MOL0     H29071   1.031   1.060  11.703  1.0558  0.8438 -0.8790
  978MOL0     H29072   0.959   1.228  11.891 -0.2484  0.0584 -1.6684
  978MOL0     H29073   0.949   1.092  12.000  1.7272  4.4564  1.4529
  978MOL0     H29074   0.745   1.158  11.882  3.9818  2.5473  1.7301
  978MOL0     H29075   0.818   1.122  11.718  0.0601 -2.8926 -1.8581
  978MOL0     H29076   0.748   0.911  11.925 -0.7621  1.3576  0.0132
  978MOL0     H29077   0.810   0.881  11.759  1.4477 -0.8981  3.1623
  978MOL0     H29078   1.437   1.452  11.499  0.4758  1.6540  0.9360
  978MOL0     H29079   1.477   1.443  11.265 -0.3386  2.3789  0.9435
  978MOL0     H29080   1.586   1.660  10.838 -0.5514 -0.6499  2.2219
  978MOL0     H29081   1.662   1.602  10.631  0.1310 -1.2214 -0.3465
  978MOL0     H29082   1.208   0.132  10.473 -2.7835 -0.0714 -2.3478
  978MOL0     H29083   1.082   0.045  10.666 -0.6403 -1.5648 -5.1743
  978MOL0     H29084   0.884  -0.093  11.064  1.2496  0.1552 -1.2502
  978MOL0     H29085   0.661  -0.203  11.187 -0.1761  0.0166 -0.7396
  978MOL0     H29086   0.246  -0.061  11.030  0.3910  0.0546 -0.0761
  978MOL0     H29087   0.319   0.065  11.109 -0.5242  0.3063  1.2796
  978MOL0     H29088   0.192  -0.187  11.257 -1.7396  0.6404  3.2659
  978MOL0     H29089   0.230  -0.043  11.339 -3.1419  1.7177 -0.1620
  978MOL0     H29090   0.023  -0.081  11.120 -0.5168 -2.3157  1.0551
  978MOL0     H29091   0.069   0.077  11.196  1.9722  0.3966  3.6442
  978MOL0     H29092  -0.006  -0.021  11.422  0.2245 -1.1370  0.6240
  978MOL0     H29093  -0.128   0.017  11.308 -0.7248  0.0229  4.0085
  978MOL0     H29094  -0.182  -0.405  11.370 -1.3073  0.4287  0.7979
  978MOL0     H29095   0.440   0.055  10.925  0.9025  2.9587 -0.2541
  978MOL0     H29096   0.637   0.129  10.824 -0.9467 -1.5056 -1.0646
  979MOL0     O29097   9.695   7.633   4.827  0.7028 -1.2349 -0.3333
  979MOL0     C29098   9.748   7.533   4.795 -0.3631  0.2168 -0.5094
  979MOL0     O29099   9.883   7.514   4.758 -0.7891 -0.3700 -0.5014
  979MOL0     C29100   9.982   7.612   4.735 -0.0879 -0.4461  0.2985
  979MOL0     C29101   9.966   7.748   4.763 -0.2405  0.1625  0.2077
  979MOL0     C29102  10.074   7.845   4.745 -0.0528 -0.5511  0.4665
  979MOL0     C29103  10.201   7.793   4.710 -0.2653  0.0118 -0.1357
  979MOL0     O29104  10.309   7.874   4.688 -0.7172 -0.0343  0.4729
  979MOL0     C29105  10.302   8.006   4.635 -0.5767  1.1093 -0.0209
  979MOL0     C29106  10.430   8.093   4.674 -0.5145 -0.9793  0.2689
  979MOL0     C29107  10.559   8.047   4.593  0.4594 -0.4181  0.6627
  979MOL0     C29108  10.681   8.114   4.657  0.3653 -0.1397 -0.2794
  979MOL0     C29109  10.806   8.120   4.571  0.4689  0.3487  0.5874
  979MOL0     C29110  10.900   8.216   4.640 -0.4715 -0.4240 -0.2035
  979MOL0     C29111  11.036   8.203   4.568  0.0126 -0.0531  0.5991
  979MOL0     C29112  11.127   8.322   4.591 -0.4567  1.4013 -0.2752
  979MOL0     N29113  11.221   8.330   4.476  0.2650  0.3168  0.4975
  979MOL0     C29114  11.206   8.373   4.344  1.1629  0.0591  0.6333
  979MOL0     C29115  11.330   8.366   4.287 -0.0413 -0.1150 -0.2454
  979MOL0     C29116  11.371   8.357   4.140 -0.1725 -0.6609  1.0707
  979MOL0     C29117  11.375   8.496   4.063 -0.2841 -0.0454 -0.7043
  979MOL0     C29118  11.459   8.479   3.942 -0.9531  0.1444  0.5068
  979MOL0     C29119  11.597   8.420   3.958 -0.0887  0.9289  1.1328
  979MOL0     O29120  11.668   8.479   4.067 -0.2526 -0.2122  0.6897
  979MOL0     C29121  11.782   8.403   4.097  0.7917 -0.6559  0.0938
  979MOL0     C29122  11.819   8.413   4.240 -0.5695 -0.0462  0.6503
  979MOL0     C29123  11.939   8.346   4.282  0.2159 -0.7190 -0.5335
  979MOL0     C29124  12.006   8.266   4.190 -0.7853  0.6828 -0.1528
  979MOL0     C29125  12.141   8.208   4.229 -0.6191  0.0476 -0.0554
  979MOL0     O29126  12.193   8.236   4.357  0.8867  0.3993  0.4714
  979MOL0     C29127  12.318   8.197   4.403  0.7726  0.3179 -0.0353
  979MOL0     C29128  12.326   8.170   4.536  0.1582  0.1869 -0.5364
  979MOL0     C29129  12.439   8.104   4.594 -0.8031 -0.8511  0.5352
  979MOL0     C29130  12.558   8.095   4.511 -0.4652  0.1548  0.9890
  979MOL0     O29131  12.680   8.042   4.553 -0.1478  0.0675  0.4457
  979MOL0     C29132  12.686   7.969   4.679 -1.2706  0.1795 -0.2412
  979MOL0     C29133  12.821   7.969   4.725 -0.7254  0.2361  0.7894
  979MOL0     C29134  12.876   8.104   4.744  0.4925  0.1268  0.0131
  979MOL0     C29135  13.023   8.103   4.795 -0.4533 -0.3489 -0.4350
  979MOL0     C29136  13.077   8.253   4.793 -0.4916  0.0044  0.1377
  979MOL0     C29137  13.229   8.267   4.751  0.5853 -0.5609 -0.0060
  979MOL0     C29138  13.279   8.405   4.759  0.2722  0.0048  1.0702
  979MOL0     C29139  13.260   8.496   4.885 -0.3093 -0.2217  0.5769
  979MOL0    Cl29140  13.362   8.409   5.009  0.1951 -0.0040  0.2186
  979MOL0     C29141  12.548   8.128   4.382 -0.7136  0.2142  0.1682
  979MOL0     C29142  12.434   8.174   4.324 -0.0427 -0.2702 -0.1658
  979MOL0     O29143  12.195   8.141   4.148 -0.0393  0.1998  0.0014
  979MOL0     C29144  11.954   8.252   4.062 -0.5347 -0.3411  0.0277
  979MOL0     C29145  11.847   8.321   4.007 -0.6080  1.1145 -0.1833
  979MOL0     N29146  11.418   8.341   4.387 -0.4034 -0.3729 -1.1946
  979MOL0     N29147  11.357   8.328   4.499 -0.3742  0.2416  0.1995
  979MOL0     C29148  10.207   7.657   4.689 -0.5822  0.1694  0.3189
  979MOL0     C29149  10.104   7.567   4.694  0.3287  1.0416 -0.3262
  979MOL0     C29150   9.656   7.417   4.778  0.3883 -0.7430  0.3191
  979MOL0     C29151   9.525   7.429   4.817 -0.3708 -0.2417  0.0578
  979MOL0     C29152   9.446   7.319   4.813  0.8217 -0.5602  1.0619
  979MOL0     C29153   9.483   7.197   4.755 -0.9679 -0.0337  0.4648
  979MOL0     O29154   9.384   7.103   4.737 -0.4929 -0.2268 -0.1957
  979MOL0     C29155   9.401   6.982   4.669  0.0455  0.1123 -0.0379
  979MOL0     C29156   9.308   6.975   4.545 -0.3546  0.4583 -0.5050
  979MOL0     C29157   9.368   7.051   4.428 -0.2851  0.5920 -0.4985
  979MOL0     C29158   9.432   6.955   4.316  0.6300 -0.6789 -0.4644
  979MOL0     C29159   9.545   6.881   4.364  0.1349 -0.6438 -0.1698
  979MOL0     C29160   9.629   6.808   4.407  0.0310  0.0055 -0.5106
  979MOL0     C29161   9.616   7.184   4.713  0.4176 -0.2116 -0.1402
  979MOL0     C29162   9.706   7.294   4.732  0.9383  0.8474 -0.3594
  979MOL0     H29163   9.866   7.785   4.783 -0.9162  1.3126 -4.2838
  979MOL0     H29164  10.064   7.949   4.774  0.3294 -0.6615  1.0187
  979MOL0     H29165  10.215   8.052   4.683 -1.5149 -2.9823  2.6613
  979MOL0     H29166  10.293   7.994   4.526 -0.4353 -1.4516  0.2096
  979MOL0     H29167  10.462   8.089   4.778 -0.4661  1.9589  0.4511
  979MOL0     H29168  10.404   8.198   4.653  1.0002 -0.3987  1.1432
  979MOL0     H29169  10.548   8.070   4.487  4.7309 -2.5198 -0.4259
  979MOL0     H29170  10.569   7.939   4.606  2.8088 -0.5807 -1.6652
  979MOL0     H29171  10.646   8.215   4.680 -1.3944 -1.2581  2.3999
  979MOL0     H29172  10.694   8.057   4.750  0.8820 -0.0421 -0.2889
  979MOL0     H29173  10.786   8.151   4.468 -0.6711 -1.3712  0.2377
  979MOL0     H29174  10.855   8.022   4.572 -2.3454 -1.2029  2.9251
  979MOL0     H29175  10.919   8.196   4.746  0.7859  0.2233 -0.2890
  979MOL0     H29176  10.856   8.315   4.628  1.7082  0.8172  1.4780
  979MOL0     H29177  11.081   8.110   4.603  2.8153  1.3715  1.0211
  979MOL0     H29178  11.017   8.179   4.463 -0.2599 -3.7676  1.3788
  979MOL0     H29179  11.178   8.313   4.687 -2.1927  0.3971  0.6033
  979MOL0     H29180  11.080   8.421   4.579 -0.4287  1.2693 -1.6587
  979MOL0     H29181  11.108   8.377   4.297  2.2151 -0.8429 -1.7585
  979MOL0     H29182  11.302   8.284   4.096  0.1350 -0.2472 -0.1324
  979MOL0     H29183  11.470   8.312   4.133  0.8005  1.0420  3.1032
  979MOL0     H29184  11.424   8.558   4.139 -0.7468 -0.2606 -0.2224
  979MOL0     H29185  11.279   8.542   4.038 -1.6645 -2.6664 -0.6119
  979MOL0     H29186  11.395   8.423   3.873 -1.6049 -0.6353  1.7205
  979MOL0     H29187  11.463   8.577   3.893  3.0425 -0.4621 -0.7578
  979MOL0     H29188  11.651   8.445   3.866 -0.4264 -1.2603  0.2939
  979MOL0     H29189  11.591   8.312   3.968 -1.1922  1.1466  3.4071
  979MOL0     H29190  11.769   8.480   4.309  0.3834 -0.8666  2.1904
  979MOL0     H29191  11.980   8.359   4.382 -0.0689 -0.1574 -0.4843
  979MOL0     H29192  12.231   8.177   4.588  0.7988 -2.3600  1.1734
  979MOL0     H29193  12.424   8.089   4.700 -1.5491 -3.2061  0.1726
  979MOL0     H29194  12.648   7.867   4.669  2.8324 -1.3586 -2.4906
  979MOL0     H29195  12.634   8.019   4.761 -0.1396  0.9064  0.0554
  979MOL0     H29196  12.888   7.908   4.663  0.3397  2.2336 -0.0876
  979MOL0     H29197  12.830   7.922   4.823  2.5603 -1.6461 -0.2416
  979MOL0     H29198  12.822   8.151   4.826  0.7050 -2.6288  1.8814
  979MOL0     H29199  12.871   8.162   4.652  1.8873 -2.1318 -1.6006
  979MOL0     H29200  13.037   8.056   4.892 -5.2542 -1.6547 -0.1456
  979MOL0     H29201  13.079   8.051   4.716 -0.4133 -1.2133  0.1515
  979MOL0     H29202  13.083   8.277   4.900  1.3576 -3.8977  1.1226
  979MOL0     H29203  13.017   8.315   4.727 -0.0599  1.6572  1.2389
  979MOL0     H29204  13.245   8.228   4.650  2.0618 -1.4958  0.5683
  979MOL0     H29205  13.282   8.206   4.824  2.3935 -0.0552 -0.8459
  979MOL0     H29206  13.387   8.398   4.742 -0.1525 -2.3360 -1.4029
  979MOL0     H29207  13.242   8.458   4.670 -0.1263  0.6355  1.6038
  979MOL0     H29208  13.153   8.496   4.908  0.1555 -0.2160  2.9644
  979MOL0     H29209  13.297   8.598   4.870  3.3672 -1.6183 -0.9549
  979MOL0     H29210  12.638   8.108   4.324  0.0927  2.6704  0.4740
  979MOL0     H29211  12.441   8.184   4.217  2.7474  4.3992  0.1835
  979MOL0     H29212  12.014   8.193   3.993  0.0878 -0.8220  0.9515
  979MOL0     H29213  11.827   8.322   3.901 -0.6594  4.5215 -0.2511
  979MOL0     H29214  10.298   7.617   4.646 -1.2081 -0.6771 -0.2628
  979MOL0     H29215  10.107   7.461   4.670 -1.5320  1.3996 -2.4096
  979MOL0     H29216   9.487   7.519   4.863  0.9211 -0.4511  1.6445
  979MOL0     H29217   9.347   7.347   4.847  0.9796  0.2868  0.8524
  979MOL0     H29218   9.376   6.901   4.738  1.9388  0.6540  1.3649
  979MOL0     H29219   9.503   6.965   4.634 -0.2987 -0.4244 -0.8147
  979MOL0     H29220   9.287   6.875   4.505  2.3760 -0.2891 -0.2530
  979MOL0     H29221   9.211   7.015   4.576  0.3255  1.9352 -0.2091
  979MOL0     H29222   9.438   7.127   4.464 -1.0811  0.1529  2.1455
  979MOL0     H29223   9.285   7.108   4.384 -0.4154  1.3542  0.7013
  979MOL0     H29224   9.347   6.890   4.295  0.6389 -0.4048 -1.3993
  979MOL0     H29225   9.460   7.009   4.225 -0.1610 -0.7618 -0.7614
  979MOL0     H29226   9.688   6.733   4.457 -0.1747  0.2200  0.0613
  979MOL0     H29227   9.647   7.091   4.667  1.4528 -1.6301  3.1729
  979MOL0     H29228   9.810   7.283   4.704  1.3775  0.5093  1.2768
  980MOL0     O29229   8.168   6.241   3.189  0.6310  0.4979 -0.1474
  980MOL0     C29230   8.221   6.346   3.237  0.1548  0.9066 -0.3873
  980MOL0     O29231   8.171   6.424   3.334 -0.0174 -0.5170 -0.1915
  980MOL0     C29232   8.041   6.399   3.376  0.4241  0.8875  0.2691
  980MOL0     C29233   7.934   6.416   3.285  0.4793 -0.6171 -0.5235
  980MOL0     C29234   7.810   6.402   3.332  0.1558  0.5796  0.5518
  980MOL0     C29235   7.786   6.340   3.467 -0.3221  0.3738  1.2139
  980MOL0     O29236   7.659   6.312   3.503 -0.2507 -0.4491  1.1579
  980MOL0     C29237   7.556   6.401   3.453  1.1371 -0.6088 -0.1004
  980MOL0     C29238   7.427   6.374   3.541 -0.0356 -0.5915  0.1450
  980MOL0     C29239   7.328   6.284   3.455  0.1805  0.4458 -0.1661
  980MOL0     C29240   7.206   6.250   3.544  0.9766  0.2582 -0.5108
  980MOL0     C29241   7.082   6.204   3.465  0.2842  1.1118  0.0468
  980MOL0     C29242   7.000   6.100   3.542  0.4624  0.0206 -0.4751
  980MOL0     C29243   6.866   6.063   3.463  0.1104  1.2733 -0.1827
  980MOL0     C29244   6.785   5.953   3.518 -0.4386  0.5962 -0.7651
  980MOL0     N29245   6.708   5.883   3.423 -0.0770  0.3362  0.7514
  980MOL0     C29246   6.760   5.797   3.330 -0.2940 -0.0708  0.0845
  980MOL0     C29247   6.662   5.715   3.287  0.4253  0.2193  0.3956
  980MOL0     C29248   6.658   5.597   3.186 -1.3701 -0.0528  0.5206
  980MOL0     C29249   6.723   5.620   3.049  0.4394 -0.2945  0.0746
  980MOL0     C29250   6.668   5.741   2.965  0.6321  0.1107  0.6079
  980MOL0     C29251   6.519   5.736   2.926  0.4517  0.2717  0.0992
  980MOL0     O29252   6.500   5.618   2.843  0.2610 -0.1121  0.1929
  980MOL0     C29253   6.371   5.598   2.802 -0.2036 -1.3273 -0.4192
  980MOL0     C29254   6.256   5.678   2.840 -0.6678  0.7485  0.0374
  980MOL0     C29255   6.128   5.638   2.797  0.4186  0.6179 -0.2583
  980MOL0     C29256   6.114   5.507   2.720 -0.2761  0.2040  0.1331
  980MOL0     C29257   5.983   5.448   2.674 -0.3380 -0.0900  0.1249
  980MOL0     O29258   5.875   5.515   2.722 -0.1659  0.0218 -0.3834
  980MOL0     C29259   5.750   5.495   2.659 -0.0322  0.6374 -0.0221
  980MOL0     C29260   5.645   5.443   2.734 -0.5201  0.6207  0.0238
  980MOL0     C29261   5.518   5.443   2.673 -0.1309  0.4170 -0.0581
  980MOL0     C29262   5.491   5.492   2.545  0.3647 -0.4399  0.3148
  980MOL0     O29263   5.357   5.512   2.495 -0.5778  0.3488  0.9358
  980MOL0     C29264   5.254   5.515   2.586  0.7044  0.5604  0.0348
  980MOL0     C29265   5.133   5.574   2.519  0.5965  0.9097  0.8023
  980MOL0     C29266   5.000   5.534   2.589 -1.5982  0.7506  0.2602
  980MOL0     C29267   4.880   5.571   2.503 -0.2517 -0.2017 -0.3410
  980MOL0     C29268   4.741   5.549   2.582  0.0182 -0.6977  0.7018
  980MOL0     C29269   4.624   5.578   2.490  0.2320  0.6254 -0.2906
  980MOL0     C29270   4.496   5.562   2.579  1.3556 -1.5942  0.7792
  980MOL0     C29271   4.462   5.700   2.660  0.4466 -0.3946  0.2646
  980MOL0    Cl29272   4.412   5.848   2.567  0.2677  0.0019 -0.4952
  980MOL0     C29273   5.604   5.527   2.467  0.3573 -0.3949  0.5483
  980MOL0     C29274   5.733   5.532   2.527 -0.0630  0.5492  0.1093
  980MOL0     O29275   5.974   5.353   2.595 -0.3037 -0.3006 -0.0777
  980MOL0     C29276   6.230   5.434   2.679 -0.0705  0.2076 -0.0953
  980MOL0     C29277   6.355   5.484   2.721 -0.8974 -0.2054  0.0138
  980MOL0     N29278   6.545   5.751   3.351 -0.0358  0.1542 -0.6981
  980MOL0     N29279   6.570   5.852   3.428  0.7117  0.2386  0.2391
  980MOL0     C29280   7.896   6.312   3.549 -0.3717  0.3729  0.3427
  980MOL0     C29281   8.025   6.354   3.504 -0.2643  0.2864 -0.8994
  980MOL0     C29282   8.358   6.371   3.193 -0.2971 -0.7625  0.2120
  980MOL0     C29283   8.415   6.298   3.090  0.2599  0.8153 -0.1227
  980MOL0     C29284   8.547   6.319   3.048 -0.5649 -0.9649 -0.2422
  980MOL0     C29285   8.620   6.422   3.099  0.7840 -0.9883 -0.0692
  980MOL0     O29286   8.744   6.455   3.070 -0.9876  0.3165  0.5428
  980MOL0     C29287   8.815   6.351   2.993 -0.2688 -0.4893  0.3141
  980MOL0     C29288   8.956   6.408   2.969 -0.0367  0.1594 -0.2068
  980MOL0     C29289   9.028   6.376   2.846  1.2374 -0.1778  0.3444
  980MOL0     C29290   9.168   6.423   2.844  0.3740 -0.1229 -1.0142
  980MOL0     C29291   9.250   6.329   2.926 -0.2419 -0.9592  0.6241
  980MOL0     C29292   9.329   6.268   2.990 -0.7505 -0.2469 -0.1061
  980MOL0     C29293   8.557   6.511   3.196 -0.5068 -0.0794  1.2724
  980MOL0     C29294   8.429   6.483   3.245 -0.6613  0.8112  1.2102
  980MOL0     H29295   7.956   6.448   3.183 -1.2249 -1.2145 -1.1082
  980MOL0     H29296   7.724   6.425   3.270 -0.6871 -1.3836  0.9101
  980MOL0     H29297   7.534   6.388   3.347 -1.2511  0.1123  0.2371
  980MOL0     H29298   7.576   6.507   3.470  1.5377 -0.8942  1.3819
  980MOL0     H29299   7.376   6.469   3.561  0.9045 -0.3910  1.7847
  980MOL0     H29300   7.450   6.331   3.639 -1.0557  0.0095  0.6691
  980MOL0     H29301   7.368   6.195   3.406 -3.9935 -1.3171 -0.7329
  980MOL0     H29302   7.290   6.348   3.375 -0.2308  0.3848 -0.0186
  980MOL0     H29303   7.230   6.173   3.618  1.8236  3.3299  2.7611
  980MOL0     H29304   7.176   6.324   3.619 -2.6185 -3.2239  1.8737
  980MOL0     H29305   7.102   6.158   3.368 -3.5503 -0.7605 -0.0185
  980MOL0     H29306   7.024   6.295   3.448  0.5138  1.0129 -1.4201
  980MOL0     H29307   6.954   6.143   3.632 -3.1300  2.3788 -3.1306
  980MOL0     H29308   7.066   6.015   3.560 -1.6021 -1.5484  0.0306
  980MOL0     H29309   6.799   6.148   3.446 -0.5267  0.8515  0.1617
  980MOL0     H29310   6.898   6.030   3.364 -2.2905 -1.0680 -0.2836
  980MOL0     H29311   6.716   5.999   3.589 -1.2729 -0.3756 -0.9223
  980MOL0     H29312   6.849   5.880   3.569 -0.8913  2.0917  2.1201
  980MOL0     H29313   6.866   5.801   3.306 -0.1379  0.4909  0.8248
  980MOL0     H29314   6.552   5.577   3.166 -1.3740  0.8300 -0.4767
  980MOL0     H29315   6.710   5.514   3.234 -3.4414  0.6150  4.3352
  980MOL0     H29316   6.704   5.526   2.996  2.9792 -0.1021 -1.3165
  980MOL0     H29317   6.832   5.622   3.059  0.2609 -1.0547  3.2953
  980MOL0     H29318   6.694   5.830   3.023 -2.9754  0.0991  2.5305
  980MOL0     H29319   6.727   5.759   2.875  0.3859  5.1135  1.1780
  980MOL0     H29320   6.500   5.828   2.869 -0.4129 -0.2536 -0.4826
  980MOL0     H29321   6.453   5.738   3.013  0.7341 -1.1745  0.3735
  980MOL0     H29322   6.265   5.769   2.899  0.6913  1.6249 -1.4428
  980MOL0     H29323   6.035   5.687   2.823 -0.3161 -0.9226  0.1501
  980MOL0     H29324   5.658   5.413   2.838  0.7591  1.7706  0.2253
  980MOL0     H29325   5.443   5.399   2.737 -0.8208 -0.5207 -1.4491
  980MOL0     H29326   5.275   5.567   2.680 -0.4823  0.7507  0.2083
  980MOL0     H29327   5.237   5.411   2.615 -0.4852  0.8549  0.4269
  980MOL0     H29328   5.121   5.536   2.417  1.4056  3.0085 -0.1480
  980MOL0     H29329   5.147   5.683   2.515  0.6532  0.8667 -2.2661
  980MOL0     H29330   4.995   5.594   2.680  0.2193  2.8169 -0.9038
  980MOL0     H29331   5.006   5.429   2.620  1.8750  0.7007 -0.1269
  980MOL0     H29332   4.884   5.668   2.451 -1.3547 -0.7193 -1.4317
  980MOL0     H29333   4.885   5.490   2.431 -2.0467 -1.1121  0.4893
  980MOL0     H29334   4.732   5.614   2.669 -1.8332  2.8325 -1.9141
  980MOL0     H29335   4.736   5.443   2.611 -1.8419 -1.1768 -1.1197
  980MOL0     H29336   4.625   5.507   2.406  0.1888 -1.5914  1.4958
  980MOL0     H29337   4.635   5.679   2.450  3.6020 -0.1692 -1.7433
  980MOL0     H29338   4.402   5.536   2.529  1.7754 -2.0853  0.2240
  980MOL0     H29339   4.513   5.482   2.651 -0.8973 -1.7690  1.1797
  980MOL0     H29340   4.545   5.723   2.728  3.4076  0.3494 -3.2899
  980MOL0     H29341   4.373   5.684   2.722  0.0048 -0.7769 -0.4509
  980MOL0     H29342   5.586   5.565   2.367 -0.0728  1.4992  1.2974
  980MOL0     H29343   5.812   5.574   2.465  0.9745  2.2596  2.4659
  980MOL0     H29344   6.225   5.351   2.609 -1.3592  0.6293 -0.5283
  980MOL0     H29345   6.447   5.432   2.695 -0.2874  1.3410 -1.1083
  980MOL0     H29346   7.879   6.255   3.640 -1.3445  0.3182  0.1405
  980MOL0     H29347   8.119   6.346   3.557  0.6108  2.3175 -2.0104
  980MOL0     H29348   8.356   6.233   3.026  2.4945  0.2707 -1.7555
  980MOL0     H29349   8.582   6.253   2.969 -1.0581 -1.2910 -0.1992
  980MOL0     H29350   8.777   6.351   2.890  0.0102 -0.8930  0.2079
  980MOL0     H29351   8.810   6.253   3.042 -0.8203 -1.2168 -1.1324
  980MOL0     H29352   8.942   6.517   2.965 -3.1124 -0.1513 -0.2855
  980MOL0     H29353   9.007   6.379   3.061 -1.4184 -1.0174  0.2164
  980MOL0     H29354   8.964   6.424   2.771  0.0636 -0.2849  1.2575
  980MOL0     H29355   9.025   6.268   2.828  1.5707  0.3888 -4.6045
  980MOL0     H29356   9.207   6.422   2.742  1.4448  0.7562 -0.6309
  980MOL0     H29357   9.178   6.515   2.902  0.7661 -1.2128  0.7205
  980MOL0     H29358   9.401   6.226   3.056 -0.9711 -0.3400  0.0766
  980MOL0     H29359   8.606   6.601   3.230 -2.7195  0.6842  2.5805
  980MOL0     H29360   8.383   6.557   3.309  0.7461  1.6471  1.2904
  981MOL0     O29361   5.099   5.583   4.021 -0.0777  0.2509  0.7731
  981MOL0     C29362   5.221   5.593   4.025  0.3930 -0.1953 -1.2062
  981MOL0     O29363   5.290   5.710   4.030  0.4692 -0.1300 -0.3798
  981MOL0     C29364   5.212   5.819   4.055 -0.2700 -0.6448  0.1694
  981MOL0     C29365   5.202   5.863   4.192 -1.0190 -0.6917 -0.5921
  981MOL0     C29366   5.135   5.988   4.212 -0.2236 -0.2601  0.6484
  981MOL0     C29367   5.066   6.054   4.111  0.3128 -1.0930  1.4303
  981MOL0     O29368   4.976   6.159   4.144  0.0190 -0.1021 -0.1404
  981MOL0     C29369   4.957   6.262   4.051 -0.3125 -0.6863 -0.0297
  981MOL0     C29370   4.865   6.374   4.103  0.0024 -0.1520  0.0706
  981MOL0     C29371   4.720   6.335   4.138  0.1445 -0.2578 -0.7040
  981MOL0     C29372   4.613   6.418   4.072  0.1187  0.8479  0.1450
  981MOL0     C29373   4.476   6.384   4.137 -0.2743 -0.7990 -1.2244
  981MOL0     C29374   4.460   6.433   4.278 -0.6414 -0.3077  0.0117
  981MOL0     C29375   4.328   6.368   4.349 -0.3010  0.2599  0.1754
  981MOL0     C29376   4.275   6.438   4.469 -0.5537 -0.4989  0.9913
  981MOL0     N29377   4.362   6.445   4.592 -0.3815  0.3488  0.7999
  981MOL0     C29378   4.500   6.498   4.606 -0.3929 -0.0114 -0.2778
  981MOL0     C29379   4.555   6.437   4.714 -0.5772 -0.8568 -0.6038
  981MOL0     C29380   4.699   6.455   4.774  1.1410 -0.2966  0.8297
  981MOL0     C29381   4.724   6.370   4.895 -0.4627 -0.8106  0.4246
  981MOL0     C29382   4.715   6.220   4.861  1.1838  0.0432 -0.6146
  981MOL0     C29383   4.847   6.148   4.827  0.3936 -1.0000 -0.3693
  981MOL0     O29384   4.930   6.133   4.949  0.0812  0.1444 -0.9389
  981MOL0     C29385   5.024   6.033   4.954  0.7460 -0.4458  0.1970
  981MOL0     C29386   5.065   5.962   4.842  0.0241  1.1147  0.0714
  981MOL0     C29387   5.163   5.861   4.859 -0.0053  0.2331 -0.1241
  981MOL0     C29388   5.229   5.837   4.986  0.2509 -0.8286 -0.3743
  981MOL0     C29389   5.347   5.754   4.998 -0.2006  0.2148  0.9161
  981MOL0     O29390   5.388   5.672   4.884  0.3640 -0.6855 -0.4844
  981MOL0     C29391   5.520   5.621   4.888  1.2899 -0.1636  0.4284
  981MOL0     C29392   5.546   5.496   4.847  0.8736  0.3483 -0.4306
  981MOL0     C29393   5.668   5.438   4.861  0.1515 -0.1449  0.4954
  981MOL0     C29394   5.785   5.515   4.902  0.2473  0.5047  0.0889
  981MOL0     O29395   5.902   5.458   4.926 -0.3212  0.0661  0.0256
  981MOL0     C29396   5.914   5.318   4.957  0.2203 -1.1248 -0.0974
  981MOL0     C29397   5.946   5.227   4.833  1.4665 -0.2885 -0.3138
  981MOL0     C29398   6.083   5.268   4.765  0.1083  1.3008  0.4512
  981MOL0     C29399   6.139   5.162   4.665  0.3324  0.2767  0.0843
  981MOL0     C29400   6.274   5.199   4.614  0.4100  0.5787  0.3730
  981MOL0     C29401   6.333   5.081   4.532 -0.0406  0.7934 -0.8608
  981MOL0     C29402   6.463   5.140   4.492  0.3117  0.4422  0.4011
  981MOL0     C29403   6.568   5.054   4.418 -1.0821 -0.1335  0.3640
  981MOL0    Cl29404   6.560   4.887   4.478  0.0696  0.0910  0.2868
  981MOL0     C29405   5.756   5.648   4.920  0.6207  0.5381  0.6064
  981MOL0     C29406   5.632   5.710   4.915  0.7122  0.2419 -0.2423
  981MOL0     O29407   5.407   5.773   5.105  0.2138  0.3562 -0.0875
  981MOL0     C29408   5.177   5.908   5.096  0.5533 -0.4404  0.6420
  981MOL0     C29409   5.081   6.010   5.076  0.3690  0.3796  0.1653
  981MOL0     N29410   4.465   6.347   4.766 -0.2216  0.6750  0.2945
  981MOL0     N29411   4.352   6.355   4.695  1.3546  0.4925 -0.1566
  981MOL0     C29412   5.071   6.006   3.979  0.0940  0.0040  0.4295
  981MOL0     C29413   5.143   5.896   3.952  0.0127  0.9956  0.2251
  981MOL0     C29414   5.290   5.461   3.995  0.2363 -0.9461 -0.3013
  981MOL0     C29415   5.425   5.445   4.016 -0.0167  0.4596  0.8961
  981MOL0     C29416   5.494   5.327   3.967  0.2932 -0.0077 -1.0186
  981MOL0     C29417   5.425   5.226   3.916  0.1717  0.0582 -0.0984
  981MOL0     O29418   5.485   5.114   3.865 -0.0651 -0.4375  0.4135
  981MOL0     C29419   5.633   5.112   3.843 -0.0273 -0.1465 -1.4853
  981MOL0     C29420   5.674   4.968   3.804  0.3898 -0.8134 -0.4088
  981MOL0     C29421   5.806   4.959   3.733 -0.7135  0.6239 -0.0741
  981MOL0     C29422   5.797   4.842   3.631 -0.0049 -0.4495  0.7297
  981MOL0     C29423   5.929   4.839   3.561 -0.1756  0.6786 -0.1580
  981MOL0     C29424   6.039   4.845   3.506 -0.1321  1.1951 -0.0359
  981MOL0     C29425   5.287   5.229   3.903 -0.2042  0.4403  0.4570
  981MOL0     C29426   5.220   5.349   3.941 -0.3314  0.4244 -0.3696
  981MOL0     H29427   5.259   5.810   4.268  0.1891 -1.3226 -1.9119
  981MOL0     H29428   5.131   6.015   4.317 -1.0391 -0.2821  0.6297
  981MOL0     H29429   4.916   6.215   3.961  3.4184 -2.5851 -0.9463
  981MOL0     H29430   5.049   6.315   4.023  0.1372 -1.3319  0.2015
  981MOL0     H29431   4.868   6.450   4.024  1.1712  0.5380  0.7358
  981MOL0     H29432   4.909   6.415   4.195  1.7930 -0.2447 -0.7026
  981MOL0     H29433   4.722   6.335   4.247  1.5812  1.2510 -0.6907
  981MOL0     H29434   4.705   6.231   4.107  3.8421 -1.1697  0.1140
  981MOL0     H29435   4.627   6.526   4.079  0.2342  0.7997  0.8138
  981MOL0     H29436   4.610   6.399   3.965 -1.4969  1.9384 -0.0285
  981MOL0     H29437   4.459   6.276   4.128 -2.1519 -0.3692 -3.9551
  981MOL0     H29438   4.402   6.436   4.077 -0.5152 -0.2923 -0.5029
  981MOL0     H29439   4.453   6.542   4.277  1.3685 -0.1082  1.1920
  981MOL0     H29440   4.545   6.411   4.344  0.7788 -0.8939 -1.9051
  981MOL0     H29441   4.247   6.350   4.277 -2.5741  0.0202  2.6499
  981MOL0     H29442   4.356   6.267   4.378 -1.1807  0.4135  1.6475
  981MOL0     H29443   4.181   6.392   4.502  0.7223 -2.1412  2.5396
  981MOL0     H29444   4.256   6.542   4.443  1.0112 -0.3049  0.5406
  981MOL0     H29445   4.546   6.571   4.540  2.9197  2.5357  4.2613
  981MOL0     H29446   4.711   6.563   4.792 -1.6359  0.6288 -1.9863
  981MOL0     H29447   4.754   6.417   4.688 -1.5104 -2.2339 -0.1270
  981MOL0     H29448   4.664   6.401   4.981  1.0312  4.8453 -0.1681
  981MOL0     H29449   4.826   6.387   4.930 -0.7612  3.7215 -0.2879
  981MOL0     H29450   4.677   6.172   4.952 -1.1969 -0.7454 -1.9662
  981MOL0     H29451   4.641   6.197   4.784 -0.0079 -1.3907  0.8736
  981MOL0     H29452   4.897   6.219   4.760 -1.5309  2.0716  1.2153
  981MOL0     H29453   4.827   6.054   4.775 -3.3515  0.1249 -1.2452
  981MOL0     H29454   5.029   5.973   4.740 -0.5806 -0.6817  0.0542
  981MOL0     H29455   5.200   5.800   4.777 -1.9024  0.3209 -1.0968
  981MOL0     H29456   5.451   5.452   4.817 -0.0596  2.6346 -1.0539
  981MOL0     H29457   5.680   5.332   4.844 -1.0931 -0.2171  0.0057
  981MOL0     H29458   5.826   5.286   5.014 -0.5635  0.7716 -0.1489
  981MOL0     H29459   6.001   5.297   5.019  2.0724  1.0629 -1.7552
  981MOL0     H29460   5.867   5.249   4.760 -0.7108  1.0598  2.2805
  981MOL0     H29461   5.942   5.121   4.858  1.8360  0.1127  1.6113
  981MOL0     H29462   6.151   5.280   4.850  1.7085  1.5239 -0.8054
  981MOL0     H29463   6.087   5.367   4.719 -0.2872  1.0061 -0.2239
  981MOL0     H29464   6.138   5.068   4.720 -2.3638 -1.0761 -2.0051
  981MOL0     H29465   6.069   5.142   4.583 -3.3304  2.1433  2.4977
  981MOL0     H29466   6.332   5.221   4.704  0.4511 -1.8544  0.9996
  981MOL0     H29467   6.272   5.287   4.549  0.0081  0.1194 -0.2374
  981MOL0     H29468   6.270   5.057   4.446  1.5613 -0.9234 -1.6218
  981MOL0     H29469   6.337   4.991   4.594  2.3555  1.0692 -0.5045
  981MOL0     H29470   6.445   5.233   4.437 -2.3947 -1.3231 -1.9472
  981MOL0     H29471   6.516   5.173   4.582  0.0254  2.7218 -0.2064
  981MOL0     H29472   6.667   5.098   4.429 -1.6498  1.4802 -0.7770
  981MOL0     H29473   6.539   5.073   4.314 -1.4098 -1.3936  0.2074
  981MOL0     H29474   5.850   5.702   4.928  0.2966  1.3868 -0.9941
  981MOL0     H29475   5.625   5.817   4.933 -2.7790  0.6972 -3.0758
  981MOL0     H29476   5.221   5.905   5.195  1.4815 -0.9449  0.2312
  981MOL0     H29477   5.053   6.067   5.164  2.1565  0.8873  0.4384
  981MOL0     H29478   5.032   6.048   3.887 -0.1202  1.4383  1.1524
  981MOL0     H29479   5.137   5.861   3.849 -3.9603  0.0622  0.6212
  981MOL0     H29480   5.474   5.522   4.075 -3.5568  3.2722  0.5567
  981MOL0     H29481   5.602   5.325   3.979  0.4409 -0.1229 -2.1987
  981MOL0     H29482   5.669   5.136   3.944 -2.4342 -0.1833 -0.5536
  981MOL0     H29483   5.677   5.179   3.769  1.9051  0.1908 -0.1119
  981MOL0     H29484   5.650   4.906   3.891 -0.8028 -2.0816 -1.5878
  981MOL0     H29485   5.598   4.937   3.732  2.0918 -0.2867 -2.5351
  981MOL0     H29486   5.885   4.944   3.807  0.7780  1.2028 -1.4796
  981MOL0     H29487   5.834   5.052   3.681  0.2459  1.0119  1.0844
  981MOL0     H29488   5.751   4.748   3.664 -2.4298  0.6235  0.6020
  981MOL0     H29489   5.724   4.869   3.554  1.8116  4.4731  0.4118
  981MOL0     H29490   6.138   4.865   3.470  0.6986 -0.0691  1.4519
  981MOL0     H29491   5.234   5.143   3.864 -0.7264 -0.8194  3.6125
  981MOL0     H29492   5.111   5.351   3.932 -0.2967  0.8117 -0.8121
  982MOL0     O29493   8.254   4.831  10.450 -0.0290 -0.0553  0.6489
  982MOL0     C29494   8.173   4.925  10.453 -0.6599 -0.5542 -0.8298
  982MOL0     O29495   8.047   4.917  10.497  0.0615  0.3072 -0.3324
  982MOL0     C29496   7.987   4.796  10.469 -0.1155 -0.5678  0.1184
  982MOL0     C29497   8.022   4.692  10.381 -0.0051  0.0382  0.7524
  982MOL0     C29498   7.940   4.581  10.354  0.5963 -0.5992  0.2690
  982MOL0     C29499   7.808   4.584  10.415 -0.1005 -0.7562 -0.3432
  982MOL0     O29500   7.706   4.493  10.388  0.6051 -0.8994  0.2768
  982MOL0     C29501   7.689   4.456  10.251  1.0498  0.2021 -0.1448
  982MOL0     C29502   7.562   4.372  10.235 -0.8822 -0.0818 -0.3710
  982MOL0     C29503   7.552   4.258  10.334 -0.1089 -0.7999 -0.2825
  982MOL0     C29504   7.643   4.134  10.289  0.9380 -0.2338 -0.8538
  982MOL0     C29505   7.638   4.030  10.400 -0.1762  0.7134 -0.4156
  982MOL0     C29506   7.690   4.057  10.534  0.5114  0.9540  0.0694
  982MOL0     C29507   7.833   4.097  10.539 -0.6500 -0.1025  0.4837
  982MOL0     C29508   7.860   4.216  10.627  0.3627  0.7985 -0.3968
  982MOL0     N29509   7.994   4.236  10.652 -0.7794 -1.0369 -0.2330
  982MOL0     C29510   8.055   4.361  10.649  0.8340  0.0235 -0.7003
  982MOL0     C29511   8.166   4.336  10.726  0.1157 -0.0250  0.2659
  982MOL0     C29512   8.265   4.443  10.748 -0.3300  0.9476 -0.8571
  982MOL0     C29513   8.310   4.442  10.891 -0.5012  0.7163 -0.5167
  982MOL0     C29514   8.396   4.562  10.926  0.0140 -0.6650  0.3435
  982MOL0     C29515   8.546   4.548  10.885 -0.5273 -0.2961 -0.1289
  982MOL0     O29516   8.620   4.669  10.935  0.0084 -0.1037  0.2608
  982MOL0     C29517   8.628   4.789  10.879 -0.8643 -0.0902 -0.2350
  982MOL0     C29518   8.727   4.881  10.941 -0.2493  0.2115 -0.0941
  982MOL0     C29519   8.757   4.999  10.885  0.6749  0.1914  0.9826
  982MOL0     C29520   8.688   5.038  10.765 -1.1014 -0.8644 -0.8012
  982MOL0     C29521   8.744   5.155  10.696 -0.3717 -0.5971  0.0685
  982MOL0     O29522   8.687   5.199  10.583 -0.1964  0.1844 -0.0834
  982MOL0     C29523   8.754   5.294  10.511 -0.4855 -0.4677  0.2741
  982MOL0     C29524   8.841   5.259  10.413 -0.0869  0.1518  0.6241
  982MOL0     C29525   8.897   5.358  10.332 -0.4102  0.0869 -0.4276
  982MOL0     C29526   8.873   5.493  10.342 -0.0916  0.2413  0.7732
  982MOL0     O29527   8.937   5.574  10.256 -0.4186 -0.0258 -0.0801
  982MOL0     C29528   8.851   5.623  10.159 -0.2377 -0.6234  0.4165
  982MOL0     C29529   8.924   5.741  10.090 -0.0413 -0.3883 -0.1119
  982MOL0     C29530   9.030   5.698   9.989  0.0796  0.8401  0.2010
  982MOL0     C29531   9.071   5.809   9.894  0.3204 -0.2528 -0.0268
  982MOL0     C29532   9.140   5.925   9.948  0.9122 -0.3755 -1.2942
  982MOL0     C29533   9.261   5.876  10.043 -0.2488  0.1405 -0.9411
  982MOL0     C29534   9.354   5.980  10.077 -0.1535  0.3954  0.3306
  982MOL0     C29535   9.280   6.092  10.156  0.3153 -0.3945  0.0409
  982MOL0    Cl29536   9.394   6.224  10.200 -0.5560  0.1991  0.4410
  982MOL0     C29537   8.782   5.531  10.430 -0.0376 -0.2049 -0.8211
  982MOL0     C29538   8.726   5.432  10.520 -0.3870 -0.1434  0.3698
  982MOL0     O29539   8.849   5.198  10.747  0.2599  0.2825  0.8489
  982MOL0     C29540   8.580   4.963  10.710 -0.1365  0.1661  0.3923
  982MOL0     C29541   8.561   4.835  10.759  0.6979  0.4485 -0.6811
  982MOL0     N29542   8.172   4.214  10.779  0.1243 -0.1326 -0.2663
  982MOL0     N29543   8.065   4.163  10.738  0.1999 -0.7796 -0.8073
  982MOL0     C29544   7.779   4.680  10.508  0.7717 -0.2163  0.2051
  982MOL0     C29545   7.864   4.784  10.532  0.0479  0.3620  0.4046
  982MOL0     C29546   8.226   5.056  10.400  0.6191  0.0543  0.4850
  982MOL0     C29547   8.132   5.158  10.352  0.5038  0.1491 -0.0338
  982MOL0     C29548   8.178   5.291  10.326  1.0523 -0.2310 -0.0304
  982MOL0     C29549   8.309   5.328  10.353 -1.4509 -0.6323 -0.3060
  982MOL0     O29550   8.376   5.448  10.348 -0.6732 -0.4016  0.8867
  982MOL0     C29551   8.322   5.566  10.290 -0.2912 -0.1331 -1.0345
  982MOL0     C29552   8.428   5.674  10.266 -1.0104 -0.3479  0.5035
  982MOL0     C29553   8.364   5.809  10.263 -1.3012  0.2048  0.1192
  982MOL0     C29554   8.359   5.877  10.397 -0.2826  0.3711  0.2118
  982MOL0     C29555   8.229   5.846  10.466  0.2949  0.7473  0.2330
  982MOL0     C29556   8.130   5.817  10.531 -0.8361 -0.4186  0.1455
  982MOL0     C29557   8.400   5.228  10.383 -0.1767 -0.1969  0.5799
  982MOL0     C29558   8.358   5.097  10.403 -0.1568 -1.1211 -0.3779
  982MOL0     H29559   8.113   4.699  10.321 -0.0486 -4.4762 -0.2209
  982MOL0     H29560   7.956   4.499  10.285 -2.9557 -2.0752  0.9852
  982MOL0     H29561   7.769   4.387  10.219  0.0341 -1.9985  1.7671
  982MOL0     H29562   7.688   4.533  10.174  1.5990 -0.9149 -1.3178
  982MOL0     H29563   7.563   4.335  10.131 -0.3004 -0.6832 -0.1631
  982MOL0     H29564   7.474   4.436  10.244 -1.4555 -1.0904  1.8140
  982MOL0     H29565   7.449   4.223  10.340 -0.2906 -0.3086 -0.4863
  982MOL0     H29566   7.570   4.292  10.436  0.0562 -1.6837 -0.0116
  982MOL0     H29567   7.603   4.093  10.196  3.1100 -0.2254 -1.8406
  982MOL0     H29568   7.747   4.159  10.267  1.4050 -1.6868 -0.4163
  982MOL0     H29569   7.695   3.945  10.362 -1.8629  0.4217 -2.4564
  982MOL0     H29570   7.533   4.003  10.414 -0.8498  2.4245 -1.8621
  982MOL0     H29571   7.684   3.965  10.593 -0.0930  1.6355  1.1102
  982MOL0     H29572   7.627   4.126  10.591 -0.4382 -0.1686  0.4220
  982MOL0     H29573   7.894   4.011  10.568 -1.1941 -0.8329 -0.5072
  982MOL0     H29574   7.860   4.127  10.437 -0.2035 -0.6721  0.4303
  982MOL0     H29575   7.799   4.198  10.716  0.9825  3.5350  0.6952
  982MOL0     H29576   7.819   4.296  10.564  0.0873 -0.7966 -2.3035
  982MOL0     H29577   8.019   4.447  10.595  1.3607 -1.6584 -4.0153
  982MOL0     H29578   8.225   4.542  10.726 -0.2132  0.7005 -2.2763
  982MOL0     H29579   8.351   4.420  10.684 -0.6908 -1.9480 -0.4516
  982MOL0     H29580   8.351   4.348  10.929  0.7696  1.1661 -0.7192
  982MOL0     H29581   8.226   4.468  10.956  0.7863 -0.1871  1.6054
  982MOL0     H29582   8.356   4.658  10.893  0.0335 -1.1251 -1.0635
  982MOL0     H29583   8.409   4.554  11.035  3.0814 -1.1856  0.0213
  982MOL0     H29584   8.558   4.556  10.777 -0.1075  1.5722  0.0215
  982MOL0     H29585   8.582   4.451  10.921 -1.3002  0.3365  2.6816
  982MOL0     H29586   8.784   4.864  11.032  0.4463  0.9148 -0.3937
  982MOL0     H29587   8.833   5.062  10.931  0.3699  1.8191 -0.6250
  982MOL0     H29588   8.865   5.154  10.401  1.3930  0.6961 -1.8140
  982MOL0     H29589   8.963   5.326  10.251 -1.1416 -1.2237 -0.5343
  982MOL0     H29590   8.762   5.666  10.204 -0.3121 -0.3113 -0.0286
  982MOL0     H29591   8.816   5.556  10.080 -2.4252  1.7595 -0.7646
  982MOL0     H29592   8.976   5.813  10.154  2.2313  0.1425 -2.4014
  982MOL0     H29593   8.844   5.788  10.032 -1.8129  1.3951  3.4014
  982MOL0     H29594   8.987   5.626   9.919  0.3185 -0.0462  0.9351
  982MOL0     H29595   9.116   5.659  10.045  0.9847 -1.0474 -2.3176
  982MOL0     H29596   9.145   5.779   9.819  2.2983  1.4486  1.1622
  982MOL0     H29597   8.978   5.848   9.851  0.5656  0.6462  0.2315
  982MOL0     H29598   9.070   5.993   9.998  0.6764 -0.2233 -1.8248
  982MOL0     H29599   9.183   5.986   9.868  1.9792  1.7602  0.7725
  982MOL0     H29600   9.308   5.800   9.979 -1.9552  1.5166 -4.0702
  982MOL0     H29601   9.217   5.838  10.135  0.6361  2.5477  0.5602
  982MOL0     H29602   9.418   5.928  10.149 -1.9338 -1.3091  0.7542
  982MOL0     H29603   9.413   6.022   9.995  0.9048 -0.3581  0.6828
  982MOL0     H29604   9.234   6.054  10.248 -0.4622 -0.5432 -0.4003
  982MOL0     H29605   9.198   6.133  10.097  0.3177 -3.1777 -2.0904
  982MOL0     H29606   8.744   5.632  10.432  0.3598 -0.0600 -0.4183
  982MOL0     H29607   8.654   5.459  10.596 -1.0402 -0.7700 -0.0214
  982MOL0     H29608   8.525   4.979  10.618 -1.0834  0.4259  0.9925
  982MOL0     H29609   8.487   4.769  10.716  0.9241 -2.1678  2.5284
  982MOL0     H29610   7.683   4.680  10.559  1.5904  0.3939  1.8384
  982MOL0     H29611   7.842   4.861  10.605 -1.7264 -0.5151  0.8402
  982MOL0     H29612   8.026   5.140  10.334 -0.3179  0.3797  3.7124
  982MOL0     H29613   8.107   5.368  10.297  1.4937 -0.0498 -0.6264
  982MOL0     H29614   8.234   5.596  10.348  0.4928  0.7708 -0.2917
  982MOL0     H29615   8.289   5.543  10.188 -4.4952  0.8820 -0.1108
  982MOL0     H29616   8.510   5.665  10.338 -1.3159  2.1874  1.2785
  982MOL0     H29617   8.472   5.642  10.171  1.1325  0.3335  1.2265
  982MOL0     H29618   8.266   5.801  10.215 -1.7261 -2.4909  1.2617
  982MOL0     H29619   8.423   5.873  10.198 -1.9345 -0.3317 -1.0123
  982MOL0     H29620   8.442   5.845  10.461 -2.1065 -0.7211  2.1020
  982MOL0     H29621   8.366   5.984  10.375 -0.3135  0.8047  2.2073
  982MOL0     H29622   8.035   5.814  10.582 -1.2247 -0.5895 -0.5696
  982MOL0     H29623   8.506   5.247  10.388  0.2624 -1.3309 -2.4153
  982MOL0     H29624   8.444   5.031  10.414  1.9165  1.4919 -0.1370
  983MOL0     O29625   5.469   4.208   6.259 -0.4754 -0.3921 -0.8474
  983MOL0     C29626   5.525   4.198   6.373 -0.1707  0.1021  0.3373
  983MOL0     O29627   5.573   4.295   6.451 -0.2301 -0.1297 -0.4770
  983MOL0     C29628   5.589   4.418   6.386 -0.0702 -0.5645 -0.1105
  983MOL0     C29629   5.704   4.475   6.355 -0.4514  0.7318  0.0435
  983MOL0     C29630   5.703   4.608   6.307 -0.6600 -0.3954 -0.7826
  983MOL0     C29631   5.590   4.682   6.274 -0.2027 -0.9670 -0.7251
  983MOL0     O29632   5.599   4.810   6.225 -0.6196  0.1122  0.5406
  983MOL0     C29633   5.517   4.902   6.295  0.9273 -1.0955  0.7446
  983MOL0     C29634   5.535   5.050   6.251  0.3541  0.7637 -0.4440
  983MOL0     C29635   5.481   5.142   6.362  1.3059 -0.4656  0.0606
  983MOL0     C29636   5.329   5.128   6.377  0.2993  0.0482 -0.4377
  983MOL0     C29637   5.242   5.191   6.255  0.7498  1.1702 -0.5707
  983MOL0     C29638   5.095   5.163   6.306 -0.4061 -0.1534  0.1797
  983MOL0     C29639   4.990   5.146   6.191  0.3683  0.6093 -0.4619
  983MOL0     C29640   5.012   5.034   6.095 -0.1593 -0.3005  0.8426
  983MOL0     N29641   5.009   4.905   6.161  1.0321  0.2503 -0.0949
  983MOL0     C29642   4.911   4.814   6.150 -0.1168 -0.5568  0.6780
  983MOL0     C29643   4.946   4.695   6.218  0.0439  0.3971  0.5738
  983MOL0     C29644   4.866   4.571   6.241  0.7714 -0.1897  0.4609
  983MOL0     C29645   4.899   4.515   6.387  0.2612 -0.5112  0.8167
  983MOL0     C29646   4.821   4.393   6.427  0.0633  0.5165 -0.1857
  983MOL0     C29647   4.874   4.301   6.541 -1.1753  0.4504  0.5778
  983MOL0     O29648   4.954   4.372   6.636 -0.7536  0.7666  0.7302
  983MOL0     C29649   4.980   4.305   6.747 -0.2433 -1.1534 -0.7695
  983MOL0     C29650   5.054   4.376   6.847 -0.5944  0.8935 -0.3265
  983MOL0     C29651   5.095   4.308   6.965 -0.0942 -0.9687 -0.0696
  983MOL0     C29652   5.065   4.168   6.981  0.2466 -0.3306 -1.0214
  983MOL0     C29653   5.101   4.099   7.107  0.0683 -0.1843 -0.9018
  983MOL0     O29654   5.181   4.164   7.190  0.0331  0.5408  0.0597
  983MOL0     C29655   5.192   4.116   7.323  0.1119 -0.0123 -0.0410
  983MOL0     C29656   5.317   4.133   7.367 -0.8873 -0.1265 -0.6255
  983MOL0     C29657   5.366   4.092   7.490 -0.2189  0.6576  0.2060
  983MOL0     C29658   5.273   4.037   7.577  0.1495 -0.2548 -0.6766
  983MOL0     O29659   5.327   3.986   7.683 -0.5542 -0.7148 -0.8448
  983MOL0     C29660   5.327   3.848   7.702 -0.6759 -0.0967  0.0953
  983MOL0     C29661   5.202   3.796   7.772  0.0527 -0.1085 -0.1978
  983MOL0     C29662   5.203   3.855   7.916  0.3109 -0.2377 -0.5745
  983MOL0     C29663   5.257   3.762   8.025  0.0295  0.7789  0.0075
  983MOL0     C29664   5.182   3.619   8.045 -0.5267  0.5142  1.5702
  983MOL0     C29665   5.265   3.541   8.148 -0.0115  0.4300 -0.1310
  983MOL0     C29666   5.219   3.399   8.170 -0.0968 -0.3625  0.2982
  983MOL0     C29667   5.254   3.331   8.298  0.2107  0.4891  0.3924
  983MOL0    Cl29668   5.163   3.406   8.420 -0.5029 -0.0610 -0.4596
  983MOL0     C29669   5.141   4.023   7.539 -0.1787  0.1310  0.6622
  983MOL0     C29670   5.098   4.071   7.411  0.0988  0.7460 -0.5342
  983MOL0     O29671   5.046   3.992   7.126  0.7731 -0.5753  0.0135
  983MOL0     C29672   4.993   4.095   6.880 -0.3923 -0.4806 -0.3334
  983MOL0     C29673   4.947   4.170   6.769  0.4890  0.3346 -0.3908
  983MOL0     N29674   5.067   4.723   6.262 -0.0074  0.3764  0.9168
  983MOL0     N29675   5.110   4.839   6.227  0.0584  0.1515 -0.5571
  983MOL0     C29676   5.469   4.622   6.294  0.3788  0.3509 -0.3741
  983MOL0     C29677   5.467   4.491   6.349  0.0153  0.0320  0.0071
  983MOL0     C29678   5.540   4.059   6.424 -0.0181  0.4569  0.5506
  983MOL0     C29679   5.615   4.033   6.540  0.6545 -1.0926  0.3053
  983MOL0     C29680   5.646   3.899   6.579  1.4970 -0.2826  0.7261
  983MOL0     C29681   5.590   3.790   6.506  0.2085 -0.1897 -0.2985
  983MOL0     O29682   5.606   3.654   6.541  0.1306 -0.4147  0.1355
  983MOL0     C29683   5.656   3.621   6.669  0.1801 -0.6928  0.2587
  983MOL0     C29684   5.811   3.626   6.694  0.5837  0.7674  0.0832
  983MOL0     C29685   5.887   3.506   6.627  0.6597 -0.4927 -0.4701
  983MOL0     C29686   6.038   3.515   6.624 -0.2795  0.6874 -0.4409
  983MOL0     C29687   6.079   3.601   6.505  0.1131 -0.4917 -0.0889
  983MOL0     C29688   6.106   3.679   6.416  0.3334  0.0516 -0.3449
  983MOL0     C29689   5.517   3.821   6.393 -0.0859  0.7204 -0.0647
  983MOL0     C29690   5.493   3.950   6.356 -0.7190 -0.4230  0.1330
  983MOL0     H29691   5.801   4.427   6.353 -0.9030 -0.2067 -2.1358
  983MOL0     H29692   5.792   4.670   6.297 -1.5919  1.0414 -0.4763
  983MOL0     H29693   5.538   4.896   6.402 -0.4603 -1.0062  1.0439
  983MOL0     H29694   5.413   4.870   6.278  0.4420  0.1069  1.3915
  983MOL0     H29695   5.486   5.064   6.154  2.0174  1.7322 -1.1885
  983MOL0     H29696   5.641   5.067   6.232  0.3850  0.7744 -0.2639
  983MOL0     H29697   5.498   5.250   6.353 -1.1398  0.0875  1.1299
  983MOL0     H29698   5.533   5.111   6.453  0.8432  0.3224  0.6090
  983MOL0     H29699   5.300   5.023   6.386 -0.5683  0.1214 -1.9632
  983MOL0     H29700   5.316   5.183   6.470 -0.4843 -3.6658  1.8809
  983MOL0     H29701   5.261   5.142   6.159  1.9810  1.5331 -0.5206
  983MOL0     H29702   5.267   5.296   6.237  2.8637  0.7623 -0.2500
  983MOL0     H29703   5.055   5.243   6.369  1.7258  1.0380  0.0991
  983MOL0     H29704   5.084   5.071   6.364 -1.2417  0.6875  1.3881
  983MOL0     H29705   4.888   5.141   6.229  0.1974 -1.2934 -1.0770
  983MOL0     H29706   4.982   5.240   6.135  1.9486 -0.2512 -2.2531
  983MOL0     H29707   5.105   5.034   6.038 -1.9909  2.6734 -2.5544
  983MOL0     H29708   4.932   5.039   6.020  1.1372 -0.5715 -0.6072
  983MOL0     H29709   4.819   4.810   6.093  0.4322  1.6119 -0.4731
  983MOL0     H29710   4.893   4.499   6.163 -0.4616  1.3649 -1.4895
  983MOL0     H29711   4.759   4.589   6.232  0.2697 -1.0151  3.5051
  983MOL0     H29712   4.876   4.591   6.462 -2.8180  1.4739 -1.8754
  983MOL0     H29713   5.007   4.502   6.389  0.2773 -0.4083  0.6568
  983MOL0     H29714   4.723   4.434   6.455  0.3895  1.0802  0.1404
  983MOL0     H29715   4.793   4.335   6.338  0.7981 -0.9172  0.4981
  983MOL0     H29716   4.935   4.226   6.490  2.6562  3.2502  0.5902
  983MOL0     H29717   4.789   4.246   6.582 -0.2560 -0.4937  1.3065
  983MOL0     H29718   5.072   4.483   6.845  2.5219  0.4632  0.2680
  983MOL0     H29719   5.139   4.363   7.048  0.7111 -0.7563 -0.6196
  983MOL0     H29720   5.373   4.189   7.293  0.9432  2.1199  2.2405
  983MOL0     H29721   5.474   4.097   7.506  0.1326  1.3553 -2.0126
  983MOL0     H29722   5.420   3.815   7.750 -0.3861 -0.1453 -0.4893
  983MOL0     H29723   5.321   3.807   7.601 -1.0114  1.6968 -0.6511
  983MOL0     H29724   5.207   3.687   7.776 -1.7632 -0.2097  0.4194
  983MOL0     H29725   5.109   3.814   7.717  0.3635 -1.3244 -1.1716
  983MOL0     H29726   5.101   3.882   7.946  0.6198 -0.4728  0.7460
  983MOL0     H29727   5.248   3.954   7.911  1.8413 -0.8619  0.2027
  983MOL0     H29728   5.363   3.752   8.001 -0.4122 -0.9991 -1.4092
  983MOL0     H29729   5.228   3.811   8.119 -0.3504 -0.8466  0.7758
  983MOL0     H29730   5.194   3.575   7.945  1.9316  1.0284  1.5776
  983MOL0     H29731   5.074   3.624   8.063 -1.5191 -0.2978 -2.8040
  983MOL0     H29732   5.243   3.594   8.242  1.9765  0.8603  0.1296
  983MOL0     H29733   5.373   3.544   8.131 -0.0865  1.6235 -0.4853
  983MOL0     H29734   5.111   3.398   8.159 -0.3978  1.6266  2.2760
  983MOL0     H29735   5.269   3.334   8.097  1.4097 -1.4153  2.1611
  983MOL0     H29736   5.362   3.341   8.311  0.1089 -0.4756  2.2558
  983MOL0     H29737   5.227   3.225   8.294  1.8208  0.0275  1.1430
  983MOL0     H29738   5.067   3.982   7.607 -0.6417  2.3469  1.5923
  983MOL0     H29739   4.993   4.075   7.384 -0.0313  0.8756 -0.0181
  983MOL0     H29740   4.974   3.988   6.888  0.9332 -0.6422  1.0426
  983MOL0     H29741   4.908   4.101   6.695  1.6943 -0.0536 -0.6944
  983MOL0     H29742   5.377   4.656   6.247 -0.3376 -1.4003 -0.3064
  983MOL0     H29743   5.373   4.438   6.358  0.3385 -0.3270  1.4528
  983MOL0     H29744   5.654   4.120   6.593  1.4621 -0.5456 -1.1318
  983MOL0     H29745   5.702   3.885   6.671  0.8460  0.8171  1.3162
  983MOL0     H29746   5.612   3.522   6.683 -3.8758  0.2630 -3.4471
  983MOL0     H29747   5.610   3.683   6.746  0.2822  3.1402 -2.4872
  983MOL0     H29748   5.837   3.727   6.660 -3.1173  1.4086 -1.2942
  983MOL0     H29749   5.814   3.609   6.803 -2.5407 -3.1926 -0.2304
  983MOL0     H29750   5.849   3.498   6.524 -2.2024 -0.7878  0.5122
  983MOL0     H29751   5.850   3.412   6.670 -2.7864  0.8947 -0.0234
  983MOL0     H29752   6.070   3.556   6.720 -1.2004  2.3650 -0.8112
  983MOL0     H29753   6.087   3.417   6.618 -0.6987  0.3832  0.8225
  983MOL0     H29754   6.118   3.754   6.340 -2.9209  1.6148  0.5252
  983MOL0     H29755   5.467   3.747   6.331 -1.1049  0.1879  1.3179
  983MOL0     H29756   5.431   3.965   6.268  0.1191 -0.0248 -0.3960
  984MOL0     O29757   7.616   3.944   2.914 -0.2914 -0.0329  0.7708
  984MOL0     C29758   7.686   4.038   2.876  0.7276  0.3647  0.2388
  984MOL0     O29759   7.642   4.160   2.855  0.2706 -0.0167  0.4184
  984MOL0     C29760   7.511   4.164   2.834 -0.3724  0.8626  0.0569
  984MOL0     C29761   7.436   4.236   2.926 -0.6598 -0.1418  0.4126
  984MOL0     C29762   7.295   4.245   2.906  0.2903 -0.4234 -0.6018
  984MOL0     C29763   7.233   4.197   2.796  0.2760  0.7791 -0.5249
  984MOL0     O29764   7.094   4.235   2.793 -0.3510  0.1617 -0.6254
  984MOL0     C29765   7.008   4.211   2.684  0.1550 -0.0095 -0.2749
  984MOL0     C29766   6.923   4.090   2.714 -0.8863 -0.4016 -0.3407
  984MOL0     C29767   6.796   4.097   2.631 -0.1937 -0.8017 -0.0518
  984MOL0     C29768   6.725   3.967   2.656 -0.3647  0.0293  0.6428
  984MOL0     C29769   6.656   3.956   2.794 -0.1351 -0.4108  0.4762
  984MOL0     C29770   6.549   4.047   2.832  0.3068  0.1977  0.5561
  984MOL0     C29771   6.416   4.027   2.757 -0.9493  0.2035  0.2013
  984MOL0     C29772   6.332   3.910   2.808 -0.6220 -0.1468 -0.2577
  984MOL0     N29773   6.240   3.855   2.704  0.8714 -0.5427 -0.2046
  984MOL0     C29774   6.122   3.892   2.675  1.8378 -0.4697  0.3783
  984MOL0     C29775   6.094   3.826   2.558  0.4407 -0.1839 -1.1463
  984MOL0     C29776   5.966   3.844   2.479  0.2874  0.5834  0.0826
  984MOL0     C29777   5.853   3.772   2.543 -0.2874 -0.9754  1.0026
  984MOL0     C29778   5.778   3.875   2.632 -0.6876 -0.4002 -0.1743
  984MOL0     C29779   5.665   3.812   2.723 -0.9183 -0.5571 -0.0321
  984MOL0     O29780   5.606   3.910   2.807  0.6989 -0.0169  0.7656
  984MOL0     C29781   5.501   3.991   2.762 -0.4434 -0.2333  0.5184
  984MOL0     C29782   5.430   4.071   2.847  0.1875 -0.4845  0.6183
  984MOL0     C29783   5.328   4.142   2.801  0.4341  0.5300 -0.8715
  984MOL0     C29784   5.287   4.140   2.667 -0.3675 -0.2232 -0.4311
  984MOL0     C29785   5.185   4.244   2.621 -0.5875  0.8621 -1.0347
  984MOL0     O29786   5.178   4.259   2.491  0.4915  0.4304 -0.1911
  984MOL0     C29787   5.065   4.309   2.435  0.2254  0.7419  0.3987
  984MOL0     C29788   4.931   4.299   2.486  0.0484  0.1566  0.8297
  984MOL0     C29789   4.824   4.341   2.419 -0.1013 -1.4912  0.3674
  984MOL0     C29790   4.841   4.377   2.285  0.4085  0.3730  0.7648
  984MOL0     O29791   4.733   4.387   2.206  0.8907 -0.5025  0.4913
  984MOL0     C29792   4.695   4.525   2.206 -0.5013 -0.9059  0.4690
  984MOL0     C29793   4.580   4.566   2.108  0.7143 -0.1471  0.1996
  984MOL0     C29794   4.451   4.497   2.141 -0.8843  0.5266  0.0447
  984MOL0     C29795   4.405   4.553   2.276  0.2050  0.2309  0.8090
  984MOL0     C29796   4.259   4.517   2.281  0.3136  0.4325  0.5150
  984MOL0     C29797   4.201   4.537   2.423 -0.2841 -0.8196  0.9325
  984MOL0     C29798   4.185   4.687   2.446  0.1151  0.8388  0.3689
  984MOL0     C29799   4.128   4.730   2.574  0.4929  0.1233 -0.6522
  984MOL0    Cl29800   4.236   4.678   2.708 -0.3941  0.6747  0.5050
  984MOL0     C29801   4.968   4.391   2.231  0.6172 -0.3681 -0.5278
  984MOL0     C29802   5.078   4.367   2.307 -0.8683  0.5306 -0.2475
  984MOL0     O29803   5.114   4.299   2.704 -0.5153  0.0726  0.8148
  984MOL0     C29804   5.355   4.058   2.575  0.0060  0.9984 -0.4852
  984MOL0     C29805   5.467   3.989   2.629 -0.2961  0.0289 -0.0547
  984MOL0     N29806   6.199   3.760   2.509 -0.6984  0.0268  0.2521
  984MOL0     N29807   6.287   3.778   2.594 -0.4416  0.3408  0.3347
  984MOL0     C29808   7.304   4.117   2.711 -0.2451 -0.7009  0.0808
  984MOL0     C29809   7.450   4.110   2.720 -0.4220  0.4576 -1.4213
  984MOL0     C29810   7.828   3.999   2.856 -0.0358 -0.3490 -0.4458
  984MOL0     C29811   7.889   3.895   2.922 -0.1062 -0.3586  0.7285
  984MOL0     C29812   8.023   3.862   2.915 -0.0483  0.6313  1.2236
  984MOL0     C29813   8.098   3.937   2.815  0.3365 -0.2365  0.0366
  984MOL0     O29814   8.233   3.908   2.783  0.1909  0.2073  0.3005
  984MOL0     C29815   8.319   3.898   2.893 -0.1822 -0.2016  0.0515
  984MOL0     C29816   8.461   3.931   2.840  0.3804 -0.8488 -0.5546
  984MOL0     C29817   8.487   4.078   2.797  0.1821 -0.8354  0.9682
  984MOL0     C29818   8.630   4.120   2.795 -0.0631 -0.3516  0.0768
  984MOL0     C29819   8.696   4.126   2.666 -0.6677  0.0481  0.3635
  984MOL0     C29820   8.738   4.120   2.551 -0.0601  0.8049  0.6167
  984MOL0     C29821   8.033   4.033   2.742 -0.0647 -0.9975  0.2802
  984MOL0     C29822   7.898   4.072   2.758 -0.1219 -0.0103 -0.7834
  984MOL0     H29823   7.479   4.296   3.006  1.4019  1.0476 -1.4899
  984MOL0     H29824   7.232   4.312   2.963 -2.0460 -2.1296 -1.0495
  984MOL0     H29825   7.066   4.211   2.592  0.2653  2.9944 -0.3107
  984MOL0     H29826   6.932   4.290   2.681  0.4769  0.2746 -1.1742
  984MOL0     H29827   6.905   4.086   2.822  1.8008  2.0031  0.3244
  984MOL0     H29828   6.986   4.003   2.696  0.5251 -0.0366  2.3836
  984MOL0     H29829   6.813   4.118   2.525  0.9161 -0.5842  0.1591
  984MOL0     H29830   6.741   4.180   2.675  0.8288 -0.8833  1.4724
  984MOL0     H29831   6.646   3.964   2.581  1.3231  0.3730 -1.2305
  984MOL0     H29832   6.803   3.893   2.635  1.0916  2.0213 -1.5851
  984MOL0     H29833   6.739   3.961   2.865  2.9510  1.5386 -2.9204
  984MOL0     H29834   6.616   3.854   2.793 -0.0173 -0.4580  0.5601
  984MOL0     H29835   6.580   4.148   2.804  2.9442 -0.7534 -0.3084
  984MOL0     H29836   6.527   4.032   2.938 -1.2038  0.1746  0.2577
  984MOL0     H29837   6.358   4.119   2.770  0.2891  0.8170  1.6512
  984MOL0     H29838   6.427   4.022   2.648  1.1330  1.4238  0.3014
  984MOL0     H29839   6.275   3.943   2.896  0.0369 -1.2850  0.6379
  984MOL0     H29840   6.392   3.821   2.833 -1.8492 -2.1991 -3.8690
  984MOL0     H29841   6.050   3.956   2.725  3.6381  0.6011  1.7473
  984MOL0     H29842   5.983   3.800   2.381 -1.0553  0.2476 -0.0219
  984MOL0     H29843   5.939   3.949   2.466  2.4138  1.2709  0.8274
  984MOL0     H29844   5.899   3.686   2.594 -2.7258 -1.8166  1.9003
  984MOL0     H29845   5.789   3.723   2.470 -1.1852 -1.8154  2.3061
  984MOL0     H29846   5.846   3.939   2.687  0.4862  2.1236 -4.1570
  984MOL0     H29847   5.740   3.943   2.555  1.8215  3.0654  1.4274
  984MOL0     H29848   5.711   3.743   2.794  2.4105  2.2481  0.8059
  984MOL0     H29849   5.598   3.756   2.657  0.5296  1.9852 -4.1098
  984MOL0     H29850   5.462   4.063   2.950  0.3434 -1.8007  0.4842
  984MOL0     H29851   5.281   4.213   2.868  1.3452  0.6029 -0.2832
  984MOL0     H29852   4.907   4.245   2.577  1.0114 -1.7198  0.0529
  984MOL0     H29853   4.728   4.317   2.465  0.4447 -3.1354  0.7152
  984MOL0     H29854   4.785   4.586   2.192 -1.0100  0.0565  1.3141
  984MOL0     H29855   4.667   4.561   2.305  2.1775  6.2328 -0.7698
  984MOL0     H29856   4.604   4.526   2.009 -0.3894  3.2647 -1.6073
  984MOL0     H29857   4.561   4.674   2.101  0.4987  0.1981  4.2125
  984MOL0     H29858   4.470   4.390   2.153  0.5850  0.8095  0.4166
  984MOL0     H29859   4.375   4.517   2.065 -3.2009  0.2091  2.1574
  984MOL0     H29860   4.458   4.497   2.354  2.2854  2.8217  1.3843
  984MOL0     H29861   4.437   4.655   2.298 -0.8873  0.4132  1.6545
  984MOL0     H29862   4.241   4.411   2.263  0.4642  0.5845 -0.5649
  984MOL0     H29863   4.208   4.565   2.197  0.5812 -4.6903 -2.9619
  984MOL0     H29864   4.269   4.501   2.500 -1.0687  0.5845  2.3296
  984MOL0     H29865   4.102   4.495   2.442 -0.5100  1.0280  4.6824
  984MOL0     H29866   4.276   4.745   2.429 -1.2330  1.8690 -5.4741
  984MOL0     H29867   4.122   4.719   2.363 -3.4392 -4.6313  0.4384
  984MOL0     H29868   4.037   4.676   2.602  0.5986  0.5844  0.6670
  984MOL0     H29869   4.100   4.836   2.569  0.3557  0.1686  0.6861
  984MOL0     H29870   4.964   4.401   2.123  0.4126 -0.2759 -0.5112
  984MOL0     H29871   5.175   4.360   2.259 -1.5623  0.2513 -1.6988
  984MOL0     H29872   5.342   4.073   2.468 -0.0147  2.3097 -0.3202
  984MOL0     H29873   5.518   3.928   2.555 -0.0846  1.1110 -0.8395
  984MOL0     H29874   7.245   4.073   2.631  1.6943  0.8473 -2.3416
  984MOL0     H29875   7.521   4.067   2.650  0.6727 -1.1048  0.5478
  984MOL0     H29876   7.834   3.838   2.997 -1.6930  1.0920  0.7314
  984MOL0     H29877   8.061   3.781   2.976  0.0491 -1.5450 -1.5055
  984MOL0     H29878   8.323   3.794   2.928  1.6592 -1.0312 -2.2962
  984MOL0     H29879   8.288   3.962   2.976 -0.6510  0.0001 -0.2820
  984MOL0     H29880   8.539   3.909   2.914 -3.3645  1.1200  4.5486
  984MOL0     H29881   8.475   3.862   2.756  2.6701 -0.2754 -0.7206
  984MOL0     H29882   8.426   4.149   2.855  0.1035  1.6424 -1.8809
  984MOL0     H29883   8.454   4.075   2.693 -0.0638  0.1108  1.0051
  984MOL0     H29884   8.643   4.224   2.825 -0.3993  0.4757 -2.4289
  984MOL0     H29885   8.691   4.058   2.861  2.2276  2.5689  0.8887
  984MOL0     H29886   8.781   4.107   2.454 -0.5304  1.1843  0.3505
  984MOL0     H29887   8.098   4.082   2.670  1.2173  1.4535  2.8989
  984MOL0     H29888   7.862   4.155   2.698 -1.7950 -0.8015 -0.9289
  985MOL0     O29889   1.877   1.915   8.274 -0.0422  0.2637  0.1425
  985MOL0     C29890   1.880   1.951   8.395 -0.0807  0.5420 -0.5914
  985MOL0     O29891   1.784   2.031   8.456  0.2179  0.1420  0.2322
  985MOL0     C29892   1.662   2.038   8.400  1.1933  1.9260 -1.0544
  985MOL0     C29893   1.614   2.152   8.354  0.9135 -0.6708 -0.3940
  985MOL0     C29894   1.488   2.169   8.300  0.0336  0.9020  0.4960
  985MOL0     C29895   1.403   2.057   8.289 -0.2314  0.0854 -0.7833
  985MOL0     O29896   1.277   2.061   8.234  0.2962  0.6787  0.2374
  985MOL0     C29897   1.188   2.110   8.329 -0.5797  0.5138 -0.3218
  985MOL0     C29898   1.044   2.106   8.278  0.4918 -0.4236 -0.0696
  985MOL0     C29899   1.024   1.969   8.220  0.4909  0.4743 -0.5950
  985MOL0     C29900   0.880   1.932   8.179  0.0632 -0.0328  0.3447
  985MOL0     C29901   0.864   1.796   8.104 -0.5421 -0.1954 -1.2171
  985MOL0     C29902   0.719   1.802   8.039 -0.3500  0.7691 -0.3306
  985MOL0     C29903   0.686   1.673   7.960  0.0897 -0.9922  1.0637
  985MOL0     C29904   0.679   1.550   8.057  1.0708  0.3468  1.0515
  985MOL0     N29905   0.648   1.426   7.984  0.2419 -0.1439 -0.6564
  985MOL0     C29906   0.539   1.409   7.900  0.5129 -0.4631 -0.2166
  985MOL0     C29907   0.565   1.293   7.828  0.0463 -0.1391  0.1710
  985MOL0     C29908   0.486   1.225   7.715  0.6523  0.1248 -0.6046
  985MOL0     C29909   0.423   1.321   7.613 -0.1481 -0.0156  0.3491
  985MOL0     C29910   0.357   1.244   7.497  0.1959  0.6620 -0.0232
  985MOL0     C29911   0.332   1.332   7.372 -0.1998 -0.2483  0.6561
  985MOL0     O29912   0.222   1.427   7.372  0.0448 -0.6326  0.3103
  985MOL0     C29913   0.093   1.375   7.391  0.2152 -0.3799  0.1836
  985MOL0     C29914   0.063   1.241   7.374 -0.0386 -0.7390  0.6703
  985MOL0     C29915  -0.064   1.191   7.410  0.0539  0.5101  0.0523
  985MOL0     C29916  -0.164   1.280   7.436  0.1667  0.7509 -0.8728
  985MOL0     C29917  -0.302   1.228   7.449  0.6681  0.1232  0.6405
  985MOL0     O29918  -0.396   1.316   7.498  0.0269 -0.1405 -0.0124
  985MOL0     C29919  -0.527   1.282   7.478  0.5011  0.2435 -0.7153
  985MOL0     C29920  -0.588   1.372   7.395 -0.5442  0.0351  0.0118
  985MOL0     C29921  -0.720   1.339   7.359  0.2983  0.3201 -0.3458
  985MOL0     C29922  -0.787   1.229   7.411 -0.1482  0.5928 -0.2387
  985MOL0     O29923  -0.915   1.198   7.385  0.2510  0.1308 -0.2760
  985MOL0     C29924  -0.958   1.239   7.255  0.7861 -0.2595  0.5841
  985MOL0     C29925  -1.083   1.171   7.201  0.2053  1.1873  0.1955
  985MOL0     C29926  -1.197   1.164   7.313 -0.4768  0.3333  1.1456
  985MOL0     C29927  -1.322   1.094   7.246  0.0471 -0.2594  0.3366
  985MOL0     C29928  -1.436   1.089   7.344 -0.4947 -0.2323  1.0012
  985MOL0     C29929  -1.547   1.008   7.295  0.5553  0.9345  0.2241
  985MOL0     C29930  -1.684   1.055   7.340 -0.5497 -0.3659 -0.1945
  985MOL0     C29931  -1.779   0.930   7.318  0.9703  0.1491  0.0567
  985MOL0    Cl29932  -1.936   1.001   7.322  0.1570 -0.3170  0.0645
  985MOL0     C29933  -0.714   1.142   7.503 -0.2866  0.8766  0.0064
  985MOL0     C29934  -0.583   1.170   7.530 -0.1859 -0.4307 -0.1852
  985MOL0     O29935  -0.314   1.102   7.450  0.1963 -0.1549  0.5164
  985MOL0     C29936  -0.141   1.421   7.425  0.1539  0.2638  0.5622
  985MOL0     C29937  -0.012   1.469   7.414 -0.0531  0.2851  0.3239
  985MOL0     N29938   0.684   1.244   7.876 -0.9735  0.7064  0.8138
  985MOL0     N29939   0.736   1.326   7.955 -0.5252  0.0825  0.7088
  985MOL0     C29940   1.452   1.940   8.345 -0.2966  0.2578 -0.5120
  985MOL0     C29941   1.581   1.928   8.391 -0.5692  0.2048  0.2618
  985MOL0     C29942   2.002   1.932   8.474  0.4881  0.4695  0.1255
  985MOL0     C29943   2.010   1.974   8.610  0.0547  0.3769  0.0455
  985MOL0     C29944   2.118   1.958   8.685  0.1544  0.4582 -0.6323
  985MOL0     C29945   2.237   1.927   8.624 -0.0100  0.4300  0.3475
  985MOL0     O29946   2.342   1.917   8.708 -0.4543  0.7352  0.3398
  985MOL0     C29947   2.471   1.898   8.641  0.6117 -0.7111  0.1504
  985MOL0     C29948   2.584   1.897   8.745 -0.6884  0.7550 -0.5442
  985MOL0     C29949   2.591   2.020   8.833  0.0929  0.2614 -0.7262
  985MOL0     C29950   2.686   2.118   8.760  0.4086 -0.7627 -0.5365
  985MOL0     C29951   2.823   2.069   8.767  0.5467  1.2245  1.2218
  985MOL0     C29952   2.931   2.013   8.755 -0.4443 -1.0545  0.3887
  985MOL0     C29953   2.237   1.890   8.482 -0.2018 -1.2962  0.2992
  985MOL0     C29954   2.123   1.887   8.408  0.3609  0.3240  0.1475
  985MOL0     H29955   1.672   2.241   8.378 -1.9373  0.6257  2.3272
  985MOL0     H29956   1.449   2.265   8.267 -2.9616  0.0451  1.1480
  985MOL0     H29957   1.207   2.216   8.351 -0.6882  0.2508  1.1091
  985MOL0     H29958   1.195   2.050   8.420 -6.3987  2.6237  1.9722
  985MOL0     H29959   1.023   2.177   8.198  1.3701  0.1812  0.2161
  985MOL0     H29960   0.965   2.126   8.351 -0.9953  0.8498 -1.9516
  985MOL0     H29961   1.049   1.894   8.295  1.9331 -1.1342 -2.5404
  985MOL0     H29962   1.104   1.972   8.144  2.8219  2.6152  1.7517
  985MOL0     H29963   0.816   1.930   8.268 -1.0977  3.4871 -0.2320
  985MOL0     H29964   0.840   2.010   8.114 -1.2424  0.5919  1.8374
  985MOL0     H29965   0.877   1.720   8.181 -3.0106  0.7981  0.2883
  985MOL0     H29966   0.931   1.789   8.018  1.3461  1.7435  0.0264
  985MOL0     H29967   0.721   1.894   7.980  0.1236  1.3994  0.6340
  985MOL0     H29968   0.653   1.822   8.124 -0.7408  1.4473 -0.7882
  985MOL0     H29969   0.589   1.694   7.915  1.6139  2.8780 -0.8442
  985MOL0     H29970   0.738   1.650   7.866 -1.9809  2.1710 -1.0529
  985MOL0     H29971   0.616   1.576   8.142  3.7940  2.7995  2.4911
  985MOL0     H29972   0.777   1.533   8.103  2.1667  4.9716  0.9380
  985MOL0     H29973   0.448   1.467   7.902 -0.7702 -2.2701  3.4516
  985MOL0     H29974   0.397   1.169   7.747  1.3672 -0.9519 -0.4385
  985MOL0     H29975   0.541   1.146   7.663 -1.1729 -1.2641 -0.5434
  985MOL0     H29976   0.497   1.389   7.568  1.1005 -1.5222  0.0532
  985MOL0     H29977   0.357   1.390   7.666  0.1030 -0.4482  1.2387
  985MOL0     H29978   0.432   1.171   7.466  2.5634  2.5473  1.0337
  985MOL0     H29979   0.266   1.202   7.542  0.3333 -1.0498 -1.2299
  985MOL0     H29980   0.323   1.274   7.279  1.0527  0.1852  0.2373
  985MOL0     H29981   0.424   1.387   7.353 -0.4035 -0.5951 -1.7268
  985MOL0     H29982   0.136   1.164   7.351 -0.1492 -0.9576  1.0467
  985MOL0     H29983  -0.086   1.085   7.413  3.3657 -0.3292  3.2119
  985MOL0     H29984  -0.534   1.461   7.363  0.9126 -0.3226  1.3920
  985MOL0     H29985  -0.771   1.416   7.302  0.3396  1.1978  0.7651
  985MOL0     H29986  -0.882   1.228   7.178  1.4814 -1.8860  1.4572
  985MOL0     H29987  -0.970   1.348   7.265  1.1246 -0.2838  1.2905
  985MOL0     H29988  -1.064   1.068   7.170  1.1156 -0.3183  4.9465
  985MOL0     H29989  -1.118   1.232   7.118 -1.1116 -1.0180 -0.9576
  985MOL0     H29990  -1.223   1.266   7.343 -1.9174 -0.5660  3.1444
  985MOL0     H29991  -1.157   1.117   7.403 -1.6110  0.5618  1.7885
  985MOL0     H29992  -1.362   1.155   7.165  0.2043  0.1902  0.5949
  985MOL0     H29993  -1.307   0.992   7.210 -0.2703  0.2483 -1.3259
  985MOL0     H29994  -1.463   1.191   7.372 -1.8329 -0.5858  1.0773
  985MOL0     H29995  -1.413   1.050   7.444 -1.0594  0.3793  1.3744
  985MOL0     H29996  -1.518   0.906   7.322 -0.8591  0.0277 -1.4645
  985MOL0     H29997  -1.552   1.000   7.186  0.5718  0.5541  0.2507
  985MOL0     H29998  -1.687   1.093   7.443 -2.2491 -0.1437 -0.2964
  985MOL0     H29999  -1.706   1.141   7.276  0.0964  1.2962  1.7133
  985MOL0     H30000  -1.746   0.856   7.391  0.7892  2.4417  2.5999
  985MOL0     H30001  -1.771   0.888   7.217 -1.6998 -1.3691  0.3868
  985MOL0     H30002  -0.758   1.052   7.547  2.4095 -1.8488 -2.4233
  985MOL0     H30003  -0.515   1.118   7.597  2.1607 -0.7701 -2.6477
  985MOL0     H30004  -0.220   1.493   7.444  0.3909  0.5659  0.4180
  985MOL0     H30005   0.006   1.574   7.434 -2.1072  0.2206  2.9909
  985MOL0     H30006   1.386   1.854   8.353  3.5087 -2.7575  2.7703
  985MOL0     H30007   1.619   1.831   8.422 -0.1304  0.6996  1.3213
  985MOL0     H30008   1.924   2.009   8.665  0.9680  0.6034  1.3614
  985MOL0     H30009   2.097   1.966   8.791 -1.7621 -0.1949 -0.9097
  985MOL0     H30010   2.495   1.973   8.565  0.3172 -1.5177 -0.7703
  985MOL0     H30011   2.467   1.801   8.591  2.0132  0.0324 -1.5045
  985MOL0     H30012   2.538   1.824   8.812 -1.2983  1.6251  0.0039
  985MOL0     H30013   2.679   1.864   8.701  0.5088  2.2546  0.8269
  985MOL0     H30014   2.620   2.006   8.938 -0.4476  3.2047 -0.1003
  985MOL0     H30015   2.490   2.062   8.838  0.0373  0.0289  3.2888
  985MOL0     H30016   2.654   2.121   8.656  1.0824 -1.8790 -0.7973
  985MOL0     H30017   2.676   2.215   8.808 -5.6643 -0.8603 -0.8071
  985MOL0     H30018   3.027   1.964   8.757 -1.4835 -3.2048  1.5008
  985MOL0     H30019   2.334   1.896   8.434 -0.3197  5.3958 -0.1272
  985MOL0     H30020   2.124   1.845   8.308 -4.5233 -3.5280  1.2665
  986MOL0     O30021   7.311   1.529   2.259  0.4406 -0.8203  0.0214
  986MOL0     C30022   7.407   1.527   2.188 -0.1276  0.2583 -0.1564
  986MOL0     O30023   7.460   1.634   2.124  0.1002 -0.1319 -0.6045
  986MOL0     C30024   7.383   1.746   2.109 -0.6321 -0.6928 -0.9472
  986MOL0     C30025   7.427   1.863   2.170 -1.1300  0.6128 -0.5210
  986MOL0     C30026   7.355   1.984   2.169 -0.4001 -0.0000  0.0924
  986MOL0     C30027   7.240   1.994   2.090 -0.0384 -0.5569 -0.3550
  986MOL0     O30028   7.171   2.112   2.077  0.0474  0.4315 -0.0857
  986MOL0     C30029   7.229   2.240   2.097 -1.0205 -0.0066  0.8496
  986MOL0     C30030   7.348   2.282   2.006 -0.6874 -0.6975  0.7939
  986MOL0     C30031   7.391   2.416   2.056  0.8177  0.5575  0.2752
  986MOL0     C30032   7.527   2.460   2.014 -0.2118 -0.1564  0.7736
  986MOL0     C30033   7.552   2.492   1.862 -0.3559 -0.4993  0.1375
  986MOL0     C30034   7.441   2.545   1.768  1.0468 -0.5226  0.0867
  986MOL0     C30035   7.494   2.593   1.631  0.4403 -0.5568  0.4050
  986MOL0     C30036   7.391   2.604   1.515 -0.5346  0.7837 -0.3768
  986MOL0     N30037   7.424   2.696   1.415  0.7258  0.2558  0.9672
  986MOL0     C30038   7.331   2.751   1.331 -0.0698  0.4381  0.7725
  986MOL0     C30039   7.421   2.795   1.233  1.1571 -0.5717 -0.6608
  986MOL0     C30040   7.367   2.862   1.100  0.8381 -0.4682 -0.1743
  986MOL0     C30041   7.300   2.777   0.989 -0.0164  0.6064 -0.7074
  986MOL0     C30042   7.381   2.648   0.953 -0.0731 -0.4520  0.3187
  986MOL0     C30043   7.527   2.667   0.925 -0.5172 -0.4240 -0.0746
  986MOL0     O30044   7.603   2.553   0.906  0.8096  0.1865 -0.2964
  986MOL0     C30045   7.732   2.563   0.869 -1.0769 -0.0796  0.1167
  986MOL0     C30046   7.816   2.443   0.858 -0.1406 -0.0469 -0.1919
  986MOL0     C30047   7.944   2.457   0.798  0.1772  0.2820  0.0003
  986MOL0     C30048   7.989   2.575   0.747 -0.7969  0.9471  0.1459
  986MOL0     C30049   8.122   2.579   0.674 -0.0859 -0.1767 -0.7826
  986MOL0     O30050   8.214   2.483   0.683  1.2120  0.4537  0.0305
  986MOL0     C30051   8.342   2.506   0.629  0.3609  0.2698 -0.1146
  986MOL0     C30052   8.415   2.628   0.627  0.0690  0.8357  0.3401
  986MOL0     C30053   8.546   2.648   0.582  0.9027 -0.1486 -0.5246
  986MOL0     C30054   8.610   2.533   0.540 -0.1102 -0.5501 -0.0132
  986MOL0     O30055   8.739   2.520   0.490  0.6933  0.1391 -0.1657
  986MOL0     C30056   8.844   2.612   0.505 -0.5520  0.1546 -0.5800
  986MOL0     C30057   8.929   2.566   0.628  0.5927  0.4009 -0.4393
  986MOL0     C30058   9.055   2.652   0.634  0.4465 -0.7686 -0.4052
  986MOL0     C30059   9.131   2.632   0.760 -0.8834 -0.3247  0.1017
  986MOL0     C30060   9.243   2.742   0.754 -0.6526  0.4564 -0.0298
  986MOL0     C30061   9.353   2.699   0.852  0.0294  0.2174  0.3479
  986MOL0     C30062   9.477   2.797   0.846 -0.4674  0.4838 -0.6780
  986MOL0     C30063   9.574   2.784   0.963  0.7606 -0.1047 -0.2286
  986MOL0    Cl30064   9.691   2.905   0.938  0.3687  0.1102  0.0258
  986MOL0     C30065   8.546   2.413   0.538  0.0435  0.0051  0.6606
  986MOL0     C30066   8.412   2.391   0.578 -0.1244  0.4657  0.2313
  986MOL0     O30067   8.141   2.688   0.621 -0.6629 -0.0994  0.4376
  986MOL0     C30068   7.917   2.690   0.766  0.6973 -1.0906 -0.7937
  986MOL0     C30069   7.786   2.681   0.822  0.7029  0.6114 -1.6579
  986MOL0     N30070   7.560   2.775   1.263 -0.8835 -0.5412  0.5002
  986MOL0     N30071   7.555   2.701   1.370 -0.2032  0.0288  0.4177
  986MOL0     C30072   7.194   1.883   2.019  0.8752  0.2131 -0.1873
  986MOL0     C30073   7.261   1.759   2.035 -0.4356  0.6092 -0.0923
  986MOL0     C30074   7.482   1.402   2.173  0.4301 -0.3763 -0.5491
  986MOL0     C30075   7.436   1.294   2.243 -0.1532 -0.2364  0.4120
  986MOL0     C30076   7.502   1.168   2.234  0.7359 -0.0139 -0.5529
  986MOL0     C30077   7.624   1.153   2.160 -0.0442  0.1011 -0.3429
  986MOL0     O30078   7.681   1.033   2.157 -0.2341 -0.6604  0.2554
  986MOL0     C30079   7.831   1.028   2.150 -1.1477  0.7925  0.2815
  986MOL0     C30080   7.872   0.990   2.004  0.0698  0.4257 -0.1071
  986MOL0     C30081   7.803   0.869   1.955 -0.6754  0.4429 -0.2629
  986MOL0     C30082   7.859   0.844   1.811  0.0316  0.3553  0.0249
  986MOL0     C30083   8.006   0.829   1.793 -0.4237  0.3157  0.8385
  986MOL0     C30084   8.128   0.821   1.776  0.1200  1.1332 -0.8961
  986MOL0     C30085   7.669   1.267   2.087 -0.6211 -0.0204  0.1382
  986MOL0     C30086   7.600   1.391   2.092  0.1857 -0.1082 -0.3784
  986MOL0     H30087   7.524   1.854   2.218 -0.5152  1.3179 -1.5820
  986MOL0     H30088   7.375   2.064   2.239 -2.3006 -0.5966  1.4003
  986MOL0     H30089   7.266   2.247   2.200 -1.8596  1.9995  1.0429
  986MOL0     H30090   7.159   2.321   2.076  2.0324  2.2047 -1.8784
  986MOL0     H30091   7.334   2.287   1.897  0.4190  0.0677  0.6703
  986MOL0     H30092   7.439   2.223   2.015 -0.2088 -0.2544 -0.7375
  986MOL0     H30093   7.401   2.419   2.165  1.2166 -0.9374  0.2915
  986MOL0     H30094   7.312   2.484   2.020 -1.4746 -2.4835 -0.9100
  986MOL0     H30095   7.546   2.552   2.070  0.7119  0.5273 -0.6028
  986MOL0     H30096   7.598   2.392   2.061  1.0933  2.1371  2.3139
  986MOL0     H30097   7.598   2.403   1.819  0.9245 -0.1353  0.7084
  986MOL0     H30098   7.631   2.568   1.865  0.6548 -1.5457  2.0353
  986MOL0     H30099   7.387   2.625   1.820 -0.8059 -1.3760 -0.4531
  986MOL0     H30100   7.363   2.469   1.765  0.5378 -0.0196  0.4099
  986MOL0     H30101   7.530   2.695   1.642 -1.2693  0.3250 -1.5325
  986MOL0     H30102   7.580   2.533   1.598  2.1649  2.9846 -2.1781
  986MOL0     H30103   7.299   2.640   1.562  1.0416  2.4719  1.5898
  986MOL0     H30104   7.390   2.508   1.463  1.8841  1.9501 -2.8627
  986MOL0     H30105   7.225   2.740   1.352  0.3884  0.5570  3.3853
  986MOL0     H30106   7.456   2.911   1.060  0.4692 -0.7217 -1.3229
  986MOL0     H30107   7.301   2.941   1.136  0.2456 -1.0371  0.0216
  986MOL0     H30108   7.285   2.839   0.900  1.9257  1.5177 -0.4593
  986MOL0     H30109   7.203   2.760   1.035 -0.4624  0.4160 -1.6866
  986MOL0     H30110   7.375   2.565   1.024  1.7161 -0.9805 -0.0908
  986MOL0     H30111   7.337   2.619   0.857  2.6755  0.8985 -1.4686
  986MOL0     H30112   7.562   2.727   1.009 -0.5015 -1.0736  0.3869
  986MOL0     H30113   7.531   2.722   0.831 -1.4427  1.7739  1.0986
  986MOL0     H30114   7.764   2.350   0.876 -1.8293  0.5469 -1.7709
  986MOL0     H30115   8.006   2.368   0.794  0.5133  0.5592 -1.3144
  986MOL0     H30116   8.359   2.715   0.661  3.1909  2.7482  0.9655
  986MOL0     H30117   8.599   2.742   0.572  0.6728 -0.2763 -4.0879
  986MOL0     H30118   8.816   2.718   0.502  0.4030  0.4073 -0.9429
  986MOL0     H30119   8.901   2.589   0.414  1.6375  2.0716  0.1995
  986MOL0     H30120   8.941   2.457   0.627 -1.4381  0.1464 -0.2754
  986MOL0     H30121   8.874   2.590   0.719  3.2610  0.2776  1.3313
  986MOL0     H30122   9.018   2.755   0.629  0.7904 -0.6945 -2.4997
  986MOL0     H30123   9.115   2.627   0.546 -1.6834 -1.7606 -1.6540
  986MOL0     H30124   9.064   2.646   0.845 -3.2513  0.7248 -1.8081
  986MOL0     H30125   9.176   2.532   0.767 -0.8101 -0.5386 -2.4532
  986MOL0     H30126   9.204   2.840   0.784 -0.3469  1.4676 -2.6682
  986MOL0     H30127   9.294   2.741   0.657  0.4615  0.5886  0.5333
  986MOL0     H30128   9.391   2.601   0.821 -2.0703 -0.3420 -0.6703
  986MOL0     H30129   9.310   2.699   0.952  0.1210 -0.6735  0.3986
  986MOL0     H30130   9.527   2.777   0.751 -3.0406 -1.0088 -1.8483
  986MOL0     H30131   9.455   2.904   0.844  3.2083  1.3392 -1.0484
  986MOL0     H30132   9.613   2.682   0.969  2.8107  0.6964  0.6525
  986MOL0     H30133   9.530   2.800   1.062  1.6359 -0.0149  0.1502
  986MOL0     H30134   8.602   2.327   0.503  2.8886  2.4145 -1.1819
  986MOL0     H30135   8.371   2.292   0.563 -0.0598  0.8155 -2.7160
  986MOL0     H30136   7.947   2.786   0.726 -2.4988  1.2575  1.8785
  986MOL0     H30137   7.731   2.773   0.839  1.8813  1.0773 -0.0755
  986MOL0     H30138   7.103   1.885   1.959  1.1585  0.0140 -0.6205
  986MOL0     H30139   7.229   1.670   1.982 -2.0402  0.4928  1.0130
  986MOL0     H30140   7.338   1.300   2.290 -0.1336 -1.4243  0.6490
  986MOL0     H30141   7.460   1.075   2.272 -0.6912  0.8870  0.1786
  986MOL0     H30142   7.853   0.940   2.212  0.9046 -0.4234 -1.9937
  986MOL0     H30143   7.888   1.115   2.183  1.5360 -0.6938 -0.1037
  986MOL0     H30144   7.855   1.077   1.939  0.5419 -0.6311 -1.7145
  986MOL0     H30145   7.982   0.984   2.003  0.0374 -0.2766 -0.8329
  986MOL0     H30146   7.694   0.873   1.955 -0.6943  0.3386 -1.3680
  986MOL0     H30147   7.840   0.790   2.020 -1.0941  2.3769  2.4822
  986MOL0     H30148   7.821   0.758   1.756 -2.0543  0.0855  1.7779
  986MOL0     H30149   7.817   0.927   1.752 -3.7990 -0.2774  1.5751
  986MOL0     H30150   8.235   0.821   1.769  0.1848 -0.7848 -0.3427
  986MOL0     H30151   7.756   1.263   2.022 -0.7669 -1.5491 -0.0041
  986MOL0     H30152   7.630   1.485   2.046 -2.4705  1.2270  0.3742
  987MOL0     O30153  10.881   9.267   9.479  0.2630 -0.1828  0.3434
  987MOL0     C30154  10.822   9.296   9.581 -0.3905 -0.2224  0.5614
  987MOL0     O30155  10.850   9.400   9.667  0.6051  0.0292 -0.3116
  987MOL0     C30156  10.955   9.485   9.643  1.1217 -0.4720 -1.0714
  987MOL0     C30157  10.937   9.587   9.550 -0.4317 -0.3553 -0.0721
  987MOL0     C30158  11.035   9.684   9.537  0.0276  0.4664 -0.3006
  987MOL0     C30159  11.161   9.679   9.598  0.5681  0.1771  0.4249
  987MOL0     O30160  11.246   9.781   9.569 -0.3565  0.2202 -0.2592
  987MOL0     C30161  11.377   9.796   9.621 -0.5357  0.1642  0.1803
  987MOL0     C30162  11.486   9.692   9.579  0.0631  0.1591  0.3783
  987MOL0     C30163  11.495   9.683   9.428  0.6522 -0.3803  0.0320
  987MOL0     C30164  11.593   9.581   9.369  0.0633  0.8561 -0.5872
  987MOL0     C30165  11.555   9.441   9.403  0.2148  0.0015 -0.0027
  987MOL0     C30166  11.402   9.415   9.358 -0.4974 -0.8018 -0.0238
  987MOL0     C30167  11.363   9.283   9.406  0.5398 -0.4573  0.5453
  987MOL0     C30168  11.346   9.293   9.559  0.8437  0.4597 -0.8823
  987MOL0     N30169  11.283   9.171   9.614 -0.7465 -0.0112  0.6426
  987MOL0     C30170  11.179   9.098   9.552  0.0545  0.0488 -0.0757
  987MOL0     C30171  11.165   8.987   9.638 -0.5552 -0.7462 -0.2655
  987MOL0     C30172  11.065   8.888   9.624 -0.2263  0.2097 -0.0991
  987MOL0     C30173  10.957   8.910   9.737 -0.5031 -0.4786  0.0742
  987MOL0     C30174  10.825   8.831   9.692  0.3325 -0.4692  0.3306
  987MOL0     C30175  10.829   8.682   9.718  0.1998  0.4733  0.0241
  987MOL0     O30176  10.752   8.656   9.832  0.2761  0.2120  0.0127
  987MOL0     C30177  10.617   8.624   9.807 -0.9596 -0.7053 -0.1055
  987MOL0     C30178  10.542   8.598   9.917  0.6642  0.4891  0.1292
  987MOL0     C30179  10.407   8.549   9.917 -0.4246 -0.7706  0.0950
  987MOL0     C30180  10.343   8.535   9.794  0.0290  0.2377  0.4101
  987MOL0     C30181  10.200   8.484   9.765  0.5172  0.3489 -0.1398
  987MOL0     O30182  10.113   8.484   9.864  0.0759 -0.0181 -0.5630
  987MOL0     C30183   9.983   8.447   9.838  0.6120 -0.6807 -0.5183
  987MOL0     C30184   9.943   8.330   9.900  0.0227 -0.1327  0.0534
  987MOL0     C30185   9.808   8.284   9.874  0.1240 -0.9058  0.0952
  987MOL0     C30186   9.720   8.361   9.793  0.4023  0.0232  0.0068
  987MOL0     O30187   9.580   8.333   9.790 -0.2066 -0.6755  0.1052
  987MOL0     C30188   9.535   8.205   9.825 -0.0631  0.1320 -0.3823
  987MOL0     C30189   9.386   8.203   9.823  0.2999 -0.3062 -0.2773
  987MOL0     C30190   9.312   8.101   9.905  0.1129 -0.5684 -0.2250
  987MOL0     C30191   9.317   7.954   9.843  0.8117 -0.0232 -0.0006
  987MOL0     C30192   9.186   7.916   9.772 -0.8234  0.3600 -0.0626
  987MOL0     C30193   9.163   7.764   9.746  0.1343 -0.1907 -0.8856
  987MOL0     C30194   9.047   7.753   9.647 -0.1916  0.0024  0.4384
  987MOL0     C30195   9.020   7.612   9.601 -1.0983  0.2654 -0.2833
  987MOL0    Cl30196   8.913   7.596   9.449 -0.4122  0.6038  0.0679
  987MOL0     C30197   9.773   8.484   9.743 -0.5095  0.3464 -0.9870
  987MOL0     C30198   9.898   8.533   9.774 -1.1424 -0.4725  0.3240
  987MOL0     O30199  10.189   8.423   9.661  0.1302 -0.8081  0.1574
  987MOL0     C30200  10.413   8.590   9.680  0.1511 -0.9603  0.0104
  987MOL0     C30201  10.542   8.626   9.684  0.1318 -0.6316  0.5564
  987MOL0     N30202  11.264   8.990   9.735 -1.2587 -0.2352  0.4941
  987MOL0     N30203  11.330   9.095   9.719  1.0514  0.1839 -0.2372
  987MOL0     C30204  11.175   9.579   9.696 -1.0305 -0.9084 -0.5748
  987MOL0     C30205  11.068   9.481   9.715 -0.4302  0.9310 -0.0144
  987MOL0     C30206  10.700   9.225   9.614  0.2653 -0.0395 -0.1010
  987MOL0     C30207  10.619   9.247   9.722 -0.4575 -1.1725 -1.0343
  987MOL0     C30208  10.513   9.165   9.756  0.5546  0.6188 -0.1340
  987MOL0     C30209  10.500   9.050   9.683 -0.3195 -0.0691  0.3421
  987MOL0     O30210  10.398   8.961   9.702  0.6203  1.2674 -0.5319
  987MOL0     C30211  10.356   8.934   9.844  0.0681 -0.6827  0.5462
  987MOL0     C30212  10.236   8.837   9.829  0.1989  0.0405  1.3105
  987MOL0     C30213  10.095   8.896   9.809 -0.3561  0.2269 -0.1698
  987MOL0     C30214  10.077   9.009   9.718 -0.7085  1.0174  0.2414
  987MOL0     C30215   9.959   9.082   9.764 -0.0500 -0.2205 -0.6185
  987MOL0     C30216   9.872   9.157   9.802 -1.0042  0.1624  0.7754
  987MOL0     C30217  10.578   9.021   9.572  0.5684 -0.5444 -0.5888
  987MOL0     C30218  10.671   9.115   9.537 -0.7272  0.9225 -0.2530
  987MOL0     H30219  10.846   9.591   9.491 -0.9344 -0.5164  0.6863
  987MOL0     H30220  11.024   9.757   9.457  0.3254  1.5483  0.6139
  987MOL0     H30221  11.366   9.783   9.729  3.4782 -1.0423  0.6128
  987MOL0     H30222  11.413   9.898   9.603 -1.7083  0.1475 -3.0768
  987MOL0     H30223  11.448   9.591   9.599  0.3548 -0.1879 -0.7083
  987MOL0     H30224  11.585   9.712   9.622  0.1573  3.9829 -1.2554
  987MOL0     H30225  11.531   9.782   9.398  2.8473 -1.1313 -0.0030
  987MOL0     H30226  11.401   9.668   9.375  2.4026 -0.9552 -3.2085
  987MOL0     H30227  11.592   9.574   9.260  0.6245  2.6236 -0.7397
  987MOL0     H30228  11.696   9.600   9.400  0.4403  0.6051 -1.6663
  987MOL0     H30229  11.564   9.431   9.511  0.0950  0.2514  0.0326
  987MOL0     H30230  11.626   9.372   9.357  0.0367  0.6668 -1.3277
  987MOL0     H30231  11.383   9.429   9.251  0.5304 -3.9498 -0.7304
  987MOL0     H30232  11.332   9.475   9.417 -1.1842 -1.8486  0.2434
  987MOL0     H30233  11.281   9.249   9.343 -2.3415 -3.1277  5.1541
  987MOL0     H30234  11.447   9.217   9.383  0.1417 -0.1439 -1.9813
  987MOL0     H30235  11.291   9.383   9.586  2.5586  1.8900 -1.9686
  987MOL0     H30236  11.439   9.305   9.616 -0.0133  0.6722  0.5050
  987MOL0     H30237  11.119   9.121   9.465  1.5195 -0.0414 -1.1545
  987MOL0     H30238  11.103   8.786   9.622  0.3182  0.4203 -0.6884
  987MOL0     H30239  11.025   8.894   9.522  0.2600 -0.5623 -0.3496
  987MOL0     H30240  10.936   9.016   9.757  2.6302  0.4778 -1.0162
  987MOL0     H30241  10.991   8.862   9.829  1.0896  3.9597  2.1035
  987MOL0     H30242  10.737   8.876   9.739  1.3531  1.0314  0.8681
  987MOL0     H30243  10.817   8.846   9.584  0.7339 -0.2350  0.3324
  987MOL0     H30244  10.930   8.654   9.748 -0.4318 -1.5623  0.4280
  987MOL0     H30245  10.796   8.621   9.634 -0.4500 -0.4264  0.9090
  987MOL0     H30246  10.589   8.596  10.014 -3.5806  3.7655  2.6265
  987MOL0     H30247  10.354   8.527  10.009  1.3933 -1.1256  1.1051
  987MOL0     H30248  10.016   8.278   9.960  1.4111 -0.0083 -1.4384
  987MOL0     H30249   9.767   8.200   9.929  0.3686 -1.9866 -1.3101
  987MOL0     H30250   9.560   8.208   9.932 -1.8459 -1.1457  0.1157
  987MOL0     H30251   9.588   8.123   9.775 -0.7715 -0.1465 -0.6850
  987MOL0     H30252   9.363   8.189   9.717 -1.1487  0.1402 -0.0503
  987MOL0     H30253   9.338   8.298   9.852 -0.5558 -1.1522  1.2372
  987MOL0     H30254   9.205   8.120   9.905  0.1426 -0.3722 -1.2783
  987MOL0     H30255   9.340   8.096  10.011  0.5378  0.7055 -0.2580
  987MOL0     H30256   9.404   7.938   9.779 -1.0515 -2.4098 -2.1275
  987MOL0     H30257   9.321   7.876   9.919 -2.3229  0.1778  0.5030
  987MOL0     H30258   9.175   7.974   9.679  1.4117  1.3225  0.2032
  987MOL0     H30259   9.100   7.945   9.833  0.6100  1.2131  1.6437
  987MOL0     H30260   9.123   7.724   9.840 -1.1174  0.3580 -1.1643
  987MOL0     H30261   9.256   7.721   9.708  0.6202  3.8506 -5.0883
  987MOL0     H30262   8.951   7.783   9.689  1.2436  1.0602  3.2288
  987MOL0     H30263   9.074   7.819   9.563 -0.9095 -0.3022 -0.0364
  987MOL0     H30264   8.976   7.552   9.681 -0.3786 -1.7624 -1.3330
  987MOL0     H30265   9.117   7.569   9.575 -1.0884 -1.4805  2.2991
  987MOL0     H30266   9.698   8.544   9.692 -1.0095  1.0730  0.5402
  987MOL0     H30267   9.934   8.633   9.750  1.5757 -1.5941 -0.6712
  987MOL0     H30268  10.355   8.629   9.597 -0.3206 -1.0868  0.2724
  987MOL0     H30269  10.580   8.683   9.599  2.6591 -1.5782  0.9577
  987MOL0     H30270  11.266   9.575   9.753 -0.8756  2.0776 -0.4468
  987MOL0     H30271  11.085   9.392   9.774 -1.7733  1.2264  0.8587
  987MOL0     H30272  10.629   9.336   9.784  0.1647 -1.1174 -1.2079
  987MOL0     H30273  10.449   9.178   9.843 -0.4753  1.5619 -0.9907
  987MOL0     H30274  10.327   9.023   9.901  1.6145 -0.6596  1.3417
  987MOL0     H30275  10.439   8.887   9.897 -0.5242 -0.8640  1.3407
  987MOL0     H30276  10.256   8.771   9.743 -1.5069 -0.4563  1.2568
  987MOL0     H30277  10.241   8.778   9.921 -0.3553 -2.3099 -0.0594
  987MOL0     H30278  10.079   8.948   9.904  0.3348  0.9784 -0.4486
  987MOL0     H30279  10.033   8.810   9.782  1.1825 -0.4832 -1.6917
  987MOL0     H30280  10.159   9.082   9.721  0.2611 -0.0205 -0.1343
  987MOL0     H30281  10.059   8.974   9.616  0.3969  2.6042 -0.5274
  987MOL0     H30282   9.804   9.231   9.841  1.0329  3.3105 -1.2098
  987MOL0     H30283  10.570   8.941   9.499  1.1462  2.5639 -4.3939
  987MOL0     H30284  10.740   9.079   9.461 -1.6603  1.5885 -1.4568
  988MOL0     O30285   2.392  10.418   0.853  0.6628  0.9519 -0.7671
  988MOL0     C30286   2.286  10.366   0.810  0.1981 -0.7902 -0.4155
  988MOL0     O30287   2.181  10.439   0.746  0.3134  1.0795  0.6330
  988MOL0     C30288   2.197  10.570   0.716  0.2708  1.0509  0.3746
  988MOL0     C30289   2.231  10.665   0.813 -0.5461 -0.3269 -0.4649
  988MOL0     C30290   2.268  10.791   0.774  0.1726 -0.6827 -0.6635
  988MOL0     C30291   2.276  10.842   0.645  0.9570 -0.0728  0.0358
  988MOL0     O30292   2.314  10.972   0.621 -0.4305  0.0275  0.3864
  988MOL0     C30293   2.270  11.027   0.500 -0.3564  0.0343 -0.5114
  988MOL0     C30294   2.288  11.181   0.500  0.5643 -0.4798 -0.1451
  988MOL0     C30295   2.254  11.242   0.626  0.7664 -0.7144 -0.5048
  988MOL0     C30296   2.233  11.394   0.615  0.2292  0.2245  0.4577
  988MOL0     C30297   2.176  11.450   0.750 -0.6134 -0.7329  0.4209
  988MOL0     C30298   2.114  11.602   0.728 -0.1018  0.0775 -0.7754
  988MOL0     C30299   2.099  11.687   0.848 -0.0968 -0.5510  0.0494
  988MOL0     C30300   1.989  11.665   0.950 -0.6663 -0.4660 -0.0177
  988MOL0     N30301   2.007  11.526   1.010  0.1272  0.2385  1.5666
  988MOL0     C30302   2.099  11.481   1.097 -0.8836 -0.8963 -0.1338
  988MOL0     C30303   2.049  11.357   1.129  0.1596 -0.1565  0.1923
  988MOL0     C30304   2.121  11.244   1.207  0.0821  0.9006 -0.1597
  988MOL0     C30305   2.204  11.174   1.105 -0.4910 -0.0006 -0.1852
  988MOL0     C30306   2.133  11.108   0.988 -0.8243 -0.5660  0.5754
  988MOL0     C30307   2.023  11.015   1.024  0.2510  0.9579 -0.1349
  988MOL0     O30308   2.078  10.906   1.099 -0.3189  0.2350 -0.7023
  988MOL0     C30309   2.033  10.779   1.077 -0.5008  0.2126  0.1473
  988MOL0     C30310   2.097  10.670   1.149 -0.1402  0.3796 -0.4022
  988MOL0     C30311   2.050  10.539   1.143 -0.0986 -0.5582  0.0232
  988MOL0     C30312   1.961  10.505   1.029  0.1574 -0.4529 -1.5693
  988MOL0     C30313   1.933  10.364   1.009  0.2416 -0.5276  0.4332
  988MOL0     O30314   1.971  10.273   1.108  0.1860 -0.3606 -0.3370
  988MOL0     C30315   1.932  10.148   1.099 -1.1046  0.6635  0.3434
  988MOL0     C30316   1.796  10.117   1.118 -0.2216 -0.4472  0.3331
  988MOL0     C30317   1.748   9.983   1.106 -0.4106  0.2403 -0.2911
  988MOL0     C30318   1.831   9.885   1.065  0.2665  0.0325  1.3692
  988MOL0     O30319   1.765   9.767   1.048  0.4686  0.6089  0.0676
  988MOL0     C30320   1.830   9.648   0.983  0.4386 -0.4208 -0.6776
  988MOL0     C30321   1.719   9.571   0.906 -0.0001  0.4245  0.0755
  988MOL0     C30322   1.580   9.551   0.974 -0.5037 -1.2333  0.3399
  988MOL0     C30323   1.582   9.450   1.093  0.9880  0.4819  0.8665
  988MOL0     C30324   1.448   9.428   1.147 -0.7767 -0.4868  0.2967
  988MOL0     C30325   1.360   9.553   1.155 -0.2489 -0.3667  0.3652
  988MOL0     C30326   1.406   9.655   1.269  0.6290 -0.1016  0.3525
  988MOL0     C30327   1.353   9.793   1.259  0.2973  0.3517 -0.3518
  988MOL0    Cl30328   1.328   9.828   1.437 -0.4022 -0.0309  0.4728
  988MOL0     C30329   1.967   9.913   1.056  0.7091 -0.4801  0.2533
  988MOL0     C30330   2.022  10.040   1.075 -0.2628 -0.2487 -0.1508
  988MOL0     O30331   1.892  10.331   0.895 -0.4117  0.6567 -0.6920
  988MOL0     C30332   1.910  10.611   0.954 -0.3557  0.8954 -0.9674
  988MOL0     C30333   1.941  10.744   0.980 -0.3269  0.3613 -0.0719
  988MOL0     N30334   1.929  11.333   1.072 -0.8619 -1.2915 -0.7771
  988MOL0     N30335   1.901  11.437   1.007 -0.0811  0.3143  0.3183
  988MOL0     C30336   2.234  10.745   0.548  0.5709  0.0578  0.1584
  988MOL0     C30337   2.189  10.619   0.581  0.1287  0.7919 -0.5030
  988MOL0     C30338   2.259  10.221   0.808 -0.0338 -0.4794 -0.7686
  988MOL0     C30339   2.137  10.167   0.763 -0.7492 -0.4284  0.0848
  988MOL0     C30340   2.118  10.027   0.758 -0.4387 -0.3113 -0.4148
  988MOL0     C30341   2.220   9.944   0.801  0.1831 -0.7118 -0.8630
  988MOL0     O30342   2.195   9.811   0.796  0.4387  0.5602  0.6870
  988MOL0     C30343   2.181   9.758   0.659 -0.7065  0.5889  0.3881
  988MOL0     C30344   2.306   9.738   0.592  0.1877  0.2935  0.1431
  988MOL0     C30345   2.419   9.668   0.683 -0.7396  0.6834  0.0679
  988MOL0     C30346   2.539   9.624   0.593  0.0905 -0.2181 -0.1836
  988MOL0     C30347   2.631   9.718   0.541  0.7895  0.9143  0.2909
  988MOL0     C30348   2.713   9.798   0.502 -0.6001 -0.0632 -0.6892
  988MOL0     C30349   2.335   9.998   0.847  0.1140 -0.2618 -0.6728
  988MOL0     C30350   2.357  10.134   0.862  0.4164  0.0354  0.5193
  988MOL0     H30351   2.244  10.636   0.917 -2.3430  0.9707  0.1677
  988MOL0     H30352   2.297  10.864   0.849 -2.5653  0.6941 -0.8099
  988MOL0     H30353   2.163  11.010   0.484 -1.4847  4.1131  1.4102
  988MOL0     H30354   2.333  10.986   0.421  2.3113 -0.5712  1.8129
  988MOL0     H30355   2.224  11.228   0.425  4.6291  2.9982 -1.7972
  988MOL0     H30356   2.387  11.196   0.458  0.4162  3.8121  0.5979
  988MOL0     H30357   2.334  11.233   0.700  0.3974 -1.0417 -0.1418
  988MOL0     H30358   2.172  11.188   0.674  1.1629 -1.5754 -0.7693
  988MOL0     H30359   2.332  11.433   0.592  2.0840 -2.3312  3.2906
  988MOL0     H30360   2.157  11.404   0.537 -1.0262 -0.9319  1.4943
  988MOL0     H30361   2.254  11.464   0.825 -0.6981  0.1734  0.3491
  988MOL0     H30362   2.101  11.383   0.793 -1.4120 -0.1225 -0.0041
  988MOL0     H30363   2.019  11.608   0.673  0.2876  1.7585 -1.3365
  988MOL0     H30364   2.176  11.653   0.654 -0.4290 -2.7330 -3.1916
  988MOL0     H30365   2.195  11.700   0.899 -0.3807 -0.0701  0.4765
  988MOL0     H30366   2.088  11.786   0.804 -1.7580 -0.6461  0.2053
  988MOL0     H30367   1.886  11.663   0.912 -1.6561  1.6223  2.2309
  988MOL0     H30368   1.992  11.748   1.021 -2.3490 -0.7927  0.4818
  988MOL0     H30369   2.201  11.511   1.121 -1.5972  0.4600  1.4102
  988MOL0     H30370   2.050  11.175   1.253 -1.8233  2.2105 -1.0168
  988MOL0     H30371   2.196  11.269   1.282  1.4585 -1.9602 -0.4400
  988MOL0     H30372   2.273  11.107   1.157  1.9305  1.8456 -0.8437
  988MOL0     H30373   2.277  11.248   1.071 -0.2229 -0.5009 -0.7290
  988MOL0     H30374   2.095  11.195   0.932 -1.0626 -0.5139  0.8190
  988MOL0     H30375   2.202  11.052   0.924 -0.8563  1.2278 -1.1488
  988MOL0     H30376   1.979  10.993   0.926  3.6687 -0.3212 -1.5686
  988MOL0     H30377   1.952  11.068   1.087  0.9938  1.9039 -0.0690
  988MOL0     H30378   2.177  10.708   1.213 -0.7855 -1.3911  1.5814
  988MOL0     H30379   2.092  10.472   1.218  0.6003 -0.5116 -0.3174
  988MOL0     H30380   1.734  10.201   1.149  1.1099  0.5192  0.4481
  988MOL0     H30381   1.647   9.952   1.131  0.0224  0.7040  2.4410
  988MOL0     H30382   1.894   9.589   1.048  1.1334  1.9659  0.8975
  988MOL0     H30383   1.890   9.692   0.903 -2.5738 -0.0067 -2.9361
  988MOL0     H30384   1.748   9.475   0.862 -2.4860 -0.9703  1.2386
  988MOL0     H30385   1.704   9.634   0.819 -0.9963 -0.4732 -0.4217
  988MOL0     H30386   1.519   9.513   0.891  0.2141 -1.5704 -0.0415
  988MOL0     H30387   1.548   9.646   1.018  1.1746  0.0711 -1.0947
  988MOL0     H30388   1.638   9.358   1.073  0.9489  0.8226 -0.9530
  988MOL0     H30389   1.646   9.498   1.168  1.3091  0.9689  0.2864
  988MOL0     H30390   1.444   9.398   1.252  0.5432  0.8509  0.7602
  988MOL0     H30391   1.396   9.349   1.091  0.5388 -1.1045 -0.1030
  988MOL0     H30392   1.260   9.520   1.186 -1.3893  3.7694  1.6209
  988MOL0     H30393   1.345   9.593   1.054 -1.2637 -1.0751  0.2132
  988MOL0     H30394   1.383   9.601   1.362 -0.2119  1.0275  0.8212
  988MOL0     H30395   1.514   9.663   1.280  0.5646 -1.6653  2.9253
  988MOL0     H30396   1.254   9.782   1.215 -0.1316 -1.6994  0.9789
  988MOL0     H30397   1.404   9.866   1.196 -1.6062 -0.9520 -3.6362
  988MOL0     H30398   2.041   9.841   1.023 -0.2196 -1.3730  0.0650
  988MOL0     H30399   2.129  10.055   1.070 -0.5646  1.8192 -1.7570
  988MOL0     H30400   1.832  10.594   0.881  1.2607  0.6240 -2.6884
  988MOL0     H30401   1.889  10.813   0.914 -0.4755  0.2194 -0.1022
  988MOL0     H30402   2.243  10.783   0.447  2.8884  1.0052  0.6398
  988MOL0     H30403   2.145  10.548   0.512 -1.8319 -2.2402  3.4016
  988MOL0     H30404   2.053  10.231   0.737  0.8855  2.9690  2.4203
  988MOL0     H30405   2.027   9.988   0.713  1.2201 -0.4826 -3.9871
  988MOL0     H30406   2.097   9.800   0.604  0.3032  2.1351 -0.0261
  988MOL0     H30407   2.132   9.660   0.668  1.0457 -0.3865 -0.0680
  988MOL0     H30408   2.284   9.676   0.505  1.7868 -2.5999  1.6477
  988MOL0     H30409   2.343   9.835   0.557 -3.7582  0.7187 -3.8685
  988MOL0     H30410   2.389   9.573   0.729 -0.5082 -0.2215 -1.5420
  988MOL0     H30411   2.454   9.737   0.760  0.9115  2.3511 -2.0321
  988MOL0     H30412   2.586   9.547   0.655  0.1470 -1.2815 -1.4972
  988MOL0     H30413   2.488   9.563   0.518  1.5413  0.8330 -2.1195
  988MOL0     H30414   2.773   9.886   0.488 -1.0573  0.3329 -0.2126
  988MOL0     H30415   2.416   9.929   0.866 -0.7058 -1.1606 -0.3585
  988MOL0     H30416   2.453  10.177   0.888 -0.1268  1.3150  0.5017
  989MOL0     O30417   1.911   3.725  10.117  0.1476 -0.9945  0.0013
  989MOL0     C30418   2.029   3.683  10.109 -0.4038  0.3736  0.0897
  989MOL0     O30419   2.138   3.748  10.167  1.0165  1.0151 -0.2957
  989MOL0     C30420   2.111   3.865  10.227  0.2529 -0.3043 -0.5335
  989MOL0     C30421   2.041   3.972  10.168  0.4011 -0.3607 -0.4891
  989MOL0     C30422   2.035   4.095  10.231  0.4651 -0.1562 -0.1674
  989MOL0     C30423   2.080   4.118  10.360 -0.8423 -0.6717 -0.4060
  989MOL0     O30424   2.046   4.238  10.422 -0.2831 -0.5831  0.1711
  989MOL0     C30425   2.145   4.298  10.512 -0.1192 -0.6366 -0.2691
  989MOL0     C30426   2.272   4.356  10.435  0.5346  0.4381 -0.5250
  989MOL0     C30427   2.361   4.419  10.546 -0.0855 -0.0263  0.4986
  989MOL0     C30428   2.492   4.464  10.475  0.0121  0.2638 -0.1345
  989MOL0     C30429   2.549   4.596  10.521 -0.2624 -0.6988 -0.0438
  989MOL0     C30430   2.603   4.602  10.660  0.3531 -0.2605  1.3689
  989MOL0     C30431   2.612   4.748  10.716  0.0879  0.2028  0.1851
  989MOL0     C30432   2.472   4.817  10.746 -0.3581 -0.2268 -0.5706
  989MOL0     N30433   2.501   4.947  10.812 -1.4698  0.1899 -1.1318
  989MOL0     C30434   2.514   5.059  10.744 -0.1189  0.2188  0.0997
  989MOL0     C30435   2.548   5.151  10.836  0.2811 -0.3715  1.1307
  989MOL0     C30436   2.575   5.307  10.821 -1.2497 -0.0468  0.7671
  989MOL0     C30437   2.443   5.377  10.782 -0.4230 -0.5243  0.1591
  989MOL0     C30438   2.328   5.346  10.881  0.2945 -0.7530 -0.4452
  989MOL0     C30439   2.207   5.438  10.857 -0.3888 -0.2087  1.0293
  989MOL0     O30440   2.153   5.402  10.732  0.3519 -0.4689  0.9030
  989MOL0     C30441   2.034   5.455  10.690 -0.4846  0.4021 -0.2621
  989MOL0     C30442   1.972   5.374  10.596 -1.1662  0.1508  0.0122
  989MOL0     C30443   1.849   5.408  10.541 -0.0980  0.2381 -0.2516
  989MOL0     C30444   1.782   5.529  10.590 -0.4948  0.6941 -0.1241
  989MOL0     C30445   1.649   5.558  10.539 -0.2356  0.7932 -0.2509
  989MOL0     O30446   1.585   5.657  10.603 -0.1877  0.1040 -0.9755
  989MOL0     C30447   1.451   5.683  10.586  0.3204 -0.6099  0.4827
  989MOL0     C30448   1.353   5.605  10.521 -0.6414  0.3379 -0.5555
  989MOL0     C30449   1.215   5.639  10.524 -0.7084  0.4232 -0.3826
  989MOL0     C30450   1.168   5.755  10.588  0.1668  0.4375  1.3727
  989MOL0     O30451   1.037   5.789  10.592  0.2701 -0.6094  0.0868
  989MOL0     C30452   0.972   5.829  10.472 -0.2809  0.1299  0.2615
  989MOL0     C30453   0.831   5.881  10.503 -0.3520 -0.1198 -0.1492
  989MOL0     C30454   0.824   5.989  10.614  0.3490 -0.0554 -0.4339
  989MOL0     C30455   0.686   6.056  10.599  0.2775  0.2851 -0.0724
  989MOL0     C30456   0.691   6.161  10.706  0.1611  0.2477 -0.8475
  989MOL0     C30457   0.570   6.254  10.700 -0.8041  0.1420  0.8874
  989MOL0     C30458   0.528   6.306  10.843 -0.0774 -1.0805  0.3022
  989MOL0     C30459   0.471   6.451  10.834 -1.0084 -0.0749 -0.5096
  989MOL0    Cl30460   0.427   6.516  10.983  0.3145  0.1910 -0.6243
  989MOL0     C30461   1.264   5.843  10.640 -0.6012 -0.6611  0.3164
  989MOL0     C30462   1.404   5.805  10.634 -0.2126  1.0207  0.5768
  989MOL0     O30463   1.609   5.501  10.442 -0.0627  0.4989  0.3241
  989MOL0     C30464   1.839   5.600  10.700  1.3470  0.1672  1.2376
  989MOL0     C30465   1.967   5.564  10.742  0.7941  0.0176 -0.4985
  989MOL0     N30466   2.554   5.091  10.957 -0.4605  1.2517  0.0700
  989MOL0     N30467   2.522   4.966  10.946  0.2444  0.2528  0.2471
  989MOL0     C30468   2.149   4.017  10.413  0.8182  0.8771  0.0427
  989MOL0     C30469   2.173   3.892  10.353  0.4840  0.4268 -0.0856
  989MOL0     C30470   2.060   3.555  10.036 -1.5210 -0.2717  0.4131
  989MOL0     C30471   2.014   3.544   9.906 -1.1468  1.1775  0.4322
  989MOL0     C30472   2.066   3.435   9.833  0.4020 -0.5510 -0.7716
  989MOL0     C30473   2.141   3.334   9.881 -1.4150  0.2177 -1.4459
  989MOL0     O30474   2.178   3.222   9.818  0.8928  0.6009  0.3351
  989MOL0     C30475   2.317   3.191   9.820  0.3220  0.1380 -0.5106
  989MOL0     C30476   2.341   3.068   9.910  0.0293 -0.2649 -0.0733
  989MOL0     C30477   2.309   2.925   9.844  0.2459 -0.3000 -0.7278
  989MOL0     C30478   2.155   2.908   9.842  0.5001 -0.6848  0.1003
  989MOL0     C30479   2.114   2.771   9.828  1.1699 -0.9789  0.5772
  989MOL0     C30480   2.060   2.664   9.811 -0.3341 -0.0108 -0.0502
  989MOL0     C30481   2.181   3.348  10.016  0.6542 -1.0102 -0.5130
  989MOL0     C30482   2.144   3.458  10.092 -0.5635 -0.2375  0.0861
  989MOL0     H30483   2.005   3.961  10.066  3.1511  2.5824 -1.9633
  989MOL0     H30484   2.000   4.184  10.180  2.4259  0.8791  0.1999
  989MOL0     H30485   2.162   4.224  10.590 -0.0553 -1.0551 -0.6753
  989MOL0     H30486   2.103   4.384  10.565  1.4531 -0.1373  0.2248
  989MOL0     H30487   2.245   4.431  10.360 -1.5094  0.9351  0.6515
  989MOL0     H30488   2.331   4.280  10.383 -0.2335  1.5123 -3.1545
  989MOL0     H30489   2.386   4.341  10.618  2.4696 -2.2656 -2.5247
  989MOL0     H30490   2.306   4.503  10.589  0.1720  1.2153 -1.4582
  989MOL0     H30491   2.567   4.385  10.476 -0.1391  0.1078 -0.6733
  989MOL0     H30492   2.472   4.486  10.370  0.5257 -1.1905 -0.5571
  989MOL0     H30493   2.458   4.657  10.525 -0.6090 -0.9293 -2.8229
  989MOL0     H30494   2.625   4.632  10.453  1.2732 -3.0250  0.3265
  989MOL0     H30495   2.699   4.552  10.672  0.1673 -0.7240  0.9764
  989MOL0     H30496   2.527   4.550  10.720  1.0289 -2.0041  0.7874
  989MOL0     H30497   2.669   4.734  10.809  0.2508 -0.8296 -0.0550
  989MOL0     H30498   2.672   4.808  10.649 -1.1002 -1.2704 -2.3346
  989MOL0     H30499   2.416   4.750  10.812 -0.2555  2.6070  2.5977
  989MOL0     H30500   2.410   4.824  10.656  1.0164 -2.2247 -1.7776
  989MOL0     H30501   2.506   5.060  10.635 -1.4623 -3.6262  0.0119
  989MOL0     H30502   2.652   5.331  10.747 -0.0944 -3.6384  0.6146
  989MOL0     H30503   2.606   5.344  10.919 -1.1331  1.3800  0.2292
  989MOL0     H30504   2.423   5.350  10.678  2.8206 -2.7483 -0.0387
  989MOL0     H30505   2.466   5.484  10.788  0.8816 -0.7960  0.4978
  989MOL0     H30506   2.293   5.243  10.865  0.1701 -0.9882  1.2296
  989MOL0     H30507   2.371   5.360  10.980 -0.6301 -0.4310 -0.0806
  989MOL0     H30508   2.239   5.543  10.860 -2.3039  0.4101  1.6168
  989MOL0     H30509   2.124   5.423  10.927 -2.3860  1.6212 -0.7430
  989MOL0     H30510   2.029   5.288  10.564  1.0701  2.1054 -1.6281
  989MOL0     H30511   1.820   5.356  10.449  0.6944  0.5914 -0.7085
  989MOL0     H30512   1.390   5.509  10.486 -0.7582 -0.0268  0.2862
  989MOL0     H30513   1.138   5.584  10.469 -1.1175 -0.7204  1.2555
  989MOL0     H30514   0.976   5.735  10.416  0.2484  0.7721 -0.8161
  989MOL0     H30515   1.031   5.897  10.410  1.4039 -2.0919 -0.6811
  989MOL0     H30516   0.778   5.794  10.544  2.1298 -1.2919  0.7766
  989MOL0     H30517   0.783   5.919  10.412  0.4579  1.2865 -0.0116
  989MOL0     H30518   0.903   6.060  10.588  0.4178 -0.3822 -1.1323
  989MOL0     H30519   0.843   5.954  10.715 -0.6554 -0.5689 -0.4087
  989MOL0     H30520   0.668   6.093  10.498  1.5829 -1.5704 -1.0519
  989MOL0     H30521   0.602   5.990  10.621 -0.9748  1.2010 -1.9020
  989MOL0     H30522   0.774   6.229  10.684 -0.0016  1.0052  0.7993
  989MOL0     H30523   0.701   6.120  10.807 -1.6174  5.2197  1.6445
  989MOL0     H30524   0.480   6.216  10.650 -2.1094  2.6347  1.1700
  989MOL0     H30525   0.596   6.343  10.643  0.9067 -1.6743 -1.3847
  989MOL0     H30526   0.453   6.242  10.890 -1.7625  1.2975  1.0865
  989MOL0     H30527   0.619   6.292  10.902  0.1971 -4.6094 -0.7427
  989MOL0     H30528   0.400   6.456  10.751  1.8876 -1.6146 -3.3098
  989MOL0     H30529   0.551   6.511  10.790 -1.4571  0.5987 -0.4103
  989MOL0     H30530   1.236   5.941  10.678  0.9494  1.3228 -3.1696
  989MOL0     H30531   1.468   5.885  10.670 -2.3452  3.2391 -0.3130
  989MOL0     H30532   1.781   5.680  10.745 -3.9663 -1.6871 -1.4919
  989MOL0     H30533   2.002   5.632  10.819 -1.6439 -0.1916  0.9142
  989MOL0     H30534   2.195   4.030  10.511  1.3589 -1.0380  0.0948
  989MOL0     H30535   2.237   3.822  10.406 -0.4520 -2.4463 -2.4683
  989MOL0     H30536   1.963   3.622   9.849 -2.1961 -0.0893 -0.4312
  989MOL0     H30537   2.043   3.449   9.728  2.2611 -2.4819 -1.5225
  989MOL0     H30538   2.367   3.281   9.855 -0.3921  0.4674 -0.3328
  989MOL0     H30539   2.359   3.167   9.722  2.8336  1.8544  0.0569
  989MOL0     H30540   2.445   3.057   9.942 -0.2143 -1.7966  0.2895
  989MOL0     H30541   2.280   3.073  10.000  0.0009 -4.3043  0.3245
  989MOL0     H30542   2.341   2.844   9.911 -3.8349 -1.4197  0.2062
  989MOL0     H30543   2.343   2.907   9.742  0.8917  0.9156 -0.7380
  989MOL0     H30544   2.121   2.944   9.940  0.6124  1.2377 -0.5366
  989MOL0     H30545   2.113   2.973   9.764 -0.7206 -0.5076  0.8685
  989MOL0     H30546   2.011   2.570   9.795 -3.2356  1.5801 -1.2924
  989MOL0     H30547   2.224   3.276  10.086 -0.2362  1.1574  2.4575
  989MOL0     H30548   2.191   3.468  10.189  3.7841  2.7752 -1.9973
  990MOL0     O30549   9.799   0.703   4.004 -0.5138  0.1163 -0.0179
  990MOL0     C30550   9.763   0.813   3.963 -0.6331 -0.0740  0.4991
  990MOL0     O30551   9.651   0.885   4.022 -0.3708 -0.4519  0.4735
  990MOL0     C30552   9.562   0.823   4.110 -0.0998  0.7753  1.0569
  990MOL0     C30553   9.482   0.716   4.064 -0.1931 -0.3186  0.9849
  990MOL0     C30554   9.406   0.638   4.157  0.3191  0.2453  0.0409
  990MOL0     C30555   9.394   0.693   4.286 -1.1719  0.3807 -0.0730
  990MOL0     O30556   9.314   0.624   4.375  0.4713  0.1436 -0.0225
  990MOL0     C30557   9.251   0.707   4.469 -1.0543 -0.6929 -0.4249
  990MOL0     C30558   9.157   0.623   4.547 -0.0199 -0.1633 -0.6245
  990MOL0     C30559   9.053   0.546   4.467  0.1958  0.0428  1.0622
  990MOL0     C30560   8.903   0.585   4.496  0.2606  0.5360 -0.7939
  990MOL0     C30561   8.850   0.529   4.626 -0.4610  0.2291  0.4236
  990MOL0     C30562   8.841   0.377   4.631  0.6461  0.0302 -0.0543
  990MOL0     C30563   8.819   0.318   4.767  0.7156  1.1853  0.2211
  990MOL0     C30564   8.686   0.350   4.837  0.1216  0.0586 -0.0821
  990MOL0     N30565   8.565   0.342   4.752 -0.3112  0.0647  0.2405
  990MOL0     C30566   8.506   0.222   4.733 -0.3672 -0.4753  0.6711
  990MOL0     C30567   8.408   0.245   4.647  0.0202 -0.9683 -0.4829
  990MOL0     C30568   8.324   0.141   4.581 -0.1359  0.0998 -0.1332
  990MOL0     C30569   8.188   0.193   4.575  0.2681  0.2029  0.0091
  990MOL0     C30570   8.099   0.090   4.528 -0.5275  0.0105  0.0003
  990MOL0     C30571   7.993   0.165   4.431  0.1962 -0.0043  0.0048
  990MOL0     O30572   7.926   0.276   4.496 -0.3091 -0.0877 -0.3920
  990MOL0     C30573   7.850   0.250   4.610 -0.6716  0.4104  0.4030
  990MOL0     C30574   7.814   0.127   4.655  0.0461  0.2829  0.1186
  990MOL0     C30575   7.733   0.103   4.757 -0.4668  0.1193 -0.0759
  990MOL0     C30576   7.680   0.213   4.833 -0.7319  0.5067 -0.5641
  990MOL0     C30577   7.606   0.186   4.953  0.0781 -0.1381 -0.2771
  990MOL0     O30578   7.544   0.069   4.967 -0.0487 -0.0782 -0.4340
  990MOL0     C30579   7.420   0.064   5.036 -0.4918 -0.0095 -0.4252
  990MOL0     C30580   7.391  -0.045   5.124  0.3977  0.2180  0.1959
  990MOL0     C30581   7.269  -0.046   5.192 -0.6065  0.5850  0.0114
  990MOL0     C30582   7.175   0.058   5.186 -0.2574  0.0072 -0.1793
  990MOL0     O30583   7.049   0.043   5.238  0.3049  0.2944 -0.1791
  990MOL0     C30584   6.991   0.158   5.314  0.6536 -1.1491 -0.3447
  990MOL0     C30585   6.838   0.136   5.309 -1.2465 -0.7957  0.4874
  990MOL0     C30586   6.790   0.175   5.172 -0.0326  0.4108  0.3238
  990MOL0     C30587   6.640   0.147   5.159 -0.3532 -0.4025  0.2563
  990MOL0     C30588   6.591   0.184   5.029  0.3441  0.4119  1.3174
  990MOL0     C30589   6.453   0.120   5.005  0.4444 -0.6870 -0.0309
  990MOL0     C30590   6.409   0.161   4.863 -0.1904  0.4906 -0.0613
  990MOL0     C30591   6.269   0.117   4.861  1.0556 -0.5589  0.1131
  990MOL0    Cl30592   6.183   0.259   4.947 -0.1832  0.1157 -0.3786
  990MOL0     C30593   7.201   0.162   5.109 -0.4229  0.3520  0.8377
  990MOL0     C30594   7.316   0.164   5.021  0.1604  0.6996  1.2375
  990MOL0     O30595   7.593   0.287   5.022  0.9437  0.2778  0.0623
  990MOL0     C30596   7.703   0.340   4.783  0.0291 -0.0557  0.3609
  990MOL0     C30597   7.793   0.360   4.675  0.3377  0.5905 -1.1718
  990MOL0     N30598   8.406   0.383   4.612 -0.6691 -0.5410  0.3172
  990MOL0     N30599   8.500   0.440   4.678 -0.2572  1.2302 -0.0975
  990MOL0     C30600   9.475   0.802   4.335  0.6502 -0.5043  1.1497
  990MOL0     C30601   9.559   0.868   4.241 -0.0269  0.0751 -0.7817
  990MOL0     C30602   9.834   0.894   3.863  0.7197  0.7883  0.3304
  990MOL0     C30603   9.785   1.002   3.800  0.1819 -0.9846  0.5911
  990MOL0     C30604   9.853   1.066   3.691  0.0697  0.0207  0.3992
  990MOL0     C30605   9.985   1.029   3.658  0.1031 -1.2042  0.6955
  990MOL0     O30606  10.050   1.105   3.567 -0.0791 -0.2901 -0.2038
  990MOL0     C30607  10.189   1.089   3.540 -0.5568 -0.8775  1.0633
  990MOL0     C30608  10.243   1.194   3.447 -0.4660  0.3803 -0.0117
  990MOL0     C30609  10.244   1.165   3.296  0.1763  0.5965  0.4154
  990MOL0     C30610  10.266   1.289   3.213 -0.7392  0.3030  1.1103
  990MOL0     C30611  10.151   1.375   3.195 -0.3372  0.0445  0.0770
  990MOL0     C30612  10.051   1.437   3.194 -0.2999  0.2618  0.2601
  990MOL0     C30613  10.034   0.915   3.721  0.9089 -0.4043 -0.3257
  990MOL0     C30614   9.961   0.848   3.820 -0.0448  0.3889 -0.2743
  990MOL0     H30615   9.493   0.685   3.960  0.0638  1.2568  0.5079
  990MOL0     H30616   9.354   0.550   4.121  1.4454  0.1206 -1.3431
  990MOL0     H30617   9.191   0.781   4.416  1.2646 -0.5340 -3.0112
  990MOL0     H30618   9.324   0.752   4.537 -0.0526 -0.4191 -1.6496
  990MOL0     H30619   9.102   0.687   4.616 -4.3178 -3.4890 -0.5336
  990MOL0     H30620   9.219   0.556   4.607  0.2310 -1.2716 -2.0743
  990MOL0     H30621   9.069   0.438   4.461  0.1745  0.0831 -0.0450
  990MOL0     H30622   9.062   0.578   4.363 -3.1581 -0.6640  0.4250
  990MOL0     H30623   8.892   0.694   4.494  0.2409  0.5371 -3.7496
  990MOL0     H30624   8.835   0.536   4.427 -1.2749 -1.7844  2.1333
  990MOL0     H30625   8.755   0.578   4.647 -0.1197  1.5742 -1.0304
  990MOL0     H30626   8.927   0.565   4.694 -1.7603  1.3714  1.3483
  990MOL0     H30627   8.931   0.335   4.585  1.2919  0.0972  1.0975
  990MOL0     H30628   8.756   0.349   4.569  2.1825 -1.0078 -1.8189
  990MOL0     H30629   8.824   0.209   4.772 -0.5752  1.0946 -0.0316
  990MOL0     H30630   8.903   0.346   4.831  1.6159  1.2426 -0.9306
  990MOL0     H30631   8.687   0.453   4.875  0.5741 -0.8092  2.4819
  990MOL0     H30632   8.676   0.282   4.922 -0.0527  1.1604  0.8011
  990MOL0     H30633   8.537   0.129   4.780  0.9456 -2.3849 -3.4902
  990MOL0     H30634   8.315   0.055   4.647 -2.2286 -0.6443 -1.3018
  990MOL0     H30635   8.354   0.108   4.481  1.3292  0.6904  0.0906
  990MOL0     H30636   8.196   0.281   4.510 -0.1601  1.6097  1.7722
  990MOL0     H30637   8.144   0.237   4.666 -2.1595  1.3208 -1.5759
  990MOL0     H30638   8.152   0.020   4.462  0.3154 -0.3386  1.0217
  990MOL0     H30639   8.052   0.022   4.599 -0.1294  0.6191  0.8562
  990MOL0     H30640   7.915   0.092   4.412  0.0637  0.8273 -3.0579
  990MOL0     H30641   8.042   0.188   4.336  0.7250 -2.1382 -0.2749
  990MOL0     H30642   7.846   0.031   4.616 -3.8461 -0.8635 -0.7431
  990MOL0     H30643   7.711   0.002   4.788 -1.6369  0.3541 -0.0969
  990MOL0     H30644   7.455  -0.129   5.149 -0.9228 -1.7583 -2.4969
  990MOL0     H30645   7.228  -0.129   5.248  0.4619 -0.5721 -0.8637
  990MOL0     H30646   7.016   0.260   5.287  0.0406 -0.5358  1.2757
  990MOL0     H30647   7.019   0.138   5.418 -0.7337 -0.6524  0.1565
  990MOL0     H30648   6.791   0.199   5.385  0.9029 -0.3248  1.4769
  990MOL0     H30649   6.810   0.032   5.328 -1.5615 -0.6214  1.0184
  990MOL0     H30650   6.838   0.126   5.087 -0.5054  1.7254 -0.7260
  990MOL0     H30651   6.812   0.278   5.146  1.8962  0.2118  0.9772
  990MOL0     H30652   6.615   0.041   5.163 -0.6394 -0.4426 -1.7264
  990MOL0     H30653   6.585   0.201   5.237 -0.6557  1.5101 -1.2269
  990MOL0     H30654   6.661   0.151   4.952 -2.3359 -0.7312 -0.7904
  990MOL0     H30655   6.595   0.293   5.033 -2.6893  0.5822  2.1194
  990MOL0     H30656   6.390   0.176   5.074  1.3543 -0.0712  0.3141
  990MOL0     H30657   6.446   0.012   5.022  1.1992 -0.7959 -0.3662
  990MOL0     H30658   6.428   0.264   4.831  0.2761 -0.6643 -4.0548
  990MOL0     H30659   6.458   0.103   4.783 -1.0045  0.9371 -0.9061
  990MOL0     H30660   6.248   0.021   4.908 -0.0071 -0.1378  0.5293
  990MOL0     H30661   6.224   0.108   4.762  0.5973  1.6627  0.0566
  990MOL0     H30662   7.127   0.239   5.089  2.8440  2.9658 -2.8652
  990MOL0     H30663   7.333   0.248   4.954 -1.0607  0.0853  0.1305
  990MOL0     H30664   7.672   0.430   4.835  2.2562  0.7795  0.3492
  990MOL0     H30665   7.814   0.460   4.639 -0.4632  0.3512 -2.3530
  990MOL0     H30666   9.464   0.842   4.435 -0.9077  1.8716  0.1252
  990MOL0     H30667   9.619   0.954   4.270 -1.3480  0.4096  1.2018
  990MOL0     H30668   9.687   1.040   3.826 -0.6942 -3.6851  1.5604
  990MOL0     H30669   9.820   1.163   3.655  0.8258  0.5389  1.0493
  990MOL0     H30670  10.220   0.995   3.493 -1.1346 -1.8705  2.5734
  990MOL0     H30671  10.237   1.108   3.636  1.3890 -1.0137  0.1638
  990MOL0     H30672  10.198   1.292   3.465 -0.9860  0.4177 -1.3968
  990MOL0     H30673  10.350   1.198   3.467 -0.6650 -1.9343  1.9752
  990MOL0     H30674  10.152   1.111   3.271  0.9125 -0.3877 -0.2863
  990MOL0     H30675  10.321   1.089   3.277 -0.4224 -0.1205  0.7792
  990MOL0     H30676  10.332   1.354   3.272  0.4745 -1.6667  2.0148
  990MOL0     H30677  10.312   1.269   3.116 -0.9642 -1.9234  1.4184
  990MOL0     H30678   9.958   1.489   3.183  0.1885  0.9401 -0.8334
  990MOL0     H30679  10.134   0.874   3.713  1.7815  1.2271  1.4774
  990MOL0     H30680  10.000   0.754   3.856 -1.2023 -0.7816 -1.9210
  991MOL0     O30681   9.986   2.801   9.794 -0.3137 -0.3237  0.1133
  991MOL0     C30682   9.911   2.893   9.804  0.6106 -0.1577 -0.5297
  991MOL0     O30683   9.941   3.001   9.882  0.1903  0.4562  0.7056
  991MOL0     C30684  10.059   3.015   9.942  0.7745 -0.1752  0.0962
  991MOL0     C30685  10.130   3.144   9.932 -0.2602  0.4971  0.9699
  991MOL0     C30686  10.260   3.145   9.986  0.9264 -1.1947  0.2963
  991MOL0     C30687  10.318   3.029  10.044  0.4934 -0.7563 -0.0093
  991MOL0     O30688  10.449   3.036  10.080 -0.0269  0.9549  0.4351
  991MOL0     C30689  10.535   2.923  10.063 -1.2758  0.4869 -0.3714
  991MOL0     C30690  10.681   2.953  10.018  0.3030 -0.1504  0.6750
  991MOL0     C30691  10.687   3.019   9.876  0.1927  0.9326  0.4239
  991MOL0     C30692  10.701   2.910   9.770 -0.2239  0.4848 -0.5912
  991MOL0     C30693  10.633   2.953   9.642  0.4909  0.0937 -0.6509
  991MOL0     C30694  10.696   2.885   9.530  0.2559  1.0120 -0.0917
  991MOL0     C30695  10.696   2.728   9.542  0.7042 -1.3583  0.4986
  991MOL0     C30696  10.561   2.669   9.551  0.3813 -0.1444 -0.4483
  991MOL0     N30697  10.550   2.523   9.530  0.3128 -0.0240 -0.6880
  991MOL0     C30698  10.433   2.458   9.520 -0.1882  0.1184  0.1312
  991MOL0     C30699  10.469   2.330   9.484 -0.7593  0.1676  0.8065
  991MOL0     C30700  10.371   2.225   9.445 -0.7558 -1.0014 -0.1854
  991MOL0     C30701  10.329   2.237   9.295  0.1099 -1.8934  0.9837
  991MOL0     C30702  10.210   2.142   9.266 -0.0242  0.7365  0.8867
  991MOL0     C30703  10.183   2.110   9.112  0.9512 -0.6109  0.0196
  991MOL0     O30704  10.116   2.214   9.049 -0.3096 -0.2189  0.2988
  991MOL0     C30705   9.983   2.204   9.035  0.5745  0.0344  0.2349
  991MOL0     C30706   9.887   2.111   9.089  1.0291  0.9036  0.2550
  991MOL0     C30707   9.748   2.126   9.067  0.0760  0.2104 -1.0369
  991MOL0     C30708   9.702   2.233   8.993  0.1819  0.9656  0.6491
  991MOL0     C30709   9.555   2.261   8.965  0.5646  0.1217  0.0893
  991MOL0     O30710   9.463   2.179   9.034  0.5501 -0.1434 -0.2338
  991MOL0     C30711   9.334   2.180   8.986 -0.6741 -0.3845 -0.1101
  991MOL0     C30712   9.229   2.200   9.074 -0.8285  0.4595 -0.0662
  991MOL0     C30713   9.100   2.205   9.023 -0.1221  0.2637 -0.3558
  991MOL0     C30714   9.070   2.179   8.887 -0.1397 -1.0495  0.6680
  991MOL0     O30715   8.945   2.158   8.832  0.2975 -0.2316  0.1793
  991MOL0     C30716   8.915   2.209   8.702 -0.1361  0.9298  0.0281
  991MOL0     C30717   8.766   2.177   8.679  0.1433  0.0148 -0.6312
  991MOL0     C30718   8.667   2.248   8.768  0.3962 -0.3659 -0.2450
  991MOL0     C30719   8.523   2.235   8.720 -1.0981  0.4409 -0.2686
  991MOL0     C30720   8.439   2.336   8.807 -0.3954 -0.5309  0.0912
  991MOL0     C30721   8.296   2.332   8.770 -0.3609  0.3641  0.5169
  991MOL0     C30722   8.221   2.420   8.861 -0.5536 -0.6929 -0.1157
  991MOL0     C30723   8.077   2.413   8.834 -0.0434  0.1653  0.3152
  991MOL0    Cl30724   8.009   2.252   8.845  0.3684 -0.0606 -0.0203
  991MOL0     C30725   9.175   2.179   8.797 -0.8021  0.9462  0.9271
  991MOL0     C30726   9.309   2.188   8.845  0.5981 -0.2172  1.0294
  991MOL0     O30727   9.524   2.364   8.903  0.2845 -0.2997  1.1080
  991MOL0     C30728   9.788   2.325   8.937 -0.9247  0.0329  0.1792
  991MOL0     C30729   9.919   2.307   8.960 -0.4889 -1.0961 -0.0956
  991MOL0     N30730  10.605   2.320   9.475 -0.5174 -1.0057 -0.5451
  991MOL0     N30731  10.651   2.430   9.507 -0.6255 -0.9172 -1.0180
  991MOL0     C30732  10.239   2.919  10.069  0.0531 -0.2063 -0.2365
  991MOL0     C30733  10.112   2.908  10.011 -0.5546  0.2131 -0.3898
  991MOL0     C30734   9.790   2.876   9.728 -0.0073  0.9105  0.9486
  991MOL0     C30735   9.787   2.779   9.625  0.1664 -0.3977  1.0543
  991MOL0     C30736   9.667   2.771   9.547  1.2185 -0.9240  0.1288
  991MOL0     C30737   9.558   2.858   9.575 -0.1967 -0.8539 -0.4077
  991MOL0     O30738   9.441   2.858   9.517  0.3520 -0.7531 -0.3718
  991MOL0     C30739   9.426   2.825   9.381 -0.0074  0.2150  0.3268
  991MOL0     C30740   9.471   2.925   9.276 -0.1080 -0.9688  0.0582
  991MOL0     C30741   9.408   3.061   9.293 -0.5972 -0.3658 -0.2044
  991MOL0     C30742   9.483   3.161   9.206  0.3304 -0.1745  0.5441
  991MOL0     C30743   9.437   3.160   9.068  1.0047  0.1282 -0.2372
  991MOL0     C30744   9.373   3.137   8.969  0.5998 -0.7239  0.3836
  991MOL0     C30745   9.565   2.942   9.686  0.5212 -0.9349 -0.8951
  991MOL0     C30746   9.675   2.950   9.764  0.4904 -0.0536 -1.0305
  991MOL0     H30747  10.096   3.221   9.864  0.6098 -0.5063 -0.6518
  991MOL0     H30748  10.332   3.226   9.983  1.4300 -1.6655 -0.8789
  991MOL0     H30749  10.486   2.846  10.002 -2.5806  0.2452  0.9329
  991MOL0     H30750  10.551   2.886  10.165 -1.8828 -2.6298 -1.2870
  991MOL0     H30751  10.737   2.860  10.028  1.3118  0.3698  0.0505
  991MOL0     H30752  10.738   3.021  10.084  0.1298  1.9138 -1.1875
  991MOL0     H30753  10.766   3.095   9.864 -0.1324  1.3067  0.6350
  991MOL0     H30754  10.595   3.076   9.859  0.1697  0.3231 -1.8057
  991MOL0     H30755  10.808   2.903   9.752 -0.0228  2.1339 -0.1780
  991MOL0     H30756  10.671   2.812   9.809  1.1884  0.5376  0.7078
  991MOL0     H30757  10.651   3.060   9.634  0.9818  0.4426  3.2738
  991MOL0     H30758  10.529   2.923   9.660  0.1550  2.5159  2.2388
  991MOL0     H30759  10.799   2.920   9.525  1.7301 -2.9789 -2.7472
  991MOL0     H30760  10.648   2.919   9.438  3.4830  3.1367 -1.1195
  991MOL0     H30761  10.740   2.678   9.455  0.5260  0.7189 -0.8664
  991MOL0     H30762  10.744   2.683   9.630  0.9981  0.0422  1.0773
  991MOL0     H30763  10.503   2.724   9.477  0.7367  3.3523  1.5924
  991MOL0     H30764  10.522   2.696   9.650 -0.1111 -0.0619 -0.6614
  991MOL0     H30765  10.336   2.495   9.550 -1.2808 -2.9023  0.6790
  991MOL0     H30766  10.283   2.230   9.510 -1.0585  0.5749 -0.6705
  991MOL0     H30767  10.413   2.127   9.466 -1.1795 -1.5738 -1.8217
  991MOL0     H30768  10.415   2.211   9.233  0.9874 -0.9702  1.7651
  991MOL0     H30769  10.302   2.341   9.272  0.4995 -2.1556 -0.8214
  991MOL0     H30770  10.224   2.044   9.314 -0.5048  0.5639  0.6846
  991MOL0     H30771  10.112   2.162   9.312 -0.9527 -0.7856 -0.3087
  991MOL0     H30772  10.126   2.017   9.101  1.3665 -0.6511 -2.3484
  991MOL0     H30773  10.278   2.091   9.060  0.6885 -3.0890  0.2957
  991MOL0     H30774   9.900   2.028   9.157 -2.2113  1.6699  1.9777
  991MOL0     H30775   9.683   2.051   9.111  1.2383 -2.3165 -3.3149
  991MOL0     H30776   9.259   2.221   9.176  1.6072 -0.4792 -0.5233
  991MOL0     H30777   9.016   2.199   9.092  0.5188 -0.9675  0.3745
  991MOL0     H30778   8.966   2.158   8.619 -0.4381 -0.7201  0.8100
  991MOL0     H30779   8.949   2.311   8.685 -1.3992  1.1717 -1.2585
  991MOL0     H30780   8.752   2.069   8.682 -1.4640  0.2184  2.1077
  991MOL0     H30781   8.738   2.214   8.580 -1.9937  0.6629  0.1536
  991MOL0     H30782   8.691   2.355   8.762 -3.9151  0.7109 -1.5151
  991MOL0     H30783   8.684   2.205   8.868 -0.0617  1.3018  0.5843
  991MOL0     H30784   8.516   2.259   8.613 -0.5935 -4.2240 -1.5595
  991MOL0     H30785   8.495   2.129   8.723  1.7914 -0.3904  0.1739
  991MOL0     H30786   8.477   2.438   8.797  0.6130 -0.4593  3.4614
  991MOL0     H30787   8.466   2.319   8.911  0.2746  0.3073  0.0690
  991MOL0     H30788   8.269   2.227   8.788  0.8808  0.0841  0.8157
  991MOL0     H30789   8.271   2.364   8.669  0.7378 -0.5038 -0.0547
  991MOL0     H30790   8.245   2.400   8.966  1.2284  4.3588  0.7086
  991MOL0     H30791   8.258   2.522   8.851 -0.2094 -0.5971  1.8293
  991MOL0     H30792   8.060   2.446   8.732 -0.4101  0.0927  0.3533
  991MOL0     H30793   8.018   2.487   8.890 -0.2676 -1.3029  2.1197
  991MOL0     H30794   9.167   2.172   8.689  0.5540  2.0748  0.7224
  991MOL0     H30795   9.395   2.184   8.779  0.3668  0.6020  0.6593
  991MOL0     H30796   9.762   2.418   8.887 -0.5484  3.3502  5.3343
  991MOL0     H30797   9.992   2.382   8.930 -0.9546 -1.4494 -2.2561
  991MOL0     H30798  10.282   2.828  10.110  3.2998  0.8858 -0.9314
  991MOL0     H30799  10.052   2.818  10.018  0.5070 -0.6366 -1.7041
  991MOL0     H30800   9.872   2.719   9.597  0.8799  1.8695 -2.1650
  991MOL0     H30801   9.654   2.707   9.461  1.8392 -1.0787  0.1473
  991MOL0     H30802   9.317   2.825   9.372  0.0439 -0.0252 -0.2840
  991MOL0     H30803   9.466   2.725   9.363 -0.5664 -0.2749  1.6639
  991MOL0     H30804   9.579   2.935   9.290  0.0313 -2.4110  0.1680
  991MOL0     H30805   9.453   2.889   9.175  1.5177  1.0290 -1.0345
  991MOL0     H30806   9.411   3.091   9.398 -2.1786  2.4513 -0.8484
  991MOL0     H30807   9.303   3.060   9.262 -0.7423  0.3336  0.2204
  991MOL0     H30808   9.466   3.259   9.250  3.0628 -0.7793  3.2563
  991MOL0     H30809   9.593   3.158   9.205  0.3160 -1.3166 -0.2814
  991MOL0     H30810   9.317   3.093   8.889  3.8508 -0.2423 -2.3903
  991MOL0     H30811   9.479   3.005   9.702  0.2417 -0.3021 -4.1224
  991MOL0     H30812   9.688   3.027   9.839  0.0365 -1.0443  0.0796
  992MOL0     O30813   9.775   9.805   2.772  0.4502 -0.1515  0.1362
  992MOL0     C30814   9.797   9.717   2.689 -0.3630  0.1747 -0.9352
  992MOL0     O30815   9.713   9.619   2.648 -0.5315  0.1369  0.1406
  992MOL0     C30816   9.583   9.626   2.701 -0.6091  0.2062  0.0086
  992MOL0     C30817   9.481   9.646   2.613  0.0395 -0.3464  0.2150
  992MOL0     C30818   9.358   9.651   2.667 -0.0248 -0.0504  0.3729
  992MOL0     C30819   9.321   9.613   2.798 -0.1040  0.0091 -0.5759
  992MOL0     O30820   9.192   9.618   2.818  0.4529  0.3186  0.2635
  992MOL0     C30821   9.139   9.525   2.910 -0.0123  0.4872 -0.0740
  992MOL0     C30822   9.002   9.571   2.955 -0.4667 -0.4358  0.3732
  992MOL0     C30823   8.932   9.466   3.042 -0.3714 -0.2292 -0.2104
  992MOL0     C30824   8.784   9.500   3.037  0.0974 -0.0314  0.0849
  992MOL0     C30825   8.705   9.421   3.146  0.6663 -0.7109 -0.7748
  992MOL0     C30826   8.555   9.446   3.134 -0.2372 -0.9369  0.0721
  992MOL0     C30827   8.482   9.589   3.156  0.0467  0.1503 -0.3691
  992MOL0     C30828   8.485   9.629   3.303 -0.1432 -0.0427  0.2728
  992MOL0     N30829   8.385   9.568   3.381  0.4558 -0.2679 -0.3461
  992MOL0     C30830   8.380   9.444   3.433 -0.1738 -0.0138  0.9677
  992MOL0     C30831   8.261   9.434   3.500  0.9144 -0.3382 -0.3339
  992MOL0     C30832   8.210   9.313   3.559 -0.9265 -0.1046  0.3553
  992MOL0     C30833   8.222   9.183   3.489  0.2530  0.5326  0.1695
  992MOL0     C30834   8.153   9.073   3.576  0.1407 -0.6732 -0.1428
  992MOL0     C30835   8.222   9.061   3.712 -0.5423 -0.2026  0.8040
  992MOL0     O30836   8.194   8.941   3.770 -0.1172  0.3666 -0.7444
  992MOL0     C30837   8.096   8.928   3.867  0.7019 -0.2899 -0.2145
  992MOL0     C30838   8.100   8.810   3.930 -0.8791 -0.4081 -0.1469
  992MOL0     C30839   8.015   8.780   4.035  0.1480  0.0414 -0.0862
  992MOL0     C30840   7.910   8.872   4.064  0.3840 -0.4550  0.2453
  992MOL0     C30841   7.807   8.831   4.165 -0.1339 -0.1274  0.3121
  992MOL0     O30842   7.684   8.884   4.151 -0.1274  0.0306 -0.1469
  992MOL0     C30843   7.598   8.884   4.258 -0.1682  0.4105  0.1847
  992MOL0     C30844   7.461   8.891   4.226 -0.7739  0.1914  0.5051
  992MOL0     C30845   7.362   8.893   4.326  0.3811 -1.3774 -0.8488
  992MOL0     C30846   7.397   8.919   4.463 -0.1383  0.6768 -0.0004
  992MOL0     O30847   7.314   8.935   4.578  0.0872  0.5667 -0.4114
  992MOL0     C30848   7.222   8.824   4.602  0.3758  0.4669  0.4265
  992MOL0     C30849   7.153   8.839   4.736 -0.0943 -0.8555  0.8945
  992MOL0     C30850   7.043   8.736   4.755 -0.3380 -0.0008  0.0308
  992MOL0     C30851   6.960   8.763   4.879 -0.4087  0.0646 -1.1105
  992MOL0     C30852   7.039   8.741   5.013 -0.1691 -0.1838 -0.5233
  992MOL0     C30853   6.950   8.746   5.141 -0.0606  0.0223  0.0827
  992MOL0     C30854   7.023   8.689   5.267 -0.4276 -0.5542 -0.2793
  992MOL0     C30855   6.935   8.686   5.389 -0.9377 -0.0890  0.0772
  992MOL0    Cl30856   6.805   8.578   5.368 -0.2946 -0.1423 -0.1743
  992MOL0     C30857   7.538   8.922   4.482 -0.1559  0.8566  0.8132
  992MOL0     C30858   7.634   8.903   4.389  0.0654 -0.6691  0.1960
  992MOL0     O30859   7.847   8.756   4.253  0.1380  0.4630  0.0864
  992MOL0     C30860   7.906   8.999   4.003  0.7655 -0.0550 -1.1267
  992MOL0     C30861   8.000   9.032   3.906  0.0771 -0.3050  0.1228
  992MOL0     N30862   8.176   9.544   3.475 -0.0396  0.2287  0.2515
  992MOL0     N30863   8.253   9.618   3.409 -0.0159 -0.1800 -0.2105
  992MOL0     C30864   9.429   9.590   2.887 -0.4670  0.0500 -0.4113
  992MOL0     C30865   9.560   9.597   2.839  0.0726  0.3889  0.1272
  992MOL0     C30866   9.930   9.700   2.639 -0.0474  0.6437 -0.4980
  992MOL0     C30867  10.045   9.747   2.713 -1.0988 -0.3821 -0.3323
  992MOL0     C30868  10.179   9.726   2.680 -0.0168  0.5127 -0.3890
  992MOL0     C30869  10.212   9.653   2.568  1.7791  0.2007 -1.3140
  992MOL0     O30870  10.338   9.635   2.523  0.2042 -0.0693  0.3645
  992MOL0     C30871  10.450   9.706   2.581  0.3586 -0.1033  0.3404
  992MOL0     C30872  10.576   9.665   2.503 -0.7892  0.6648 -0.3139
  992MOL0     C30873  10.621   9.529   2.540 -1.0997 -0.5935 -0.3619
  992MOL0     C30874  10.762   9.522   2.485  0.5617 -0.1900  0.5499
  992MOL0     C30875  10.796   9.384   2.444 -0.0767 -1.6148 -0.0299
  992MOL0     C30876  10.838   9.277   2.417 -0.7138  0.6136  0.5150
  992MOL0     C30877  10.106   9.602   2.493 -0.2556  0.3694 -0.4665
  992MOL0     C30878   9.970   9.621   2.525  0.1753 -0.0933 -0.4563
  992MOL0     H30879   9.499   9.670   2.509  0.6499 -1.7377 -0.0246
  992MOL0     H30880   9.282   9.674   2.593  0.3359  0.8438  0.2680
  992MOL0     H30881   9.208   9.510   2.993 -1.0045 -0.1498  0.6532
  992MOL0     H30882   9.136   9.426   2.862  1.7333  1.6858 -2.9590
  992MOL0     H30883   8.944   9.589   2.864 -1.2476 -0.3990  0.8707
  992MOL0     H30884   9.012   9.662   3.014  4.8899  1.0194 -2.1882
  992MOL0     H30885   8.960   9.484   3.146 -1.1717 -0.3951  0.0375
  992MOL0     H30886   8.964   9.363   3.023 -1.3095 -0.5487 -0.0745
  992MOL0     H30887   8.764   9.607   3.047  2.3602  0.2882  1.8628
  992MOL0     H30888   8.740   9.464   2.943  1.7472 -1.4502 -0.1893
  992MOL0     H30889   8.736   9.454   3.246  0.8185 -0.0794 -1.0302
  992MOL0     H30890   8.716   9.312   3.137  0.7675 -0.6675 -1.1594
  992MOL0     H30891   8.505   9.376   3.202 -0.5394 -1.4520 -0.6642
  992MOL0     H30892   8.522   9.426   3.031 -1.4225 -1.2755  0.4933
  992MOL0     H30893   8.534   9.666   3.098 -0.7982  0.5182 -0.6587
  992MOL0     H30894   8.375   9.576   3.138 -0.0326 -4.5314  2.0108
  992MOL0     H30895   8.460   9.735   3.302  0.5823  0.1659  1.6598
  992MOL0     H30896   8.590   9.623   3.332  0.5270  2.6288 -1.2625
  992MOL0     H30897   8.451   9.362   3.434 -2.2982 -1.9383  0.9770
  992MOL0     H30898   8.106   9.336   3.581 -0.8412 -0.1422  0.7931
  992MOL0     H30899   8.274   9.316   3.647  1.7274 -0.4069 -1.4433
  992MOL0     H30900   8.325   9.148   3.478 -0.1097  0.1893 -3.6736
  992MOL0     H30901   8.183   9.198   3.388  2.3596  0.4055 -0.7195
  992MOL0     H30902   8.052   9.106   3.602  0.2680  1.5848 -2.1727
  992MOL0     H30903   8.155   8.979   3.521  0.4270 -0.4301 -0.5586
  992MOL0     H30904   8.190   9.146   3.773 -1.2098 -1.0094  1.6165
  992MOL0     H30905   8.330   9.065   3.694 -1.0641  1.8090 -2.6654
  992MOL0     H30906   8.176   8.740   3.894  0.3774  0.6321  0.3929
  992MOL0     H30907   8.015   8.678   4.072  0.7893  0.2115  0.3866
  992MOL0     H30908   7.428   8.874   4.124  1.3258 -2.6002  0.1677
  992MOL0     H30909   7.256   8.890   4.304  0.7455  0.8543 -3.5429
  992MOL0     H30910   7.265   8.723   4.602  0.7497  0.5990 -1.2741
  992MOL0     H30911   7.151   8.816   4.520  3.6475 -0.1617 -2.6283
  992MOL0     H30912   7.093   8.930   4.739  1.3007  0.2331 -1.5554
  992MOL0     H30913   7.227   8.837   4.817  1.3700 -0.4373 -0.3776
  992MOL0     H30914   7.078   8.633   4.755  3.2554  1.0517 -0.9159
  992MOL0     H30915   6.977   8.744   4.668 -1.0441  0.3554  0.5865
  992MOL0     H30916   6.937   8.870   4.885  0.0348  0.0973  0.6190
  992MOL0     H30917   6.868   8.703   4.883  0.9751 -2.3845 -2.9798
  992MOL0     H30918   7.115   8.817   5.029 -2.7253  2.0562  2.0453
  992MOL0     H30919   7.102   8.652   4.999  1.9093  1.3749 -1.6402
  992MOL0     H30920   6.857   8.689   5.134  0.6121 -0.8960 -2.7092
  992MOL0     H30921   6.916   8.846   5.171  1.8911 -0.1824  3.5501
  992MOL0     H30922   7.072   8.592   5.253 -2.3783 -1.8954  1.5393
  992MOL0     H30923   7.101   8.760   5.296 -0.1684 -0.4151 -1.2893
  992MOL0     H30924   6.900   8.789   5.402  2.3831  1.6686 -2.9517
  992MOL0     H30925   7.005   8.667   5.471  0.7321  0.9087 -1.0339
  992MOL0     H30926   7.591   8.929   4.577  2.0097 -0.0044 -0.2655
  992MOL0     H30927   7.736   8.906   4.425  0.4506  0.1876 -0.9487
  992MOL0     H30928   7.839   9.073   4.047  2.0257  0.9366 -0.8058
  992MOL0     H30929   7.989   9.130   3.861 -0.4115 -1.0775 -1.5186
  992MOL0     H30930   9.420   9.576   2.994  3.2270  4.2230  0.7367
  992MOL0     H30931   9.639   9.579   2.911 -1.1791 -1.7976  1.0371
  992MOL0     H30932  10.042   9.810   2.802  1.0347 -0.6562 -0.0165
  992MOL0     H30933  10.254   9.779   2.739  0.0660  2.2586 -1.9850
  992MOL0     H30934  10.465   9.688   2.688  4.4922  0.6194  0.0559
  992MOL0     H30935  10.421   9.809   2.561 -2.2642 -0.9899 -0.8408
  992MOL0     H30936  10.557   9.665   2.395  0.0964  0.3616 -0.4746
  992MOL0     H30937  10.654   9.738   2.527  0.2351 -1.2459  2.8591
  992MOL0     H30938  10.547   9.458   2.504 -0.1001 -1.1671 -1.3250
  992MOL0     H30939  10.627   9.518   2.649  0.4004  1.6865 -0.1412
  992MOL0     H30940  10.769   9.581   2.394  0.5575  1.0493  1.3252
  992MOL0     H30941  10.839   9.561   2.553 -0.0452  1.1552  0.5154
  992MOL0     H30942  10.893   9.188   2.390 -0.6221  0.5032  1.0459
  992MOL0     H30943  10.123   9.552   2.398  0.9775  0.5738 -0.3747
  992MOL0     H30944   9.902   9.579   2.451 -0.7475 -0.2192  0.4415
  993MOL0     O30945   6.964   2.399   5.508  0.0201 -0.0912 -0.0388
  993MOL0     C30946   7.061   2.433   5.432 -0.2992  0.6785 -0.6149
  993MOL0     O30947   7.127   2.549   5.442  0.3050  0.1086  0.1106
  993MOL0     C30948   7.123   2.622   5.565 -0.2670  0.8035 -0.2164
  993MOL0     C30949   7.239   2.690   5.611  0.2625 -0.4457 -0.9555
  993MOL0     C30950   7.225   2.796   5.698  0.1822 -0.2164  0.4726
  993MOL0     C30951   7.105   2.839   5.746  1.6514  0.0224  1.1682
  993MOL0     O30952   7.100   2.932   5.845 -0.2848  0.1659 -0.1358
  993MOL0     C30953   6.969   2.987   5.880  0.1267  0.2565 -0.0069
  993MOL0     C30954   7.001   3.115   5.948 -0.4788 -0.5924  0.5763
  993MOL0     C30955   6.891   3.209   5.975  0.6935  0.6371 -0.1675
  993MOL0     C30956   6.944   3.330   6.053  1.0481 -0.5366 -0.0532
  993MOL0     C30957   6.827   3.418   6.091  0.2361 -0.0345  0.7441
  993MOL0     C30958   6.862   3.537   6.179  0.3227 -0.9339  0.8604
  993MOL0     C30959   6.913   3.650   6.089  0.4164  0.1278  0.1308
  993MOL0     C30960   6.996   3.746   6.168 -0.0013  0.3139  0.7180
  993MOL0     N30961   6.920   3.872   6.202 -0.3790 -0.1618  0.0595
  993MOL0     C30962   6.989   3.978   6.240 -0.4694 -0.4432 -0.0693
  993MOL0     C30963   6.905   4.069   6.296  0.3543 -0.1991  0.6806
  993MOL0     C30964   6.946   4.204   6.356  0.8462 -0.3585 -0.5728
  993MOL0     C30965   6.843   4.314   6.336  0.5555 -0.4898 -0.2243
  993MOL0     C30966   6.840   4.371   6.194  0.0477 -0.3911 -0.8422
  993MOL0     C30967   6.821   4.518   6.178  0.4143 -0.9906  0.7671
  993MOL0     O30968   6.760   4.555   6.053 -0.0379  1.3625 -0.9231
  993MOL0     C30969   6.645   4.510   6.000 -0.3071 -0.1413  0.1984
  993MOL0     C30970   6.544   4.451   6.081 -0.7370 -0.9710  0.7186
  993MOL0     C30971   6.420   4.433   6.018  0.4587  0.7837 -0.1699
  993MOL0     C30972   6.391   4.457   5.886 -0.0283  0.4930  0.5978
  993MOL0     C30973   6.261   4.409   5.839 -0.3216  0.2292  0.2929
  993MOL0     O30974   6.162   4.428   5.937 -0.1104 -0.4614  0.2658
  993MOL0     C30975   6.028   4.430   5.902  1.0062 -0.9680 -0.9647
  993MOL0     C30976   5.938   4.430   6.013 -0.1802 -0.3682 -0.0080
  993MOL0     C30977   5.803   4.419   6.001  0.5483  0.7745  0.8459
  993MOL0     C30978   5.742   4.418   5.874 -0.4601  0.3938 -0.6373
  993MOL0     O30979   5.617   4.412   5.835 -0.2743  0.3614 -0.0326
  993MOL0     C30980   5.527   4.374   5.940  0.7759  0.7040 -0.6730
  993MOL0     C30981   5.380   4.378   5.905  0.7325  0.3446  0.7330
  993MOL0     C30982   5.285   4.399   6.016 -0.2356 -0.0894 -0.3325
  993MOL0     C30983   5.139   4.397   5.966 -0.3557 -0.1948 -0.0680
  993MOL0     C30984   5.082   4.253   5.949 -0.6448  1.1458  0.7021
  993MOL0     C30985   4.960   4.228   5.849 -1.0420 -0.7108  0.6409
  993MOL0     C30986   4.840   4.292   5.924 -0.0414  0.8455  0.3545
  993MOL0     C30987   4.722   4.311   5.828  1.3147 -0.3799  0.0658
  993MOL0    Cl30988   4.578   4.367   5.908 -0.1674  0.1481 -0.1921
  993MOL0     C30989   5.827   4.440   5.764  0.0528  0.1666 -0.2649
  993MOL0     C30990   5.966   4.435   5.776  0.0989  1.3077  0.3083
  993MOL0     O30991   6.251   4.342   5.737 -0.2244 -0.3575 -0.5823
  993MOL0     C30992   6.486   4.515   5.804 -0.0078  0.1701 -0.1371
  993MOL0     C30993   6.615   4.534   5.865  0.6862  0.7973 -0.0891
  993MOL0     N30994   6.779   4.000   6.305 -0.0187  0.1449 -0.1042
  993MOL0     N30995   6.790   3.884   6.259 -0.4159 -0.3575  0.0981
  993MOL0     C30996   6.992   2.772   5.714  0.2099 -0.1924 -0.1354
  993MOL0     C30997   7.003   2.667   5.621 -0.7314  0.0035 -0.0564
  993MOL0     C30998   7.100   2.339   5.329  0.8044  0.9602  0.7054
  993MOL0     C30999   7.213   2.370   5.265 -0.4549 -0.2086  0.3152
  993MOL0     C31000   7.270   2.279   5.174  0.5578 -0.3329  1.1102
  993MOL0     C31001   7.211   2.153   5.146 -0.8934 -0.3450  0.7053
  993MOL0     O31002   7.246   2.058   5.054 -0.4402 -0.1659  1.1953
  993MOL0     C31003   7.351   2.076   4.962 -0.0177  0.4452 -0.9408
  993MOL0     C31004   7.293   2.019   4.839 -0.0036  0.3279  0.3519
  993MOL0     C31005   7.199   2.128   4.783  0.2511 -0.7198 -0.7361
  993MOL0     C31006   7.160   2.116   4.632  0.5135  0.5323  0.6052
  993MOL0     C31007   7.031   2.191   4.605  0.7479  0.3116  0.6091
  993MOL0     C31008   6.929   2.249   4.593  0.3032 -0.1013  0.0701
  993MOL0     C31009   7.098   2.117   5.224  0.0098 -0.7936  0.7791
  993MOL0     C31010   7.042   2.204   5.314 -1.3082 -0.5064  0.5581
  993MOL0     H31011   7.339   2.672   5.572  1.5100 -1.1678  2.2781
  993MOL0     H31012   7.311   2.856   5.725 -0.8320  2.1491 -1.2353
  993MOL0     H31013   6.913   2.923   5.949  0.1128 -1.5681 -1.6460
  993MOL0     H31014   6.912   3.006   5.789 -1.7019  0.2146  1.0895
  993MOL0     H31015   7.077   3.171   5.892  0.5681 -1.4647  1.0708
  993MOL0     H31016   7.049   3.095   6.045  1.3634  1.2642  0.1284
  993MOL0     H31017   6.817   3.151   6.030 -0.0864  1.3171 -0.4871
  993MOL0     H31018   6.836   3.248   5.890 -1.0773  1.8705  1.4497
  993MOL0     H31019   7.000   3.286   6.136  4.2553  2.6593 -0.3022
  993MOL0     H31020   7.009   3.391   5.990 -0.0118  1.0413  0.3369
  993MOL0     H31021   6.751   3.357   6.141  1.0312 -1.0426  0.7491
  993MOL0     H31022   6.774   3.455   6.003 -0.6177  1.1932  1.7417
  993MOL0     H31023   6.937   3.513   6.255 -0.2923 -1.2909  1.3610
  993MOL0     H31024   6.777   3.567   6.241  1.1685 -0.6419  1.9121
  993MOL0     H31025   6.976   3.599   6.015  1.5126  0.6143  0.7032
  993MOL0     H31026   6.831   3.696   6.034  1.3444 -0.3419 -1.7410
  993MOL0     H31027   7.087   3.762   6.109 -0.0009 -1.9199  0.0130
  993MOL0     H31028   7.028   3.706   6.265  0.1424  3.1792  1.9584
  993MOL0     H31029   7.098   3.987   6.241 -0.5151  0.7611 -2.0090
  993MOL0     H31030   7.034   4.238   6.301  0.2256  0.9461 -0.7946
  993MOL0     H31031   6.961   4.193   6.464 -0.3752  1.3662 -0.1819
  993MOL0     H31032   6.851   4.399   6.404 -2.5058 -0.6411  0.4744
  993MOL0     H31033   6.746   4.265   6.348  1.3681 -2.8147 -2.3011
  993MOL0     H31034   6.926   4.341   6.135  1.0040  1.8311 -0.6833
  993MOL0     H31035   6.755   4.320   6.148  0.5464 -3.3085  1.1932
  993MOL0     H31036   6.914   4.575   6.187  0.6623 -1.0255 -1.1847
  993MOL0     H31037   6.756   4.548   6.261 -0.0466 -1.1105  0.4603
  993MOL0     H31038   6.559   4.431   6.187  0.1722 -0.2274  0.7469
  993MOL0     H31039   6.343   4.402   6.087  1.3831 -0.0036  0.5315
  993MOL0     H31040   5.993   4.422   6.107  0.2330 -1.0067 -0.2992
  993MOL0     H31041   5.754   4.404   6.097  1.5218 -2.5726  0.9598
  993MOL0     H31042   5.521   4.457   6.011 -2.7948  0.1300 -0.1056
  993MOL0     H31043   5.564   4.280   5.983  1.4550  0.8419 -0.9608
  993MOL0     H31044   5.338   4.301   5.840  2.0688 -0.5957  0.9654
  993MOL0     H31045   5.374   4.466   5.840  3.1522 -0.5776 -0.9004
  993MOL0     H31046   5.304   4.495   6.066  1.0858 -0.2409 -0.4909
  993MOL0     H31047   5.288   4.319   6.091  1.2145  0.8712  0.6831
  993MOL0     H31048   5.068   4.451   6.029 -3.0538 -1.6214 -1.6759
  993MOL0     H31049   5.133   4.451   5.871  2.2594 -0.6981 -0.6040
  993MOL0     H31050   5.049   4.228   6.050 -0.4960  0.3046  0.5496
  993MOL0     H31051   5.162   4.185   5.918 -1.6662  0.7519 -1.1596
  993MOL0     H31052   4.952   4.122   5.823 -0.2051 -1.1513  2.0224
  993MOL0     H31053   4.969   4.297   5.765  0.9126 -0.6128  0.8737
  993MOL0     H31054   4.799   4.226   6.001 -1.9237 -0.7627 -1.8854
  993MOL0     H31055   4.868   4.391   5.961  2.2406 -0.1820  1.5666
  993MOL0     H31056   4.692   4.214   5.788  0.2109  0.0508 -0.1866
  993MOL0     H31057   4.759   4.375   5.747  3.8022 -0.2303  1.2387
  993MOL0     H31058   5.796   4.439   5.660 -0.2298 -0.3998 -0.1775
  993MOL0     H31059   6.023   4.443   5.683 -2.8255  0.6648 -1.6670
  993MOL0     H31060   6.463   4.546   5.703 -0.3110 -0.0168 -0.1250
  993MOL0     H31061   6.691   4.594   5.816 -0.3603  2.5838  0.3920
  993MOL0     H31062   6.893   2.783   5.757  0.0856  1.1034 -0.6853
  993MOL0     H31063   6.909   2.633   5.578  0.1655  1.3429 -3.4200
  993MOL0     H31064   7.277   2.458   5.270  0.7724 -0.9485 -1.3860
  993MOL0     H31065   7.361   2.308   5.121  0.3340 -0.4447  0.6567
  993MOL0     H31066   7.440   2.021   4.994  1.3993  2.1787 -1.7250
  993MOL0     H31067   7.394   2.172   4.931  0.7470 -0.1819 -1.8622
  993MOL0     H31068   7.366   2.002   4.759  3.1446  3.0309  2.3674
  993MOL0     H31069   7.240   1.927   4.864 -0.5321  0.9102  1.4648
  993MOL0     H31070   7.241   2.229   4.792  0.3102 -0.9047  1.5114
  993MOL0     H31071   7.113   2.116   4.849  0.0033  1.0933 -0.6797
  993MOL0     H31072   7.239   2.145   4.562  0.2794  1.6909  0.8002
  993MOL0     H31073   7.131   2.012   4.614 -0.8405  1.1135 -0.7564
  993MOL0     H31074   6.833   2.296   4.601  0.2798 -0.3769  1.8160
  993MOL0     H31075   7.050   2.020   5.212 -0.7939 -0.0902 -4.0249
  993MOL0     H31076   6.966   2.178   5.387 -0.7666 -1.0229  0.9573
  994MOL0     O31077   1.121  10.228   7.355 -0.2918  0.3637  0.1534
  994MOL0     C31078   1.095  10.340   7.340 -0.2715 -0.5387 -0.5348
  994MOL0     O31079   1.090  10.406   7.224  0.1481 -0.6649 -0.1423
  994MOL0     C31080   1.125  10.342   7.107  0.0332 -0.4390 -0.1068
  994MOL0     C31081   1.061  10.383   6.986 -0.2842 -0.8513  1.0321
  994MOL0     C31082   1.066  10.327   6.856 -0.1064 -0.3608  0.0506
  994MOL0     C31083   1.153  10.215   6.836 -0.2500 -0.0326  0.8519
  994MOL0     O31084   1.162  10.147   6.714  0.7099  0.5543  0.6057
  994MOL0     C31085   1.280  10.086   6.678 -0.2098 -0.6860  0.1512
  994MOL0     C31086   1.322  10.093   6.533  0.2390 -0.0978 -0.4034
  994MOL0     C31087   1.350  10.244   6.502  0.6876  0.0712  0.2071
  994MOL0     C31088   1.225  10.313   6.432  0.3940  0.7151 -0.1452
  994MOL0     C31089   1.221  10.268   6.288  0.8715 -0.0746 -0.9218
  994MOL0     C31090   1.112  10.335   6.197  0.4135  0.4239 -0.0449
  994MOL0     C31091   1.109  10.263   6.057 -0.4410 -0.5496 -0.2025
  994MOL0     C31092   1.208  10.317   5.951 -0.5951 -0.3867 -0.2817
  994MOL0     N31093   1.241  10.208   5.850 -0.9387 -0.0047  0.0565
  994MOL0     C31094   1.182  10.199   5.737 -0.4981 -0.0399 -0.5627
  994MOL0     C31095   1.245  10.096   5.668  0.5209 -0.1433 -0.7158
  994MOL0     C31096   1.205  10.064   5.522 -1.1778  0.1398  0.1786
  994MOL0     C31097   1.059  10.057   5.490  0.4883  0.4499  0.2496
  994MOL0     C31098   1.044   9.972   5.365  0.9531  0.6039 -0.5960
  994MOL0     C31099   0.896   9.931   5.356  0.4805  0.4281  0.1075
  994MOL0     O31100   0.881   9.848   5.237  0.4365 -0.1535  0.2499
  994MOL0     C31101   0.773   9.762   5.248 -0.3645 -0.0917 -0.7741
  994MOL0     C31102   0.644   9.810   5.262  0.3213 -0.6428  0.0953
  994MOL0     C31103   0.530   9.730   5.278  0.0078  0.6180 -0.1426
  994MOL0     C31104   0.535   9.594   5.260 -0.5081  0.7070 -0.6068
  994MOL0     C31105   0.415   9.503   5.271  0.1499  0.0476  0.5937
  994MOL0     O31106   0.290   9.560   5.274 -0.6760  0.5570 -0.1453
  994MOL0     C31107   0.188   9.471   5.331 -0.6412 -0.9923 -0.0567
  994MOL0     C31108   0.144   9.361   5.259 -0.7747  0.9445 -0.2475
  994MOL0     C31109   0.040   9.279   5.304 -0.0016 -0.3473  0.1357
  994MOL0     C31110  -0.039   9.330   5.419 -0.3496  0.3671  1.1673
  994MOL0     O31111  -0.135   9.251   5.474 -1.2943  0.9558  0.9238
  994MOL0     C31112  -0.219   9.301   5.574  0.1427  0.0388 -0.4496
  994MOL0     C31113  -0.322   9.200   5.613 -0.3063  0.8241  0.4452
  994MOL0     C31114  -0.388   9.238   5.744  0.4858 -0.8516  0.2102
  994MOL0     C31115  -0.509   9.161   5.777  0.6863 -0.2636  0.4831
  994MOL0     C31116  -0.553   9.176   5.925 -0.7860  0.6422  0.5532
  994MOL0     C31117  -0.671   9.083   5.956  0.0628 -0.9001 -1.1383
  994MOL0     C31118  -0.711   9.095   6.102  0.7708 -0.2193 -0.7748
  994MOL0     C31119  -0.829   9.008   6.136 -0.6809 -0.4109 -0.6322
  994MOL0    Cl31120  -0.975   9.053   6.046 -0.4136  0.3797 -0.0299
  994MOL0     C31121   0.010   9.448   5.483  0.1623 -0.2951  0.2043
  994MOL0     C31122   0.117   9.514   5.440 -0.9430  0.4450 -0.7550
  994MOL0     O31123   0.443   9.388   5.296 -0.5410 -0.0194  0.2314
  994MOL0     C31124   0.664   9.538   5.234 -0.4370 -0.4211  0.1673
  994MOL0     C31125   0.780   9.620   5.215  0.6452  0.9125  0.2628
  994MOL0     N31126   1.352  10.054   5.746 -0.1432  0.7152  0.1715
  994MOL0     N31127   1.351  10.124   5.849  0.2413  0.0691 -0.0084
  994MOL0     C31128   1.214  10.164   6.953  0.1278 -0.2723  0.5595
  994MOL0     C31129   1.203  10.223   7.081  0.0199 -0.0812  0.4137
  994MOL0     C31130   1.069  10.414   7.469  0.3647 -0.5984 -0.2079
  994MOL0     C31131   1.056  10.555   7.474 -1.0727 -0.6434  0.6000
  994MOL0     C31132   1.022  10.621   7.591  0.1141  0.5661  0.5938
  994MOL0     C31133   0.989  10.540   7.704  0.5790 -0.0730 -0.1522
  994MOL0     O31134   0.942  10.599   7.823 -0.0354  0.7652  0.1841
  994MOL0     C31135   0.965  10.737   7.846  0.0875 -0.8278  0.2427
  994MOL0     C31136   0.962  10.765   8.001 -0.0461 -0.1759 -0.0365
  994MOL0     C31137   1.057  10.667   8.066 -0.0416  0.4985 -0.3497
  994MOL0     C31138   1.066  10.671   8.222  0.1649 -0.5128  0.0835
  994MOL0     C31139   0.945  10.625   8.294  0.2515  0.7995  1.3059
  994MOL0     C31140   0.836  10.593   8.344 -0.8318  0.4819 -0.6176
  994MOL0     C31141   1.006  10.398   7.706  0.4870  0.4800 -0.7472
  994MOL0     C31142   1.059  10.345   7.588 -0.3333  0.4788 -0.1674
  994MOL0     H31143   0.989  10.463   7.000 -0.7141 -0.9549 -0.4401
  994MOL0     H31144   0.999  10.364   6.779 -0.4212  3.0049  1.7383
  994MOL0     H31145   1.273   9.987   6.724 -1.4018 -1.5890 -1.8690
  994MOL0     H31146   1.364  10.131   6.731 -1.0494 -0.6789  1.5340
  994MOL0     H31147   1.249  10.053   6.462  1.4407  0.5020 -2.0384
  994MOL0     H31148   1.409  10.028   6.521 -0.3799 -1.5989  2.3920
  994MOL0     H31149   1.445  10.248   6.447  1.2240 -0.0743  1.1124
  994MOL0     H31150   1.374  10.305   6.590  0.8027  0.1049  0.1530
  994MOL0     H31151   1.131  10.284   6.478 -0.6340  4.0379  0.1603
  994MOL0     H31152   1.239  10.421   6.447  3.5041  0.1911  1.5500
  994MOL0     H31153   1.203  10.160   6.285  1.8917 -0.3180  0.7531
  994MOL0     H31154   1.322  10.277   6.246  2.4963  3.1950  3.0794
  994MOL0     H31155   1.128  10.443   6.194 -0.9577  0.6927  1.1244
  994MOL0     H31156   1.015  10.317   6.245  1.9297  0.2038  3.2203
  994MOL0     H31157   1.132  10.158   6.075 -0.6747 -1.7734 -5.4103
  994MOL0     H31158   1.007  10.266   6.017 -0.6354  1.7331  0.3336
  994MOL0     H31159   1.304  10.326   6.002 -0.2810 -3.2951 -0.1873
  994MOL0     H31160   1.175  10.410   5.904  1.3435 -0.1910 -1.3791
  994MOL0     H31161   1.089  10.247   5.709  0.3735  3.7833  2.2958
  994MOL0     H31162   1.239   9.960   5.527  1.0951  0.8911  2.5382
  994MOL0     H31163   1.263  10.122   5.450 -2.7612 -1.3918 -2.5293
  994MOL0     H31164   1.029  10.160   5.468 -0.8988 -0.0526 -0.3499
  994MOL0     H31165   1.008  10.025   5.582  0.5306 -1.4581 -0.3522
  994MOL0     H31166   1.080  10.023   5.276 -2.1645 -0.8797 -2.9105
  994MOL0     H31167   1.097   9.878   5.382 -0.6884  0.1020  2.6439
  994MOL0     H31168   0.827  10.016   5.348  2.4411  1.9119 -2.5133
  994MOL0     H31169   0.884   9.867   5.444  2.7380 -0.7179 -0.3483
  994MOL0     H31170   0.635   9.918   5.269 -1.4498 -0.8543  2.2561
  994MOL0     H31171   0.433   9.777   5.288 -0.7657 -0.7632 -0.8408
  994MOL0     H31172   0.195   9.322   5.172 -3.5376 -0.2813 -1.4469
  994MOL0     H31173   0.017   9.187   5.251 -0.7698  0.0961 -0.3297
  994MOL0     H31174  -0.276   9.385   5.531 -1.5728 -1.4635 -1.2535
  994MOL0     H31175  -0.164   9.320   5.666  1.0179 -1.6836 -0.5796
  994MOL0     H31176  -0.277   9.102   5.630 -2.3667  0.0874  2.0189
  994MOL0     H31177  -0.394   9.189   5.531 -2.4028  5.1108  1.4220
  994MOL0     H31178  -0.410   9.345   5.750 -2.6057 -1.4611  1.8328
  994MOL0     H31179  -0.315   9.231   5.825  0.2214  0.6245  0.6039
  994MOL0     H31180  -0.597   9.186   5.716 -0.7196 -2.1015  1.6588
  994MOL0     H31181  -0.488   9.054   5.772 -3.4794 -1.3777  2.1770
  994MOL0     H31182  -0.569   9.282   5.947 -2.3308  0.6640 -0.5074
  994MOL0     H31183  -0.470   9.143   5.987  0.7673 -1.0961 -2.2578
  994MOL0     H31184  -0.642   8.983   5.925 -1.5165 -1.2433 -1.6300
  994MOL0     H31185  -0.753   9.119   5.893 -2.6002 -1.0322  1.9442
  994MOL0     H31186  -0.628   9.080   6.172 -1.1443  3.4494  2.7205
  994MOL0     H31187  -0.751   9.193   6.128  0.7569 -0.7125  1.2189
  994MOL0     H31188  -0.840   9.021   6.244 -2.2846 -0.6394 -0.7413
  994MOL0     H31189  -0.799   8.905   6.115 -2.9739 -0.5311 -4.3088
  994MOL0     H31190  -0.039   9.481   5.574 -1.0828  0.7641 -0.8246
  994MOL0     H31191   0.144   9.606   5.490 -0.3513 -0.9543  1.6609
  994MOL0     H31192   0.687   9.432   5.226  1.4191 -0.5150  4.1773
  994MOL0     H31193   0.875   9.580   5.179 -0.2867 -1.5875  0.4114
  994MOL0     H31194   1.289  10.086   6.943 -0.7540 -0.8908 -2.2577
  994MOL0     H31195   1.261  10.179   7.162 -1.8273 -1.4449  1.0521
  994MOL0     H31196   1.088  10.612   7.387  0.5495 -2.2581  0.0775
  994MOL0     H31197   1.016  10.728   7.579  0.1725  0.2779 -3.7054
  994MOL0     H31198   0.889  10.800   7.799 -0.7552 -1.1113  1.1739
  994MOL0     H31199   1.063  10.771   7.810  1.4299  0.2655  4.2907
  994MOL0     H31200   0.989  10.867   8.029 -3.5347  0.6560  0.7634
  994MOL0     H31201   0.863  10.742   8.041 -0.3321  0.9622 -0.0637
  994MOL0     H31202   1.153  10.677   8.014 -0.0413  0.9594 -0.2647
  994MOL0     H31203   1.017  10.566   8.059  2.3847 -0.5004 -0.9002
  994MOL0     H31204   1.150  10.609   8.254  3.6030  3.1886 -0.8529
  994MOL0     H31205   1.091  10.772   8.256  0.1604 -0.4858  0.0055
  994MOL0     H31206   0.748  10.569   8.401  0.3752 -2.0347  0.3581
  994MOL0     H31207   0.994  10.346   7.801  3.8523  0.6549 -0.1084
  994MOL0     H31208   1.098  10.245   7.607 -1.0677 -0.0182 -1.2180
  995MOL0     O31209   6.897   6.174   9.155  0.2769 -0.0138 -0.5243
  995MOL0     C31210   6.977   6.173   9.060  0.0895  0.4015 -0.3569
  995MOL0     O31211   6.939   6.193   8.929 -0.4055  0.1921  0.2845
  995MOL0     C31212   6.809   6.203   8.900  0.2721  0.0796  0.3842
  995MOL0     C31213   6.762   6.123   8.797  0.7953 -0.2905 -0.0406
  995MOL0     C31214   6.622   6.118   8.772 -0.2790  0.6720 -0.6025
  995MOL0     C31215   6.533   6.212   8.837  0.0880  0.8157  0.2519
  995MOL0     O31216   6.403   6.206   8.794 -1.1149 -0.9133  0.0229
  995MOL0     C31217   6.314   6.255   8.898  0.0788  0.7498  0.2553
  995MOL0     C31218   6.166   6.211   8.873 -0.6805  0.1812 -0.6861
  995MOL0     C31219   6.089   6.236   8.998  0.1216 -0.0786  0.1485
  995MOL0     C31220   5.934   6.255   8.989  0.4688  0.0647  0.3665
  995MOL0     C31221   5.863   6.243   9.128  0.3389 -0.6578 -0.0545
  995MOL0     C31222   5.837   6.096   9.163 -0.0238  0.1104 -0.6224
  995MOL0     C31223   5.718   6.077   9.268 -0.2830 -0.7989  0.0573
  995MOL0     C31224   5.684   5.927   9.285  0.7409 -0.1735  0.0895
  995MOL0     N31225   5.634   5.882   9.156  0.7947  0.9787  0.6969
  995MOL0     C31226   5.653   5.758   9.081  0.8922 -0.3957  0.2053
  995MOL0     C31227   5.578   5.764   8.971  0.1097  0.6482  0.5176
  995MOL0     C31228   5.597   5.662   8.858  0.2800  0.0196  0.7210
  995MOL0     C31229   5.524   5.717   8.734 -0.3353 -0.0566  0.0913
  995MOL0     C31230   5.561   5.655   8.591 -0.6992  0.4317 -0.0137
  995MOL0     C31231   5.555   5.501   8.587  0.3364  0.3043  0.2077
  995MOL0     O31232   5.435   5.463   8.643  0.3272 -0.3144 -0.0638
  995MOL0     C31233   5.344   5.411   8.553 -0.0858 -0.3469 -0.5566
  995MOL0     C31234   5.289   5.489   8.457 -0.0343  0.1980 -0.0323
  995MOL0     C31235   5.207   5.431   8.359  0.4906  0.1145 -0.2469
  995MOL0     C31236   5.187   5.293   8.350  0.3203 -0.1540 -0.2761
  995MOL0     C31237   5.107   5.240   8.235 -0.5843  0.0170  0.1474
  995MOL0     O31238   5.056   5.329   8.150  0.1054  0.1629 -0.3115
  995MOL0     C31239   4.963   5.301   8.050 -0.3771  0.6532  0.2510
  995MOL0     C31240   4.973   5.357   7.916  0.3782 -0.1766  0.4367
  995MOL0     C31241   4.873   5.330   7.813 -0.7010 -0.4211  0.8970
  995MOL0     C31242   4.771   5.245   7.836 -0.2409 -0.9176 -0.4971
  995MOL0     O31243   4.677   5.198   7.747  0.3128 -0.8806 -0.0952
  995MOL0     C31244   4.670   5.261   7.613 -0.0005  0.0797 -1.0791
  995MOL0     C31245   4.580   5.183   7.521  0.1039  0.1183  0.0757
  995MOL0     C31246   4.431   5.193   7.545  0.1125 -0.7131 -0.3506
  995MOL0     C31247   4.373   5.337   7.518 -0.1884 -0.3253 -0.4524
  995MOL0     C31248   4.248   5.339   7.424 -0.6153  0.8659  0.3154
  995MOL0     C31249   4.206   5.477   7.390  0.6002 -0.2262  0.6683
  995MOL0     C31250   4.071   5.488   7.314 -0.1343  0.1361  0.3510
  995MOL0     C31251   4.016   5.628   7.300 -0.0963  0.3768  0.3161
  995MOL0    Cl31252   3.833   5.632   7.266  0.0031  0.3196  0.0792
  995MOL0     C31253   4.763   5.187   7.958 -0.1780  0.3261 -0.2340
  995MOL0     C31254   4.859   5.202   8.061 -0.4539 -0.2606 -0.1175
  995MOL0     O31255   5.089   5.118   8.238 -0.0119 -0.5017  0.6761
  995MOL0     C31256   5.240   5.214   8.444 -0.3894  0.4309 -0.2821
  995MOL0     C31257   5.308   5.279   8.554  0.3147  1.1730 -0.4922
  995MOL0     N31258   5.503   5.884   8.981 -0.3493 -0.0360 -0.2142
  995MOL0     N31259   5.532   5.944   9.093 -0.1099 -0.1246 -0.7501
  995MOL0     C31260   6.590   6.312   8.924  0.3587  0.6530  0.7694
  995MOL0     C31261   6.727   6.308   8.955 -0.5031  0.6960  0.1551
  995MOL0     C31262   7.127   6.168   9.085 -1.0010  0.8767  0.1531
  995MOL0     C31263   7.208   6.175   8.982  0.8593 -0.2524  0.6696
  995MOL0     C31264   7.352   6.172   9.004 -0.3246 -0.4299 -0.4656
  995MOL0     C31265   7.405   6.181   9.131 -0.4538 -0.1236 -0.7372
  995MOL0     O31266   7.536   6.193   9.168 -0.4756  1.0763  0.2584
  995MOL0     C31267   7.636   6.203   9.067  0.2354  1.1283  0.3668
  995MOL0     C31268   7.779   6.230   9.123 -0.4327  0.9689  0.1223
  995MOL0     C31269   7.822   6.136   9.231 -0.2140 -0.2398  0.3402
  995MOL0     C31270   7.964   6.163   9.283 -0.2784  0.1699  0.7366
  995MOL0     C31271   7.995   6.067   9.395  0.4251  0.1882 -0.4945
  995MOL0     C31272   8.019   5.986   9.482 -0.2457 -0.4188  0.4080
  995MOL0     C31273   7.316   6.153   9.236  0.3752  1.1466 -0.2131
  995MOL0     C31274   7.177   6.163   9.217  0.1218  1.1037 -0.8406
  995MOL0     H31275   6.826   6.052   8.746  2.9034  0.8074  0.9239
  995MOL0     H31276   6.575   6.054   8.697  1.0396 -5.7208  3.2512
  995MOL0     H31277   6.313   6.364   8.901  0.3467  0.7383  1.1289
  995MOL0     H31278   6.340   6.213   8.996  0.5891  0.4237 -0.0132
  995MOL0     H31279   6.170   6.107   8.841 -1.0780  0.0643 -0.3673
  995MOL0     H31280   6.120   6.274   8.796 -2.1166  0.1314  0.0825
  995MOL0     H31281   6.118   6.310   9.073 -3.4668  0.1965  1.4975
  995MOL0     H31282   6.109   6.150   9.062  2.0388  0.5967  0.5186
  995MOL0     H31283   5.906   6.350   8.942  0.0967 -0.2599 -0.0847
  995MOL0     H31284   5.885   6.188   8.917  1.0844 -1.6613  1.4903
  995MOL0     H31285   5.768   6.296   9.119 -0.1538 -1.7279 -1.5448
  995MOL0     H31286   5.917   6.301   9.204  2.4647  1.2861 -2.8002
  995MOL0     H31287   5.929   6.051   9.202 -0.4195  2.3442  3.3663
  995MOL0     H31288   5.809   6.040   9.073  0.1543 -0.3818 -0.3762
  995MOL0     H31289   5.749   6.117   9.365 -3.8268  2.1564  0.2141
  995MOL0     H31290   5.628   6.129   9.236 -0.0230 -0.8068 -0.7142
  995MOL0     H31291   5.606   5.910   9.359 -0.8945 -2.1822 -1.9582
  995MOL0     H31292   5.768   5.866   9.317  2.0300  2.5952  2.4949
  995MOL0     H31293   5.736   5.691   9.103  0.6242 -0.7123  0.2771
  995MOL0     H31294   5.566   5.561   8.888  0.6430 -0.8598 -1.6923
  995MOL0     H31295   5.703   5.668   8.833  0.0053 -2.7931 -1.6179
  995MOL0     H31296   5.531   5.826   8.730 -1.4414 -0.0069 -1.8797
  995MOL0     H31297   5.416   5.699   8.746 -0.2555 -2.2371 -1.8568
  995MOL0     H31298   5.502   5.705   8.513 -1.2937  0.1646  0.2526
  995MOL0     H31299   5.666   5.674   8.567 -0.1310 -1.3071  0.9016
  995MOL0     H31300   5.638   5.461   8.646 -0.1770 -0.3233  0.5174
  995MOL0     H31301   5.569   5.458   8.487 -2.7694 -1.7067  0.5110
  995MOL0     H31302   5.310   5.595   8.460 -0.1270  0.1942  1.4234
  995MOL0     H31303   5.157   5.491   8.283 -0.3571  0.2260  0.3860
  995MOL0     H31304   5.050   5.431   7.897  0.4684 -0.3175  0.2519
  995MOL0     H31305   4.898   5.374   7.717 -2.1215 -0.4280  0.4971
  995MOL0     H31306   4.770   5.266   7.569  1.0870  1.2285  1.3259
  995MOL0     H31307   4.639   5.366   7.617  2.2923  0.9644 -3.7189
  995MOL0     H31308   4.607   5.079   7.501 -1.7741 -0.4491  0.3842
  995MOL0     H31309   4.602   5.235   7.427  1.3850  4.6941  2.5841
  995MOL0     H31310   4.410   5.154   7.645  0.6552  1.0664  0.4896
  995MOL0     H31311   4.383   5.124   7.474 -2.8065 -0.4737  1.2091
  995MOL0     H31312   4.347   5.384   7.614  1.4447 -0.1395 -0.0704
  995MOL0     H31313   4.459   5.395   7.484  1.6358 -0.5009  3.3614
  995MOL0     H31314   4.165   5.296   7.481 -0.7540  0.0463 -0.4797
  995MOL0     H31315   4.258   5.280   7.333  0.8047  2.3118 -0.5231
  995MOL0     H31316   4.292   5.530   7.347  2.0490 -1.6494  1.6824
  995MOL0     H31317   4.187   5.538   7.479  0.0706 -0.0038  0.4047
  995MOL0     H31318   4.085   5.441   7.216  0.3299 -1.6733  1.2350
  995MOL0     H31319   4.000   5.422   7.364 -1.3584 -0.0583 -1.5202
  995MOL0     H31320   4.083   5.664   7.222  0.9481 -1.9560  0.0593
  995MOL0     H31321   4.037   5.677   7.396  1.1275  1.7598 -0.6410
  995MOL0     H31322   4.678   5.121   7.975 -0.0979 -0.5972 -2.8979
  995MOL0     H31323   4.851   5.142   8.151  1.7683 -1.2912 -0.5402
  995MOL0     H31324   5.239   5.105   8.442 -1.1617  0.4377 -1.1102
  995MOL0     H31325   5.354   5.223   8.635 -4.4937 -0.8377  1.1756
  995MOL0     H31326   6.526   6.381   8.979  0.2834 -0.4070  2.0621
  995MOL0     H31327   6.765   6.373   9.032 -3.8448  0.6015  2.0532
  995MOL0     H31328   7.184   6.175   8.876  0.5251 -1.4390  0.7275
  995MOL0     H31329   7.421   6.176   8.921  0.2832  3.2241  0.0458
  995MOL0     H31330   7.614   6.266   8.980 -2.4240 -1.8794 -1.3692
  995MOL0     H31331   7.639   6.099   9.033 -4.9277  0.0616  2.3045
  995MOL0     H31332   7.852   6.237   9.041 -1.1828  0.2067 -0.6373
  995MOL0     H31333   7.762   6.328   9.169 -0.5739  0.3413  1.4399
  995MOL0     H31334   7.835   6.038   9.184  0.8182 -0.6843  1.5094
  995MOL0     H31335   7.745   6.135   9.309  1.2664 -0.2483  1.8489
  995MOL0     H31336   8.042   6.163   9.207 -0.0717  4.0749  0.7688
  995MOL0     H31337   7.970   6.263   9.327  3.0112 -0.6035  2.3852
  995MOL0     H31338   8.036   5.906   9.551 -0.3485 -1.2499 -0.5271
  995MOL0     H31339   7.370   6.141   9.330  0.6551 -4.3359 -0.7908
  995MOL0     H31340   7.103   6.173   9.295 -1.5689 -3.2173 -1.6100
  996MOL0     O31341   1.129   4.023   8.172  0.2566  0.2641  0.2505
  996MOL0     C31342   1.249   4.042   8.154  0.1582 -0.4481 -0.4318
  996MOL0     O31343   1.351   3.953   8.195 -0.4525 -0.6352  0.0079
  996MOL0     C31344   1.303   3.856   8.271  0.9777  0.1631 -0.5625
  996MOL0     C31345   1.284   3.887   8.409  0.0974  0.2460  0.8693
  996MOL0     C31346   1.262   3.778   8.490  0.0023  0.7365  0.4606
  996MOL0     C31347   1.251   3.650   8.435  1.0137 -0.3426  0.1467
  996MOL0     O31348   1.241   3.548   8.521 -0.0663 -0.8851  0.3586
  996MOL0     C31349   1.165   3.434   8.504  0.1591  0.6199 -0.0901
  996MOL0     C31350   1.014   3.467   8.474 -0.4541  0.4491  0.4775
  996MOL0     C31351   0.944   3.523   8.594 -0.4578 -0.9444  0.0161
  996MOL0     C31352   0.793   3.568   8.569  0.1817 -0.2788 -0.6754
  996MOL0     C31353   0.722   3.566   8.702  0.2539  0.6856 -0.0868
  996MOL0     C31354   0.574   3.625   8.681  0.0674 -0.3974 -0.6122
  996MOL0     C31355   0.496   3.650   8.809 -0.8658  0.1147 -0.2122
  996MOL0     C31356   0.501   3.797   8.861 -0.0116 -0.2881 -0.8567
  996MOL0     N31357   0.457   3.811   8.997  0.0384 -0.3121  0.1106
  996MOL0     C31358   0.331   3.769   9.022 -0.1327  0.3239  0.6015
  996MOL0     C31359   0.324   3.772   9.157 -0.2267  0.3108 -0.5841
  996MOL0     C31360   0.195   3.712   9.221 -0.1189 -0.2495  0.5315
  996MOL0     C31361   0.116   3.830   9.286 -0.1973 -0.2631  1.3476
  996MOL0     C31362  -0.017   3.768   9.335 -0.3666  0.1447 -0.2575
  996MOL0     C31363  -0.138   3.842   9.299  1.1279  0.1257 -0.2728
  996MOL0     O31364  -0.161   3.882   9.164 -0.1944  0.3761 -0.6869
  996MOL0     C31365  -0.263   3.815   9.100 -0.6330 -0.1975 -1.1730
  996MOL0     C31366  -0.393   3.853   9.132 -0.1394 -0.9117  0.2493
  996MOL0     C31367  -0.499   3.785   9.065 -0.0493  0.1419 -0.0993
  996MOL0     C31368  -0.475   3.672   8.986 -0.3548 -0.5339 -0.5382
  996MOL0     C31369  -0.586   3.592   8.926  0.0137 -0.4842 -0.0345
  996MOL0     O31370  -0.712   3.632   8.954  0.9965  0.0417  0.1494
  996MOL0     C31371  -0.823   3.561   8.908  0.5997 -0.1566 -0.0490
  996MOL0     C31372  -0.942   3.575   8.986 -0.5055  0.0934  1.1275
  996MOL0     C31373  -1.058   3.525   8.940  0.6812 -0.3738  0.5868
  996MOL0     C31374  -1.070   3.443   8.829  0.4492 -0.5215 -0.1128
  996MOL0     O31375  -1.194   3.397   8.807  0.0901 -0.0376 -0.1349
  996MOL0     C31376  -1.224   3.262   8.769 -0.1495 -0.6142 -0.1410
  996MOL0     C31377  -1.363   3.236   8.814 -0.0049 -0.3721 -0.6166
  996MOL0     C31378  -1.379   3.182   8.954  0.1265  0.1390 -0.0000
  996MOL0     C31379  -1.521   3.126   8.974  0.2189 -0.3959 -0.2815
  996MOL0     C31380  -1.540   3.055   9.105  0.4362  0.5219  0.0043
  996MOL0     C31381  -1.500   3.135   9.224  0.4521  0.9165  0.2068
  996MOL0     C31382  -1.519   3.062   9.357 -1.1010  0.6459 -0.1244
  996MOL0     C31383  -1.422   3.102   9.471 -0.0761 -0.2284  0.7844
  996MOL0    Cl31384  -1.446   3.273   9.530  0.2858 -0.3953  0.4094
  996MOL0     C31385  -0.957   3.410   8.764  0.0193  0.0024  0.9859
  996MOL0     C31386  -0.840   3.482   8.786 -0.4597 -0.0274 -0.2438
  996MOL0     O31387  -0.563   3.486   8.869  0.1713  0.0450  0.1901
  996MOL0     C31388  -0.344   3.631   8.964  0.7347  0.2419  0.4990
  996MOL0     C31389  -0.240   3.705   9.018  0.9962 -1.0854 -1.2827
  996MOL0     N31390   0.437   3.832   9.212 -0.7619 -0.0689  0.1042
  996MOL0     N31391   0.517   3.854   9.115 -0.6887  0.0860  0.1085
  996MOL0     C31392   1.240   3.628   8.302 -0.3305  0.1651  0.6022
  996MOL0     C31393   1.285   3.731   8.219  0.0138 -0.0792  0.3907
  996MOL0     C31394   1.305   4.162   8.083  0.9173 -0.0826 -0.6525
  996MOL0     C31395   1.429   4.205   8.118  0.0287  0.1617  0.3150
  996MOL0     C31396   1.472   4.327   8.070 -0.2001 -0.3102  0.5984
  996MOL0     C31397   1.391   4.400   7.973 -0.3065  0.8794 -0.6030
  996MOL0     O31398   1.436   4.524   7.920 -0.3271 -0.4089 -0.2960
  996MOL0     C31399   1.351   4.609   7.847  0.0237  0.9153  0.1162
  996MOL0     C31400   1.424   4.737   7.835  0.1347 -0.7721  0.9377
  996MOL0     C31401   1.548   4.736   7.742 -0.4269  0.8067  1.5292
  996MOL0     C31402   1.586   4.876   7.713 -0.6810  0.3330  0.5912
  996MOL0     C31403   1.730   4.902   7.721  0.1200  0.7425 -0.0615
  996MOL0     C31404   1.849   4.920   7.723 -0.3514 -0.3511 -0.5993
  996MOL0     C31405   1.265   4.351   7.951  0.0898  0.2722  0.2469
  996MOL0     C31406   1.215   4.236   8.010 -0.0978  0.1112 -0.5699
  996MOL0     H31407   1.309   3.976   8.465  3.3971 -2.3490  4.0106
  996MOL0     H31408   1.269   3.789   8.598  0.5235  0.2898  0.4743
  996MOL0     H31409   1.165   3.366   8.590 -2.2122  1.2319  0.4723
  996MOL0     H31410   1.210   3.378   8.422  0.1939  0.9953 -0.3273
  996MOL0     H31411   0.978   3.369   8.442  0.9527 -0.0576  0.3816
  996MOL0     H31412   1.012   3.533   8.387 -2.3736  0.7860  0.7315
  996MOL0     H31413   0.998   3.612   8.627  1.0940 -0.8617 -2.5417
  996MOL0     H31414   0.948   3.435   8.660  1.4295 -1.6837 -1.0041
  996MOL0     H31415   0.788   3.673   8.538 -1.7049  0.2485  1.1904
  996MOL0     H31416   0.749   3.522   8.480 -2.7270  2.6203 -0.9313
  996MOL0     H31417   0.775   3.636   8.768 -1.5490  0.5120  1.6578
  996MOL0     H31418   0.712   3.467   8.747 -0.6963  0.2393 -1.2308
  996MOL0     H31419   0.532   3.549   8.614 -2.9702 -0.2797  0.9457
  996MOL0     H31420   0.560   3.725   8.640 -0.7676  0.4701  1.6258
  996MOL0     H31421   0.395   3.612   8.787 -0.8850  0.4801 -0.7939
  996MOL0     H31422   0.531   3.575   8.880 -0.2432 -1.0004 -1.6268
  996MOL0     H31423   0.450   3.869   8.797  1.0246  1.1759 -0.0842
  996MOL0     H31424   0.606   3.826   8.867  0.5767 -1.8050 -2.8323
  996MOL0     H31425   0.273   3.714   8.948  1.1253 -0.4387  0.1517
  996MOL0     H31426   0.232   3.645   9.299  3.3016 -0.1105 -0.8308
  996MOL0     H31427   0.129   3.656   9.154 -0.1922  1.9230 -1.3186
  996MOL0     H31428   0.107   3.894   9.198 -0.9775 -1.4851  0.4953
  996MOL0     H31429   0.168   3.882   9.367  0.6269  0.8655  0.1370
  996MOL0     H31430  -0.027   3.663   9.308  2.7407 -0.3268 -0.0015
  996MOL0     H31431  -0.006   3.770   9.444  0.8281  2.3717 -0.3359
  996MOL0     H31432  -0.149   3.936   9.354 -1.4662 -1.2992  1.9179
  996MOL0     H31433  -0.222   3.781   9.334 -1.6396  3.2795 -0.8126
  996MOL0     H31434  -0.418   3.929   9.205 -3.1218 -2.1317  0.6689
  996MOL0     H31435  -0.601   3.822   9.075 -0.1956  0.4066 -2.2174
  996MOL0     H31436  -0.949   3.631   9.078  0.3471 -0.2274  1.3994
  996MOL0     H31437  -1.148   3.536   9.000  0.7361  0.4416  0.5230
  996MOL0     H31438  -1.154   3.185   8.802 -0.2711  0.0318  1.8014
  996MOL0     H31439  -1.227   3.266   8.660  1.8091 -1.6428 -0.2842
  996MOL0     H31440  -1.414   3.169   8.745 -1.4507 -1.1537  1.1175
  996MOL0     H31441  -1.417   3.331   8.808 -1.4701 -1.2124 -1.2579
  996MOL0     H31442  -1.350   3.268   9.015  0.8915 -0.7236  0.8888
  996MOL0     H31443  -1.309   3.099   8.968 -1.1866 -0.7036  2.2314
  996MOL0     H31444  -1.583   3.217   8.967  3.5418  2.0053 -0.9010
  996MOL0     H31445  -1.546   3.058   8.892 -1.4082  0.0866 -0.2287
  996MOL0     H31446  -1.484   2.961   9.094  0.1536  0.0813  1.9662
  996MOL0     H31447  -1.641   3.014   9.117  0.6725  0.6322  3.3593
  996MOL0     H31448  -1.566   3.222   9.232 -0.8459 -0.0803  0.5685
  996MOL0     H31449  -1.393   3.160   9.221  0.3498  1.2853 -1.2174
  996MOL0     H31450  -1.624   3.079   9.384 -1.2768  0.7292 -0.8346
  996MOL0     H31451  -1.503   2.954   9.352 -0.4101  0.6049  1.9852
  996MOL0     H31452  -1.320   3.111   9.430 -0.8366  2.8987 -0.7401
  996MOL0     H31453  -1.436   3.038   9.558 -4.6095  1.2565  1.3870
  996MOL0     H31454  -0.953   3.348   8.675  0.8512 -0.0769  1.0762
  996MOL0     H31455  -0.754   3.459   8.724 -0.3116 -1.4786  0.4611
  996MOL0     H31456  -0.331   3.543   8.902 -0.3024  0.3755  0.0825
  996MOL0     H31457  -0.141   3.662   9.005  0.9378 -1.7405  0.2487
  996MOL0     H31458   1.234   3.524   8.273  3.9133 -0.3080  0.7802
  996MOL0     H31459   1.305   3.715   8.114 -2.8040 -0.8535 -0.0950
  996MOL0     H31460   1.493   4.152   8.187  0.1158  0.9131  0.8183
  996MOL0     H31461   1.566   4.366   8.106 -1.4839  0.1959  3.7616
  996MOL0     H31462   1.254   4.619   7.897 -0.0986  0.0098  0.0769
  996MOL0     H31463   1.341   4.563   7.748  0.8276  0.9025  0.0390
  996MOL0     H31464   1.361   4.812   7.786  0.5100 -1.5887 -0.8847
  996MOL0     H31465   1.472   4.772   7.927  2.7034  0.6839 -0.8211
  996MOL0     H31466   1.533   4.690   7.644  1.1365 -0.3805  1.8081
  996MOL0     H31467   1.630   4.691   7.799 -0.2187  2.3525  2.5113
  996MOL0     H31468   1.556   4.898   7.610  0.2702  0.2428  0.2839
  996MOL0     H31469   1.532   4.948   7.775 -0.0634  0.9728  0.3958
  996MOL0     H31470   1.953   4.943   7.715  0.4911 -2.8672  1.5752
  996MOL0     H31471   1.184   4.410   7.910 -2.6441 -2.4062  1.4167
  996MOL0     H31472   1.116   4.191   8.000 -1.0971  1.5459  1.7956
  997MOL0     O31473   0.793   5.129   5.801 -0.2787  0.4884 -0.7807
  997MOL0     C31474   0.845   5.233   5.779 -0.2682 -1.1249  0.4190
  997MOL0     O31475   0.979   5.247   5.732  0.4167  0.4069 -0.3347
  997MOL0     C31476   1.044   5.138   5.677 -0.9199  0.2623  0.9940
  997MOL0     C31477   1.183   5.125   5.711  0.4242  0.3757 -0.1174
  997MOL0     C31478   1.262   5.020   5.664 -0.8241 -0.1858  0.7632
  997MOL0     C31479   1.211   4.921   5.579  0.5225  1.3013 -0.2609
  997MOL0     O31480   1.273   4.816   5.517  0.7545  0.5630  1.4082
  997MOL0     C31481   1.410   4.831   5.477  0.2485 -0.5474  0.3593
  997MOL0     C31482   1.502   4.737   5.541  0.2799  0.8211  0.8335
  997MOL0     C31483   1.624   4.714   5.452 -0.2733  0.1659 -0.6037
  997MOL0     C31484   1.712   4.610   5.519 -0.6513  0.4057 -0.1532
  997MOL0     C31485   1.855   4.627   5.454  0.6125 -0.3536 -0.2377
  997MOL0     C31486   1.852   4.575   5.301 -0.8434 -0.0284 -0.4049
  997MOL0     C31487   1.998   4.580   5.257  0.0575 -0.2370 -0.5131
  997MOL0     C31488   2.083   4.459   5.313 -0.1203 -0.1266  0.0214
  997MOL0     N31489   2.224   4.478   5.255  0.0496 -0.6149  0.5215
  997MOL0     C31490   2.323   4.552   5.314 -0.3726 -0.0027  0.9492
  997MOL0     C31491   2.429   4.545   5.232  0.5753 -0.5628 -0.3957
  997MOL0     C31492   2.556   4.634   5.237 -0.7838  0.2570  0.4402
  997MOL0     C31493   2.528   4.786   5.252 -0.0218 -0.3442  1.0404
  997MOL0     C31494   2.430   4.855   5.146 -0.2333  0.7556  0.2963
  997MOL0     C31495   2.372   4.973   5.209 -0.1248  0.4119  0.0402
  997MOL0     O31496   2.274   4.916   5.304  0.6250 -0.1518 -0.6702
  997MOL0     C31497   2.164   4.996   5.335  0.0397  0.3367 -0.2517
  997MOL0     C31498   2.090   4.943   5.438 -0.6395 -0.1337  0.1823
  997MOL0     C31499   1.984   5.015   5.488  0.0254 -0.7344 -0.7404
  997MOL0     C31500   1.928   5.123   5.418 -0.8696  0.4235 -0.1283
  997MOL0     C31501   1.792   5.168   5.456 -0.7266  0.2825  0.1087
  997MOL0     O31502   1.751   5.296   5.400  0.7371  0.1304 -0.6410
  997MOL0     C31503   1.638   5.358   5.453 -0.2697 -0.4895  0.0852
  997MOL0     C31504   1.514   5.308   5.495  0.2051  0.0950  0.3133
  997MOL0     C31505   1.410   5.401   5.534 -0.6346  0.0222 -0.3419
  997MOL0     C31506   1.432   5.532   5.557  0.6983 -0.3418  0.3398
  997MOL0     O31507   1.326   5.602   5.612  0.1078 -0.8408  0.2588
  997MOL0     C31508   1.338   5.746   5.611  0.5015  0.9974  0.2340
  997MOL0     C31509   1.202   5.801   5.644  0.4647  0.3860 -0.6801
  997MOL0     C31510   1.175   5.819   5.793  0.4920  0.9953  0.8584
  997MOL0     C31511   1.032   5.846   5.816 -0.4434 -0.5336 -0.4900
  997MOL0     C31512   1.009   5.920   5.950  0.3054  0.5142  0.0066
  997MOL0     C31513   1.015   6.073   5.947 -0.3541 -0.0514 -0.3442
  997MOL0     C31514   0.946   6.126   6.075  0.7183  0.6409  0.3733
  997MOL0     C31515   0.997   6.267   6.111  0.2805  0.1083 -0.3441
  997MOL0    Cl31516   0.887   6.369   6.201 -0.0815  0.3539 -0.1035
  997MOL0     C31517   1.555   5.581   5.511  0.4179 -0.1174 -0.7974
  997MOL0     C31518   1.653   5.498   5.456  0.5311 -0.6389  0.0265
  997MOL0     O31519   1.729   5.108   5.542 -0.6145 -0.6678  0.9579
  997MOL0     C31520   2.011   5.179   5.315  0.0986 -0.7069 -0.1999
  997MOL0     C31521   2.136   5.121   5.281  0.1160  0.0894  0.2831
  997MOL0     N31522   2.405   4.457   5.126 -0.3744 -0.4918 -0.2336
  997MOL0     N31523   2.279   4.427   5.136 -0.3116  1.1269 -0.6793
  997MOL0     C31524   1.073   4.938   5.540 -0.0577 -0.1661 -0.2087
  997MOL0     C31525   0.990   5.044   5.584 -0.0083 -0.2565 -0.3533
  997MOL0     C31526   0.767   5.355   5.810  0.4032  0.3572  0.4817
  997MOL0     C31527   0.826   5.479   5.812 -0.3956 -0.2275  0.5664
  997MOL0     C31528   0.744   5.595   5.833 -0.3798 -0.3195  0.2495
  997MOL0     C31529   0.606   5.587   5.860  0.2498  0.6618  0.2202
  997MOL0     O31530   0.539   5.705   5.894 -0.3086  0.2578 -0.3957
  997MOL0     C31531   0.423   5.694   5.976 -0.6138 -0.3698  1.4887
  997MOL0     C31532   0.430   5.813   6.074 -0.1515 -0.6205  0.3763
  997MOL0     C31533   0.344   5.801   6.192 -0.1562 -0.3986  0.0618
  997MOL0     C31534   0.407   5.874   6.317  0.4252 -0.1395 -0.0206
  997MOL0     C31535   0.325   5.840   6.438 -0.2397 -0.8983 -1.4571
  997MOL0     C31536   0.264   5.817   6.541  0.0946  0.0921 -0.2374
  997MOL0     C31537   0.548   5.459   5.857 -1.3904 -0.3659  0.0895
  997MOL0     C31538   0.633   5.348   5.827 -0.3409  0.5327  0.6630
  997MOL0     H31539   1.235   5.203   5.766 -0.5005  1.6637 -0.9803
  997MOL0     H31540   1.368   5.029   5.689 -1.1531  4.4227  1.4460
  997MOL0     H31541   1.429   4.938   5.485  0.5181 -0.5863  0.2693
  997MOL0     H31542   1.402   4.809   5.370 -1.7903 -1.3951  0.6351
  997MOL0     H31543   1.460   4.636   5.545  3.1636 -0.9088 -3.6449
  997MOL0     H31544   1.521   4.766   5.645  0.5502 -0.5484  1.1927
  997MOL0     H31545   1.676   4.810   5.441  0.2156 -0.1330 -0.9638
  997MOL0     H31546   1.601   4.692   5.347  1.4919  1.3948 -1.3009
  997MOL0     H31547   1.712   4.629   5.627  1.7857  2.3295 -0.4033
  997MOL0     H31548   1.685   4.504   5.507 -2.5977  0.9878 -1.4322
  997MOL0     H31549   1.924   4.582   5.526  0.5935 -1.8878 -1.1218
  997MOL0     H31550   1.874   4.734   5.451 -2.2512  0.2399 -3.0316
  997MOL0     H31551   1.802   4.639   5.228  1.6118 -0.5301 -2.6445
  997MOL0     H31552   1.807   4.475   5.294 -1.6886  0.4439 -2.1199
  997MOL0     H31553   1.994   4.581   5.148 -0.5232 -0.4318 -0.4940
  997MOL0     H31554   2.050   4.668   5.295 -0.3466  0.2180 -1.0129
  997MOL0     H31555   2.038   4.367   5.275 -2.1913  1.0215 -0.4589
  997MOL0     H31556   2.080   4.447   5.422  4.2157  0.2499  0.3442
  997MOL0     H31557   2.310   4.618   5.399 -3.5067 -1.7954  2.0164
  997MOL0     H31558   2.614   4.621   5.145  1.1643  0.9460  1.5227
  997MOL0     H31559   2.627   4.607   5.315  1.2578  0.9929 -1.0724
  997MOL0     H31560   2.621   4.841   5.239  0.6569 -1.8139 -0.8312
  997MOL0     H31561   2.507   4.794   5.359  1.1930 -2.2517  1.4791
  997MOL0     H31562   2.473   4.872   5.047 -2.3687  2.6158 -0.4113
  997MOL0     H31563   2.352   4.783   5.118 -0.6356  1.9037 -1.7202
  997MOL0     H31564   2.321   5.032   5.132  1.1120  0.5166 -0.7155
  997MOL0     H31565   2.440   5.038   5.265  1.1406  0.5398 -1.5652
  997MOL0     H31566   2.102   4.847   5.488 -1.3041 -1.2284 -1.6673
  997MOL0     H31567   1.933   4.972   5.574  0.9110 -1.4906 -0.5733
  997MOL0     H31568   1.492   5.202   5.505 -1.4137  0.5605  2.4051
  997MOL0     H31569   1.316   5.365   5.573 -1.1178  1.1409 -0.4468
  997MOL0     H31570   1.367   5.767   5.508  1.6502 -1.2213  0.0580
  997MOL0     H31571   1.412   5.772   5.688  2.8231 -3.7468 -0.0838
  997MOL0     H31572   1.123   5.737   5.602 -1.0825  2.0745 -0.4351
  997MOL0     H31573   1.184   5.896   5.594  0.5897  0.8991  0.2338
  997MOL0     H31574   1.240   5.891   5.843  2.3815 -2.3782  3.8176
  997MOL0     H31575   1.210   5.724   5.837  1.2683 -0.0529 -1.8301
  997MOL0     H31576   0.998   5.914   5.737 -1.6893  1.1534  1.3819
  997MOL0     H31577   0.972   5.755   5.818 -1.7254  0.2018  3.7636
  997MOL0     H31578   1.072   5.881   6.031 -1.2806 -0.9947  0.5850
  997MOL0     H31579   0.906   5.888   5.970 -0.3360  2.0724 -0.6220
  997MOL0     H31580   0.963   6.105   5.857 -0.8823 -2.9524 -1.1755
  997MOL0     H31581   1.119   6.105   5.951  0.1630 -1.5129 -1.1406
  997MOL0     H31582   0.840   6.133   6.047  0.2382  0.9408  2.1285
  997MOL0     H31583   0.952   6.056   6.159 -0.7440 -1.9776 -1.5419
  997MOL0     H31584   1.006   6.317   6.014 -2.1099  0.4338 -0.4426
  997MOL0     H31585   1.097   6.266   6.156 -0.9810 -1.4624  2.7131
  997MOL0     H31586   1.585   5.685   5.518 -2.0133  0.5204  2.0242
  997MOL0     H31587   1.749   5.535   5.421  0.9986 -0.5013  1.4020
  997MOL0     H31588   1.984   5.269   5.262 -0.0941 -0.0758  0.9260
  997MOL0     H31589   2.196   5.172   5.207  0.8796 -3.5178 -1.7562
  997MOL0     H31590   1.042   4.867   5.464 -0.7338  0.6888 -0.7491
  997MOL0     H31591   0.885   5.040   5.560 -0.2558 -2.4213  0.7906
  997MOL0     H31592   0.932   5.495   5.794 -0.7235  3.4588  0.9823
  997MOL0     H31593   0.787   5.693   5.820 -3.2172  1.2543  1.8716
  997MOL0     H31594   0.420   5.599   6.030 -2.5097 -0.7340  0.8211
  997MOL0     H31595   0.335   5.691   5.910 -0.5203 -1.1773  1.3908
  997MOL0     H31596   0.534   5.801   6.106 -0.1051 -1.3539 -0.0079
  997MOL0     H31597   0.422   5.911   6.026  0.8474 -0.3773  0.6911
  997MOL0     H31598   0.325   5.695   6.216  0.4687 -0.2040  1.5249
  997MOL0     H31599   0.245   5.845   6.175  0.1777 -0.5165 -2.6084
  997MOL0     H31600   0.509   5.850   6.351  1.2535  2.6214 -0.3604
  997MOL0     H31601   0.416   5.982   6.306 -2.0341  0.0358 -0.7685
  997MOL0     H31602   0.208   5.783   6.625 -0.0433  1.1206  0.1032
  997MOL0     H31603   0.444   5.438   5.882 -1.6037 -1.1362 -1.3630
  997MOL0     H31604   0.584   5.251   5.819 -0.2899  0.4838  0.9261
  998MOL0     O31605   6.434   0.025   2.931  0.6088 -0.1614  0.7253
  998MOL0     C31606   6.369   0.088   2.843 -0.0802 -0.3590 -0.3024
  998MOL0     O31607   6.260   0.047   2.785  0.2403  0.5464  0.4613
  998MOL0     C31608   6.177  -0.051   2.835  0.5170 -0.1807 -0.7278
  998MOL0     C31609   6.230  -0.163   2.901  0.4043 -0.1438  1.0284
  998MOL0     C31610   6.143  -0.252   2.962 -0.6442  0.2238  0.3677
  998MOL0     C31611   6.005  -0.241   2.953  0.1806 -0.5274  0.0644
  998MOL0     O31612   5.917  -0.309   3.030  0.0053  0.4454 -0.0714
  998MOL0     C31613   5.772  -0.310   3.041 -0.3471 -0.4277  0.0149
  998MOL0     C31614   5.707  -0.419   3.124  0.0319  0.6899 -1.8461
  998MOL0     C31615   5.758  -0.555   3.089  0.4855 -0.3380 -0.5443
  998MOL0     C31616   5.690  -0.672   3.181  0.4047 -0.0321 -0.2553
  998MOL0     C31617   5.541  -0.708   3.147  0.2660  0.8462  0.4515
  998MOL0     C31618   5.509  -0.860   3.180  0.5701  0.3828  0.4851
  998MOL0     C31619   5.533  -0.907   3.317 -0.3075  1.0656  0.2255
  998MOL0     C31620   5.459  -1.047   3.339 -0.2804 -0.3087  0.9189
  998MOL0     N31621   5.503  -1.115   3.467 -0.7724 -0.0923  0.8094
  998MOL0     C31622   5.509  -1.062   3.591 -1.0900 -0.5050 -0.3411
  998MOL0     C31623   5.532  -1.170   3.667  0.0719  0.1636 -0.0207
  998MOL0     C31624   5.501  -1.176   3.813 -0.8734  0.2043 -0.8366
  998MOL0     C31625   5.363  -1.125   3.853  0.6232 -0.8798  0.1429
  998MOL0     C31626   5.246  -1.176   3.766  0.7630  0.6229 -0.5867
  998MOL0     C31627   5.116  -1.112   3.814 -0.3339  0.2093  0.2719
  998MOL0     O31628   5.090  -1.130   3.951 -0.0190  0.3744 -0.0307
  998MOL0     C31629   5.002  -1.235   3.987  0.2702  0.4434 -0.8380
  998MOL0     C31630   5.054  -1.347   4.048  0.1099  0.5756  0.7324
  998MOL0     C31631   4.969  -1.432   4.115  0.5458  0.9031  0.2319
  998MOL0     C31632   4.840  -1.393   4.144  1.3950  0.8449 -0.2385
  998MOL0     C31633   4.767  -1.469   4.242  0.0985 -0.6086  0.4955
  998MOL0     O31634   4.839  -1.575   4.303  0.3857 -0.0229 -0.7550
  998MOL0     C31635   4.795  -1.622   4.424  0.1139  0.3378  0.0517
  998MOL0     C31636   4.742  -1.535   4.518  0.4590 -0.2907  0.1719
  998MOL0     C31637   4.679  -1.582   4.628 -0.6601 -0.0268 -0.0373
  998MOL0     C31638   4.670  -1.720   4.645 -0.3084  0.8008 -0.0478
  998MOL0     O31639   4.584  -1.757   4.743  0.1918 -0.2766 -0.2753
  998MOL0     C31640   4.492  -1.850   4.686  0.6426  0.7529 -0.3508
  998MOL0     C31641   4.370  -1.836   4.777  0.2022  0.0798  0.3456
  998MOL0     C31642   4.271  -1.956   4.750  0.2371 -0.2864 -1.2185
  998MOL0     C31643   4.122  -1.921   4.807 -0.5472 -0.1211 -0.0635
  998MOL0     C31644   4.118  -1.961   4.951 -0.1553 -1.1023 -0.7414
  998MOL0     C31645   3.978  -1.938   5.023 -0.1470  0.6573  0.0288
  998MOL0     C31646   3.982  -2.002   5.158  1.0385  0.3794  0.6306
  998MOL0     C31647   3.854  -2.010   5.236  0.0482  0.0630 -0.4779
  998MOL0    Cl31648   3.823  -1.854   5.317  0.7457 -0.3378  0.3370
  998MOL0     C31649   4.725  -1.809   4.553 -0.8763  0.6966  0.2079
  998MOL0     C31650   4.797  -1.763   4.443  0.7080  0.9132  0.3362
  998MOL0     O31651   4.656  -1.435   4.253  0.5917  0.4465  0.3407
  998MOL0     C31652   4.780  -1.284   4.078  0.3247 -0.7466  0.0557
  998MOL0     C31653   4.866  -1.196   4.008  0.2250  0.4289 -0.1260
  998MOL0     N31654   5.535  -1.277   3.582  0.3894 -0.5356 -0.2561
  998MOL0     N31655   5.511  -1.246   3.464 -0.1114  1.1964  0.3596
  998MOL0     C31656   5.959  -0.135   2.878 -0.1044 -0.4911 -0.0555
  998MOL0     C31657   6.039  -0.042   2.816  0.0680 -0.2531 -0.2247
  998MOL0     C31658   6.427   0.205   2.776  0.1442  0.3746  0.0370
  998MOL0     C31659   6.350   0.280   2.691  0.3212 -0.6895 -0.2379
  998MOL0     C31660   6.401   0.394   2.632  0.4571 -0.1992 -0.3425
  998MOL0     C31661   6.538   0.426   2.641 -0.6630  0.0581  0.5215
  998MOL0     O31662   6.580   0.547   2.573  0.0842 -0.5012  0.0105
  998MOL0     C31663   6.723   0.576   2.564 -0.2650  0.2729  0.0222
  998MOL0     C31664   6.753   0.692   2.464  0.6048 -0.1916  0.0057
  998MOL0     C31665   6.656   0.803   2.506  0.6233 -0.6720 -0.5798
  998MOL0     C31666   6.519   0.801   2.442 -0.0978  0.3182 -0.1028
  998MOL0     C31667   6.464   0.937   2.437 -0.7782  0.5043 -0.1741
  998MOL0     C31668   6.429   1.057   2.443 -0.8966 -0.3252 -0.3397
  998MOL0     C31669   6.625   0.341   2.713  0.0483 -0.4436  1.0247
  998MOL0     C31670   6.567   0.238   2.793  0.6922 -0.6484 -0.3597
  998MOL0     H31671   6.336  -0.175   2.920  1.7656  1.8824 -3.7635
  998MOL0     H31672   6.167  -0.331   3.032 -4.0628  0.0545  1.5279
  998MOL0     H31673   5.721  -0.324   2.945 -5.4543  0.3059  2.2902
  998MOL0     H31674   5.732  -0.217   3.081 -0.0791 -0.8772  1.3640
  998MOL0     H31675   5.599  -0.416   3.109 -0.3051 -0.1689  0.0524
  998MOL0     H31676   5.716  -0.393   3.230  2.3828  1.1587 -2.1072
  998MOL0     H31677   5.866  -0.568   3.104  0.1164 -1.8569  1.3222
  998MOL0     H31678   5.729  -0.582   2.987 -0.9351 -3.7168  0.6107
  998MOL0     H31679   5.754  -0.758   3.156  0.3539  0.2721 -1.4873
  998MOL0     H31680   5.707  -0.638   3.283 -3.1292  1.9900 -0.1926
  998MOL0     H31681   5.511  -0.691   3.044  1.5059  1.9680  0.2534
  998MOL0     H31682   5.480  -0.645   3.213 -0.8359 -1.1687  1.4930
  998MOL0     H31683   5.567  -0.923   3.112  0.9535 -2.2588  3.0342
  998MOL0     H31684   5.410  -0.893   3.146  1.3755 -1.2388 -0.4154
  998MOL0     H31685   5.641  -0.923   3.322 -0.3206 -3.1434 -4.5316
  998MOL0     H31686   5.509  -0.830   3.390  0.3980  0.2367  1.3764
  998MOL0     H31687   5.471  -1.118   3.257  2.3035 -0.6213  1.4980
  998MOL0     H31688   5.357  -1.010   3.350  0.7891  3.0838  0.4361
  998MOL0     H31689   5.489  -0.965   3.636  2.2819 -0.7662  2.1734
  998MOL0     H31690   5.576  -1.120   3.870 -0.7877 -0.4014 -0.3454
  998MOL0     H31691   5.511  -1.279   3.849  0.4030  0.4138 -0.5409
  998MOL0     H31692   5.373  -1.017   3.841 -4.1562  0.0453  2.2717
  998MOL0     H31693   5.339  -1.134   3.959 -1.9489  0.0485 -0.2841
  998MOL0     H31694   5.274  -1.172   3.660  1.6836 -1.5190 -0.4816
  998MOL0     H31695   5.243  -1.281   3.796 -2.0792  1.6455  3.5387
  998MOL0     H31696   5.033  -1.153   3.756 -0.1106  2.2324 -1.5903
  998MOL0     H31697   5.123  -1.004   3.801 -0.5935  0.3015  0.8538
  998MOL0     H31698   5.154  -1.385   4.031 -1.4843 -2.7723 -2.3220
  998MOL0     H31699   5.020  -1.520   4.152 -0.6722 -0.3501 -0.9835
  998MOL0     H31700   4.736  -1.428   4.508 -1.5927 -0.3130  0.7233
  998MOL0     H31701   4.623  -1.519   4.696 -1.9757  0.2307 -1.3236
  998MOL0     H31702   4.536  -1.950   4.685  1.4324  1.0427  1.3628
  998MOL0     H31703   4.467  -1.828   4.582  2.5514  0.3004 -0.9498
  998MOL0     H31704   4.310  -1.746   4.764  0.0345 -0.0213  0.4226
  998MOL0     H31705   4.407  -1.833   4.880  2.1081  2.7722 -0.3230
  998MOL0     H31706   4.312  -2.049   4.791  0.9007  0.1150 -0.9668
  998MOL0     H31707   4.271  -1.974   4.642  2.8402  1.3978 -1.5961
  998MOL0     H31708   4.105  -1.813   4.802  0.0458 -0.0718 -3.7342
  998MOL0     H31709   4.060  -1.971   4.733 -0.2281  0.0541 -0.4517
  998MOL0     H31710   4.185  -1.900   5.012  1.4343 -2.0222 -1.5183
  998MOL0     H31711   4.149  -2.066   4.962 -0.3745 -1.2839 -1.7766
  998MOL0     H31712   3.896  -1.976   4.961 -0.0248  1.5881 -0.7234
  998MOL0     H31713   3.959  -1.831   5.036 -2.1102  0.2319  1.0197
  998MOL0     H31714   4.020  -2.100   5.127  1.1004  0.4137  0.5991
  998MOL0     H31715   4.050  -1.948   5.224 -0.5519  2.9535  0.3116
  998MOL0     H31716   3.852  -2.089   5.311 -2.0103 -0.0417 -0.5916
  998MOL0     H31717   3.767  -2.028   5.173  2.6666  3.4680 -5.9094
  998MOL0     H31718   4.714  -1.915   4.570 -5.2319  0.9517 -0.0872
  998MOL0     H31719   4.846  -1.831   4.374 -2.3764 -0.2312 -0.8653
  998MOL0     H31720   4.680  -1.250   4.100  1.0381  1.0093  0.7650
  998MOL0     H31721   4.827  -1.103   3.967 -1.3237  0.4137  1.1929
  998MOL0     H31722   5.852  -0.123   2.861 -0.0448 -1.7739 -1.5013
  998MOL0     H31723   5.994   0.028   2.748 -3.8266  0.6744  2.8973
  998MOL0     H31724   6.256   0.251   2.647  0.9758 -1.4408 -1.1688
  998MOL0     H31725   6.324   0.455   2.585 -2.3520 -2.3230  1.1387
  998MOL0     H31726   6.782   0.491   2.529  0.3170  0.9828 -0.7588
  998MOL0     H31727   6.760   0.599   2.664 -1.8332  1.9612  0.2516
  998MOL0     H31728   6.861   0.710   2.477  1.3785 -1.7496 -3.2738
  998MOL0     H31729   6.751   0.666   2.358 -2.0581 -0.2865  0.0159
  998MOL0     H31730   6.705   0.895   2.472  1.1432 -0.1800  1.3670
  998MOL0     H31731   6.639   0.817   2.613  0.3510  3.3776 -1.0053
  998MOL0     H31732   6.530   0.767   2.339  1.0507  0.1029  0.0828
  998MOL0     H31733   6.445   0.735   2.490  0.5712 -1.7738 -1.7967
  998MOL0     H31734   6.406   1.160   2.463 -1.9034 -0.6169  0.0227
  998MOL0     H31735   6.731   0.363   2.724  0.1847 -1.9390  3.3187
  998MOL0     H31736   6.624   0.171   2.856  1.3852  2.1998  2.2794
  999MOL0     O31737   5.094   4.738   9.463 -0.6531  0.1256 -0.3374
  999MOL0     C31738   5.055   4.649   9.385 -0.2491 -0.2622  0.2318
  999MOL0     O31739   4.977   4.539   9.413 -0.4028  0.6132  0.1483
  999MOL0     C31740   4.928   4.523   9.537 -0.4401 -0.1441  0.5278
  999MOL0     C31741   4.919   4.390   9.568  0.4570 -0.1807  0.7742
  999MOL0     C31742   4.868   4.344   9.689 -0.5671  0.5953 -0.2868
  999MOL0     C31743   4.836   4.435   9.792 -0.0140  1.4428  0.0986
  999MOL0     O31744   4.808   4.372   9.910  0.8803 -0.7897 -0.3493
  999MOL0     C31745   4.822   4.439  10.039 -1.1350 -0.0215  0.1339
  999MOL0     C31746   4.781   4.361  10.161 -0.6257  0.0516 -0.5790
  999MOL0     C31747   4.873   4.239  10.189  0.0980  0.5490 -0.0514
  999MOL0     C31748   4.888   4.187  10.339  0.1672 -0.1153  0.3868
  999MOL0     C31749   4.941   4.054  10.346 -0.0002  0.6715  0.2543
  999MOL0     C31750   4.999   4.018  10.484  1.0836 -0.2800  0.3869
  999MOL0     C31751   5.132   4.096  10.531  0.2425 -0.1143  0.2259
  999MOL0     C31752   5.182   4.042  10.667  0.2884  0.6051  0.2436
  999MOL0     N31753   5.117   4.105  10.783 -0.7045 -0.6605  0.0606
  999MOL0     C31754   5.116   4.238  10.816 -0.3633  0.3740  0.1435
  999MOL0     C31755   5.019   4.251  10.905  0.3155  0.1237 -1.1771
  999MOL0     C31756   4.978   4.376  10.986  0.4189 -0.2394  0.6377
  999MOL0     C31757   4.954   4.346  11.132 -0.0036  1.0886 -0.7760
  999MOL0     C31758   4.924   4.485  11.195  1.0771 -0.2004  0.0547
  999MOL0     C31759   4.779   4.541  11.184  0.0919 -0.5293 -0.5426
  999MOL0     O31760   4.687   4.450  11.244  0.4807  0.3238 -0.1235
  999MOL0     C31761   4.549   4.468  11.234  0.9180  0.0583 -0.7109
  999MOL0     C31762   4.466   4.379  11.301 -1.2520  0.2237  0.6630
  999MOL0     C31763   4.329   4.402  11.300 -0.1133 -0.8857  0.2571
  999MOL0     C31764   4.261   4.508  11.240 -0.6875 -0.6570 -0.2479
  999MOL0     C31765   4.123   4.539  11.277  0.3919  0.2628 -0.0661
  999MOL0     O31766   4.051   4.435  11.318 -0.0252 -0.3608 -0.0752
  999MOL0     C31767   3.920   4.451  11.361 -0.6544  0.0696  0.2244
  999MOL0     C31768   3.877   4.417  11.491  0.2669 -0.6965 -0.5221
  999MOL0     C31769   3.748   4.451  11.536  0.1832 -0.0468  0.3695
  999MOL0     C31770   3.652   4.519  11.455 -0.2413  0.7195  0.8247
  999MOL0     O31771   3.536   4.541  11.517 -0.6131 -0.4268 -0.4745
  999MOL0     C31772   3.447   4.621  11.450  0.5108  0.0092 -0.4529
  999MOL0     C31773   3.328   4.637  11.543  0.1503 -0.4290  0.1082
  999MOL0     C31774   3.196   4.667  11.460  1.0548  0.3148 -0.4189
  999MOL0     C31775   3.071   4.647  11.549 -0.6512  0.6817 -0.2812
  999MOL0     C31776   2.951   4.691  11.469 -0.0150 -0.0006  0.4970
  999MOL0     C31777   2.830   4.712  11.562  0.5013  0.3320 -0.4646
  999MOL0     C31778   2.716   4.781  11.498  0.6610 -0.0872 -0.4850
  999MOL0     C31779   2.639   4.693  11.401 -0.0473 -1.4143 -0.0733
  999MOL0    Cl31780   2.479   4.765  11.375  0.4714  0.1224  0.0688
  999MOL0     C31781   3.694   4.540  11.319 -0.3760  0.3253 -0.0255
  999MOL0     C31782   3.823   4.507  11.273 -0.2774 -0.3432 -0.0868
  999MOL0     O31783   4.079   4.654  11.265  0.5360  0.4856  0.0226
  999MOL0     C31784   4.343   4.591  11.173  1.2694 -0.3993 -0.4923
  999MOL0     C31785   4.481   4.568  11.164  0.1061  0.2136 -0.9082
  999MOL0     N31786   4.951   4.130  10.926 -0.1119  0.1097  0.6180
  999MOL0     N31787   5.014   4.044  10.847  0.1615  0.0717 -0.1452
  999MOL0     C31788   4.849   4.574   9.768  0.3670  0.3595  0.3055
  999MOL0     C31789   4.900   4.620   9.640 -0.5878  0.5566 -0.1330
  999MOL0     C31790   5.102   4.672   9.244  0.6139  0.9503 -0.5047
  999MOL0     C31791   5.169   4.783   9.196  0.3380 -0.1671 -0.9417
  999MOL0     C31792   5.198   4.811   9.066  0.8004  0.4116  1.0729
  999MOL0     C31793   5.164   4.720   8.962  0.6881  0.0569 -0.6010
  999MOL0     O31794   5.193   4.739   8.830 -0.3150 -0.1820  0.4651
  999MOL0     C31795   5.223   4.878   8.787 -0.1485 -0.3926  0.1357
  999MOL0     C31796   5.368   4.911   8.778 -0.1187  0.4970  0.2322
  999MOL0     C31797   5.443   4.831   8.670  0.1623 -0.5886 -0.3447
  999MOL0     C31798   5.595   4.843   8.689  0.8599 -0.1444 -0.4165
  999MOL0     C31799   5.666   4.760   8.586  0.1744  0.4227 -0.2508
  999MOL0     C31800   5.722   4.687   8.503  0.2182 -0.1531  0.6562
  999MOL0     C31801   5.104   4.599   9.005  0.4483 -0.2643 -1.0268
  999MOL0     C31802   5.075   4.576   9.141  0.2702  0.0128  0.4702
  999MOL0     H31803   4.937   4.320   9.487 -2.4684 -1.4299  1.1088
  999MOL0     H31804   4.858   4.239   9.714 -0.0986  0.1870 -1.7137
  999MOL0     H31805   4.767   4.534  10.044  1.0136  1.3064 -0.1759
  999MOL0     H31806   4.930   4.456  10.046 -1.0581 -0.4382 -0.0188
  999MOL0     H31807   4.680   4.326  10.140  0.0920 -1.0433 -2.4449
  999MOL0     H31808   4.784   4.429  10.247  2.0068 -0.6758 -0.0179
  999MOL0     H31809   4.970   4.263  10.146  0.4956 -0.5685  0.2053
  999MOL0     H31810   4.833   4.153  10.135  2.5598  1.1427 -3.0784
  999MOL0     H31811   4.952   4.254  10.397 -1.7901  0.8260  1.5408
  999MOL0     H31812   4.792   4.191  10.391 -0.5051  0.9763 -0.8751
  999MOL0     H31813   5.020   4.047  10.271  2.1977  2.9652  2.1562
  999MOL0     H31814   4.859   3.988  10.319  2.7324 -2.4947 -0.9473
  999MOL0     H31815   5.030   3.913  10.491 -1.7438 -1.2024  0.1378
  999MOL0     H31816   4.931   4.048  10.564 -1.3000 -0.7475 -1.3787
  999MOL0     H31817   5.213   4.073  10.462  1.5420  3.1784  0.4740
  999MOL0     H31818   5.114   4.204  10.525 -2.2291 -0.3185  1.9636
  999MOL0     H31819   5.290   4.059  10.672  0.0683  2.2285  0.1492
  999MOL0     H31820   5.151   3.940  10.688  0.2957  0.7765  1.1247
  999MOL0     H31821   5.190   4.310  10.782 -0.9176  0.7307 -0.3381
  999MOL0     H31822   4.883   4.409  10.943 -0.2577  0.1290  2.3466
  999MOL0     H31823   5.050   4.458  10.977 -2.0403  2.0464  0.4057
  999MOL0     H31824   5.044   4.299  11.172 -0.1944  1.0218 -0.4219
  999MOL0     H31825   4.868   4.284  11.158  0.7835  1.2684  2.7184
  999MOL0     H31826   4.947   4.473  11.301  1.4539  0.7714  0.0869
  999MOL0     H31827   4.998   4.557  11.162 -1.5363  3.4716  1.5301
  999MOL0     H31828   4.761   4.567  11.080  2.0053 -1.2065 -1.0856
  999MOL0     H31829   4.768   4.633  11.242 -0.3487  0.0108 -1.4504
  999MOL0     H31830   4.506   4.287  11.343  3.8959  1.3597 -1.0180
  999MOL0     H31831   4.275   4.339  11.369  1.0609 -0.9350  1.1693
  999MOL0     H31832   3.954   4.380  11.558 -0.2802 -0.1679  0.4104
  999MOL0     H31833   3.705   4.446  11.635 -1.8158  0.4731 -0.4268
  999MOL0     H31834   3.418   4.569  11.358  0.5109 -0.7831 -0.0135
  999MOL0     H31835   3.491   4.716  11.419 -1.7623  1.4583  0.5094
  999MOL0     H31836   3.355   4.713  11.617  1.6839 -0.7423 -0.0924
  999MOL0     H31837   3.318   4.543  11.598  0.9561 -1.0326 -0.7412
  999MOL0     H31838   3.187   4.605  11.370  0.8157  0.8319 -0.7538
  999MOL0     H31839   3.206   4.769  11.422 -0.9272  0.4323 -0.7283
  999MOL0     H31840   3.062   4.541  11.575  1.1957  0.6865  0.5858
  999MOL0     H31841   3.077   4.711  11.638  0.8306  1.1621 -0.6893
  999MOL0     H31842   2.930   4.617  11.391 -4.9929  1.3317  0.2010
  999MOL0     H31843   2.962   4.781  11.408  2.7533  0.2781  1.2615
  999MOL0     H31844   2.862   4.776  11.644 -1.7267 -0.1789  0.9139
  999MOL0     H31845   2.803   4.615  11.606  0.5187  1.2225  1.6638
  999MOL0     H31846   2.646   4.809  11.577  0.5797 -2.2455  0.2947
  999MOL0     H31847   2.748   4.871  11.445  0.4658 -1.4225 -3.0356
  999MOL0     H31848   2.629   4.597  11.452 -0.2649 -1.1287  0.4265
  999MOL0     H31849   2.708   4.676  11.318  1.0735 -1.7357  0.8898
  999MOL0     H31850   3.636   4.613  11.264 -2.1036  0.7004  2.1491
  999MOL0     H31851   3.851   4.536  11.172 -2.0463  1.4172 -0.1395
  999MOL0     H31852   4.312   4.678  11.116  1.1460 -0.5019 -0.5820
  999MOL0     H31853   4.533   4.638  11.098 -0.0408  0.7638 -0.4506
  999MOL0     H31854   4.822   4.638   9.851 -0.6590 -1.1903  1.2251
  999MOL0     H31855   4.911   4.722   9.606 -0.6310 -0.3305 -3.0760
  999MOL0     H31856   5.216   4.847   9.269 -0.6351  2.2174 -2.2741
  999MOL0     H31857   5.265   4.895   9.054  0.4053  0.6971  0.8036
  999MOL0     H31858   5.180   4.951   8.856  0.1102 -0.9466  0.8813
  999MOL0     H31859   5.178   4.896   8.689 -0.8792  1.8454  0.8222
  999MOL0     H31860   5.381   5.016   8.750  0.5334 -0.3144 -2.8626
  999MOL0     H31861   5.413   4.892   8.876 -1.5949 -1.2153  0.6272
  999MOL0     H31862   5.418   4.877   8.574 -0.1817 -0.1644 -0.0607
  999MOL0     H31863   5.416   4.725   8.665 -0.7681 -0.4458  1.0879
  999MOL0     H31864   5.608   4.949   8.669 -1.3046  0.5149  1.2236
  999MOL0     H31865   5.644   4.832   8.787 -0.0157  1.2548  0.2151
  999MOL0     H31866   5.773   4.632   8.427  1.2971  0.6913  0.7314
  999MOL0     H31867   5.084   4.518   8.935 -0.8267 -0.6050 -0.2815
  999MOL0     H31868   5.031   4.477   9.146  0.1010 -0.0735 -1.7519
 1000MOL0     O31869   4.035   4.640   4.346 -0.1072  0.6706 -0.1353
 1000MOL0     C31870   4.087   4.660   4.455 -0.4276 -0.4861 -0.1661
 1000MOL0     O31871   4.222   4.663   4.477  0.2831 -0.1359  0.5309
 1000MOL0     C31872   4.308   4.635   4.380  0.2081 -0.7574  1.1800
 1000MOL0     C31873   4.380   4.727   4.300  0.4843  0.3133  0.7367
 1000MOL0     C31874   4.470   4.680   4.205  0.0838 -0.0130 -0.4644
 1000MOL0     C31875   4.488   4.544   4.179  0.1174  0.7371 -0.7544
 1000MOL0     O31876   4.574   4.509   4.079  0.1035  1.3633 -0.4460
 1000MOL0     C31877   4.544   4.382   4.015 -0.0790  0.7071 -0.4556
 1000MOL0     C31878   4.635   4.369   3.885  0.7814 -0.4975 -0.3439
 1000MOL0     C31879   4.788   4.372   3.916 -0.0503  0.9552 -0.1370
 1000MOL0     C31880   4.873   4.400   3.795  0.1982  0.3325  0.8492
 1000MOL0     C31881   5.017   4.405   3.818  1.4970  0.4222  0.0578
 1000MOL0     C31882   5.088   4.404   3.670 -0.5948 -0.2931 -0.1932
 1000MOL0     C31883   5.245   4.397   3.683  0.0192 -0.7997  0.1113
 1000MOL0     C31884   5.288   4.264   3.752 -0.3893 -0.2606  0.9219
 1000MOL0     N31885   5.415   4.219   3.693  0.0963 -0.1171  0.0504
 1000MOL0     C31886   5.541   4.269   3.717  1.4330 -1.2104 -0.0096
 1000MOL0     C31887   5.619   4.196   3.640 -1.0101 -0.2463  0.1052
 1000MOL0     C31888   5.771   4.207   3.639 -0.5821  0.5747 -0.6804
 1000MOL0     C31889   5.825   4.116   3.757 -0.5726 -0.7426 -0.3937
 1000MOL0     C31890   5.954   4.034   3.714  0.9235 -1.1856 -0.1915
 1000MOL0     C31891   6.074   4.123   3.673  0.0828 -0.0107  0.2333
 1000MOL0     O31892   6.192   4.054   3.708  0.3044 -0.1642  0.2680
 1000MOL0     C31893   6.227   3.943   3.641  0.7206 -0.4478  0.4125
 1000MOL0     C31894   6.180   3.885   3.532 -0.1857 -0.2688  0.5341
 1000MOL0     C31895   6.231   3.759   3.484 -0.6699 -0.4325 -0.1931
 1000MOL0     C31896   6.336   3.695   3.558 -0.6613  0.7844  0.3022
 1000MOL0     C31897   6.395   3.573   3.515 -0.3004 -0.6150 -0.1282
 1000MOL0     O31898   6.501   3.521   3.585 -0.2556 -0.1864  0.5283
 1000MOL0     C31899   6.523   3.387   3.596  0.3860  0.4559  0.8069
 1000MOL0     C31900   6.419   3.294   3.598 -0.0970  0.3442 -0.9634
 1000MOL0     C31901   6.440   3.160   3.631  0.9590 -0.0949 -0.2100
 1000MOL0     C31902   6.565   3.112   3.653  0.5590  0.2770  0.4363
 1000MOL0     O31903   6.587   2.974   3.663  0.2663 -0.0098  0.7944
 1000MOL0     C31904   6.677   2.924   3.551  0.5760 -0.4033 -0.7432
 1000MOL0     C31905   6.619   2.948   3.413  0.1954 -0.2591 -0.0368
 1000MOL0     C31906   6.493   2.870   3.403  0.3406  0.8247 -0.0182
 1000MOL0     C31907   6.454   2.837   3.254 -0.0115  0.3897 -0.6364
 1000MOL0     C31908   6.320   2.758   3.241 -0.6931 -0.0638 -0.6573
 1000MOL0     C31909   6.348   2.605   3.244 -1.0477  0.2110 -0.5230
 1000MOL0     C31910   6.226   2.519   3.263 -0.0030 -0.6150 -0.4464
 1000MOL0     C31911   6.243   2.397   3.182 -0.1006  0.1778  0.3102
 1000MOL0    Cl31912   6.246   2.241   3.269  0.5286  0.1448  0.0110
 1000MOL0     C31913   6.670   3.204   3.660  0.2348  0.1276 -0.0931
 1000MOL0     C31914   6.649   3.341   3.632 -0.2563  0.0494 -0.2840
 1000MOL0     O31915   6.337   3.531   3.416  0.5009  0.2566 -0.2463
 1000MOL0     C31916   6.384   3.752   3.676  0.4192 -0.0805  1.0395
 1000MOL0     C31917   6.327   3.877   3.715  0.0428 -0.1111  0.2735
 1000MOL0     N31918   5.540   4.115   3.558  0.1459 -0.1311 -0.6480
 1000MOL0     N31919   5.414   4.131   3.593  0.3182 -0.6263  0.2022
 1000MOL0     C31920   4.419   4.457   4.249 -0.2616  0.5989 -0.2121
 1000MOL0     C31921   4.329   4.500   4.347 -0.5066 -1.4077 -0.6555
 1000MOL0     C31922   4.014   4.700   4.574 -0.2144  0.5721 -0.4141
 1000MOL0     C31923   3.878   4.673   4.588  0.5979  0.3919  0.1930
 1000MOL0     C31924   3.805   4.714   4.696  0.6566 -0.2884  0.1751
 1000MOL0     C31925   3.858   4.795   4.800 -1.1722  0.4519 -1.3949
 1000MOL0     O31926   3.782   4.843   4.909 -0.3238 -0.2148  0.3412
 1000MOL0     C31927   3.837   4.849   5.040 -0.0977 -1.5489  0.2015
 1000MOL0     C31928   3.740   4.920   5.133 -0.7283  0.8116  0.1578
 1000MOL0     C31929   3.807   4.935   5.273  0.0083  0.7100 -0.1497
 1000MOL0     C31930   3.711   4.971   5.393 -0.5437 -0.2844  1.7142
 1000MOL0     C31931   3.771   5.061   5.489 -0.2620  0.1369 -0.9779
 1000MOL0     C31932   3.840   5.127   5.562  0.4632 -0.1554  0.0650
 1000MOL0     C31933   3.998   4.831   4.785  0.0630  0.7774  0.4693
 1000MOL0     C31934   4.072   4.781   4.675  1.0907 -0.0967 -0.0731
 1000MOL0     H31935   4.377   4.836   4.302 -0.2148  0.3001  3.6653
 1000MOL0     H31936   4.529   4.753   4.149  3.0553 -1.9177 -0.0416
 1000MOL0     H31937   4.441   4.376   3.977  0.7739 -1.1873 -2.6644
 1000MOL0     H31938   4.564   4.291   4.071 -0.4934  1.8988  1.7687
 1000MOL0     H31939   4.618   4.461   3.827  0.6952 -0.6234 -0.5194
 1000MOL0     H31940   4.614   4.280   3.825 -2.8201 -0.8155  1.1246
 1000MOL0     H31941   4.816   4.277   3.961  1.7533  1.3352 -0.3764
 1000MOL0     H31942   4.822   4.448   3.987  1.6854 -0.4463  0.6194
 1000MOL0     H31943   4.845   4.326   3.719  1.6038  0.2161  0.4081
 1000MOL0     H31944   4.844   4.491   3.743 -0.2594  0.2304  0.9266
 1000MOL0     H31945   5.041   4.311   3.868 -0.5794 -0.2974 -0.2085
 1000MOL0     H31946   5.034   4.491   3.884  0.7482 -0.6702  1.7395
 1000MOL0     H31947   5.059   4.486   3.603  1.9026  0.3230 -0.6475
 1000MOL0     H31948   5.058   4.312   3.619 -3.9485  2.5192 -3.9013
 1000MOL0     H31949   5.285   4.417   3.583 -3.1520  0.2067 -1.0800
 1000MOL0     H31950   5.280   4.471   3.755 -0.4325 -3.4592  3.3642
 1000MOL0     H31951   5.209   4.189   3.745 -0.4333 -0.1402 -0.0967
 1000MOL0     H31952   5.314   4.298   3.852  2.2219  4.4895 -1.0399
 1000MOL0     H31953   5.557   4.358   3.778  0.5592 -1.4132  0.5386
 1000MOL0     H31954   5.795   4.313   3.643  4.1029 -0.2193 -2.2185
 1000MOL0     H31955   5.817   4.160   3.552  0.7054 -4.0765  2.1170
 1000MOL0     H31956   5.747   4.048   3.792 -0.8211 -0.2186  0.0827
 1000MOL0     H31957   5.844   4.188   3.837  1.2802 -0.9526 -0.5881
 1000MOL0     H31958   5.988   3.973   3.798 -1.1123 -1.2697  0.6420
 1000MOL0     H31959   5.932   3.963   3.634 -1.3220 -1.6362  0.7511
 1000MOL0     H31960   6.075   4.215   3.732 -1.9246  0.2657 -0.0964
 1000MOL0     H31961   6.076   4.152   3.568 -1.9744  3.0386  0.9239
 1000MOL0     H31962   6.107   3.935   3.470 -0.1743 -1.3644 -0.4153
 1000MOL0     H31963   6.211   3.728   3.382  3.1080 -1.9345 -0.6208
 1000MOL0     H31964   6.318   3.326   3.576 -0.4695  0.8295  1.2264
 1000MOL0     H31965   6.355   3.095   3.642  0.7605  0.3318  0.8868
 1000MOL0     H31966   6.694   2.816   3.556 -0.5248 -0.5566 -0.0098
 1000MOL0     H31967   6.769   2.983   3.545  0.1895  0.7493  2.5132
 1000MOL0     H31968   6.685   2.912   3.333  0.2730  1.6953 -0.9412
 1000MOL0     H31969   6.595   3.054   3.399  2.8760  0.7292  1.9300
 1000MOL0     H31970   6.416   2.933   3.449 -0.7746 -1.2584  1.0806
 1000MOL0     H31971   6.504   2.780   3.464  0.7258  0.7295 -0.2220
 1000MOL0     H31972   6.447   2.927   3.193  2.5322  0.8767 -0.3154
 1000MOL0     H31973   6.536   2.775   3.216 -0.5166 -0.6947 -0.0089
 1000MOL0     H31974   6.280   2.784   3.142 -0.2108 -0.9414 -1.0886
 1000MOL0     H31975   6.249   2.794   3.316 -1.2885  1.9451 -2.0602
 1000MOL0     H31976   6.417   2.583   3.326 -0.6537 -0.7372 -1.0959
 1000MOL0     H31977   6.404   2.576   3.154 -0.0113 -0.7549  0.4064
 1000MOL0     H31978   6.208   2.502   3.370  4.1110  2.3898  1.0006
 1000MOL0     H31979   6.143   2.569   3.213  1.3808  0.5824 -1.6524
 1000MOL0     H31980   6.318   2.399   3.103  1.6083 -1.4005  1.8183
 1000MOL0     H31981   6.152   2.385   3.123  0.5144 -3.1272 -0.1294
 1000MOL0     H31982   6.773   3.172   3.673  0.0699 -0.1407  0.5717
 1000MOL0     H31983   6.733   3.410   3.637 -0.7942  0.7346 -0.4551
 1000MOL0     H31984   6.479   3.724   3.722  1.3855  0.7988 -0.3273
 1000MOL0     H31985   6.365   3.933   3.801 -0.0956 -1.5060  1.2813
 1000MOL0     H31986   4.424   4.350   4.229 -0.6539  0.2944  1.2079
 1000MOL0     H31987   4.267   4.425   4.395  0.1713 -3.8183 -3.2870
 1000MOL0     H31988   3.823   4.613   4.516 -1.8360 -0.3524  2.5085
 1000MOL0     H31989   3.698   4.697   4.701  0.7991 -0.9688  1.1064
 1000MOL0     H31990   3.934   4.900   5.046 -0.8677 -0.2420  2.3429
 1000MOL0     H31991   3.857   4.749   5.079 -0.6287 -1.4410  0.7534
 1000MOL0     H31992   3.713   5.023   5.108  0.6595  1.9427  2.9063
 1000MOL0     H31993   3.648   4.860   5.137  0.6352 -1.7696 -2.6903
 1000MOL0     H31994   3.890   5.006   5.270  0.0346  0.6898  0.0739
 1000MOL0     H31995   3.858   4.841   5.296  0.8332  1.4556  1.2242
 1000MOL0     H31996   3.624   5.022   5.352 -0.4235 -0.0778  1.7138
 1000MOL0     H31997   3.673   4.882   5.444 -1.4850 -0.3364  0.9483
 1000MOL0     H31998   3.897   5.199   5.618  0.6974  1.4557 -2.1222
 1000MOL0     H31999   4.060   4.886   4.855  1.1118  2.7672 -1.9046
 1000MOL0     H32000   4.176   4.811   4.686  0.7429  0.5841  1.6625
 1001MOL0     O32001   4.703   8.794   1.140 -0.2305  0.1125 -0.9031
 1001MOL0     C32002   4.771   8.802   1.245  0.8295  0.3585 -0.2005
 1001MOL0     O32003   4.894   8.862   1.252  0.5954  0.3660 -0.2969
 1001MOL0     C32004   4.986   8.832   1.157 -0.2138  0.3544 -0.6245
 1001MOL0     C32005   4.990   8.713   1.089 -0.7550 -0.7687  0.7246
 1001MOL0     C32006   5.079   8.690   0.985  0.0483  0.5103 -0.7772
 1001MOL0     C32007   5.194   8.772   0.969  0.5131  0.7973  0.6551
 1001MOL0     O32008   5.304   8.752   0.893 -0.4830 -0.7375  0.3266
 1001MOL0     C32009   5.331   8.616   0.869  0.1263  0.8341  0.3562
 1001MOL0     C32010   5.473   8.621   0.788 -0.0655  0.0008 -0.5057
 1001MOL0     C32011   5.540   8.482   0.812  0.9610  0.7369 -0.6577
 1001MOL0     C32012   5.663   8.465   0.724  0.2457  0.3023  0.0123
 1001MOL0     C32013   5.745   8.333   0.748  0.8677 -0.1358  0.1933
 1001MOL0     C32014   5.848   8.303   0.634 -0.3559  0.5351 -0.7549
 1001MOL0     C32015   5.890   8.155   0.641 -0.0952 -0.7837 -0.8781
 1001MOL0     C32016   6.006   8.132   0.734  0.1360 -0.4253  0.2999
 1001MOL0     N32017   6.131   8.187   0.677  1.2806  0.2143 -0.1727
 1001MOL0     C32018   6.205   8.131   0.577 -0.6314  0.7939  0.2933
 1001MOL0     C32019   6.306   8.205   0.553 -0.6705  0.3500  0.0135
 1001MOL0     C32020   6.407   8.181   0.440 -0.0915  0.1502 -1.3195
 1001MOL0     C32021   6.368   8.239   0.306 -0.0908  0.0110  0.1884
 1001MOL0     C32022   6.269   8.147   0.243  0.1492  0.0512  0.3147
 1001MOL0     C32023   6.264   8.161   0.088  0.0271  0.1110  0.1642
 1001MOL0     O32024   6.248   8.301   0.040 -0.3938  0.2939 -0.2986
 1001MOL0     C32025   6.351   8.366  -0.022  0.7335  0.3244 -0.5946
 1001MOL0     C32026   6.490   8.332  -0.020  0.1033 -0.0820  0.2022
 1001MOL0     C32027   6.584   8.428  -0.065  0.3476  0.3306  0.5091
 1001MOL0     C32028   6.543   8.549  -0.116  0.7883 -0.0266 -1.0254
 1001MOL0     C32029   6.648   8.644  -0.152 -0.0773  0.8980 -1.1020
 1001MOL0     O32030   6.783   8.619  -0.126  0.4476  0.0738  0.7786
 1001MOL0     C32031   6.862   8.708  -0.185 -0.8673  0.9017  0.4598
 1001MOL0     C32032   6.918   8.812  -0.121 -0.4294  1.0064 -1.0337
 1001MOL0     C32033   7.016   8.892  -0.182 -0.6057  0.4819 -0.1604
 1001MOL0     C32034   7.060   8.866  -0.315  0.0178  0.6509  1.0371
 1001MOL0     O32035   7.150   8.932  -0.390  0.3839 -0.3634 -0.7397
 1001MOL0     C32036   7.268   8.972  -0.314 -0.4388  0.8960 -0.2705
 1001MOL0     C32037   7.357   9.053  -0.404  0.0227 -0.2902  0.6928
 1001MOL0     C32038   7.395   8.957  -0.531 -0.5606 -0.2741  0.2216
 1001MOL0     C32039   7.545   8.940  -0.560 -0.4851  0.5174 -0.6283
 1001MOL0     C32040   7.633   9.054  -0.612 -0.7276 -0.1811 -0.1164
 1001MOL0     C32041   7.594   9.102  -0.746  0.0595 -0.1579 -0.1296
 1001MOL0     C32042   7.699   9.190  -0.806 -0.3438  0.0689 -0.5969
 1001MOL0     C32043   7.668   9.222  -0.953  0.4589 -0.2420 -0.1689
 1001MOL0    Cl32044   7.528   9.322  -0.976  0.0673 -0.1718  0.0602
 1001MOL0     C32045   6.999   8.760  -0.383  0.2313 -0.1587  0.2385
 1001MOL0     C32046   6.899   8.684  -0.321 -0.3017 -0.3477  0.9349
 1001MOL0     O32047   6.604   8.728  -0.219 -0.1633 -0.3513 -0.4533
 1001MOL0     C32048   6.405   8.584  -0.119  0.4918 -0.5119  0.1002
 1001MOL0     C32049   6.314   8.495  -0.066  0.3914  1.0965 -0.2137
 1001MOL0     N32050   6.297   8.321   0.636  0.0757 -0.6086 -0.6987
 1001MOL0     N32051   6.189   8.309   0.711  0.4419  0.3978  1.4624
 1001MOL0     C32052   5.188   8.889   1.040 -0.4944 -0.4858  0.4428
 1001MOL0     C32053   5.098   8.919   1.136 -0.1678 -0.2375  0.4584
 1001MOL0     C32054   4.681   8.786   1.360  0.1419  0.4794  1.3638
 1001MOL0     C32055   4.706   8.851   1.484  0.3521 -0.5532  0.8914
 1001MOL0     C32056   4.618   8.829   1.594  0.8585  0.1396 -0.2356
 1001MOL0     C32057   4.499   8.752   1.576 -0.0873 -0.0359  0.2671
 1001MOL0     O32058   4.409   8.747   1.679  0.1307 -0.3664  0.0895
 1001MOL0     C32059   4.272   8.704   1.655  0.5687  0.4553 -0.2279
 1001MOL0     C32060   4.195   8.728   1.781  0.1440  0.0991 -0.6072
 1001MOL0     C32061   4.047   8.672   1.777  0.2549 -0.0030  0.3891
 1001MOL0     C32062   3.933   8.759   1.711  0.4371 -0.1423  0.5471
 1001MOL0     C32063   3.806   8.705   1.741  0.8543  0.7944  0.1217
 1001MOL0     C32064   3.696   8.668   1.764 -0.3285  1.1491  0.3252
 1001MOL0     C32065   4.471   8.699   1.453  0.2981 -0.0977  0.7649
 1001MOL0     C32066   4.562   8.706   1.348 -0.4196 -0.4836  0.9383
 1001MOL0     H32067   4.933   8.621   1.103 -1.7555  0.0188  2.0719
 1001MOL0     H32068   5.060   8.598   0.931  1.0579 -1.8956  2.6313
 1001MOL0     H32069   5.251   8.569   0.812  1.5194 -2.4960  0.9225
 1001MOL0     H32070   5.344   8.560   0.962  0.3352 -2.1846 -1.3591
 1001MOL0     H32071   5.556   8.686   0.816  0.4508  0.0992 -2.1257
 1001MOL0     H32072   5.448   8.639   0.683  0.8431 -1.1604 -0.9371
 1001MOL0     H32073   5.463   8.405   0.808 -3.0064  4.3084 -0.5230
 1001MOL0     H32074   5.572   8.493   0.916  3.2123 -0.9877 -1.0736
 1001MOL0     H32075   5.635   8.460   0.618  2.6629 -0.4767 -0.6332
 1001MOL0     H32076   5.740   8.542   0.736 -1.6480  2.0294  1.9809
 1001MOL0     H32077   5.682   8.245   0.765  2.7501 -1.1232  2.5170
 1001MOL0     H32078   5.795   8.341   0.844 -2.4768 -1.9863  2.2795
 1001MOL0     H32079   5.935   8.368   0.645 -0.6305  0.7376  0.3195
 1001MOL0     H32080   5.804   8.317   0.534 -2.1979  1.1787  0.1023
 1001MOL0     H32081   5.799   8.100   0.666 -1.9566  2.6285  0.5611
 1001MOL0     H32082   5.923   8.121   0.543  2.3537  3.7055 -1.8482
 1001MOL0     H32083   6.047   8.032   0.750  2.8591  0.7028  1.0584
 1001MOL0     H32084   5.977   8.166   0.834  2.5938 -2.0101  1.6685
 1001MOL0     H32085   6.191   8.032   0.535  2.4828  0.4972 -0.2710
 1001MOL0     H32086   6.428   8.074   0.430  0.4772  0.2167 -0.8843
 1001MOL0     H32087   6.500   8.233   0.465  0.6848 -1.0422 -1.6924
 1001MOL0     H32088   6.454   8.245   0.239  1.0873 -2.5134  1.3408
 1001MOL0     H32089   6.336   8.342   0.323 -0.7967 -0.0387 -0.7698
 1001MOL0     H32090   6.281   8.042   0.269 -0.4161  0.5334  2.8477
 1001MOL0     H32091   6.168   8.164   0.283 -0.9131 -0.1812 -2.0697
 1001MOL0     H32092   6.180   8.102   0.050 -1.2662  3.0995 -1.9836
 1001MOL0     H32093   6.348   8.111   0.041 -0.5174 -1.1515  0.4880
 1001MOL0     H32094   6.519   8.233   0.013  0.4383  0.2784  1.0142
 1001MOL0     H32095   6.687   8.394  -0.071  0.6421  0.6932  2.7861
 1001MOL0     H32096   6.887   8.827  -0.018 -2.6039  0.7990 -1.6016
 1001MOL0     H32097   7.073   8.961  -0.121  1.0006 -1.2161  0.3378
 1001MOL0     H32098   7.321   8.883  -0.281  0.3332  1.9584  1.4648
 1001MOL0     H32099   7.248   9.032  -0.225 -1.6526  1.1017 -0.6617
 1001MOL0     H32100   7.444   9.089  -0.348  0.5722  0.8129 -0.7930
 1001MOL0     H32101   7.312   9.141  -0.450  0.5179 -0.7489 -0.7204
 1001MOL0     H32102   7.346   8.986  -0.624 -1.1107  0.5150  0.7439
 1001MOL0     H32103   7.352   8.859  -0.510 -2.1849  0.4338  0.4370
 1001MOL0     H32104   7.595   8.902  -0.471  0.5849 -1.5152 -2.0458
 1001MOL0     H32105   7.552   8.854  -0.626  1.7983  1.3476 -1.5747
 1001MOL0     H32106   7.737   9.018  -0.607 -0.3575  0.9649  1.1293
 1001MOL0     H32107   7.624   9.130  -0.534 -1.8630  0.6174 -1.0023
 1001MOL0     H32108   7.500   9.158  -0.748  1.0237  1.6768  2.0418
 1001MOL0     H32109   7.606   9.009  -0.803  2.2134 -0.0165  0.0287
 1001MOL0     H32110   7.708   9.287  -0.757 -0.0190 -0.5887  0.6836
 1001MOL0     H32111   7.796   9.140  -0.795 -0.2821  0.1642 -0.7026
 1001MOL0     H32112   7.650   9.131  -1.010  0.7046  1.2016 -2.7082
 1001MOL0     H32113   7.761   9.264  -0.994  2.8515 -4.3154  0.5174
 1001MOL0     H32114   7.036   8.742  -0.484 -2.1636  0.6836 -0.8469
 1001MOL0     H32115   6.861   8.593  -0.366 -0.7183  0.7964 -1.1742
 1001MOL0     H32116   6.372   8.678  -0.161  0.5904 -0.6269 -0.2404
 1001MOL0     H32117   6.210   8.526  -0.069  0.4230  1.1839 -0.3886
 1001MOL0     H32118   5.271   8.955   1.019  0.4301 -2.1721 -1.4992
 1001MOL0     H32119   5.098   9.012   1.191 -3.1986  0.8771 -1.1525
 1001MOL0     H32120   4.789   8.921   1.478 -1.8890  2.1897 -1.9390
 1001MOL0     H32121   4.617   8.888   1.685 -1.8077  1.0912 -0.7538
 1001MOL0     H32122   4.277   8.596   1.640  1.1630  0.2176  1.4508
 1001MOL0     H32123   4.220   8.748   1.569  0.2266 -0.6776 -0.6120
 1001MOL0     H32124   4.251   8.664   1.850  0.0825 -0.6164 -1.2106
 1001MOL0     H32125   4.198   8.836   1.802 -0.1321 -0.0850  0.4403
 1001MOL0     H32126   4.015   8.635   1.875  2.5375 -2.5340  0.2933
 1001MOL0     H32127   4.058   8.585   1.712  0.0043  2.1966 -2.8382
 1001MOL0     H32128   3.927   8.860   1.752  1.6619  0.4301 -0.6117
 1001MOL0     H32129   3.939   8.765   1.602 -1.0051 -1.1026  0.3782
 1001MOL0     H32130   3.595   8.634   1.781 -0.7685  2.3137  0.1646
 1001MOL0     H32131   4.378   8.644   1.440  0.3340  0.2145 -1.0493
 1001MOL0     H32132   4.543   8.659   1.252  1.3266 -1.2483  0.9406
 1002MOL0     O32133   7.883   9.507   7.608  0.1070 -0.2981 -0.2094
 1002MOL0     C32134   7.995   9.453   7.589  0.2899  0.8094  0.0395
 1002MOL0     O32135   8.030   9.328   7.635  0.6869 -0.4686 -0.3935
 1002MOL0     C32136   7.986   9.305   7.761 -0.2048  0.2274 -0.3760
 1002MOL0     C32137   7.973   9.405   7.864  0.5849 -0.8747 -1.0204
 1002MOL0     C32138   7.942   9.360   7.996 -1.2234 -0.3831  0.3745
 1002MOL0     C32139   7.921   9.224   8.022  0.2692 -0.4234 -0.7479
 1002MOL0     O32140   7.883   9.177   8.149  0.2636 -0.3604  0.7893
 1002MOL0     C32141   7.899   9.259   8.263 -0.3719 -0.0388  0.2267
 1002MOL0     C32142   7.830   9.177   8.379  0.1232 -0.7179  1.0162
 1002MOL0     C32143   7.843   9.268   8.498 -1.4808 -0.4985 -0.0595
 1002MOL0     C32144   7.767   9.231   8.622 -0.7733  0.5406  0.5447
 1002MOL0     C32145   7.617   9.259   8.617 -0.3058  1.2810 -0.2139
 1002MOL0     C32146   7.544   9.145   8.694 -0.6003  0.1527 -0.0321
 1002MOL0     C32147   7.568   9.159   8.843 -0.5270  1.2371  0.1165
 1002MOL0     C32148   7.513   9.290   8.902  0.2389 -0.2856  0.1616
 1002MOL0     N32149   7.483   9.268   9.048 -0.4012  0.0234  0.2267
 1002MOL0     C32150   7.359   9.216   9.100 -0.5105  1.0630  0.5623
 1002MOL0     C32151   7.356   9.260   9.231 -0.8104  0.0969  0.2621
 1002MOL0     C32152   7.250   9.247   9.338 -0.1314  0.1687  0.1094
 1002MOL0     C32153   7.143   9.368   9.333  0.4307  0.4155 -0.0061
 1002MOL0     C32154   7.182   9.507   9.286 -1.0939 -0.2942  0.4117
 1002MOL0     C32155   7.283   9.570   9.376  0.1561  0.9518 -0.4834
 1002MOL0     O32156   7.207   9.607   9.495 -0.0024 -0.0127 -0.4119
 1002MOL0     C32157   7.156   9.732   9.494  0.4221 -0.8913 -0.9488
 1002MOL0     C32158   7.226   9.844   9.541 -0.2049  0.0467  0.6925
 1002MOL0     C32159   7.171   9.966   9.557  0.6837 -0.1286 -0.1525
 1002MOL0     C32160   7.041   9.986   9.518  0.3301 -1.1896  0.8956
 1002MOL0     C32161   6.968  10.119   9.535  0.0231  0.2738 -0.2841
 1002MOL0     O32162   6.843  10.128   9.494 -1.1094  0.4694 -0.0436
 1002MOL0     C32163   6.765  10.240   9.513 -0.4865 -0.2480 -0.4918
 1002MOL0     C32164   6.629  10.223   9.529 -0.8844 -0.4519 -0.1625
 1002MOL0     C32165   6.543  10.339   9.552  0.3797 -0.5189  0.1654
 1002MOL0     C32166   6.593  10.470   9.557  0.4776  0.6455  0.8027
 1002MOL0     O32167   6.509  10.576   9.581 -0.0720 -0.1678 -0.8693
 1002MOL0     C32168   6.484  10.656   9.463 -0.3245  0.2771 -0.1053
 1002MOL0     C32169   6.432  10.794   9.490 -0.3072  0.7010 -0.3836
 1002MOL0     C32170   6.279  10.790   9.530 -0.0301  0.7123 -0.3854
 1002MOL0     C32171   6.186  10.770   9.399 -0.1882  0.4031 -0.0052
 1002MOL0     C32172   6.056  10.712   9.451  0.6484  0.5938  0.4254
 1002MOL0     C32173   5.950  10.726   9.349  0.3388  0.3628  0.4941
 1002MOL0     C32174   5.981  10.663   9.211  0.0199 -0.0168 -0.2816
 1002MOL0     C32175   5.865  10.565   9.167  0.3097 -1.1490 -0.2791
 1002MOL0    Cl32176   5.717  10.666   9.173 -0.1057  0.2483 -0.0613
 1002MOL0     C32177   6.724  10.484   9.530  0.6634 -0.4122 -1.0504
 1002MOL0     C32178   6.811  10.372   9.509  0.6972 -0.7053  0.4540
 1002MOL0     O32179   7.030  10.215   9.587  0.1748  0.1476  0.6504
 1002MOL0     C32180   6.962   9.883   9.467 -0.0314  0.0476  0.3943
 1002MOL0     C32181   7.023   9.753   9.461 -0.2715  0.1855  0.2331
 1002MOL0     N32182   7.475   9.324   9.262 -0.4235  0.5292  0.2957
 1002MOL0     N32183   7.542   9.339   9.150  0.2884  0.8003  0.0201
 1002MOL0     C32184   7.923   9.139   7.916 -0.1310  0.0694 -1.2594
 1002MOL0     C32185   7.948   9.171   7.788  0.0657 -0.6179 -0.2462
 1002MOL0     C32186   8.076   9.528   7.488 -0.4907  0.3365  0.3816
 1002MOL0     C32187   8.026   9.633   7.415  0.2667  0.0557  0.3088
 1002MOL0     C32188   8.095   9.694   7.301 -0.6294 -0.7048 -0.1661
 1002MOL0     C32189   8.226   9.654   7.275  0.1033  0.5997 -1.0023
 1002MOL0     O32190   8.304   9.727   7.183 -0.0823 -0.7580  0.1917
 1002MOL0     C32191   8.441   9.738   7.193  0.1434 -0.1332 -0.2729
 1002MOL0     C32192   8.477   9.806   7.066  0.3646  0.7819  0.0538
 1002MOL0     C32193   8.617   9.857   7.071 -0.3009 -0.8415 -0.6322
 1002MOL0     C32194   8.725   9.784   6.993  0.5800 -0.1080  0.0838
 1002MOL0     C32195   8.857   9.845   6.992 -0.2193 -0.4115 -0.7998
 1002MOL0     C32196   8.976   9.881   6.997  0.4657  0.3721  0.0991
 1002MOL0     C32197   8.278   9.537   7.348 -0.2293 -0.2203  0.1626
 1002MOL0     C32198   8.200   9.476   7.446  0.2614  0.6271 -0.3203
 1002MOL0     H32199   7.994   9.509   7.840  1.7307 -0.2998  2.0224
 1002MOL0     H32200   7.936   9.434   8.075 -0.8707  0.7096 -0.5931
 1002MOL0     H32201   7.845   9.354   8.249  1.0697  0.6170 -1.0658
 1002MOL0     H32202   8.005   9.280   8.276 -0.2024  0.3061 -1.5271
 1002MOL0     H32203   7.867   9.077   8.400 -0.5301 -1.2412 -0.2015
 1002MOL0     H32204   7.723   9.163   8.358  0.1558  1.5372 -1.0791
 1002MOL0     H32205   7.804   9.369   8.482  2.2527  0.8957 -1.3995
 1002MOL0     H32206   7.951   9.268   8.516 -1.7428 -0.9740  1.7321
 1002MOL0     H32207   7.791   9.127   8.647  2.6948  0.8200 -1.0522
 1002MOL0     H32208   7.807   9.284   8.709  2.4316  1.1579 -1.1624
 1002MOL0     H32209   7.573   9.265   8.517  2.0488  1.5827 -1.2975
 1002MOL0     H32210   7.599   9.359   8.658 -0.1886  1.5867 -0.8819
 1002MOL0     H32211   7.581   9.052   8.650 -0.9497 -1.2599  2.5051
 1002MOL0     H32212   7.438   9.148   8.667 -0.3982  0.0190 -0.8686
 1002MOL0     H32213   7.523   9.079   8.902  0.8834  0.5770  0.3175
 1002MOL0     H32214   7.676   9.148   8.856 -0.3322  1.0896 -1.4189
 1002MOL0     H32215   7.426   9.325   8.846  1.0184  0.3957 -0.6531
 1002MOL0     H32216   7.589   9.368   8.894 -0.2834  0.0772 -1.7276
 1002MOL0     H32217   7.287   9.147   9.057 -0.0079  0.5323  0.5448
 1002MOL0     H32218   7.308   9.273   9.427  0.1375  3.0629 -0.8070
 1002MOL0     H32219   7.201   9.150   9.326  0.0188  0.2651 -1.4701
 1002MOL0     H32220   7.107   9.380   9.435 -1.4322  2.2595 -0.8203
 1002MOL0     H32221   7.057   9.336   9.274  0.3764 -3.6846  1.9636
 1002MOL0     H32222   7.226   9.506   9.186  0.5778 -1.3810  1.1127
 1002MOL0     H32223   7.087   9.559   9.276 -0.6203  0.3387 -1.1840
 1002MOL0     H32224   7.326   9.656   9.324 -3.5986  2.8713 -0.7364
 1002MOL0     H32225   7.355   9.494   9.410  0.2179  0.3135 -1.9867
 1002MOL0     H32226   7.333   9.847   9.559  0.0033  2.5521 -0.4306
 1002MOL0     H32227   7.232  10.048   9.594  0.7395 -0.8128  1.3337
 1002MOL0     H32228   6.586  10.123   9.524 -0.7334 -0.4679 -1.6763
 1002MOL0     H32229   6.436  10.324   9.562  0.1472  1.2036  0.5328
 1002MOL0     H32230   6.409  10.605   9.402 -1.4649  2.2643 -0.4404
 1002MOL0     H32231   6.582  10.667   9.416 -0.1083  1.6936  0.6388
 1002MOL0     H32232   6.437  10.846   9.393 -0.3441 -2.4773 -2.2330
 1002MOL0     H32233   6.496  10.847   9.562 -0.9772 -1.1031  1.6131
 1002MOL0     H32234   6.260  10.890   9.570  1.7337  1.3088 -0.9064
 1002MOL0     H32235   6.258  10.717   9.608 -1.2227  0.0157 -1.3356
 1002MOL0     H32236   6.178  10.864   9.344  0.0615  0.7833  0.5992
 1002MOL0     H32237   6.231  10.705   9.324  0.5818  1.3200 -0.3574
 1002MOL0     H32238   6.018  10.759   9.542  0.4337  2.9294 -0.7934
 1002MOL0     H32239   6.057  10.609   9.487 -1.5387  0.5905  0.5936
 1002MOL0     H32240   5.931  10.831   9.327  4.3772  1.1302 -0.2005
 1002MOL0     H32241   5.860  10.683   9.394 -1.2847  2.9537 -0.0800
 1002MOL0     H32242   6.007  10.727   9.127 -1.1236 -2.5750 -2.7475
 1002MOL0     H32243   6.063  10.592   9.227 -1.3899 -1.6904 -0.1481
 1002MOL0     H32244   5.845  10.481   9.234 -2.3159  0.4682  1.1484
 1002MOL0     H32245   5.884  10.519   9.070  2.0187 -0.3448 -0.3694
 1002MOL0     H32246   6.767  10.582   9.514  0.7154 -0.6389 -2.4130
 1002MOL0     H32247   6.907  10.398   9.465 -1.1969  0.5404 -3.3994
 1002MOL0     H32248   6.854   9.898   9.464  0.2670  3.0895  1.5917
 1002MOL0     H32249   6.963   9.666   9.437  0.4329  0.4388 -2.8287
 1002MOL0     H32250   7.892   9.039   7.944  1.9489 -0.7698 -1.7399
 1002MOL0     H32251   7.954   9.105   7.702  1.5512  1.8761 -2.2019
 1002MOL0     H32252   7.929   9.674   7.442  0.7186  1.3152  0.1107
 1002MOL0     H32253   8.065   9.793   7.267  1.2030  0.4316  1.2981
 1002MOL0     H32254   8.488   9.642   7.216 -1.2478 -0.3660  1.8634
 1002MOL0     H32255   8.452   9.804   7.279 -0.0155 -0.4114 -0.0412
 1002MOL0     H32256   8.465   9.736   6.982  2.4797  2.9986 -2.2725
 1002MOL0     H32257   8.424   9.901   7.056  1.6645  1.3107 -3.2449
 1002MOL0     H32258   8.655   9.863   7.174 -0.6244 -2.2686 -0.4075
 1002MOL0     H32259   8.617   9.958   7.028  1.4603  1.1903  3.5534
 1002MOL0     H32260   8.729   9.682   7.032 -1.7629  0.1732  1.2118
 1002MOL0     H32261   8.692   9.766   6.891 -0.6618  0.8993  0.2801
 1002MOL0     H32262   9.068   9.932   6.976 -2.0110  4.6360 -1.7785
 1002MOL0     H32263   8.376   9.497   7.324 -0.8317 -0.3295 -2.3847
 1002MOL0     H32264   8.231   9.384   7.495 -0.9325 -1.5054 -3.2256
 1003MOL0     O32265   3.836   3.710  10.663 -0.6948  0.1232  0.7774
 1003MOL0     C32266   3.852   3.712  10.534 -0.4801  0.1361 -0.2235
 1003MOL0     O32267   3.904   3.811  10.458  0.0863  0.1586 -0.8311
 1003MOL0     C32268   3.918   3.931  10.522  0.1063  0.1769 -0.1380
 1003MOL0     C32269   4.036   4.012  10.509  0.3965  0.6829 -0.7400
 1003MOL0     C32270   4.040   4.137  10.566  0.0000 -0.4924 -0.4454
 1003MOL0     C32271   3.928   4.184  10.624  0.4210  0.1837  0.3536
 1003MOL0     O32272   3.921   4.304  10.689 -0.8759  0.6207  0.4150
 1003MOL0     C32273   3.990   4.305  10.819 -0.5561 -0.2236  1.0352
 1003MOL0     C32274   4.118   4.389  10.812 -0.1071  0.1538  0.7684
 1003MOL0     C32275   4.090   4.537  10.801  0.3595  1.2984 -0.5759
 1003MOL0     C32276   4.226   4.610  10.780 -0.7724  1.2267  0.8097
 1003MOL0     C32277   4.224   4.761  10.807  0.7746 -0.1873  0.0722
 1003MOL0     C32278   4.150   4.836  10.694 -0.1750  0.6322 -0.4895
 1003MOL0     C32279   4.193   4.987  10.700 -0.2247  0.0365  0.8589
 1003MOL0     C32280   4.096   5.081  10.628 -0.1765  0.7846 -0.4090
 1003MOL0     N32281   4.087   5.050  10.483 -0.0858  0.6549  0.1775
 1003MOL0     C32282   4.194   5.015  10.402 -0.1419  0.1887 -0.0657
 1003MOL0     C32283   4.133   4.988  10.280  0.0234 -0.1560 -0.1635
 1003MOL0     C32284   4.206   4.948  10.154 -0.2719  0.7228 -1.0861
 1003MOL0     C32285   4.286   5.069  10.097 -0.4333 -0.6749  0.4576
 1003MOL0     C32286   4.438   5.066  10.140 -0.3719  0.1307  0.5096
 1003MOL0     C32287   4.502   5.199  10.086  0.0451 -0.1964 -0.9303
 1003MOL0     O32288   4.613   5.251  10.169  1.1914 -0.8439 -0.0902
 1003MOL0     C32289   4.707   5.344  10.123  0.2766 -1.3107  0.1136
 1003MOL0     C32290   4.725   5.385   9.983  0.0203  0.0691 -0.1013
 1003MOL0     C32291   4.818   5.489   9.950  0.2999  1.0652 -0.6633
 1003MOL0     C32292   4.894   5.547  10.053  0.5057  0.4166 -0.1528
 1003MOL0     C32293   4.990   5.657  10.031 -0.3281 -0.3852 -0.0717
 1003MOL0     O32294   5.020   5.737  10.136  0.6996 -0.4406 -0.0821
 1003MOL0     C32295   5.087   5.857  10.122  0.7186 -0.0978 -0.8859
 1003MOL0     C32296   5.014   5.975  10.160  0.2287 -0.0310 -0.4416
 1003MOL0     C32297   5.075   6.101  10.148 -0.2036 -1.2691 -0.5394
 1003MOL0     C32298   5.214   6.106  10.106 -0.9312 -0.5162  0.0524
 1003MOL0     O32299   5.296   6.219  10.099  0.5440 -0.1862 -0.1034
 1003MOL0     C32300   5.239   6.340  10.153  0.3384 -0.6199 -0.4329
 1003MOL0     C32301   5.334   6.459  10.113 -0.6162  0.5551  0.4248
 1003MOL0     C32302   5.358   6.457   9.962  0.4973 -0.0583 -0.3652
 1003MOL0     C32303   5.470   6.545   9.922  0.1294  0.0514  0.2512
 1003MOL0     C32304   5.616   6.486   9.947  0.6063  0.1421  0.0904
 1003MOL0     C32305   5.650   6.412  10.081  0.7583  0.0437 -0.0646
 1003MOL0     C32306   5.793   6.377  10.085 -0.8553  0.0683 -0.0625
 1003MOL0     C32307   5.850   6.373  10.226  0.8320  1.0647  0.1762
 1003MOL0    Cl32308   5.870   6.551  10.268 -0.2129  0.3949 -0.2773
 1003MOL0     C32309   5.278   5.988  10.077 -0.9818 -0.0709 -0.8614
 1003MOL0     C32310   5.219   5.872  10.085  0.2826 -0.7123 -0.2089
 1003MOL0     O32311   5.024   5.681   9.912  0.1025 -0.3471 -0.2007
 1003MOL0     C32312   4.881   5.509  10.187 -1.0649  0.2307 -0.1263
 1003MOL0     C32313   4.788   5.414  10.219  0.7232  0.7546  0.3512
 1003MOL0     N32314   3.999   5.010  10.292  0.2120 -0.1535  0.3679
 1003MOL0     N32315   3.974   5.037  10.415 -0.0003 -0.7399 -0.3410
 1003MOL0     C32316   3.806   4.111  10.627 -0.0436  0.7763  0.8964
 1003MOL0     C32317   3.800   3.990  10.576 -0.1451  0.8682  0.1860
 1003MOL0     C32318   3.796   3.599  10.468  0.4557  0.6141  0.5471
 1003MOL0     C32319   3.731   3.608  10.340 -0.5117 -0.6906 -0.9715
 1003MOL0     C32320   3.676   3.496  10.277 -0.8441 -0.1335  0.8749
 1003MOL0     C32321   3.671   3.371  10.333 -0.4327  0.8253 -0.2646
 1003MOL0     O32322   3.606   3.267  10.261  0.6517 -0.9988  0.1962
 1003MOL0     C32323   3.597   3.146  10.329  0.1308 -0.7470 -0.0669
 1003MOL0     C32324   3.524   3.052  10.237  1.2160 -0.6761 -0.9003
 1003MOL0     C32325   3.367   3.074  10.234 -0.0611  0.7385 -0.3990
 1003MOL0     C32326   3.292   2.968  10.146  0.1200 -0.3306 -0.2724
 1003MOL0     C32327   3.190   2.896  10.217  0.4127  0.4877 -0.0928
 1003MOL0     C32328   3.124   2.814  10.286 -0.8721  0.6541  0.9451
 1003MOL0     C32329   3.748   3.351  10.452  0.3654 -0.5756 -0.3724
 1003MOL0     C32330   3.805   3.465  10.523 -0.4116 -0.3699 -0.2979
 1003MOL0     H32331   4.119   3.967  10.456  1.6350  1.7318  0.2305
 1003MOL0     H32332   4.131   4.195  10.554  0.7839 -1.0713  2.0629
 1003MOL0     H32333   4.005   4.204  10.858  0.8697 -0.5113 -0.1522
 1003MOL0     H32334   3.922   4.347  10.893 -1.2707  2.0225 -0.7597
 1003MOL0     H32335   4.197   4.354  10.744  0.1283  2.7803 -0.4133
 1003MOL0     H32336   4.160   4.372  10.912 -0.6894 -2.5794  0.6249
 1003MOL0     H32337   4.046   4.574  10.894 -1.0065 -1.0205 -0.2148
 1003MOL0     H32338   4.020   4.546  10.718  2.5581 -1.1807 -2.9491
 1003MOL0     H32339   4.300   4.566  10.848  1.4600  2.6802 -0.5535
 1003MOL0     H32340   4.256   4.590  10.677 -3.2965 -5.3660  0.8506
 1003MOL0     H32341   4.322   4.801  10.835  1.5155 -0.9250 -1.3488
 1003MOL0     H32342   4.165   4.781  10.897  2.9191 -2.9267  2.2668
 1003MOL0     H32343   4.042   4.831  10.706 -0.1047  2.0331  1.2986
 1003MOL0     H32344   4.166   4.787  10.598 -2.8353 -3.4681  0.8704
 1003MOL0     H32345   4.201   5.016  10.805 -1.8094 -0.5112  1.1557
 1003MOL0     H32346   4.293   4.998  10.656  0.0051  1.6765  1.7022
 1003MOL0     H32347   4.130   5.184  10.646  0.9994  0.0567  1.9379
 1003MOL0     H32348   3.998   5.081  10.676 -1.0168 -0.4699 -2.0281
 1003MOL0     H32349   4.297   4.993  10.428  0.1266 -1.9199 -2.6200
 1003MOL0     H32350   4.131   4.923  10.078 -2.2873  0.2265  0.9675
 1003MOL0     H32351   4.260   4.854  10.170 -2.7689 -0.5098  0.7126
 1003MOL0     H32352   4.241   5.158  10.142 -0.5497 -0.7662  0.5249
 1003MOL0     H32353   4.278   5.075   9.988  4.3761  3.7254 -0.0331
 1003MOL0     H32354   4.437   5.076  10.249  0.3429  1.3062  0.4354
 1003MOL0     H32355   4.486   4.972  10.111 -1.5402 -0.0116 -1.0642
 1003MOL0     H32356   4.423   5.275  10.076  0.9844  1.5211  2.9849
 1003MOL0     H32357   4.537   5.183   9.983 -0.3156  2.3261 -1.5255
 1003MOL0     H32358   4.672   5.339   9.900 -0.9948 -0.9028  1.0463
 1003MOL0     H32359   4.819   5.528   9.849 -3.0919  0.5212 -1.0313
 1003MOL0     H32360   4.907   5.957  10.170 -0.3747  2.1272 -2.1217
 1003MOL0     H32361   5.012   6.183  10.180  0.0622 -0.9107 -0.9272
 1003MOL0     H32362   5.227   6.329  10.261  1.9986  0.0869 -0.1398
 1003MOL0     H32363   5.138   6.353  10.112 -0.6766  0.4088  2.1200
 1003MOL0     H32364   5.423   6.472  10.175  1.4122  1.5889 -2.4533
 1003MOL0     H32365   5.287   6.551  10.149 -0.8591 -0.0105  1.5778
 1003MOL0     H32366   5.269   6.477   9.903  0.6095  2.0891  0.1069
 1003MOL0     H32367   5.368   6.353   9.930  0.7258 -0.6948  1.5992
 1003MOL0     H32368   5.455   6.572   9.818  2.2816 -0.4378 -0.2356
 1003MOL0     H32369   5.448   6.637   9.976 -3.7586 -0.6184  0.0863
 1003MOL0     H32370   5.674   6.579   9.937 -2.1820  2.0727  0.5963
 1003MOL0     H32371   5.649   6.423   9.864 -0.5714 -1.6949  0.9580
 1003MOL0     H32372   5.583   6.327  10.097  0.3953  0.3177 -0.1095
 1003MOL0     H32373   5.620   6.468  10.170 -2.8680 -0.3946 -0.8437
 1003MOL0     H32374   5.793   6.276  10.041 -1.3740  0.9358 -2.1727
 1003MOL0     H32375   5.857   6.436  10.020  1.2256 -2.3856 -0.4164
 1003MOL0     H32376   5.942   6.316  10.236  0.5424  0.0178 -2.4537
 1003MOL0     H32377   5.791   6.313  10.297  1.4562 -0.7931 -0.8093
 1003MOL0     H32378   5.377   5.984  10.033 -0.2615  1.9323  0.4228
 1003MOL0     H32379   5.271   5.783  10.051 -0.0202 -0.8080 -0.4183
 1003MOL0     H32380   4.934   5.559  10.267  0.6881 -2.9381  0.8530
 1003MOL0     H32381   4.768   5.398  10.325 -0.6273  0.2603  0.0377
 1003MOL0     H32382   3.718   4.165  10.659  0.1817  0.0157  2.9584
 1003MOL0     H32383   3.705   3.938  10.576 -0.5873  1.5960 -1.6888
 1003MOL0     H32384   3.733   3.699  10.281 -0.7534 -0.8181 -1.1735
 1003MOL0     H32385   3.637   3.520  10.179  1.7233  1.8539  0.2268
 1003MOL0     H32386   3.544   3.160  10.424  1.5985  1.3292  0.5006
 1003MOL0     H32387   3.694   3.106  10.359 -0.0345 -2.1483 -1.2808
 1003MOL0     H32388   3.559   3.045  10.134  3.3926 -0.6163 -0.2235
 1003MOL0     H32389   3.546   2.959  10.289  1.8172  1.2800  2.7244
 1003MOL0     H32390   3.344   3.171  10.189  1.4317  0.5510 -1.6873
 1003MOL0     H32391   3.319   3.071  10.332  2.2746 -1.4187  0.7935
 1003MOL0     H32392   3.251   3.025  10.062 -3.8361 -0.9790  1.0401
 1003MOL0     H32393   3.362   2.895  10.104  0.2627  0.4472 -1.4471
 1003MOL0     H32394   3.067   2.746  10.345  1.1043 -0.4814  1.6331
 1003MOL0     H32395   3.751   3.257  10.507 -0.7607  1.0446  2.7264
 1003MOL0     H32396   3.860   3.453  10.616 -3.0919 -0.5139  1.3794
 1004MOL0     O32397  11.035   2.289  10.300  0.1722  0.3037 -0.1550
 1004MOL0     C32398  11.044   2.166  10.292  0.3335  0.2388 -0.4173
 1004MOL0     O32399  10.986   2.081  10.386  0.1590 -0.2056  0.1085
 1004MOL0     C32400  10.902   2.134  10.483  0.4221 -0.2584  0.2880
 1004MOL0     C32401  10.943   2.229  10.583 -0.6397  0.3956 -0.5761
 1004MOL0     C32402  10.862   2.271  10.687 -0.0439  0.5736  0.4062
 1004MOL0     C32403  10.729   2.226  10.688 -0.4905 -1.0909  0.2818
 1004MOL0     O32404  10.643   2.257  10.793  0.6357 -0.2724  0.4119
 1004MOL0     C32405  10.623   2.390  10.822 -0.1450  0.5982 -0.2136
 1004MOL0     C32406  10.547   2.473  10.715  0.1506 -0.3495  0.4236
 1004MOL0     C32407  10.407   2.417  10.690 -0.0005  0.3102  0.3021
 1004MOL0     C32408  10.315   2.425  10.819 -0.3633  0.3098  0.4530
 1004MOL0     C32409  10.168   2.398  10.765 -0.1102 -0.4064  0.1430
 1004MOL0     C32410  10.147   2.269  10.683  0.3527  0.1651  0.3508
 1004MOL0     C32411  10.001   2.255  10.630  0.1906 -0.3437  0.6195
 1004MOL0     C32412   9.984   2.132  10.532 -0.3404  1.0120 -0.5897
 1004MOL0     N32413   9.843   2.147  10.478 -0.0642  1.1864  0.1939
 1004MOL0     C32414   9.794   2.247  10.396 -0.3149  0.2000 -0.2166
 1004MOL0     C32415   9.661   2.234  10.379  0.5863  0.3379  1.3709
 1004MOL0     C32416   9.555   2.334  10.319 -0.0868  0.9383  0.2392
 1004MOL0     C32417   9.550   2.339  10.161  1.0699 -0.0203  0.4257
 1004MOL0     C32418   9.440   2.229  10.116 -0.9882 -0.6359  0.4080
 1004MOL0     C32419   9.297   2.235  10.162  0.4976  1.1000  0.0699
 1004MOL0     O32420   9.222   2.108  10.145 -0.6357  0.2316  0.1802
 1004MOL0     C32421   9.232   2.013  10.237  0.2595  0.1218 -0.0257
 1004MOL0     C32422   9.320   2.001  10.350 -0.1615  0.3678 -0.3962
 1004MOL0     C32423   9.304   1.903  10.448  0.9083 -0.1144 -0.6028
 1004MOL0     C32424   9.199   1.810  10.448 -0.5954  0.0285 -0.0319
 1004MOL0     C32425   9.177   1.711  10.557 -0.0277 -0.3296 -0.3554
 1004MOL0     O32426   9.045   1.677  10.575 -0.2374 -0.3538 -0.3941
 1004MOL0     C32427   9.014   1.564  10.659 -1.0093 -0.3885 -0.1429
 1004MOL0     C32428   9.096   1.458  10.707 -0.4225  0.0096  0.0187
 1004MOL0     C32429   9.030   1.352  10.781 -0.6584 -1.0472  0.1342
 1004MOL0     C32430   8.893   1.352  10.823 -2.1816 -0.6061  0.4181
 1004MOL0     O32431   8.833   1.254  10.902  0.0163 -0.2184 -0.7668
 1004MOL0     C32432   8.850   1.283  11.041  0.2729  0.3849  0.2352
 1004MOL0     C32433   8.965   1.191  11.101  0.1801  0.8162  0.3917
 1004MOL0     C32434   8.914   1.054  11.163 -0.3414  0.4142 -0.2480
 1004MOL0     C32435   9.030   0.971  11.189 -0.8507  0.8447 -0.5123
 1004MOL0     C32436   8.990   0.831  11.251  0.6031  0.5198  0.2818
 1004MOL0     C32437   8.888   0.838  11.364 -0.7478  0.5104  0.2648
 1004MOL0     C32438   8.873   0.704  11.443  0.1290 -0.5905  0.4465
 1004MOL0     C32439   8.734   0.709  11.527  0.6072  0.1828  0.0212
 1004MOL0    Cl32440   8.745   0.605  11.674  0.4191  0.3437  0.2797
 1004MOL0     C32441   8.820   1.461  10.777  0.1743 -0.5574  0.2158
 1004MOL0     C32442   8.879   1.562  10.702 -0.0074  0.9226  0.1443
 1004MOL0     O32443   9.270   1.680  10.635 -0.6589  0.3053 -0.0024
 1004MOL0     C32444   9.128   1.809  10.333 -0.1836 -0.2918  0.6578
 1004MOL0     C32445   9.133   1.910  10.235 -0.7747 -0.7838  0.1719
 1004MOL0     N32446   9.632   2.114  10.448  0.4546 -0.3113 -0.2484
 1004MOL0     N32447   9.741   2.067  10.505 -0.4789 -0.3765  0.5032
 1004MOL0     C32448  10.678   2.136  10.595 -0.0430  0.4642  0.2586
 1004MOL0     C32449  10.767   2.087  10.497 -0.4834  0.0220 -0.1093
 1004MOL0     C32450  11.142   2.105  10.187  0.9087  0.2729 -0.3333
 1004MOL0     C32451  11.193   1.977  10.194  0.8339 -0.1315  0.1788
 1004MOL0     C32452  11.286   1.939  10.106 -0.3694  0.3324  1.1707
 1004MOL0     C32453  11.351   2.024  10.009  0.1815  0.1946 -0.6347
 1004MOL0     O32454  11.460   1.990   9.931 -0.5314 -0.4003  0.4860
 1004MOL0     C32455  11.520   1.862   9.946 -0.7381  0.4343 -0.1610
 1004MOL0     C32456  11.643   1.834   9.865 -0.2360  0.0456  0.6689
 1004MOL0     C32457  11.738   1.949   9.844  0.3141 -0.9515  0.2940
 1004MOL0     C32458  11.882   1.892   9.834  0.2498  0.0927  0.6363
 1004MOL0     C32459  11.899   1.819   9.704 -0.3191  0.2207  0.0971
 1004MOL0     C32460  11.897   1.766   9.592 -0.3821 -0.1524  0.3823
 1004MOL0     C32461  11.298   2.155   9.998 -0.5649  0.4031  0.3287
 1004MOL0     C32462  11.195   2.193  10.093 -0.4258 -0.0016 -0.3599
 1004MOL0     H32463  11.046   2.262  10.575 -0.4784 -0.5599 -3.7273
 1004MOL0     H32464  10.898   2.352  10.750  1.5372  2.5543 -2.7602
 1004MOL0     H32465  10.721   2.430  10.850  0.4611 -2.0762  1.9880
 1004MOL0     H32466  10.559   2.380  10.910 -2.1617 -0.9463 -1.7458
 1004MOL0     H32467  10.608   2.459  10.625  0.5083 -2.0919  0.8932
 1004MOL0     H32468  10.542   2.579  10.741 -1.7409 -0.3960  0.3706
 1004MOL0     H32469  10.417   2.317  10.646  0.4416  1.6951 -2.9911
 1004MOL0     H32470  10.366   2.475  10.607 -1.7172 -0.9787  0.1912
 1004MOL0     H32471  10.345   2.337  10.878 -0.1266 -1.1910 -1.7676
 1004MOL0     H32472  10.335   2.525  10.857  3.4304 -0.6080  1.3221
 1004MOL0     H32473  10.126   2.481  10.707 -2.4118 -0.6739  1.3023
 1004MOL0     H32474  10.104   2.388  10.854 -0.6765  1.1639 -0.0498
 1004MOL0     H32475  10.183   2.175  10.725  0.5843  0.4791  0.8672
 1004MOL0     H32476  10.210   2.282  10.595 -0.0514  0.7502  0.1366
 1004MOL0     H32477   9.922   2.260  10.705  0.1302  0.5395  0.5068
 1004MOL0     H32478   9.984   2.350  10.578 -1.9995 -1.4222 -0.7629
 1004MOL0     H32479   9.994   2.038  10.587 -1.9852 -0.8728 -3.2515
 1004MOL0     H32480  10.055   2.143  10.449 -2.0765  3.2221 -1.8864
 1004MOL0     H32481   9.844   2.335  10.358 -3.2672  2.3703  0.5205
 1004MOL0     H32482   9.596   2.430  10.351 -2.1615  1.6834  0.8635
 1004MOL0     H32483   9.456   2.314  10.363  0.3739  0.0928  0.9202
 1004MOL0     H32484   9.645   2.312  10.113  0.7353 -2.9183  1.2171
 1004MOL0     H32485   9.520   2.439  10.127 -2.0641 -1.1527 -0.5045
 1004MOL0     H32486   9.435   2.230  10.007  2.5218  0.7100  0.1321
 1004MOL0     H32487   9.475   2.131  10.149  0.3380  0.2867  1.8644
 1004MOL0     H32488   9.249   2.315  10.106 -1.3500  0.5752  0.8361
 1004MOL0     H32489   9.284   2.253  10.269  0.1840 -0.2797  0.2871
 1004MOL0     H32490   9.403   2.070  10.361  3.2392 -3.0722 -2.1463
 1004MOL0     H32491   9.372   1.910  10.532 -0.4129 -1.5897  0.6263
 1004MOL0     H32492   9.203   1.447  10.695 -0.5527 -0.7379 -0.5515
 1004MOL0     H32493   9.093   1.277  10.827  1.0706  0.4442  0.2863
 1004MOL0     H32494   8.759   1.267  11.099  0.9005  0.2186  1.1957
 1004MOL0     H32495   8.876   1.386  11.067 -2.2129  0.5224  2.5773
 1004MOL0     H32496   9.011   1.260  11.173 -0.5599  2.0957 -0.3225
 1004MOL0     H32497   9.037   1.183  11.020  0.3209 -0.8432  0.6603
 1004MOL0     H32498   8.866   1.007  11.076  0.7220  1.6688 -1.5695
 1004MOL0     H32499   8.846   1.071  11.247 -1.0911  1.8238 -1.0949
 1004MOL0     H32500   9.088   0.964  11.097  2.9075  0.1132  1.7001
 1004MOL0     H32501   9.095   1.033  11.253 -0.0315  0.9579 -1.4268
 1004MOL0     H32502   9.079   0.781  11.287 -0.0689 -0.8097  0.1461
 1004MOL0     H32503   8.955   0.761  11.174  0.7837  1.5838 -0.8057
 1004MOL0     H32504   8.786   0.857  11.330 -1.4984 -2.9171  0.2997
 1004MOL0     H32505   8.935   0.914  11.427  0.4741 -0.7742  0.9709
 1004MOL0     H32506   8.867   0.620  11.374 -0.8990 -1.6851  1.8123
 1004MOL0     H32507   8.964   0.695  11.503 -0.8544  0.8706  2.2961
 1004MOL0     H32508   8.653   0.678  11.460 -1.1333  2.7271  0.7734
 1004MOL0     H32509   8.716   0.816  11.546  2.7505  0.8030 -1.0897
 1004MOL0     H32510   8.713   1.465  10.795  0.1663 -0.5874  0.1758
 1004MOL0     H32511   8.829   1.656  10.679  0.6387  1.1032 -0.5723
 1004MOL0     H32512   9.035   1.756  10.313  0.3465 -1.7579  1.9113
 1004MOL0     H32513   9.087   1.897  10.138 -0.4658  1.3164 -0.3118
 1004MOL0     H32514  10.581   2.090  10.609  0.8311 -0.3178  5.5937
 1004MOL0     H32515  10.730   2.006  10.435  0.6758 -1.3537  0.9124
 1004MOL0     H32516  11.158   1.902  10.265 -2.9413  0.4906 -0.8237
 1004MOL0     H32517  11.312   1.834  10.117 -1.5171  0.3264  5.5343
 1004MOL0     H32518  11.441   1.791   9.917  0.8833 -1.6530  0.2245
 1004MOL0     H32519  11.540   1.842  10.051  0.8821 -1.9242 -0.8314
 1004MOL0     H32520  11.694   1.750   9.913 -0.6766  0.9110  2.7732
 1004MOL0     H32521  11.601   1.794   9.773  1.3994 -1.9147  0.7212
 1004MOL0     H32522  11.743   2.006   9.937  3.3041  0.7490 -0.7525
 1004MOL0     H32523  11.697   2.007   9.762  2.4884  2.8446  1.6512
 1004MOL0     H32524  11.956   1.972   9.841  2.0653 -1.3807 -0.5674
 1004MOL0     H32525  11.897   1.823   9.918 -4.5783 -1.8914  0.2085
 1004MOL0     H32526  11.901   1.715   9.498 -1.8242 -4.6343  2.4843
 1004MOL0     H32527  11.326   2.219   9.915 -0.0215 -2.4215 -1.8261
 1004MOL0     H32528  11.151   2.288  10.067  0.9641  0.1543 -2.3709
 1005MOL0     O32529   0.594   3.008   0.770 -0.2345  0.0244 -0.0995
 1005MOL0     C32530   0.649   2.904   0.804  1.1733  0.2444  0.4334
 1005MOL0     O32531   0.584   2.780   0.803  0.1429 -0.0754  0.2403
 1005MOL0     C32532   0.471   2.768   0.726  0.3553 -0.3554 -0.2014
 1005MOL0     C32533   0.480   2.794   0.583  0.5500 -0.7548  0.0404
 1005MOL0     C32534   0.359   2.793   0.512 -0.0675 -0.4700  0.8270
 1005MOL0     C32535   0.236   2.762   0.573 -0.0176 -0.0297  0.2122
 1005MOL0     O32536   0.115   2.747   0.510 -0.1193  0.1002  0.8819
 1005MOL0     C32537   0.114   2.736   0.370 -0.8435  0.1767 -0.2196
 1005MOL0     C32538  -0.025   2.697   0.317  0.6322  0.5050  0.5233
 1005MOL0     C32539  -0.057   2.545   0.366  0.2224  0.5629  0.2623
 1005MOL0     C32540  -0.199   2.512   0.318 -0.0011 -0.1646 -0.1598
 1005MOL0     C32541  -0.239   2.367   0.329 -0.1061  0.6791 -0.0562
 1005MOL0     C32542  -0.394   2.347   0.327 -0.2798 -0.0315 -1.0197
 1005MOL0     C32543  -0.420   2.202   0.332 -0.0478  1.2357 -0.7295
 1005MOL0     C32544  -0.419   2.139   0.469 -0.5591 -1.0408  0.8147
 1005MOL0     N32545  -0.533   2.170   0.557  0.9657 -0.3741 -0.5481
 1005MOL0     C32546  -0.565   2.282   0.631 -0.0964 -0.6706 -0.1015
 1005MOL0     C32547  -0.668   2.257   0.720  0.4023 -0.4174 -0.5359
 1005MOL0     C32548  -0.737   2.342   0.820  0.1886 -0.0598 -1.1067
 1005MOL0     C32549  -0.695   2.303   0.971  0.2147  0.1215  0.6945
 1005MOL0     C32550  -0.711   2.412   1.077 -0.1481  0.2172  0.0121
 1005MOL0     C32551  -0.858   2.444   1.094  0.0751 -0.1262 -0.7590
 1005MOL0     O32552  -0.943   2.331   1.119 -0.1673  0.7306 -0.3899
 1005MOL0     C32553  -1.084   2.355   1.144  0.0621 -0.7179  0.7752
 1005MOL0     C32554  -1.174   2.257   1.125  0.8211 -0.5952  0.0517
 1005MOL0     C32555  -1.312   2.271   1.137  0.0229  0.3905  0.4329
 1005MOL0     C32556  -1.356   2.404   1.177 -0.3702  0.2754 -0.7385
 1005MOL0     C32557  -1.495   2.444   1.187 -0.1826 -0.5689  0.2308
 1005MOL0     O32558  -1.578   2.348   1.218 -0.1479  0.2415  1.1402
 1005MOL0     C32559  -1.709   2.376   1.190 -1.1092  0.6185  0.3019
 1005MOL0     C32560  -1.793   2.414   1.298 -1.2238  0.7739 -0.0917
 1005MOL0     C32561  -1.924   2.453   1.271 -0.0512 -0.3904  0.7596
 1005MOL0     C32562  -1.988   2.436   1.142 -0.1954  0.2364 -1.1284
 1005MOL0     O32563  -2.121   2.440   1.113 -0.3752 -0.2585  1.2870
 1005MOL0     C32564  -2.221   2.490   1.200 -0.4056 -0.3483  0.1738
 1005MOL0     C32565  -2.359   2.498   1.128 -0.8179 -0.4350 -0.6249
 1005MOL0     C32566  -2.412   2.364   1.092 -0.4482  1.3409  0.6131
 1005MOL0     C32567  -2.556   2.380   1.026  0.1439  0.2442  0.4132
 1005MOL0     C32568  -2.635   2.258   0.971  0.2720 -0.6466 -0.5358
 1005MOL0     C32569  -2.735   2.301   0.855  0.3942  0.3663 -0.8315
 1005MOL0     C32570  -2.845   2.180   0.837 -0.8579 -0.0593  0.3109
 1005MOL0     C32571  -2.936   2.170   0.960  0.7016 -0.6415 -0.0977
 1005MOL0    Cl32572  -3.038   2.037   0.915  0.1291  0.2409 -0.0808
 1005MOL0     C32573  -1.892   2.397   1.042 -0.2430 -0.9706 -0.6714
 1005MOL0     C32574  -1.758   2.362   1.058  0.6348  0.3578 -0.2637
 1005MOL0     O32575  -1.528   2.558   1.140 -0.1433  0.7838 -0.4025
 1005MOL0     C32576  -1.263   2.503   1.209  0.3923  0.1977  0.0368
 1005MOL0     C32577  -1.127   2.477   1.196 -1.7420 -0.1790  0.4823
 1005MOL0     N32578  -0.691   2.121   0.700  0.5458 -0.4093  0.2381
 1005MOL0     N32579  -0.621   2.073   0.602 -0.1858  0.2639 -0.1365
 1005MOL0     C32580   0.232   2.727   0.711  0.0887  0.3982  0.2192
 1005MOL0     C32581   0.346   2.733   0.782 -0.7701 -0.4181 -0.2434
 1005MOL0     C32582   0.771   2.905   0.885 -0.1046 -0.0795  1.1283
 1005MOL0     C32583   0.852   2.796   0.907 -1.1898  0.3917  0.8325
 1005MOL0     C32584   0.982   2.809   0.973  1.1741 -0.0702 -0.1155
 1005MOL0     C32585   1.028   2.932   1.007 -0.1319 -0.1337 -1.3532
 1005MOL0     O32586   1.147   2.945   1.070 -0.2440  0.1549  0.0995
 1005MOL0     C32587   1.215   3.070   1.090  0.6019  0.8505 -0.1517
 1005MOL0     C32588   1.235   3.146   0.964 -0.5626 -0.2935 -0.4372
 1005MOL0     C32589   1.375   3.230   0.964  0.3300 -0.0286  0.5615
 1005MOL0     C32590   1.380   3.343   0.867  0.6808  0.1844 -0.6653
 1005MOL0     C32591   1.518   3.336   0.812  0.5096  0.1523 -0.9082
 1005MOL0     C32592   1.622   3.314   0.747  0.6185 -0.4508  0.0896
 1005MOL0     C32593   0.937   3.034   0.998 -0.0520 -0.2344 -0.1404
 1005MOL0     C32594   0.811   3.025   0.943  0.1785  0.3280 -0.2943
 1005MOL0     H32595   0.581   2.818   0.552  0.6056 -0.6351  0.3097
 1005MOL0     H32596   0.358   2.837   0.413 -2.5816 -0.4872  0.7783
 1005MOL0     H32597   0.180   2.654   0.340 -1.7975 -0.3617 -0.8803
 1005MOL0     H32598   0.145   2.826   0.316 -0.4408 -0.5501 -1.2355
 1005MOL0     H32599  -0.024   2.698   0.208 -1.3872  2.1017  0.4733
 1005MOL0     H32600  -0.088   2.772   0.364  2.9494  3.4046 -0.6857
 1005MOL0     H32601  -0.045   2.538   0.474 -0.5261 -0.1419  0.3080
 1005MOL0     H32602   0.008   2.466   0.328 -0.5438  0.3135 -0.5619
 1005MOL0     H32603  -0.275   2.578   0.362  0.6165  0.5861 -0.2023
 1005MOL0     H32604  -0.204   2.530   0.210  0.8627  0.0666 -0.1645
 1005MOL0     H32605  -0.184   2.320   0.411 -0.1737 -0.2389 -0.5306
 1005MOL0     H32606  -0.196   2.307   0.248  1.2477 -1.1679  1.9085
 1005MOL0     H32607  -0.436   2.386   0.234 -0.9894  2.1060  0.1382
 1005MOL0     H32608  -0.439   2.400   0.411  1.0452  2.4714 -1.7917
 1005MOL0     H32609  -0.525   2.192   0.302 -0.3326  1.1788  0.2591
 1005MOL0     H32610  -0.362   2.141   0.261 -0.0835  1.4348 -0.9298
 1005MOL0     H32611  -0.328   2.166   0.522  0.7994 -2.8351 -0.4949
 1005MOL0     H32612  -0.418   2.032   0.448  0.6567 -0.5816 -1.8949
 1005MOL0     H32613  -0.513   2.377   0.629  1.1381 -1.2114  2.3692
 1005MOL0     H32614  -0.847   2.345   0.818  0.0513  3.4909  1.5505
 1005MOL0     H32615  -0.697   2.443   0.803 -1.6659  0.5845 -1.9104
 1005MOL0     H32616  -0.587   2.282   0.965  0.0573 -0.6471  0.4192
 1005MOL0     H32617  -0.749   2.216   1.010 -1.5810  1.4875  1.3768
 1005MOL0     H32618  -0.675   2.375   1.174 -1.7227  3.6350  2.0848
 1005MOL0     H32619  -0.651   2.500   1.054 -1.2595  0.8817 -0.3992
 1005MOL0     H32620  -0.886   2.520   1.021 -1.6636 -0.3804 -0.4156
 1005MOL0     H32621  -0.857   2.498   1.189  2.0259 -2.6025  0.7443
 1005MOL0     H32622  -1.134   2.165   1.084 -1.5632 -0.5825 -2.6611
 1005MOL0     H32623  -1.382   2.194   1.105  1.0079 -0.8311  1.1465
 1005MOL0     H32624  -1.753   2.407   1.398 -5.8397  2.4513  2.1537
 1005MOL0     H32625  -1.972   2.498   1.357 -2.7914  0.8004 -1.2372
 1005MOL0     H32626  -2.182   2.589   1.226 -1.3060  0.2218 -0.6109
 1005MOL0     H32627  -2.240   2.436   1.293  0.1042  1.0529  1.1310
 1005MOL0     H32628  -2.360   2.560   1.038  2.0541  0.1819 -0.3167
 1005MOL0     H32629  -2.431   2.544   1.197  0.8612  2.8078 -0.8738
 1005MOL0     H32630  -2.420   2.293   1.175  2.0592 -2.0401 -1.7544
 1005MOL0     H32631  -2.339   2.315   1.027  0.0665 -0.7204  2.5898
 1005MOL0     H32632  -2.611   2.431   1.105  0.5852 -0.8641  1.4734
 1005MOL0     H32633  -2.553   2.451   0.943 -6.1012 -1.2055 -1.5613
 1005MOL0     H32634  -2.681   2.216   1.060  0.3722  2.4291  1.0973
 1005MOL0     H32635  -2.561   2.186   0.934  1.6874  0.1371  0.6250
 1005MOL0     H32636  -2.687   2.329   0.761  0.1889  0.6249 -0.8610
 1005MOL0     H32637  -2.786   2.395   0.880  0.7772  0.0869  1.2271
 1005MOL0     H32638  -2.901   2.186   0.743 -0.8594 -0.3248  0.2959
 1005MOL0     H32639  -2.779   2.094   0.826 -0.4685  0.3781 -0.9734
 1005MOL0     H32640  -3.001   2.254   0.987  1.6587 -0.8918  3.4838
 1005MOL0     H32641  -2.873   2.136   1.043  3.2275 -0.1031 -1.7134
 1005MOL0     H32642  -1.921   2.366   0.942 -1.7734 -0.2023 -0.4891
 1005MOL0     H32643  -1.698   2.323   0.976  0.4705 -4.0459  1.4591
 1005MOL0     H32644  -1.302   2.594   1.255  0.5200 -0.9273  2.5772
 1005MOL0     H32645  -1.061   2.554   1.236  2.5959 -3.4457  0.3313
 1005MOL0     H32646   0.135   2.709   0.755  0.0384 -0.4940 -0.2282
 1005MOL0     H32647   0.346   2.739   0.891  3.8483  0.2073 -0.0747
 1005MOL0     H32648   0.836   2.698   0.863 -2.7508  0.0057  2.1712
 1005MOL0     H32649   1.043   2.719   0.981  2.5095  0.6775 -1.2448
 1005MOL0     H32650   1.310   3.040   1.136  0.3125 -2.5913 -1.5506
 1005MOL0     H32651   1.164   3.130   1.166  0.5590 -0.3152  0.7625
 1005MOL0     H32652   1.246   3.066   0.890 -1.3708  2.2644 -3.5435
 1005MOL0     H32653   1.142   3.202   0.948 -0.9462 -1.0126 -0.7464
 1005MOL0     H32654   1.442   3.151   0.927 -0.5805  0.3494 -2.1637
 1005MOL0     H32655   1.413   3.265   1.060  0.3857  2.3826 -0.2833
 1005MOL0     H32656   1.307   3.319   0.789  1.1274 -3.5524 -0.1322
 1005MOL0     H32657   1.349   3.440   0.907  4.0228  1.5984 -1.1599
 1005MOL0     H32658   1.705   3.281   0.689 -0.9658 -4.5187 -0.2086
 1005MOL0     H32659   0.968   3.129   1.040 -0.1416 -0.8119  1.2645
 1005MOL0     H32660   0.750   3.112   0.923  2.1789  1.6930 -0.7156
 1006MOL0     O32661   3.562   7.346   1.429  0.0467  0.3278  0.3316
 1006MOL0     C32662   3.524   7.237   1.384 -0.4921  0.5127 -0.3694
 1006MOL0     O32663   3.543   7.190   1.262  0.2509  0.0880  0.3331
 1006MOL0     C32664   3.612   7.265   1.174  0.4615 -0.7704 -0.5173
 1006MOL0     C32665   3.556   7.368   1.101 -0.6624  1.1322 -0.9738
 1006MOL0     C32666   3.631   7.451   1.021 -0.1629  0.4769  0.2206
 1006MOL0     C32667   3.770   7.439   1.019 -0.2045 -0.0522 -0.0133
 1006MOL0     O32668   3.827   7.528   0.938 -0.5035  0.5111  0.3436
 1006MOL0     C32669   3.968   7.554   0.956 -0.6399 -0.4427  0.0105
 1006MOL0     C32670   4.005   7.692   0.913 -0.8227 -0.5544  0.1053
 1006MOL0     C32671   4.027   7.699   0.755  0.7623 -0.7129 -0.1485
 1006MOL0     C32672   4.039   7.845   0.718 -0.4699  0.6230 -0.1278
 1006MOL0     C32673   4.025   7.893   0.579  0.3398 -0.1861  0.2467
 1006MOL0     C32674   4.097   7.815   0.458  0.2935 -1.0604  0.2346
 1006MOL0     C32675   4.251   7.808   0.458 -0.4309  0.0913  0.0684
 1006MOL0     C32676   4.297   7.739   0.327 -0.1495 -0.3698 -0.8355
 1006MOL0     N32677   4.434   7.703   0.323 -0.2155  0.0001  0.0398
 1006MOL0     C32678   4.518   7.666   0.422  0.2352  0.1121 -0.1982
 1006MOL0     C32679   4.628   7.620   0.366 -0.4178  0.6505 -0.0153
 1006MOL0     C32680   4.745   7.554   0.440 -0.4246 -0.1566  0.4422
 1006MOL0     C32681   4.713   7.410   0.495 -0.4453 -0.1774  0.0666
 1006MOL0     C32682   4.838   7.321   0.498 -0.8589 -0.4145  0.6634
 1006MOL0     C32683   4.890   7.276   0.366 -0.4086  0.1212  0.4138
 1006MOL0     O32684   4.999   7.181   0.391  0.3362 -1.1457  0.9386
 1006MOL0     C32685   5.130   7.233   0.404  0.6619 -0.5763 -0.2051
 1006MOL0     C32686   5.233   7.142   0.400 -0.3104  0.6744 -0.0360
 1006MOL0     C32687   5.368   7.169   0.421 -0.0825  0.5737  0.3657
 1006MOL0     C32688   5.415   7.304   0.438  0.6799  0.0062  0.3183
 1006MOL0     C32689   5.560   7.348   0.436  0.3306  0.6086 -1.1337
 1006MOL0     O32690   5.636   7.239   0.420  0.0402 -0.5530  0.6015
 1006MOL0     C32691   5.774   7.240   0.419  0.4253 -0.5971  0.1714
 1006MOL0     C32692   5.857   7.346   0.380  0.3575  0.2004  0.3462
 1006MOL0     C32693   5.992   7.329   0.409  0.2876  0.1200 -0.3604
 1006MOL0     C32694   6.045   7.218   0.470  0.6360 -0.4526 -0.4700
 1006MOL0     O32695   6.182   7.217   0.498  0.9023  0.2194 -0.1154
 1006MOL0     C32696   6.258   7.104   0.525  0.5415  0.6924 -0.4613
 1006MOL0     C32697   6.372   7.101   0.416  0.0625  0.3395  0.1425
 1006MOL0     C32698   6.506   7.025   0.455  0.6543  0.9233 -0.3863
 1006MOL0     C32699   6.551   7.056   0.601  0.0742  0.4444  0.6974
 1006MOL0     C32700   6.704   7.046   0.609  0.0170 -0.1134 -0.1522
 1006MOL0     C32701   6.758   6.904   0.602  0.3968  0.3653  0.6227
 1006MOL0     C32702   6.905   6.906   0.620  0.6751 -0.2115 -0.2596
 1006MOL0     C32703   6.960   6.765   0.596  0.0946 -0.2680 -0.5500
 1006MOL0    Cl32704   6.869   6.636   0.680  0.3960 -0.0494  0.1911
 1006MOL0     C32705   5.965   7.108   0.491  0.9415 -0.9871 -0.1532
 1006MOL0     C32706   5.825   7.122   0.468  0.3303  0.4326  0.2724
 1006MOL0     O32707   5.596   7.464   0.435  0.1125  0.5177  0.4714
 1006MOL0     C32708   5.310   7.403   0.446  0.0879  0.4192 -0.2450
 1006MOL0     C32709   5.175   7.361   0.428  0.4183 -0.6063 -0.8449
 1006MOL0     N32710   4.613   7.640   0.234 -0.5887  0.4999 -0.1249
 1006MOL0     N32711   4.496   7.687   0.205 -0.6370  0.6786 -0.4144
 1006MOL0     C32712   3.835   7.336   1.090  0.7479  0.1283  0.2860
 1006MOL0     C32713   3.748   7.253   1.156 -0.4849 -0.3498  0.1936
 1006MOL0     C32714   3.437   7.152   1.470  0.1684 -0.6395  0.5235
 1006MOL0     C32715   3.410   7.177   1.606  0.5336 -0.9681 -0.9011
 1006MOL0     C32716   3.313   7.096   1.680  0.2114  0.2779 -0.1278
 1006MOL0     C32717   3.252   6.990   1.622 -0.0949  0.6643 -0.2325
 1006MOL0     O32718   3.176   6.921   1.710 -0.4853  0.5688  0.2960
 1006MOL0     C32719   3.121   6.792   1.679  0.1776 -0.4482 -0.2506
 1006MOL0     C32720   2.986   6.803   1.600  0.1928  0.1567 -0.3487
 1006MOL0     C32721   2.956   6.664   1.558  0.5073 -0.7237 -0.5676
 1006MOL0     C32722   2.847   6.663   1.454 -0.1815  0.3875  0.5436
 1006MOL0     C32723   2.879   6.721   1.318  0.2474  0.0298 -0.1140
 1006MOL0     C32724   2.894   6.761   1.200 -0.2099 -0.2883 -0.4033
 1006MOL0     C32725   3.290   6.951   1.494 -0.0441 -0.3100 -0.3388
 1006MOL0     C32726   3.374   7.034   1.412  0.9077 -0.3525 -0.5915
 1006MOL0     H32727   3.448   7.374   1.114 -0.7106  2.0204 -1.7114
 1006MOL0     H32728   3.580   7.524   0.958  3.5666  0.1325 -3.7212
 1006MOL0     H32729   4.025   7.485   0.893 -0.4698 -1.1172  0.8942
 1006MOL0     H32730   3.992   7.536   1.061 -1.1683 -1.2242  0.0071
 1006MOL0     H32731   4.101   7.727   0.952 -0.5945  0.2954 -1.1728
 1006MOL0     H32732   3.930   7.765   0.945  0.1350  0.2744  0.5324
 1006MOL0     H32733   3.949   7.648   0.697 -0.6135  1.5129 -0.3694
 1006MOL0     H32734   4.123   7.648   0.744 -0.3375 -2.6383 -1.4147
 1006MOL0     H32735   3.960   7.902   0.767 -2.0992 -0.2075 -1.6932
 1006MOL0     H32736   4.135   7.872   0.764  0.4035  0.2503 -1.6456
 1006MOL0     H32737   4.067   7.994   0.583  1.5679 -0.7003  0.9658
 1006MOL0     H32738   3.918   7.892   0.557  0.3650 -1.2652  0.0936
 1006MOL0     H32739   4.061   7.852   0.362 -0.9170 -4.8879 -0.9585
 1006MOL0     H32740   4.068   7.710   0.471  1.0110 -1.5297 -1.6349
 1006MOL0     H32741   4.311   7.900   0.453  0.9574 -0.8183 -0.3646
 1006MOL0     H32742   4.283   7.754   0.548 -0.5372 -2.4319 -1.3405
 1006MOL0     H32743   4.263   7.797   0.241 -2.4253  1.1700  0.9813
 1006MOL0     H32744   4.244   7.644   0.320 -0.3308 -0.4454  1.0581
 1006MOL0     H32745   4.492   7.646   0.525 -1.4692  1.8877 -0.2166
 1006MOL0     H32746   4.792   7.610   0.521 -2.0104  1.1374  0.5354
 1006MOL0     H32747   4.820   7.540   0.362 -3.3960 -2.3521 -2.3188
 1006MOL0     H32748   4.641   7.358   0.432  0.1269 -2.1647  0.9935
 1006MOL0     H32749   4.674   7.415   0.598 -3.5461  0.3707 -1.0293
 1006MOL0     H32750   4.915   7.380   0.549 -1.7577  0.1307  1.4263
 1006MOL0     H32751   4.818   7.233   0.560  0.7774 -1.7496 -0.6161
 1006MOL0     H32752   4.923   7.362   0.306  0.9802 -0.4260  0.3637
 1006MOL0     H32753   4.817   7.216   0.310  0.1449 -3.0044  2.7610
 1006MOL0     H32754   5.219   7.035   0.386  1.0770  0.6131 -1.1592
 1006MOL0     H32755   5.440   7.088   0.433  0.2168  0.5255 -1.4930
 1006MOL0     H32756   5.827   7.442   0.339 -1.3907  0.2733  1.6997
 1006MOL0     H32757   6.052   7.415   0.380 -1.1172  1.0843 -0.4962
 1006MOL0     H32758   6.201   7.012   0.510 -1.8709  2.4760 -3.5221
 1006MOL0     H32759   6.293   7.104   0.628 -1.9666  1.6168  0.4588
 1006MOL0     H32760   6.410   7.202   0.401 -0.6856  0.6567  0.3794
 1006MOL0     H32761   6.338   7.057   0.321 -3.1247  1.3866  0.6856
 1006MOL0     H32762   6.581   7.060   0.384  1.0776 -1.7643 -1.3913
 1006MOL0     H32763   6.513   6.917   0.438  6.6040  1.2948 -2.4875
 1006MOL0     H32764   6.515   7.157   0.621 -1.2846  0.2614 -0.6097
 1006MOL0     H32765   6.496   6.987   0.665 -1.8719  1.1667 -0.1205
 1006MOL0     H32766   6.729   7.083   0.708 -0.3138 -0.8601  0.2153
 1006MOL0     H32767   6.754   7.110   0.535  0.4877  1.0488  1.1417
 1006MOL0     H32768   6.740   6.881   0.497  2.7567 -0.5521  0.3787
 1006MOL0     H32769   6.706   6.846   0.679  0.3129  4.1115  3.7254
 1006MOL0     H32770   6.957   6.970   0.548  2.0099 -0.1164  0.7595
 1006MOL0     H32771   6.934   6.919   0.725  0.6863 -0.5533 -0.2181
 1006MOL0     H32772   7.065   6.753   0.625  0.1085  1.1000  0.0460
 1006MOL0     H32773   6.935   6.728   0.496  0.4440 -1.9185 -0.0479
 1006MOL0     H32774   6.012   7.016   0.526  2.6417 -0.7390 -1.6153
 1006MOL0     H32775   5.757   7.042   0.496 -0.4455  0.8133 -0.4785
 1006MOL0     H32776   5.319   7.511   0.453 -2.0648  0.6434 -0.1999
 1006MOL0     H32777   5.093   7.432   0.434 -0.7368 -2.0238  1.9282
 1006MOL0     H32778   3.942   7.313   1.092  0.3970 -1.7929  2.8991
 1006MOL0     H32779   3.770   7.165   1.216  2.4978 -2.5929 -3.6476
 1006MOL0     H32780   3.462   7.264   1.645 -1.8028 -0.2478  0.8444
 1006MOL0     H32781   3.288   7.128   1.781  0.8034  1.2743 -0.2815
 1006MOL0     H32782   3.102   6.731   1.768  1.0917 -1.2481 -0.5843
 1006MOL0     H32783   3.195   6.734   1.623  1.4948 -0.7874  1.7570
 1006MOL0     H32784   2.910   6.839   1.671 -4.6018 -2.6247 -3.4605
 1006MOL0     H32785   2.984   6.880   1.522 -2.9353  1.1348  0.5378
 1006MOL0     H32786   2.909   6.619   1.646 -1.1104  1.9768  0.0677
 1006MOL0     H32787   3.037   6.597   1.528 -0.3105 -1.3783 -1.3797
 1006MOL0     H32788   2.821   6.559   1.430  1.1231  0.2860 -0.5239
 1006MOL0     H32789   2.757   6.713   1.491 -0.0039  1.2764 -0.1916
 1006MOL0     H32790   2.883   6.790   1.097 -1.7378 -0.6310 -0.3618
 1006MOL0     H32791   3.245   6.865   1.446  0.5233 -0.4053 -0.7081
 1006MOL0     H32792   3.407   7.004   1.313  2.0013  0.2275 -0.4183
 1007MOL0     O32793   8.266   4.532   1.454  0.2835  0.0156 -0.1267
 1007MOL0     C32794   8.196   4.427   1.455 -0.3841 -0.1280 -0.3132
 1007MOL0     O32795   8.231   4.303   1.509 -0.6284 -0.1520  0.3440
 1007MOL0     C32796   8.351   4.299   1.577  0.2645 -0.7742 -0.8416
 1007MOL0     C32797   8.349   4.286   1.714 -0.9232 -0.6282  0.0619
 1007MOL0     C32798   8.469   4.302   1.790 -0.1438  0.4642  1.3049
 1007MOL0     C32799   8.596   4.333   1.734  0.1986 -0.0500 -0.1795
 1007MOL0     O32800   8.694   4.378   1.814 -0.0597 -0.0020  0.3004
 1007MOL0     C32801   8.782   4.276   1.848  0.1827  0.2478 -0.2987
 1007MOL0     C32802   8.935   4.309   1.834 -0.3522  0.4805  0.4464
 1007MOL0     C32803   8.987   4.450   1.890  0.3771 -0.1640  0.4174
 1007MOL0     C32804   9.145   4.463   1.863  0.4965  0.2384  0.3054
 1007MOL0     C32805   9.180   4.497   1.717 -1.3833  0.1624  0.2828
 1007MOL0     C32806   9.330   4.471   1.680  0.2147  0.2745  0.3658
 1007MOL0     C32807   9.438   4.533   1.769 -0.2977 -0.1028 -0.6749
 1007MOL0     C32808   9.582   4.542   1.710  0.1658  0.6586  0.1788
 1007MOL0     N32809   9.682   4.577   1.816 -0.4957  0.8723  0.0799
 1007MOL0     C32810   9.713   4.693   1.879 -1.1221 -0.2453  0.4328
 1007MOL0     C32811   9.804   4.663   1.974 -0.2041  0.4556  0.1175
 1007MOL0     C32812   9.860   4.751   2.086 -0.6667 -0.8146 -0.4527
 1007MOL0     C32813   9.996   4.821   2.039 -0.3559  0.1119  0.5532
 1007MOL0     C32814  10.029   4.952   2.110 -0.4015 -0.7222 -0.3922
 1007MOL0     C32815  10.160   5.020   2.043 -0.0119 -0.2123 -0.1418
 1007MOL0     O32816  10.286   4.960   2.053  0.6012  0.5202  0.1723
 1007MOL0     C32817  10.362   4.977   2.157 -0.1267 -0.1458  0.7362
 1007MOL0     C32818  10.383   4.857   2.219 -0.7513 -0.2439 -0.1068
 1007MOL0     C32819  10.453   4.850   2.338 -0.5427 -0.8893  0.0672
 1007MOL0     C32820  10.514   4.974   2.383 -0.8302  0.8118 -0.2152
 1007MOL0     C32821  10.583   4.974   2.513  0.2221 -0.9257 -0.6666
 1007MOL0     O32822  10.564   4.868   2.605 -0.6966 -0.1033 -0.5571
 1007MOL0     C32823  10.623   4.891   2.727  0.0919 -0.6539 -0.3016
 1007MOL0     C32824  10.547   4.889   2.845 -0.3736 -0.7851  0.1893
 1007MOL0     C32825  10.611   4.910   2.960 -0.4501  0.6116 -0.4815
 1007MOL0     C32826  10.739   4.958   2.978 -0.6966  0.5587  0.3197
 1007MOL0     O32827  10.782   4.957   3.110 -0.2175 -0.0767 -0.0073
 1007MOL0     C32828  10.880   5.055   3.152  0.7181 -0.3300  0.4182
 1007MOL0     C32829  10.823   5.147   3.260 -0.0491 -0.1453 -0.5463
 1007MOL0     C32830  10.812   5.069   3.398 -0.0176 -0.2307 -0.0531
 1007MOL0     C32831  10.779   5.170   3.503  0.1388  0.4527  0.0719
 1007MOL0     C32832  10.756   5.107   3.641 -0.1264 -0.1399 -0.4592
 1007MOL0     C32833  10.706   5.214   3.732  0.1784  0.3145  0.5740
 1007MOL0     C32834  10.657   5.152   3.863 -0.4276  0.2094  0.6252
 1007MOL0     C32835  10.614   5.259   3.958  0.4898 -0.3906 -0.4765
 1007MOL0    Cl32836  10.747   5.372   3.990 -0.7515  0.0463  0.2153
 1007MOL0     C32837  10.819   4.960   2.866 -0.0555 -0.9157  0.1373
 1007MOL0     C32838  10.764   4.917   2.741 -0.8564 -0.1987 -0.7309
 1007MOL0     O32839  10.646   5.081   2.535 -0.6610  0.2666  0.2579
 1007MOL0     C32840  10.492   5.097   2.311  0.1619  0.0134  0.4404
 1007MOL0     C32841  10.404   5.100   2.208 -0.4263 -0.2019 -1.1136
 1007MOL0     N32842   9.835   4.526   1.960  0.1617  0.3616 -0.3796
 1007MOL0     N32843   9.756   4.476   1.870 -0.5054 -0.3013 -0.7465
 1007MOL0     C32844   8.602   4.336   1.592  0.3280  0.6324  0.3485
 1007MOL0     C32845   8.487   4.317   1.516  0.8248  0.2335 -0.2221
 1007MOL0     C32846   8.054   4.436   1.405 -0.3093  0.2968  0.2632
 1007MOL0     C32847   7.986   4.564   1.381 -0.6635  0.6235 -0.3524
 1007MOL0     C32848   7.861   4.567   1.328 -0.1484  0.1884 -0.3867
 1007MOL0     C32849   7.787   4.459   1.291 -0.9511  0.5854  1.1475
 1007MOL0     O32850   7.673   4.466   1.220  0.1251 -0.1195  0.4744
 1007MOL0     C32851   7.565   4.388   1.282  0.7173 -0.3638  0.3313
 1007MOL0     C32852   7.427   4.424   1.224 -0.0922 -0.5172 -0.1758
 1007MOL0     C32853   7.398   4.579   1.204 -0.9168  1.1704 -1.1173
 1007MOL0     C32854   7.263   4.590   1.143  0.1304 -0.1522 -0.5833
 1007MOL0     C32855   7.243   4.558   1.005  0.0484 -1.5133  0.3253
 1007MOL0     C32856   7.237   4.534   0.881  0.5369 -0.5845  0.0018
 1007MOL0     C32857   7.854   4.334   1.308 -0.6875  0.0558 -0.0281
 1007MOL0     C32858   7.979   4.320   1.371 -0.2486  0.3942 -0.7843
 1007MOL0     H32859   8.256   4.261   1.765 -0.4487  0.5940  1.6136
 1007MOL0     H32860   8.469   4.293   1.898 -0.2816 -2.4017  1.1261
 1007MOL0     H32861   8.752   4.181   1.803  2.1761 -1.0613  0.9912
 1007MOL0     H32862   8.769   4.272   1.957  2.0036  0.8050 -0.0214
 1007MOL0     H32863   8.968   4.311   1.730  0.0865 -1.2144  0.5152
 1007MOL0     H32864   8.992   4.231   1.886 -1.8827  0.2424  1.8492
 1007MOL0     H32865   8.971   4.463   1.997  3.1789 -1.8548  1.1402
 1007MOL0     H32866   8.952   4.524   1.817  2.5510 -0.7384 -1.3419
 1007MOL0     H32867   9.180   4.537   1.936 -1.3499  0.2176  1.2858
 1007MOL0     H32868   9.191   4.369   1.894  1.3915  1.2672  2.2865
 1007MOL0     H32869   9.155   4.603   1.705 -0.5612  0.2951 -0.3195
 1007MOL0     H32870   9.140   4.434   1.638  0.5507 -0.5210 -0.2018
 1007MOL0     H32871   9.342   4.507   1.577  4.2004  1.1876  0.9815
 1007MOL0     H32872   9.340   4.363   1.671 -2.4698 -0.0591  0.5953
 1007MOL0     H32873   9.405   4.625   1.818  1.5266 -1.1372  2.8035
 1007MOL0     H32874   9.444   4.472   1.860  0.8797  0.2776 -0.4844
 1007MOL0     H32875   9.587   4.627   1.640  2.7127  0.6756  0.2764
 1007MOL0     H32876   9.602   4.449   1.656 -0.1211  2.2067 -2.8070
 1007MOL0     H32877   9.673   4.791   1.856 -1.0760 -0.8354 -2.6392
 1007MOL0     H32878   9.883   4.691   2.175 -0.4533 -0.7204 -0.4433
 1007MOL0     H32879   9.787   4.829   2.107  0.2573 -0.6168  2.5715
 1007MOL0     H32880   9.991   4.844   1.932 -3.3671 -2.3077  0.0552
 1007MOL0     H32881  10.076   4.753   2.070 -1.2857 -0.5331  1.6000
 1007MOL0     H32882   9.946   5.023   2.103 -0.1932 -0.6189 -2.3676
 1007MOL0     H32883  10.054   4.936   2.215  1.1669 -2.9615 -1.0458
 1007MOL0     H32884  10.170   5.115   2.097  0.5558  0.5430 -1.5244
 1007MOL0     H32885  10.133   5.042   1.939 -1.3377 -1.7825 -0.1721
 1007MOL0     H32886  10.340   4.765   2.180  1.5826 -0.5773 -2.1507
 1007MOL0     H32887  10.452   4.752   2.385 -0.2946 -0.9401 -0.0334
 1007MOL0     H32888  10.444   4.862   2.829 -0.4576  0.0269 -0.7684
 1007MOL0     H32889  10.573   4.898   3.061  2.7826  0.2475  0.8316
 1007MOL0     H32890  10.900   5.112   3.061 -1.2148  2.7324  1.7607
 1007MOL0     H32891  10.971   5.004   3.184 -0.4062 -0.2662  4.2583
 1007MOL0     H32892  10.722   5.179   3.234  0.4589  0.7389 -1.5354
 1007MOL0     H32893  10.888   5.234   3.271 -0.2253 -0.0045 -0.6189
 1007MOL0     H32894  10.899   5.016   3.438 -1.0559 -1.0072  1.2439
 1007MOL0     H32895  10.735   4.993   3.384  0.6720 -0.7648 -1.0917
 1007MOL0     H32896  10.862   5.240   3.516  1.9110 -1.4075 -0.6785
 1007MOL0     H32897  10.693   5.225   3.466  0.1890  0.7036  0.3296
 1007MOL0     H32898  10.850   5.076   3.689 -1.8790  1.3012  4.5610
 1007MOL0     H32899  10.689   5.021   3.639  0.5632 -0.7430  0.9280
 1007MOL0     H32900  10.617   5.261   3.689  0.7477  0.2750 -0.6811
 1007MOL0     H32901  10.787   5.288   3.740 -0.4792  1.5201 -2.4718
 1007MOL0     H32902  10.572   5.086   3.845  0.2320 -0.7067  0.8251
 1007MOL0     H32903  10.740   5.104   3.915  0.2803  1.9000  1.1314
 1007MOL0     H32904  10.577   5.210   4.049 -0.1083 -1.2507 -1.1658
 1007MOL0     H32905  10.536   5.314   3.905  1.1188  0.7101 -0.2847
 1007MOL0     H32906  10.926   4.979   2.864 -0.7047  3.7582 -1.2637
 1007MOL0     H32907  10.826   4.902   2.653  0.8112 -1.6235  0.6152
 1007MOL0     H32908  10.517   5.197   2.344 -0.4687 -0.5949  2.9774
 1007MOL0     H32909  10.354   5.184   2.161 -2.1020 -0.8086 -0.4922
 1007MOL0     H32910   8.702   4.346   1.551 -0.5938  0.5627 -2.1115
 1007MOL0     H32911   8.497   4.313   1.408  0.4704 -0.0651 -0.2458
 1007MOL0     H32912   8.030   4.661   1.403 -2.5711  2.1206 -2.7072
 1007MOL0     H32913   7.806   4.659   1.313 -1.5309 -0.2284  1.5987
 1007MOL0     H32914   7.583   4.384   1.390  3.1113  1.0243  0.0586
 1007MOL0     H32915   7.575   4.283   1.252 -0.6710 -0.4728  0.1917
 1007MOL0     H32916   7.410   4.367   1.132 -0.5919 -2.9906  1.3463
 1007MOL0     H32917   7.354   4.379   1.291 -2.0150  0.4731 -1.4943
 1007MOL0     H32918   7.480   4.613   1.140 -0.4910 -0.6461 -1.5927
 1007MOL0     H32919   7.396   4.632   1.300 -1.8573 -1.9635  0.7198
 1007MOL0     H32920   7.196   4.545   1.218 -0.9520 -1.4866 -2.2720
 1007MOL0     H32921   7.245   4.697   1.160  1.1939 -0.5368  5.0155
 1007MOL0     H32922   7.227   4.501   0.780 -2.1426 -0.8385  0.2581
 1007MOL0     H32923   7.797   4.248   1.273  0.3794 -1.9669  2.7574
 1007MOL0     H32924   8.023   4.222   1.391 -0.6621  0.2182 -0.7271
 1008MOL0     O32925   1.547   4.032   6.400  0.1656  0.3314 -0.5948
 1008MOL0     C32926   1.650   4.081   6.449 -0.9250 -0.0808  0.5155
 1008MOL0     O32927   1.661   4.158   6.562  0.2923  1.2338  0.5925
 1008MOL0     C32928   1.541   4.198   6.605 -1.2799 -0.3394 -0.2185
 1008MOL0     C32929   1.510   4.340   6.618 -0.6516  0.6722  0.2545
 1008MOL0     C32930   1.380   4.382   6.646  0.1143 -0.9168  0.3766
 1008MOL0     C32931   1.279   4.292   6.668 -0.1095  1.0225 -0.1147
 1008MOL0     O32932   1.149   4.315   6.685 -0.0653  0.3037 -0.1914
 1008MOL0     C32933   1.090   4.442   6.681 -0.0830  0.3487 -0.2216
 1008MOL0     C32934   0.936   4.428   6.688 -0.6291 -0.4011 -0.0285
 1008MOL0     C32935   0.871   4.331   6.777 -0.2721  0.9086  0.3542
 1008MOL0     C32936   0.923   4.325   6.919 -0.3326 -0.5055  0.6288
 1008MOL0     C32937   0.846   4.229   7.012  0.1161 -0.2044  0.4355
 1008MOL0     C32938   0.922   4.180   7.139 -0.1894  0.3461 -0.9607
 1008MOL0     C32939   0.843   4.069   7.212  0.7743 -0.1554  0.5437
 1008MOL0     C32940   0.725   4.125   7.284  0.2943 -0.6086  0.2328
 1008MOL0     N32941   0.660   4.017   7.355  0.5390  0.0895 -0.0974
 1008MOL0     C32942   0.667   4.002   7.488 -0.0029  0.2148 -0.6216
 1008MOL0     C32943   0.577   3.898   7.514 -0.5613  0.2468  0.0235
 1008MOL0     C32944   0.558   3.839   7.651  0.6319 -0.0221 -0.7048
 1008MOL0     C32945   0.615   3.697   7.673  0.1046 -0.0129  0.4798
 1008MOL0     C32946   0.726   3.664   7.568 -0.9385 -0.5529 -0.6970
 1008MOL0     C32947   0.825   3.562   7.624  0.7063  0.4155 -0.4882
 1008MOL0     O32948   0.911   3.527   7.522  0.1048 -0.0502 -0.0145
 1008MOL0     C32949   1.027   3.590   7.530 -1.1364 -0.6176  0.4874
 1008MOL0     C32950   1.054   3.714   7.470 -0.0788 -0.0574 -0.4181
 1008MOL0     C32951   1.184   3.769   7.485 -0.2319 -0.8492  0.1665
 1008MOL0     C32952   1.290   3.690   7.525 -0.3073 -0.2135 -0.2815
 1008MOL0     C32953   1.429   3.745   7.540  0.3179  1.1233  0.3917
 1008MOL0     O32954   1.454   3.875   7.515  0.6331  0.1314 -0.4024
 1008MOL0     C32955   1.574   3.931   7.527 -0.5363 -0.5730  0.0256
 1008MOL0     C32956   1.617   4.017   7.431 -0.1795 -0.0188  0.2957
 1008MOL0     C32957   1.757   4.062   7.429  0.4585  0.7084 -0.6173
 1008MOL0     C32958   1.838   4.039   7.544 -0.3207 -0.2411  0.1244
 1008MOL0     O32959   1.975   4.067   7.558  0.1514  0.5135 -0.8836
 1008MOL0     C32960   2.030   4.180   7.470 -0.7376  0.6154  0.8413
 1008MOL0     C32961   2.153   4.245   7.541  1.3158  0.2869 -0.4932
 1008MOL0     C32962   2.187   4.372   7.465 -0.0766 -0.7400 -0.3691
 1008MOL0     C32963   2.339   4.377   7.436  0.4850 -0.0404  0.7623
 1008MOL0     C32964   2.372   4.296   7.308  0.3033  0.1371 -1.2337
 1008MOL0     C32965   2.334   4.366   7.186  0.0707 -0.0568  0.2942
 1008MOL0     C32966   2.401   4.499   7.160  0.7415 -0.4002  0.9035
 1008MOL0     C32967   2.295   4.618   7.180 -0.6571  0.1377  0.5507
 1008MOL0    Cl32968   2.369   4.785   7.181  0.3629  0.0645 -0.3887
 1008MOL0     C32969   1.792   3.959   7.649  0.1636 -0.0797 -0.4021
 1008MOL0     C32970   1.661   3.904   7.635  0.3048  0.1895  0.1632
 1008MOL0     O32971   1.515   3.663   7.564  1.1897  0.4072 -0.1801
 1008MOL0     C32972   1.268   3.559   7.557  0.8477 -0.3445  0.6426
 1008MOL0     C32973   1.136   3.511   7.568  0.1412  1.1543  0.0499
 1008MOL0     N32974   0.519   3.857   7.395  0.4435 -0.1890  0.6720
 1008MOL0     N32975   0.573   3.927   7.298  0.6718 -0.0445  0.4036
 1008MOL0     C32976   1.309   4.155   6.672  0.4105  0.4745  0.1967
 1008MOL0     C32977   1.435   4.109   6.640  0.5586 -0.4023 -0.1477
 1008MOL0     C32978   1.773   4.046   6.379  0.9365  1.0165  0.5296
 1008MOL0     C32979   1.895   4.087   6.430  0.5205  0.4592  0.1794
 1008MOL0     C32980   2.021   4.072   6.363  0.2040 -0.1206 -0.5223
 1008MOL0     C32981   2.016   4.008   6.231 -0.5805 -0.0086  0.8397
 1008MOL0     O32982   2.121   3.983   6.146 -0.3952 -0.3079 -1.0034
 1008MOL0     C32983   2.251   4.023   6.193  0.3221  0.0783 -0.1829
 1008MOL0     C32984   2.361   3.986   6.083  0.0299  0.5681 -0.1661
 1008MOL0     C32985   2.364   3.845   6.034  0.6015 -1.1887  0.6410
 1008MOL0     C32986   2.502   3.795   5.995 -0.9453 -0.4166  0.4609
 1008MOL0     C32987   2.571   3.891   5.892  0.1689 -0.2247 -0.4009
 1008MOL0     C32988   2.613   3.965   5.802  0.0701  0.5860  1.0603
 1008MOL0     C32989   1.889   3.971   6.182 -0.1009  0.3524  0.7632
 1008MOL0     C32990   1.774   3.983   6.258 -0.0520 -0.4391  0.6774
 1008MOL0     H32991   1.591   4.409   6.597 -0.1463  0.0886  0.2435
 1008MOL0     H32992   1.360   4.488   6.637  0.8674 -0.7901  0.1434
 1008MOL0     H32993   1.126   4.510   6.603  0.4643 -0.1756 -0.4390
 1008MOL0     H32994   1.109   4.489   6.778 -0.1691  1.8110 -0.8779
 1008MOL0     H32995   0.904   4.405   6.586 -1.4836 -1.2548  0.4156
 1008MOL0     H32996   0.897   4.528   6.711 -1.2387 -0.8139  0.7662
 1008MOL0     H32997   0.893   4.233   6.734 -1.1656  1.4402 -1.4100
 1008MOL0     H32998   0.762   4.341   6.780 -0.5869 -1.6499  0.0766
 1008MOL0     H32999   1.026   4.293   6.901 -1.0905 -3.0387  0.2683
 1008MOL0     H33000   0.908   4.425   6.960 -0.3660  0.1042 -0.8166
 1008MOL0     H33001   0.828   4.146   6.944  2.1056 -2.0488  2.0328
 1008MOL0     H33002   0.756   4.278   7.050  0.1398 -1.1589  1.7641
 1008MOL0     H33003   0.947   4.261   7.209  0.6408 -0.3698 -0.4155
 1008MOL0     H33004   1.021   4.144   7.110  0.0718  1.0650 -0.9851
 1008MOL0     H33005   0.816   4.000   7.131  0.8461  2.1901 -1.5865
 1008MOL0     H33006   0.911   4.019   7.283 -0.6037 -1.2239  1.1493
 1008MOL0     H33007   0.652   4.157   7.210 -0.3019 -0.6015  0.8137
 1008MOL0     H33008   0.752   4.206   7.353 -0.4199 -0.9692  0.9377
 1008MOL0     H33009   0.741   4.042   7.557  2.2529 -0.0936 -2.7499
 1008MOL0     H33010   0.452   3.831   7.677  0.4385  0.1542 -1.4219
 1008MOL0     H33011   0.592   3.914   7.723  1.3567 -0.6641 -0.3714
 1008MOL0     H33012   0.525   3.638   7.657  1.3304 -1.6099 -0.9431
 1008MOL0     H33013   0.647   3.685   7.777 -1.4805 -1.8283  0.7963
 1008MOL0     H33014   0.695   3.635   7.468 -0.4520 -0.8934 -0.7573
 1008MOL0     H33015   0.783   3.756   7.550 -4.3305  2.1969  1.3586
 1008MOL0     H33016   0.776   3.467   7.646  1.8536 -0.2122 -0.5991
 1008MOL0     H33017   0.887   3.577   7.713  3.2718 -0.6995 -1.9701
 1008MOL0     H33018   0.971   3.774   7.434  0.2194 -0.2387 -1.4410
 1008MOL0     H33019   1.192   3.873   7.455  0.1393 -1.1137 -0.6753
 1008MOL0     H33020   1.564   4.016   7.337 -0.5404 -3.3767  0.4131
 1008MOL0     H33021   1.788   4.129   7.349 -2.4023  1.0238 -1.5658
 1008MOL0     H33022   1.954   4.250   7.438  0.6178  1.3241 -0.9553
 1008MOL0     H33023   2.053   4.134   7.374  4.2488  4.2497 -0.1018
 1008MOL0     H33024   2.243   4.184   7.549  1.3129  0.4518  1.2950
 1008MOL0     H33025   2.133   4.269   7.646  0.6292  1.1063 -0.7946
 1008MOL0     H33026   2.163   4.468   7.512  1.3139 -0.6200  0.1371
 1008MOL0     H33027   2.124   4.361   7.376  0.2193 -2.6440 -0.3786
 1008MOL0     H33028   2.379   4.478   7.421  1.9990 -0.5615  1.0978
 1008MOL0     H33029   2.399   4.331   7.515  1.2457 -0.1344  0.1432
 1008MOL0     H33030   2.327   4.196   7.311  3.7872 -1.5807 -1.4673
 1008MOL0     H33031   2.480   4.281   7.297  0.3370 -0.6936 -0.0530
 1008MOL0     H33032   2.228   4.391   7.196 -0.3024 -2.0385  1.9309
 1008MOL0     H33033   2.357   4.299   7.104  1.9652 -2.2982  2.5031
 1008MOL0     H33034   2.491   4.514   7.220  0.7277  2.3268  0.3796
 1008MOL0     H33035   2.429   4.500   7.054  1.2162 -0.7729  1.0221
 1008MOL0     H33036   2.248   4.614   7.279 -0.6680  1.9405  0.6386
 1008MOL0     H33037   2.217   4.614   7.103 -1.3750  3.2226  0.9860
 1008MOL0     H33038   1.855   3.916   7.726 -2.0459 -0.7698  1.1198
 1008MOL0     H33039   1.627   3.829   7.706 -0.1981 -0.4506 -0.7407
 1008MOL0     H33040   1.341   3.484   7.587  0.6282 -1.9006 -2.3222
 1008MOL0     H33041   1.115   3.411   7.604  0.2549  2.1880  3.3103
 1008MOL0     H33042   1.219   4.096   6.689  0.2518  0.8965  0.8697
 1008MOL0     H33043   1.456   4.004   6.625  3.0026 -0.0153  0.1572
 1008MOL0     H33044   1.903   4.127   6.530  2.4205 -2.8283  1.5191
 1008MOL0     H33045   2.110   4.108   6.412 -0.8523  0.7390  0.8521
 1008MOL0     H33046   2.274   3.980   6.291  3.9173 -1.9956 -1.7025
 1008MOL0     H33047   2.260   4.128   6.222  1.1902 -0.6380  2.4489
 1008MOL0     H33048   2.360   4.059   6.001 -0.3663  0.9547  0.1791
 1008MOL0     H33049   2.454   4.006   6.135 -1.1282  1.3635  1.7018
 1008MOL0     H33050   2.291   3.839   5.952  0.9574  3.6908 -0.3547
 1008MOL0     H33051   2.329   3.791   6.122 -1.3771 -2.0323 -0.5991
 1008MOL0     H33052   2.558   3.797   6.090  1.9008  2.2464 -1.0606
 1008MOL0     H33053   2.499   3.692   5.959 -1.5406 -0.2133 -0.0668
 1008MOL0     H33054   2.654   4.015   5.716  0.2629 -0.2477  0.6508
 1008MOL0     H33055   1.878   3.933   6.081 -0.0914  0.3185  0.7748
 1008MOL0     H33056   1.685   3.937   6.216 -1.6541  0.5057  2.8670
 1009MOL0     O33057   7.479   1.734   4.901 -0.1196 -0.3038  0.7516
 1009MOL0     C33058   7.468   1.613   4.912  0.0779 -0.2780  0.4255
 1009MOL0     O33059   7.353   1.550   4.928 -0.5351 -0.5873 -0.3602
 1009MOL0     C33060   7.239   1.617   4.958  0.1946  0.0473 -0.0198
 1009MOL0     C33061   7.124   1.606   4.874  0.0272 -0.4145 -0.2183
 1009MOL0     C33062   7.009   1.653   4.916 -0.4668  0.2347 -0.8174
 1009MOL0     C33063   7.018   1.735   5.030  0.1195  0.1170  0.2878
 1009MOL0     O33064   6.908   1.809   5.069  1.0970  0.1453  0.1840
 1009MOL0     C33065   6.835   1.869   4.964 -1.0893 -0.5168  0.1451
 1009MOL0     C33066   6.771   1.991   5.031  0.1348  0.2911 -0.5448
 1009MOL0     C33067   6.733   2.109   4.927  0.9740 -1.0074  0.1684
 1009MOL0     C33068   6.704   2.237   4.994 -0.2984  0.4053  0.8514
 1009MOL0     C33069   6.567   2.246   5.061  0.2700 -0.0824  0.9093
 1009MOL0     C33070   6.556   2.389   5.113  0.0074  0.2041  0.3324
 1009MOL0     C33071   6.619   2.398   5.248  0.2622 -0.1631  0.1413
 1009MOL0     C33072   6.617   2.532   5.327  0.7553  0.1663  0.0161
 1009MOL0     N33073   6.491   2.565   5.391  0.9007 -0.1811 -0.4200
 1009MOL0     C33074   6.438   2.498   5.505  0.0018 -1.0094 -0.0504
 1009MOL0     C33075   6.346   2.586   5.557 -0.4854 -0.1887  0.1852
 1009MOL0     C33076   6.255   2.566   5.679  0.9378  0.6635 -0.0898
 1009MOL0     C33077   6.128   2.488   5.645  0.3281 -0.8819  0.8296
 1009MOL0     C33078   6.132   2.339   5.603 -0.2147 -0.1251  0.3896
 1009MOL0     C33079   6.020   2.295   5.531 -0.4953 -0.3103  0.5176
 1009MOL0     O33080   6.000   2.152   5.536  0.3367 -0.2395  0.4476
 1009MOL0     C33081   5.873   2.100   5.509 -0.8546 -0.4250 -1.1093
 1009MOL0     C33082   5.853   1.981   5.571 -0.0223  0.3771 -0.2820
 1009MOL0     C33083   5.730   1.921   5.551  0.0310 -0.0172 -0.1099
 1009MOL0     C33084   5.628   1.988   5.483  0.4181  0.0547  0.0548
 1009MOL0     C33085   5.488   1.930   5.489 -0.9230 -1.1736  0.5762
 1009MOL0     O33086   5.486   1.804   5.552 -0.0985  0.3633 -0.8725
 1009MOL0     C33087   5.362   1.735   5.564 -0.6568 -0.8019  0.1937
 1009MOL0     C33088   5.227   1.772   5.545  0.8651 -0.5825  0.7439
 1009MOL0     C33089   5.121   1.689   5.577 -0.2315  0.2679 -0.1849
 1009MOL0     C33090   5.147   1.558   5.617  0.8652 -0.0403 -0.0446
 1009MOL0     O33091   5.054   1.478   5.675  0.0789 -0.1400  0.1340
 1009MOL0     C33092   4.940   1.528   5.752 -1.0432 -0.4759  0.5914
 1009MOL0     C33093   4.841   1.415   5.814 -0.2853  0.4234 -0.0912
 1009MOL0     C33094   4.929   1.345   5.915  0.7156 -0.3264 -0.2814
 1009MOL0     C33095   4.856   1.220   5.974  0.3368  0.4408 -0.5867
 1009MOL0     C33096   4.922   1.156   6.095 -0.2330 -0.9045  0.2846
 1009MOL0     C33097   5.062   1.106   6.053  0.2728  0.5781 -0.8722
 1009MOL0     C33098   5.156   1.063   6.171  0.9747  0.3953 -0.9456
 1009MOL0     C33099   5.302   1.075   6.136  0.3870 -0.3416  0.1492
 1009MOL0    Cl33100   5.349   0.955   6.009 -0.1204 -0.2978 -0.1340
 1009MOL0     C33101   5.271   1.511   5.602 -0.0410  0.1856 -0.0403
 1009MOL0     C33102   5.385   1.599   5.588  0.4492  0.4392 -0.1321
 1009MOL0     O33103   5.392   1.993   5.443  0.3693  0.1123  0.1709
 1009MOL0     C33104   5.658   2.103   5.415 -0.2105 -0.0430  1.0565
 1009MOL0     C33105   5.780   2.167   5.436 -0.2824  1.2591  0.2425
 1009MOL0     N33106   6.340   2.701   5.482  0.1451 -0.1108  0.6078
 1009MOL0     N33107   6.426   2.681   5.384  0.3180  1.0739  0.0007
 1009MOL0     C33108   7.130   1.766   5.095 -0.4663 -0.4764  0.0834
 1009MOL0     C33109   7.245   1.696   5.073 -1.2543  1.0361  0.2914
 1009MOL0     C33110   7.586   1.529   4.912  0.6738  0.4127 -0.7107
 1009MOL0     C33111   7.583   1.397   4.967 -0.4087 -0.6483  0.4257
 1009MOL0     C33112   7.693   1.317   4.952 -0.3485 -0.3021  0.5368
 1009MOL0     C33113   7.805   1.358   4.880 -0.1822 -0.4221 -0.2340
 1009MOL0     O33114   7.902   1.266   4.849  0.2330  0.3918  0.5968
 1009MOL0     C33115   8.026   1.309   4.797  0.1445 -0.1583  0.3284
 1009MOL0     C33116   8.124   1.197   4.794 -0.3945 -0.3492 -0.1587
 1009MOL0     C33117   8.260   1.249   4.738  0.4115  0.6955  0.7756
 1009MOL0     C33118   8.305   1.194   4.597 -0.4334 -0.1613  0.1825
 1009MOL0     C33119   8.218   1.237   4.490  0.6414  0.5066 -0.7901
 1009MOL0     C33120   8.150   1.269   4.397  0.2976  0.1990  0.1618
 1009MOL0     C33121   7.810   1.494   4.838  0.2439  0.7939  0.2426
 1009MOL0     C33122   7.706   1.582   4.857 -0.1566 -0.2627 -0.0410
 1009MOL0     H33123   7.137   1.540   4.790  1.2174 -3.7765  2.3966
 1009MOL0     H33124   6.918   1.627   4.863 -1.1184 -2.8619  1.5135
 1009MOL0     H33125   6.760   1.793   4.938 -2.0165  0.5476 -0.3652
 1009MOL0     H33126   6.895   1.898   4.878 -0.5360 -2.0982 -0.0374
 1009MOL0     H33127   6.844   2.023   5.106 -0.6067 -2.0795  1.2979
 1009MOL0     H33128   6.679   1.963   5.082  1.1827  0.0620  1.2916
 1009MOL0     H33129   6.647   2.077   4.868  0.2612  2.9700 -1.2577
 1009MOL0     H33130   6.814   2.116   4.853 -0.1801 -0.4343 -1.0811
 1009MOL0     H33131   6.786   2.252   5.065  1.1294 -0.4457 -0.5705
 1009MOL0     H33132   6.705   2.319   4.921  1.1754 -0.1793  0.1702
 1009MOL0     H33133   6.546   2.174   5.141 -4.4979 -1.0246 -0.8912
 1009MOL0     H33134   6.496   2.237   4.979  0.2588  2.9377  0.4892
 1009MOL0     H33135   6.449   2.406   5.127 -0.5864 -1.5496 -1.5691
 1009MOL0     H33136   6.601   2.457   5.040  1.1479 -1.8232 -0.9597
 1009MOL0     H33137   6.573   2.326   5.316  0.0721 -0.4584 -0.2945
 1009MOL0     H33138   6.724   2.370   5.236  0.5910  0.4915  1.2859
 1009MOL0     H33139   6.653   2.619   5.272  0.1681  0.6852  0.4460
 1009MOL0     H33140   6.694   2.520   5.404  1.1665 -1.6873 -0.6231
 1009MOL0     H33141   6.463   2.398   5.539  0.4275 -1.1015 -0.6213
 1009MOL0     H33142   6.241   2.669   5.714  1.6107  0.3873  1.0247
 1009MOL0     H33143   6.306   2.505   5.754 -2.3210  0.0179  1.8251
 1009MOL0     H33144   6.083   2.548   5.565 -2.0014 -0.8805  2.0664
 1009MOL0     H33145   6.063   2.493   5.732 -2.0281  1.0227 -0.9249
 1009MOL0     H33146   6.221   2.323   5.543  0.3073  2.9117  0.1570
 1009MOL0     H33147   6.149   2.278   5.692  0.6235 -1.3740 -0.5975
 1009MOL0     H33148   6.031   2.321   5.425  1.2949  0.2359  0.8045
 1009MOL0     H33149   5.934   2.343   5.579  1.0253  3.0090  0.2213
 1009MOL0     H33150   5.920   1.947   5.649  0.4445 -0.3462 -0.9863
 1009MOL0     H33151   5.715   1.817   5.576 -2.1501  0.5839  1.2916
 1009MOL0     H33152   5.193   1.874   5.525  1.4621 -0.6336 -0.6444
 1009MOL0     H33153   5.018   1.724   5.584  0.4565  2.1059  2.8631
 1009MOL0     H33154   4.884   1.599   5.689 -1.4705 -0.8466  0.5507
 1009MOL0     H33155   4.992   1.580   5.833 -0.1732  0.4808 -0.5447
 1009MOL0     H33156   4.814   1.339   5.741  0.8012 -0.8196  0.7560
 1009MOL0     H33157   4.751   1.452   5.864 -1.4231 -0.1120 -1.6917
 1009MOL0     H33158   4.953   1.418   5.993 -0.6094  1.4118 -1.4431
 1009MOL0     H33159   5.015   1.309   5.857  0.0061 -3.1333  0.2716
 1009MOL0     H33160   4.749   1.231   5.996  0.6207  0.7894  0.7051
 1009MOL0     H33161   4.874   1.144   5.897  1.4177  1.3486 -1.2576
 1009MOL0     H33162   4.858   1.074   6.128  0.3789 -2.4806 -2.2124
 1009MOL0     H33163   4.923   1.239   6.167  0.2106 -0.0748 -0.6567
 1009MOL0     H33164   5.117   1.189   6.008  1.0584  0.9490  0.6947
 1009MOL0     H33165   5.054   1.021   5.985  4.1439 -0.2462 -0.5348
 1009MOL0     H33166   5.130   1.106   6.268 -2.8537 -3.1357 -0.0836
 1009MOL0     H33167   5.128   0.962   6.204 -0.6253  1.5395  1.4634
 1009MOL0     H33168   5.348   1.057   6.233  2.5307 -1.5059 -1.0294
 1009MOL0     H33169   5.322   1.175   6.097 -3.6747  0.6714  0.2183
 1009MOL0     H33170   5.277   1.403   5.612  1.9806  0.0505 -1.9954
 1009MOL0     H33171   5.483   1.552   5.589 -0.1204 -0.7659 -0.0389
 1009MOL0     H33172   5.587   2.150   5.347 -0.2562 -0.0213  1.1187
 1009MOL0     H33173   5.802   2.260   5.384 -2.0561 -0.1223 -3.3194
 1009MOL0     H33174   7.120   1.840   5.174 -0.2135  2.0375 -2.0740
 1009MOL0     H33175   7.325   1.724   5.141 -1.1765  1.6067 -0.0350
 1009MOL0     H33176   7.498   1.349   5.015 -0.8451 -0.5274 -0.2123
 1009MOL0     H33177   7.696   1.216   4.991  1.3641 -0.2651  0.6087
 1009MOL0     H33178   8.071   1.387   4.860 -2.4462  0.4707  1.5164
 1009MOL0     H33179   8.018   1.346   4.694 -2.5548  1.9665  1.1760
 1009MOL0     H33180   8.142   1.176   4.900 -1.7000  2.4684  0.7124
 1009MOL0     H33181   8.089   1.115   4.730  2.5434 -0.5311 -1.7010
 1009MOL0     H33182   8.338   1.235   4.814  2.9883 -0.9248 -1.9229
 1009MOL0     H33183   8.235   1.350   4.705 -2.1783 -0.0353  0.3243
 1009MOL0     H33184   8.401   1.240   4.573 -1.2398  0.1245 -2.9713
 1009MOL0     H33185   8.309   1.084   4.596 -0.7963 -0.2119 -2.1792
 1009MOL0     H33186   8.090   1.305   4.316 -1.0241 -0.1118  0.9746
 1009MOL0     H33187   7.899   1.536   4.794  2.4250 -1.3764  2.2909
 1009MOL0     H33188   7.729   1.682   4.822 -1.7242  1.0897  2.4266
 1010MOL0     O33189   2.596   1.250   6.063 -0.2030 -0.0385 -0.3046
 1010MOL0     C33190   2.707   1.306   6.078  0.4064  0.0823  0.1743
 1010MOL0     O33191   2.731   1.417   6.160  0.1350  0.3390  0.0680
 1010MOL0     C33192   2.627   1.476   6.235 -0.1556 -0.5991  0.0811
 1010MOL0     C33193   2.632   1.619   6.250  0.1503 -0.4090  1.2291
 1010MOL0     C33194   2.538   1.684   6.331  0.5533 -0.4998 -0.3028
 1010MOL0     C33195   2.430   1.617   6.381 -0.2211  0.2686  1.0303
 1010MOL0     O33196   2.339   1.698   6.437  0.9465  0.0423 -0.5601
 1010MOL0     C33197   2.319   1.669   6.575  0.2983  0.3689  0.0278
 1010MOL0     C33198   2.171   1.678   6.624  0.1939 -0.5598 -0.6878
 1010MOL0     C33199   2.080   1.583   6.548  0.4164  0.5310  0.3914
 1010MOL0     C33200   1.928   1.600   6.575 -0.7955 -0.6563 -0.1508
 1010MOL0     C33201   1.844   1.588   6.443 -0.1475  0.3148 -0.8698
 1010MOL0     C33202   1.838   1.727   6.372 -0.4792  0.1437  0.6902
 1010MOL0     C33203   1.721   1.739   6.280  0.5511  0.4482  0.2842
 1010MOL0     C33204   1.731   1.872   6.199 -0.0417 -0.1430  0.3009
 1010MOL0     N33205   1.689   1.972   6.294 -1.1570 -0.2551 -0.2517
 1010MOL0     C33206   1.763   2.085   6.333  0.0915  0.0059  0.0492
 1010MOL0     C33207   1.665   2.172   6.386 -0.2060 -0.0332 -0.1167
 1010MOL0     C33208   1.703   2.312   6.427 -0.6725  0.4736  1.4488
 1010MOL0     C33209   1.620   2.417   6.352  0.1797 -0.6919 -0.1571
 1010MOL0     C33210   1.668   2.562   6.349  0.4872  0.1609  0.5257
 1010MOL0     C33211   1.663   2.646   6.471 -0.1583 -0.1362 -0.2464
 1010MOL0     O33212   1.555   2.615   6.561  0.5796  0.2163  0.2138
 1010MOL0     C33213   1.424   2.641   6.520 -0.1950 -0.7923 -0.2958
 1010MOL0     C33214   1.391   2.724   6.413 -0.3154  0.2971 -0.2555
 1010MOL0     C33215   1.258   2.758   6.394  0.0715  0.2094  0.8234
 1010MOL0     C33216   1.157   2.714   6.482 -0.3969 -0.7711 -0.2878
 1010MOL0     C33217   1.016   2.727   6.444 -0.4914 -0.9387 -0.0699
 1010MOL0     O33218   0.935   2.633   6.490  0.3333  0.3689  0.1999
 1010MOL0     C33219   0.797   2.639   6.473 -0.2371 -0.4318  0.0402
 1010MOL0     C33220   0.706   2.747   6.453 -0.1107 -0.3342 -1.2195
 1010MOL0     C33221   0.568   2.723   6.445  0.0272  0.5170 -0.4646
 1010MOL0     C33222   0.512   2.596   6.461 -0.0867  0.3156  0.0778
 1010MOL0     O33223   0.380   2.555   6.446 -0.1436  0.1163  0.6976
 1010MOL0     C33224   0.270   2.646   6.466 -0.4022 -0.1728 -0.0543
 1010MOL0     C33225   0.141   2.561   6.498 -0.4199  0.2012  0.7622
 1010MOL0     C33226   0.040   2.650   6.577  0.1584 -0.1721 -0.8009
 1010MOL0     C33227  -0.080   2.560   6.601 -1.2881 -0.6113  0.0937
 1010MOL0     C33228  -0.173   2.613   6.715  1.1070 -0.6811 -0.4297
 1010MOL0     C33229  -0.300   2.530   6.714  0.5355 -0.6307  0.2909
 1010MOL0     C33230  -0.374   2.526   6.581  1.1545  0.7433  0.1242
 1010MOL0     C33231  -0.526   2.515   6.618  0.7026  0.2068 -0.0655
 1010MOL0    Cl33232  -0.630   2.537   6.473  0.1062  0.1745 -0.0945
 1010MOL0     C33233   0.600   2.489   6.489 -0.1165 -0.5532  0.7091
 1010MOL0     C33234   0.735   2.513   6.501 -0.2988 -0.5637 -0.3289
 1010MOL0     O33235   0.990   2.810   6.361 -0.7434  0.4286 -0.5373
 1010MOL0     C33236   1.194   2.633   6.589 -0.6594  0.2578 -0.3691
 1010MOL0     C33237   1.322   2.588   6.598  0.0846  0.2657  0.0629
 1010MOL0     N33238   1.542   2.117   6.387  0.2705  0.6196 -0.1377
 1010MOL0     N33239   1.565   1.990   6.350  0.3440 -0.4178 -0.0781
 1010MOL0     C33240   2.419   1.487   6.362  0.5147  0.6601 -0.0911
 1010MOL0     C33241   2.518   1.411   6.288  0.5622  0.2947  0.2963
 1010MOL0     C33242   2.827   1.257   6.009 -0.3601 -0.3766 -0.6813
 1010MOL0     C33243   2.827   1.136   5.946  0.0609 -0.6662  0.5555
 1010MOL0     C33244   2.929   1.091   5.874  0.3639 -0.2568 -0.9446
 1010MOL0     C33245   3.049   1.170   5.871 -0.1005  0.7263 -0.0838
 1010MOL0     O33246   3.162   1.131   5.807  0.6445  0.1780  0.3849
 1010MOL0     C33247   3.199   1.214   5.691  0.7233  0.6874 -1.4151
 1010MOL0     C33248   3.306   1.130   5.619  0.0630 -0.6282  0.4784
 1010MOL0     C33249   3.449   1.140   5.675  0.0671  0.8648 -0.3039
 1010MOL0     C33250   3.505   1.280   5.699 -0.6648  0.5565 -0.7233
 1010MOL0     C33251   3.650   1.266   5.732 -0.2075 -0.1731 -0.9694
 1010MOL0     C33252   3.767   1.241   5.766  0.1671  0.5088  0.8840
 1010MOL0     C33253   3.058   1.281   5.951 -0.0314 -0.8524 -0.2922
 1010MOL0     C33254   2.947   1.332   6.020 -0.6476  0.0806 -0.0643
 1010MOL0     H33255   2.709   1.679   6.204 -1.4718  1.6950  1.1051
 1010MOL0     H33256   2.536   1.786   6.368 -3.3415 -0.0751 -1.3161
 1010MOL0     H33257   2.383   1.730   6.640 -0.6527  0.1164  1.2339
 1010MOL0     H33258   2.356   1.567   6.590  0.0862  0.2818 -0.0345
 1010MOL0     H33259   2.136   1.778   6.599  1.4876 -0.5313 -2.6352
 1010MOL0     H33260   2.171   1.661   6.732  2.5148  0.0809 -0.5325
 1010MOL0     H33261   2.098   1.479   6.574  2.5382  1.5405  3.5302
 1010MOL0     H33262   2.086   1.597   6.440  0.6190 -1.8991  0.0473
 1010MOL0     H33263   1.897   1.522   6.645 -0.3545  1.5878  2.7661
 1010MOL0     H33264   1.916   1.694   6.631 -0.2922 -0.3181 -0.5979
 1010MOL0     H33265   1.741   1.563   6.467 -0.0355  1.6101  1.2338
 1010MOL0     H33266   1.875   1.510   6.373 -0.2420 -0.6897  0.1937
 1010MOL0     H33267   1.929   1.738   6.312 -2.7318 -2.0327 -3.5838
 1010MOL0     H33268   1.825   1.815   6.436  0.5863  3.3817 -3.1006
 1010MOL0     H33269   1.732   1.660   6.206  1.1684  0.5572  0.2503
 1010MOL0     H33270   1.624   1.737   6.331  1.2873 -3.0770  1.8412
 1010MOL0     H33271   1.667   1.860   6.111  0.7962  1.3181 -0.5636
 1010MOL0     H33272   1.829   1.903   6.160  0.6811 -1.3500  1.0943
 1010MOL0     H33273   1.868   2.103   6.310 -0.2632  0.6341 -1.1803
 1010MOL0     H33274   1.811   2.317   6.406 -0.5139  2.5124  2.4623
 1010MOL0     H33275   1.681   2.327   6.533  1.9063 -2.2424  2.4992
 1010MOL0     H33276   1.531   2.414   6.415 -0.2728 -0.3796 -0.7753
 1010MOL0     H33277   1.600   2.383   6.251 -2.0896 -2.4469  0.8084
 1010MOL0     H33278   1.773   2.568   6.319  0.0624  2.6167 -0.6536
 1010MOL0     H33279   1.617   2.614   6.268 -1.6578 -1.0104  1.0288
 1010MOL0     H33280   1.663   2.753   6.448 -1.1531  0.1640  1.0683
 1010MOL0     H33281   1.755   2.625   6.525 -0.0494  4.6945  1.8980
 1010MOL0     H33282   1.466   2.768   6.349 -0.3093  0.7990  0.0857
 1010MOL0     H33283   1.232   2.806   6.300 -2.6748 -0.6918  1.0486
 1010MOL0     H33284   0.749   2.845   6.434  1.5969 -0.9102 -0.5529
 1010MOL0     H33285   0.493   2.799   6.425 -2.2283 -1.8145 -1.3783
 1010MOL0     H33286   0.251   2.716   6.385 -1.2210 -0.3356 -0.0166
 1010MOL0     H33287   0.277   2.701   6.560  0.0884 -0.4266  0.0623
 1010MOL0     H33288   0.173   2.484   6.568  1.1795  1.4731  1.5151
 1010MOL0     H33289   0.091   2.520   6.409  2.8976  1.7635 -2.0637
 1010MOL0     H33290   0.014   2.744   6.528  1.2665  1.4113  1.4564
 1010MOL0     H33291   0.082   2.674   6.676 -1.4535 -0.4125 -0.0283
 1010MOL0     H33292  -0.144   2.560   6.512  0.2587  1.3193 -1.0915
 1010MOL0     H33293  -0.054   2.456   6.622  2.0154  0.5131  2.3911
 1010MOL0     H33294  -0.200   2.717   6.695  1.6207 -0.3633  0.5124
 1010MOL0     H33295  -0.125   2.607   6.812  1.7162  3.8100 -0.2229
 1010MOL0     H33296  -0.370   2.562   6.793 -0.6162 -2.7463  0.2238
 1010MOL0     H33297  -0.274   2.425   6.730  0.1313 -1.0671 -1.6876
 1010MOL0     H33298  -0.364   2.618   6.522  0.0349  1.0987  0.4488
 1010MOL0     H33299  -0.344   2.443   6.516  0.7200  1.0020 -0.4261
 1010MOL0     H33300  -0.557   2.593   6.688 -2.2149 -0.7166 -0.1844
 1010MOL0     H33301  -0.552   2.421   6.669 -2.5999  1.8709  1.6746
 1010MOL0     H33302   0.553   2.393   6.509 -1.3239 -1.0022 -3.3059
 1010MOL0     H33303   0.798   2.434   6.539  1.0288  0.9383  0.7047
 1010MOL0     H33304   1.128   2.587   6.662 -0.2845  0.0031 -0.1877
 1010MOL0     H33305   1.337   2.506   6.668 -2.1748  1.5253  2.1774
 1010MOL0     H33306   2.334   1.435   6.405 -0.8966  3.9479  1.4943
 1010MOL0     H33307   2.502   1.306   6.267  0.9210  0.1286  0.8518
 1010MOL0     H33308   2.738   1.074   5.940 -1.3228  1.3575 -2.1480
 1010MOL0     H33309   2.931   1.002   5.812 -1.1669 -1.6350  0.8676
 1010MOL0     H33310   3.231   1.308   5.738 -2.3815  0.3277  1.8448
 1010MOL0     H33311   3.107   1.221   5.632 -0.9764  0.4482  1.0636
 1010MOL0     H33312   3.263   1.030   5.609 -4.1070  0.8394  1.6681
 1010MOL0     H33313   3.315   1.170   5.517 -1.0044  0.6288  0.8426
 1010MOL0     H33314   3.524   1.082   5.622 -0.5137 -0.6095  0.4280
 1010MOL0     H33315   3.442   1.096   5.775 -0.5106 -3.0677 -1.9124
 1010MOL0     H33316   3.494   1.333   5.604  2.0762  1.3739 -0.6668
 1010MOL0     H33317   3.461   1.337   5.782 -0.0311 -2.0641  1.5431
 1010MOL0     H33318   3.862   1.203   5.795  0.4044 -0.3196 -0.8504
 1010MOL0     H33319   3.149   1.341   5.954  0.9978 -2.3636 -0.3378
 1010MOL0     H33320   2.968   1.431   6.061  1.3233  2.4021 -5.6404
 1011MOL0     O33321  11.080  11.244   1.566 -1.0193  0.5298  0.4214
 1011MOL0     C33322  11.130  11.281   1.673 -0.1865  0.1255 -0.2295
 1011MOL0     O33323  11.057  11.342   1.780 -0.5272 -0.7497 -0.5829
 1011MOL0     C33324  10.924  11.318   1.786 -0.0228 -1.8755  1.0405
 1011MOL0     C33325  10.856  11.413   1.857 -0.2989 -0.2614 -0.4272
 1011MOL0     C33326  10.714  11.394   1.883  0.3882 -0.6106 -0.2071
 1011MOL0     C33327  10.643  11.284   1.830  0.3047 -1.3176  0.8431
 1011MOL0     O33328  10.503  11.281   1.845 -0.7905 -0.7456 -0.6208
 1011MOL0     C33329  10.437  11.179   1.775 -0.5634 -0.0673 -0.0579
 1011MOL0     C33330  10.292  11.209   1.770  0.1834 -0.0510  0.4431
 1011MOL0     C33331  10.216  11.177   1.901 -0.7809  0.0532  0.4594
 1011MOL0     C33332  10.083  11.242   1.903 -0.0845  0.4895 -0.1772
 1011MOL0     C33333  10.022  11.250   2.040 -0.2125 -0.0786  0.7087
 1011MOL0     C33334   9.952  11.124   2.085  0.4346  0.2209  0.5924
 1011MOL0     C33335   9.870  11.131   2.219  0.7668 -0.0985  0.1565
 1011MOL0     C33336   9.744  11.230   2.231 -0.5329  0.0303  1.0042
 1011MOL0     N33337   9.689  11.236   2.367  0.5005 -0.2394 -0.1563
 1011MOL0     C33338   9.714  11.340   2.454 -0.5632  0.1818 -0.2661
 1011MOL0     C33339   9.617  11.328   2.545  0.2704 -0.4594 -0.6339
 1011MOL0     C33340   9.592  11.408   2.675 -0.5663 -0.4056 -0.3573
 1011MOL0     C33341   9.478  11.351   2.766 -0.5881  0.3585  0.4260
 1011MOL0     C33342   9.464  11.442   2.877 -0.4572 -0.1182 -0.3883
 1011MOL0     C33343   9.384  11.383   2.992  0.9061 -0.1063 -0.6125
 1011MOL0     O33344   9.434  11.270   3.066  0.2910 -0.4431 -0.2095
 1011MOL0     C33345   9.351  11.202   3.145 -1.3058 -0.0730 -0.4454
 1011MOL0     C33346   9.344  11.059   3.145 -0.8345 -0.5404 -0.0952
 1011MOL0     C33347   9.247  10.992   3.212  0.3141  0.1393  0.4440
 1011MOL0     C33348   9.152  11.064   3.299  0.4021  0.6695  0.6801
 1011MOL0     C33349   9.046  10.987   3.355  0.6475  0.0205  0.6347
 1011MOL0     O33350   9.079  10.856   3.385 -0.4608  0.5838  0.1770
 1011MOL0     C33351   9.011  10.813   3.499  0.3857  0.4925  0.6634
 1011MOL0     C33352   8.987  10.672   3.502  0.2100  0.5968 -0.3193
 1011MOL0     C33353   8.928  10.616   3.614  0.0058  0.2103 -1.1530
 1011MOL0     C33354   8.886  10.698   3.722 -0.2648  0.4322  0.4090
 1011MOL0     O33355   8.807  10.654   3.825  0.9937  0.3518 -0.0188
 1011MOL0     C33356   8.706  10.557   3.782  0.3719 -0.2766 -1.1310
 1011MOL0     C33357   8.587  10.554   3.881  0.0019 -0.4031  0.3253
 1011MOL0     C33358   8.618  10.483   4.007  0.3864 -0.1857 -0.1575
 1011MOL0     C33359   8.496  10.507   4.098 -0.1219  0.9362 -0.2538
 1011MOL0     C33360   8.522  10.418   4.226 -1.0039 -0.4750 -0.4443
 1011MOL0     C33361   8.409  10.442   4.335 -1.3613  0.0317 -0.5121
 1011MOL0     C33362   8.273  10.414   4.276  0.6138  0.1701 -0.3940
 1011MOL0     C33363   8.159  10.425   4.378 -0.1686 -0.4104  0.6611
 1011MOL0    Cl33364   7.995  10.379   4.309  0.2175  0.2926 -0.5728
 1011MOL0     C33365   8.906  10.841   3.719  0.4783  0.3962 -0.0210
 1011MOL0     C33366   8.973  10.888   3.609 -0.1860  0.2858  0.5690
 1011MOL0     O33367   8.932  11.041   3.370 -0.5168  0.1247  0.0783
 1011MOL0     C33368   9.167  11.202   3.303  1.3008 -0.1694  0.2069
 1011MOL0     C33369   9.266  11.263   3.235  0.9091 -0.0801  0.5705
 1011MOL0     N33370   9.527  11.236   2.512  0.6814  0.2338  0.0234
 1011MOL0     N33371   9.569  11.168   2.404  0.4261  0.6086 -0.7173
 1011MOL0     C33372  10.723  11.190   1.766  0.1492 -0.6697 -0.5943
 1011MOL0     C33373  10.860  11.203   1.742 -0.4959  0.0958  0.6949
 1011MOL0     C33374  11.269  11.267   1.692  0.0629  0.4191  0.3502
 1011MOL0     C33375  11.339  11.202   1.591  0.5450  0.1684  0.4175
 1011MOL0     C33376  11.477  11.194   1.594 -0.3111  0.5948 -0.6317
 1011MOL0     C33377  11.553  11.220   1.704  1.1940  0.8417 -0.2480
 1011MOL0     O33378  11.685  11.195   1.708  0.4675 -0.1708  0.6686
 1011MOL0     C33379  11.764  11.186   1.582 -0.3526  0.2216 -0.1701
 1011MOL0     C33380  11.900  11.134   1.629 -1.0011  0.4048  0.8452
 1011MOL0     C33381  11.889  10.997   1.711 -0.1359  0.4652  0.0481
 1011MOL0     C33382  12.017  10.942   1.770  0.4980  0.7460 -0.3195
 1011MOL0     C33383  12.103  11.055   1.826 -0.2048 -0.3421 -0.4492
 1011MOL0     C33384  12.166  11.129   1.893  0.7528  0.7229  0.3122
 1011MOL0     C33385  11.479  11.278   1.808 -0.3743 -0.2842 -0.5845
 1011MOL0     C33386  11.345  11.310   1.796  0.1457  0.5937  0.1279
 1011MOL0     H33387  10.908  11.502   1.889  0.6490  0.3925 -3.4336
 1011MOL0     H33388  10.659  11.474   1.932  0.0980 -1.0127  0.1376
 1011MOL0     H33389  10.460  11.080   1.816 -1.0830 -0.2054 -0.0955
 1011MOL0     H33390  10.471  11.172   1.671 -1.8280  1.0350 -0.5631
 1011MOL0     H33391  10.248  11.137   1.701  1.4965 -0.6684  0.2216
 1011MOL0     H33392  10.279  11.314   1.741  1.9081  0.7364  2.3473
 1011MOL0     H33393  10.282  11.232   1.968 -0.9473 -0.1500  0.7929
 1011MOL0     H33394  10.218  11.073   1.935  2.6888 -0.2555 -0.2984
 1011MOL0     H33395  10.096  11.350   1.887  1.5946  0.6321  1.6719
 1011MOL0     H33396  10.023  11.196   1.825  1.8528 -0.2969 -1.2764
 1011MOL0     H33397   9.955  11.336   2.040  1.1169  0.9903  0.2499
 1011MOL0     H33398  10.096  11.282   2.114 -0.8176  0.9681  0.8754
 1011MOL0     H33399  10.032  11.051   2.101 -1.5242 -1.6441  2.3922
 1011MOL0     H33400   9.902  11.067   2.006  1.0677 -1.3106  1.2667
 1011MOL0     H33401   9.823  11.034   2.238 -0.7002  0.7781  1.2593
 1011MOL0     H33402   9.939  11.160   2.298  2.5404  0.1268 -1.4081
 1011MOL0     H33403   9.674  11.192   2.156  1.7552  1.5268 -2.1267
 1011MOL0     H33404   9.781  11.330   2.208 -0.1426 -0.4752 -0.7596
 1011MOL0     H33405   9.799  11.407   2.446  0.0264 -0.7577 -2.7002
 1011MOL0     H33406   9.576  11.513   2.652  0.4389 -0.7541 -2.9926
 1011MOL0     H33407   9.673  11.398   2.748  0.4623 -2.5661 -1.6870
 1011MOL0     H33408   9.499  11.248   2.798 -1.9163  0.0627  0.4224
 1011MOL0     H33409   9.391  11.350   2.700  0.6449  0.0569 -1.2473
 1011MOL0     H33410   9.558  11.465   2.927 -0.8870  0.6665  0.0847
 1011MOL0     H33411   9.424  11.538   2.842 -0.8503 -0.3561 -0.6002
 1011MOL0     H33412   9.287  11.352   2.953  0.1227  0.6798  0.6550
 1011MOL0     H33413   9.360  11.461   3.065  0.7782 -1.3539  0.7371
 1011MOL0     H33414   9.407  10.999   3.079 -1.0943 -3.0168  1.7821
 1011MOL0     H33415   9.256  10.884   3.206  2.6331  0.1740  1.8585
 1011MOL0     H33416   9.017  10.601   3.426 -0.5271  0.1257 -0.1762
 1011MOL0     H33417   8.908  10.509   3.607  1.3884  0.0163 -2.9635
 1011MOL0     H33418   8.747  10.456   3.779  2.0355  0.2386  1.1242
 1011MOL0     H33419   8.667  10.587   3.685  0.7154  2.1667 -0.5879
 1011MOL0     H33420   8.503  10.503   3.833  1.0838  0.5786 -2.7861
 1011MOL0     H33421   8.567  10.660   3.893 -0.7340 -0.3886 -0.8989
 1011MOL0     H33422   8.702  10.538   4.050  0.1832  2.1520 -2.4946
 1011MOL0     H33423   8.639  10.376   3.997  2.0762 -0.2585  3.0010
 1011MOL0     H33424   8.482  10.615   4.107  0.9175  1.1793 -1.2729
 1011MOL0     H33425   8.412  10.463   4.043 -1.0517  2.1549  0.1465
 1011MOL0     H33426   8.616  10.440   4.278 -1.3006 -1.2043  0.4222
 1011MOL0     H33427   8.525  10.313   4.196  0.7905 -0.0108 -2.1092
 1011MOL0     H33428   8.422  10.535   4.392 -0.0838 -2.1542  3.1266
 1011MOL0     H33429   8.429  10.371   4.416  2.8121  1.9224  0.4075
 1011MOL0     H33430   8.255  10.471   4.184  2.8438 -1.4795 -1.9821
 1011MOL0     H33431   8.277  10.310   4.240 -0.5826 -0.5504  1.4250
 1011MOL0     H33432   8.142  10.531   4.400 -0.9574  0.0028 -1.6911
 1011MOL0     H33433   8.193  10.371   4.467  5.6362  0.1232 -0.8323
 1011MOL0     H33434   8.862  10.896   3.802  0.8369 -0.6640  0.8897
 1011MOL0     H33435   8.985  10.996   3.606 -0.4913  0.3432  1.2721
 1011MOL0     H33436   9.088  11.256   3.356  1.4781 -2.3414  2.8512
 1011MOL0     H33437   9.285  11.368   3.254  1.5678 -0.4061  1.8902
 1011MOL0     H33438  10.684  11.096   1.728 -4.2449  1.2537 -1.5809
 1011MOL0     H33439  10.911  11.126   1.685  1.3002  1.9555 -0.3494
 1011MOL0     H33440  11.283  11.171   1.503 -1.5535  1.4399  1.2314
 1011MOL0     H33441  11.523  11.148   1.507  0.5617  0.1143  0.0715
 1011MOL0     H33442  11.766  11.284   1.534 -0.8554  0.7886  0.9050
 1011MOL0     H33443  11.720  11.113   1.514 -0.3133  1.3003 -1.3851
 1011MOL0     H33444  11.954  11.113   1.537 -0.6762 -1.6107  1.4460
 1011MOL0     H33445  11.943  11.217   1.686 -0.7407 -0.8152  2.5060
 1011MOL0     H33446  11.840  10.921   1.649 -2.5576 -0.1299  2.4787
 1011MOL0     H33447  11.814  11.013   1.790  0.0475 -0.2029  0.3653
 1011MOL0     H33448  12.001  10.866   1.848 -0.2523  2.1361  0.9251
 1011MOL0     H33449  12.076  10.893   1.692 -1.8141 -1.6142 -0.7374
 1011MOL0     H33450  12.226  11.190   1.958  0.6208  0.5396  0.6065
 1011MOL0     H33451  11.538  11.303   1.896  1.4637 -1.9445 -1.2612
 1011MOL0     H33452  11.294  11.359   1.879 -1.1125  0.4353 -0.5267
 1012MOL0     O33453   4.515   6.411   9.861 -0.1890  0.5716  0.7416
 1012MOL0     C33454   4.570   6.353   9.773 -0.3060 -0.9491  0.1275
 1012MOL0     O33455   4.669   6.403   9.690  0.0690 -0.1802  0.0114
 1012MOL0     C33456   4.762   6.489   9.745  1.0639 -0.0315  0.2286
 1012MOL0     C33457   4.813   6.472   9.872  0.1547  0.1700  0.4701
 1012MOL0     C33458   4.919   6.556   9.911  0.2100 -0.1648  0.8219
 1012MOL0     C33459   4.974   6.654   9.826  1.2583  0.6912  0.4425
 1012MOL0     O33460   5.075   6.738   9.871 -0.1826  0.0784 -0.2951
 1012MOL0     C33461   5.114   6.852   9.806 -0.2356 -0.0294  0.2352
 1012MOL0     C33462   5.250   6.886   9.872 -0.6012  0.4716  0.4862
 1012MOL0     C33463   5.249   6.897  10.022  0.0065  0.3821 -0.1534
 1012MOL0     C33464   5.388   6.930  10.078  0.1605 -0.5618  0.4096
 1012MOL0     C33465   5.377   6.953  10.235 -0.3322 -0.5441  0.0796
 1012MOL0     C33466   5.362   6.823  10.309  0.0842  0.4118  0.2390
 1012MOL0     C33467   5.313   6.850  10.445  0.6951  1.0578  1.4102
 1012MOL0     C33468   5.412   6.917  10.528  0.6968  0.2685  0.6407
 1012MOL0     N33469   5.334   6.956  10.653 -0.4784  0.2356 -0.2096
 1012MOL0     C33470   5.325   6.887  10.772 -0.6660  0.3546 -0.3516
 1012MOL0     C33471   5.257   6.956  10.858 -0.4976 -0.4198  0.0598
 1012MOL0     C33472   5.217   6.907  10.988  0.2804  0.4578  0.0744
 1012MOL0     C33473   5.102   6.814  11.001 -0.8020 -0.1421  0.8762
 1012MOL0     C33474   4.985   6.883  10.942  0.9306  0.1260 -0.9187
 1012MOL0     C33475   4.853   6.866  11.012 -1.1546  0.9260  0.4930
 1012MOL0     O33476   4.758   6.948  10.952  0.0516 -0.0991  0.0960
 1012MOL0     C33477   4.645   6.963  11.025  0.3498  0.3322 -0.2941
 1012MOL0     C33478   4.561   7.056  10.978  0.8949  0.9820 -0.8183
 1012MOL0     C33479   4.442   7.093  11.033 -0.0956 -1.0117 -0.1093
 1012MOL0     C33480   4.399   7.026  11.149 -0.1303 -0.4591  0.7075
 1012MOL0     C33481   4.276   7.067  11.220  0.1924  0.0125 -0.4258
 1012MOL0     O33482   4.241   6.996  11.320 -0.0503  0.3585 -1.4135
 1012MOL0     C33483   4.110   7.016  11.377 -0.5184 -1.3259  0.8534
 1012MOL0     C33484   4.021   6.911  11.379 -0.3298 -0.3928 -0.0172
 1012MOL0     C33485   3.881   6.927  11.421 -1.2265  0.5550 -1.3978
 1012MOL0     C33486   3.837   7.059  11.456 -0.0625 -0.1076  0.0167
 1012MOL0     O33487   3.702   7.062  11.482 -0.0114  0.5959  0.3230
 1012MOL0     C33488   3.635   7.174  11.537 -0.5259  0.1687  0.1252
 1012MOL0     C33489   3.486   7.167  11.504  0.1280  0.3595  0.3046
 1012MOL0     C33490   3.423   7.028  11.523 -0.1450 -1.4583 -1.4081
 1012MOL0     C33491   3.267   7.045  11.519 -0.0464  0.4334 -0.4006
 1012MOL0     C33492   3.195   6.982  11.635  0.5687 -0.3966 -0.4392
 1012MOL0     C33493   3.043   7.015  11.632  0.5120  0.3845  0.7600
 1012MOL0     C33494   2.969   6.959  11.514  0.0936  0.7817  0.7986
 1012MOL0     C33495   3.000   6.813  11.463  0.5199 -1.2296 -0.6264
 1012MOL0    Cl33496   2.899   6.749  11.339 -0.0651 -0.0103  0.2249
 1012MOL0     C33497   3.929   7.159  11.462 -0.8614 -1.1839 -0.3553
 1012MOL0     C33498   4.062   7.139  11.415 -0.4652  0.0338 -0.2450
 1012MOL0     O33499   4.222   7.170  11.174  0.0765  0.4192 -0.5616
 1012MOL0     C33500   4.471   6.915  11.200  0.2544 -0.5234  1.3274
 1012MOL0     C33501   4.597   6.889  11.137 -0.1303 -0.2535 -0.2005
 1012MOL0     N33502   5.227   7.080  10.802  0.9518 -0.4919 -0.1064
 1012MOL0     N33503   5.282   7.083  10.679 -0.4108  0.1239 -0.0020
 1012MOL0     C33504   4.918   6.663   9.700  0.3329 -0.3866  1.1593
 1012MOL0     C33505   4.798   6.590   9.665  0.5231 -0.5033  0.9545
 1012MOL0     C33506   4.498   6.237   9.716 -0.3685 -0.7817  0.5457
 1012MOL0     C33507   4.534   6.180   9.589 -0.3075 -1.3222 -0.7325
 1012MOL0     C33508   4.461   6.094   9.517 -0.5245  0.4527 -0.2032
 1012MOL0     C33509   4.356   6.030   9.576  0.0050  0.1595  0.8370
 1012MOL0     O33510   4.289   5.951   9.491 -1.0308  0.8880 -0.6834
 1012MOL0     C33511   4.169   5.887   9.526  0.8777 -0.4217 -0.1753
 1012MOL0     C33512   4.209   5.751   9.576 -0.1167  0.2405 -0.0556
 1012MOL0     C33513   4.113   5.675   9.664 -0.2740  0.1027 -0.4582
 1012MOL0     C33514   4.012   5.593   9.579  0.3938  0.8206  0.4669
 1012MOL0     C33515   3.907   5.679   9.520 -1.0224  0.2299 -0.2992
 1012MOL0     C33516   3.816   5.717   9.464  0.6944  0.5321  0.1209
 1012MOL0     C33517   4.322   6.064   9.708  0.0066  0.2940 -0.3941
 1012MOL0     C33518   4.380   6.177   9.766 -0.7116 -0.2939  0.2331
 1012MOL0     H33519   4.782   6.388   9.935  1.9303 -1.4642 -0.7165
 1012MOL0     H33520   4.964   6.539  10.009 -1.2359  0.8135  1.6998
 1012MOL0     H33521   5.044   6.936   9.803 -1.0329 -0.5821  1.9981
 1012MOL0     H33522   5.134   6.836   9.699 -2.2340  2.6212 -0.6594
 1012MOL0     H33523   5.268   6.986   9.831 -2.4175  0.7152  0.1758
 1012MOL0     H33524   5.313   6.803   9.837 -1.5039 -0.6227  1.3839
 1012MOL0     H33525   5.220   6.798  10.059  3.5447 -0.6940  0.1626
 1012MOL0     H33526   5.180   6.973  10.058  1.1306  0.8742  1.0220
 1012MOL0     H33527   5.461   6.853  10.052 -0.1243 -0.8589  0.4840
 1012MOL0     H33528   5.422   7.027  10.039 -0.3609  0.0650  1.4451
 1012MOL0     H33529   5.297   7.026  10.247  0.5581  0.9645 -2.3956
 1012MOL0     H33530   5.463   7.011  10.271 -1.6606  0.2055  2.2373
 1012MOL0     H33531   5.468   6.793  10.311  0.9819  3.1522 -1.1369
 1012MOL0     H33532   5.301   6.745  10.262  2.4674 -1.9125  0.7132
 1012MOL0     H33533   5.219   6.906  10.446  1.0895  1.7354  0.8120
 1012MOL0     H33534   5.289   6.754  10.492  0.7354  0.5711  0.4685
 1012MOL0     H33535   5.435   7.015  10.484  1.5385 -0.0105  0.4327
 1012MOL0     H33536   5.494   6.846  10.545 -2.2701 -2.9678  2.6597
 1012MOL0     H33537   5.370   6.789  10.787  0.1097  0.8302  0.4818
 1012MOL0     H33538   5.192   6.994  11.048  2.0927  1.9676 -1.2279
 1012MOL0     H33539   5.310   6.856  11.017 -0.2203 -0.0022  0.9040
 1012MOL0     H33540   5.094   6.793  11.108  3.4091  1.1145  1.6194
 1012MOL0     H33541   5.115   6.726  10.937 -1.0639  0.3483  0.1303
 1012MOL0     H33542   4.990   6.993  10.947 -0.8294  0.2055 -0.4709
 1012MOL0     H33543   4.973   6.842  10.841 -1.7523  1.5192 -1.2677
 1012MOL0     H33544   4.873   6.892  11.116  0.2010  0.9329  0.2495
 1012MOL0     H33545   4.823   6.761  11.006 -0.2507  0.7090 -0.6246
 1012MOL0     H33546   4.595   7.115  10.893  0.0790  1.1283 -1.0434
 1012MOL0     H33547   4.393   7.184  10.998  0.7312  0.0958  1.4927
 1012MOL0     H33548   4.073   6.824  11.341  0.2897 -0.0206 -0.0356
 1012MOL0     H33549   3.801   6.853  11.427 -0.5559 -0.0583  2.7282
 1012MOL0     H33550   3.663   7.264  11.481 -2.5629 -1.4585 -3.9394
 1012MOL0     H33551   3.648   7.195  11.643 -0.3432 -0.6190  0.2665
 1012MOL0     H33552   3.468   7.198  11.400  0.6799  0.8155  0.3387
 1012MOL0     H33553   3.432   7.237  11.568 -0.3181 -1.2075  1.7058
 1012MOL0     H33554   3.453   6.987  11.619  2.0084  0.2617 -1.2727
 1012MOL0     H33555   3.473   6.956  11.458  0.6101  0.3720 -2.9303
 1012MOL0     H33556   3.243   7.151  11.506 -2.9448 -0.3009 -1.9390
 1012MOL0     H33557   3.245   6.994  11.425  3.0733  1.6292 -1.9646
 1012MOL0     H33558   3.245   7.018  11.726 -0.7180 -0.0314  0.1529
 1012MOL0     H33559   3.211   6.874  11.636  3.8560 -0.0442  1.5067
 1012MOL0     H33560   3.036   7.124  11.630 -1.7003  0.2945  0.9455
 1012MOL0     H33561   2.999   6.975  11.724  1.3385 -1.5701  0.3571
 1012MOL0     H33562   2.862   6.951  11.536  0.4062 -2.1245  1.6583
 1012MOL0     H33563   2.985   7.029  11.431 -2.5028  1.6255  0.9260
 1012MOL0     H33564   2.996   6.735  11.539 -0.0817 -1.9917 -1.4216
 1012MOL0     H33565   3.102   6.827  11.423  0.2205  2.4924 -0.3929
 1012MOL0     H33566   3.892   7.259  11.484 -1.3747 -0.8672 -2.4131
 1012MOL0     H33567   4.124   7.227  11.423 -0.0460 -0.0532 -2.1398
 1012MOL0     H33568   4.455   6.874  11.299  1.6513 -0.2607  1.6795
 1012MOL0     H33569   4.662   6.816  11.184 -0.7455 -0.2992  0.5833
 1012MOL0     H33570   4.956   6.739   9.633 -2.8162  0.2020 -0.1339
 1012MOL0     H33571   4.740   6.594   9.573  1.5221 -0.8518  0.2911
 1012MOL0     H33572   4.626   6.195   9.534 -0.5677  0.9275 -0.6619
 1012MOL0     H33573   4.502   6.059   9.422  2.6749  1.0535  0.8134
 1012MOL0     H33574   4.095   5.892   9.445 -4.7030  0.8609  4.2808
 1012MOL0     H33575   4.118   5.939   9.608 -1.4108 -2.6982 -0.0263
 1012MOL0     H33576   4.238   5.695   9.487  1.9510 -2.0942  1.9539
 1012MOL0     H33577   4.290   5.771   9.646 -0.5657  1.6158  0.1032
 1012MOL0     H33578   4.053   5.742   9.726  0.3738  1.2290 -1.0059
 1012MOL0     H33579   4.164   5.612   9.737  1.1937  2.1187  0.3424
 1012MOL0     H33580   4.058   5.540   9.495 -0.6878  1.5048 -0.5933
 1012MOL0     H33581   3.975   5.517   9.647  1.5805  1.1799  1.5489
 1012MOL0     H33582   3.722   5.732   9.415 -0.1292 -1.4348  0.9749
 1012MOL0     H33583   4.235   6.018   9.755  0.0718 -1.3577 -1.8144
 1012MOL0     H33584   4.343   6.231   9.853 -1.5489  1.5017 -1.1616
 1013MOL0     O33585   7.028  10.599   7.458 -0.2682  0.5882  0.5711
 1013MOL0     C33586   7.018  10.690   7.539 -0.9212  0.1543 -0.0473
 1013MOL0     O33587   7.076  10.699   7.659  0.0344 -0.6480 -0.4022
 1013MOL0     C33588   7.113  10.580   7.717 -0.1998  0.3863  0.0681
 1013MOL0     C33589   7.016  10.506   7.785 -0.6212  0.6704 -0.0163
 1013MOL0     C33590   7.057  10.388   7.854 -0.8058 -0.0659  0.2581
 1013MOL0     C33591   7.185  10.332   7.837  0.2526 -0.3829  1.2500
 1013MOL0     O33592   7.198  10.203   7.883 -0.3495  0.4624 -0.0836
 1013MOL0     C33593   7.335  10.153   7.898 -1.1091 -0.2803 -0.6421
 1013MOL0     C33594   7.326  10.007   7.946  0.6094 -0.0342  0.1269
 1013MOL0     C33595   7.287   9.991   8.094 -0.0045 -0.2640  0.7812
 1013MOL0     C33596   7.279   9.843   8.149  0.4707 -0.7444 -0.9945
 1013MOL0     C33597   7.275   9.842   8.309 -0.6170  0.3619  0.0846
 1013MOL0     C33598   7.131   9.850   8.358 -0.2353 -0.2313  0.1819
 1013MOL0     C33599   7.117   9.829   8.506 -0.7008  0.2675 -0.2777
 1013MOL0     C33600   6.994   9.887   8.570 -0.1338  0.0850 -0.2963
 1013MOL0     N33601   6.875   9.800   8.544 -0.1468  0.3246  0.3814
 1013MOL0     C33602   6.831   9.697   8.618  0.6913  0.4607 -0.0652
 1013MOL0     C33603   6.707   9.668   8.576  0.4824  0.7791  0.5986
 1013MOL0     C33604   6.639   9.545   8.622 -0.0613 -0.8946  0.1629
 1013MOL0     C33605   6.563   9.572   8.753 -0.0872  0.9940 -0.3584
 1013MOL0     C33606   6.433   9.649   8.750 -1.1480  0.0033  0.0812
 1013MOL0     C33607   6.345   9.631   8.873 -0.3167  0.2307 -0.1065
 1013MOL0     O33608   6.305   9.495   8.875  0.1992  0.7345 -0.2424
 1013MOL0     C33609   6.212   9.465   8.973  0.0120 -0.1285  0.2980
 1013MOL0     C33610   6.153   9.560   9.060 -0.6152 -0.6520  0.4747
 1013MOL0     C33611   6.076   9.532   9.172  0.4369 -0.1948  0.3312
 1013MOL0     C33612   6.030   9.407   9.188 -1.9447 -0.9532  0.5290
 1013MOL0     C33613   5.931   9.376   9.289 -0.6592  0.4692 -0.0804
 1013MOL0     O33614   5.864   9.481   9.345 -0.7026  0.0537 -0.3519
 1013MOL0     C33615   5.775   9.455   9.443  0.1059  0.9643 -0.1408
 1013MOL0     C33616   5.812   9.466   9.572  0.3535 -0.8213 -0.0726
 1013MOL0     C33617   5.714   9.465   9.670  0.5253  0.0910  0.3471
 1013MOL0     C33618   5.581   9.440   9.637 -0.3705 -0.3518  0.7138
 1013MOL0     O33619   5.476   9.440   9.731 -0.7781 -0.4452 -0.9947
 1013MOL0     C33620   5.418   9.309   9.736 -0.1033  0.2381 -0.1003
 1013MOL0     C33621   5.517   9.209   9.779 -0.2000  1.0533 -0.5706
 1013MOL0     C33622   5.453   9.073   9.807 -0.0814  0.1606  0.3493
 1013MOL0     C33623   5.454   8.982   9.685 -0.6712 -0.5948  0.0582
 1013MOL0     C33624   5.375   8.854   9.721  0.1434 -0.0209 -0.2874
 1013MOL0     C33625   5.343   8.759   9.609  0.8084  0.0453  0.5571
 1013MOL0     C33626   5.468   8.665   9.600 -0.7495  0.0021  0.1072
 1013MOL0     C33627   5.452   8.563   9.491  0.6322  0.3130 -0.0630
 1013MOL0    Cl33628   5.456   8.666   9.348  0.0757 -0.3029 -0.3020
 1013MOL0     C33629   5.541   9.415   9.501 -0.0555 -1.0641  0.1493
 1013MOL0     C33630   5.645   9.429   9.406 -0.0470  0.8568  0.3808
 1013MOL0     O33631   5.919   9.261   9.325 -0.0809 -0.6835  0.3135
 1013MOL0     C33632   6.094   9.305   9.104  0.5340  0.1459 -1.2247
 1013MOL0     C33633   6.177   9.334   9.002 -0.8126 -0.3170  0.0930
 1013MOL0     N33634   6.672   9.765   8.478 -0.8956 -0.6240 -0.3562
 1013MOL0     N33635   6.784   9.830   8.453  0.3128 -0.0288 -0.1480
 1013MOL0     C33636   7.281  10.414   7.762 -0.3244  0.7594 -0.6072
 1013MOL0     C33637   7.249  10.542   7.717  0.7988  0.1323  0.0221
 1013MOL0     C33638   6.937  10.809   7.484  0.2677 -0.3705 -0.9035
 1013MOL0     C33639   6.896  10.903   7.575 -0.8221  0.1105 -0.1744
 1013MOL0     C33640   6.825  11.018   7.532  0.8630  0.3344  0.0287
 1013MOL0     C33641   6.805  11.044   7.398  0.3210 -0.6222  0.4634
 1013MOL0     O33642   6.752  11.170   7.364  0.4817 -0.6516  1.1430
 1013MOL0     C33643   6.623  11.158   7.289 -0.4249  0.3450 -0.5021
 1013MOL0     C33644   6.515  11.227   7.382 -0.3497  0.0394  0.3223
 1013MOL0     C33645   6.530  11.378   7.382 -0.3429 -0.0372  0.6380
 1013MOL0     C33646   6.450  11.451   7.492  0.0067  0.3880  0.4148
 1013MOL0     C33647   6.486  11.596   7.476  0.7596 -0.9791  0.6193
 1013MOL0     C33648   6.517  11.710   7.450 -0.5117  0.4771  0.8972
 1013MOL0     C33649   6.850  10.943   7.309  0.2073  0.0865 -0.1579
 1013MOL0     C33650   6.921  10.833   7.353 -0.1630 -0.1427  0.0162
 1013MOL0     H33651   6.912  10.534   7.772 -0.8807 -0.2374  0.0602
 1013MOL0     H33652   6.989  10.324   7.909  0.8649 -0.7399  1.6334
 1013MOL0     H33653   7.391  10.205   7.976 -2.5198 -1.7152  1.4300
 1013MOL0     H33654   7.392  10.162   7.805 -5.2952 -1.9080 -3.7101
 1013MOL0     H33655   7.431   9.980   7.940  0.1602 -1.8974  0.0849
 1013MOL0     H33656   7.264   9.935   7.893 -0.1228 -2.0604  3.4219
 1013MOL0     H33657   7.188  10.035   8.105  0.1597  0.0973  0.8000
 1013MOL0     H33658   7.350  10.055   8.156 -2.0953  1.1422  1.5753
 1013MOL0     H33659   7.189   9.799   8.104  0.0783  0.8628 -1.8428
 1013MOL0     H33660   7.355   9.777   8.104 -3.2058 -2.4243 -5.6098
 1013MOL0     H33661   7.334   9.917   8.362 -1.6390 -1.4581  4.2076
 1013MOL0     H33662   7.316   9.745   8.339 -0.5824  0.5165  0.5422
 1013MOL0     H33663   7.079   9.764   8.314  1.7204 -2.0012  1.1501
 1013MOL0     H33664   7.090   9.939   8.310 -0.4446 -0.8077 -0.7407
 1013MOL0     H33665   7.117   9.720   8.513 -0.5131  0.2039 -1.2090
 1013MOL0     H33666   7.202   9.869   8.562 -2.5868 -0.1710  3.1971
 1013MOL0     H33667   6.967   9.985   8.529 -1.9035  0.1458  0.9298
 1013MOL0     H33668   7.008   9.883   8.678 -1.8771 -5.1752  0.0216
 1013MOL0     H33669   6.873   9.634   8.696 -0.3834 -2.5730 -1.7912
 1013MOL0     H33670   6.704   9.458   8.624  0.6900 -0.3802 -0.9955
 1013MOL0     H33671   6.555   9.513   8.560 -0.5341 -0.5821  0.6291
 1013MOL0     H33672   6.635   9.609   8.826  3.8934 -2.9319 -1.8756
 1013MOL0     H33673   6.543   9.475   8.800 -1.7040  0.7683 -1.4252
 1013MOL0     H33674   6.465   9.754   8.754  1.2201 -0.6931  2.4989
 1013MOL0     H33675   6.371   9.630   8.662  0.2731  0.8836 -1.1524
 1013MOL0     H33676   6.261   9.699   8.862 -0.2214  0.5638  1.0554
 1013MOL0     H33677   6.404   9.658   8.962 -2.0924  0.4462  1.0694
 1013MOL0     H33678   6.187   9.663   9.046  0.5244 -1.1723 -0.8768
 1013MOL0     H33679   6.040   9.616   9.230  1.1318  0.1113  0.3233
 1013MOL0     H33680   5.912   9.497   9.600  0.5815 -0.8898 -0.8042
 1013MOL0     H33681   5.729   9.467   9.778 -3.0635  2.1290  0.9820
 1013MOL0     H33682   5.370   9.280   9.642 -0.4393  0.1871  0.0844
 1013MOL0     H33683   5.344   9.313   9.817  0.6751  0.1717  0.6236
 1013MOL0     H33684   5.556   9.259   9.867 -1.5578  1.1787 -0.0263
 1013MOL0     H33685   5.596   9.192   9.704 -1.1979  1.8049 -1.8343
 1013MOL0     H33686   5.348   9.082   9.840 -1.2093 -0.7106 -2.6843
 1013MOL0     H33687   5.513   9.021   9.882 -2.0132 -1.2533  0.9878
 1013MOL0     H33688   5.404   9.041   9.607  0.6219  1.9463  1.0402
 1013MOL0     H33689   5.552   8.944   9.655 -0.0387 -0.1757  1.5032
 1013MOL0     H33690   5.276   8.880   9.760  0.1339  0.0735 -0.3714
 1013MOL0     H33691   5.430   8.809   9.803  1.2844 -2.4262 -2.2363
 1013MOL0     H33692   5.327   8.810   9.513 -1.2181 -1.5486 -0.0120
 1013MOL0     H33693   5.248   8.708   9.623 -0.2068  0.1179 -4.3384
 1013MOL0     H33694   5.557   8.727   9.584  0.6669 -0.7178  4.0626
 1013MOL0     H33695   5.494   8.618   9.695 -0.7761  0.8174  0.5299
 1013MOL0     H33696   5.355   8.513   9.494  1.7345 -1.9074  0.4803
 1013MOL0     H33697   5.536   8.495   9.510  0.9531  0.0138 -2.2619
 1013MOL0     H33698   5.441   9.385   9.473 -0.2222  0.3889 -0.9360
 1013MOL0     H33699   5.617   9.444   9.302  1.0964  1.3837  0.1247
 1013MOL0     H33700   6.070   9.200   9.121 -3.8579  1.0740 -0.3447
 1013MOL0     H33701   6.208   9.262   8.927 -1.1904 -0.1572 -0.2203
 1013MOL0     H33702   7.381  10.377   7.738 -1.6584 -1.3574 -3.5945
 1013MOL0     H33703   7.320  10.594   7.652 -1.4398  0.9866 -1.8718
 1013MOL0     H33704   6.896  10.874   7.680 -0.9698 -0.1672 -0.2486
 1013MOL0     H33705   6.787  11.095   7.598 -0.4137 -0.0341 -0.2505
 1013MOL0     H33706   6.591  11.055   7.270 -3.6146  0.9468  0.9947
 1013MOL0     H33707   6.635  11.211   7.195  1.8979  0.3687 -0.2619
 1013MOL0     H33708   6.410  11.207   7.357 -0.3132 -1.1860  1.0669
 1013MOL0     H33709   6.521  11.197   7.487 -1.7858 -1.0661  0.1307
 1013MOL0     H33710   6.493  11.407   7.283  1.1593 -4.6732 -1.5494
 1013MOL0     H33711   6.634  11.413   7.383 -1.2745  3.5917 -3.1390
 1013MOL0     H33712   6.343  11.450   7.470  0.1369 -0.1691 -0.2129
 1013MOL0     H33713   6.480  11.428   7.595  0.1754 -0.5498  0.1648
 1013MOL0     H33714   6.552  11.812   7.445 -3.6692  1.6327 -2.9426
 1013MOL0     H33715   6.860  10.960   7.203  3.8728  1.7712  0.2752
 1013MOL0     H33716   6.968  10.762   7.286 -1.1865 -1.3420  0.5338
 1014MOL0     O33717   0.485   8.542   2.473  0.5811 -0.1379 -0.5004
 1014MOL0     C33718   0.594   8.505   2.426  0.2903 -0.0367  0.2748
 1014MOL0     O33719   0.618   8.448   2.300 -0.7581 -0.6381 -0.8124
 1014MOL0     C33720   0.514   8.390   2.239 -0.0434 -0.8804 -0.1171
 1014MOL0     C33721   0.472   8.263   2.279 -0.5264 -0.1453 -0.2632
 1014MOL0     C33722   0.355   8.203   2.220 -0.2585 -0.3169 -0.0944
 1014MOL0     C33723   0.269   8.276   2.133 -0.3605  0.7687  0.3014
 1014MOL0     O33724   0.157   8.218   2.083 -0.2297 -0.0076 -0.1391
 1014MOL0     C33725   0.062   8.301   2.007 -0.3917 -0.3948 -0.9274
 1014MOL0     C33726  -0.010   8.195   1.916 -0.5223  0.0069 -0.2577
 1014MOL0     C33727  -0.088   8.272   1.811  0.2570  0.0581 -0.1294
 1014MOL0     C33728  -0.178   8.390   1.860  0.5296  0.2756  0.1049
 1014MOL0     C33729  -0.247   8.446   1.737 -0.6185 -0.0861 -0.8813
 1014MOL0     C33730  -0.270   8.593   1.766  0.5017 -0.6640 -0.6614
 1014MOL0     C33731  -0.300   8.654   1.628  0.0732 -0.0627  0.5657
 1014MOL0     C33732  -0.445   8.637   1.578 -0.1838 -0.6550 -0.7106
 1014MOL0     N33733  -0.463   8.683   1.437  0.2352  0.4169  1.2018
 1014MOL0     C33734  -0.416   8.806   1.387  0.1845 -0.5389  0.0428
 1014MOL0     C33735  -0.454   8.799   1.265 -0.8558 -0.0156  0.6104
 1014MOL0     C33736  -0.423   8.916   1.171 -0.9471 -0.0964 -0.2099
 1014MOL0     C33737  -0.486   8.897   1.029  0.5944 -0.0776 -0.0365
 1014MOL0     C33738  -0.447   9.031   0.957  0.2427  0.1681  0.2905
 1014MOL0     C33739  -0.522   9.029   0.827  0.2997  0.4417 -0.4142
 1014MOL0     O33740  -0.489   8.929   0.734 -0.9866  0.0189 -0.7201
 1014MOL0     C33741  -0.549   8.915   0.615  0.0601 -0.7384  0.0058
 1014MOL0     C33742  -0.637   9.000   0.556  0.4601  0.4103  0.4341
 1014MOL0     C33743  -0.689   8.971   0.432  0.4600 -0.3449  0.1538
 1014MOL0     C33744  -0.660   8.854   0.356 -0.1862  1.0406 -0.4226
 1014MOL0     C33745  -0.725   8.820   0.229 -0.7759  0.2322  0.1415
 1014MOL0     O33746  -0.813   8.919   0.197 -0.3999  0.7020 -0.0017
 1014MOL0     C33747  -0.924   8.898   0.116  0.6097 -1.1502  0.4098
 1014MOL0     C33748  -0.967   9.011   0.046 -0.4582  0.1730  0.5601
 1014MOL0     C33749  -1.075   9.021  -0.045  0.9566 -0.0223  0.2767
 1014MOL0     C33750  -1.151   8.904  -0.065 -0.1876  0.5142 -0.3927
 1014MOL0     O33751  -1.262   8.906  -0.139 -0.0944  0.2259 -0.1403
 1014MOL0     C33752  -1.364   9.012  -0.137  0.3966 -0.3666  0.5701
 1014MOL0     C33753  -1.497   8.945  -0.156  0.0435  0.6001  0.5503
 1014MOL0     C33754  -1.617   9.032  -0.122  1.1155 -0.6638 -0.2251
 1014MOL0     C33755  -1.740   8.960  -0.163  0.5403  1.1168  0.1489
 1014MOL0     C33756  -1.867   9.045  -0.152 -0.3730  0.5816 -1.0740
 1014MOL0     C33757  -1.908   9.075  -0.004  0.5924  0.0022 -0.7786
 1014MOL0     C33758  -2.040   9.147  -0.020 -0.1070  0.5258  0.3904
 1014MOL0     C33759  -2.088   9.202   0.118 -0.8756  0.1491  0.4767
 1014MOL0    Cl33760  -2.134   9.059   0.223  0.0444 -0.0001  0.1191
 1014MOL0     C33761  -1.112   8.786   0.006  0.3527  0.6661  0.3427
 1014MOL0     C33762  -0.999   8.776   0.092  0.7573 -0.4086 -0.3001
 1014MOL0     O33763  -0.683   8.723   0.159  0.4401  0.2771  0.2568
 1014MOL0     C33764  -0.575   8.761   0.427  0.1828  0.0308  0.3770
 1014MOL0     C33765  -0.517   8.799   0.547 -0.2260  0.2104  0.6298
 1014MOL0     N33766  -0.517   8.680   1.226 -0.7525 -0.6611  0.1996
 1014MOL0     N33767  -0.527   8.611   1.337  0.6620  0.0436 -0.2566
 1014MOL0     C33768   0.306   8.410   2.098 -0.2818 -0.2183  0.1431
 1014MOL0     C33769   0.420   8.464   2.172 -0.4007 -0.2973  0.1279
 1014MOL0     C33770   0.715   8.550   2.506  0.3847  0.1848  0.0746
 1014MOL0     C33771   0.845   8.537   2.449  0.3385  0.5858  0.5381
 1014MOL0     C33772   0.953   8.576   2.519  0.1421  0.4934 -0.1776
 1014MOL0     C33773   0.939   8.639   2.640 -0.0942 -1.0230 -0.4804
 1014MOL0     O33774   1.034   8.685   2.724 -0.1488  0.2403 -0.6388
 1014MOL0     C33775   1.171   8.653   2.709 -0.2541  0.6060  0.3129
 1014MOL0     C33776   1.202   8.504   2.716  0.0740 -0.7937  0.0194
 1014MOL0     C33777   1.354   8.484   2.699  0.1125 -0.3494  0.3455
 1014MOL0     C33778   1.403   8.341   2.681 -0.3037  0.2293 -0.6226
 1014MOL0     C33779   1.352   8.261   2.800  0.0119 -0.5209  1.1192
 1014MOL0     C33780   1.321   8.203   2.896  0.3081  0.8898 -0.6630
 1014MOL0     C33781   0.814   8.657   2.698 -0.5300  0.1200  1.2656
 1014MOL0     C33782   0.697   8.615   2.633 -0.4400  0.4568  0.6919
 1014MOL0     H33783   0.537   8.205   2.344 -0.2329  0.9873  0.4992
 1014MOL0     H33784   0.307   8.110   2.252 -0.1801 -0.3949 -0.2039
 1014MOL0     H33785   0.109   8.374   1.940  0.4921  1.4244  1.5171
 1014MOL0     H33786  -0.006   8.356   2.072  2.1062  1.4504  0.3138
 1014MOL0     H33787  -0.068   8.135   1.986  1.2491 -2.0908 -0.4650
 1014MOL0     H33788   0.058   8.117   1.880 -1.5847 -2.2824  2.3176
 1014MOL0     H33789  -0.157   8.200   1.765 -3.2368  1.2855  2.6590
 1014MOL0     H33790  -0.020   8.312   1.736 -1.3904  1.6273 -0.8849
 1014MOL0     H33791  -0.248   8.356   1.937 -1.0461  1.4197 -0.7569
 1014MOL0     H33792  -0.111   8.461   1.909 -0.4299 -1.2963  4.0892
 1014MOL0     H33793  -0.340   8.389   1.724 -1.7122  1.3783  0.1578
 1014MOL0     H33794  -0.190   8.430   1.646 -1.3330 -1.1065 -1.1651
 1014MOL0     H33795  -0.176   8.636   1.801 -0.1843 -1.3105  2.2172
 1014MOL0     H33796  -0.353   8.619   1.833  0.3565 -1.1976 -0.6257
 1014MOL0     H33797  -0.272   8.760   1.628 -4.1638  1.2147 -0.6293
 1014MOL0     H33798  -0.226   8.598   1.570 -0.9513 -2.8391  1.7774
 1014MOL0     H33799  -0.523   8.685   1.638 -1.6398  0.4611 -3.3340
 1014MOL0     H33800  -0.467   8.531   1.594  0.5066 -0.4164  2.5854
 1014MOL0     H33801  -0.357   8.870   1.452  0.0787 -0.3844 -0.0126
 1014MOL0     H33802  -0.318   8.945   1.160 -0.5373  0.3627  3.5909
 1014MOL0     H33803  -0.454   9.013   1.212  0.6049  0.8433 -1.1405
 1014MOL0     H33804  -0.595   8.893   1.037  0.2582  1.3945 -2.8050
 1014MOL0     H33805  -0.440   8.807   0.988  2.7904 -0.5770  3.1322
 1014MOL0     H33806  -0.472   9.125   1.008  1.0112  0.9559 -0.7541
 1014MOL0     H33807  -0.341   9.037   0.935  0.2375 -0.2905  0.1373
 1014MOL0     H33808  -0.512   9.129   0.784 -3.6463  0.9448 -0.5563
 1014MOL0     H33809  -0.629   9.022   0.851  0.3134  1.7565  0.1612
 1014MOL0     H33810  -0.652   9.097   0.602 -2.2925 -1.0419  2.8334
 1014MOL0     H33811  -0.743   9.051   0.382  4.7775  1.4726 -2.1372
 1014MOL0     H33812  -0.912   9.104   0.062  0.8394 -0.4353 -0.1493
 1014MOL0     H33813  -1.086   9.117  -0.093  0.3696  0.6354  1.6648
 1014MOL0     H33814  -1.359   9.074  -0.227  0.5250 -0.8719  0.2275
 1014MOL0     H33815  -1.361   9.066  -0.042 -0.4549 -0.7718  0.8364
 1014MOL0     H33816  -1.499   8.859  -0.088 -0.4613  0.6124  0.5501
 1014MOL0     H33817  -1.495   8.923  -0.263 -1.9809  1.6037  0.2600
 1014MOL0     H33818  -1.605   9.132  -0.165 -1.3881  0.2249  0.9885
 1014MOL0     H33819  -1.617   9.041  -0.013 -1.1597  2.0507 -0.3411
 1014MOL0     H33820  -1.730   8.935  -0.268 -0.5824 -1.2236  0.5373
 1014MOL0     H33821  -1.742   8.869  -0.102  2.0601  0.9715  0.0075
 1014MOL0     H33822  -1.946   8.992  -0.206  1.9407 -1.6600 -2.5015
 1014MOL0     H33823  -1.853   9.140  -0.204  1.9674  0.2990 -1.0657
 1014MOL0     H33824  -1.832   9.134   0.047  0.1985  0.6625 -0.9413
 1014MOL0     H33825  -1.916   8.986   0.060  0.1328 -0.2385 -1.1625
 1014MOL0     H33826  -2.021   9.219  -0.100  1.8191 -0.7507 -0.3648
 1014MOL0     H33827  -2.115   9.072  -0.048  2.5980 -2.3420  0.2780
 1014MOL0     H33828  -2.172   9.271   0.102  1.5125  2.5556 -3.4825
 1014MOL0     H33829  -2.011   9.261   0.168  0.9217  0.9770 -2.9616
 1014MOL0     H33830  -1.188   8.710  -0.013 -3.1594  3.5852  1.5610
 1014MOL0     H33831  -0.985   8.686   0.152 -0.9563 -0.7066 -0.3002
 1014MOL0     H33832  -0.545   8.672   0.372 -2.0712 -0.0061 -0.9168
 1014MOL0     H33833  -0.449   8.736   0.604 -0.0915  2.0741  2.6678
 1014MOL0     H33834   0.241   8.476   2.041 -1.9221  0.4760  2.6849
 1014MOL0     H33835   0.431   8.572   2.180 -2.0717  0.0661 -1.7120
 1014MOL0     H33836   0.866   8.472   2.365 -1.5815  2.4090 -1.4782
 1014MOL0     H33837   1.046   8.543   2.474  0.2514  2.2197 -1.3701
 1014MOL0     H33838   1.226   8.696   2.793 -0.6852  0.8722  0.4673
 1014MOL0     H33839   1.206   8.694   2.615  1.3617 -1.5251 -0.0780
 1014MOL0     H33840   1.162   8.464   2.809  1.5682  0.7831  1.4171
 1014MOL0     H33841   1.148   8.460   2.631  0.9299 -0.9394 -0.4637
 1014MOL0     H33842   1.409   8.507   2.791  2.6109 -0.8211 -0.9477
 1014MOL0     H33843   1.386   8.548   2.617  2.0054 -2.0510 -0.2997
 1014MOL0     H33844   1.359   8.300   2.590 -1.9707  1.3125 -0.3392
 1014MOL0     H33845   1.512   8.345   2.674 -0.1336 -0.8609  0.8588
 1014MOL0     H33846   1.283   8.136   2.971  1.7550  4.1128  3.3277
 1014MOL0     H33847   0.808   8.726   2.781 -2.0459  2.1365 -0.4185
 1014MOL0     H33848   0.596   8.621   2.673 -1.9207 -3.2837 -1.9592
 1015MOL0     O33849   9.995   5.403   0.312 -1.0811 -0.3604  0.3427
 1015MOL0     C33850   9.941   5.330   0.225 -0.4264 -0.1311 -0.2740
 1015MOL0     O33851   9.936   5.349   0.097 -0.3559 -0.2583  0.3084
 1015MOL0     C33852  10.021   5.436   0.037 -0.6317  0.6381 -0.7346
 1015MOL0     C33853  10.164   5.442   0.067  0.0297  0.4352 -0.7874
 1015MOL0     C33854  10.258   5.519   0.001 -0.2583 -0.0832 -0.2755
 1015MOL0     C33855  10.217   5.599  -0.108 -0.2726  0.1985 -0.0863
 1015MOL0     O33856  10.295   5.690  -0.176  0.0325 -0.0291  0.5026
 1015MOL0     C33857  10.334   5.667  -0.318  0.3654  0.6342 -0.2274
 1015MOL0     C33858  10.315   5.812  -0.380 -0.0077  0.5228  0.5311
 1015MOL0     C33859  10.165   5.855  -0.379  0.1501 -0.6965  0.2187
 1015MOL0     C33860  10.170   5.974  -0.473  1.1387  0.9640 -0.1948
 1015MOL0     C33861  10.034   6.041  -0.479  0.2445 -0.7695  0.3089
 1015MOL0     C33862  10.014   6.145  -0.372 -0.2076 -0.5399 -0.6588
 1015MOL0     C33863   9.861   6.166  -0.348 -0.6477 -0.1700 -0.5213
 1015MOL0     C33864   9.778   6.209  -0.474  0.0803 -0.8465  0.4582
 1015MOL0     N33865   9.637   6.196  -0.451 -0.7332 -0.4507 -0.5917
 1015MOL0     C33866   9.580   6.088  -0.394 -0.5937 -0.8356 -0.3340
 1015MOL0     C33867   9.455   6.116  -0.369 -0.2817  0.4525  1.0438
 1015MOL0     C33868   9.337   6.032  -0.309  0.0985  0.2704  0.2931
 1015MOL0     C33869   9.369   5.880  -0.266  0.3874 -0.7592  0.3501
 1015MOL0     C33870   9.241   5.826  -0.201  0.9486  0.6031 -0.3211
 1015MOL0     C33871   9.138   5.745  -0.288 -0.1321  0.0062 -0.4403
 1015MOL0     O33872   9.074   5.832  -0.381  0.0392 -0.5438 -0.0283
 1015MOL0     C33873   8.956   5.786  -0.431  0.4161 -0.1110  0.7712
 1015MOL0     C33874   8.911   5.645  -0.429  0.4761 -0.7529  0.5037
 1015MOL0     C33875   8.781   5.611  -0.467 -0.1061 -1.1215  0.3947
 1015MOL0     C33876   8.697   5.710  -0.528  0.1049  0.1881  0.7140
 1015MOL0     C33877   8.557   5.681  -0.560 -0.4988  0.5713 -0.1403
 1015MOL0     O33878   8.522   5.545  -0.545  0.5923  0.1882  0.7211
 1015MOL0     C33879   8.390   5.504  -0.566 -0.1264 -0.8651 -0.0218
 1015MOL0     C33880   8.326   5.526  -0.684  0.4295  0.6616 -0.1643
 1015MOL0     C33881   8.187   5.487  -0.700  0.1542  0.0259 -0.1615
 1015MOL0     C33882   8.118   5.417  -0.593 -0.0612 -0.5642  0.6035
 1015MOL0     O33883   7.991   5.365  -0.598  0.3267  0.2681 -0.1752
 1015MOL0     C33884   7.889   5.442  -0.672  0.6724  0.4949 -0.5523
 1015MOL0     C33885   7.767   5.355  -0.692  0.3506 -0.1432  0.6168
 1015MOL0     C33886   7.630   5.421  -0.720  0.8701  0.5528 -0.3574
 1015MOL0     C33887   7.537   5.360  -0.821  0.0319  0.5486 -0.3910
 1015MOL0     C33888   7.413   5.444  -0.849 -0.0230  0.3802 -0.3910
 1015MOL0     C33889   7.316   5.365  -0.931  0.0398 -0.0234 -0.2656
 1015MOL0     C33890   7.174   5.422  -0.933 -0.8061 -0.0987 -0.0177
 1015MOL0     C33891   7.061   5.330  -0.986  0.5304  0.6944  0.2155
 1015MOL0    Cl33892   7.039   5.196  -0.874 -0.0413  0.2736 -0.1075
 1015MOL0     C33893   8.191   5.396  -0.472 -0.1931  0.1389 -0.1658
 1015MOL0     C33894   8.323   5.447  -0.464 -0.8287 -0.3579 -0.1083
 1015MOL0     O33895   8.487   5.763  -0.617  0.0511 -0.2175 -0.6045
 1015MOL0     C33896   8.741   5.842  -0.542 -0.3822 -0.4660 -0.4849
 1015MOL0     C33897   8.867   5.880  -0.498 -0.4934 -0.4950  0.2476
 1015MOL0     N33898   9.436   6.242  -0.408 -0.4844 -0.2194 -0.6948
 1015MOL0     N33899   9.549   6.298  -0.450  0.6681  0.4368 -0.6905
 1015MOL0     C33900  10.085   5.581  -0.146 -0.4278  0.2785 -0.3151
 1015MOL0     C33901   9.988   5.506  -0.071  0.3705 -0.3180  0.2759
 1015MOL0     C33902   9.893   5.199   0.256 -0.0367  0.2116  0.4792
 1015MOL0     C33903   9.917   5.149   0.389  1.0790  0.1672  0.5981
 1015MOL0     C33904   9.868   5.022   0.430 -0.8811  0.1215 -0.1486
 1015MOL0     C33905   9.775   4.951   0.351  0.2119 -0.2299 -0.2201
 1015MOL0     O33906   9.733   4.827   0.398  0.2731  0.2798 -0.5516
 1015MOL0     C33907   9.655   4.812   0.517  0.2632  0.7401  0.6874
 1015MOL0     C33908   9.698   4.682   0.586  0.1162 -0.6809 -0.2858
 1015MOL0     C33909   9.670   4.552   0.505 -1.5125 -0.2833 -0.2510
 1015MOL0     C33910   9.527   4.525   0.459 -0.6371 -0.2315 -0.2542
 1015MOL0     C33911   9.512   4.386   0.426 -0.1881  0.3067  0.7140
 1015MOL0     C33912   9.501   4.264   0.395  0.2851  0.0655  0.0608
 1015MOL0     C33913   9.762   4.999   0.223  0.0380 -0.0015  0.1913
 1015MOL0     C33914   9.801   5.123   0.176  0.3216  0.6758 -0.5635
 1015MOL0     H33915  10.228   5.389   0.137  1.7919  2.7041 -0.5561
 1015MOL0     H33916  10.357   5.507   0.045 -1.8159 -1.5891  3.2336
 1015MOL0     H33917  10.260   5.599  -0.361  1.4753 -0.8306  0.1216
 1015MOL0     H33918  10.431   5.621  -0.335 -1.1072 -1.4770 -4.1050
 1015MOL0     H33919  10.344   5.812  -0.485 -1.2540  2.2149  0.1414
 1015MOL0     H33920  10.375   5.889  -0.328  4.2857 -1.9835 -0.1853
 1015MOL0     H33921  10.152   5.882  -0.274  2.2910  2.3988 -0.1974
 1015MOL0     H33922  10.097   5.777  -0.415 -1.9349  2.7656 -4.3342
 1015MOL0     H33923  10.243   6.048  -0.439 -2.2675  4.3752  0.3749
 1015MOL0     H33924  10.195   5.934  -0.572  1.0018 -1.5536  0.6948
 1015MOL0     H33925   9.964   5.959  -0.468 -1.4015  0.5171 -0.1484
 1015MOL0     H33926  10.007   6.088  -0.575 -0.9021  1.2827  1.5626
 1015MOL0     H33927  10.067   6.240  -0.384 -0.5675  0.0574  1.9217
 1015MOL0     H33928  10.055   6.116  -0.275  1.3576  2.3114 -0.3515
 1015MOL0     H33929   9.818   6.076  -0.303 -3.1606 -0.8941 -3.9477
 1015MOL0     H33930   9.853   6.253  -0.284 -2.9036 -1.5349  1.2047
 1015MOL0     H33931   9.799   6.151  -0.565 -1.6424 -1.2361  0.2699
 1015MOL0     H33932   9.797   6.317  -0.480 -3.3110 -0.1461  0.1258
 1015MOL0     H33933   9.614   5.985  -0.382 -0.4122 -0.9088 -1.3479
 1015MOL0     H33934   9.257   6.019  -0.383  0.5103 -0.7041  0.0083
 1015MOL0     H33935   9.289   6.080  -0.223 -1.7723 -0.4912 -0.2607
 1015MOL0     H33936   9.460   5.869  -0.205  0.8718 -2.3947 -0.6018
 1015MOL0     H33937   9.396   5.827  -0.358  0.3931  2.6347 -1.7653
 1015MOL0     H33938   9.277   5.761  -0.121  0.4601 -1.1376 -1.4542
 1015MOL0     H33939   9.178   5.891  -0.140  1.3079 -0.8664  1.7428
 1015MOL0     H33940   9.074   5.685  -0.223  1.5303  0.3359  1.5942
 1015MOL0     H33941   9.186   5.664  -0.345 -1.5347 -0.6775 -0.6826
 1015MOL0     H33942   8.977   5.564  -0.398  1.0649  0.4800  2.6869
 1015MOL0     H33943   8.759   5.505  -0.465  0.1109 -1.2154 -1.0405
 1015MOL0     H33944   8.361   5.572  -0.776 -1.4549  1.0082 -0.7519
 1015MOL0     H33945   8.129   5.498  -0.791 -2.1187 -2.9667  0.7406
 1015MOL0     H33946   7.917   5.482  -0.770 -0.1056  2.3119 -0.0788
 1015MOL0     H33947   7.866   5.532  -0.615  1.4626  1.6733 -2.0157
 1015MOL0     H33948   7.756   5.283  -0.610  1.8074  0.0376  0.9933
 1015MOL0     H33949   7.785   5.286  -0.775 -1.6736  0.6041 -0.5067
 1015MOL0     H33950   7.657   5.518  -0.763  3.3744 -0.1468 -0.5452
 1015MOL0     H33951   7.581   5.432  -0.623  0.3722 -1.7259 -0.3009
 1015MOL0     H33952   7.588   5.344  -0.916  0.5610 -2.3936  0.2751
 1015MOL0     H33953   7.504   5.261  -0.787 -2.7097  1.6852  0.5507
 1015MOL0     H33954   7.445   5.532  -0.905  1.0721 -0.7344 -1.5918
 1015MOL0     H33955   7.353   5.473  -0.763 -1.6105 -0.9096 -1.0141
 1015MOL0     H33956   7.307   5.265  -0.886  0.6759 -0.3593 -0.8692
 1015MOL0     H33957   7.352   5.344  -1.032 -0.3225 -0.8615 -0.2327
 1015MOL0     H33958   7.143   5.434  -0.829 -1.1712 -2.8673  0.2714
 1015MOL0     H33959   7.173   5.511  -0.998 -0.4759  1.5316  2.1090
 1015MOL0     H33960   7.092   5.290  -1.083  1.7400  2.9270 -0.3887
 1015MOL0     H33961   6.967   5.383  -1.006 -1.4356 -2.3625  0.6748
 1015MOL0     H33962   8.133   5.354  -0.391 -3.6590  1.7178 -1.6173
 1015MOL0     H33963   8.375   5.416  -0.374 -1.3334 -2.0520 -0.3462
 1015MOL0     H33964   8.673   5.918  -0.581  1.2506  1.1953 -0.2278
 1015MOL0     H33965   8.902   5.978  -0.527  1.3203 -1.0130  0.5490
 1015MOL0     H33966  10.049   5.633  -0.235 -1.7815  1.1061  0.6595
 1015MOL0     H33967   9.892   5.491  -0.119  0.0558  1.5138  0.2677
 1015MOL0     H33968   9.976   5.206   0.459 -0.1902  1.1398  0.8999
 1015MOL0     H33969   9.907   4.976   0.520 -3.0165  0.1408  0.8399
 1015MOL0     H33970   9.547   4.806   0.505  0.2482  2.0157  0.0491
 1015MOL0     H33971   9.667   4.901   0.580  1.7775 -0.3009  1.9707
 1015MOL0     H33972   9.804   4.687   0.611 -0.4219  0.1786  2.1145
 1015MOL0     H33973   9.644   4.678   0.681  0.1458 -0.9812 -0.2795
 1015MOL0     H33974   9.706   4.470   0.568  0.7290  1.3038  0.6538
 1015MOL0     H33975   9.731   4.537   0.415 -1.2652 -3.7262  0.3602
 1015MOL0     H33976   9.467   4.543   0.549 -1.2726  0.5538 -0.8131
 1015MOL0     H33977   9.487   4.592   0.382  0.7201  1.5675  0.5545
 1015MOL0     H33978   9.486   4.162   0.364 -1.5280 -0.2024  1.5915
 1015MOL0     H33979   9.709   4.939   0.150 -0.0668 -1.3910  1.3640
 1015MOL0     H33980   9.773   5.157   0.077 -2.3608  0.7847  0.1672
 1016MOL0     O33981   4.551  10.171   3.307  0.2921  0.2075  0.0372
 1016MOL0     C33982   4.630  10.085   3.277 -0.6020  0.1270 -0.2826
 1016MOL0     O33983   4.670   9.981   3.359  0.0797  0.1188 -0.1801
 1016MOL0     C33984   4.620   9.983   3.488  0.3210 -1.1543  0.4973
 1016MOL0     C33985   4.482  10.000   3.527 -0.3589  0.1246  0.5742
 1016MOL0     C33986   4.446  10.002   3.664 -1.1741 -0.9162  0.8855
 1016MOL0     C33987   4.541  10.006   3.765  0.1819  0.5182  0.0336
 1016MOL0     O33988   4.497  10.034   3.886  0.2164 -0.0401  0.0882
 1016MOL0     C33989   4.451   9.928   3.972 -0.2575 -0.0250 -0.2371
 1016MOL0     C33990   4.365   9.987   4.076  0.2912 -0.5119 -0.5171
 1016MOL0     C33991   4.210   9.956   4.056  0.4560 -0.1643  0.3815
 1016MOL0     C33992   4.139  10.019   3.937  0.6182 -0.4814 -0.0170
 1016MOL0     C33993   4.002   9.955   3.936  0.2021 -0.2364 -0.6955
 1016MOL0     C33994   3.914  10.035   3.828  0.9029 -0.6392 -0.3350
 1016MOL0     C33995   3.770   9.996   3.832  0.5129  0.0469 -0.0080
 1016MOL0     C33996   3.734   9.852   3.793  0.0281  0.0365  0.1023
 1016MOL0     N33997   3.787   9.812   3.666 -0.5495  0.9145  0.4809
 1016MOL0     C33998   3.907   9.742   3.648  0.3552 -0.3307  0.1662
 1016MOL0     C33999   3.919   9.722   3.517 -0.4406 -0.0129  0.0453
 1016MOL0     C34000   4.020   9.644   3.443 -0.0647 -0.5915 -0.3366
 1016MOL0     C34001   4.158   9.720   3.417  0.4360 -0.4904  0.8005
 1016MOL0     C34002   4.280   9.638   3.339 -0.3799 -1.4068  0.1258
 1016MOL0     C34003   4.383   9.729   3.269 -0.3134 -0.3161 -0.6735
 1016MOL0     O34004   4.514   9.674   3.287 -0.0747 -0.5492 -0.6179
 1016MOL0     C34005   4.541   9.547   3.248  0.5284  0.5128  0.9537
 1016MOL0     C34006   4.616   9.459   3.335  0.8441  0.4934  0.0582
 1016MOL0     C34007   4.637   9.326   3.305  0.2563  0.3584  0.2024
 1016MOL0     C34008   4.579   9.260   3.192 -0.4936 -0.6629  0.4058
 1016MOL0     C34009   4.602   9.124   3.159 -0.7800  0.1576  0.5041
 1016MOL0     O34010   4.700   9.055   3.228  0.5175 -0.2435 -0.2306
 1016MOL0     C34011   4.723   8.916   3.219 -0.1576  1.0616  0.2219
 1016MOL0     C34012   4.856   8.868   3.236 -0.1105 -0.4019  0.3656
 1016MOL0     C34013   4.885   8.739   3.217  0.2120  0.8765  1.3761
 1016MOL0     C34014   4.792   8.645   3.177 -0.0352 -0.4558  0.7167
 1016MOL0     O34015   4.821   8.519   3.145  0.1124  0.6356 -0.6934
 1016MOL0     C34016   4.753   8.465   3.037  1.0928 -0.4490  0.0062
 1016MOL0     C34017   4.834   8.336   2.992  0.2043  0.2003  0.6634
 1016MOL0     C34018   4.878   8.235   3.096  0.2666 -0.0171  0.2431
 1016MOL0     C34019   4.761   8.151   3.152 -0.9070  0.0650 -0.0860
 1016MOL0     C34020   4.808   8.031   3.230  0.1258 -0.0912  1.0616
 1016MOL0     C34021   4.674   7.955   3.261 -0.2076 -0.1008 -0.1181
 1016MOL0     C34022   4.706   7.840   3.364  0.5805 -0.3089  0.2148
 1016MOL0     C34023   4.680   7.893   3.504 -0.4670  0.2826  0.8146
 1016MOL0    Cl34024   4.516   7.916   3.524 -0.0275 -0.0188  0.2675
 1016MOL0     C34025   4.656   8.695   3.169 -0.6650  0.1090 -1.1714
 1016MOL0     C34026   4.628   8.826   3.179 -0.0536 -0.5695  0.1337
 1016MOL0     O34027   4.551   9.083   3.055  0.3737  0.2834 -0.0866
 1016MOL0     C34028   4.509   9.349   3.112  0.7368 -0.3293  0.6432
 1016MOL0     C34029   4.494   9.488   3.136 -0.2879  0.4908 -0.2175
 1016MOL0     N34030   3.803   9.765   3.465 -0.3365 -0.4622  0.0606
 1016MOL0     N34031   3.725   9.831   3.547  0.0049  0.1071  0.6856
 1016MOL0     C34032   4.675   9.991   3.729 -0.1668 -0.1136  0.4344
 1016MOL0     C34033   4.716   9.976   3.588 -0.0165 -0.1632  1.0402
 1016MOL0     C34034   4.684  10.075   3.143 -0.1416 -0.3119  0.6501
 1016MOL0     C34035   4.765   9.974   3.109 -0.2988 -0.4819  0.2498
 1016MOL0     C34036   4.821   9.955   2.980  0.3545 -0.6030 -0.2740
 1016MOL0     C34037   4.804  10.053   2.888  0.0428  0.1648 -0.1045
 1016MOL0     O34038   4.853  10.057   2.762  0.7348 -0.4330 -0.2279
 1016MOL0     C34039   4.967   9.964   2.733  0.2129 -0.7115 -0.6111
 1016MOL0     C34040   5.000   9.968   2.589  0.0431 -1.2420 -0.3718
 1016MOL0     C34041   5.061  10.098   2.533  0.0361 -0.3259  0.1221
 1016MOL0     C34042   5.207  10.114   2.585  0.6445 -0.4455 -0.7581
 1016MOL0     C34043   5.258  10.241   2.545 -0.1124  0.0344 -0.6229
 1016MOL0     C34044   5.289  10.355   2.513  0.1899 -0.0000  0.2479
 1016MOL0     C34045   4.723  10.160   2.926 -0.1369 -0.9282 -0.8563
 1016MOL0     C34046   4.664  10.174   3.051  0.0807 -0.4095  0.6046
 1016MOL0     H34047   4.402   9.992   3.454  2.4273 -1.0150 -2.6084
 1016MOL0     H34048   4.341  10.016   3.688 -2.0761 -0.3117 -2.8453
 1016MOL0     H34049   4.538   9.890   4.026 -0.3215  2.5414  1.8732
 1016MOL0     H34050   4.396   9.854   3.912  0.0321 -0.9923  0.6532
 1016MOL0     H34051   4.388  10.094   4.081 -1.6633 -0.0523 -0.2805
 1016MOL0     H34052   4.383   9.949   4.177 -0.1716  0.1651 -0.1675
 1016MOL0     H34053   4.154   9.990   4.143 -2.0131 -3.2712  0.1687
 1016MOL0     H34054   4.199   9.848   4.062 -1.3491  0.0954  3.6366
 1016MOL0     H34055   4.128  10.125   3.958  2.0718 -0.2885 -0.1368
 1016MOL0     H34056   4.187  10.001   3.841 -0.5475  0.3311 -0.7751
 1016MOL0     H34057   3.948   9.982   4.027 -1.2157  2.7522 -2.2756
 1016MOL0     H34058   4.003   9.846   3.924  0.1689 -0.2032 -1.0255
 1016MOL0     H34059   3.959  10.004   3.734  3.2004  2.2977 -0.3401
 1016MOL0     H34060   3.911  10.144   3.829 -3.3549 -0.5157 -2.3551
 1016MOL0     H34061   3.722  10.020   3.928  0.9362  3.0650 -0.4727
 1016MOL0     H34062   3.726  10.062   3.757  0.8046 -0.7055 -0.8548
 1016MOL0     H34063   3.625   9.840   3.787 -0.0308  1.2685 -3.4688
 1016MOL0     H34064   3.769   9.783   3.870  0.4952 -0.4566 -0.5442
 1016MOL0     H34065   3.981   9.720   3.723 -1.4996 -2.1653  1.5694
 1016MOL0     H34066   3.971   9.603   3.354 -2.8165  1.4736  0.1124
 1016MOL0     H34067   4.046   9.552   3.496  2.1966  0.5593  0.6666
 1016MOL0     H34068   4.184   9.761   3.515  2.9918  4.7637 -1.6486
 1016MOL0     H34069   4.135   9.812   3.362 -1.8493 -1.3389  0.2359
 1016MOL0     H34070   4.317   9.574   3.419  0.2658 -0.7072  0.3943
 1016MOL0     H34071   4.238   9.587   3.251 -0.1847  2.5239 -2.5201
 1016MOL0     H34072   4.391   9.822   3.327 -0.3767 -1.3387  1.0299
 1016MOL0     H34073   4.355   9.747   3.164  0.1165 -2.7979 -1.2672
 1016MOL0     H34074   4.660   9.497   3.427  0.1341 -5.0801  3.2080
 1016MOL0     H34075   4.708   9.272   3.367  1.3853  1.4533 -0.1003
 1016MOL0     H34076   4.935   8.940   3.251 -1.7732  1.4234  0.7729
 1016MOL0     H34077   4.989   8.715   3.234  0.6062 -0.1478 -1.8579
 1016MOL0     H34078   4.738   8.541   2.960 -0.8166 -0.3080  0.4703
 1016MOL0     H34079   4.654   8.434   3.071  0.9843 -0.8888 -0.6908
 1016MOL0     H34080   4.919   8.378   2.939  0.2124 -1.2857 -0.5547
 1016MOL0     H34081   4.783   8.281   2.913  1.0206  2.4672 -1.5791
 1016MOL0     H34082   4.916   8.287   3.184 -4.3514  2.7013  0.9559
 1016MOL0     H34083   4.954   8.172   3.049 -0.2762 -0.4594 -0.0478
 1016MOL0     H34084   4.704   8.216   3.219  0.8399  0.6303  0.9109
 1016MOL0     H34085   4.698   8.119   3.069  0.2829  0.8249 -1.3199
 1016MOL0     H34086   4.862   8.058   3.322  0.5674 -3.6927  2.0075
 1016MOL0     H34087   4.870   7.962   3.173 -0.0908  0.1896  0.4784
 1016MOL0     H34088   4.645   7.905   3.168 -2.1049  0.9097 -0.1428
 1016MOL0     H34089   4.596   8.021   3.300  0.6269  0.0627  1.3285
 1016MOL0     H34090   4.632   7.761   3.346 -1.0278  1.0840  0.5123
 1016MOL0     H34091   4.797   7.780   3.353 -0.1468 -1.0000 -3.4467
 1016MOL0     H34092   4.730   7.989   3.524 -1.3626  0.8155  0.5589
 1016MOL0     H34093   4.715   7.821   3.579 -0.6406 -0.5642  0.0993
 1016MOL0     H34094   4.584   8.621   3.133  0.6105 -2.2669  0.9031
 1016MOL0     H34095   4.529   8.851   3.141 -0.6883  1.8966  3.0412
 1016MOL0     H34096   4.455   9.304   3.030  1.6586 -0.1104 -0.1001
 1016MOL0     H34097   4.443   9.544   3.058  0.9497 -2.3035 -3.2812
 1016MOL0     H34098   4.751   9.978   3.804  3.0264 -0.2970 -2.5787
 1016MOL0     H34099   4.820   9.955   3.565 -0.1307 -0.6823  0.9918
 1016MOL0     H34100   4.797   9.893   3.174  2.8253 -0.2484 -0.8297
 1016MOL0     H34101   4.881   9.866   2.962 -1.0991 -2.0340  1.5096
 1016MOL0     H34102   4.943   9.867   2.777 -6.9333  1.3337  1.3771
 1016MOL0     H34103   5.055  10.005   2.785  0.2205 -0.1414 -1.0636
 1016MOL0     H34104   5.065   9.886   2.557  1.7802 -0.5627  1.2337
 1016MOL0     H34105   4.902   9.964   2.542 -0.7115  3.6700  0.2314
 1016MOL0     H34106   4.993  10.180   2.559  1.2584 -0.1081  3.0972
 1016MOL0     H34107   5.067  10.089   2.425  2.4278  1.3857  0.0456
 1016MOL0     H34108   5.217  10.123   2.694 -2.9746  0.1826 -0.3573
 1016MOL0     H34109   5.267  10.033   2.542  1.8687  0.7841 -1.4692
 1016MOL0     H34110   5.312  10.458   2.493  1.0303  0.0379  1.2484
 1016MOL0     H34111   4.719  10.238   2.851  0.2295 -0.0246  0.0351
 1016MOL0     H34112   4.602  10.257   3.082  3.2190  3.1468 -1.6824
 1017MOL0     O34113   0.609   7.234   7.665 -0.2020 -0.0779 -0.8532
 1017MOL0     C34114   0.498   7.194   7.689 -0.7040  0.7400  0.6764
 1017MOL0     O34115   0.471   7.074   7.739  0.1650  0.5624 -0.1943
 1017MOL0     C34116   0.582   6.991   7.754 -0.2948 -0.5113  0.0947
 1017MOL0     C34117   0.651   6.940   7.640  0.7368 -0.4675  0.3387
 1017MOL0     C34118   0.756   6.848   7.646  0.5371 -0.1507 -0.1631
 1017MOL0     C34119   0.785   6.796   7.775 -0.6827  0.8136  0.2172
 1017MOL0     O34120   0.885   6.712   7.810  0.0509  0.2375  0.3234
 1017MOL0     C34121   0.930   6.612   7.712  0.3291 -0.4895 -0.2495
 1017MOL0     C34122   0.992   6.501   7.791  0.9764  0.1859 -0.0020
 1017MOL0     C34123   0.883   6.407   7.851 -1.0003  0.7071 -0.3216
 1017MOL0     C34124   0.921   6.316   7.965  0.2500  0.9985 -0.0322
 1017MOL0     C34125   1.008   6.206   7.917 -0.4258  0.2363  0.8134
 1017MOL0     C34126   1.058   6.120   8.036  0.8553  0.7876 -0.5635
 1017MOL0     C34127   1.178   6.038   7.989 -0.2412 -0.8109  0.7017
 1017MOL0     C34128   1.228   5.921   8.078 -0.8479  0.4555  0.0346
 1017MOL0     N34129   1.362   5.874   8.043 -0.0811  0.5627  0.2628
 1017MOL0     C34130   1.479   5.940   8.083 -0.4463  0.0446  0.0600
 1017MOL0     C34131   1.569   5.840   8.094  0.6624 -0.3631 -0.8305
 1017MOL0     C34132   1.717   5.851   8.136 -0.2950 -1.2052  0.4183
 1017MOL0     C34133   1.736   5.906   8.279  0.5310 -0.6266 -1.2269
 1017MOL0     C34134   1.675   5.822   8.386 -0.7080  0.5946 -0.0686
 1017MOL0     C34135   1.642   5.906   8.512 -0.0377 -0.8103  0.7951
 1017MOL0     O34136   1.549   5.831   8.580 -0.0146  0.4078 -1.2203
 1017MOL0     C34137   1.510   5.888   8.699 -0.8822 -0.5703  0.7134
 1017MOL0     C34138   1.439   6.008   8.683  1.7271  0.0423 -1.9658
 1017MOL0     C34139   1.394   6.081   8.794 -0.0412  0.7116 -0.0358
 1017MOL0     C34140   1.424   6.036   8.923 -0.2364 -0.2580  0.7718
 1017MOL0     C34141   1.372   6.119   9.040 -0.1521 -0.2848  0.2611
 1017MOL0     O34142   1.307   6.238   9.027  0.0323 -0.6618  0.8020
 1017MOL0     C34143   1.279   6.293   9.148  0.0910  0.8024 -0.0969
 1017MOL0     C34144   1.349   6.393   9.212 -0.5361 -0.3602  0.3300
 1017MOL0     C34145   1.293   6.451   9.326 -0.2301  0.6787 -0.3418
 1017MOL0     C34146   1.171   6.410   9.370  1.2727  0.4062 -0.1252
 1017MOL0     O34147   1.106   6.452   9.485  0.7812  0.7858 -0.1624
 1017MOL0     C34148   1.157   6.582   9.533  0.5044 -0.5939 -0.0636
 1017MOL0     C34149   1.073   6.640   9.651  0.0113 -0.3725 -0.1176
 1017MOL0     C34150   0.926   6.656   9.604  0.5015 -0.1452  0.0263
 1017MOL0     C34151   0.853   6.760   9.689  0.2873  0.3396 -0.6678
 1017MOL0     C34152   0.710   6.797   9.638  1.0100  0.6616  0.3475
 1017MOL0     C34153   0.651   6.915   9.706  0.1535  0.0456  0.5340
 1017MOL0     C34154   0.531   6.982   9.644  0.7669  0.1219 -0.0080
 1017MOL0     C34155   0.391   6.920   9.697  0.8347 -0.0569  0.3667
 1017MOL0    Cl34156   0.236   6.960   9.607  0.1191  0.4699 -0.2958
 1017MOL0     C34157   1.094   6.331   9.297  0.3778  0.4941  0.4143
 1017MOL0     C34158   1.149   6.261   9.183 -0.4181  0.7176  0.0796
 1017MOL0     O34159   1.410   6.074   9.146 -0.6392 -0.0696 -0.4992
 1017MOL0     C34160   1.505   5.924   8.942 -0.7960 -0.4923  0.2016
 1017MOL0     C34161   1.551   5.855   8.825 -0.2714  0.3913 -0.5160
 1017MOL0     N34162   1.513   5.716   8.089  0.8546 -0.6710  0.2622
 1017MOL0     N34163   1.383   5.738   8.058  0.1647 -0.4910 -0.2771
 1017MOL0     C34164   0.723   6.852   7.885 -0.4275  0.8413  0.0481
 1017MOL0     C34165   0.628   6.950   7.878 -0.3561  0.0458  0.0226
 1017MOL0     C34166   0.386   7.286   7.666  0.1246 -0.6365 -0.4522
 1017MOL0     C34167   0.264   7.260   7.734 -0.2825  0.3322  1.1856
 1017MOL0     C34168   0.146   7.327   7.711  0.1997 -0.0614  1.0008
 1017MOL0     C34169   0.146   7.429   7.613 -0.3939 -0.1155 -0.0040
 1017MOL0     O34170   0.047   7.521   7.592  0.2420 -0.5457 -0.2826
 1017MOL0     C34171  -0.063   7.449   7.522  0.0428  0.1803 -0.6460
 1017MOL0     C34172  -0.201   7.510   7.524  0.2814  0.0112 -0.0477
 1017MOL0     C34173  -0.199   7.655   7.491 -0.6059 -0.3911 -0.4976
 1017MOL0     C34174  -0.182   7.736   7.620 -0.3431 -0.9530 -0.5703
 1017MOL0     C34175  -0.303   7.766   7.695 -0.2171  1.1163  0.3970
 1017MOL0     C34176  -0.410   7.792   7.742 -0.2257 -0.1875 -0.9145
 1017MOL0     C34177   0.269   7.463   7.561 -0.8816 -0.2492  0.1630
 1017MOL0     C34178   0.393   7.399   7.587  0.0137  0.7952  0.0652
 1017MOL0     H34179   0.613   6.979   7.546  1.2756 -0.3299  0.1715
 1017MOL0     H34180   0.819   6.824   7.561 -2.3014 -1.1013 -2.1327
 1017MOL0     H34181   1.010   6.653   7.651  0.5868 -0.6174  0.0036
 1017MOL0     H34182   0.837   6.578   7.665 -1.3179  2.9466  0.2648
 1017MOL0     H34183   1.059   6.545   7.865 -0.1898  1.4215  0.3670
 1017MOL0     H34184   1.050   6.436   7.725 -3.8908 -2.9453 -1.7731
 1017MOL0     H34185   0.847   6.342   7.771 -0.9074  2.9366 -2.2680
 1017MOL0     H34186   0.799   6.474   7.874 -3.2223 -0.1327 -4.8736
 1017MOL0     H34187   0.970   6.365   8.050  1.3706 -1.5612  0.8802
 1017MOL0     H34188   0.831   6.277   8.013  0.5975 -0.7782 -0.7379
 1017MOL0     H34189   1.096   6.253   7.872 -0.1270  0.0915  1.2380
 1017MOL0     H34190   0.963   6.135   7.847  0.2842 -0.7939  1.3739
 1017MOL0     H34191   0.982   6.049   8.071  0.7745  1.5153  0.7993
 1017MOL0     H34192   1.076   6.187   8.120  2.9643 -2.1688  1.5545
 1017MOL0     H34193   1.158   5.999   7.889 -0.3124 -1.1571  0.8496
 1017MOL0     H34194   1.262   6.107   7.977 -0.3597 -0.9216 -0.9581
 1017MOL0     H34195   1.150   5.845   8.072  1.6432 -2.2183 -0.5348
 1017MOL0     H34196   1.236   5.951   8.183  1.4273 -1.9986  0.6706
 1017MOL0     H34197   1.498   6.047   8.089  1.1915  0.0708 -3.3264
 1017MOL0     H34198   1.764   5.927   8.073  0.9047  0.8831  3.5766
 1017MOL0     H34199   1.767   5.755   8.118 -0.6447 -1.0447 -1.6477
 1017MOL0     H34200   1.680   6.000   8.282  0.5445 -0.6428  1.9011
 1017MOL0     H34201   1.840   5.934   8.300 -0.5672  0.8707  3.0939
 1017MOL0     H34202   1.582   5.779   8.350 -0.5763  1.3375 -1.3365
 1017MOL0     H34203   1.750   5.750   8.422 -3.0100 -1.4344  0.9944
 1017MOL0     H34204   1.605   6.003   8.477  2.2172 -0.5731 -1.1935
 1017MOL0     H34205   1.731   5.926   8.571 -0.7836  0.5343  1.5219
 1017MOL0     H34206   1.412   6.043   8.584  0.4438  1.0976 -1.2723
 1017MOL0     H34207   1.353   6.180   8.778 -0.8634  0.3601 -0.1748
 1017MOL0     H34208   1.442   6.419   9.165 -0.6084  4.0820  2.1675
 1017MOL0     H34209   1.346   6.527   9.383 -0.1339  1.5800 -1.6087
 1017MOL0     H34210   1.153   6.655   9.451  1.5875  0.9636  1.1963
 1017MOL0     H34211   1.260   6.586   9.568 -0.5633  1.2928  3.3213
 1017MOL0     H34212   1.108   6.742   9.668 -1.5640 -0.0049  1.1086
 1017MOL0     H34213   1.081   6.587   9.746  0.1043 -1.4211 -0.6855
 1017MOL0     H34214   0.877   6.558   9.615  0.1288 -0.0074 -0.3415
 1017MOL0     H34215   0.900   6.686   9.502  0.7865  2.1707  0.5797
 1017MOL0     H34216   0.849   6.727   9.793  1.1396 -0.8922 -1.0103
 1017MOL0     H34217   0.907   6.855   9.690 -0.0622  0.5362  0.0884
 1017MOL0     H34218   0.641   6.715   9.661  1.0658  1.4850  4.2030
 1017MOL0     H34219   0.710   6.819   9.531  3.7688  2.3612  0.6001
 1017MOL0     H34220   0.732   6.989   9.706 -0.3471  0.7088  3.3611
 1017MOL0     H34221   0.633   6.892   9.811 -1.6678 -0.2888  0.1824
 1017MOL0     H34222   0.518   7.089   9.663 -3.9467  0.2210 -2.4450
 1017MOL0     H34223   0.553   6.971   9.538  1.4680 -1.7557  0.2955
 1017MOL0     H34224   0.379   6.941   9.804  1.0380 -0.9135  0.5669
 1017MOL0     H34225   0.391   6.814   9.669 -1.7741  0.8155 -3.7309
 1017MOL0     H34226   0.995   6.302   9.330  0.4822  0.7564  0.9741
 1017MOL0     H34227   1.089   6.196   9.120  1.6106 -0.0603 -1.1856
 1017MOL0     H34228   1.523   5.890   9.044  1.0210  1.3834  0.5732
 1017MOL0     H34229   1.609   5.764   8.835 -1.3035  0.0242  4.3820
 1017MOL0     H34230   0.749   6.805   7.979 -1.0112  2.0261  0.8308
 1017MOL0     H34231   0.580   6.978   7.972 -5.0303  1.3302 -2.4131
 1017MOL0     H34232   0.252   7.183   7.809 -0.3266 -0.2483  0.5896
 1017MOL0     H34233   0.058   7.301   7.768  3.0192 -4.3968  4.0365
 1017MOL0     H34234  -0.072   7.342   7.543 -0.7491  0.1307 -1.1773
 1017MOL0     H34235  -0.026   7.449   7.419  1.3419  0.2228 -0.1889
 1017MOL0     H34236  -0.270   7.475   7.447 -2.2897  2.0735  1.1682
 1017MOL0     H34237  -0.247   7.491   7.621  1.7091 -1.3538  0.4113
 1017MOL0     H34238  -0.289   7.681   7.434  0.8617 -0.9653 -3.2666
 1017MOL0     H34239  -0.113   7.671   7.425 -1.6713  1.9003 -1.4400
 1017MOL0     H34240  -0.114   7.688   7.692 -3.0737 -1.7164  1.6397
 1017MOL0     H34241  -0.152   7.835   7.585  0.9257 -0.8491  0.7402
 1017MOL0     H34242  -0.512   7.812   7.765 -0.6900  2.0504 -4.2501
 1017MOL0     H34243   0.293   7.550   7.500  2.1268 -0.1786  1.2925
 1017MOL0     H34244   0.492   7.417   7.547  0.8732 -2.0343  0.6445
 1018MOL0     O34245  10.363   1.532   3.473  0.0343  0.5453 -0.6720
 1018MOL0     C34246  10.309   1.614   3.399  0.6520  0.9792  0.1717
 1018MOL0     O34247  10.210   1.699   3.436 -0.4047 -0.4275 -0.7302
 1018MOL0     C34248  10.151   1.682   3.561  0.6606 -0.3372  0.0139
 1018MOL0     C34249  10.117   1.800   3.623 -0.1977 -0.3449 -0.8210
 1018MOL0     C34250  10.047   1.808   3.749  0.0831  0.2876 -0.1349
 1018MOL0     C34251  10.006   1.692   3.825 -1.1711 -0.1829 -0.2560
 1018MOL0     O34252   9.933   1.703   3.939  0.3490  0.4553  0.4592
 1018MOL0     C34253   9.815   1.615   3.938  0.1852 -0.2546  0.7194
 1018MOL0     C34254   9.735   1.610   4.075 -0.0522  0.5268  0.0886
 1018MOL0     C34255   9.666   1.743   4.113  0.7058 -0.0312  0.0746
 1018MOL0     C34256   9.525   1.745   4.055 -0.4255  1.0457 -0.9153
 1018MOL0     C34257   9.427   1.658   4.122  0.3254 -0.5688 -0.5471
 1018MOL0     C34258   9.285   1.670   4.058  0.7956 -0.0690 -1.1523
 1018MOL0     C34259   9.193   1.573   4.131 -0.2505 -0.3382  0.0675
 1018MOL0     C34260   9.185   1.592   4.280  0.0529 -0.2981 -1.0132
 1018MOL0     N34261   9.051   1.559   4.347  0.0673  0.4499 -0.5254
 1018MOL0     C34262   8.969   1.447   4.334 -0.2745  0.5188 -0.2984
 1018MOL0     C34263   8.872   1.478   4.416  0.6994  0.5659 -0.7440
 1018MOL0     C34264   8.751   1.391   4.409 -1.3932  0.3192 -0.0683
 1018MOL0     C34265   8.637   1.463   4.484  0.0540 -1.2618  1.1703
 1018MOL0     C34266   8.652   1.440   4.630  0.2449 -0.4614 -0.0671
 1018MOL0     C34267   8.553   1.523   4.710  0.1602 -0.4273  0.9161
 1018MOL0     O34268   8.428   1.532   4.646  0.3043 -0.9412  0.4868
 1018MOL0     C34269   8.344   1.636   4.671 -0.5262 -0.6424  0.0053
 1018MOL0     C34270   8.211   1.613   4.633  0.4020  0.6011  0.2228
 1018MOL0     C34271   8.111   1.712   4.649 -0.8528 -0.3085 -0.1948
 1018MOL0     C34272   8.151   1.847   4.688 -1.8240  0.4415 -0.8423
 1018MOL0     C34273   8.060   1.945   4.707 -0.3051 -0.7394 -0.1820
 1018MOL0     O34274   7.938   1.923   4.642  0.8915  0.5892 -0.6071
 1018MOL0     C34275   7.833   2.011   4.632 -0.2345 -0.0563 -0.8923
 1018MOL0     C34276   7.769   2.028   4.510  0.0190 -0.7404  0.6278
 1018MOL0     C34277   7.654   2.102   4.496  0.8171 -0.2591  1.2466
 1018MOL0     C34278   7.598   2.177   4.597  0.4371  0.0987  0.8541
 1018MOL0     O34279   7.482   2.255   4.577  0.6395 -0.1654 -0.2794
 1018MOL0     C34280   7.498   2.371   4.493 -0.8185  0.1614  0.1119
 1018MOL0     C34281   7.354   2.411   4.460 -0.0116  0.6719  0.1530
 1018MOL0     C34282   7.309   2.362   4.321 -1.1363  0.3904 -0.3708
 1018MOL0     C34283   7.357   2.216   4.281  0.0815  0.2108  0.3132
 1018MOL0     C34284   7.251   2.176   4.176  0.3439 -0.2301 -0.6958
 1018MOL0     C34285   7.244   2.266   4.047 -0.3225 -0.4726  0.0547
 1018MOL0     C34286   7.369   2.240   3.972  0.6827 -0.3283 -0.1070
 1018MOL0     C34287   7.363   2.327   3.837 -0.0436  0.3028  0.1027
 1018MOL0    Cl34288   7.214   2.306   3.726 -0.6413 -0.5271  0.1660
 1018MOL0     C34289   7.664   2.170   4.710 -0.7372 -0.5191 -0.1208
 1018MOL0     C34290   7.784   2.090   4.729  1.2916 -0.0530 -0.2518
 1018MOL0     O34291   8.096   2.041   4.780 -0.0886 -1.0407 -0.1945
 1018MOL0     C34292   8.292   1.862   4.730  0.1069  0.0270  0.3105
 1018MOL0     C34293   8.387   1.764   4.717  0.0447  0.8732 -1.1043
 1018MOL0     N34294   8.884   1.591   4.479 -0.1258 -0.7480  0.8045
 1018MOL0     N34295   9.003   1.637   4.447 -0.0180  0.0294 -0.0586
 1018MOL0     C34296  10.045   1.575   3.760 -0.6749  0.2344  0.1545
 1018MOL0     C34297  10.106   1.564   3.632 -0.0379  0.4567 -0.1603
 1018MOL0     C34298  10.378   1.648   3.267 -0.5060  0.2295  0.2630
 1018MOL0     C34299  10.488   1.560   3.226 -0.3015  0.3072  0.3859
 1018MOL0     C34300  10.540   1.577   3.099 -0.0630 -0.5653 -0.5432
 1018MOL0     C34301  10.493   1.679   3.013  0.1316 -1.2454 -0.4979
 1018MOL0     O34302  10.568   1.700   2.903  0.0570  0.5157 -0.4552
 1018MOL0     C34303  10.586   1.831   2.848  1.1617 -0.7371  1.0275
 1018MOL0     C34304  10.709   1.831   2.763  0.5211 -0.4888 -0.4934
 1018MOL0     C34305  10.688   1.760   2.637 -0.0436  0.3249 -0.1026
 1018MOL0     C34306  10.797   1.776   2.527  0.6304  0.7496 -1.2461
 1018MOL0     C34307  10.935   1.734   2.562  1.4293 -0.2431 -0.1324
 1018MOL0     C34308  11.042   1.693   2.597  0.4199  0.3549  0.4332
 1018MOL0     C34309  10.396   1.770   3.055  0.2708 -0.2208 -1.2003
 1018MOL0     C34310  10.329   1.735   3.177 -0.1812 -0.0880 -0.5575
 1018MOL0     H34311  10.149   1.895   3.582 -0.5961 -0.1364 -0.6521
 1018MOL0     H34312  10.030   1.909   3.786  3.7880  1.0651 -0.1694
 1018MOL0     H34313   9.847   1.511   3.928  1.0762 -0.1985  2.5653
 1018MOL0     H34314   9.738   1.643   3.865  2.4822 -0.2540 -1.8948
 1018MOL0     H34315   9.799   1.582   4.160  0.1103  0.6841  0.0173
 1018MOL0     H34316   9.652   1.540   4.065 -0.4545  1.0284 -0.1074
 1018MOL0     H34317   9.711   1.833   4.070 -2.0719  0.5976 -1.7295
 1018MOL0     H34318   9.654   1.761   4.221 -2.0112 -0.8752 -0.0204
 1018MOL0     H34319   9.483   1.844   4.072 -0.1457  0.7331  2.0796
 1018MOL0     H34320   9.537   1.738   3.946  4.4576  1.6291 -0.5914
 1018MOL0     H34321   9.414   1.690   4.226 -0.9444  0.1160 -0.8848
 1018MOL0     H34322   9.460   1.554   4.124 -0.6522 -0.8973  1.2664
 1018MOL0     H34323   9.304   1.627   3.959  0.7616 -1.6515 -0.4965
 1018MOL0     H34324   9.238   1.769   4.048  0.4927 -0.2386 -1.4344
 1018MOL0     H34325   9.091   1.580   4.091  0.2807  0.7942 -1.1395
 1018MOL0     H34326   9.231   1.478   4.092 -0.6461  0.2106 -1.7284
 1018MOL0     H34327   9.205   1.698   4.292 -3.2847  0.6631 -2.7199
 1018MOL0     H34328   9.259   1.523   4.321  0.8713  1.4245  0.5260
 1018MOL0     H34329   8.983   1.360   4.271  1.3510 -0.1358  0.9056
 1018MOL0     H34330   8.768   1.289   4.443 -0.5679 -0.2344 -1.9892
 1018MOL0     H34331   8.729   1.394   4.302  0.2964 -3.5862 -0.7047
 1018MOL0     H34332   8.543   1.419   4.449  0.1888  0.1405 -1.1668
 1018MOL0     H34333   8.628   1.570   4.461  3.8991 -0.9837  0.2992
 1018MOL0     H34334   8.642   1.335   4.659  0.6612  0.1180  2.4023
 1018MOL0     H34335   8.758   1.455   4.653 -0.3357  2.2347  1.3828
 1018MOL0     H34336   8.597   1.622   4.728  0.6881 -0.2885 -0.9771
 1018MOL0     H34337   8.543   1.473   4.807 -1.4824 -0.2472  0.8746
 1018MOL0     H34338   8.173   1.521   4.589 -4.6090  3.8878 -3.3183
 1018MOL0     H34339   8.006   1.696   4.630 -0.5026 -0.4370 -2.1714
 1018MOL0     H34340   7.813   1.984   4.421 -0.0109 -0.1538  0.3122
 1018MOL0     H34341   7.604   2.094   4.400  2.2323 -3.4020  0.6505
 1018MOL0     H34342   7.550   2.338   4.403 -2.8306 -0.6409 -0.8202
 1018MOL0     H34343   7.563   2.444   4.543 -0.8178  0.1514  0.1255
 1018MOL0     H34344   7.336   2.519   4.462 -2.5049  0.3104  2.4099
 1018MOL0     H34345   7.282   2.371   4.532  0.9441 -2.8411 -0.6766
 1018MOL0     H34346   7.344   2.442   4.256  1.0165 -1.5770 -1.8003
 1018MOL0     H34347   7.200   2.366   4.335 -1.0886 -1.5841  0.9915
 1018MOL0     H34348   7.461   2.208   4.247 -0.4829 -0.8413 -1.2598
 1018MOL0     H34349   7.348   2.155   4.371 -0.3738  0.8730  0.7318
 1018MOL0     H34350   7.153   2.162   4.221  0.4723 -1.3833 -0.7355
 1018MOL0     H34351   7.273   2.072   4.151  0.0930 -0.5883  0.5461
 1018MOL0     H34352   7.240   2.373   4.070  4.3759 -0.2738  0.9002
 1018MOL0     H34353   7.161   2.221   3.991  0.5599 -1.6978 -0.2953
 1018MOL0     H34354   7.458   2.279   4.023  0.9692  0.0673 -0.8946
 1018MOL0     H34355   7.391   2.138   3.940  1.7765 -0.3064  0.5055
 1018MOL0     H34356   7.461   2.328   3.790  0.6417  1.6364  1.4930
 1018MOL0     H34357   7.367   2.431   3.868  2.3393  0.2118  0.2929
 1018MOL0     H34358   7.630   2.240   4.786  1.9191  0.5233  0.2392
 1018MOL0     H34359   7.821   2.072   4.830  0.8339 -4.1522 -0.6466
 1018MOL0     H34360   8.331   1.950   4.781  1.6429 -1.0220  1.0216
 1018MOL0     H34361   8.480   1.796   4.762 -0.9609 -0.4174  2.1912
 1018MOL0     H34362  10.015   1.476   3.793 -2.9826  1.3879  1.8092
 1018MOL0     H34363  10.114   1.470   3.579 -0.3469  2.3185 -3.7959
 1018MOL0     H34364  10.542   1.495   3.294 -2.5398 -3.1108 -0.8168
 1018MOL0     H34365  10.618   1.516   3.054  0.0204  0.8401 -2.4276
 1018MOL0     H34366  10.603   1.897   2.934  2.8660 -1.8380  1.5797
 1018MOL0     H34367  10.499   1.871   2.795  0.8179 -0.1433  2.0066
 1018MOL0     H34368  10.748   1.933   2.757 -0.4629 -0.0587  0.1465
 1018MOL0     H34369  10.791   1.779   2.814  2.1058  1.3421 -1.0811
 1018MOL0     H34370  10.593   1.796   2.598 -1.1598  2.1116  3.7228
 1018MOL0     H34371  10.674   1.653   2.658 -1.3518 -0.2702 -3.4059
 1018MOL0     H34372  10.767   1.707   2.448  0.6712  0.1631 -0.7609
 1018MOL0     H34373  10.801   1.880   2.496 -0.1180  1.3373  0.4816
 1018MOL0     H34374  11.133   1.639   2.611  0.0511  0.1245  2.1627
 1018MOL0     H34375  10.354   1.847   2.991 -1.9677 -0.8700 -0.5916
 1018MOL0     H34376  10.244   1.794   3.208  1.3213  0.6864  2.3918
 1019MOL0     O34377   7.757   9.314  11.070  0.1600  0.2457 -0.3381
 1019MOL0     C34378   7.704   9.407  11.007  0.0677  0.5065 -0.5271
 1019MOL0     O34379   7.576   9.451  11.025 -0.2510 -0.5643  0.4828
 1019MOL0     C34380   7.491   9.400  11.120  0.4704 -0.8335  0.2369
 1019MOL0     C34381   7.530   9.376  11.254  0.3457  1.0538  0.1635
 1019MOL0     C34382   7.442   9.335  11.351 -0.0521  0.1661  0.0076
 1019MOL0     C34383   7.310   9.309  11.312 -0.1722  0.3151  0.8007
 1019MOL0     O34384   7.238   9.277  11.415  1.0933 -0.4475 -0.3684
 1019MOL0     C34385   7.105   9.230  11.395 -0.1358 -0.3710  0.6253
 1019MOL0     C34386   7.056   9.160  11.517  0.6879 -0.1669  1.0777
 1019MOL0     C34387   6.907   9.103  11.519  0.0748 -1.0192 -0.0350
 1019MOL0     C34388   6.865   9.047  11.656 -0.4454 -1.1664  0.4343
 1019MOL0     C34389   6.755   8.950  11.657  0.2106 -0.1986 -0.4494
 1019MOL0     C34390   6.621   9.005  11.634 -0.2863  0.4514 -0.2635
 1019MOL0     C34391   6.510   8.907  11.667 -0.5839 -0.0389  0.0931
 1019MOL0     C34392   6.500   8.801  11.565  0.0354  0.5335  0.1612
 1019MOL0     N34393   6.361   8.745  11.575  0.5863  0.3152  1.1633
 1019MOL0     C34394   6.326   8.631  11.656  0.2783  0.2427  0.4302
 1019MOL0     C34395   6.188   8.635  11.658  0.1531  0.3575 -0.1799
 1019MOL0     C34396   6.107   8.520  11.717 -0.0963  0.5504  0.0347
 1019MOL0     C34397   5.955   8.540  11.730  0.0880  0.8251 -0.5099
 1019MOL0     C34398   5.890   8.526  11.589 -1.7283  0.0061 -0.2349
 1019MOL0     C34399   5.747   8.570  11.594 -0.7258  0.7579 -0.0731
 1019MOL0     O34400   5.675   8.467  11.671  0.2167  0.2104  0.2020
 1019MOL0     C34401   5.539   8.480  11.705  0.2132  0.0016  0.7117
 1019MOL0     C34402   5.469   8.596  11.687  0.4337 -0.3487 -0.3340
 1019MOL0     C34403   5.343   8.608  11.745 -0.6005  0.1261 -0.4905
 1019MOL0     C34404   5.274   8.492  11.801 -0.4052 -0.8397  0.3506
 1019MOL0     C34405   5.139   8.506  11.850 -0.0375  0.5833 -0.2516
 1019MOL0     O34406   5.076   8.617  11.817  0.3821  0.2222  0.7803
 1019MOL0     C34407   4.951   8.635  11.868 -0.3470 -0.8674  0.2888
 1019MOL0     C34408   4.920   8.631  12.002  0.5723  0.3512  0.9151
 1019MOL0     C34409   4.788   8.650  12.051 -1.1703  0.1992 -0.3355
 1019MOL0     C34410   4.683   8.675  11.965 -0.7265  0.8225  0.7017
 1019MOL0     O34411   4.556   8.705  12.005  0.1718  0.1641  0.0948
 1019MOL0     C34412   4.530   8.742  12.136  0.6319  0.0056 -0.2944
 1019MOL0     C34413   4.406   8.827  12.152  0.4193 -0.1519 -0.4292
 1019MOL0     C34414   4.279   8.767  12.104 -0.5600  0.2205  0.7800
 1019MOL0     C34415   4.155   8.839  12.149  0.5154  0.3371  0.1539
 1019MOL0     C34416   4.030   8.812  12.058 -0.8237 -0.5657  0.1369
 1019MOL0     C34417   3.895   8.826  12.132  0.1292  0.7309 -0.2625
 1019MOL0     C34418   3.879   8.975  12.168 -0.2250  0.2092 -0.1234
 1019MOL0     C34419   3.734   9.019  12.170 -0.1153 -0.6373 -0.3164
 1019MOL0    Cl34420   3.720   9.188  12.236  0.0639  0.1837  0.2435
 1019MOL0     C34421   4.711   8.663  11.824 -0.2063 -0.0771  0.2483
 1019MOL0     C34422   4.846   8.650  11.779  0.2511  0.0170  0.3171
 1019MOL0     O34423   5.089   8.417  11.922 -0.9500  0.1482 -0.3378
 1019MOL0     C34424   5.339   8.367  11.806  0.4617  0.6528  0.8292
 1019MOL0     C34425   5.473   8.368  11.764  0.1581 -0.2193  0.0532
 1019MOL0     N34426   6.145   8.733  11.564  0.1068  1.3444 -0.0249
 1019MOL0     N34427   6.253   8.803  11.526  0.8277  0.5404 -0.1961
 1019MOL0     C34428   7.265   9.338  11.177 -0.2382 -0.2355 -0.8474
 1019MOL0     C34429   7.359   9.390  11.087 -0.8431  0.3248  0.1614
 1019MOL0     C34430   7.780   9.448  10.888 -0.0588 -0.2084 -0.9189
 1019MOL0     C34431   7.713   9.511  10.782 -0.5662 -0.3952  1.2305
 1019MOL0     C34432   7.787   9.536  10.668 -0.4986  0.6895  0.0744
 1019MOL0     C34433   7.918   9.498  10.650 -0.4594 -0.7310 -0.1496
 1019MOL0     O34434   7.972   9.520  10.528 -0.1046  0.5906  0.4584
 1019MOL0     C34435   8.095   9.468  10.487 -0.1596  0.2062  0.1926
 1019MOL0     C34436   8.095   9.315  10.478 -0.6260  0.0656 -0.6386
 1019MOL0     C34437   8.219   9.233  10.428 -0.4324 -0.1015  0.3336
 1019MOL0     C34438   8.206   9.085  10.449 -0.6165 -0.7452  1.0599
 1019MOL0     C34439   8.315   9.023  10.368  0.6942  0.1380 -0.2187
 1019MOL0     C34440   8.400   8.963  10.317 -0.5853  0.0524 -0.1876
 1019MOL0     C34441   7.984   9.446  10.764 -0.2893 -0.6213  0.5378
 1019MOL0     C34442   7.922   9.418  10.885  0.2939  0.0731 -0.4150
 1019MOL0     H34443   7.629   9.419  11.264 -0.4031  2.8048  0.5754
 1019MOL0     H34444   7.486   9.328  11.450  0.4126  2.3959  0.0246
 1019MOL0     H34445   7.107   9.167  11.306  0.7567  3.2144 -2.1729
 1019MOL0     H34446   7.042   9.315  11.367 -0.1768 -0.5477  0.1733
 1019MOL0     H34447   7.073   9.232  11.598 -1.1276  0.3101  1.0686
 1019MOL0     H34448   7.125   9.078  11.541  1.9847  1.2282  2.3908
 1019MOL0     H34449   6.905   9.036  11.433 -0.8606  1.9146 -2.4710
 1019MOL0     H34450   6.838   9.187  11.512 -1.5343 -2.2723  0.1658
 1019MOL0     H34451   6.953   8.993  11.694  1.2850  0.1696 -1.4541
 1019MOL0     H34452   6.853   9.134  11.721  4.3026 -2.2643  3.3310
 1019MOL0     H34453   6.743   8.910  11.758 -3.6320  0.8722 -0.3204
 1019MOL0     H34454   6.764   8.875  11.578 -4.0305  1.1780 -2.5743
 1019MOL0     H34455   6.617   9.031  11.528 -1.1912 -0.3506 -0.4309
 1019MOL0     H34456   6.617   9.093  11.699 -0.9106  0.0519  0.2459
 1019MOL0     H34457   6.515   8.862  11.767  3.3163 -1.0558 -0.3896
 1019MOL0     H34458   6.416   8.963  11.659 -0.9804 -0.9020 -1.8365
 1019MOL0     H34459   6.585   8.732  11.569 -0.0481  0.1691 -2.4669
 1019MOL0     H34460   6.516   8.851  11.469  3.8546 -0.7090 -0.0180
 1019MOL0     H34461   6.393   8.560  11.704 -1.9589 -0.9612  1.9712
 1019MOL0     H34462   6.158   8.512  11.813 -0.4745  2.5841  0.4491
 1019MOL0     H34463   6.123   8.431  11.655  0.0068  1.8379 -1.8565
 1019MOL0     H34464   5.929   8.635  11.777 -3.6372  1.0251 -2.6148
 1019MOL0     H34465   5.919   8.470  11.805 -0.0431  1.0649 -0.3467
 1019MOL0     H34466   5.954   8.585  11.523  1.1410  0.3592  2.5999
 1019MOL0     H34467   5.905   8.419  11.568 -0.2798  0.1448 -0.0110
 1019MOL0     H34468   5.698   8.580  11.496 -1.2401 -0.6591  0.0285
 1019MOL0     H34469   5.739   8.665  11.648  2.0897  1.1010 -0.1005
 1019MOL0     H34470   5.508   8.687  11.642 -2.0894 -0.3869 -2.9256
 1019MOL0     H34471   5.304   8.706  11.768  2.8013  1.0758  2.0972
 1019MOL0     H34472   5.004   8.616  12.069  1.2935 -0.8618 -0.2235
 1019MOL0     H34473   4.784   8.660  12.159  2.4129  2.8634 -0.2742
 1019MOL0     H34474   4.617   8.797  12.175 -1.0220  1.5027  1.4857
 1019MOL0     H34475   4.514   8.646  12.187 -1.0256 -0.2317 -1.1964
 1019MOL0     H34476   4.417   8.926  12.105 -1.4832 -0.4592 -1.6634
 1019MOL0     H34477   4.391   8.849  12.258 -0.5253 -0.7390 -0.4267
 1019MOL0     H34478   4.271   8.661  12.128 -0.7895  0.6876  3.0678
 1019MOL0     H34479   4.283   8.769  11.995 -0.0038 -2.4219  0.6929
 1019MOL0     H34480   4.141   8.798  12.250  0.5831 -3.0737 -1.0605
 1019MOL0     H34481   4.172   8.947  12.150  0.1295  0.4047 -0.0947
 1019MOL0     H34482   4.035   8.706  12.033  0.5889 -0.1787 -1.4168
 1019MOL0     H34483   4.030   8.871  11.966  0.2168 -1.8040 -0.6896
 1019MOL0     H34484   3.897   8.766  12.224 -0.5881 -1.4144 -1.5753
 1019MOL0     H34485   3.817   8.794  12.063  1.4635 -0.5707 -1.2367
 1019MOL0     H34486   3.904   8.987  12.274 -1.1498  0.6252  0.0542
 1019MOL0     H34487   3.941   9.046  12.113 -5.2392  2.1492 -4.0425
 1019MOL0     H34488   3.669   8.962  12.238 -0.0507 -0.7338 -0.3354
 1019MOL0     H34489   3.683   9.025  12.074 -2.2517 -0.8360  0.7371
 1019MOL0     H34490   4.638   8.697  11.750  0.0921 -0.6820 -0.3281
 1019MOL0     H34491   4.863   8.652  11.672  2.3430 -0.6482  0.6026
 1019MOL0     H34492   5.288   8.277  11.838 -1.5632  1.8367  1.1888
 1019MOL0     H34493   5.526   8.275  11.784  1.6186  1.0919  3.0197
 1019MOL0     H34494   7.162   9.338  11.143 -0.8619  0.0010  0.9257
 1019MOL0     H34495   7.328   9.406  10.984 -2.0932  0.6109  0.5670
 1019MOL0     H34496   7.606   9.528  10.785 -0.6744  0.3313 -2.5020
 1019MOL0     H34497   7.747   9.592  10.584  0.4158  0.3191 -0.6186
 1019MOL0     H34498   8.163   9.509  10.562  3.1943  0.1663 -2.5953
 1019MOL0     H34499   8.115   9.517  10.392 -3.1530  2.9681  0.7946
 1019MOL0     H34500   8.068   9.265  10.572 -0.1788  0.6142 -0.2143
 1019MOL0     H34501   8.018   9.292  10.403 -1.4178  0.9710 -0.1189
 1019MOL0     H34502   8.315   9.270  10.463 -1.6367  5.6835 -1.3646
 1019MOL0     H34503   8.212   9.246  10.320 -2.7328  0.2533  0.4581
 1019MOL0     H34504   8.200   9.053  10.553 -0.4863  0.8015  1.5647
 1019MOL0     H34505   8.118   9.048  10.396  0.1885 -1.5315  0.2224
 1019MOL0     H34506   8.466   8.886  10.281 -0.7436 -0.4930  0.6549
 1019MOL0     H34507   8.091   9.433  10.769 -0.1135  0.5991  0.2782
 1019MOL0     H34508   7.977   9.379  10.969 -3.2554  0.6704  2.4688
 1020MOL0     O34509  10.023   2.754   9.254  0.1593 -1.3712  0.7527
 1020MOL0     C34510  10.056   2.660   9.314  0.1440  0.0885 -0.5321
 1020MOL0     O34511  10.155   2.665   9.405  0.4010  0.0196 -0.4708
 1020MOL0     C34512  10.211   2.784   9.431 -0.1036 -0.7146 -0.1755
 1020MOL0     C34513  10.200   2.847   9.556  0.7453  0.0358 -0.8991
 1020MOL0     C34514  10.261   2.968   9.578  0.0105 -0.8360 -0.3754
 1020MOL0     C34515  10.341   3.031   9.483 -0.6725 -0.0840 -0.3600
 1020MOL0     O34516  10.414   3.145   9.508 -0.2891 -0.3309  0.0909
 1020MOL0     C34517  10.376   3.252   9.418 -0.2115  0.1463  0.0541
 1020MOL0     C34518  10.458   3.277   9.287 -0.4725  0.2017  0.7308
 1020MOL0     C34519  10.611   3.240   9.292  0.1779 -0.9917  0.1106
 1020MOL0     C34520  10.672   3.322   9.191  0.6086 -0.5612 -0.4141
 1020MOL0     C34521  10.817   3.275   9.173  0.4651 -0.4776  0.2490
 1020MOL0     C34522  10.849   3.143   9.102  0.9604  0.3271 -1.2664
 1020MOL0     C34523  10.994   3.131   9.081  0.1652  0.4446  0.2710
 1020MOL0     C34524  11.050   3.011   9.008 -0.4428 -0.8341 -0.5537
 1020MOL0     N34525  11.009   2.888   9.078 -0.2733 -0.0469 -0.0250
 1020MOL0     C34526  10.894   2.813   9.053 -1.0802 -0.1589 -0.3832
 1020MOL0     C34527  10.910   2.708   9.139 -0.2576  0.2426 -0.1161
 1020MOL0     C34528  10.797   2.607   9.149  0.6645  0.1227 -0.4312
 1020MOL0     C34529  10.839   2.467   9.180 -0.0725  0.2351 -0.8539
 1020MOL0     C34530  10.725   2.376   9.138  0.6434 -0.5246 -1.0183
 1020MOL0     C34531  10.790   2.247   9.110  0.2287  0.4965 -0.8857
 1020MOL0     O34532  10.690   2.163   9.050  0.1251  0.8576  0.5435
 1020MOL0     C34533  10.632   2.056   9.131 -1.1378  0.2365 -0.0321
 1020MOL0     C34534  10.659   2.025   9.269  0.6576  0.0506  1.3641
 1020MOL0     C34535  10.603   1.904   9.327 -0.3598 -0.0271  1.1683
 1020MOL0     C34536  10.503   1.828   9.260 -0.1506 -0.1109  0.3250
 1020MOL0     C34537  10.450   1.722   9.320  0.5083  0.1515  0.7645
 1020MOL0     O34538  10.360   1.653   9.242 -0.8714  0.0931  1.0556
 1020MOL0     C34539  10.254   1.574   9.286 -0.5652  0.7374 -0.2482
 1020MOL0     C34540  10.206   1.565   9.419  0.2860 -0.0432  0.0050
 1020MOL0     C34541  10.103   1.470   9.458  0.8913  0.2943  0.0094
 1020MOL0     C34542  10.057   1.378   9.362 -1.7245 -0.7095 -0.5609
 1020MOL0     O34543   9.952   1.301   9.392 -0.3675  0.1038 -0.0239
 1020MOL0     C34544   9.929   1.261   9.523 -0.3052  0.4548  0.1522
 1020MOL0     C34545   9.800   1.182   9.524  0.2061  0.0127  0.2748
 1020MOL0     C34546   9.812   1.053   9.428 -0.5363 -0.0648 -0.0818
 1020MOL0     C34547   9.673   0.996   9.426  0.7190 -0.4975 -0.2877
 1020MOL0     C34548   9.675   0.857   9.357  0.0047 -2.1022 -0.4226
 1020MOL0     C34549   9.557   0.760   9.390 -0.1507 -0.4854 -0.0538
 1020MOL0     C34550   9.529   0.647   9.289  0.7094  0.0692  0.4280
 1020MOL0     C34551   9.468   0.686   9.151  0.8909  0.3131 -1.4199
 1020MOL0    Cl34552   9.327   0.797   9.164 -0.1696 -0.1791 -0.6314
 1020MOL0     C34553  10.096   1.401   9.229 -1.5228  0.7162  0.7529
 1020MOL0     C34554  10.197   1.497   9.181  0.1231  0.6910  0.4742
 1020MOL0     O34555  10.472   1.692   9.433  0.5410  0.2603 -0.5375
 1020MOL0     C34556  10.471   1.869   9.135 -0.5849 -0.1183  0.3411
 1020MOL0     C34557  10.542   1.968   9.073 -0.4054 -0.1529 -0.1517
 1020MOL0     N34558  11.018   2.732   9.228  0.8788  0.2070  0.0768
 1020MOL0     N34559  11.071   2.839   9.184  0.4559  0.7047 -0.2589
 1020MOL0     C34560  10.357   2.959   9.358 -0.6835  0.4294  0.2167
 1020MOL0     C34561  10.296   2.841   9.334  0.7317  0.8835 -0.1484
 1020MOL0     C34562   9.957   2.546   9.318 -0.2041 -0.2753 -0.4102
 1020MOL0     C34563   9.846   2.555   9.235 -0.3200  0.7759 -0.2680
 1020MOL0     C34564   9.751   2.453   9.239  0.4315 -0.1787  0.0340
 1020MOL0     C34565   9.758   2.346   9.334 -0.0617 -0.1230 -0.3578
 1020MOL0     O34566   9.661   2.259   9.344  0.5770 -0.0667 -0.3613
 1020MOL0     C34567   9.663   2.146   9.437 -0.5919 -0.6353 -0.0748
 1020MOL0     C34568   9.574   2.036   9.395 -0.2662  0.9225 -0.4582
 1020MOL0     C34569   9.430   2.075   9.380  0.7280 -0.4749  0.1980
 1020MOL0     C34570   9.339   1.955   9.400 -0.7245  0.4786  0.4204
 1020MOL0     C34571   9.205   1.992   9.358 -0.1611 -0.7057 -0.6660
 1020MOL0     C34572   9.092   2.004   9.310  0.2360  0.3796  0.2596
 1020MOL0     C34573   9.864   2.352   9.427 -1.1720  0.6459  0.0612
 1020MOL0     C34574   9.966   2.439   9.414  0.1594 -1.0481  0.1927
 1020MOL0     H34575  10.137   2.808   9.636  0.9241  0.8446 -0.3516
 1020MOL0     H34576  10.256   3.006   9.679 -0.7923 -0.7627 -0.4390
 1020MOL0     H34577  10.380   3.347   9.473 -0.3673 -0.0107  0.3363
 1020MOL0     H34578  10.275   3.232   9.384 -0.3966 -0.6902  1.0406
 1020MOL0     H34579  10.451   3.381   9.255  0.7253 -0.3504 -1.4914
 1020MOL0     H34580  10.404   3.212   9.218  0.3116  2.0339 -1.7227
 1020MOL0     H34581  10.618   3.132   9.278  2.0268 -1.7133  4.7312
 1020MOL0     H34582  10.657   3.275   9.385 -2.8174 -2.4289  2.2895
 1020MOL0     H34583  10.621   3.315   9.094  0.2577  0.7096 -0.3377
 1020MOL0     H34584  10.668   3.422   9.234 -2.8397 -0.1552 -1.3785
 1020MOL0     H34585  10.860   3.267   9.273 -0.3086  1.4110  0.7788
 1020MOL0     H34586  10.858   3.353   9.108 -1.4645  0.2564 -0.1681
 1020MOL0     H34587  10.797   3.147   9.005 -1.3299  2.8352 -0.0980
 1020MOL0     H34588  10.812   3.059   9.162  1.2256  0.9038 -0.2678
 1020MOL0     H34589  11.032   3.214   9.020  0.1996  2.2792  2.6454
 1020MOL0     H34590  11.046   3.132   9.177 -0.1381  0.3839  0.4388
 1020MOL0     H34591  11.159   3.019   9.012 -0.3841 -1.8374  0.4274
 1020MOL0     H34592  11.018   3.014   8.904 -3.4049  1.4841  0.2853
 1020MOL0     H34593  10.809   2.842   8.991  0.5938  1.9814 -1.8513
 1020MOL0     H34594  10.744   2.614   9.053  1.0383  0.6809 -0.5988
 1020MOL0     H34595  10.724   2.645   9.221  1.6519  3.2171 -0.9266
 1020MOL0     H34596  10.863   2.458   9.287  0.8635  2.6212 -0.8086
 1020MOL0     H34597  10.934   2.461   9.126  0.6506 -0.0445  0.4085
 1020MOL0     H34598  10.640   2.382   9.206 -0.0479 -1.6720 -1.7597
 1020MOL0     H34599  10.686   2.411   9.041 -0.9634  1.6181  0.3156
 1020MOL0     H34600  10.840   2.205   9.198  0.5944  1.6335 -0.5326
 1020MOL0     H34601  10.870   2.269   9.039 -0.8935  2.0350 -1.7422
 1020MOL0     H34602  10.733   2.082   9.324  0.8178  2.6251 -1.2719
 1020MOL0     H34603  10.646   1.869   9.420 -0.8764 -0.5905  1.1992
 1020MOL0     H34604  10.258   1.620   9.497 -2.9996  1.5516  1.2491
 1020MOL0     H34605  10.081   1.463   9.564 -0.0471 -0.3830 -0.2158
 1020MOL0     H34606   9.908   1.346   9.587  0.1819 -0.0905  1.0535
 1020MOL0     H34607  10.008   1.196   9.561 -1.0861  0.7611  2.4703
 1020MOL0     H34608   9.718   1.252   9.504  0.3507  0.1348  0.1202
 1020MOL0     H34609   9.788   1.140   9.625  0.6528 -1.8803 -0.4075
 1020MOL0     H34610   9.885   0.987   9.474  1.4910  2.0199 -0.1220
 1020MOL0     H34611   9.830   1.091   9.327  0.2209  0.4819  0.2471
 1020MOL0     H34612   9.635   0.984   9.528 -0.7085  1.0767 -0.5861
 1020MOL0     H34613   9.613   1.074   9.377 -1.0563 -1.5100  0.1608
 1020MOL0     H34614   9.767   0.808   9.390  0.8648  0.7686  1.8850
 1020MOL0     H34615   9.680   0.880   9.251 -3.6605 -0.8068 -0.4567
 1020MOL0     H34616   9.471   0.828   9.384  1.2258  1.2350 -1.7346
 1020MOL0     H34617   9.571   0.728   9.494  0.1884 -0.9694 -0.2453
 1020MOL0     H34618   9.614   0.580   9.273  1.4436  1.0066  0.3578
 1020MOL0     H34619   9.448   0.585   9.329 -0.1832  0.3016 -0.9416
 1020MOL0     H34620   9.441   0.597   9.093  0.0172  1.0114 -2.1080
 1020MOL0     H34621   9.546   0.729   9.086  3.9639 -2.4798  0.1231
 1020MOL0     H34622  10.044   1.330   9.165 -1.0365 -1.1824  2.3450
 1020MOL0     H34623  10.230   1.510   9.079 -1.0838 -0.2012 -0.0519
 1020MOL0     H34624  10.399   1.813   9.077  1.3225 -2.7004  0.3176
 1020MOL0     H34625  10.530   1.984   8.966  0.9405 -2.8619 -0.7783
 1020MOL0     H34626  10.416   2.992   9.273  0.7258 -1.7527  0.2600
 1020MOL0     H34627  10.306   2.786   9.241  1.8490  0.3619  0.2653
 1020MOL0     H34628   9.830   2.643   9.173  1.2360 -1.8618 -4.9982
 1020MOL0     H34629   9.664   2.466   9.175 -1.0926 -1.0667  1.8221
 1020MOL0     H34630   9.638   2.174   9.540 -1.3774  2.2863 -0.9542
 1020MOL0     H34631   9.767   2.115   9.454 -0.0925  1.9501  2.4297
 1020MOL0     H34632   9.617   1.998   9.302  1.4187 -2.0041  1.3601
 1020MOL0     H34633   9.582   1.961   9.474 -1.4855 -0.9512 -2.0225
 1020MOL0     H34634   9.411   2.118   9.281 -1.6448 -3.4651 -0.7963
 1020MOL0     H34635   9.406   2.141   9.463  4.8967 -1.1442  2.2141
 1020MOL0     H34636   9.368   1.868   9.340  0.8407  0.0530  1.7074
 1020MOL0     H34637   9.346   1.928   9.506 -1.4190  0.7829  0.5434
 1020MOL0     H34638   8.997   2.019   9.263 -0.5484  0.3077  1.7874
 1020MOL0     H34639   9.877   2.277   9.504  0.9543  0.1470 -0.7022
 1020MOL0     H34640  10.051   2.435   9.481  0.5265  3.4501  0.3403
 1021MOL0     O34641   0.050   6.102   1.649 -0.8635  0.0223 -0.0570
 1021MOL0     C34642   0.050   5.984   1.694 -0.8229  0.1926 -0.3498
 1021MOL0     O34643   0.152   5.894   1.668 -0.1677  1.0591  0.1268
 1021MOL0     C34644   0.275   5.917   1.612 -0.2631 -0.3974 -1.1591
 1021MOL0     C34645   0.335   5.821   1.550 -0.9274  0.2650  0.2211
 1021MOL0     C34646   0.473   5.839   1.511  0.3113 -0.6958 -0.6961
 1021MOL0     C34647   0.543   5.955   1.560 -0.3757 -0.0007 -0.2345
 1021MOL0     O34648   0.678   5.972   1.553  0.5469 -0.4140  0.1511
 1021MOL0     C34649   0.760   5.860   1.532  0.2231 -0.3535 -0.6040
 1021MOL0     C34650   0.906   5.903   1.524 -0.8042  0.2513 -0.6235
 1021MOL0     C34651   0.994   5.787   1.485 -0.6779 -0.0508 -0.1292
 1021MOL0     C34652   1.017   5.690   1.607 -0.8879  0.4033  0.1863
 1021MOL0     C34653   1.133   5.592   1.569  0.3500  0.0916 -0.6401
 1021MOL0     C34654   1.127   5.464   1.650 -1.3186 -0.0501 -0.3680
 1021MOL0     C34655   1.187   5.481   1.780 -0.7873 -0.3591 -0.5255
 1021MOL0     C34656   1.323   5.547   1.786 -0.1640 -0.1105  1.0273
 1021MOL0     N34657   1.418   5.450   1.721 -0.1229  0.0323  0.0036
 1021MOL0     C34658   1.468   5.332   1.771  0.4598  0.2068  0.1869
 1021MOL0     C34659   1.562   5.299   1.684  0.1539  0.9154  0.5016
 1021MOL0     C34660   1.663   5.188   1.699  0.6688  1.0051 -0.1607
 1021MOL0     C34661   1.606   5.047   1.667  0.7130 -0.2730 -0.3973
 1021MOL0     C34662   1.560   4.994   1.808 -0.6382  0.4750  0.4176
 1021MOL0     C34663   1.547   4.841   1.822 -0.1114  0.0025  0.7997
 1021MOL0     O34664   1.449   4.781   1.726 -0.0485 -0.0277  0.5180
 1021MOL0     C34665   1.315   4.784   1.752 -0.5514  0.7185 -0.0938
 1021MOL0     C34666   1.264   4.874   1.841  0.0300 -0.7380  0.6423
 1021MOL0     C34667   1.122   4.876   1.870  0.1078 -0.2645 -0.7917
 1021MOL0     C34668   1.035   4.817   1.790  0.5356 -0.0354  0.4345
 1021MOL0     C34669   0.881   4.821   1.790  0.9651  0.3292 -0.0950
 1021MOL0     O34670   0.819   4.718   1.739  0.9980  0.2337  0.6253
 1021MOL0     C34671   0.682   4.714   1.722  0.1127  0.3559  0.1913
 1021MOL0     C34672   0.613   4.589   1.712 -0.2202  0.5271 -0.5799
 1021MOL0     C34673   0.473   4.581   1.705  0.3205 -0.1536  0.9345
 1021MOL0     C34674   0.394   4.702   1.699 -0.0099 -1.0212  0.0154
 1021MOL0     O34675   0.261   4.715   1.688  0.0331 -0.1652 -0.2163
 1021MOL0     C34676   0.179   4.605   1.724  0.3221  0.7676 -0.1505
 1021MOL0     C34677   0.042   4.650   1.682 -0.1225  0.7876 -0.2278
 1021MOL0     C34678  -0.065   4.540   1.708 -0.8340  0.3146 -1.0717
 1021MOL0     C34679  -0.073   4.470   1.853  0.1986  0.1763 -0.4709
 1021MOL0     C34680  -0.158   4.338   1.849  0.5881 -0.5075  0.5992
 1021MOL0     C34681  -0.296   4.363   1.798  0.3990 -0.3602  0.2154
 1021MOL0     C34682  -0.384   4.239   1.818  0.6470  0.8586  0.2856
 1021MOL0     C34683  -0.520   4.276   1.761 -0.0484 -0.4231  0.3930
 1021MOL0    Cl34684  -0.616   4.121   1.755 -0.2017 -0.6357  0.3567
 1021MOL0     C34685   0.467   4.823   1.683  0.5513 -1.0925 -0.4011
 1021MOL0     C34686   0.605   4.832   1.687  0.9125  0.6506  0.1106
 1021MOL0     O34687   0.826   4.917   1.844 -0.2912  0.8532 -0.0795
 1021MOL0     C34688   1.091   4.722   1.697  0.6239  0.1302  0.3342
 1021MOL0     C34689   1.223   4.704   1.681 -0.3036 -0.9691 -0.7829
 1021MOL0     N34690   1.555   5.382   1.579 -0.2948 -0.7879 -1.2135
 1021MOL0     N34691   1.460   5.479   1.600 -0.4142  0.4399  0.2915
 1021MOL0     C34692   0.468   6.050   1.633  1.5998 -0.0530  0.1041
 1021MOL0     C34693   0.336   6.031   1.646  0.3346  0.7230 -0.2776
 1021MOL0     C34694  -0.051   5.952   1.800  0.0043 -0.1110  0.1702
 1021MOL0     C34695  -0.079   5.818   1.811  0.7921  0.6845 -1.4230
 1021MOL0     C34696  -0.191   5.790   1.896 -0.2582  0.5104  0.8214
 1021MOL0     C34697  -0.265   5.884   1.972 -0.0755 -0.4482  0.4392
 1021MOL0     O34698  -0.364   5.858   2.052 -1.0448  0.1144 -1.2223
 1021MOL0     C34699  -0.415   5.722   2.064  0.2415  0.5677 -0.2880
 1021MOL0     C34700  -0.550   5.719   2.148 -0.3318 -0.4773  0.2953
 1021MOL0     C34701  -0.656   5.827   2.111  0.3877 -0.2618  0.1817
 1021MOL0     C34702  -0.751   5.850   2.234  0.5155  0.3496 -1.1750
 1021MOL0     C34703  -0.810   5.981   2.242 -0.6604  0.2177 -0.0873
 1021MOL0     C34704  -0.849   6.092   2.247 -0.1938 -0.1098 -0.5188
 1021MOL0     C34705  -0.224   6.013   1.958 -0.7895  0.5314  0.2115
 1021MOL0     C34706  -0.123   6.048   1.869  0.0444  1.1210 -0.2102
 1021MOL0     H34707   0.285   5.727   1.529  1.5625 -0.7213 -1.9461
 1021MOL0     H34708   0.530   5.767   1.453  2.3263  0.7190 -0.5627
 1021MOL0     H34709   0.734   5.811   1.438  0.2785 -1.6483  0.0433
 1021MOL0     H34710   0.738   5.792   1.615  1.4254  1.2434  1.1152
 1021MOL0     H34711   0.936   5.940   1.622  1.3215  1.2056 -1.5597
 1021MOL0     H34712   0.920   5.987   1.455 -0.3918  0.9168  0.2483
 1021MOL0     H34713   1.090   5.832   1.455 -0.3603 -0.9019 -0.4210
 1021MOL0     H34714   0.953   5.742   1.394 -1.0780  0.6620 -0.3117
 1021MOL0     H34715   1.044   5.740   1.701  1.9607 -1.6952  0.6365
 1021MOL0     H34716   0.924   5.634   1.622 -1.0337  0.4915 -0.3690
 1021MOL0     H34717   1.227   5.648   1.572 -0.3145  1.2755  2.1562
 1021MOL0     H34718   1.123   5.561   1.465 -0.7777 -0.9118 -0.2538
 1021MOL0     H34719   1.187   5.385   1.603 -1.4040 -0.3687  0.0488
 1021MOL0     H34720   1.023   5.433   1.662 -1.1426  0.4255  3.8952
 1021MOL0     H34721   1.128   5.552   1.838  1.7728  0.1189  1.6622
 1021MOL0     H34722   1.190   5.386   1.834 -0.0986 -1.3877 -2.2690
 1021MOL0     H34723   1.365   5.555   1.886 -0.4258  0.9060  1.0650
 1021MOL0     H34724   1.325   5.641   1.731 -1.6482 -2.0243 -2.7131
 1021MOL0     H34725   1.441   5.281   1.863  1.7412 -1.1864 -0.1735
 1021MOL0     H34726   1.710   5.193   1.797  0.7316 -1.0996 -0.0302
 1021MOL0     H34727   1.743   5.205   1.626  0.6057  2.4061  0.0783
 1021MOL0     H34728   1.684   4.981   1.626  1.2451 -0.4341  0.8383
 1021MOL0     H34729   1.523   5.056   1.596 -2.0730 -2.0304  2.3799
 1021MOL0     H34730   1.645   5.001   1.878 -0.9388 -2.2170  1.1607
 1021MOL0     H34731   1.474   5.052   1.842 -1.5319  0.4195 -1.6372
 1021MOL0     H34732   1.536   4.813   1.927 -0.4173  1.8009  1.2832
 1021MOL0     H34733   1.646   4.808   1.789 -0.4252  0.9779 -1.3112
 1021MOL0     H34734   1.313   4.949   1.902  0.9136 -1.8101  1.3009
 1021MOL0     H34735   1.095   4.953   1.942  0.9372  0.9743 -1.7476
 1021MOL0     H34736   0.668   4.496   1.718 -2.1223 -0.5723  1.7944
 1021MOL0     H34737   0.417   4.488   1.699 -1.5909  1.0056 -3.3696
 1021MOL0     H34738   0.169   4.580   1.830  2.6851  2.2352  0.4969
 1021MOL0     H34739   0.221   4.525   1.662 -0.4840  0.6620 -0.5641
 1021MOL0     H34740   0.025   4.683   1.579 -0.1023  1.4718 -0.0166
 1021MOL0     H34741   0.020   4.739   1.741  2.2261  0.6862  0.9219
 1021MOL0     H34742  -0.056   4.455   1.641 -1.6723  0.4670 -1.3887
 1021MOL0     H34743  -0.160   4.591   1.686 -1.0758 -1.1263 -3.7555
 1021MOL0     H34744   0.022   4.442   1.899 -0.4310 -0.0081  0.7817
 1021MOL0     H34745  -0.123   4.542   1.919  1.7085 -1.7717  3.1282
 1021MOL0     H34746  -0.169   4.296   1.949  1.9817 -0.1143  0.9263
 1021MOL0     H34747  -0.114   4.257   1.790  1.6342 -1.6668  2.8712
 1021MOL0     H34748  -0.290   4.399   1.695 -0.9868  0.2807  0.3239
 1021MOL0     H34749  -0.348   4.447   1.847  0.5762  0.1952 -0.5303
 1021MOL0     H34750  -0.343   4.160   1.753  1.0305 -0.2946  1.8542
 1021MOL0     H34751  -0.383   4.198   1.919  0.5851  2.0694  0.7933
 1021MOL0     H34752  -0.516   4.306   1.655  2.1347 -0.4683  0.4074
 1021MOL0     H34753  -0.564   4.360   1.814  0.0053  0.8295 -1.4245
 1021MOL0     H34754   0.396   4.905   1.683 -0.4863 -1.9641  0.2374
 1021MOL0     H34755   0.646   4.932   1.675  1.1404  1.1096  3.6036
 1021MOL0     H34756   1.033   4.664   1.627  2.8211  1.1973 -2.5636
 1021MOL0     H34757   1.243   4.627   1.608 -0.6430 -0.5142 -1.3656
 1021MOL0     H34758   0.503   6.142   1.679 -0.8507 -0.7338  3.7685
 1021MOL0     H34759   0.283   6.103   1.707  0.2893 -0.6952  1.4248
 1021MOL0     H34760  -0.024   5.737   1.764  0.7238 -0.7423  0.7887
 1021MOL0     H34761  -0.217   5.686   1.878 -1.0290  0.9023 -0.4491
 1021MOL0     H34762  -0.345   5.652   2.112 -0.6635 -0.6715 -0.7105
 1021MOL0     H34763  -0.450   5.684   1.968 -0.4356  0.4615 -0.0025
 1021MOL0     H34764  -0.591   5.618   2.134  0.0054 -0.7251  1.0563
 1021MOL0     H34765  -0.519   5.728   2.252  1.5621  4.2273 -0.4575
 1021MOL0     H34766  -0.708   5.799   2.019 -1.1417 -2.8193  1.7001
 1021MOL0     H34767  -0.599   5.920   2.104  3.8144 -2.1994 -0.4204
 1021MOL0     H34768  -0.840   5.786   2.235  0.7851 -0.2898  3.5858
 1021MOL0     H34769  -0.704   5.822   2.329 -1.3428 -2.8946 -1.0739
 1021MOL0     H34770  -0.881   6.192   2.268 -0.4477 -0.0355 -1.2067
 1021MOL0     H34771  -0.269   6.094   2.015  0.7991  2.5180 -1.1900
 1021MOL0     H34772  -0.097   6.152   1.850 -0.1726  0.9459 -1.6073
 1022MOL0     O34773   7.529  10.890   1.320 -0.7420 -1.0648  0.0568
 1022MOL0     C34774   7.579  10.954   1.229 -0.2383 -0.4555 -0.5258
 1022MOL0     O34775   7.668  11.056   1.248  0.7109 -0.0729 -0.1001
 1022MOL0     C34776   7.715  11.067   1.382 -0.7861 -0.5860  0.5683
 1022MOL0     C34777   7.637  11.102   1.495 -0.3898 -0.3042  0.6685
 1022MOL0     C34778   7.698  11.108   1.619  0.0072  0.2503  0.1005
 1022MOL0     C34779   7.838  11.105   1.634  0.1434  0.2539  0.8533
 1022MOL0     O34780   7.901  11.126   1.749 -1.2200  0.4611 -1.3172
 1022MOL0     C34781   7.838  11.131   1.882  0.0077  0.2233  0.3660
 1022MOL0     C34782   7.843  11.275   1.916 -0.5160 -0.1323 -0.2563
 1022MOL0     C34783   7.812  11.316   2.065 -0.5103  0.5956  0.2037
 1022MOL0     C34784   7.669  11.292   2.101 -0.4149 -0.4554  0.3455
 1022MOL0     C34785   7.646  11.286   2.252  0.0778 -0.3668 -0.6373
 1022MOL0     C34786   7.656  11.416   2.324 -0.7770  0.0820 -0.0546
 1022MOL0     C34787   7.637  11.383   2.481 -0.3017 -0.4843 -0.6430
 1022MOL0     C34788   7.668  11.508   2.572  0.5653 -0.1850  0.4848
 1022MOL0     N34789   7.620  11.472   2.709  0.2319  0.8914 -0.0168
 1022MOL0     C34790   7.659  11.361   2.781  0.6321 -0.0656  0.8246
 1022MOL0     C34791   7.555  11.326   2.862  0.1882 -0.9035 -0.4459
 1022MOL0     C34792   7.541  11.215   2.954  0.5017 -0.2093  0.4802
 1022MOL0     C34793   7.441  11.113   2.888  0.0640 -0.8546  1.1333
 1022MOL0     C34794   7.302  11.147   2.917 -0.3414 -0.1301  0.8440
 1022MOL0     C34795   7.205  11.029   2.889 -0.0136 -0.1038  0.1253
 1022MOL0     O34796   7.065  11.074   2.907 -0.4497 -0.1595  0.7607
 1022MOL0     C34797   6.965  10.975   2.902  1.0925 -0.0072  0.6538
 1022MOL0     C34798   6.830  11.012   2.937  0.3588  0.5433 -0.5850
 1022MOL0     C34799   6.733  10.912   2.935  0.7992  0.5426  0.1360
 1022MOL0     C34800   6.764  10.778   2.908 -0.2919 -0.7723 -1.1181
 1022MOL0     C34801   6.650  10.684   2.925  0.5467  1.1471 -0.3204
 1022MOL0     O34802   6.667  10.559   2.868  0.0498  0.3377 -1.1847
 1022MOL0     C34803   6.570  10.464   2.852 -1.2445 -0.3235  0.1269
 1022MOL0     C34804   6.488  10.426   2.956 -0.8337 -0.8771  0.9032
 1022MOL0     C34805   6.402  10.316   2.939  1.1200  0.7272  1.2174
 1022MOL0     C34806   6.395  10.245   2.822  0.2819  0.5199 -0.4397
 1022MOL0     O34807   6.321  10.125   2.811  0.1568  0.5615  0.6923
 1022MOL0     C34808   6.235  10.121   2.702  0.4276  0.6330 -0.1836
 1022MOL0     C34809   6.138  10.009   2.722 -0.5952 -0.5487  0.4376
 1022MOL0     C34810   6.039  10.003   2.612 -0.5629  0.3243 -0.1260
 1022MOL0     C34811   5.949   9.881   2.613  0.5953  0.4058 -0.1048
 1022MOL0     C34812   5.853   9.888   2.500 -0.1506  0.8426 -0.3414
 1022MOL0     C34813   5.913   9.866   2.358 -1.2119  0.0882 -0.9321
 1022MOL0     C34814   5.805   9.813   2.268  0.3395  0.7031  0.4117
 1022MOL0     C34815   5.875   9.746   2.145 -0.3412 -0.1243 -0.1363
 1022MOL0    Cl34816   5.940   9.584   2.198 -0.1933  0.4417  0.1352
 1022MOL0     C34817   6.472  10.288   2.713 -0.5105  0.4881 -0.4452
 1022MOL0     C34818   6.555  10.400   2.732 -0.1686 -0.8301  0.0190
 1022MOL0     O34819   6.538  10.725   2.966 -0.3919  0.1361  0.3985
 1022MOL0     C34820   6.895  10.750   2.869 -0.4810 -0.1148  0.8150
 1022MOL0     C34821   7.006  10.837   2.867  0.0128 -0.3298 -0.4665
 1022MOL0     N34822   7.458  11.424   2.846  0.8305 -0.5841  0.3473
 1022MOL0     N34823   7.500  11.500   2.751  0.7732  0.8778  0.4470
 1022MOL0     C34824   7.915  11.083   1.519  0.1911  0.5584  0.3911
 1022MOL0     C34825   7.850  11.059   1.400 -0.2792  0.4191  1.1650
 1022MOL0     C34826   7.537  10.942   1.083 -0.3135 -0.1962  0.4229
 1022MOL0     C34827   7.429  10.859   1.036 -0.3482  0.6829  0.1737
 1022MOL0     C34828   7.389  10.849   0.898 -0.3828  0.1498  0.0294
 1022MOL0     C34829   7.443  10.947   0.807  0.4143 -0.6725  0.0075
 1022MOL0     O34830   7.385  10.949   0.685  0.4216 -0.0915  0.7374
 1022MOL0     C34831   7.433  11.034   0.577  0.4046  0.0730 -0.7821
 1022MOL0     C34832   7.544  10.967   0.488  0.2358 -0.4182 -0.0361
 1022MOL0     C34833   7.492  10.840   0.431  0.3333  0.4736  0.2189
 1022MOL0     C34834   7.591  10.775   0.328  0.3515 -0.0360  0.1267
 1022MOL0     C34835   7.599  10.844   0.201 -0.3061 -0.1452 -0.5074
 1022MOL0     C34836   7.614  10.895   0.098 -0.4565  0.3782  0.0293
 1022MOL0     C34837   7.546  11.018   0.849 -0.7817 -0.1452 -0.0813
 1022MOL0     C34838   7.603  11.015   0.981 -0.3089 -0.7760 -0.2500
 1022MOL0     H34839   7.529  11.104   1.486 -0.4313 -0.7760  1.0421
 1022MOL0     H34840   7.635  11.122   1.707 -0.5194 -1.2330 -0.0198
 1022MOL0     H34841   7.887  11.079   1.964  0.0453 -0.8968 -0.3381
 1022MOL0     H34842   7.737  11.090   1.886  0.3243 -0.4446  3.3522
 1022MOL0     H34843   7.779  11.329   1.846  0.6539 -0.8838 -1.9984
 1022MOL0     H34844   7.949  11.305   1.910 -0.7451  1.6712  2.8047
 1022MOL0     H34845   7.830  11.423   2.081 -1.9812  0.9563 -0.4006
 1022MOL0     H34846   7.882  11.259   2.126 -1.0502 -1.3991 -0.9465
 1022MOL0     H34847   7.604  11.368   2.057  2.4415  4.7375  3.9827
 1022MOL0     H34848   7.646  11.191   2.066  0.5307 -0.2174 -1.0389
 1022MOL0     H34849   7.724  11.221   2.293  0.9464  0.4786 -0.9063
 1022MOL0     H34850   7.550  11.243   2.283  1.2385 -0.5471  3.2014
 1022MOL0     H34851   7.584  11.493   2.293 -0.5372  0.4880  0.3830
 1022MOL0     H34852   7.753  11.465   2.314 -0.0944 -1.4531 -1.3253
 1022MOL0     H34853   7.529  11.367   2.488 -0.2122 -0.9133 -0.2184
 1022MOL0     H34854   7.708  11.304   2.510 -1.2089 -0.4465  1.9054
 1022MOL0     H34855   7.620  11.598   2.533 -2.4187 -1.0627  1.8103
 1022MOL0     H34856   7.775  11.530   2.580  0.8574 -0.2799 -2.2193
 1022MOL0     H34857   7.743  11.297   2.754 -0.7772 -0.4432 -3.2943
 1022MOL0     H34858   7.503  11.246   3.052  2.2967 -0.4761  1.3129
 1022MOL0     H34859   7.640  11.168   2.952  0.0858 -1.1904 -2.3615
 1022MOL0     H34860   7.469  11.010   2.910 -0.2322 -1.2867 -0.3890
 1022MOL0     H34861   7.454  11.114   2.779  1.7652 -1.6277  1.3094
 1022MOL0     H34862   7.285  11.184   3.018  2.1242 -0.7119  1.5110
 1022MOL0     H34863   7.269  11.215   2.837  0.0335  0.2596  1.0180
 1022MOL0     H34864   7.236  10.954   2.963  1.0538 -2.2598 -2.3479
 1022MOL0     H34865   7.218  10.974   2.795  1.2631  3.0522 -1.6886
 1022MOL0     H34866   6.808  11.114   2.964 -2.5049 -0.3856  1.0303
 1022MOL0     H34867   6.629  10.940   2.953  0.0324 -2.1796  0.3120
 1022MOL0     H34868   6.489  10.482   3.049 -2.3491  0.8065 -0.0348
 1022MOL0     H34869   6.318  10.302   3.006 -1.0591 -0.2808 -1.5588
 1022MOL0     H34870   6.287  10.108   2.606  1.3876 -2.2498  0.6256
 1022MOL0     H34871   6.185  10.218   2.701 -1.6620 -0.3986 -0.4217
 1022MOL0     H34872   6.088  10.023   2.819 -2.7170  2.1946 -0.9239
 1022MOL0     H34873   6.200   9.921   2.739 -1.6266 -0.7127  4.3093
 1022MOL0     H34874   6.098  10.011   2.520 -0.2408  2.8394  0.2573
 1022MOL0     H34875   5.971  10.089   2.616  0.9959  1.5396  2.2883
 1022MOL0     H34876   6.003   9.787   2.605  1.8400  1.1073 -0.1790
 1022MOL0     H34877   5.888   9.885   2.704  1.5515  2.1690  0.5042
 1022MOL0     H34878   5.817   9.992   2.498 -2.2832  0.1287 -0.9293
 1022MOL0     H34879   5.779   9.810   2.518  0.4086  0.9939  3.7677
 1022MOL0     H34880   5.992   9.792   2.373 -2.7613 -1.7850 -1.6043
 1022MOL0     H34881   5.955   9.963   2.329  0.2058  1.0769  3.6011
 1022MOL0     H34882   5.744   9.735   2.314  1.0792  0.7039  1.4302
 1022MOL0     H34883   5.740   9.896   2.238 -0.5406  0.4426  1.5736
 1022MOL0     H34884   5.953   9.808   2.100 -1.9042 -0.2142 -3.2367
 1022MOL0     H34885   5.807   9.714   2.066 -1.0529 -2.6978  1.3768
 1022MOL0     H34886   6.489  10.234   2.620  3.1915  1.1197 -0.2681
 1022MOL0     H34887   6.620  10.428   2.649  0.2302  1.1661  0.9582
 1022MOL0     H34888   6.911  10.650   2.831  2.3043  1.0046 -1.3426
 1022MOL0     H34889   7.101  10.796   2.832  0.5042 -0.2840  0.7323
 1022MOL0     H34890   8.024  11.084   1.517  0.2590 -0.3170 -2.7890
 1022MOL0     H34891   7.907  11.036   1.311  3.2991  3.4352  2.4209
 1022MOL0     H34892   7.380  10.788   1.102  1.5094 -2.7778 -1.8130
 1022MOL0     H34893   7.310  10.780   0.870 -0.8018  1.0822 -1.1301
 1022MOL0     H34894   7.484  11.123   0.616  0.5637 -0.4486  0.2359
 1022MOL0     H34895   7.352  11.068   0.512  1.4570  0.9725 -1.6616
 1022MOL0     H34896   7.572  11.046   0.417 -1.1392  3.7247  3.5356
 1022MOL0     H34897   7.623  10.943   0.559  0.3198  0.2522  0.1010
 1022MOL0     H34898   7.391  10.846   0.390  0.1491  1.0254  0.7391
 1022MOL0     H34899   7.499  10.765   0.510  1.7604 -0.7504 -1.0093
 1022MOL0     H34900   7.692  10.760   0.366  0.4651  1.8462  0.6577
 1022MOL0     H34901   7.548  10.680   0.295  1.1066  0.7167 -3.4824
 1022MOL0     H34902   7.633  10.958   0.013  2.3086 -0.1877  0.1243
 1022MOL0     H34903   7.603  11.082   0.782 -0.6026 -1.4739 -1.2475
 1022MOL0     H34904   7.686  11.084   0.994 -0.6432 -0.8420  2.9022
 1023MOL0     O34905   4.254   7.868   4.293  0.2145 -0.0249 -0.0403
 1023MOL0     C34906   4.344   7.938   4.335  0.5463 -0.0591 -0.0379
 1023MOL0     O34907   4.453   7.891   4.405  0.0891 -0.4395  0.2520
 1023MOL0     C34908   4.439   7.770   4.466 -0.5878 -0.0834 -0.2743
 1023MOL0     C34909   4.366   7.760   4.584  0.2301  0.6603 -0.3910
 1023MOL0     C34910   4.367   7.643   4.664 -0.1616 -0.1994 -1.5158
 1023MOL0     C34911   4.431   7.529   4.614  0.8193  0.0974 -0.0515
 1023MOL0     O34912   4.408   7.409   4.687 -0.3069 -0.6451  0.4338
 1023MOL0     C34913   4.510   7.308   4.674 -0.4024 -0.8259  0.6009
 1023MOL0     C34914   4.613   7.339   4.781  0.4716  0.3362  0.2946
 1023MOL0     C34915   4.568   7.360   4.919  0.3585  0.5627 -0.7460
 1023MOL0     C34916   4.679   7.368   5.023  0.0516  0.4779  0.1874
 1023MOL0     C34917   4.616   7.375   5.165  0.0260 -0.7885 -1.0824
 1023MOL0     C34918   4.567   7.516   5.197  0.1893  0.1971  1.2121
 1023MOL0     C34919   4.538   7.556   5.349 -0.6612 -0.3040 -0.4398
 1023MOL0     C34920   4.453   7.459   5.426  1.0077  0.2648  0.1783
 1023MOL0     N34921   4.435   7.514   5.561  0.4078 -0.4858 -0.6103
 1023MOL0     C34922   4.467   7.443   5.673  0.9640  0.4041  0.1289
 1023MOL0     C34923   4.418   7.526   5.766 -0.5439 -0.2199  0.4941
 1023MOL0     C34924   4.432   7.486   5.916  0.4579 -0.1506  0.0288
 1023MOL0     C34925   4.379   7.597   6.010 -1.1016 -0.0435  0.1830
 1023MOL0     C34926   4.227   7.592   6.042  0.2684 -0.0272 -0.0891
 1023MOL0     C34927   4.162   7.464   6.079 -0.8296  0.6304  0.6679
 1023MOL0     O34928   4.052   7.489   6.159 -0.2131  0.0362  0.2027
 1023MOL0     C34929   3.962   7.386   6.139 -0.7633  0.3686  0.5861
 1023MOL0     C34930   3.995   7.261   6.192  0.3434 -0.7849  0.3554
 1023MOL0     C34931   3.904   7.154   6.169 -0.4679  0.5901  0.3917
 1023MOL0     C34932   3.785   7.177   6.097 -0.1318 -0.3594  0.6728
 1023MOL0     C34933   3.687   7.066   6.077  0.0028  0.4685  0.2914
 1023MOL0     O34934   3.565   7.104   6.030 -0.4020 -0.2223 -0.3555
 1023MOL0     C34935   3.472   7.007   6.016 -0.2158  0.2533 -0.5750
 1023MOL0     C34936   3.452   6.905   6.114  0.4419 -0.8781 -1.2034
 1023MOL0     C34937   3.338   6.826   6.100 -0.7287  0.1236  0.0898
 1023MOL0     C34938   3.252   6.834   5.991  0.5653  0.9917 -0.1892
 1023MOL0     O34939   3.153   6.738   5.973 -0.1936 -0.5462  0.1724
 1023MOL0     C34940   3.020   6.790   5.993 -0.1481  0.2370  1.0506
 1023MOL0     C34941   2.909   6.688   5.971  0.5827  0.1765 -0.7183
 1023MOL0     C34942   2.768   6.748   5.979  0.3292  0.2284  0.0618
 1023MOL0     C34943   2.742   6.840   5.861  0.3474 -1.3534 -0.1235
 1023MOL0     C34944   2.594   6.868   5.847  0.7946 -0.4431 -0.4110
 1023MOL0     C34945   2.582   7.010   5.790 -0.3457  0.0607 -0.3340
 1023MOL0     C34946   2.647   7.017   5.641 -0.4275  0.6292 -0.0189
 1023MOL0     C34947   2.614   7.145   5.561 -0.0978  0.0909 -1.2374
 1023MOL0    Cl34948   2.512   7.083   5.430 -0.2799 -0.5297 -0.1886
 1023MOL0     C34949   3.268   6.941   5.900  0.0672 -0.7325  0.0716
 1023MOL0     C34950   3.376   7.025   5.910 -1.1022  0.0458 -0.5705
 1023MOL0     O34951   3.728   6.952   6.075 -0.3996  0.0554  0.1081
 1023MOL0     C34952   3.757   7.304   6.053 -0.2420 -0.4415 -1.0220
 1023MOL0     C34953   3.850   7.401   6.070  0.1690 -0.0432  0.1969
 1023MOL0     N34954   4.364   7.644   5.716  0.7321 -0.8031 -1.2336
 1023MOL0     N34955   4.367   7.624   5.591 -0.6001 -0.2038 -0.0770
 1023MOL0     C34956   4.507   7.544   4.498 -0.2763 -0.3706 -0.6156
 1023MOL0     C34957   4.514   7.665   4.429  1.0128  0.2518 -0.5826
 1023MOL0     C34958   4.348   8.068   4.278 -0.4196 -0.0283 -0.1453
 1023MOL0     C34959   4.473   8.143   4.286  0.2288 -0.1316  0.0330
 1023MOL0     C34960   4.466   8.273   4.235  0.9987 -0.1288 -0.5506
 1023MOL0     C34961   4.355   8.339   4.188 -0.0648  0.4900 -0.1813
 1023MOL0     O34962   4.347   8.471   4.149 -0.1485  0.6834 -0.3497
 1023MOL0     C34963   4.472   8.544   4.149 -0.3755 -0.1337  1.0688
 1023MOL0     C34964   4.450   8.687   4.097  0.3255 -0.2967  1.4415
 1023MOL0     C34965   4.546   8.779   4.168  0.4176 -1.4236 -0.2809
 1023MOL0     C34966   4.651   8.809   4.058  0.1134  0.4254 -0.3326
 1023MOL0     C34967   4.768   8.888   4.104  0.1177  0.4995  0.0778
 1023MOL0     C34968   4.874   8.923   4.154 -0.2179  0.3050  0.3050
 1023MOL0     C34969   4.236   8.264   4.193 -0.5136 -0.1736  0.5794
 1023MOL0     C34970   4.235   8.127   4.227 -0.2567  0.0696  0.0509
 1023MOL0     H34971   4.315   7.841   4.636  0.4891  2.6535 -3.0299
 1023MOL0     H34972   4.290   7.619   4.737 -0.8287 -0.4176 -2.2715
 1023MOL0     H34973   4.554   7.297   4.575  0.5543 -0.6858  1.0055
 1023MOL0     H34974   4.471   7.209   4.699  1.5611 -2.4983 -2.4124
 1023MOL0     H34975   4.659   7.437   4.763 -2.0526  1.6241  0.3496
 1023MOL0     H34976   4.689   7.260   4.783 -0.3660 -0.4857  0.2472
 1023MOL0     H34977   4.500   7.284   4.959  1.6845 -0.4237 -0.2906
 1023MOL0     H34978   4.509   7.451   4.934 -1.5141 -0.8755  1.2480
 1023MOL0     H34979   4.743   7.280   5.019  0.3095  0.7003 -3.0416
 1023MOL0     H34980   4.751   7.447   5.002  1.4962 -0.7859  0.1779
 1023MOL0     H34981   4.683   7.353   5.249  0.6932  1.8618 -0.8506
 1023MOL0     H34982   4.530   7.307   5.170 -1.4622  1.0793 -0.0199
 1023MOL0     H34983   4.472   7.541   5.149 -0.4347  0.5536  2.5931
 1023MOL0     H34984   4.648   7.586   5.173  0.8683 -0.6576  0.9598
 1023MOL0     H34985   4.635   7.565   5.399 -1.1745 -2.8593  1.1963
 1023MOL0     H34986   4.498   7.658   5.354  1.2844  0.4342  1.8002
 1023MOL0     H34987   4.506   7.364   5.425  1.5119  0.4415  2.7603
 1023MOL0     H34988   4.356   7.448   5.377  0.5127  1.5351  0.8176
 1023MOL0     H34989   4.491   7.338   5.683 -2.9052 -0.5332  1.1797
 1023MOL0     H34990   4.537   7.462   5.936  0.6630 -1.7782 -2.5237
 1023MOL0     H34991   4.381   7.391   5.934 -2.3586  1.7133  3.0980
 1023MOL0     H34992   4.403   7.690   5.958  0.5823 -1.5266 -1.8855
 1023MOL0     H34993   4.435   7.597   6.104  0.8073  0.3687 -0.8975
 1023MOL0     H34994   4.211   7.661   6.125  0.1534  0.7344 -0.7251
 1023MOL0     H34995   4.179   7.637   5.954  1.2123  2.0334  0.3721
 1023MOL0     H34996   4.237   7.404   6.132  1.4149  1.5532 -1.2645
 1023MOL0     H34997   4.141   7.404   5.990 -0.5638  2.4003 -0.6284
 1023MOL0     H34998   4.079   7.250   6.260  2.4079  0.9679 -1.7488
 1023MOL0     H34999   3.917   7.056   6.214 -1.9366  0.1531 -0.0862
 1023MOL0     H35000   3.512   6.894   6.204 -3.6356 -1.3466  1.7704
 1023MOL0     H35001   3.321   6.736   6.159 -1.8899 -1.0686 -1.9374
 1023MOL0     H35002   3.000   6.872   5.923  2.0315 -1.4998 -1.8240
 1023MOL0     H35003   3.022   6.829   6.095  0.6742  1.6387  0.5366
 1023MOL0     H35004   2.931   6.606   6.040  2.1486 -1.0199 -2.5434
 1023MOL0     H35005   2.921   6.646   5.871 -2.6496  0.7806 -1.4705
 1023MOL0     H35006   2.753   6.805   6.071  3.1903 -1.0290  1.4233
 1023MOL0     H35007   2.705   6.660   5.970 -0.4676  0.4310  2.8397
 1023MOL0     H35008   2.800   6.933   5.857  0.2677 -1.3025 -0.1049
 1023MOL0     H35009   2.758   6.785   5.768 -0.4346  0.1038 -1.1614
 1023MOL0     H35010   2.526   6.869   5.933 -0.2420 -1.2611 -1.1910
 1023MOL0     H35011   2.540   6.801   5.779 -1.9512  1.6601 -0.4848
 1023MOL0     H35012   2.633   7.077   5.860 -0.7944  0.7337 -0.6376
 1023MOL0     H35013   2.476   7.037   5.786 -0.7264 -1.2783  0.2514
 1023MOL0     H35014   2.755   7.010   5.656 -0.6362  1.0660  1.9549
 1023MOL0     H35015   2.631   6.925   5.583  0.1545 -0.3951  1.4018
 1023MOL0     H35016   2.705   7.175   5.508  0.9926  0.3957  0.6930
 1023MOL0     H35017   2.565   7.227   5.615  1.0071 -1.0984  1.8056
 1023MOL0     H35018   3.200   6.969   5.820  1.6073  0.0912 -0.9902
 1023MOL0     H35019   3.380   7.107   5.839 -1.2193  0.2380 -0.3562
 1023MOL0     H35020   3.662   7.329   6.007  0.1003  1.4408 -0.7846
 1023MOL0     H35021   3.824   7.498   6.029 -0.6136  0.0892  0.9739
 1023MOL0     H35022   4.579   7.467   4.470 -0.9884 -0.4196 -2.4071
 1023MOL0     H35023   4.577   7.670   4.341  3.5079 -1.8878  0.9327
 1023MOL0     H35024   4.567   8.100   4.319  0.1406 -1.6311 -1.5273
 1023MOL0     H35025   4.566   8.315   4.230  1.3869 -0.4849  2.2977
 1023MOL0     H35026   4.538   8.495   4.077 -3.4707 -0.1480 -2.0079
 1023MOL0     H35027   4.521   8.543   4.248  0.1187  2.0937  0.9021
 1023MOL0     H35028   4.440   8.696   3.989 -3.3613 -1.6981  1.5303
 1023MOL0     H35029   4.350   8.710   4.135 -0.4469 -0.4492 -0.4072
 1023MOL0     H35030   4.602   8.740   4.254 -1.6921 -0.9622  1.3869
 1023MOL0     H35031   4.502   8.876   4.194  1.9742 -0.5205 -0.9018
 1023MOL0     H35032   4.700   8.715   4.031  2.6757  1.2009  1.2559
 1023MOL0     H35033   4.609   8.863   3.972  0.3227 -0.7788 -1.2220
 1023MOL0     H35034   4.971   8.947   4.190  0.5041 -4.0034  1.8504
 1023MOL0     H35035   4.149   8.311   4.149 -0.7499  1.9176  3.0498
 1023MOL0     H35036   4.147   8.066   4.206 -0.1125 -1.3344  2.9843
 1024MOL0     O35037   0.272   9.382   0.394 -0.2120 -0.3769  0.1050
 1024MOL0     C35038   0.314   9.439   0.300 -0.8279  0.3685  0.8581
 1024MOL0     O35039   0.281   9.419   0.164  0.0346 -0.0979  0.1193
 1024MOL0     C35040   0.176   9.327   0.146  0.3013  0.4514  0.2052
 1024MOL0     C35041   0.167   9.197   0.200 -0.7938 -0.8282  0.5774
 1024MOL0     C35042   0.054   9.115   0.178  0.0617 -0.9240 -1.2497
 1024MOL0     C35043  -0.045   9.158   0.090 -0.3956 -0.6712 -0.5591
 1024MOL0     O35044  -0.158   9.093   0.048 -0.4169  0.0089 -0.4699
 1024MOL0     C35045  -0.147   8.950   0.016  0.9975  0.2291  0.0449
 1024MOL0     C35046  -0.195   8.856   0.135  0.2676 -0.0382 -0.1894
 1024MOL0     C35047  -0.158   8.703   0.109 -0.1168  0.4660  0.4362
 1024MOL0     C35048  -0.188   8.628   0.247 -0.3940 -0.1453  0.1470
 1024MOL0     C35049  -0.128   8.497   0.276 -0.5131  1.3309 -0.1145
 1024MOL0     C35050  -0.131   8.394   0.162  0.6342 -0.3616 -0.4818
 1024MOL0     C35051  -0.049   8.265   0.205  0.2461  0.4947  0.6770
 1024MOL0     C35052   0.101   8.286   0.238 -0.6205  0.4291 -0.6179
 1024MOL0     N35053   0.163   8.154   0.260 -0.8723 -0.3036 -0.4065
 1024MOL0     C35054   0.266   8.098   0.193 -0.8266  0.0724 -1.0070
 1024MOL0     C35055   0.288   7.971   0.235  0.4400 -0.1767  0.0662
 1024MOL0     C35056   0.382   7.869   0.172  0.0280  0.8382 -0.0932
 1024MOL0     C35057   0.524   7.916   0.160  0.0382 -0.0625 -0.1859
 1024MOL0     C35058   0.578   7.946   0.303  0.2594  0.0543  0.4904
 1024MOL0     C35059   0.732   7.940   0.316  0.0497 -0.5007 -0.5751
 1024MOL0     O35060   0.777   8.053   0.236 -0.0244 -0.2103 -0.4678
 1024MOL0     C35061   0.902   8.096   0.261  0.1852 -0.3758  0.0124
 1024MOL0     C35062   0.920   8.216   0.330 -0.2800  0.2720  0.1539
 1024MOL0     C35063   1.059   8.264   0.353  1.0968 -0.3043 -0.8777
 1024MOL0     C35064   1.175   8.201   0.296  0.2605 -0.0536 -0.9770
 1024MOL0     C35065   1.312   8.253   0.332 -0.3022  0.6863  0.8575
 1024MOL0     O35066   1.329   8.372   0.368  0.2801  0.3686 -0.1219
 1024MOL0     C35067   1.454   8.424   0.388  0.1710 -0.2740  1.2183
 1024MOL0     C35068   1.546   8.433   0.280 -0.3281 -0.1731  0.3133
 1024MOL0     C35069   1.674   8.476   0.286  0.8517 -0.0038 -0.1060
 1024MOL0     C35070   1.721   8.531   0.408 -0.2582  0.4320 -1.2834
 1024MOL0     O35071   1.851   8.573   0.433  0.4998 -0.4979  0.0804
 1024MOL0     C35072   1.935   8.614   0.320  0.1899  0.9311  0.8019
 1024MOL0     C35073   2.041   8.717   0.362  0.4409 -0.6687 -0.1989
 1024MOL0     C35074   2.150   8.664   0.453 -0.9085 -0.1889  0.3170
 1024MOL0     C35075   2.269   8.760   0.464  0.4042  0.6095  0.1161
 1024MOL0     C35076   2.381   8.722   0.560 -0.4608  0.0283 -0.5248
 1024MOL0     C35077   2.456   8.594   0.514  0.7891 -0.4559 -0.5977
 1024MOL0     C35078   2.559   8.560   0.619 -0.4684 -0.7517  0.2152
 1024MOL0     C35079   2.640   8.442   0.579 -0.6783 -0.3790  0.3040
 1024MOL0    Cl35080   2.529   8.302   0.545 -0.3402 -0.0047 -0.5358
 1024MOL0     C35081   1.637   8.518   0.520 -0.1803  1.1498  0.8009
 1024MOL0     C35082   1.505   8.467   0.512  0.4989  0.1820  0.3143
 1024MOL0     O35083   1.408   8.175   0.312 -0.7292 -0.0836 -0.6094
 1024MOL0     C35084   1.145   8.084   0.229 -0.4245  0.6108  0.0088
 1024MOL0     C35085   1.017   8.041   0.206 -0.5524 -0.6529 -0.1416
 1024MOL0     N35086   0.178   7.948   0.326 -0.7952 -0.6262  0.0517
 1024MOL0     N35087   0.114   8.056   0.343 -0.2925  0.0771 -0.4938
 1024MOL0     C35088  -0.021   9.270   0.026 -0.0023 -0.8599 -0.0936
 1024MOL0     C35089   0.082   9.357   0.046 -0.1043  0.5675 -0.4800
 1024MOL0     C35090   0.434   9.537   0.319 -0.0752 -0.0286  0.0286
 1024MOL0     C35091   0.440   9.661   0.259  0.9604 -0.0626 -0.6920
 1024MOL0     C35092   0.544   9.750   0.295  0.3204  0.4064 -0.4340
 1024MOL0     C35093   0.646   9.714   0.389  1.2341 -1.1773 -0.1143
 1024MOL0     O35094   0.749   9.802   0.430 -0.4674 -0.2095  0.5283
 1024MOL0     C35095   0.734   9.947   0.406 -0.6995  1.1023  0.2324
 1024MOL0     C35096   0.809  10.010   0.523  0.6380 -0.0329 -0.1611
 1024MOL0     C35097   0.821  10.158   0.512  0.3148 -1.1770  0.2915
 1024MOL0     C35098   0.810  10.226   0.637  0.6530 -0.9505 -1.0151
 1024MOL0     C35099   0.914  10.195   0.725 -0.3960  0.8153 -0.8887
 1024MOL0     C35100   1.005  10.135   0.785  0.3724 -0.1849  0.2392
 1024MOL0     C35101   0.646   9.589   0.434 -0.0196  0.0579 -0.3176
 1024MOL0     C35102   0.537   9.502   0.408  0.1192  0.8801  0.8452
 1024MOL0     H35103   0.241   9.173   0.275 -0.1885 -0.1258  0.2108
 1024MOL0     H35104   0.046   9.019   0.227  0.3669  1.1192  3.3478
 1024MOL0     H35105  -0.044   8.928  -0.013  0.5447  1.5887 -2.9243
 1024MOL0     H35106  -0.214   8.927  -0.068 -1.7277  2.4480  1.4169
 1024MOL0     H35107  -0.303   8.868   0.150  0.2006 -0.3450 -0.4225
 1024MOL0     H35108  -0.153   8.892   0.229 -1.1704  0.9775  0.1025
 1024MOL0     H35109  -0.052   8.688   0.087 -0.1632 -1.3448  1.2797
 1024MOL0     H35110  -0.211   8.658   0.025  1.6701  2.9636 -2.2208
 1024MOL0     H35111  -0.152   8.700   0.321 -1.5616  0.0153  0.5841
 1024MOL0     H35112  -0.297   8.619   0.252 -0.5324  0.1889 -1.6913
 1024MOL0     H35113  -0.182   8.452   0.360 -2.1006 -0.0431 -1.8006
 1024MOL0     H35114  -0.026   8.517   0.311 -0.7515  1.6234  0.4244
 1024MOL0     H35115  -0.087   8.423   0.066  0.2368 -0.4457 -0.6873
 1024MOL0     H35116  -0.236   8.375   0.143 -0.5777  3.3243  1.4826
 1024MOL0     H35117  -0.094   8.225   0.296  0.1761 -1.3648 -0.1284
 1024MOL0     H35118  -0.067   8.176   0.145 -1.0501  1.5885 -0.6327
 1024MOL0     H35119   0.117   8.340   0.332 -1.1211  0.8474 -0.7668
 1024MOL0     H35120   0.153   8.336   0.155  0.8507 -1.4631 -0.9154
 1024MOL0     H35121   0.327   8.152   0.121 -3.1677  3.6355 -0.5592
 1024MOL0     H35122   0.333   7.827   0.084 -0.2106 -1.3146  1.0148
 1024MOL0     H35123   0.379   7.787   0.243 -0.0610  1.1892  0.3131
 1024MOL0     H35124   0.522   8.004   0.095 -2.9484 -1.0752 -1.6337
 1024MOL0     H35125   0.587   7.840   0.112  1.5012  0.1879  1.2209
 1024MOL0     H35126   0.539   8.044   0.334 -0.6908 -0.0725 -0.2883
 1024MOL0     H35127   0.544   7.876   0.380  0.5023  1.2259  1.7204
 1024MOL0     H35128   0.774   7.852   0.268 -1.5351 -1.0636 -0.9924
 1024MOL0     H35129   0.736   7.965   0.423  0.7089  2.0717 -1.1292
 1024MOL0     H35130   0.835   8.274   0.364 -1.9171 -2.0240  0.1835
 1024MOL0     H35131   1.067   8.349   0.419  3.5976 -2.6212  2.1217
 1024MOL0     H35132   1.505   8.401   0.185 -3.3260  0.6716  1.1983
 1024MOL0     H35133   1.739   8.484   0.199 -0.7491  0.1641 -1.3430
 1024MOL0     H35134   1.871   8.650   0.239  2.3248  1.8002 -0.6030
 1024MOL0     H35135   1.981   8.529   0.269 -4.6945 -1.3118 -0.4794
 1024MOL0     H35136   1.995   8.807   0.405  1.2942  0.4400 -1.5422
 1024MOL0     H35137   2.089   8.750   0.270  1.2243  0.5146  0.6138
 1024MOL0     H35138   2.197   8.578   0.405  1.6451 -1.2860  4.2856
 1024MOL0     H35139   2.105   8.637   0.549 -1.5714  0.8517  0.3225
 1024MOL0     H35140   2.303   8.788   0.364  1.7231  2.1073  0.9435
 1024MOL0     H35141   2.225   8.842   0.520  1.0652  0.9888  0.0911
 1024MOL0     H35142   2.348   8.710   0.663  1.3095 -1.4478 -0.0552
 1024MOL0     H35143   2.456   8.801   0.550 -1.2222  0.8608  0.2317
 1024MOL0     H35144   2.514   8.618   0.424 -2.5959  2.5587 -2.2056
 1024MOL0     H35145   2.392   8.507   0.502 -0.1653 -0.0390  1.1552
 1024MOL0     H35146   2.635   8.639   0.628 -1.0654  0.2989 -2.8361
 1024MOL0     H35147   2.506   8.544   0.713 -2.8751 -1.0759 -1.1052
 1024MOL0     H35148   2.710   8.418   0.660 -1.3390 -0.8320  0.7462
 1024MOL0     H35149   2.698   8.467   0.490 -2.7146  1.8921 -0.4992
 1024MOL0     H35150   1.665   8.561   0.616  0.0359  1.8475  0.4378
 1024MOL0     H35151   1.438   8.462   0.597 -0.9702 -1.8975 -0.8760
 1024MOL0     H35152   1.218   8.018   0.184 -0.1706  1.5855 -1.0434
 1024MOL0     H35153   1.007   7.944   0.158 -0.1064 -1.5832  1.5448
 1024MOL0     H35154  -0.087   9.301  -0.055  2.8138  0.3484 -2.1357
 1024MOL0     H35155   0.092   9.450  -0.009  0.0756 -0.6757 -2.6753
 1024MOL0     H35156   0.356   9.678   0.192 -1.6167 -4.1750  1.1076
 1024MOL0     H35157   0.549   9.848   0.247  2.6851  1.0895  1.0066
 1024MOL0     H35158   0.630   9.981   0.398 -0.6154  1.0794 -1.0744
 1024MOL0     H35159   0.792   9.972   0.317 -0.6331 -0.2637 -0.1211
 1024MOL0     H35160   0.748  10.000   0.613 -1.1800  2.9161 -0.9185
 1024MOL0     H35161   0.914   9.980   0.536  0.5211 -0.9259 -1.1146
 1024MOL0     H35162   0.740  10.193   0.446  1.2491 -0.9695 -0.7825
 1024MOL0     H35163   0.914  10.185   0.460  0.9355  1.4340  2.4908
 1024MOL0     H35164   0.800  10.335   0.633 -1.2822 -0.9198  1.6916
 1024MOL0     H35165   0.717  10.205   0.691  1.7876 -1.3119  0.9105
 1024MOL0     H35166   1.098  10.092   0.819 -0.3546 -0.7665  1.5984
 1024MOL0     H35167   0.726   9.559   0.501 -0.3897  0.7970  0.4795
 1024MOL0     H35168   0.539   9.410   0.466  3.1137  0.3286  0.0409
  11.36623  11.36623  11.36623
